Title
43188
    1CHL1    C3    1   0.874   4.779   5.997 -0.1935 -0.3555  0.2875
    1CHL1    H3    2   0.765   4.780   6.021 -0.3883 -0.3187 -0.5527
    1CHL1    O3    3   0.941   4.760   6.126  0.1194 -1.1618  0.7874
    1CHL1   H3'    4   1.027   4.803   6.125 -0.9971  1.2735 -0.9502
    1CHL1    C4    5   0.896   4.655   5.909  0.0087 -0.0033 -0.3109
    1CHL1   H4A    6   1.003   4.645   5.884  0.3435  1.5973  0.3874
    1CHL1   H4B    7   0.869   4.570   5.976  0.3001  0.6253  0.6317
    1CHL1    C5    8   0.816   4.665   5.788 -0.1307  0.2815 -0.1347
    1CHL1    C6    9   0.732   4.566   5.758  0.7933  0.0957  0.1471
    1CHL1    H6   10   0.732   4.471   5.813  1.2468 -0.9801 -1.6368
    1CHL1    C7   11   0.663   4.566   5.621 -0.8581 -0.1067  0.0387
    1CHL1   H7A   12   0.659   4.463   5.582 -3.1906 -0.4768  1.0670
    1CHL1   H7B   13   0.560   4.602   5.642 -0.5013  1.6190 -0.9667
    1CHL1    C8   14   0.727   4.660   5.518  0.5307 -0.3739 -0.1678
    1CHL1    H8   15   0.822   4.613   5.483  1.0188 -2.2357  3.2118
    1CHL1   C14   16   0.627   4.686   5.400  0.3628 -0.0898 -0.7326
    1CHL1   H14   17   0.543   4.740   5.449  0.3188 -1.4647  0.7716
    1CHL1   C15   18   0.557   4.565   5.329  0.1025  0.0620 -0.2700
    1CHL1  H15A   19   0.628   4.486   5.297 -0.6510 -0.0704 -1.6974
    1CHL1  H15B   20   0.472   4.536   5.394 -0.6810  1.3762 -0.6617
    1CHL1   C16   21   0.496   4.633   5.206  0.2536 -0.1509 -0.0307
    1CHL1  H16A   22   0.521   4.567   5.120 -1.9931 -0.4765 -0.4983
    1CHL1  H16B   23   0.385   4.629   5.214  0.2092  0.7159 -0.2089
    1CHL1   C17   24   0.550   4.776   5.196  0.5281  0.0910 -0.4086
    1CHL1   H17   25   0.476   4.840   5.250 -1.2407 -3.4824  1.7491
    1CHL1   C13   26   0.674   4.778   5.290  0.1753  0.5820  0.1412
    1CHL1   C18   27   0.793   4.710   5.209  0.1463 -0.7093  0.0749
    1CHL1  H18A   28   0.874   4.686   5.280 -1.2770  0.7519  2.3438
    1CHL1  H18B   29   0.755   4.616   5.163 -0.4342 -0.2484 -0.4203
    1CHL1  H18C   30   0.824   4.775   5.125  0.2393 -0.0415  0.6142
    1CHL1   C12   31   0.706   4.917   5.353 -0.4835 -0.5436  0.0406
    1CHL1  H12A   32   0.767   4.977   5.280  1.6115 -2.4245  0.1350
    1CHL1  H12B   33   0.615   4.973   5.383  0.3574 -0.2552  2.2687
    1CHL1   C11   34   0.803   4.895   5.469  0.9662 -0.4058  0.4285
    1CHL1  H11A   35   0.889   4.845   5.419 -0.0421 -0.9732 -0.7740
    1CHL1  H11B   36   0.829   4.993   5.515 -2.8148  1.1583 -0.4335
    1CHL1    C9   37   0.760   4.793   5.575  0.4662  0.0097  1.0761
    1CHL1    H9   38   0.660   4.825   5.611 -0.1202 -1.2046  0.5700
    1CHL1   C10   39   0.850   4.788   5.700  0.0133 -0.1866 -0.5655
    1CHL1   C19   40   0.993   4.769   5.649  0.2943 -0.8055 -0.2846
    1CHL1  H19A   41   1.025   4.860   5.594 -1.4690  0.0733  0.0724
    1CHL1  H19B   42   1.060   4.754   5.736 -0.1151 -1.0470 -0.0100
    1CHL1  H19C   43   0.994   4.675   5.590 -1.3142 -0.3247 -1.1546
    1CHL1    C1   44   0.838   4.915   5.787 -0.0827  0.1674 -0.3808
    1CHL1   H1A   45   0.889   4.995   5.728 -0.5484  0.8982  0.1811
    1CHL1   H1B   46   0.731   4.939   5.799 -1.1977 -2.3151 -3.7286
    1CHL1    C2   47   0.918   4.908   5.919 -0.4576  0.8448 -0.6705
    1CHL1   H2A   48   0.911   5.002   5.977  2.5947  0.1166  1.0903
    1CHL1   H2B   49   1.024   4.885   5.896 -0.4893  0.5477 -0.5266
    1CHL1   C20   50   0.562   4.827   5.055 -0.1599 -0.2499  0.2641
    1CHL1   H20   51   0.637   4.775   4.993 -0.0165 -1.0086  1.0639
    1CHL1   C21   52   0.605   4.977   5.060  0.2096 -0.0276  0.7942
    1CHL1  H21A   53   0.716   4.981   5.061  0.2581 -1.1589  0.8866
    1CHL1  H21B   54   0.556   5.044   5.135  1.2197  0.2156  1.2544
    1CHL1  H21C   55   0.572   5.023   4.965  3.3809  2.2205  0.6402
    1CHL1   C22   56   0.433   4.820   4.980 -0.0620 -0.3226  0.4475
    1CHL1  H22A   57   0.393   4.718   4.992  0.4400 -0.7547 -1.2351
    1CHL1  H22B   58   0.359   4.893   5.020  0.4677 -0.3567  1.5140
    1CHL1   C23   59   0.434   4.838   4.828  0.4850  0.0398  0.8152
    1CHL1  H23A   60   0.503   4.912   4.782 -1.1465  1.2308  0.1788
    1CHL1  H23B   61   0.454   4.737   4.784  1.6747  1.4330 -2.1680
    1CHL1   C24   62   0.288   4.884   4.779 -0.8262  0.1744  0.0107
    1CHL1  H24A   63   0.204   4.815   4.804 -1.5032  0.8574 -0.3258
    1CHL1  H24B   64   0.271   4.988   4.812  0.0993  0.5981 -0.7777
    1CHL1   C25   65   0.280   4.889   4.625 -0.3622 -0.0863  0.5804
    1CHL1   H25   66   0.367   4.947   4.590 -0.0618  0.0540  1.5285
    1CHL1   C26   67   0.311   4.755   4.564 -0.3182  0.2546 -0.1680
    1CHL1  H26A   68   0.399   4.702   4.605 -1.9728 -1.1287  1.8214
    1CHL1  H26B   69   0.227   4.685   4.584  0.0829  0.0384  0.8232
    1CHL1  H26C   70   0.326   4.767   4.455  2.8481 -0.3508  0.1077
    1CHL1   C27   71   0.146   4.954   4.580 -0.5222  0.5328 -0.6026
    1CHL1  H27A   72   0.150   5.065   4.591 -0.3165  0.4708 -0.0303
    1CHL1  H27B   73   0.134   4.943   4.470  0.9316 -1.1979 -0.6199
    1CHL1  H27C   74   0.060   4.905   4.631  0.9068 -0.0398  1.3355
    2CHL1    C3   75   4.346   5.462   6.682 -0.3638 -0.2644 -0.6072
    2CHL1    H3   76   4.235   5.460   6.679 -0.3934  1.0954 -0.8415
    2CHL1    O3   77   4.385   5.468   6.821 -0.4849  0.3168 -1.2806
    2CHL1   H3'   78   4.401   5.558   6.851  3.8764 -1.1769  1.9102
    2CHL1    C4   79   4.404   5.340   6.612 -0.3852  0.2630 -0.1832
    2CHL1   H4A   80   4.513   5.331   6.632 -0.7690 -1.8299  1.3683
    2CHL1   H4B   81   4.357   5.250   6.658  0.5756 -0.8899 -1.3798
    2CHL1    C5   82   4.390   5.337   6.463 -0.1544 -0.7814  0.8669
    2CHL1    C6   83   4.341   5.228   6.400 -0.7665  0.0494  0.1290
    2CHL1    H6   84   4.312   5.142   6.462 -0.0848  0.2065  0.6712
    2CHL1    C7   85   4.310   5.225   6.257 -0.4716 -0.4068 -0.2704
    2CHL1   H7A   86   4.367   5.144   6.206  0.7732 -0.4944  1.1859
    2CHL1   H7B   87   4.201   5.208   6.247 -0.7149  0.5518  0.5548
    2CHL1    C8   88   4.358   5.351   6.177 -0.1060  0.6321  0.5508
    2CHL1    H8   89   4.464   5.330   6.149 -0.8179 -0.1993 -1.7754
    2CHL1   C14   90   4.279   5.365   6.040 -0.2727  0.0817 -0.9545
    2CHL1   H14   91   4.182   5.412   6.068 -0.9552 -1.9736  0.3846
    2CHL1   C15   92   4.252   5.228   5.961  0.3784 -0.6352  0.4840
    2CHL1  H15A   93   4.339   5.162   5.983  1.5830  0.5838 -0.4525
    2CHL1  H15B   94   4.161   5.186   6.010 -0.5895  1.1067  0.2810
    2CHL1   C16   95   4.236   5.267   5.816  0.3017  0.1358 -0.3758
    2CHL1  H16A   96   4.314   5.223   5.750 -0.4901  0.4925 -1.5878
    2CHL1  H16B   97   4.138   5.238   5.771  1.0554 -0.3727 -1.7436
    2CHL1   C17   98   4.248   5.426   5.821 -0.4932 -0.3626  0.3328
    2CHL1   H17   99   4.143   5.452   5.848 -1.1503  0.2327 -2.4526
    2CHL1   C13  100   4.336   5.465   5.940 -0.1309  0.4621  0.8048
    2CHL1   C18  101   4.481   5.424   5.905 -0.2813 -0.0197  0.0381
    2CHL1  H18A  102   4.486   5.317   5.875 -3.7704 -0.4629  0.6220
    2CHL1  H18B  103   4.533   5.486   5.828  0.2821 -0.8919 -0.3008
    2CHL1  H18C  104   4.553   5.423   5.990  4.0000  0.3032 -3.1961
    2CHL1   C12  105   4.332   5.602   6.016 -0.3701  0.6528 -0.2903
    2CHL1  H12A  106   4.367   5.686   5.954  2.2452 -0.6794 -0.7869
    2CHL1  H12B  107   4.229   5.631   6.045  0.7067  2.3735  2.1499
    2CHL1   C11  108   4.411   5.592   6.150 -1.1852  0.2150 -0.0248
    2CHL1  H11A  109   4.518   5.576   6.124 -1.1915  0.8815 -0.4896
    2CHL1  H11B  110   4.407   5.689   6.204 -1.2174 -0.2735  0.8598
    2CHL1    C9  111   4.358   5.484   6.248 -0.5340 -0.2643 -0.4576
    2CHL1    H9  112   4.252   5.505   6.275  0.1643  1.5425  1.1034
    2CHL1   C10  113   4.428   5.475   6.391 -0.1763  0.1584  1.0520
    2CHL1   C19  114   4.579   5.503   6.380 -0.0003 -0.3390  0.1159
    2CHL1  H19A  115   4.611   5.605   6.352  1.0383 -0.0855  2.0443
    2CHL1  H19B  116   4.614   5.485   6.484 -0.1936 -0.6899  0.1230
    2CHL1  H19C  117   4.625   5.425   6.316 -0.7442  0.7311 -1.7894
    2CHL1    C1  118   4.371   5.595   6.476  0.1143  0.8877  0.1126
    2CHL1   H1A  119   4.398   5.696   6.437 -0.1920  0.4947 -1.1861
    2CHL1   H1B  120   4.261   5.586   6.458  0.7263 -2.2109 -3.2402
    2CHL1    C2  121   4.394   5.594   6.632 -0.3917  0.1881 -0.5470
    2CHL1   H2A  122   4.339   5.680   6.676 -2.2589 -1.0129 -0.4026
    2CHL1   H2B  123   4.503   5.598   6.654 -0.8135  1.4144  1.6039
    2CHL1   C20  124   4.279   5.486   5.685  0.1041  0.1890  0.3271
    2CHL1   H20  125   4.378   5.447   5.654  0.1173  1.0211 -0.7619
    2CHL1   C21  126   4.306   5.635   5.692  0.5714 -0.5893  0.3982
    2CHL1  H21A  127   4.397   5.655   5.753  0.4546 -1.6747  0.9474
    2CHL1  H21B  128   4.221   5.690   5.739  0.2717 -1.2658  0.6622
    2CHL1  H21C  129   4.323   5.674   5.589 -1.7000 -1.8667 -0.5360
    2CHL1   C22  130   4.184   5.451   5.566  0.0037 -0.3565 -0.0271
    2CHL1  H22A  131   4.154   5.345   5.554 -0.1329 -0.4649  1.1940
    2CHL1  H22B  132   4.098   5.517   5.589  0.0969 -0.0222 -0.5925
    2CHL1   C23  133   4.237   5.491   5.423  0.7583  0.0083  0.1035
    2CHL1  H23A  134   4.271   5.597   5.417  0.6186  0.0073 -0.7223
    2CHL1  H23B  135   4.328   5.431   5.403 -0.3590 -1.6697 -0.0883
    2CHL1   C24  136   4.132   5.457   5.322 -0.0640 -0.6629  0.4760
    2CHL1  H24A  137   4.111   5.348   5.326 -1.1533 -0.4952 -0.1230
    2CHL1  H24B  138   4.040   5.508   5.358 -0.3262 -1.4278  0.9270
    2CHL1   C25  139   4.161   5.489   5.175 -0.3504  0.1943 -0.3069
    2CHL1   H25  140   4.181   5.598   5.174  0.3089  0.1694  2.4872
    2CHL1   C26  141   4.288   5.409   5.122 -0.0069 -0.7543 -0.1697
    2CHL1  H26A  142   4.300   5.425   5.013  1.0718 -1.9499 -0.2538
    2CHL1  H26B  143   4.369   5.464   5.175 -0.9733  0.8490 -0.3018
    2CHL1  H26C  144   4.274   5.301   5.147  3.2254 -1.4914 -1.1135
    2CHL1   C27  145   4.038   5.461   5.088  0.0241 -0.0191 -0.0595
    2CHL1  H27A  146   3.961   5.522   5.141  0.6206  0.1164  0.6698
    2CHL1  H27B  147   4.044   5.501   4.985 -1.2030 -1.2740 -0.6414
    2CHL1  H27C  148   4.001   5.357   5.081  1.8615 -0.7160  0.0454
    3CHL1    C3  149   5.592   6.477   6.277  0.0084 -0.2674 -0.3608
    3CHL1    H3  150   5.513   6.553   6.290 -0.3033 -0.3557 -1.6404
    3CHL1    O3  151   5.659   6.454   6.398 -0.3683  0.2732  0.2024
    3CHL1   H3'  152   5.753   6.455   6.378 -0.0676 -0.1929  1.4994
    3CHL1    C4  153   5.524   6.350   6.232  0.8653 -0.1039 -0.0405
    3CHL1   H4A  154   5.592   6.262   6.232 -0.2661 -0.9960 -0.3917
    3CHL1   H4B  155   5.443   6.340   6.307 -1.0493 -2.9298 -2.2806
    3CHL1    C5  156   5.468   6.376   6.087 -0.4499  0.3913 -0.0453
    3CHL1    C6  157   5.338   6.358   6.065  0.7041 -0.7215  0.4374
    3CHL1    H6  158   5.279   6.332   6.154  0.1862 -0.5608  0.1427
    3CHL1    C7  159   5.266   6.367   5.931 -0.0807 -0.2660  0.5546
    3CHL1   H7A  160   5.193   6.283   5.920 -0.3961  0.2210 -1.7142
    3CHL1   H7B  161   5.215   6.465   5.922 -0.5081 -0.5799 -0.6271
    3CHL1    C8  162   5.373   6.360   5.817  0.0120  0.8643  0.5955
    3CHL1    H8  163   5.408   6.254   5.809 -1.0079  0.4244  1.7000
    3CHL1   C14  164   5.310   6.399   5.677 -0.1929 -0.1786  0.6797
    3CHL1   H14  165   5.280   6.506   5.685 -1.8140 -0.5341 -0.0513
    3CHL1   C15  166   5.178   6.334   5.636 -0.5814 -0.4804  0.0687
    3CHL1  H15A  167   5.174   6.224   5.656 -0.3878 -0.8278 -1.6565
    3CHL1  H15B  168   5.094   6.369   5.700 -1.6639 -1.8058 -0.5761
    3CHL1   C16  169   5.166   6.362   5.485  0.5036  0.3086 -0.4869
    3CHL1  H16A  170   5.145   6.264   5.437  2.0475 -1.2879  1.8459
    3CHL1  H16B  171   5.078   6.426   5.461 -0.0148 -0.1445  0.1629
    3CHL1   C17  172   5.305   6.424   5.441 -0.1772  0.1478  0.1997
    3CHL1   H17  173   5.295   6.534   5.446 -0.8626  0.1175 -0.4549
    3CHL1   C13  174   5.408   6.388   5.556  0.8032  0.1345 -0.1832
    3CHL1   C18  175   5.456   6.242   5.545 -0.0680 -0.2942 -0.5271
    3CHL1  H18A  176   5.377   6.180   5.497 -2.8784 -0.5321  3.7953
    3CHL1  H18B  177   5.547   6.236   5.482  0.3995 -2.0510  0.2615
    3CHL1  H18C  178   5.492   6.189   5.636  2.0360 -0.7901 -1.5798
    3CHL1   C12  179   5.518   6.488   5.596  0.0556 -0.6942 -0.5104
    3CHL1  H12A  180   5.578   6.497   5.503 -0.9143 -0.5110 -1.1292
    3CHL1  H12B  181   5.478   6.592   5.601  0.4177 -0.5567 -0.4692
    3CHL1   C11  182   5.586   6.447   5.726  0.1646  0.3866 -0.0261
    3CHL1  H11A  183   5.641   6.352   5.707  0.8883  1.2568 -2.7894
    3CHL1  H11B  184   5.658   6.528   5.753 -2.8541  3.3253 -0.1179
    3CHL1    C9  185   5.495   6.445   5.853 -0.1543 -0.0428  0.2597
    3CHL1    H9  186   5.460   6.549   5.872  0.9111  0.1533  1.2493
    3CHL1   C10  187   5.570   6.408   5.982  0.9076  0.3683  0.0325
    3CHL1   C19  188   5.661   6.288   5.957 -0.2296 -0.1141  0.1710
    3CHL1  H19A  189   5.756   6.324   5.913  0.3124 -0.2428  1.2073
    3CHL1  H19B  190   5.698   6.235   6.047 -0.7641  0.4436  0.7247
    3CHL1  H19C  191   5.622   6.209   5.889  0.4264  0.3198 -0.7333
    3CHL1    C1  192   5.643   6.529   6.034  0.5099  0.1974  0.8022
    3CHL1   H1A  193   5.728   6.557   5.968  0.6272 -0.1060  0.8234
    3CHL1   H1B  194   5.579   6.620   6.026  2.4638  1.5224 -0.5870
    3CHL1    C2  195   5.694   6.519   6.176  0.2408  1.1775  0.4696
    3CHL1   H2A  196   5.734   6.621   6.194  0.5471  1.0630  0.4411
    3CHL1   H2B  197   5.775   6.443   6.168 -2.4278 -2.0967  2.1239
    3CHL1   C20  198   5.338   6.379   5.294  0.1524 -0.5002  0.1566
    3CHL1   H20  199   5.376   6.274   5.300  0.3269 -0.4718 -0.3750
    3CHL1   C21  200   5.457   6.468   5.249  0.2691 -1.0144 -0.0434
    3CHL1  H21A  201   5.501   6.452   5.149  2.9228 -1.1741  1.0666
    3CHL1  H21B  202   5.541   6.441   5.316 -0.1455 -0.0753  0.8786
    3CHL1  H21C  203   5.433   6.576   5.242 -0.2172 -1.2186 -2.0157
    3CHL1   C22  204   5.228   6.384   5.189  0.3136  0.1267  0.0858
    3CHL1  H22A  205   5.130   6.349   5.227  1.7515 -1.5258  2.5370
    3CHL1  H22B  206   5.216   6.493   5.170 -0.0893 -0.0119 -0.4939
    3CHL1   C23  207   5.257   6.312   5.053  0.8010  0.0259 -0.3167
    3CHL1  H23A  208   5.365   6.308   5.027  1.3076 -2.3394  1.8013
    3CHL1  H23B  209   5.225   6.206   5.068 -0.0885  0.0669 -1.7588
    3CHL1   C24  210   5.177   6.372   4.938  0.0791 -0.2670  0.0600
    3CHL1  H24A  211   5.067   6.376   4.950  0.0855  2.7403  0.0879
    3CHL1  H24B  212   5.195   6.480   4.915 -0.3100 -0.4474 -1.1495
    3CHL1   C25  213   5.191   6.290   4.803 -0.0786 -0.2346  0.0954
    3CHL1   H25  214   5.183   6.182   4.825 -0.7386 -0.3708 -0.7207
    3CHL1   C26  215   5.077   6.333   4.709 -0.7600  0.4213  0.4256
    3CHL1  H26A  216   4.977   6.316   4.755  0.0516  0.0332  2.0918
    3CHL1  H26B  217   5.086   6.443   4.695 -0.4508  0.4692  1.0074
    3CHL1  H26C  218   5.078   6.269   4.618 -0.2618 -0.8874  1.3188
    3CHL1   C27  219   5.323   6.319   4.733 -0.1753  0.1514 -0.9103
    3CHL1  H27A  220   5.338   6.428   4.749 -1.6570  0.1615  0.7591
    3CHL1  H27B  221   5.405   6.261   4.779 -0.4396 -0.8195 -1.6319
    3CHL1  H27C  222   5.322   6.299   4.623  0.5536  0.7094 -1.0221
    4CHL1    C3  223   5.310   5.209   6.178  0.5299 -0.7266  0.4281
    4CHL1    H3  224   5.300   5.108   6.133  0.9394  0.1566 -1.7729
    4CHL1    O3  225   5.296   5.194   6.321  0.0472 -0.2506  0.3190
    4CHL1   H3'  226   5.335   5.110   6.349 -0.3367 -0.5713 -0.0926
    4CHL1    C4  227   5.450   5.258   6.149  1.0499  0.5876 -0.5627
    4CHL1   H4A  228   5.470   5.351   6.206 -0.4249  0.2160  0.6305
    4CHL1   H4B  229   5.522   5.186   6.192  1.0813  0.2614 -1.1603
    4CHL1    C5  230   5.472   5.268   6.000  0.2497 -0.4949 -0.2900
    4CHL1    C6  231   5.572   5.203   5.933  0.1871  0.5066  0.0686
    4CHL1    H6  232   5.648   5.151   5.993 -1.3739 -0.6245  1.1517
    4CHL1    C7  233   5.606   5.219   5.791  0.0848 -0.0172 -1.2737
    4CHL1   H7A  234   5.713   5.246   5.774  0.3759 -1.3052 -1.6249
    4CHL1   H7B  235   5.594   5.115   5.751  1.6315 -0.8163  0.1986
    4CHL1    C8  236   5.522   5.323   5.719  0.0415 -0.1230  0.5018
    4CHL1    H8  237   5.567   5.423   5.731 -0.8899  0.3499  0.1796
    4CHL1   C14  238   5.511   5.300   5.560 -0.3300 -0.1660 -0.3553
    4CHL1   H14  239   5.449   5.208   5.560 -3.0737  1.5674 -0.2386
    4CHL1   C15  240   5.643   5.278   5.485  0.1584  0.3908 -0.0089
    4CHL1  H15A  241   5.709   5.363   5.511 -1.1262  1.7582 -1.0916
    4CHL1  H15B  242   5.702   5.187   5.510  0.3575  0.8088  1.0894
    4CHL1   C16  243   5.601   5.296   5.336  0.1322  0.0368  0.1915
    4CHL1  H16A  244   5.671   5.372   5.294 -1.4260  0.7969 -1.1660
    4CHL1  H16B  245   5.603   5.192   5.297  0.2020  0.3363 -0.6300
    4CHL1   C17  246   5.456   5.359   5.331  0.3415  0.1501 -0.2152
    4CHL1   H17  247   5.395   5.268   5.314  2.6007 -1.5379  0.1454
    4CHL1   C13  248   5.431   5.408   5.479  0.4849  1.0480 -0.1211
    4CHL1   C18  249   5.500   5.544   5.500 -0.3008 -0.7383 -0.1797
    4CHL1  H18A  250   5.609   5.537   5.479  0.1674  0.4144  1.6022
    4CHL1  H18B  251   5.456   5.632   5.447 -0.2509  0.5672  1.8144
    4CHL1  H18C  252   5.505   5.578   5.606 -1.0477  1.1517 -0.6999
    4CHL1   C12  253   5.285   5.411   5.530  0.0691  0.2969 -0.7238
    4CHL1  H12A  254   5.231   5.503   5.501  0.4900  1.3040  1.5109
    4CHL1  H12B  255   5.224   5.324   5.497  0.6923 -0.2528 -0.4530
    4CHL1   C11  256   5.280   5.423   5.688 -0.1051 -0.2862  0.7799
    4CHL1  H11A  257   5.319   5.525   5.705  1.8772 -0.8573 -0.0327
    4CHL1  H11B  258   5.176   5.408   5.722  0.7885 -1.7374  3.0576
    4CHL1    C9  259   5.372   5.325   5.769  0.0280 -0.0006  0.3510
    4CHL1    H9  260   5.332   5.223   5.750 -1.5713  0.6175  0.2217
    4CHL1   C10  261   5.366   5.349   5.923 -0.0371  0.3654 -0.4170
    4CHL1   C19  262   5.389   5.498   5.954  0.2623 -0.4927 -0.2485
    4CHL1  H19A  263   5.318   5.565   5.902 -3.3404 -1.7680  2.6206
    4CHL1  H19B  264   5.381   5.520   6.063 -0.8426  1.6117 -0.7089
    4CHL1  H19C  265   5.495   5.524   5.931  0.1052 -0.8209 -1.4194
    4CHL1    C1  266   5.223   5.306   5.972 -0.3087  0.4254  0.7701
    4CHL1   H1A  267   5.154   5.377   5.923 -0.2684 -1.1972 -1.7964
    4CHL1   H1B  268   5.208   5.206   5.927 -0.5436  1.4242 -1.5011
    4CHL1    C2  269   5.208   5.303   6.123  0.1668  0.3085 -0.3524
    4CHL1   H2A  270   5.107   5.263   6.148  0.1783 -0.8332 -1.9857
    4CHL1   H2B  271   5.208   5.404   6.169 -0.2478  0.5405 -0.8463
    4CHL1   C20  272   5.430   5.454   5.209 -0.0723 -0.3152 -0.2594
    4CHL1   H20  273   5.480   5.552   5.223 -0.4191 -0.0768 -0.6485
    4CHL1   C21  274   5.279   5.481   5.208  0.0808  0.9218  0.2687
    4CHL1  H21A  275   5.212   5.394   5.226  2.9389 -2.0036 -2.1785
    4CHL1  H21B  276   5.249   5.524   5.110 -1.4223 -1.3865 -0.3652
    4CHL1  H21C  277   5.268   5.560   5.286  1.4894  0.7253  0.6960
    4CHL1   C22  278   5.482   5.396   5.077 -0.3315  0.2950 -0.0710
    4CHL1  H22A  279   5.590   5.369   5.080 -0.1711  0.9045 -0.3214
    4CHL1  H22B  280   5.427   5.302   5.053  0.4335 -0.0825 -0.3858
    4CHL1   C23  281   5.473   5.486   4.957 -0.0346 -0.2992  0.8391
    4CHL1  H23A  282   5.370   5.510   4.924  0.1069  1.8302  1.7894
    4CHL1  H23B  283   5.524   5.584   4.971 -2.7885  1.5224 -0.8301
    4CHL1   C24  284   5.551   5.420   4.837 -0.1916 -0.2397 -0.1584
    4CHL1  H24A  285   5.660   5.406   4.854 -0.4587 -1.6406  0.5729
    4CHL1  H24B  286   5.515   5.315   4.827 -1.2857 -0.3493  3.4164
    4CHL1   C25  287   5.547   5.504   4.706 -0.4907  0.5558  0.1517
    4CHL1   H25  288   5.561   5.613   4.727 -0.2363  0.2759  1.5624
    4CHL1   C26  289   5.649   5.453   4.611 -0.1575 -0.1242  0.1704
    4CHL1  H26A  290   5.641   5.514   4.519 -1.6850  2.3316  1.8252
    4CHL1  H26B  291   5.750   5.464   4.655  0.9761 -2.8635 -1.4939
    4CHL1  H26C  292   5.625   5.349   4.579 -2.7060  0.3548  0.2858
    4CHL1   C27  293   5.412   5.512   4.634  0.2278  0.0087  0.0957
    4CHL1  H27A  294   5.411   5.576   4.543  0.3251 -0.5138 -0.2835
    4CHL1  H27B  295   5.374   5.412   4.601 -1.5793  0.8908 -0.6630
    4CHL1  H27C  296   5.331   5.547   4.702  1.2343  2.1529  0.2554
    5CHL1    C3  297   4.285   1.167   5.789 -0.1790  0.5471  0.1220
    5CHL1    H3  298   4.284   1.277   5.776  2.2036  0.8270  1.6442
    5CHL1    O3  299   4.288   1.147   5.929  0.0118  0.0285 -0.3113
    5CHL1   H3'  300   4.308   1.055   5.948  3.9067  0.8214  0.2578
    5CHL1    C4  301   4.145   1.115   5.739  0.2961  0.4249  0.4963
    5CHL1   H4A  302   4.130   1.011   5.775  0.2427  0.0324 -0.6270
    5CHL1   H4B  303   4.078   1.179   5.802  0.2466 -1.5333  2.5484
    5CHL1    C5  304   4.143   1.131   5.584  0.5876  0.1336 -0.4416
    5CHL1    C6  305   4.047   1.203   5.532  0.4344 -0.6921 -0.2665
    5CHL1    H6  306   3.965   1.250   5.589  0.1977  0.8408 -1.7999
    5CHL1    C7  307   4.037   1.218   5.383  0.0243  0.0970 -0.3698
    5CHL1   H7A  308   3.930   1.234   5.358 -0.7913  0.2018  2.7426
    5CHL1   H7B  309   4.096   1.307   5.354  0.9142 -0.5440 -0.5479
    5CHL1    C8  310   4.100   1.093   5.310  0.3723  0.1784 -0.4978
    5CHL1    H8  311   4.042   1.000   5.331 -1.6749  1.2059 -1.3160
    5CHL1   C14  312   4.101   1.107   5.158  0.7852 -0.9938 -0.4693
    5CHL1   H14  313   4.148   1.206   5.137  0.7077 -0.7253  0.5588
    5CHL1   C15  314   3.974   1.130   5.076  0.3200 -0.6641  0.3739
    5CHL1  H15A  315   3.892   1.064   5.113 -0.6098 -0.6093 -1.4604
    5CHL1  H15B  316   3.934   1.234   5.085  1.6655 -0.0004 -0.9167
    5CHL1   C16  317   4.007   1.087   4.925  0.0263  0.4048 -0.9544
    5CHL1  H16A  318   3.939   1.003   4.899  1.2939 -1.0120  0.1202
    5CHL1  H16B  319   3.986   1.173   4.857  1.4141  1.3979 -0.1785
    5CHL1   C17  320   4.148   1.043   4.928 -0.2657  0.1795  0.2855
    5CHL1   H17  321   4.204   1.138   4.916  1.0958 -0.3549  2.0045
    5CHL1   C13  322   4.177   1.001   5.081  0.5045 -0.0690  0.3586
    5CHL1   C18  323   4.116   0.858   5.100  0.1849  0.2830 -0.5203
    5CHL1  H18A  324   4.013   0.839   5.061 -0.2773 -1.6989  1.4899
    5CHL1  H18B  325   4.187   0.787   5.052 -1.1758 -1.5186  0.0014
    5CHL1  H18C  326   4.123   0.812   5.201 -1.1214 -1.4098 -1.1501
    5CHL1   C12  327   4.325   1.009   5.126 -0.4120  0.4106  0.1235
    5CHL1  H12A  328   4.386   0.951   5.053 -2.0384 -0.4360 -0.6040
    5CHL1  H12B  329   4.350   1.114   5.101 -0.7670  0.3453 -0.5221
    5CHL1   C11  330   4.328   0.975   5.267  0.2709 -0.7501  0.2243
    5CHL1  H11A  331   4.293   0.870   5.279  2.9336 -1.5880  1.6629
    5CHL1  H11B  332   4.432   0.975   5.308 -0.5629 -0.3939  2.4728
    5CHL1    C9  333   4.239   1.076   5.354  0.5052  0.5105  0.0493
    5CHL1    H9  334   4.293   1.170   5.329  3.5786 -1.3849 -1.0592
    5CHL1   C10  335   4.251   1.054   5.509  0.3178  0.1606  1.1277
    5CHL1   C19  336   4.239   0.901   5.532  0.1961  0.3636 -0.5234
    5CHL1  H19A  337   4.221   0.859   5.633 -0.1645 -1.2365 -1.2195
    5CHL1  H19B  338   4.159   0.860   5.466  0.6040 -1.2699 -0.0393
    5CHL1  H19C  339   4.339   0.855   5.516  1.7277  2.5328  1.9048
    5CHL1    C1  340   4.389   1.097   5.566 -0.1106  0.0253 -0.5762
    5CHL1   H1A  341   4.467   1.034   5.519  0.3074 -1.9226  2.4425
    5CHL1   H1B  342   4.412   1.198   5.526  0.2333 -0.8325 -2.6746
    5CHL1    C2  343   4.403   1.086   5.724  0.2745 -0.2449  0.0473
    5CHL1   H2A  344   4.494   1.128   5.772  0.8530  0.8534 -1.8863
    5CHL1   H2B  345   4.389   0.979   5.751 -1.6594 -0.4072 -1.3981
    5CHL1   C20  346   4.174   0.933   4.822  0.2237  0.4309 -0.8311
    5CHL1   H20  347   4.106   0.851   4.850  1.8365  0.1864  2.8982
    5CHL1   C21  348   4.322   0.886   4.823 -0.5062  0.5145 -0.1541
    5CHL1  H21A  349   4.348   0.839   4.726 -1.0360 -0.1763  0.0304
    5CHL1  H21B  350   4.337   0.809   4.902 -1.4297 -2.0271 -2.3159
    5CHL1  H21C  351   4.389   0.974   4.830 -0.3576  0.4817 -1.0232
    5CHL1   C22  352   4.133   0.991   4.679  0.2935 -0.2012 -0.2943
    5CHL1  H22A  353   4.156   0.922   4.595 -0.3597 -1.3143  0.4187
    5CHL1  H22B  354   4.022   0.985   4.679  0.3091 -1.0053 -2.3490
    5CHL1   C23  355   4.184   1.137   4.644  0.0946 -0.4057  0.9645
    5CHL1  H23A  356   4.119   1.212   4.694  2.5694 -0.1970  4.2420
    5CHL1  H23B  357   4.279   1.164   4.695  1.6747 -0.7761 -1.6347
    5CHL1   C24  358   4.200   1.161   4.492  0.1346  0.3423 -0.6434
    5CHL1  H24A  359   4.266   1.084   4.447  0.6623  0.7230 -0.5305
    5CHL1  H24B  360   4.105   1.132   4.443 -0.0383  0.0985 -0.1725
    5CHL1   C25  361   4.233   1.302   4.446  0.9376  0.6311  0.0556
    5CHL1   H25  362   4.165   1.367   4.505 -0.1707 -0.5748  0.1262
    5CHL1   C26  363   4.378   1.332   4.467 -0.1408 -0.6247  0.1531
    5CHL1  H26A  364   4.396   1.346   4.575  0.3683 -0.8429  0.1023
    5CHL1  H26B  365   4.438   1.243   4.438 -0.1087 -1.2419  2.0156
    5CHL1  H26C  366   4.401   1.422   4.405  0.6675 -0.9013  0.0457
    5CHL1   C27  367   4.194   1.305   4.295 -0.7054 -0.1859  0.5661
    5CHL1  H27A  368   4.278   1.260   4.239 -0.6616  0.5957 -0.0018
    5CHL1  H27B  369   4.100   1.247   4.282 -0.4953 -0.4250  0.1114
    5CHL1  H27C  370   4.192   1.414   4.276  1.5859 -0.0310  1.0263
    6CHL1    C3  371   2.949   0.718   5.916  0.6496 -0.3307 -0.1685
    6CHL1    H3  372   2.951   0.612   5.884 -3.0621  0.3920 -3.5498
    6CHL1    O3  373   3.014   0.746   6.039  0.2791  0.3683  0.2999
    6CHL1   H3'  374   2.978   0.670   6.086  1.8932 -0.4841  0.2423
    6CHL1    C4  375   3.006   0.805   5.803 -0.0384 -0.1117 -0.0191
    6CHL1   H4A  376   3.011   0.912   5.835  0.4359  0.7936 -2.8754
    6CHL1   H4B  377   3.112   0.777   5.786  0.4246  1.5410 -0.0500
    6CHL1    C5  378   2.931   0.789   5.674  0.1918  0.9419 -0.2923
    6CHL1    C6  379   2.995   0.744   5.563  0.9102 -0.0905 -0.1325
    6CHL1    H6  380   3.101   0.718   5.576  0.8321 -0.0314  0.7004
    6CHL1    C7  381   2.926   0.718   5.433 -0.2716  0.0029  0.5043
    6CHL1   H7A  382   2.991   0.751   5.348  0.0177 -0.1063  0.6823
    6CHL1   H7B  383   2.911   0.609   5.427 -1.8566  0.1761  0.8903
    6CHL1    C8  384   2.781   0.779   5.426  0.2477  0.3293  0.1625
    6CHL1    H8  385   2.781   0.889   5.407 -2.1622  0.1114 -1.5873
    6CHL1   C14  386   2.697   0.724   5.307  0.2212 -0.4847  0.1798
    6CHL1   H14  387   2.681   0.617   5.332 -0.8831 -0.4059 -0.1561
    6CHL1   C15  388   2.759   0.735   5.164  0.7127 -0.3515 -0.0845
    6CHL1  H15A  389   2.822   0.827   5.175  1.2164 -0.9184  2.2534
    6CHL1  H15B  390   2.830   0.652   5.145  0.1849 -0.9040  0.3454
    6CHL1   C16  391   2.640   0.725   5.071  0.7125 -0.1655  0.3822
    6CHL1  H16A  392   2.634   0.818   5.010  0.1613 -0.6974 -0.4027
    6CHL1  H16B  393   2.647   0.630   5.014 -0.3932 -2.4925  3.7786
    6CHL1   C17  394   2.510   0.721   5.162  0.5155  0.0675  0.4540
    6CHL1   H17  395   2.493   0.613   5.184  1.9985  0.0963  1.9149
    6CHL1   C13  396   2.556   0.780   5.301 -0.2441  0.8688  0.9628
    6CHL1   C18  397   2.562   0.932   5.287  0.5247  0.5924 -0.0474
    6CHL1  H18A  398   2.618   0.983   5.368  1.1806 -0.3367  0.0987
    6CHL1  H18B  399   2.610   0.978   5.197  1.0390  1.4691  0.6586
    6CHL1  H18C  400   2.456   0.962   5.274  0.5817  0.9720  0.3521
    6CHL1   C12  401   2.476   0.739   5.423 -0.6532  0.2747 -0.2096
    6CHL1  H12A  402   2.373   0.782   5.428 -0.2828  1.6102 -2.5623
    6CHL1  H12B  403   2.469   0.628   5.420 -0.3745  0.0823  2.7827
    6CHL1   C11  404   2.555   0.785   5.547  0.3815 -0.3955 -0.1938
    6CHL1  H11A  405   2.543   0.896   5.544 -0.8432 -0.5357 -2.7233
    6CHL1  H11B  406   2.503   0.734   5.630  0.2904  0.6759  0.4269
    6CHL1    C9  407   2.707   0.751   5.559  0.5913 -0.5281  0.4668
    6CHL1    H9  408   2.701   0.640   5.561  0.1988 -0.5208  0.0079
    6CHL1   C10  409   2.776   0.817   5.681  0.8227  0.6222  0.3914
    6CHL1   C19  410   2.763   0.974   5.676 -0.0430  1.1165  0.7495
    6CHL1  H19A  411   2.812   1.016   5.586 -0.3023 -0.6330 -0.2526
    6CHL1  H19B  412   2.655   1.002   5.683 -0.8872 -1.0712 -2.0043
    6CHL1  H19C  413   2.813   1.022   5.763  1.3286 -0.5311  0.9197
    6CHL1    C1  414   2.725   0.745   5.809 -0.4317  0.1680  0.2150
    6CHL1   H1A  415   2.627   0.789   5.840  0.2566  2.0799 -0.1832
    6CHL1   H1B  416   2.711   0.637   5.789  2.6895 -0.5307  1.2656
    6CHL1    C2  417   2.813   0.765   5.933  0.3594 -1.1827 -0.3707
    6CHL1   H2A  418   2.758   0.710   6.012  0.2762 -0.9352 -0.2524
    6CHL1   H2B  419   2.804   0.873   5.959 -0.3620 -1.3421  0.0561
    6CHL1   C20  420   2.379   0.766   5.090 -0.5616 -0.5914  0.0982
    6CHL1   H20  421   2.396   0.872   5.061  1.3413 -0.3188  1.9205
    6CHL1   C21  422   2.250   0.750   5.177 -0.5545 -0.0934 -0.8867
    6CHL1  H21A  423   2.228   0.647   5.210  1.6108 -0.4161 -0.3233
    6CHL1  H21B  424   2.160   0.788   5.123 -1.4345  2.2074  1.9512
    6CHL1  H21C  425   2.254   0.819   5.264 -0.2313 -1.4391  0.1975
    6CHL1   C22  426   2.364   0.691   4.959 -0.1349 -0.8178 -0.4219
    6CHL1  H22A  427   2.456   0.639   4.923  0.9425  2.1417 -2.3114
    6CHL1  H22B  428   2.279   0.620   4.962 -2.6689  2.0068 -1.1442
    6CHL1   C23  429   2.344   0.776   4.829  0.0243 -1.0379  0.4200
    6CHL1  H23A  430   2.271   0.855   4.855  0.0936 -0.5407 -0.8509
    6CHL1  H23B  431   2.439   0.828   4.804 -0.9074  1.2088  1.2839
    6CHL1   C24  432   2.281   0.690   4.721  0.0361  0.3313  0.2240
    6CHL1  H24A  433   2.309   0.584   4.737  0.0408  0.5416  1.7253
    6CHL1  H24B  434   2.172   0.695   4.739 -0.2075  0.0255 -1.0898
    6CHL1   C25  435   2.304   0.722   4.570 -0.1068 -0.5014  0.2997
    6CHL1   H25  436   2.229   0.665   4.511  0.0951 -0.7685  0.3030
    6CHL1   C26  437   2.285   0.872   4.535  0.4069 -0.2677 -0.2056
    6CHL1  H26A  438   2.180   0.889   4.568  0.8829 -0.2025  1.3514
    6CHL1  H26B  439   2.355   0.933   4.597 -0.5333  1.4102 -0.7366
    6CHL1  H26C  440   2.297   0.894   4.427 -0.7898 -0.4029 -0.3805
    6CHL1   C27  441   2.450   0.679   4.536 -0.0564  0.6268 -0.1881
    6CHL1  H27A  442   2.490   0.582   4.571  1.4549  1.0386 -0.6867
    6CHL1  H27B  443   2.477   0.688   4.429  1.8163  1.3820  0.3119
    6CHL1  H27C  444   2.519   0.752   4.584  0.0770 -0.3571  1.1648
    7CHL1    C3  445   5.420   4.578   6.145 -0.1981  0.2543 -0.1485
    7CHL1    H3  446   5.451   4.488   6.089  0.6810  0.2692  0.3032
    7CHL1    O3  447   5.455   4.559   6.277 -0.1703 -0.0111 -0.0673
    7CHL1   H3'  448   5.368   4.551   6.318  0.1249 -0.3982  0.4928
    7CHL1    C4  449   5.500   4.695   6.077 -0.1953 -0.2719 -0.7144
    7CHL1   H4A  450   5.482   4.785   6.139 -0.8364  0.5667 -2.0605
    7CHL1   H4B  451   5.609   4.678   6.082 -0.5491 -2.5296  0.6908
    7CHL1    C5  452   5.457   4.716   5.933  0.0021  0.1801 -0.6312
    7CHL1    C6  453   5.547   4.718   5.839  0.6905 -0.0684  0.6401
    7CHL1    H6  454   5.650   4.710   5.878  0.9233  0.2606  0.0956
    7CHL1    C7  455   5.518   4.762   5.703 -0.0371 -0.2938 -0.5482
    7CHL1   H7A  456   5.593   4.841   5.687  1.1389 -1.3515 -0.4003
    7CHL1   H7B  457   5.534   4.679   5.631  4.4177  0.5842 -0.8117
    7CHL1    C8  458   5.376   4.824   5.689 -0.5060  0.3643 -0.0687
    7CHL1    H8  459   5.372   4.926   5.732 -0.0684  1.6554 -2.8725
    7CHL1   C14  460   5.341   4.824   5.548 -0.2313 -0.2033  0.0390
    7CHL1   H14  461   5.331   4.717   5.520 -1.0934  0.3229 -1.8373
    7CHL1   C15  462   5.438   4.886   5.446  0.3315 -0.1853  0.4478
    7CHL1  H15A  463   5.476   4.985   5.476 -2.1682  0.3926  2.0535
    7CHL1  H15B  464   5.519   4.821   5.407 -1.0954 -2.0688  0.4368
    7CHL1   C16  465   5.352   4.904   5.318 -1.0379 -0.3072  0.3198
    7CHL1  H16A  466   5.357   5.013   5.294  0.4492 -0.3151  0.5432
    7CHL1  H16B  467   5.389   4.850   5.229  2.1567 -0.0469  1.3573
    7CHL1   C17  468   5.197   4.873   5.355  0.1700 -0.2280 -0.0248
    7CHL1   H17  469   5.162   4.777   5.311 -2.7228  0.3208  0.8416
    7CHL1   C13  470   5.196   4.872   5.511  0.4419 -0.1135  0.0213
    7CHL1   C18  471   5.191   5.016   5.567 -0.0765 -0.1242  0.3080
    7CHL1  H18A  472   5.094   5.065   5.545  1.3096  2.8291  0.2810
    7CHL1  H18B  473   5.211   5.020   5.677  1.1176 -2.7218  0.2661
    7CHL1  H18C  474   5.263   5.080   5.512 -0.2452 -1.0128 -0.9862
    7CHL1   C12  475   5.096   4.781   5.589  0.6578 -0.3560  0.5880
    7CHL1  H12A  476   4.993   4.824   5.578  0.2037 -0.4660  3.4432
    7CHL1  H12B  477   5.087   4.683   5.538 -3.1534 -0.7534  1.6970
    7CHL1   C11  478   5.119   4.771   5.740  0.2362 -0.1378  0.2292
    7CHL1  H11A  479   5.097   4.870   5.783 -0.2967  0.9303 -2.3196
    7CHL1  H11B  480   5.053   4.695   5.786  0.0748 -0.4760 -0.5314
    7CHL1    C9  481   5.271   4.745   5.771  0.0133  0.3348 -0.1785
    7CHL1    H9  482   5.280   4.638   5.743 -0.3379 -0.2347  1.7182
    7CHL1   C10  483   5.305   4.735   5.920 -0.0169 -0.2044  0.1615
    7CHL1   C19  484   5.256   4.863   5.993 -0.8702  0.0285  0.5940
    7CHL1  H19A  485   5.295   4.862   6.097 -0.6722  0.8151  0.5346
    7CHL1  H19B  486   5.287   4.953   5.935 -1.7486 -0.5258 -0.7638
    7CHL1  H19C  487   5.146   4.857   5.988 -0.7877 -0.5951 -0.9489
    7CHL1    C1  488   5.231   4.612   5.988 -0.1217  0.4243 -0.5136
    7CHL1   H1A  489   5.123   4.637   5.978 -0.0888  0.6960 -0.1982
    7CHL1   H1B  490   5.255   4.525   5.923  0.4225  0.8964 -0.9672
    7CHL1    C2  491   5.267   4.586   6.133 -0.4015  0.9567 -0.3027
    7CHL1   H2A  492   5.239   4.481   6.156 -0.7106  0.8550 -1.0884
    7CHL1   H2B  493   5.224   4.655   6.208 -1.9398 -0.9545  0.6866
    7CHL1   C20  494   5.103   4.966   5.270  0.0647 -0.3431  0.3527
    7CHL1   H20  495   5.128   5.072   5.290 -0.1799 -0.2150 -0.0077
    7CHL1   C21  496   4.959   4.947   5.312  0.4271 -0.4414  0.1191
    7CHL1  H21A  497   4.934   4.842   5.336  1.5417 -0.1830  2.7282
    7CHL1  H21B  498   4.884   5.007   5.256  0.4364  0.3035  0.8725
    7CHL1  H21C  499   4.957   4.987   5.415  0.0987 -5.3859  2.3244
    7CHL1   C22  500   5.115   4.947   5.116 -0.0717 -0.4814  0.2574
    7CHL1  H22A  501   5.218   4.912   5.097  0.0544 -0.1850  0.3852
    7CHL1  H22B  502   5.033   4.878   5.086 -0.8175  0.1823  0.6979
    7CHL1   C23  503   5.098   5.082   5.041 -0.0042 -0.4621  0.0046
    7CHL1  H23A  504   5.002   5.123   5.080  0.3790  1.2668 -0.8170
    7CHL1  H23B  505   5.171   5.160   5.070 -0.9241 -0.2778  2.0284
    7CHL1   C24  506   5.112   5.073   4.885  0.7693 -0.4629  0.1541
    7CHL1  H24A  507   5.214   5.044   4.852  0.4759 -2.3270  0.7975
    7CHL1  H24B  508   5.040   4.998   4.845  0.6154 -0.3286  0.1757
    7CHL1   C25  509   5.069   5.212   4.815 -0.6185  0.3391 -0.6751
    7CHL1   H25  510   4.976   5.248   4.862  0.6915  0.4780  1.9936
    7CHL1   C26  511   5.173   5.319   4.829  0.0320 -0.4705  0.2093
    7CHL1  H26A  512   5.130   5.421   4.816  0.3097 -0.0765  2.0949
    7CHL1  H26B  513   5.203   5.322   4.936  2.6329  0.9399 -0.4752
    7CHL1  H26C  514   5.254   5.297   4.756 -0.8468  0.8219 -1.2122
    7CHL1   C27  515   5.040   5.172   4.666 -0.4691 -0.3929 -0.7569
    7CHL1  H27A  516   4.952   5.105   4.663 -0.1045 -0.9267  0.0251
    7CHL1  H27B  517   5.010   5.260   4.606  0.3800  1.4179  1.3251
    7CHL1  H27C  518   5.129   5.128   4.616 -1.2615 -1.1012 -1.5807
    8CHL1    C3  519   2.013   6.220   6.115 -0.1437  0.8609 -0.3084
    8CHL1    H3  520   1.916   6.171   6.092 -0.4028  0.6494  1.1345
    8CHL1    O3  521   2.057   6.180   6.243  0.0516  0.9183  0.3602
    8CHL1   H3'  522   2.134   6.123   6.237 -2.4895 -2.8321 -4.1351
    8CHL1    C4  523   2.118   6.189   6.006 -0.7305 -0.2032  0.8870
    8CHL1   H4A  524   2.203   6.253   6.036 -0.7691 -0.3384  1.2937
    8CHL1   H4B  525   2.158   6.087   6.024  0.3281  0.3445  1.7632
    8CHL1    C5  526   2.081   6.231   5.871 -0.2688  0.3483  0.7956
    8CHL1    C6  527   2.087   6.140   5.771 -0.2426  0.4764 -0.1554
    8CHL1    H6  528   2.128   6.042   5.797  1.5216  0.4899 -2.4991
    8CHL1    C7  529   2.052   6.161   5.629  0.1122  0.2714  0.4283
    8CHL1   H7A  530   2.130   6.111   5.568  0.2051  1.6881 -0.6693
    8CHL1   H7B  531   1.950   6.121   5.611 -0.0710  1.4255 -1.4295
    8CHL1    C8  532   2.048   6.315   5.600 -0.0053 -0.2701  0.3225
    8CHL1    H8  533   2.154   6.347   5.606 -0.5455  1.5492  0.6695
    8CHL1   C14  534   1.981   6.340   5.462  0.1647 -0.2959 -0.2974
    8CHL1   H14  535   1.880   6.295   5.477 -2.0123  3.7330 -1.1368
    8CHL1   C15  536   2.037   6.272   5.334  0.0792  0.9189  0.3375
    8CHL1  H15A  537   2.146   6.283   5.315  0.1002 -0.5739 -0.6263
    8CHL1  H15B  538   2.012   6.164   5.324  0.2800  1.0380 -2.2703
    8CHL1   C16  539   1.961   6.348   5.223 -0.0634  0.2990 -0.1533
    8CHL1  H16A  540   2.026   6.392   5.145  0.3713  2.5250  1.3755
    8CHL1  H16B  541   1.893   6.282   5.164 -2.2095  1.8581  0.4724
    8CHL1   C17  542   1.877   6.463   5.293 -0.5241  0.0282 -1.0415
    8CHL1   H17  543   1.779   6.420   5.323 -0.1607 -0.7608 -0.9512
    8CHL1   C13  544   1.944   6.491   5.429 -0.1981  0.4011 -0.2320
    8CHL1   C18  545   2.072   6.565   5.406 -0.4178 -0.2129 -0.0589
    8CHL1  H18A  546   2.143   6.571   5.492 -0.3014  1.2969 -0.2227
    8CHL1  H18B  547   2.118   6.525   5.313  0.8680  1.8876 -0.3979
    8CHL1  H18C  548   2.040   6.668   5.380 -1.6497 -0.5557  0.0736
    8CHL1   C12  549   1.863   6.551   5.541  0.6976  0.1490 -0.3281
    8CHL1  H12A  550   1.832   6.656   5.524  1.1984  0.3963  0.2483
    8CHL1  H12B  551   1.769   6.493   5.554  1.7856 -1.5710  0.1386
    8CHL1   C11  552   1.939   6.542   5.671 -0.5334  0.0822 -0.4072
    8CHL1  H11A  553   2.037   6.594   5.664 -1.7563  2.5514 -0.0626
    8CHL1  H11B  554   1.895   6.614   5.744 -1.5629 -0.9488  0.0143
    8CHL1    C9  555   1.967   6.394   5.713 -1.2322  1.5823 -0.0230
    8CHL1    H9  556   1.864   6.353   5.711 -0.7074  0.2270 -0.1738
    8CHL1   C10  557   2.034   6.376   5.857  0.1452  1.0001  0.8789
    8CHL1   C19  558   2.152   6.470   5.868  0.1211 -0.4763 -0.6178
    8CHL1  H19A  559   2.208   6.454   5.774  0.5284  0.7007 -0.5951
    8CHL1  H19B  560   2.136   6.579   5.879  0.4201 -0.6151  1.5364
    8CHL1  H19C  561   2.220   6.451   5.953 -1.1882  0.6631  0.7343
    8CHL1    C1  562   1.933   6.410   5.969  0.3120  0.3362 -0.9177
    8CHL1   H1A  563   1.889   6.511   5.971  1.0108  0.6607  1.4982
    8CHL1   H1B  564   1.851   6.338   5.949 -0.7775  1.0736  0.6453
    8CHL1    C2  565   1.990   6.369   6.111  0.0912 -0.9370 -0.7693
    8CHL1   H2A  566   1.905   6.393   6.178  1.2841  1.5427 -0.0440
    8CHL1   H2B  567   2.070   6.441   6.138 -0.3901 -0.0988 -1.5063
    8CHL1   C20  568   1.859   6.586   5.192  0.0956  0.4922 -0.5766
    8CHL1   H20  569   1.966   6.608   5.175  0.6194 -0.9425  0.6360
    8CHL1   C21  570   1.788   6.703   5.261 -0.9642 -0.1847  0.5571
    8CHL1  H21A  571   1.860   6.751   5.330 -0.3381 -0.7647  0.3130
    8CHL1  H21B  572   1.711   6.670   5.333  0.4943 -0.7038  1.9303
    8CHL1  H21C  573   1.751   6.783   5.193 -1.3092  0.0024  0.9616
    8CHL1   C22  574   1.784   6.550   5.062  0.4557  0.6703  0.3460
    8CHL1  H22A  575   1.751   6.649   5.024 -0.7257  0.3934  0.5996
    8CHL1  H22B  576   1.858   6.513   4.988  0.7254  0.7640  0.5678
    8CHL1   C23  577   1.671   6.457   5.080  0.0303 -0.8063  0.1624
    8CHL1  H23A  578   1.703   6.366   5.135  4.6955  1.2159  1.2413
    8CHL1  H23B  579   1.614   6.505   5.163 -0.0590 -0.1762 -0.2598
    8CHL1   C24  580   1.581   6.420   4.960 -0.5698  0.4826  0.6448
    8CHL1  H24A  581   1.505   6.347   4.997  0.5150 -1.1938 -0.2860
    8CHL1  H24B  582   1.530   6.509   4.919 -1.8710  0.8901  2.9796
    8CHL1   C25  583   1.659   6.358   4.842 -0.5659 -0.1733  0.2247
    8CHL1   H25  584   1.750   6.307   4.881  0.4571  0.6043 -1.0533
    8CHL1   C26  585   1.580   6.241   4.780  0.2564  0.0050  0.2875
    8CHL1  H26A  586   1.647   6.176   4.719  0.4842  1.2174 -0.8070
    8CHL1  H26B  587   1.538   6.177   4.860 -1.9484  0.1958 -0.6497
    8CHL1  H26C  588   1.499   6.285   4.719  0.0773 -0.4070  0.2234
    8CHL1   C27  589   1.705   6.460   4.735  0.3488  0.8460  0.4088
    8CHL1  H27A  590   1.618   6.510   4.687 -0.2561  1.1042  1.7217
    8CHL1  H27B  591   1.764   6.545   4.776  0.2768  0.9233  0.3537
    8CHL1  H27C  592   1.772   6.415   4.659  1.0000 -1.8717  2.4565
    9CHL1    C3  593   5.510   1.644   6.113 -0.0195 -0.1563 -0.7857
    9CHL1    H3  594   5.432   1.573   6.148  1.3994 -0.4535  2.0668
    9CHL1    O3  595   5.568   1.686   6.236  0.2498  0.4943  0.1363
    9CHL1   H3'  596   5.601   1.605   6.276  0.2484 -0.0522 -0.9258
    9CHL1    C4  597   5.620   1.563   6.044  0.1174 -0.7010 -0.5373
    9CHL1   H4A  598   5.708   1.628   6.025  0.7697 -1.5096 -0.2918
    9CHL1   H4B  599   5.659   1.470   6.089  1.9318 -0.0494 -0.7041
    9CHL1    C5  600   5.572   1.516   5.907 -0.5732 -0.2477  0.6180
    9CHL1    C6  601   5.582   1.383   5.887 -0.4520  0.4718 -0.3916
    9CHL1    H6  602   5.639   1.315   5.951  0.1012  0.4231 -0.9326
    9CHL1    C7  603   5.533   1.330   5.761 -0.1373  0.3680  0.0037
    9CHL1   H7A  604   5.599   1.254   5.714 -1.4183  0.0189 -1.3069
    9CHL1   H7B  605   5.435   1.279   5.773 -1.3294  2.9334  2.1498
    9CHL1    C8  606   5.499   1.430   5.644  0.3545  0.8810  0.4490
    9CHL1    H8  607   5.599   1.453   5.602 -0.1813  2.4949 -0.0249
    9CHL1   C14  608   5.418   1.360   5.535 -0.1705  0.3421 -0.5206
    9CHL1   H14  609   5.327   1.331   5.592  2.3639 -1.1203  3.1557
    9CHL1   C15  610   5.464   1.221   5.483  0.1676 -0.5457  0.5594
    9CHL1  H15A  611   5.574   1.223   5.465 -0.0413 -0.2587 -0.7707
    9CHL1  H15B  612   5.432   1.145   5.558 -2.4775  1.3596  1.5093
    9CHL1   C16  613   5.376   1.211   5.356 -0.4859 -0.2741  0.4139
    9CHL1  H16A  614   5.429   1.170   5.268  1.4561 -0.5766  1.6505
    9CHL1  H16B  615   5.295   1.134   5.362  1.5867 -2.7064 -0.8241
    9CHL1   C17  616   5.305   1.350   5.336  0.1086  0.2405 -0.1858
    9CHL1   H17  617   5.211   1.347   5.395 -0.0036  2.4817 -0.1568
    9CHL1   C13  618   5.384   1.450   5.417 -0.4165 -0.7429  0.4327
    9CHL1   C18  619   5.508   1.495   5.336  0.4266 -0.2217  0.1367
    9CHL1  H18A  620   5.484   1.580   5.269 -2.9743 -0.9722  0.2419
    9CHL1  H18B  621   5.585   1.552   5.392 -0.7209  1.1019  0.4109
    9CHL1  H18C  622   5.564   1.408   5.295  0.8504 -0.2503  0.7598
    9CHL1   C12  623   5.302   1.574   5.470 -0.2813 -0.2251 -0.6346
    9CHL1  H12A  624   5.270   1.637   5.385  0.0569  2.4805  1.1074
    9CHL1  H12B  625   5.212   1.540   5.526 -1.3427  1.8890 -0.9800
    9CHL1   C11  626   5.380   1.650   5.570 -0.0304  0.3249  0.3122
    9CHL1  H11A  627   5.475   1.680   5.521 -0.2176  0.6976  0.1730
    9CHL1  H11B  628   5.321   1.737   5.606 -1.8924 -0.6208 -0.3277
    9CHL1    C9  629   5.422   1.555   5.690 -0.7219  0.9002  0.3448
    9CHL1    H9  630   5.324   1.518   5.726 -1.4564  2.0778 -0.4083
    9CHL1   C10  631   5.505   1.620   5.817  0.2130 -0.4943  0.1705
    9CHL1   C19  632   5.607   1.725   5.758 -0.2408  0.6656  0.2437
    9CHL1  H19A  633   5.674   1.756   5.841 -1.9313 -0.5718  2.1660
    9CHL1  H19B  634   5.677   1.673   5.689 -1.6890  1.0530 -1.5863
    9CHL1  H19C  635   5.554   1.807   5.705 -1.1728 -0.2925 -0.3250
    9CHL1    C1  636   5.400   1.711   5.893  0.2646 -0.3011  0.6511
    9CHL1   H1A  637   5.382   1.811   5.849 -2.1968 -1.1346 -0.4711
    9CHL1   H1B  638   5.305   1.657   5.915  0.2597 -0.2260  0.8140
    9CHL1    C2  639   5.455   1.755   6.030  0.1195 -0.7174  0.9313
    9CHL1   H2A  640   5.371   1.804   6.084 -2.4539 -3.2064 -0.5372
    9CHL1   H2B  641   5.534   1.830   6.006 -0.7231 -0.3542 -0.8811
    9CHL1   C20  642   5.267   1.384   5.186  0.0414 -0.6008  0.0473
    9CHL1   H20  643   5.250   1.493   5.189 -0.3970 -0.6713  0.1136
    9CHL1   C21  644   5.129   1.306   5.172  0.6630 -0.4379 -0.4396
    9CHL1  H21A  645   5.148   1.201   5.204  1.2492  0.4624  2.4312
    9CHL1  H21B  646   5.087   1.328   5.071  2.8458  0.8072 -1.1447
    9CHL1  H21C  647   5.060   1.345   5.249 -0.8015  0.5059 -2.1330
    9CHL1   C22  648   5.367   1.358   5.074 -0.0476  0.7732  0.6185
    9CHL1  H22A  649   5.469   1.367   5.118 -0.6215  0.9099  1.9509
    9CHL1  H22B  650   5.338   1.261   5.030 -1.1270  1.8719 -1.2525
    9CHL1   C23  651   5.347   1.466   4.955 -0.2731 -0.1905  0.4772
    9CHL1  H23A  652   5.236   1.459   4.944 -0.2837 -1.8140  1.3262
    9CHL1  H23B  653   5.382   1.561   5.000  1.6255 -0.2999 -0.6724
    9CHL1   C24  654   5.421   1.450   4.819 -0.0047  0.0059 -0.1649
    9CHL1  H24A  655   5.410   1.538   4.752 -0.0423  0.8855  0.9633
    9CHL1  H24B  656   5.527   1.436   4.848 -0.2890 -1.5108  0.2467
    9CHL1   C25  657   5.372   1.332   4.731  0.5647  1.0100 -0.2461
    9CHL1   H25  658   5.361   1.239   4.791  1.0005  1.1721  0.0857
    9CHL1   C26  659   5.231   1.352   4.672 -0.0249  0.2939 -0.1955
    9CHL1  H26A  660   5.156   1.341   4.754 -0.1666 -0.7286 -0.4493
    9CHL1  H26B  661   5.211   1.445   4.615  0.1436 -0.5308 -1.6348
    9CHL1  H26C  662   5.206   1.271   4.601 -1.6078  0.0731  0.5786
    9CHL1   C27  663   5.477   1.297   4.630 -0.6569 -0.0457  0.9245
    9CHL1  H27A  664   5.477   1.375   4.550 -1.7253  1.1072  2.0006
    9CHL1  H27B  665   5.577   1.290   4.678 -0.1943  0.3864  0.0645
    9CHL1  H27C  666   5.452   1.201   4.580 -2.4079 -0.8689  3.2212
   10CHL1    C3  667   6.039   1.606   5.974 -0.5970  0.5859 -0.3252
   10CHL1    H3  668   5.940   1.645   5.941 -1.1869 -1.2420 -0.8336
   10CHL1    O3  669   6.064   1.625   6.113  0.4696  0.5088  0.1212
   10CHL1   H3'  670   6.018   1.562   6.169 -1.0769  2.0203  0.6240
   10CHL1    C4  671   6.030   1.452   5.949 -0.2268 -0.2304 -0.2905
   10CHL1   H4A  672   6.127   1.417   5.991 -0.4476  1.2306  1.5518
   10CHL1   H4B  673   5.948   1.410   6.011  1.4382 -1.8755  0.9017
   10CHL1    C5  674   6.017   1.429   5.799 -0.7366 -0.3570 -0.3248
   10CHL1    C6  675   5.911   1.361   5.747 -0.2064 -0.2635  0.0429
   10CHL1    H6  676   5.851   1.317   5.829 -0.2646  1.4311  0.9453
   10CHL1    C7  677   5.875   1.335   5.604  0.6789  0.9903  0.3682
   10CHL1   H7A  678   5.841   1.229   5.597  2.6784  0.2485  1.1060
   10CHL1   H7B  679   5.796   1.404   5.568  1.0263  1.1583 -0.0732
   10CHL1    C8  680   6.000   1.363   5.516  0.5168 -0.1995  0.5101
   10CHL1    H8  681   6.066   1.277   5.536 -1.2862 -2.0723 -1.1298
   10CHL1   C14  682   5.960   1.355   5.367  0.8650  0.7321  0.7297
   10CHL1   H14  683   5.882   1.434   5.360 -0.6157 -0.7899 -0.7895
   10CHL1   C15  684   5.894   1.234   5.308 -0.3828 -0.1108  0.1294
   10CHL1  H15A  685   5.953   1.145   5.338  0.7366  0.6468  0.2252
   10CHL1  H15B  686   5.787   1.217   5.332 -0.3851  0.1091  0.2752
   10CHL1   C16  687   5.908   1.247   5.156  0.0342  0.4296 -0.1921
   10CHL1  H16A  688   5.955   1.155   5.117  2.8136  0.4843  2.5742
   10CHL1  H16B  689   5.805   1.261   5.118 -0.2099  0.7147  0.5407
   10CHL1   C17  690   5.996   1.371   5.134 -0.3505 -0.3061 -0.7042
   10CHL1   H17  691   5.921   1.453   5.125 -0.7759 -0.6295 -0.1301
   10CHL1   C13  692   6.069   1.395   5.264 -0.4245  0.5488 -0.5453
   10CHL1   C18  693   6.184   1.297   5.274 -0.7538  0.3841  0.5723
   10CHL1  H18A  694   6.173   1.204   5.214 -1.7123  0.1907  1.0394
   10CHL1  H18B  695   6.276   1.344   5.233  0.9586 -0.5993  3.0437
   10CHL1  H18C  696   6.216   1.270   5.377 -1.6295 -0.1530  0.7094
   10CHL1   C12  697   6.131   1.531   5.307  0.0611  0.3722  0.0564
   10CHL1  H12A  698   6.209   1.576   5.242  1.8704 -1.8797  0.5291
   10CHL1  H12B  699   6.045   1.601   5.299  0.6991  0.9973 -1.8898
   10CHL1   C11  700   6.188   1.527   5.453  1.0010  0.3032  0.0449
   10CHL1  H11A  701   6.272   1.455   5.464  1.5672  0.4495 -2.5411
   10CHL1  H11B  702   6.231   1.622   5.491 -0.5045  0.2498  2.0081
   10CHL1    C9  703   6.077   1.492   5.553  0.8436  0.2843 -0.4579
   10CHL1    H9  704   5.999   1.571   5.549 -0.8147 -1.3048 -1.3028
   10CHL1   C10  705   6.125   1.491   5.705 -0.2558  1.2002 -0.2282
   10CHL1   C19  706   6.258   1.412   5.724 -0.1519  0.5842 -0.4550
   10CHL1  H19A  707   6.273   1.401   5.834  0.5826  1.6854 -0.4275
   10CHL1  H19B  708   6.240   1.314   5.675  1.6237  0.5610 -1.1223
   10CHL1  H19C  709   6.345   1.464   5.677 -2.3064  3.2152 -1.7877
   10CHL1    C1  710   6.150   1.636   5.746  0.6155 -0.0347 -0.5289
   10CHL1   H1A  711   6.228   1.685   5.684  1.8313 -1.2704 -0.0321
   10CHL1   H1B  712   6.052   1.679   5.716 -0.1799 -0.7985  0.8530
   10CHL1    C2  713   6.149   1.672   5.896 -0.4348  0.1437  0.7580
   10CHL1   H2A  714   6.132   1.781   5.909 -0.5171  0.4026 -1.2572
   10CHL1   H2B  715   6.254   1.652   5.925 -0.5480 -0.2640  0.8968
   10CHL1   C20  716   6.081   1.373   4.992  0.5227 -1.3478 -0.2009
   10CHL1   H20  717   6.163   1.299   5.000  2.5225  0.9696  3.4304
   10CHL1   C21  718   6.140   1.510   4.964  1.3777 -0.5522 -0.2661
   10CHL1  H21A  719   6.165   1.522   4.857 -1.3312  1.7846 -0.7719
   10CHL1  H21B  720   6.228   1.527   5.030 -1.0520  1.6826  2.6963
   10CHL1  H21C  721   6.071   1.595   4.984  0.2632 -1.2801 -0.8823
   10CHL1   C22  722   5.983   1.329   4.876 -0.6153  0.4185  0.1358
   10CHL1  H22A  723   5.947   1.227   4.900  0.5529 -0.7250 -2.5878
   10CHL1  H22B  724   5.894   1.395   4.865 -0.3502  0.7248 -0.1993
   10CHL1   C23  725   6.055   1.310   4.740  0.0003  0.7583  0.2967
   10CHL1  H23A  726   5.976   1.259   4.680  0.4589  0.6029 -0.1762
   10CHL1  H23B  727   6.072   1.417   4.712  2.1442  0.6125  0.8814
   10CHL1   C24  728   6.186   1.237   4.736 -0.4716  0.7502 -0.4766
   10CHL1  H24A  729   6.258   1.308   4.781 -1.5480  0.6170  1.5998
   10CHL1  H24B  730   6.186   1.137   4.785 -1.0511  0.1814 -1.6175
   10CHL1   C25  731   6.231   1.208   4.592 -0.0170 -0.0515 -0.5516
   10CHL1   H25  732   6.213   1.296   4.527  0.1253  0.1830 -0.2711
   10CHL1   C26  733   6.380   1.186   4.591 -0.0728 -0.4822  0.0919
   10CHL1  H26A  734   6.398   1.091   4.646  0.2047 -1.9774 -2.4028
   10CHL1  H26B  735   6.425   1.197   4.490  0.0767  2.3940  0.3831
   10CHL1  H26C  736   6.429   1.271   4.644  0.1416 -1.2021  1.0789
   10CHL1   C27  737   6.155   1.082   4.535  0.2388 -0.9218  0.0061
   10CHL1  H27A  738   6.046   1.104   4.533  0.5493  0.8154  0.2809
   10CHL1  H27B  739   6.201   1.055   4.437 -2.6588 -1.4639 -1.2885
   10CHL1  H27C  740   6.187   1.001   4.604 -1.8116 -1.4142  0.4380
   11CHL1    C3  741   1.372   5.599   5.956  0.2376 -0.2037 -0.0612
   11CHL1    H3  742   1.288   5.647   6.011  1.9861  1.0897  1.6153
   11CHL1    O3  743   1.476   5.590   6.048  0.0148  0.5995  0.1694
   11CHL1   H3'  744   1.543   5.542   5.997 -0.7366 -1.4625  1.0254
   11CHL1    C4  745   1.340   5.451   5.903 -0.5730  0.5539  0.2477
   11CHL1   H4A  746   1.434   5.395   5.884 -2.3320 -3.5268  2.3438
   11CHL1   H4B  747   1.289   5.398   5.986 -1.3087 -1.8812 -1.6404
   11CHL1    C5  748   1.247   5.439   5.784 -0.2798 -0.6615  0.4274
   11CHL1    C6  749   1.138   5.357   5.784  1.0394 -0.1339 -0.0149
   11CHL1    H6  750   1.126   5.282   5.863  1.2273 -1.4252 -1.1789
   11CHL1    C7  751   1.050   5.338   5.666  0.3324  0.3388 -0.6866
   11CHL1   H7A  752   1.000   5.239   5.667 -2.3720  1.5142  2.4141
   11CHL1   H7B  753   0.962   5.403   5.686  0.6003  0.5764 -0.2616
   11CHL1    C8  754   1.117   5.393   5.538 -0.3859 -0.2184 -0.2750
   11CHL1    H8  755   1.204   5.328   5.517  0.3468  0.7526 -0.3120
   11CHL1   C14  756   1.025   5.375   5.418 -0.2973  0.4453  0.1877
   11CHL1   H14  757   0.936   5.437   5.441 -0.9853 -0.6052  0.4220
   11CHL1   C15  758   0.958   5.241   5.393 -0.0584  0.7876  0.8812
   11CHL1  H15A  759   1.007   5.149   5.431 -1.2301 -0.3127 -0.1801
   11CHL1  H15B  760   0.861   5.237   5.449 -1.4769  2.3775 -1.2913
   11CHL1   C16  761   0.928   5.233   5.241 -0.1006  0.0470 -0.4527
   11CHL1  H16A  762   0.987   5.152   5.192 -0.8642  1.1469 -3.3646
   11CHL1  H16B  763   0.818   5.223   5.233 -0.2776  0.0325  1.3778
   11CHL1   C17  764   0.982   5.363   5.188  0.1494 -0.5553 -0.1088
   11CHL1   H17  765   0.899   5.437   5.192  1.9792  1.6711 -0.4795
   11CHL1   C13  766   1.094   5.412   5.288  0.2807  0.1176  0.9055
   11CHL1   C18  767   1.224   5.332   5.257 -0.7606 -0.0039  0.6645
   11CHL1  H18A  768   1.259   5.375   5.161 -1.0184 -0.1701  0.4948
   11CHL1  H18B  769   1.294   5.346   5.343 -1.4499  0.9685  1.0897
   11CHL1  H18C  770   1.194   5.228   5.234 -2.4139  0.5973  0.0035
   11CHL1   C12  771   1.127   5.564   5.300  0.0240 -0.6367  0.5252
   11CHL1  H12A  772   1.176   5.607   5.211 -0.8066  0.9619  0.7936
   11CHL1  H12B  773   1.036   5.626   5.319  1.2387  0.7909  1.9172
   11CHL1   C11  774   1.213   5.601   5.419  0.0622 -0.5124 -0.6171
   11CHL1  H11A  775   1.318   5.579   5.391  0.8677  1.9857  0.2465
   11CHL1  H11B  776   1.203   5.710   5.438  2.3333 -0.2283 -0.8467
   11CHL1    C9  777   1.169   5.536   5.555 -0.7636  0.0046  0.1822
   11CHL1    H9  778   1.085   5.600   5.589 -0.5885  0.7991 -0.8534
   11CHL1   C10  779   1.276   5.535   5.661 -0.5378  0.1423 -0.1743
   11CHL1   C19  780   1.409   5.483   5.599  0.1862  0.3888 -0.2918
   11CHL1  H19A  781   1.448   5.546   5.517  0.6734  1.1980  0.5427
   11CHL1  H19B  782   1.495   5.473   5.669 -0.2880 -1.6028  0.0763
   11CHL1  H19C  783   1.409   5.382   5.553  0.2167 -0.0556  0.6509
   11CHL1    C1  784   1.313   5.680   5.717 -0.0609  0.0693 -0.2003
   11CHL1   H1A  785   1.350   5.747   5.637  1.1079 -2.6343 -2.0844
   11CHL1   H1B  786   1.216   5.721   5.750 -0.4314 -0.9525  0.0142
   11CHL1    C2  787   1.411   5.688   5.838  0.1650  0.3791 -0.4878
   11CHL1   H2A  788   1.438   5.793   5.863 -1.7994  0.5172  1.3113
   11CHL1   H2B  789   1.509   5.646   5.807  1.1537  0.9125  1.6591
   11CHL1   C20  790   1.009   5.357   5.038  0.2513  0.0628  0.5657
   11CHL1   H20  791   1.104   5.303   5.020  0.4955  0.6568  0.0255
   11CHL1   C21  792   1.038   5.507   4.991 -0.2640  0.5868  0.2945
   11CHL1  H21A  793   1.140   5.540   5.020 -0.0216  1.5433 -1.4945
   11CHL1  H21B  794   0.970   5.589   5.023  1.2188  1.4474  1.3619
   11CHL1  H21C  795   1.045   5.516   4.881 -1.4922  1.6875  0.2802
   11CHL1   C22  796   0.902   5.287   4.949  0.2597 -0.5100 -0.6647
   11CHL1  H22A  797   0.944   5.281   4.846  0.1677 -1.7312 -0.6404
   11CHL1  H22B  798   0.885   5.180   4.973 -0.9058 -0.0780  0.5545
   11CHL1   C23  799   0.765   5.358   4.947 -0.1454 -0.1855  0.4232
   11CHL1  H23A  800   0.707   5.357   5.041  0.5152  0.0288  0.8410
   11CHL1  H23B  801   0.768   5.468   4.937 -0.0235 -0.2317 -0.1158
   11CHL1   C24  802   0.678   5.283   4.833  0.0039  0.0196  0.7053
   11CHL1  H24A  803   0.727   5.286   4.733  1.1573 -0.2504  1.2463
   11CHL1  H24B  804   0.670   5.176   4.862 -0.0889 -0.6199 -1.4736
   11CHL1   C25  805   0.542   5.347   4.827  0.1889 -0.1126 -0.2547
   11CHL1   H25  806   0.497   5.347   4.928  1.2630 -0.4389  0.2385
   11CHL1   C26  807   0.537   5.489   4.766  0.2745 -0.1520  0.5057
   11CHL1  H26A  808   0.574   5.500   4.662  1.4466  0.6160  0.9819
   11CHL1  H26B  809   0.430   5.519   4.761  0.2253 -0.4853 -0.8830
   11CHL1  H26C  810   0.595   5.560   4.828  1.7375  0.8583 -1.8944
   11CHL1   C27  811   0.452   5.252   4.745 -0.2123  0.6490 -1.3678
   11CHL1  H27A  812   0.492   5.237   4.642  2.1339  0.4941 -0.4916
   11CHL1  H27B  813   0.450   5.152   4.793 -4.3690  0.6420 -1.1360
   11CHL1  H27C  814   0.344   5.279   4.741 -0.0519  1.3136 -1.3835
   12CHL1    C3  815   3.285   4.681   5.867  0.2049  0.1648 -0.6476
   12CHL1    H3  816   3.264   4.790   5.862  1.6632  0.4513 -0.9411
   12CHL1    O3  817   3.289   4.649   6.002 -0.5032  0.1751  0.2699
   12CHL1   H3'  818   3.306   4.554   6.001 -1.9502 -0.1118 -0.1362
   12CHL1    C4  819   3.175   4.593   5.802  0.1110  0.0653 -0.4672
   12CHL1   H4A  820   3.224   4.494   5.816 -1.6374 -0.7591  0.0829
   12CHL1   H4B  821   3.081   4.601   5.861 -0.2134 -2.6630 -0.4715
   12CHL1    C5  822   3.155   4.617   5.654 -0.2898 -0.4364  0.0365
   12CHL1    C6  823   3.035   4.654   5.604 -0.4832  0.2798 -0.2287
   12CHL1    H6  824   2.951   4.662   5.675  0.5272 -0.8446  1.1712
   12CHL1    C7  825   3.008   4.686   5.462 -0.0070 -0.3680  0.1819
   12CHL1   H7A  826   2.911   4.657   5.417 -0.4919  0.2908  0.7968
   12CHL1   H7B  827   3.004   4.796   5.448  1.0678 -0.4515 -0.9924
   12CHL1    C8  828   3.126   4.635   5.366 -0.3596 -0.3034  0.0650
   12CHL1    H8  829   3.111   4.525   5.361 -0.3811 -0.2614 -1.0411
   12CHL1   C14  830   3.115   4.691   5.223 -0.0091 -0.3870  0.6888
   12CHL1   H14  831   3.100   4.801   5.227 -0.0143 -0.4109  1.6697
   12CHL1   C15  832   2.998   4.634   5.138  0.0101 -0.5377  0.3106
   12CHL1  H15A  833   2.999   4.523   5.143  0.4660 -0.6722 -1.7971
   12CHL1  H15B  834   2.900   4.679   5.167  0.2263 -0.4961  0.9851
   12CHL1   C16  835   3.035   4.666   4.991  0.7387  0.1902 -0.3895
   12CHL1  H16A  836   3.006   4.575   4.934 -1.6391  0.1212  0.8071
   12CHL1  H16B  837   2.978   4.755   4.960 -0.3307 -0.6935 -1.0489
   12CHL1   C17  838   3.194   4.696   4.992 -0.2859  0.3408 -0.0928
   12CHL1   H17  839   3.207   4.806   4.992 -2.8962  0.7042 -0.8724
   12CHL1   C13  840   3.242   4.659   5.137  0.5343 -0.5099  0.0652
   12CHL1   C18  841   3.274   4.511   5.142 -0.0360  0.2325  0.3640
   12CHL1  H18A  842   3.356   4.496   5.068 -0.8770 -0.5490 -0.4280
   12CHL1  H18B  843   3.311   4.463   5.235  2.8655 -0.5439 -1.0828
   12CHL1  H18C  844   3.187   4.457   5.100 -1.6515  1.3800  2.0894
   12CHL1   C12  845   3.355   4.738   5.200 -0.0523  0.2671  0.4697
   12CHL1  H12A  846   3.451   4.722   5.146  0.3724 -1.6549  1.6941
   12CHL1  H12B  847   3.338   4.847   5.199 -0.0112  0.3090  1.7609
   12CHL1   C11  848   3.379   4.690   5.341  0.5498  0.4260  0.1032
   12CHL1  H11A  849   3.435   4.596   5.325  1.5130  0.6936  1.6295
   12CHL1  H11B  850   3.439   4.772   5.387 -0.3594  0.4072  1.3946
   12CHL1    C9  851   3.255   4.685   5.437 -0.2929  0.3621  0.2464
   12CHL1    H9  852   3.238   4.792   5.461 -0.8631  0.2595  0.3076
   12CHL1   C10  853   3.280   4.617   5.572 -0.8190  0.4001  0.2562
   12CHL1   C19  854   3.322   4.472   5.540 -0.4682 -0.0330  0.4718
   12CHL1  H19A  855   3.432   4.468   5.523 -0.4981  1.6863 -0.3138
   12CHL1  H19B  856   3.296   4.407   5.627 -1.7310  1.6398  1.3969
   12CHL1  H19C  857   3.274   4.426   5.451  1.6982 -1.2413 -0.1699
   12CHL1    C1  858   3.398   4.686   5.646 -0.3243  0.5323  0.1654
   12CHL1   H1A  859   3.495   4.673   5.592  0.2479 -0.3111  1.3554
   12CHL1   H1B  860   3.390   4.796   5.648  0.6752  0.6287 -0.3486
   12CHL1    C2  861   3.415   4.647   5.798  0.1929  0.4041 -0.4631
   12CHL1   H2A  862   3.503   4.697   5.843  2.3039 -2.1034 -1.5369
   12CHL1   H2B  863   3.437   4.539   5.812 -1.1796  0.3025  1.3262
   12CHL1   C20  864   3.266   4.645   4.863 -0.5632  0.1521  0.3453
   12CHL1   H20  865   3.269   4.534   4.864 -0.6409  0.1210  2.7887
   12CHL1   C21  866   3.412   4.698   4.843  0.2057  0.8451  0.5183
   12CHL1  H21A  867   3.412   4.809   4.836 -0.3459  0.8025 -0.4212
   12CHL1  H21B  868   3.451   4.643   4.755 -1.9543  0.3111 -0.1693
   12CHL1  H21C  869   3.474   4.665   4.929  0.2268 -0.1458  0.1352
   12CHL1   C22  870   3.172   4.682   4.738 -1.2765 -0.2454  0.5034
   12CHL1  H22A  871   3.228   4.627   4.661  0.3629 -1.1546  2.2725
   12CHL1  H22B  872   3.070   4.638   4.732  0.0802 -3.6746  0.4912
   12CHL1   C23  873   3.172   4.836   4.702  0.7223  0.0837 -0.1734
   12CHL1  H23A  874   3.135   4.902   4.783 -0.4801  1.2072 -1.5870
   12CHL1  H23B  875   3.276   4.872   4.684  0.8730 -0.1305  0.2408
   12CHL1   C24  876   3.083   4.868   4.584 -0.3677 -0.2888 -0.2873
   12CHL1  H24A  877   3.138   4.859   4.488 -0.4842  0.5444 -0.4475
   12CHL1  H24B  878   2.994   4.803   4.596 -1.0955  0.7516  0.1020
   12CHL1   C25  879   3.038   5.017   4.576  0.4768 -0.2182 -0.1827
   12CHL1   H25  880   2.988   5.045   4.672 -0.2133 -0.8398 -0.3509
   12CHL1   C26  881   3.154   5.112   4.548  0.7650  0.6451  0.0383
   12CHL1  H26A  882   3.122   5.218   4.544  0.9945  0.7398  0.5327
   12CHL1  H26B  883   3.240   5.092   4.615  1.1289 -0.5808 -0.7652
   12CHL1  H26C  884   3.194   5.082   4.449  1.5861  0.6552  0.3585
   12CHL1   C27  885   2.934   5.030   4.461  0.0767 -0.9709  0.2578
   12CHL1  H27A  886   2.843   4.971   4.486  0.2053 -1.9196 -1.3332
   12CHL1  H27B  887   2.905   5.137   4.452 -1.7470 -1.3736  0.9323
   12CHL1  H27C  888   2.970   4.987   4.365 -3.4380  0.0588 -1.7272
   13CHL1    C3  889   3.998   3.995   5.609  0.7726  0.2178 -0.5114
   13CHL1    H3  890   3.950   3.895   5.622  0.0876  0.7017  0.8753
   13CHL1    O3  891   4.009   4.048   5.740 -0.2380 -0.0483 -0.3210
   13CHL1   H3'  892   3.919   4.071   5.763 -0.1128 -0.0440  0.1842
   13CHL1    C4  893   4.130   3.974   5.539  0.9613  0.1091 -0.6595
   13CHL1   H4A  894   4.173   4.076   5.525  2.4576 -0.3597  0.3037
   13CHL1   H4B  895   4.198   3.926   5.612 -0.7790  1.5336  2.0800
   13CHL1    C5  896   4.120   3.906   5.402  0.1865 -0.3995  0.3805
   13CHL1    C6  897   4.186   3.794   5.378 -0.5879 -0.6471 -0.2943
   13CHL1    H6  898   4.228   3.752   5.470 -2.4645 -0.0396  0.8888
   13CHL1    C7  899   4.193   3.731   5.244  0.2363 -0.0619 -0.2351
   13CHL1   H7A  900   4.296   3.702   5.212  0.3349 -0.7620  0.7036
   13CHL1   H7B  901   4.135   3.637   5.243 -0.5615  0.4118  0.1129
   13CHL1    C8  902   4.135   3.818   5.129  0.2408  0.6330  0.7118
   13CHL1    H8  903   4.213   3.894   5.103 -2.7108  2.9358 -2.3129
   13CHL1   C14  904   4.107   3.738   5.002  0.2338 -0.4243 -0.6594
   13CHL1   H14  905   4.030   3.671   5.045  0.1809 -1.0252 -1.6656
   13CHL1   C15  906   4.216   3.654   4.948 -0.3397 -0.5411 -0.5920
   13CHL1  H15A  907   4.321   3.689   4.949 -0.4780 -0.1226 -0.5789
   13CHL1  H15B  908   4.211   3.570   5.021 -2.5302  0.7540  0.8914
   13CHL1   C16  909   4.167   3.623   4.803 -0.7223  0.6023  0.5405
   13CHL1  H16A  910   4.240   3.642   4.722 -0.3433  2.4668  1.2796
   13CHL1  H16B  911   4.143   3.514   4.801  0.3273  0.3765  0.0338
   13CHL1   C17  912   4.039   3.703   4.777 -0.0377  0.5574  0.6591
   13CHL1   H17  913   3.952   3.642   4.809  1.1940 -0.6330  1.8492
   13CHL1   C13  914   4.047   3.816   4.886  0.2640 -0.4646 -0.3651
   13CHL1   C18  915   4.141   3.927   4.839  0.1108  0.2107  0.4427
   13CHL1  H18A  916   4.233   3.885   4.793 -0.9245 -0.4576 -1.0868
   13CHL1  H18B  917   4.085   3.990   4.767 -1.2025  0.4452  1.6218
   13CHL1  H18C  918   4.191   3.989   4.917  0.7399  0.0193  0.2021
   13CHL1   C12  919   3.913   3.878   4.936 -0.5734  0.2484 -0.3477
   13CHL1  H12A  920   3.873   3.945   4.858 -0.7013  0.8477  0.2175
   13CHL1  H12B  921   3.835   3.808   4.970 -0.4603 -0.3463 -1.2933
   13CHL1   C11  922   3.938   3.966   5.059  0.0507 -0.6843  0.7367
   13CHL1  H11A  923   3.998   4.052   5.021 -1.4703 -0.9754 -2.6405
   13CHL1  H11B  924   3.842   4.011   5.092 -0.2565 -1.2799  0.6547
   13CHL1    C9  925   4.009   3.894   5.176 -0.0001  0.0498 -0.6619
   13CHL1    H9  926   3.946   3.807   5.202 -0.1997  0.0576 -1.0961
   13CHL1   C10  927   4.032   3.981   5.304  0.0955 -0.0526  0.0714
   13CHL1   C19  928   4.104   4.111   5.266 -0.7941  0.0071  0.3912
   13CHL1  H19A  929   4.040   4.160   5.190  0.6811  0.7317 -0.4327
   13CHL1  H19B  930   4.116   4.186   5.347 -0.5623  0.7321 -0.2984
   13CHL1  H19C  931   4.206   4.097   5.224  0.1329  1.8893  1.8193
   13CHL1    C1  932   3.892   4.009   5.372  0.2024 -0.9893 -0.7700
   13CHL1   H1A  933   3.839   4.071   5.296  3.4318 -2.3337 -4.4956
   13CHL1   H1B  934   3.846   3.910   5.393  0.4821 -0.7967  0.8180
   13CHL1    C2  935   3.904   4.077   5.514  0.2032 -0.2187  0.3091
   13CHL1   H2A  936   3.800   4.078   5.555 -1.1422 -1.4772 -2.7563
   13CHL1   H2B  937   3.955   4.176   5.515 -3.1460  1.6676  0.7214
   13CHL1   C20  938   4.025   3.751   4.630  0.0771 -0.4003  0.2353
   13CHL1   H20  939   4.100   3.825   4.597 -0.2518 -0.3213 -0.3533
   13CHL1   C21  940   3.877   3.793   4.622  0.8414 -0.8116 -0.0699
   13CHL1  H21A  941   3.855   3.779   4.514  2.0230  0.3022 -0.4879
   13CHL1  H21B  942   3.862   3.899   4.653  2.5643 -0.9674  1.4518
   13CHL1  H21C  943   3.806   3.724   4.673 -0.4078 -0.3968 -1.1830
   13CHL1   C22  944   4.039   3.642   4.523  0.3275 -0.7061  0.0981
   13CHL1  H22A  945   4.020   3.686   4.423 -0.9082 -0.1331  0.5696
   13CHL1  H22B  946   4.146   3.614   4.524  0.2226 -1.2348 -1.1761
   13CHL1   C23  947   3.942   3.515   4.538 -0.4180  0.7711 -0.2786
   13CHL1  H23A  948   3.945   3.480   4.644 -0.0678 -0.3131 -0.6276
   13CHL1  H23B  949   3.835   3.536   4.518 -0.1400  1.1428 -1.4796
   13CHL1   C24  950   3.991   3.410   4.437  0.0046 -0.4082  0.2198
   13CHL1  H24A  951   3.898   3.351   4.421 -0.8177  0.7201  0.7707
   13CHL1  H24B  952   4.009   3.465   4.342 -0.7234  1.6894  1.2536
   13CHL1   C25  953   4.118   3.341   4.485  0.0682  0.4242 -0.4303
   13CHL1   H25  954   4.172   3.423   4.537  0.5992 -1.6277  2.4662
   13CHL1   C26  955   4.071   3.229   4.588  0.5631 -0.8942  0.1001
   13CHL1  H26A  956   4.009   3.268   4.671  0.7383 -0.3170 -0.0320
   13CHL1  H26B  957   4.023   3.139   4.544 -0.5086 -0.3752  0.1868
   13CHL1  H26C  958   4.167   3.191   4.630 -0.2963 -0.8629  2.2365
   13CHL1   C27  959   4.214   3.278   4.391  0.6759 -0.1542  0.9785
   13CHL1  H27A  960   4.290   3.217   4.444  0.8513 -0.8658 -0.0550
   13CHL1  H27B  961   4.152   3.221   4.318  1.9998 -0.3242 -0.0580
   13CHL1  H27C  962   4.261   3.352   4.323  0.8501 -1.5460 -0.4951
   14CHL1    C3  963   3.208   2.742   5.818 -0.1483  0.2422  0.4067
   14CHL1    H3  964   3.116   2.683   5.800 -0.4549  0.8848 -0.1985
   14CHL1    O3  965   3.183   2.832   5.918 -0.2168  0.6343  0.2674
   14CHL1   H3'  966   3.266   2.877   5.934  1.1170 -1.2981 -0.7610
   14CHL1    C4  967   3.313   2.633   5.863 -0.1795 -0.7834 -0.6822
   14CHL1   H4A  968   3.404   2.689   5.895 -0.3784 -0.8356 -0.0265
   14CHL1   H4B  969   3.270   2.581   5.950 -0.8405 -0.4915 -0.8272
   14CHL1    C5  970   3.360   2.542   5.753  0.1376  0.6616  0.4532
   14CHL1    C6  971   3.349   2.412   5.768 -0.2563  0.1063 -0.3904
   14CHL1    H6  972   3.310   2.357   5.855  1.1561 -0.7937 -0.2934
   14CHL1    C7  973   3.393   2.312   5.667 -0.3306  0.1502 -0.1267
   14CHL1   H7A  974   3.435   2.225   5.721 -0.8758  0.4967  0.8845
   14CHL1   H7B  975   3.303   2.268   5.618  0.0083  1.4352 -1.9670
   14CHL1    C8  976   3.486   2.371   5.561 -0.4197  0.0115  0.8798
   14CHL1    H8  977   3.586   2.386   5.606 -0.7977 -0.2040  1.8182
   14CHL1   C14  978   3.496   2.274   5.446 -0.1776  0.9862  0.4699
   14CHL1   H14  979   3.395   2.257   5.403 -0.2388  2.5464 -0.0478
   14CHL1   C15  980   3.548   2.132   5.480  0.1868 -0.3605 -0.0109
   14CHL1  H15A  981   3.634   2.157   5.546  0.7109  0.7805 -1.0830
   14CHL1  H15B  982   3.480   2.071   5.544 -0.2502  0.5572  0.4221
   14CHL1   C16  983   3.593   2.080   5.352 -0.1819  0.9231  0.1077
   14CHL1  H16A  984   3.699   2.050   5.361 -0.2533  0.7397  0.3650
   14CHL1  H16B  985   3.528   1.993   5.327  1.0910  0.1785 -0.6897
   14CHL1   C17  986   3.576   2.194   5.240 -0.1289 -0.0372  0.1619
   14CHL1   H17  987   3.472   2.184   5.205  0.7188 -1.5766 -2.1574
   14CHL1   C13  988   3.578   2.321   5.331  0.6352 -0.8190  0.7009
   14CHL1   C18  989   3.720   2.341   5.384  0.1103 -0.0462  0.2886
   14CHL1  H18A  990   3.769   2.247   5.420  0.1063 -0.6263 -1.1523
   14CHL1  H18B  991   3.778   2.376   5.296 -0.5189 -2.3541 -1.1355
   14CHL1  H18C  992   3.722   2.417   5.465 -2.0029 -0.3399  0.6692
   14CHL1   C12  993   3.507   2.445   5.274  0.0872  0.0875  0.4681
   14CHL1  H12A  994   3.562   2.486   5.187 -0.2184  0.2281  0.3397
   14CHL1  H12B  995   3.412   2.410   5.228  0.6433 -3.2642  1.5580
   14CHL1   C11  996   3.501   2.550   5.381  1.0126 -1.1051  0.5597
   14CHL1  H11A  997   3.600   2.590   5.408 -0.6996  3.6333  0.6897
   14CHL1  H11B  998   3.444   2.636   5.340 -1.9117 -2.9877  0.3266
   14CHL1    C9  999   3.433   2.504   5.509 -0.2331  0.4448 -0.1163
   14CHL1    H9 1000   3.334   2.471   5.472  0.0391  0.0828 -0.5270
   14CHL1   C10 1001   3.416   2.609   5.626  0.0475 -0.1491  0.1373
   14CHL1   C19 1002   3.550   2.678   5.644 -0.0354  0.0491  0.1472
   14CHL1  H19A 1003   3.573   2.747   5.560  0.6991  2.3250  2.1007
   14CHL1  H19B 1004   3.540   2.757   5.721 -2.0425  1.0636 -1.0715
   14CHL1  H19C 1005   3.631   2.602   5.656 -1.2376 -1.3259 -0.1012
   14CHL1    C1 1006   3.310   2.717   5.588 -0.0753  0.2261  0.0162
   14CHL1   H1A 1007   3.350   2.789   5.513  0.1045  0.7581  0.6135
   14CHL1   H1B 1008   3.217   2.670   5.550  1.4735 -1.3495 -2.0897
   14CHL1    C2 1009   3.263   2.818   5.691 -0.5156  0.0377 -0.6208
   14CHL1   H2A 1010   3.185   2.875   5.636  1.6080  3.7208 -0.1701
   14CHL1   H2B 1011   3.350   2.880   5.722  1.6805 -3.6793  1.3944
   14CHL1   C20 1012   3.669   2.181   5.120  0.2918 -0.3114 -0.4802
   14CHL1   H20 1013   3.772   2.215   5.145  1.2453 -3.2743  0.0029
   14CHL1   C21 1014   3.621   2.278   5.003  0.7813 -0.3369  0.0084
   14CHL1  H21A 1015   3.516   2.264   4.971  1.4504 -0.2990 -2.4041
   14CHL1  H21B 1016   3.684   2.244   4.919  2.5234  1.7049  0.3989
   14CHL1  H21C 1017   3.646   2.385   5.023  1.8840 -0.1466 -2.0550
   14CHL1   C22 1018   3.682   2.036   5.068 -0.1646 -0.3759 -0.8351
   14CHL1  H22A 1019   3.716   1.971   5.152 -2.0121  0.0183  0.2781
   14CHL1  H22B 1020   3.587   1.987   5.039  0.1194 -0.5722 -1.4602
   14CHL1   C23 1021   3.791   2.010   4.961 -0.2473  0.0961 -1.0469
   14CHL1  H23A 1022   3.789   1.901   4.940 -2.5622 -0.7696  2.6899
   14CHL1  H23B 1023   3.773   2.063   4.865  2.2663 -2.2565 -2.9651
   14CHL1   C24 1024   3.933   2.049   5.013 -0.0662  0.3595  0.5655
   14CHL1  H24A 1025   3.951   2.157   5.032 -1.7633  0.7641  0.0933
   14CHL1  H24B 1026   3.933   2.007   5.116  2.4129  4.7355  2.6598
   14CHL1   C25 1027   4.045   1.981   4.937 -0.0663  0.0001 -0.0792
   14CHL1   H25 1028   4.034   1.870   4.940 -0.5424  0.0379 -0.3212
   14CHL1   C26 1029   4.037   2.036   4.802 -0.5022  0.4261  0.1388
   14CHL1  H26A 1030   3.941   2.014   4.752  0.3298  1.6867 -2.1048
   14CHL1  H26B 1031   4.042   2.147   4.806  1.4294  0.4197 -0.9787
   14CHL1  H26C 1032   4.120   2.000   4.738 -0.8800 -0.3919  0.0924
   14CHL1   C27 1033   4.182   2.014   4.993 -0.1124 -0.3111 -0.3023
   14CHL1  H27A 1034   4.172   2.024   5.103  0.7191 -1.2009 -0.1316
   14CHL1  H27B 1035   4.272   1.950   4.987  1.5426  1.7868  0.5812
   14CHL1  H27C 1036   4.199   2.120   4.965  1.2999  0.2902  2.5296
   15CHL1    C3 1037   3.438   0.691   6.122 -0.1363  0.8813  0.2604
   15CHL1    H3 1038   3.346   0.629   6.118  0.4165 -0.0323  1.1055
   15CHL1    O3 1039   3.456   0.735   6.253 -0.5580  0.2729  0.3279
   15CHL1   H3' 1040   3.444   0.656   6.305 -0.9707 -0.8663 -1.4064
   15CHL1    C4 1041   3.556   0.600   6.083  0.3365  0.5171  0.8160
   15CHL1   H4A 1042   3.641   0.671   6.083 -0.7925  1.9101 -0.2238
   15CHL1   H4B 1043   3.582   0.525   6.161  0.2269 -1.2950 -0.8056
   15CHL1    C5 1044   3.531   0.545   5.944  0.0257  0.0560 -0.2158
   15CHL1    C6 1045   3.539   0.419   5.916 -0.0977  0.4352  0.1975
   15CHL1    H6 1046   3.564   0.352   6.000 -0.1416  2.2820  1.7547
   15CHL1    C7 1047   3.538   0.349   5.784 -0.7828  0.1911  0.2705
   15CHL1   H7A 1048   3.636   0.298   5.774 -1.1069 -0.6087  1.0187
   15CHL1   H7B 1049   3.453   0.277   5.782  0.4258 -1.2853  0.8192
   15CHL1    C8 1050   3.534   0.457   5.669 -0.3272 -0.0486 -0.7142
   15CHL1    H8 1051   3.638   0.496   5.662 -0.0415 -0.0738  2.2923
   15CHL1   C14 1052   3.486   0.401   5.546 -0.0185 -0.5801  0.2420
   15CHL1   H14 1053   3.387   0.358   5.570  0.7209 -2.3925  0.2145
   15CHL1   C15 1054   3.559   0.275   5.489 -0.1476  0.7706 -0.8689
   15CHL1  H15A 1055   3.669   0.268   5.505 -0.3751  0.5063  0.7535
   15CHL1  H15B 1056   3.512   0.195   5.550  0.7595  1.0540  0.2483
   15CHL1   C16 1057   3.511   0.261   5.343  0.5777  0.3799 -0.7779
   15CHL1  H16A 1058   3.605   0.248   5.286  2.0733  2.3542  1.0858
   15CHL1  H16B 1059   3.446   0.171   5.339 -1.5160  1.7022  0.8918
   15CHL1   C17 1060   3.436   0.390   5.306 -0.3765 -0.0252 -0.1002
   15CHL1   H17 1061   3.334   0.355   5.330 -0.1784 -1.0110 -0.6371
   15CHL1   C13 1062   3.480   0.495   5.424  0.3128  0.3433 -0.2444
   15CHL1   C18 1063   3.624   0.542   5.389  0.8854 -0.2897 -0.2984
   15CHL1  H18A 1064   3.694   0.457   5.369 -0.2710 -1.3479  0.0320
   15CHL1  H18B 1065   3.616   0.622   5.313  1.3939  0.4856  0.4468
   15CHL1  H18C 1066   3.663   0.593   5.480 -1.9833  0.7359  0.4365
   15CHL1   C12 1067   3.389   0.612   5.463 -0.2697  0.4482 -0.5234
   15CHL1  H12A 1068   3.372   0.687   5.383  0.5287  1.3525  0.1240
   15CHL1  H12B 1069   3.291   0.568   5.491  0.3134 -0.6902 -0.2006
   15CHL1   C11 1070   3.436   0.680   5.594  0.3499 -1.0812  0.1758
   15CHL1  H11A 1071   3.520   0.742   5.554 -1.1034  0.1256 -1.1552
   15CHL1  H11B 1072   3.361   0.756   5.624  0.6677 -0.0367 -1.4931
   15CHL1    C9 1073   3.452   0.582   5.713  0.3888  0.2521 -0.5405
   15CHL1    H9 1074   3.350   0.546   5.738  0.7903 -0.0342  0.7419
   15CHL1   C10 1075   3.500   0.655   5.839 -0.4146 -0.6942 -0.0214
   15CHL1   C19 1076   3.631   0.734   5.811  0.2424  0.7412 -0.0220
   15CHL1  H19A 1077   3.620   0.801   5.722  0.6491  0.1212 -0.5422
   15CHL1  H19B 1078   3.664   0.796   5.897 -0.0195  0.1357  0.5226
   15CHL1  H19C 1079   3.714   0.662   5.798  1.6414  2.0738  1.0293
   15CHL1    C1 1080   3.398   0.758   5.883 -1.0932 -0.3427  0.8090
   15CHL1   H1A 1081   3.394   0.843   5.811  0.1285 -1.1162 -0.2311
   15CHL1   H1B 1082   3.304   0.699   5.879 -1.1597 -0.2538  1.0684
   15CHL1    C2 1083   3.416   0.806   6.032 -0.2373  0.1625  0.5782
   15CHL1   H2A 1084   3.323   0.854   6.071 -1.1289 -1.1140  0.0774
   15CHL1   H2B 1085   3.507   0.869   6.047 -0.3415  0.7754 -1.1539
   15CHL1   C20 1086   3.437   0.440   5.155 -0.0319 -0.0119 -0.1034
   15CHL1   H20 1087   3.520   0.512   5.138 -0.1193  0.2654  0.5930
   15CHL1   C21 1088   3.317   0.532   5.141  0.9577  0.5495  0.0720
   15CHL1  H21A 1089   3.219   0.483   5.154  0.8288  1.2090  1.7788
   15CHL1  H21B 1090   3.315   0.570   5.036 -0.1884  3.0555  0.9411
   15CHL1  H21C 1091   3.309   0.616   5.212 -1.5984  1.6250 -1.3616
   15CHL1   C22 1092   3.434   0.327   5.052 -0.0811 -0.0699 -0.4640
   15CHL1  H22A 1093   3.522   0.259   5.050  0.6418  0.8593 -1.3032
   15CHL1  H22B 1094   3.348   0.262   5.078 -0.3280 -0.7937 -2.8981
   15CHL1   C23 1095   3.427   0.363   4.899  0.2863 -0.2746 -0.1059
   15CHL1  H23A 1096   3.334   0.422   4.883  2.0618  2.7458 -0.0673
   15CHL1  H23B 1097   3.516   0.419   4.864  0.3356 -1.2837 -1.7171
   15CHL1   C24 1098   3.419   0.227   4.815  0.2512  0.0608 -0.2407
   15CHL1  H24A 1099   3.516   0.172   4.815  0.4986  0.4929 -0.3628
   15CHL1  H24B 1100   3.338   0.166   4.861  1.1121 -0.0179  1.2570
   15CHL1   C25 1101   3.389   0.255   4.667  0.0513 -0.1007 -0.4910
   15CHL1   H25 1102   3.284   0.290   4.673 -1.3764 -2.8532 -4.7609
   15CHL1   C26 1103   3.488   0.343   4.583  0.1421  0.1325 -0.0247
   15CHL1  H26A 1104   3.511   0.443   4.628  0.4266  0.1506 -0.2079
   15CHL1  H26B 1105   3.579   0.279   4.580 -1.1878 -1.9294  1.3488
   15CHL1  H26C 1106   3.451   0.356   4.479 -0.2639 -1.2044 -0.0640
   15CHL1   C27 1107   3.375   0.119   4.591  0.0767  0.5805 -0.1767
   15CHL1  H27A 1108   3.295   0.062   4.643  0.2512  1.8198  1.5529
   15CHL1  H27B 1109   3.358   0.127   4.482 -0.3601 -4.4139 -0.6762
   15CHL1  H27C 1110   3.473   0.072   4.610  1.0324  2.0671 -1.2360
   16CHL1    C3 1111   1.214   4.442   6.049 -0.5795 -0.8840 -0.2622
   16CHL1    H3 1112   1.153   4.532   6.031  0.9720  0.0061 -1.2769
   16CHL1    O3 1113   1.230   4.433   6.190 -0.0784  0.3361 -0.1453
   16CHL1   H3' 1114   1.318   4.443   6.225 -0.8578  0.9972  1.7115
   16CHL1    C4 1115   1.138   4.331   5.991  0.1200  0.9872  0.5930
   16CHL1   H4A 1116   1.180   4.231   6.016 -0.8471  0.7091  1.1810
   16CHL1   H4B 1117   1.036   4.328   6.035 -0.0649 -1.3814  0.0913
   16CHL1    C5 1118   1.129   4.351   5.840 -0.0243  0.5478  0.4997
   16CHL1    C6 1119   1.016   4.350   5.774 -0.0137  0.3340 -0.5301
   16CHL1    H6 1120   0.918   4.343   5.824 -1.0751  2.2079 -2.1752
   16CHL1    C7 1121   1.000   4.352   5.627  0.1763 -0.5858 -0.6566
   16CHL1   H7A 1122   0.914   4.293   5.590  0.8973  0.8416 -5.1700
   16CHL1   H7B 1123   0.971   4.456   5.601  1.0421 -0.2371 -0.2635
   16CHL1    C8 1124   1.131   4.328   5.544  0.3421 -0.2020 -0.4980
   16CHL1    H8 1125   1.163   4.221   5.542  1.6604  0.1580 -2.7366
   16CHL1   C14 1126   1.108   4.369   5.405  0.0167 -0.8529  0.3690
   16CHL1   H14 1127   1.082   4.477   5.400 -1.6959 -1.2947 -0.9397
   16CHL1   C15 1128   0.994   4.308   5.330  0.5852  0.0696 -1.4129
   16CHL1  H15A 1129   0.983   4.198   5.342  1.0972  0.1051 -0.5050
   16CHL1  H15B 1130   0.898   4.354   5.361  0.3256 -1.0390 -0.4718
   16CHL1   C16 1131   1.030   4.333   5.180  0.5504 -0.1686 -0.5883
   16CHL1  H16A 1132   1.024   4.236   5.127  0.2070 -0.8755  0.6990
   16CHL1  H16B 1133   0.966   4.411   5.135  1.4372  2.1340  1.9087
   16CHL1   C17 1134   1.170   4.391   5.185  0.5751 -0.4407 -0.0049
   16CHL1   H17 1135   1.164   4.502   5.184 -0.5027 -0.4875 -0.7312
   16CHL1   C13 1136   1.231   4.353   5.318 -0.4162 -0.0506 -0.6346
   16CHL1   C18 1137   1.282   4.206   5.310  0.2260 -0.1269 -0.6368
   16CHL1  H18A 1138   1.200   4.139   5.277 -1.5743  1.8273 -0.3585
   16CHL1  H18B 1139   1.363   4.194   5.235  0.2833  0.9820 -0.7816
   16CHL1  H18C 1140   1.324   4.170   5.406 -0.5598 -0.8661 -0.5542
   16CHL1   C12 1141   1.341   4.446   5.376 -0.2520 -0.3664  0.9677
   16CHL1  H12A 1142   1.434   4.415   5.323 -0.1709  1.8995 -0.3466
   16CHL1  H12B 1143   1.322   4.555   5.362  1.0849 -0.2494 -0.1568
   16CHL1   C11 1144   1.367   4.431   5.529 -0.5869 -0.2091 -0.3042
   16CHL1  H11A 1145   1.435   4.344   5.537 -0.2319  0.1837  1.3486
   16CHL1  H11B 1146   1.416   4.527   5.559 -0.3494  0.1628 -1.8311
   16CHL1    C9 1147   1.239   4.419   5.613  0.2936 -0.1092  0.1365
   16CHL1    H9 1148   1.194   4.520   5.614  0.9525  0.2540 -2.0349
   16CHL1   C10 1149   1.261   4.379   5.767  0.5159  0.4522 -0.0390
   16CHL1   C19 1150   1.341   4.238   5.774  0.0101 -0.0132 -0.7647
   16CHL1  H19A 1151   1.442   4.255   5.730 -0.6401  0.4330 -2.1305
   16CHL1  H19B 1152   1.351   4.192   5.874  0.2178  1.2482 -0.1774
   16CHL1  H19C 1153   1.286   4.174   5.702 -2.2019 -0.5862  1.3177
   16CHL1    C1 1154   1.346   4.489   5.843  0.4939 -0.7216  0.3785
   16CHL1   H1A 1155   1.449   4.492   5.801  0.6606 -1.1021  0.7491
   16CHL1   H1B 1156   1.293   4.586   5.833  0.9121 -0.5819 -0.5497
   16CHL1    C2 1157   1.360   4.471   5.996 -0.4213  1.0940 -0.9654
   16CHL1   H2A 1158   1.386   4.561   6.057  0.3621  0.9337 -1.0422
   16CHL1   H2B 1159   1.422   4.381   6.017 -3.3486 -0.7618  0.2462
   16CHL1   C20 1160   1.249   4.356   5.059 -0.1164  0.5206  0.3485
   16CHL1   H20 1161   1.267   4.246   5.059 -0.5739  0.4404  0.7108
   16CHL1   C21 1162   1.381   4.425   5.060  0.1447  0.2443 -0.2870
   16CHL1  H21A 1163   1.375   4.531   5.093 -0.9175 -0.2212  1.0935
   16CHL1  H21B 1164   1.436   4.430   4.963 -0.4557  4.3113 -0.5965
   16CHL1  H21C 1165   1.448   4.372   5.130 -0.2457  1.6228  1.1927
   16CHL1   C22 1166   1.183   4.375   4.921 -0.5230  0.3079  0.2535
   16CHL1  H22A 1167   1.250   4.332   4.844  0.8450  0.4326  1.3401
   16CHL1  H22B 1168   1.090   4.315   4.931 -0.3900  0.0653  0.0425
   16CHL1   C23 1169   1.157   4.528   4.888  0.4009 -0.2750  0.4899
   16CHL1  H23A 1170   1.078   4.543   4.965 -1.4706 -0.4076 -1.3048
   16CHL1  H23B 1171   1.246   4.590   4.910  1.4589 -0.5528 -2.4584
   16CHL1   C24 1172   1.104   4.558   4.746 -0.8059 -0.3056  0.2382
   16CHL1  H24A 1173   1.104   4.667   4.723  1.0142 -0.2700  0.2933
   16CHL1  H24B 1174   1.186   4.522   4.680  0.0302  1.0106  0.5343
   16CHL1   C25 1175   0.963   4.498   4.710  0.3419 -0.7495  0.0696
   16CHL1   H25 1176   0.942   4.392   4.738 -5.5892 -1.1861 -4.2271
   16CHL1   C26 1177   0.850   4.575   4.776  0.3894  0.2861 -0.5601
   16CHL1  H26A 1178   0.848   4.568   4.887  0.4282  3.1808 -0.3078
   16CHL1  H26B 1179   0.833   4.679   4.741 -1.3976 -0.0639 -0.8411
   16CHL1  H26C 1180   0.754   4.521   4.758 -0.2026  1.5325 -1.2543
   16CHL1   C27 1181   0.933   4.508   4.562 -0.0648  0.4693 -0.0979
   16CHL1  H27A 1182   0.839   4.456   4.533  0.2459 -0.4436  0.5067
   16CHL1  H27B 1183   0.938   4.616   4.538  0.7282  0.0180 -2.1988
   16CHL1  H27C 1184   1.016   4.461   4.505 -2.1951 -1.9832 -1.4585
   17CHL1    C3 1185   4.055   3.033   5.959 -0.2158 -0.5858 -0.5886
   17CHL1    H3 1186   4.135   2.966   5.997 -1.0050 -1.4925 -0.4869
   17CHL1    O3 1187   4.007   3.120   6.064 -0.2485  0.4450 -0.4320
   17CHL1   H3' 1188   4.087   3.149   6.107  1.9530 -2.6166 -2.0589
   17CHL1    C4 1189   4.116   3.126   5.841 -0.2783  0.0245 -0.0854
   17CHL1   H4A 1190   4.055   3.213   5.810  1.5617  1.3998 -0.0071
   17CHL1   H4B 1191   4.206   3.168   5.890  0.4406 -1.3117 -0.2292
   17CHL1    C5 1192   4.155   3.040   5.717  0.3952  0.1088 -0.0254
   17CHL1    C6 1193   4.280   3.047   5.670 -0.0605  0.4845 -0.5589
   17CHL1    H6 1194   4.353   3.117   5.712 -1.6621  0.1684  3.1542
   17CHL1    C7 1195   4.333   2.955   5.563 -0.5372 -0.3782 -0.3429
   17CHL1   H7A 1196   4.375   3.023   5.487  0.3868 -0.5753 -0.0164
   17CHL1   H7B 1197   4.401   2.879   5.606  0.9740  1.1430  0.0174
   17CHL1    C8 1198   4.230   2.875   5.482  1.5299 -0.6477  0.7806
   17CHL1    H8 1199   4.183   2.952   5.417  0.3649 -0.3732  1.9086
   17CHL1   C14 1200   4.286   2.759   5.398  0.3778 -0.6039 -1.0175
   17CHL1   H14 1201   4.304   2.680   5.474  2.8008 -0.5875 -1.4916
   17CHL1   C15 1202   4.423   2.773   5.327 -0.0638 -0.5857  0.1623
   17CHL1  H15A 1203   4.440   2.878   5.293  1.4070 -1.2825 -1.3706
   17CHL1  H15B 1204   4.508   2.765   5.398 -1.2795 -1.9263  1.5401
   17CHL1   C16 1205   4.414   2.668   5.220  0.1360  0.8917 -0.6213
   17CHL1  H16A 1206   4.422   2.709   5.117 -2.0364  0.4087 -1.0378
   17CHL1  H16B 1207   4.493   2.592   5.238 -0.7330  0.3418  1.0842
   17CHL1   C17 1208   4.278   2.594   5.234 -0.4467 -0.2425 -0.0794
   17CHL1   H17 1209   4.288   2.520   5.316  2.4516 -0.0627 -0.1513
   17CHL1   C13 1210   4.189   2.698   5.295 -0.2224  0.2350  0.1829
   17CHL1   C18 1211   4.160   2.805   5.189  0.4928 -0.3574  0.4193
   17CHL1  H18A 1212   4.257   2.835   5.143  0.7718 -1.6992  0.1015
   17CHL1  H18B 1213   4.096   2.765   5.107  2.5570  3.1974 -3.3067
   17CHL1  H18C 1214   4.095   2.889   5.221 -0.9725 -1.0113 -0.7474
   17CHL1   C12 1215   4.070   2.653   5.375  0.5745  0.2527 -1.1531
   17CHL1  H12A 1216   3.989   2.627   5.303  0.5944  1.0752 -1.4905
   17CHL1  H12B 1217   4.084   2.558   5.431  2.9287  0.4210 -1.3662
   17CHL1   C11 1218   4.013   2.760   5.465 -0.5771  0.3661 -0.5599
   17CHL1  H11A 1219   3.986   2.846   5.400  1.0219  0.5861 -0.9871
   17CHL1  H11B 1220   3.932   2.719   5.529  1.1640 -0.6365  1.1029
   17CHL1    C9 1221   4.112   2.830   5.570  0.0533 -0.5069  0.2281
   17CHL1    H9 1222   4.150   2.748   5.635 -2.2209 -2.3339 -0.5839
   17CHL1   C10 1223   4.050   2.936   5.662 -0.1390  1.1041 -0.3561
   17CHL1   C19 1224   3.945   3.019   5.591 -0.2192  0.0885  0.1984
   17CHL1  H19A 1225   3.975   3.042   5.487 -0.1263 -2.2471 -0.3516
   17CHL1  H19B 1226   3.850   2.961   5.593  0.0800 -0.3864  0.8166
   17CHL1  H19C 1227   3.926   3.116   5.642  0.8570  0.7130 -0.5670
   17CHL1    C1 1228   3.977   2.861   5.784  0.8293  0.5405  0.2067
   17CHL1   H1A 1229   3.889   2.797   5.765  3.2034 -2.7386 -0.7073
   17CHL1   H1B 1230   4.048   2.786   5.827 -0.1639 -0.5431  0.0163
   17CHL1    C2 1231   3.940   2.958   5.903 -0.2447  0.1022 -0.0027
   17CHL1   H2A 1232   3.896   2.890   5.980  2.4122  1.0451  2.4923
   17CHL1   H2B 1233   3.866   3.031   5.864 -0.4558  1.2934  2.4466
   17CHL1   C20 1234   4.231   2.516   5.111 -0.8698 -0.0396 -0.1687
   17CHL1   H20 1235   4.193   2.590   5.038  0.4911  0.1561 -0.7017
   17CHL1   C21 1236   4.112   2.420   5.143 -0.6695 -0.6271 -0.1160
   17CHL1  H21A 1237   4.028   2.487   5.172 -0.6236 -0.1393 -1.0600
   17CHL1  H21B 1238   4.141   2.362   5.233 -1.6856  1.5677  1.7232
   17CHL1  H21C 1239   4.078   2.358   5.057  1.0205 -0.0738 -1.2398
   17CHL1   C22 1240   4.341   2.429   5.039  0.1273 -0.0728 -0.5532
   17CHL1  H22A 1241   4.447   2.461   5.046  0.7078 -2.1707  2.9159
   17CHL1  H22B 1242   4.338   2.332   5.092 -0.3982 -1.0332 -2.2743
   17CHL1   C23 1243   4.307   2.396   4.892  0.8871 -0.1822  0.3794
   17CHL1  H23A 1244   4.199   2.370   4.890  0.2093  2.3645  0.2926
   17CHL1  H23B 1245   4.326   2.490   4.837 -0.0146 -0.9232 -1.2709
   17CHL1   C24 1246   4.401   2.294   4.828  0.1104 -0.7027  0.3772
   17CHL1  H24A 1247   4.506   2.330   4.821 -0.7056  1.5126 -2.5762
   17CHL1  H24B 1248   4.399   2.207   4.897 -1.1425  0.1276  1.4437
   17CHL1   C25 1249   4.361   2.257   4.688 -0.6454  0.1090  0.8111
   17CHL1   H25 1250   4.256   2.221   4.675 -0.8919  0.4229  1.8397
   17CHL1   C26 1251   4.375   2.368   4.578 -0.5910 -0.9640 -0.0767
   17CHL1  H26A 1252   4.310   2.457   4.594  1.2200  0.5661 -0.8911
   17CHL1  H26B 1253   4.482   2.397   4.580 -1.3969  2.4971  0.9969
   17CHL1  H26C 1254   4.350   2.337   4.474 -1.6423 -1.3349  0.2756
   17CHL1   C27 1255   4.444   2.135   4.646 -0.8758  0.8767  0.4487
   17CHL1  H27A 1256   4.423   2.114   4.539 -2.1161 -0.9765  1.0229
   17CHL1  H27B 1257   4.552   2.163   4.643 -0.9881  1.2714 -0.0796
   17CHL1  H27C 1258   4.418   2.046   4.707  1.0829 -1.1958 -1.5506
   18CHL1    C3 1259   2.980   5.095   5.966 -0.4514 -0.6173  1.1823
   18CHL1    H3 1260   3.076   5.086   5.910  0.3085  0.6763  2.2235
   18CHL1    O3 1261   3.013   5.107   6.106  0.2633 -0.6535 -0.0537
   18CHL1   H3' 1262   2.932   5.138   6.146  1.8042  0.5236  2.3974
   18CHL1    C4 1263   2.916   5.227   5.919 -0.5140  0.2731  0.2428
   18CHL1   H4A 1264   2.819   5.235   5.971  0.4328 -0.0416  2.1727
   18CHL1   H4B 1265   2.978   5.316   5.945 -2.8379  2.2232 -0.5629
   18CHL1    C5 1266   2.885   5.215   5.777  0.2814  1.1226  0.7027
   18CHL1    C6 1267   2.931   5.317   5.703 -0.4046 -0.3762  0.2368
   18CHL1    H6 1268   2.998   5.397   5.737  1.8031 -1.2000 -1.8931
   18CHL1    C7 1269   2.905   5.316   5.550 -0.5087 -1.0191 -0.3594
   18CHL1   H7A 1270   2.886   5.417   5.507 -1.7174 -0.4304  1.4384
   18CHL1   H7B 1271   3.000   5.283   5.502 -0.2838 -1.5297  0.4308
   18CHL1    C8 1272   2.787   5.222   5.501 -0.7516 -0.1326 -0.6091
   18CHL1    H8 1273   2.697   5.272   5.542  0.3163 -1.9435  4.6288
   18CHL1   C14 1274   2.785   5.215   5.350  0.0261  0.6940  0.5773
   18CHL1   H14 1275   2.881   5.163   5.329 -0.0909  0.2174  1.1943
   18CHL1   C15 1276   2.787   5.341   5.267  0.2495  0.4346  0.5836
   18CHL1  H15A 1277   2.720   5.417   5.312 -2.4323 -0.7326 -1.2181
   18CHL1  H15B 1278   2.895   5.368   5.272  0.2448  0.2751  1.9399
   18CHL1   C16 1279   2.733   5.291   5.130  0.5927  0.2729  0.0262
   18CHL1  H16A 1280   2.634   5.340   5.119  1.2191  1.4660 -0.4750
   18CHL1  H16B 1281   2.798   5.322   5.045  0.4084 -2.2288 -1.1514
   18CHL1   C17 1282   2.712   5.136   5.135 -0.0917  0.3330  0.5229
   18CHL1   H17 1283   2.812   5.097   5.105  0.2386  0.8845  0.8739
   18CHL1   C13 1284   2.681   5.117   5.285  0.1840 -0.2374 -0.0859
   18CHL1   C18 1285   2.539   5.168   5.317  0.2162  0.1589  1.2172
   18CHL1  H18A 1286   2.525   5.277   5.307 -0.4232  0.1208  1.6542
   18CHL1  H18B 1287   2.463   5.113   5.257 -0.1961  0.6174  1.3145
   18CHL1  H18C 1288   2.510   5.140   5.421 -1.2008 -1.0221  0.5441
   18CHL1   C12 1289   2.708   4.975   5.342 -0.0712  0.2733  0.1827
   18CHL1  H12A 1290   2.630   4.899   5.321  1.7497 -1.4981 -0.5540
   18CHL1  H12B 1291   2.794   4.934   5.285 -0.3239 -2.3206  1.5335
   18CHL1   C11 1292   2.707   4.979   5.495  0.1609  0.2472 -0.1650
   18CHL1  H11A 1293   2.608   4.996   5.542 -0.7481 -2.0799 -1.0824
   18CHL1  H11B 1294   2.750   4.887   5.541  4.1276  3.1257  2.5698
   18CHL1    C9 1295   2.808   5.085   5.564  0.2327  0.6410 -0.5799
   18CHL1    H9 1296   2.912   5.055   5.537  0.7907 -0.3328  2.3343
   18CHL1   C10 1297   2.810   5.097   5.721 -0.1442  0.3965  0.1683
   18CHL1   C19 1298   2.666   5.108   5.776 -0.0603 -0.3995  0.5189
   18CHL1  H19A 1299   2.598   5.171   5.713  0.1729 -0.0198  0.6415
   18CHL1  H19B 1300   2.612   5.011   5.774  1.5220 -1.3197 -1.7599
   18CHL1  H19C 1301   2.657   5.160   5.873  0.0133 -1.3830  1.0645
   18CHL1    C1 1302   2.880   4.967   5.775  0.1957  0.4422 -0.0470
   18CHL1   H1A 1303   2.824   4.879   5.736 -0.4041  0.8043 -0.0112
   18CHL1   H1B 1304   2.979   4.969   5.725  0.8172  1.1226  1.1690
   18CHL1    C2 1305   2.901   4.978   5.932  0.8121 -0.0720 -0.3400
   18CHL1   H2A 1306   2.947   4.885   5.973  0.4032 -0.2803 -0.3394
   18CHL1   H2B 1307   2.796   4.984   5.969  0.9416  0.8490 -0.0915
   18CHL1   C20 1308   2.615   5.080   5.025 -0.7712 -0.0897  0.3381
   18CHL1   H20 1309   2.519   5.136   5.026  0.7150  2.6394  1.2813
   18CHL1   C21 1310   2.584   4.930   5.039 -0.8615 -0.3772 -0.1184
   18CHL1  H21A 1311   2.672   4.863   5.043 -2.1641 -2.3298 -2.1163
   18CHL1  H21B 1312   2.511   4.907   4.959  0.0786  1.0687 -1.4650
   18CHL1  H21C 1313   2.531   4.915   5.136 -0.4158 -2.4037 -0.1618
   18CHL1   C22 1314   2.677   5.112   4.879 -0.2740  0.2176 -0.0244
   18CHL1  H22A 1315   2.726   5.211   4.887 -2.1059  1.2494 -0.8371
   18CHL1  H22B 1316   2.751   5.032   4.859  0.4246  1.2819 -2.0400
   18CHL1   C23 1317   2.563   5.126   4.771  0.3893 -0.0891 -0.7847
   18CHL1  H23A 1318   2.521   5.024   4.764  1.0563 -0.6344  1.9268
   18CHL1  H23B 1319   2.491   5.200   4.811  2.9579  1.3046  1.5936
   18CHL1   C24 1320   2.622   5.164   4.641  0.0185 -0.2193 -0.2784
   18CHL1  H24A 1321   2.693   5.249   4.653 -0.9585  0.8160 -1.4468
   18CHL1  H24B 1322   2.675   5.081   4.589  0.5742  2.5426 -4.6633
   18CHL1   C25 1323   2.521   5.217   4.535  0.3003  0.7559 -0.8051
   18CHL1   H25 1324   2.449   5.292   4.572 -0.3052  0.5944 -1.6342
   18CHL1   C26 1325   2.583   5.302   4.416  0.6911 -0.1808  0.1101
   18CHL1  H26A 1326   2.511   5.321   4.334  1.6010 -0.1330 -0.6946
   18CHL1  H26B 1327   2.609   5.399   4.465 -0.1834  0.4970 -0.7270
   18CHL1  H26C 1328   2.672   5.255   4.369  1.4029 -0.4221  1.6362
   18CHL1   C27 1329   2.453   5.095   4.475 -0.1998 -0.3495  0.0815
   18CHL1  H27A 1330   2.389   5.122   4.388 -1.1727 -2.7961 -0.0554
   18CHL1  H27B 1331   2.518   5.009   4.450 -0.1954 -0.2568 -0.2268
   18CHL1  H27C 1332   2.379   5.053   4.547  1.3799 -1.0574  1.3445
   19CHL1    C3 1333   1.567   3.426   6.100 -0.0370 -0.1628 -0.1217
   19CHL1    H3 1334   1.556   3.535   6.084 -2.5921 -0.5157 -1.1720
   19CHL1    O3 1335   1.558   3.395   6.240  0.3779 -0.6021  0.3886
   19CHL1   H3' 1336   1.464   3.405   6.258  0.2252  1.8572 -1.2527
   19CHL1    C4 1337   1.475   3.334   6.022 -0.1249  0.2498  0.4040
   19CHL1   H4A 1338   1.507   3.230   6.045 -2.2106 -0.7655 -0.8761
   19CHL1   H4B 1339   1.369   3.350   6.052 -0.6207 -0.7581 -0.6820
   19CHL1    C5 1340   1.481   3.353   5.874 -0.0867  0.7450 -0.2736
   19CHL1    C6 1341   1.377   3.380   5.793  0.1255 -0.5575 -0.4486
   19CHL1    H6 1342   1.283   3.417   5.837 -0.6878  0.7752 -3.0902
   19CHL1    C7 1343   1.381   3.381   5.647 -0.3094 -0.5374  0.4227
   19CHL1   H7A 1344   1.298   3.329   5.594 -2.3165 -0.2579  3.0946
   19CHL1   H7B 1345   1.362   3.487   5.622  0.1486 -0.3940  0.6776
   19CHL1    C8 1346   1.511   3.323   5.578  0.7207 -0.2603 -0.4702
   19CHL1    H8 1347   1.512   3.212   5.571 -0.9431 -0.3735  0.4943
   19CHL1   C14 1348   1.531   3.375   5.438 -0.5559 -0.1368 -0.4916
   19CHL1   H14 1349   1.540   3.486   5.440  0.5302 -0.1810 -1.6071
   19CHL1   C15 1350   1.422   3.351   5.332  0.2563  0.2175  0.0893
   19CHL1  H15A 1351   1.386   3.246   5.340  0.2799  0.2441  0.6353
   19CHL1  H15B 1352   1.335   3.417   5.350  0.2279 -0.0369  0.9371
   19CHL1   C16 1353   1.490   3.371   5.199 -0.1030  0.7960  0.3774
   19CHL1  H16A 1354   1.497   3.275   5.143 -0.8922 -1.7197  4.2423
   19CHL1  H16B 1355   1.442   3.460   5.152  1.3980  1.9682  0.9825
   19CHL1   C17 1356   1.639   3.402   5.230  0.6290 -0.0773 -0.4412
   19CHL1   H17 1357   1.638   3.512   5.245 -2.4638  0.0178 -0.5802
   19CHL1   C13 1358   1.657   3.335   5.370 -1.3092 -0.3348  0.4194
   19CHL1   C18 1359   1.668   3.184   5.349 -0.6187  0.6066  0.1427
   19CHL1  H18A 1360   1.665   3.136   5.449  0.5002 -0.2046 -0.1942
   19CHL1  H18B 1361   1.597   3.136   5.278  1.0496 -1.8780  0.0139
   19CHL1  H18C 1362   1.771   3.168   5.311 -0.7643 -0.3300  0.1260
   19CHL1   C12 1363   1.771   3.391   5.454 -0.2870 -1.0169 -0.2627
   19CHL1  H12A 1364   1.874   3.365   5.419  0.4499 -0.1499  1.2071
   19CHL1  H12B 1365   1.756   3.501   5.458 -0.9755 -1.1397  0.8004
   19CHL1   C11 1366   1.765   3.342   5.602 -0.0590 -0.3486  0.4693
   19CHL1  H11A 1367   1.787   3.233   5.599 -1.6014 -0.7034  1.0742
   19CHL1  H11B 1368   1.850   3.388   5.655  0.1118  2.6903 -2.1288
   19CHL1    C9 1369   1.630   3.367   5.668 -0.0727 -1.1463 -0.0334
   19CHL1    H9 1370   1.633   3.478   5.662 -0.1736 -1.2269 -3.1290
   19CHL1   C10 1371   1.619   3.322   5.817  0.1693 -0.2940  0.1378
   19CHL1   C19 1372   1.637   3.167   5.831 -0.2124 -0.0238 -0.3177
   19CHL1  H19A 1373   1.732   3.128   5.787  0.2625 -0.2864  0.8970
   19CHL1  H19B 1374   1.634   3.133   5.937  1.1112  1.9367  0.4173
   19CHL1  H19C 1375   1.558   3.110   5.777 -1.3820 -2.8706  3.8866
   19CHL1    C1 1376   1.725   3.395   5.902 -0.0011  0.7616 -0.6978
   19CHL1   H1A 1377   1.822   3.346   5.880  1.4387  1.7005  2.7922
   19CHL1   H1B 1378   1.737   3.504   5.880  0.0672  1.2850  1.6348
   19CHL1    C2 1379   1.709   3.384   6.056 -0.3635 -0.1721 -0.2633
   19CHL1   H2A 1380   1.792   3.430   6.114 -0.6639 -0.8368  0.7196
   19CHL1   H2B 1381   1.722   3.276   6.081  0.7055  0.1629  0.7687
   19CHL1   C20 1382   1.736   3.374   5.115 -0.5049 -0.1376  0.1319
   19CHL1   H20 1383   1.746   3.264   5.105 -1.2355 -0.0000 -3.2223
   19CHL1   C21 1384   1.881   3.422   5.159  0.1910 -0.1006 -0.3542
   19CHL1  H21A 1385   1.925   3.343   5.225 -2.1321 -0.2635  1.1024
   19CHL1  H21B 1386   1.862   3.508   5.226 -1.4136 -1.8466  1.5804
   19CHL1  H21C 1387   1.953   3.442   5.077  0.3725  0.2866 -0.1022
   19CHL1   C22 1388   1.700   3.444   4.974 -0.4789 -0.0439  0.0286
   19CHL1  H22A 1389   1.590   3.434   4.962 -0.1968 -1.5600 -1.8576
   19CHL1  H22B 1390   1.730   3.551   4.981 -0.6578  0.0173 -0.1265
   19CHL1   C23 1391   1.766   3.378   4.852 -0.2663 -0.3025 -0.5023
   19CHL1  H23A 1392   1.876   3.391   4.838 -0.5562  0.1531 -2.7480
   19CHL1  H23B 1393   1.743   3.270   4.852  1.9064 -0.8335  0.7407
   19CHL1   C24 1394   1.714   3.436   4.718  0.0645  0.4315 -1.3006
   19CHL1  H24A 1395   1.716   3.547   4.715 -0.5435  0.4683 -0.6904
   19CHL1  H24B 1396   1.776   3.398   4.634  0.4584 -1.8113 -0.0446
   19CHL1   C25 1397   1.571   3.397   4.684 -0.0941  0.0991  0.1811
   19CHL1   H25 1398   1.508   3.399   4.776 -1.0671 -4.1654 -0.1972
   19CHL1   C26 1399   1.514   3.490   4.585  0.2867  0.4826  0.0954
   19CHL1  H26A 1400   1.505   3.589   4.633 -1.8445 -0.0634  0.9518
   19CHL1  H26B 1401   1.571   3.483   4.490 -1.0066 -0.3313 -0.6552
   19CHL1  H26C 1402   1.410   3.464   4.555  0.7993 -0.3964 -0.9927
   19CHL1   C27 1403   1.562   3.253   4.639 -0.3909 -0.2432 -0.1060
   19CHL1  H27A 1404   1.601   3.180   4.713 -0.4275  2.4645  2.7874
   19CHL1  H27B 1405   1.454   3.236   4.619 -0.8139  1.8627  0.1403
   19CHL1  H27C 1406   1.609   3.241   4.539 -2.4959 -1.0822 -1.0597
   20CHL1    C3 1407   6.214   6.634   6.069 -0.4377  0.1926 -0.1390
   20CHL1    H3 1408   6.219   6.525   6.048  0.3112 -0.0024  0.9587
   20CHL1    O3 1409   6.278   6.660   6.197  0.1430  0.0415 -0.2522
   20CHL1   H3' 1410   6.212   6.631   6.260 -0.2522 -1.3969 -1.2582
   20CHL1    C4 1411   6.299   6.706   5.955 -0.2190 -0.8338 -0.4026
   20CHL1   H4A 1412   6.324   6.809   5.989 -1.1102  0.2796 -2.8651
   20CHL1   H4B 1413   6.393   6.648   5.944 -0.6500 -1.8546  0.9977
   20CHL1    C5 1414   6.226   6.722   5.827 -0.3642 -0.3462  0.5914
   20CHL1    C6 1415   6.276   6.678   5.711 -0.3078 -0.3374  0.0190
   20CHL1    H6 1416   6.382   6.647   5.721 -0.1937  0.6631  3.0392
   20CHL1    C7 1417   6.220   6.688   5.576  0.2070  0.4068 -0.3564
   20CHL1   H7A 1418   6.301   6.725   5.510  0.2126  1.6347  0.3064
   20CHL1   H7B 1419   6.214   6.582   5.542  0.8005  0.1203  0.3820
   20CHL1    C8 1420   6.086   6.753   5.571  0.3432 -0.2284 -0.3315
   20CHL1    H8 1421   6.100   6.863   5.564  2.2334 -0.3420  1.0668
   20CHL1   C14 1422   6.003   6.719   5.450 -0.6265  0.2081  0.1739
   20CHL1   H14 1423   5.979   6.611   5.457  1.7286 -0.2205  4.1723
   20CHL1   C15 1424   6.075   6.737   5.314 -0.6551  0.1018  0.9036
   20CHL1  H15A 1425   6.138   6.829   5.317  1.2124 -1.1014 -0.1052
   20CHL1  H15B 1426   6.144   6.655   5.287 -0.3317  0.1200  1.6567
   20CHL1   C16 1427   5.960   6.753   5.210 -0.3549 -0.5471 -0.4875
   20CHL1  H16A 1428   5.960   6.849   5.155  2.9082  0.8268  1.5808
   20CHL1  H16B 1429   5.971   6.667   5.140 -0.2604 -0.1136 -1.0175
   20CHL1   C17 1430   5.825   6.760   5.295  0.3882  0.0584  0.2310
   20CHL1   H17 1431   5.797   6.654   5.312 -2.8573  0.9898  1.2987
   20CHL1   C13 1432   5.871   6.799   5.433 -0.0165  0.0868 -0.4510
   20CHL1   C18 1433   5.903   6.954   5.436  0.0132  0.0201 -0.8684
   20CHL1  H18A 1434   5.807   7.005   5.414 -0.1635 -0.2982 -0.8348
   20CHL1  H18B 1435   5.942   6.988   5.535 -0.0602 -2.5000  0.0950
   20CHL1  H18C 1436   5.978   6.984   5.360  2.0831 -2.9920 -0.1941
   20CHL1   C12 1437   5.780   6.760   5.547  0.6377 -0.2311 -0.6033
   20CHL1  H12A 1438   5.691   6.827   5.539  0.9035 -0.0424 -2.1964
   20CHL1  H12B 1439   5.755   6.652   5.547  1.1436 -0.3632  0.6439
   20CHL1   C11 1440   5.857   6.782   5.682  0.2202 -0.2395 -0.3720
   20CHL1  H11A 1441   5.856   6.893   5.691  0.1999 -0.2617 -0.0938
   20CHL1  H11B 1442   5.791   6.734   5.757 -0.3171 -0.3803 -0.9253
   20CHL1    C9 1443   6.003   6.726   5.695 -0.1990  0.6744  0.8124
   20CHL1    H9 1444   5.988   6.616   5.694 -1.8495  0.8727 -1.0736
   20CHL1   C10 1445   6.079   6.766   5.826  0.6990 -0.0214 -0.0230
   20CHL1   C19 1446   6.091   6.915   5.847  0.1087  0.7778 -0.5298
   20CHL1  H19A 1447   5.992   6.962   5.860  0.0384  0.4096  0.3096
   20CHL1  H19B 1448   6.145   6.947   5.938 -0.0833 -0.8021  0.1695
   20CHL1  H19C 1449   6.144   6.964   5.762  1.3314  1.0653  0.3755
   20CHL1    C1 1450   5.997   6.708   5.947  0.0222  0.4040 -0.3843
   20CHL1   H1A 1451   5.907   6.770   5.970  0.6880  0.8488  1.1470
   20CHL1   H1B 1452   5.958   6.607   5.923 -0.6039  0.8111 -1.1110
   20CHL1    C2 1453   6.077   6.698   6.077 -0.2476 -0.1698  0.5689
   20CHL1   H2A 1454   6.020   6.657   6.162  2.3900 -1.7150  1.7039
   20CHL1   H2B 1455   6.098   6.804   6.106 -1.8866  0.5146 -0.5722
   20CHL1   C20 1456   5.710   6.841   5.217 -0.0846  0.3880  0.2149
   20CHL1   H20 1457   5.741   6.941   5.181  0.0480  0.0706 -0.5585
   20CHL1   C21 1458   5.577   6.853   5.303 -0.1630  0.2738 -0.4891
   20CHL1  H21A 1459   5.542   6.753   5.336 -0.0536  0.3118 -0.2606
   20CHL1  H21B 1460   5.494   6.888   5.237 -1.7843  0.6643  1.6611
   20CHL1  H21C 1461   5.588   6.933   5.379 -0.7837 -0.8432  0.8146
   20CHL1   C22 1462   5.671   6.762   5.086 -0.7077  0.9083 -0.8157
   20CHL1  H22A 1463   5.761   6.722   5.035 -0.2840 -1.3084  1.4874
   20CHL1  H22B 1464   5.616   6.675   5.128  2.3696 -0.4126  0.7512
   20CHL1   C23 1465   5.579   6.841   4.992 -0.6770  0.3978  0.5244
   20CHL1  H23A 1466   5.503   6.912   5.031 -2.5057 -1.0320 -0.2939
   20CHL1  H23B 1467   5.647   6.912   4.939 -1.6038  1.9817  1.3768
   20CHL1   C24 1468   5.529   6.747   4.880 -0.0700 -0.1109  0.3671
   20CHL1  H24A 1469   5.606   6.687   4.827 -0.6231  1.8645 -2.9718
   20CHL1  H24B 1470   5.474   6.662   4.928  1.6986 -3.2714 -2.7416
   20CHL1   C25 1471   5.440   6.803   4.773  0.4808  0.0104 -0.3556
   20CHL1   H25 1472   5.367   6.880   4.806  0.1528 -0.7413  0.7378
   20CHL1   C26 1473   5.522   6.854   4.658  0.0678 -0.0574 -0.4191
   20CHL1  H26A 1474   5.597   6.927   4.695  0.4057 -0.8411  0.5165
   20CHL1  H26B 1475   5.578   6.768   4.614  1.4019  1.5527 -1.9996
   20CHL1  H26C 1476   5.458   6.898   4.580 -0.2806 -0.8206 -0.5771
   20CHL1   C27 1477   5.354   6.697   4.709  0.3295  0.1200 -0.1854
   20CHL1  H27A 1478   5.270   6.663   4.772  1.0823  0.2975  0.9441
   20CHL1  H27B 1479   5.305   6.740   4.619 -3.0444  2.5000  2.5516
   20CHL1  H27C 1480   5.413   6.604   4.693  0.0740 -0.3752  1.5703
   21CHL1    C3 1481   5.191   3.545   6.158 -0.2014  0.1345 -0.0305
   21CHL1    H3 1482   5.265   3.470   6.120  1.0168  1.2866  0.0077
   21CHL1    O3 1483   5.191   3.522   6.302  0.0723 -0.3647  0.2219
   21CHL1   H3' 1484   5.221   3.608   6.333 -2.1355  0.4528  0.2486
   21CHL1    C4 1485   5.245   3.687   6.143 -0.5978 -0.4895 -0.3764
   21CHL1   H4A 1486   5.171   3.755   6.191  0.0049 -0.0689 -0.0323
   21CHL1   H4B 1487   5.340   3.716   6.192 -0.0666 -1.7949 -0.5931
   21CHL1    C5 1488   5.248   3.715   5.994 -0.0461 -0.0774 -0.0317
   21CHL1    C6 1489   5.359   3.759   5.931  0.2302  0.5626 -0.0130
   21CHL1    H6 1490   5.458   3.779   5.977  1.4389 -1.2645 -1.6638
   21CHL1    C7 1491   5.372   3.799   5.784 -0.1592 -0.0265  0.0119
   21CHL1   H7A 1492   5.431   3.893   5.778  0.4999 -0.3018  1.5469
   21CHL1   H7B 1493   5.426   3.718   5.730 -0.2877 -0.1246  0.0294
   21CHL1    C8 1494   5.231   3.820   5.723  0.0576 -0.3266  0.4596
   21CHL1    H8 1495   5.191   3.917   5.758 -0.4800 -0.7411  1.0098
   21CHL1   C14 1496   5.241   3.828   5.573  0.2064 -0.4104  0.2079
   21CHL1   H14 1497   5.285   3.734   5.533 -1.4505 -1.4146  0.6625
   21CHL1   C15 1498   5.342   3.935   5.517 -0.0962  0.0795 -0.3604
   21CHL1  H15A 1499   5.345   4.032   5.570  3.2347  0.9042 -1.7793
   21CHL1  H15B 1500   5.444   3.891   5.513 -0.2687 -0.3947  0.3089
   21CHL1   C16 1501   5.289   3.953   5.365  0.6955  0.4131  0.3539
   21CHL1  H16A 1502   5.268   4.061   5.349  0.6817  0.1983 -1.2491
   21CHL1  H16B 1503   5.366   3.921   5.291  0.0592 -0.2806 -0.0152
   21CHL1   C17 1504   5.158   3.867   5.348 -0.9496  0.4554  0.3751
   21CHL1   H17 1505   5.187   3.766   5.314 -2.7035 -0.8750  2.5763
   21CHL1   C13 1506   5.111   3.850   5.494  0.0919  0.3681  0.0198
   21CHL1   C18 1507   5.047   3.984   5.532  0.6149  0.6072 -0.0025
   21CHL1  H18A 1508   5.036   3.977   5.643  1.7780  0.7307  0.1357
   21CHL1  H18B 1509   5.103   4.079   5.515 -0.2383  1.3026  0.9365
   21CHL1  H18C 1510   4.949   4.006   5.485  0.8656  1.1701 -0.2760
   21CHL1   C12 1511   5.028   3.726   5.516 -0.0280  0.3637 -0.5667
   21CHL1  H12A 1512   4.926   3.734   5.472 -0.3318  0.3428  0.1203
   21CHL1  H12B 1513   5.068   3.625   5.491  0.8125  0.3012  0.9292
   21CHL1   C11 1514   5.008   3.701   5.666  0.2510  0.4018 -0.8906
   21CHL1  H11A 1515   4.936   3.781   5.694 -0.3933 -0.2492 -0.6523
   21CHL1  H11B 1516   4.957   3.603   5.676  0.4272  0.3638 -0.3107
   21CHL1    C9 1517   5.139   3.706   5.758  0.0032  0.1772 -0.0094
   21CHL1    H9 1518   5.194   3.618   5.718  1.2656 -0.0567  2.1031
   21CHL1   C10 1519   5.121   3.689   5.910 -0.0481  0.3837 -0.4740
   21CHL1   C19 1520   5.020   3.786   5.963 -0.4629 -0.6926  0.2454
   21CHL1  H19A 1521   5.011   3.808   6.071  2.5463  0.5763  0.3175
   21CHL1  H19B 1522   5.035   3.889   5.923 -1.6674 -1.2551 -1.7767
   21CHL1  H19C 1523   4.922   3.750   5.924 -0.1276 -1.1715 -0.1669
   21CHL1    C1 1524   5.065   3.546   5.942  0.1398  0.0524  0.8957
   21CHL1   H1A 1525   4.972   3.524   5.886 -0.8087  0.9227  2.0683
   21CHL1   H1B 1526   5.134   3.470   5.900  1.2035  1.4217  0.0522
   21CHL1    C2 1527   5.054   3.521   6.094 -0.2250 -0.3147 -0.6125
   21CHL1   H2A 1528   5.020   3.420   6.122  0.0859  0.0117  1.0670
   21CHL1   H2B 1529   4.984   3.596   6.138  2.2740  0.8743  1.6071
   21CHL1   C20 1530   5.060   3.918   5.240  0.4137 -0.1125  0.7196
   21CHL1   H20 1531   4.997   3.994   5.290  1.5829  0.4323  1.4204
   21CHL1   C21 1532   4.976   3.799   5.190 -0.1960  0.0660 -0.1773
   21CHL1  H21A 1533   4.926   3.737   5.268 -1.6257 -0.1255 -1.1954
   21CHL1  H21B 1534   5.040   3.720   5.147  0.1882 -0.9738  2.1725
   21CHL1  H21C 1535   4.893   3.833   5.124 -2.6174 -2.7156  1.2005
   21CHL1   C22 1536   5.126   3.994   5.119  0.7221 -0.8818  0.0369
   21CHL1  H22A 1537   5.177   4.085   5.157 -0.1623 -1.4085  2.6952
   21CHL1  H22B 1538   5.206   3.938   5.066  2.1832 -0.7112  1.9326
   21CHL1   C23 1539   5.020   4.049   5.016  0.0379 -0.4310  0.1489
   21CHL1  H23A 1540   4.951   3.972   4.975 -0.3716 -0.8950  1.6565
   21CHL1  H23B 1541   4.958   4.119   5.076  1.3321 -0.0060  1.0439
   21CHL1   C24 1542   5.086   4.125   4.899 -0.1069 -0.6196  0.5402
   21CHL1  H24A 1543   5.125   4.225   4.928  0.9444 -0.2946 -1.7855
   21CHL1  H24B 1544   5.180   4.071   4.873 -0.1815 -0.6387  0.3046
   21CHL1   C25 1545   4.999   4.128   4.776  0.4200  0.0586  0.7396
   21CHL1   H25 1546   4.965   4.023   4.767 -0.4097  0.0986  2.8179
   21CHL1   C26 1547   4.876   4.211   4.806 -0.3697 -0.4731  0.0858
   21CHL1  H26A 1548   4.811   4.163   4.882 -0.3261  1.1181  1.1816
   21CHL1  H26B 1549   4.913   4.310   4.842  0.4291 -0.8580  0.3521
   21CHL1  H26C 1550   4.813   4.227   4.716 -2.0536 -1.1424  1.0948
   21CHL1   C27 1551   5.073   4.172   4.655  0.2503  0.7105 -0.1254
   21CHL1  H27A 1552   5.162   4.107   4.637 -1.3207 -1.5079 -0.2663
   21CHL1  H27B 1553   5.008   4.166   4.566 -2.2300 -1.2292  1.6857
   21CHL1  H27C 1554   5.104   4.279   4.659 -2.3402  1.4847  1.0434
   22CHL1    C3 1555   1.631   3.888   5.905  0.4490 -0.0938 -0.0202
   22CHL1    H3 1556   1.541   3.954   5.901  0.0522 -0.6625 -0.7716
   22CHL1    O3 1557   1.651   3.837   6.035  0.1497 -0.2882 -0.4769
   22CHL1   H3' 1558   1.664   3.742   6.024  1.9257 -0.5175  2.6449
   22CHL1    C4 1559   1.617   3.765   5.809  0.2201  0.3349 -1.2727
   22CHL1   H4A 1560   1.717   3.715   5.816 -0.0222  0.0524  0.6673
   22CHL1   H4B 1561   1.534   3.706   5.853 -0.4597  0.9468 -1.7345
   22CHL1    C5 1562   1.592   3.812   5.669 -0.5100  0.0756 -0.0993
   22CHL1    C6 1563   1.478   3.791   5.603 -0.2202 -0.5141 -1.0767
   22CHL1    H6 1564   1.405   3.727   5.654 -0.5859 -0.3978 -1.4481
   22CHL1    C7 1565   1.454   3.834   5.461  0.2684  0.4547  0.2866
   22CHL1   H7A 1566   1.408   3.757   5.395  1.1548 -0.2279  0.4425
   22CHL1   H7B 1567   1.385   3.921   5.454 -0.0207  0.1584 -0.6221
   22CHL1    C8 1568   1.589   3.867   5.386 -0.1329  0.1325 -0.3067
   22CHL1    H8 1569   1.656   3.780   5.368 -0.5072 -0.2451  0.0928
   22CHL1   C14 1570   1.554   3.924   5.247  0.6485 -0.4257  1.0381
   22CHL1   H14 1571   1.481   4.008   5.255  0.2069 -0.7740  0.6906
   22CHL1   C15 1572   1.491   3.829   5.140 -0.1577 -0.7279  0.3282
   22CHL1  H15A 1573   1.554   3.739   5.126 -0.6900 -0.9823 -0.5253
   22CHL1  H15B 1574   1.383   3.802   5.149 -0.7126  0.2850 -2.4013
   22CHL1   C16 1575   1.493   3.925   5.015  0.8564  0.5954 -0.5531
   22CHL1  H16A 1576   1.543   3.870   4.933  0.9607  0.4711 -0.4091
   22CHL1  H16B 1577   1.390   3.946   4.980  0.8459  0.1420 -0.8026
   22CHL1   C17 1578   1.584   4.049   5.050 -0.0326  0.4886 -0.3167
   22CHL1   H17 1579   1.520   4.127   5.097 -1.7501 -1.9908  1.7587
   22CHL1   C13 1580   1.669   3.997   5.180  0.2441 -0.0709  0.6794
   22CHL1   C18 1581   1.786   3.899   5.138 -0.4607 -0.2087  0.2819
   22CHL1  H18A 1582   1.862   3.950   5.076  1.4885 -0.4466  2.3094
   22CHL1  H18B 1583   1.834   3.863   5.232 -3.7894 -2.1170  1.4165
   22CHL1  H18C 1584   1.756   3.813   5.074  0.6700  0.1932 -0.8151
   22CHL1   C12 1585   1.716   4.111   5.273  0.0487  0.3519 -0.0147
   22CHL1  H12A 1586   1.784   4.186   5.225  1.4791 -0.3557  0.8288
   22CHL1  H12B 1587   1.619   4.160   5.291 -1.7456 -3.2287  0.9737
   22CHL1   C11 1588   1.774   4.046   5.395  0.8727  0.0730  0.1252
   22CHL1  H11A 1589   1.855   3.974   5.371  0.3065  0.3960 -3.2189
   22CHL1  H11B 1590   1.827   4.123   5.455 -1.0632  0.8868  0.8970
   22CHL1    C9 1591   1.671   3.958   5.476  0.3415  0.6787 -0.1260
   22CHL1    H9 1592   1.591   4.033   5.499 -0.9446 -0.6879  0.0065
   22CHL1   C10 1593   1.713   3.898   5.615  0.5103 -0.3315  1.4831
   22CHL1   C19 1594   1.840   3.813   5.599  0.1923 -0.1382  0.6069
   22CHL1  H19A 1595   1.922   3.887   5.592  0.7175 -0.6198  1.5003
   22CHL1  H19B 1596   1.871   3.745   5.681 -0.5240 -0.7144  0.4164
   22CHL1  H19C 1597   1.842   3.762   5.501  1.4774 -0.4328  0.7768
   22CHL1    C1 1598   1.733   4.018   5.717  0.0152 -0.0895 -0.4954
   22CHL1   H1A 1599   1.827   4.067   5.684  0.8548 -1.7675 -0.6955
   22CHL1   H1B 1600   1.644   4.085   5.713  0.4171  0.4271 -0.8052
   22CHL1    C2 1601   1.747   3.975   5.860 -0.6275 -0.2737  0.2507
   22CHL1   H2A 1602   1.749   4.074   5.911  1.4913  0.6376 -1.4127
   22CHL1   H2B 1603   1.850   3.936   5.875 -0.4077  0.4323  0.6363
   22CHL1   C20 1604   1.659   4.101   4.927 -0.4866  0.1387  0.1851
   22CHL1   H20 1605   1.713   4.009   4.895 -1.6758 -1.5193  2.6406
   22CHL1   C21 1606   1.747   4.219   4.962 -0.3150 -0.0830 -0.0988
   22CHL1  H21A 1607   1.837   4.200   5.025  1.8244  3.0104 -1.9352
   22CHL1  H21B 1608   1.691   4.307   5.001  1.0082  0.4578  0.6769
   22CHL1  H21C 1609   1.797   4.246   4.867 -2.0708  0.6366 -0.8554
   22CHL1   C22 1610   1.565   4.156   4.812 -0.5577 -1.0112  0.1517
   22CHL1  H22A 1611   1.491   4.077   4.785 -1.1238 -1.0108  1.5987
   22CHL1  H22B 1612   1.511   4.239   4.863 -0.6104  0.1585 -1.7362
   22CHL1   C23 1613   1.636   4.200   4.677  0.2349 -0.7562 -0.6001
   22CHL1  H23A 1614   1.667   4.305   4.693 -2.0369 -0.0446 -0.5002
   22CHL1  H23B 1615   1.722   4.132   4.659  1.3454 -0.1266  1.9390
   22CHL1   C24 1616   1.546   4.196   4.556 -0.1972 -0.1703 -0.1616
   22CHL1  H24A 1617   1.540   4.092   4.518 -1.3612  0.6356 -2.3629
   22CHL1  H24B 1618   1.446   4.238   4.580  0.1989  0.8070 -0.1786
   22CHL1   C25 1619   1.598   4.266   4.425 -0.1623 -0.5262 -0.5045
   22CHL1   H25 1620   1.617   4.370   4.459  1.2781 -0.9122 -0.0645
   22CHL1   C26 1621   1.723   4.204   4.370 -0.1222  0.4744  0.1621
   22CHL1  H26A 1622   1.803   4.203   4.447 -0.2308  0.7382  0.2767
   22CHL1  H26B 1623   1.704   4.095   4.353 -0.8291  0.4070  1.2516
   22CHL1  H26C 1624   1.754   4.259   4.279  0.9475  2.8424  1.8839
   22CHL1   C27 1625   1.492   4.257   4.310 -0.2626 -0.5070 -0.1263
   22CHL1  H27A 1626   1.499   4.347   4.245  0.5179  0.6143  1.4319
   22CHL1  H27B 1627   1.510   4.165   4.251  0.9827 -0.9245  0.8551
   22CHL1  H27C 1628   1.393   4.263   4.360 -0.1526  0.5819 -0.0140
   23CHL1    C3 1629   6.625   0.193   6.181  0.2401 -0.2916  0.4273
   23CHL1    H3 1630   6.613   0.303   6.172  0.2686 -0.2775  0.5591
   23CHL1    O3 1631   6.627   0.168   6.321  0.4826  0.4965 -0.3094
   23CHL1   H3' 1632   6.564   0.231   6.356  2.7729  3.2004 -0.6333
   23CHL1    C4 1633   6.510   0.127   6.118  0.0030  0.7696  0.2524
   23CHL1   H4A 1634   6.502   0.021   6.150 -0.6885  0.7269 -0.0527
   23CHL1   H4B 1635   6.424   0.164   6.178  0.3901 -0.7890  1.8461
   23CHL1    C5 1636   6.496   0.162   5.970 -0.2679  0.7263 -0.2368
   23CHL1    C6 1637   6.395   0.236   5.917 -0.2551  0.0821  0.8298
   23CHL1    H6 1638   6.311   0.269   5.980  0.0793  2.0068  0.3355
   23CHL1    C7 1639   6.376   0.262   5.768  0.2222 -0.2212 -1.2389
   23CHL1   H7A 1640   6.276   0.225   5.736  0.7931 -3.1019 -0.0023
   23CHL1   H7B 1641   6.391   0.370   5.747  2.0468 -0.2314 -0.1946
   23CHL1    C8 1642   6.460   0.157   5.686  0.9392  0.5373 -0.3276
   23CHL1    H8 1643   6.408   0.059   5.696 -1.7651  2.0861  2.1769
   23CHL1   C14 1644   6.460   0.206   5.546 -0.3783  0.5000  0.0320
   23CHL1   H14 1645   6.510   0.304   5.562  2.0812 -0.4820 -0.9971
   23CHL1   C15 1646   6.332   0.230   5.473 -0.2204  0.7710 -0.2970
   23CHL1  H15A 1647   6.261   0.150   5.502  1.3076 -1.3795 -2.1184
   23CHL1  H15B 1648   6.286   0.330   5.490  1.0500  1.6609 -1.7503
   23CHL1   C16 1649   6.360   0.222   5.326 -0.6358 -0.5234  1.4101
   23CHL1  H16A 1650   6.288   0.162   5.266 -2.8920 -0.0167  3.4266
   23CHL1  H16B 1651   6.374   0.320   5.276  1.9928 -1.6112 -0.1947
   23CHL1   C17 1652   6.507   0.181   5.318  0.4932  0.9710 -0.0531
   23CHL1   H17 1653   6.568   0.273   5.307 -0.1760  1.4444  0.1175
   23CHL1   C13 1654   6.543   0.124   5.452 -0.2455  0.1821  0.1246
   23CHL1   C18 1655   6.502  -0.032   5.453  0.5609 -0.6653  0.5078
   23CHL1  H18A 1656   6.487  -0.076   5.554  0.7219  0.7641  1.1684
   23CHL1  H18B 1657   6.410  -0.045   5.392  1.1654 -0.1795 -0.5313
   23CHL1  H18C 1658   6.581  -0.094   5.404  2.6122  2.9111 -1.0804
   23CHL1   C12 1659   6.694   0.144   5.495  0.5560 -0.9127  0.2494
   23CHL1  H12A 1660   6.762   0.082   5.432 -1.6750 -1.0082 -2.2539
   23CHL1  H12B 1661   6.717   0.249   5.467 -1.0892 -0.5715  0.0995
   23CHL1   C11 1662   6.709   0.101   5.640  0.9876  0.3845 -0.2140
   23CHL1  H11A 1663   6.706  -0.009   5.628  0.4797  0.3335  0.3569
   23CHL1  H11B 1664   6.814   0.109   5.675  0.7371 -0.8605  0.8853
   23CHL1    C9 1665   6.603   0.152   5.738  0.1101 -0.0683 -0.6865
   23CHL1    H9 1666   6.616   0.261   5.755  1.8792 -0.6444  2.5140
   23CHL1   C10 1667   6.616   0.099   5.885 -0.0886 -0.1036  0.6015
   23CHL1   C19 1668   6.620  -0.052   5.890 -0.0694  0.3058  0.4568
   23CHL1  H19A 1669   6.624  -0.078   5.999  2.1566  0.9701  0.5783
   23CHL1  H19B 1670   6.530  -0.088   5.837  0.2700 -0.2010  0.2087
   23CHL1  H19C 1671   6.708  -0.091   5.834  1.2412  2.6715  0.7201
   23CHL1    C1 1672   6.741   0.159   5.949  0.2506 -0.4310  0.1408
   23CHL1   H1A 1673   6.829   0.106   5.907  0.5673 -0.7683  1.1938
   23CHL1   H1B 1674   6.739   0.268   5.932 -0.4329 -0.2261  1.3631
   23CHL1    C2 1675   6.755   0.142   6.099 -0.2524 -0.2999 -0.3474
   23CHL1   H2A 1676   6.841   0.198   6.142 -0.7588 -0.1606  0.4997
   23CHL1   H2B 1677   6.764   0.036   6.130 -0.1569 -0.1539  0.1367
   23CHL1   C20 1678   6.533   0.097   5.187 -0.2410  0.2061  0.2475
   23CHL1   H20 1679   6.470   0.006   5.175 -1.2885  0.6603  1.9518
   23CHL1   C21 1680   6.681   0.053   5.174 -0.2496  0.3056 -0.1740
   23CHL1  H21A 1681   6.702   0.007   5.075 -1.0647  0.4402 -0.4150
   23CHL1  H21B 1682   6.700  -0.019   5.256 -1.3937 -1.8865 -1.7221
   23CHL1  H21C 1683   6.749   0.137   5.201  1.0524 -0.1838 -1.7886
   23CHL1   C22 1684   6.492   0.191   5.071  0.0971 -0.1450 -0.3171
   23CHL1  H22A 1685   6.425   0.277   5.090  1.1510  0.2739  1.8134
   23CHL1  H22B 1686   6.587   0.243   5.048  1.2814 -1.2158  1.8787
   23CHL1   C23 1687   6.440   0.119   4.935  0.1902  0.0995 -0.0100
   23CHL1  H23A 1688   6.493   0.023   4.918  0.4888  0.5396 -1.6626
   23CHL1  H23B 1689   6.333   0.091   4.947  0.7736 -1.5566  2.2327
   23CHL1   C24 1690   6.451   0.208   4.805  0.1706  0.5332 -0.0804
   23CHL1  H24A 1691   6.397   0.301   4.832  0.6899  0.6749  0.4793
   23CHL1  H24B 1692   6.555   0.237   4.779  0.3139  0.1345  0.0490
   23CHL1   C25 1693   6.387   0.136   4.689 -0.7449 -0.0568 -0.4608
   23CHL1   H25 1694   6.289   0.096   4.723 -0.3943 -1.6747 -1.2174
   23CHL1   C26 1695   6.354   0.233   4.572 -0.7894  0.6691 -0.0304
   23CHL1  H26A 1696   6.317   0.170   4.488 -0.1069 -2.1520  1.6428
   23CHL1  H26B 1697   6.276   0.306   4.603  0.1793  2.1390 -0.9564
   23CHL1  H26C 1698   6.450   0.282   4.544  0.0472  0.3950  2.1743
   23CHL1   C27 1699   6.463   0.018   4.638  0.0070  0.0204 -0.2892
   23CHL1  H27A 1700   6.459  -0.057   4.720 -1.1893  0.9176  0.5104
   23CHL1  H27B 1701   6.406  -0.022   4.551 -1.2058  1.0760 -0.0034
   23CHL1  H27C 1702   6.567   0.025   4.600 -0.5622 -1.2996 -2.2414
   24CHL1    C3 1703   1.413   2.277   6.084 -0.5173 -0.2289  0.0272
   24CHL1    H3 1704   1.437   2.173   6.051 -0.6231  0.3534 -2.0401
   24CHL1    O3 1705   1.445   2.300   6.218 -0.2011  0.3167 -0.0473
   24CHL1   H3' 1706   1.409   2.388   6.231  0.2437  0.6127 -0.7619
   24CHL1    C4 1707   1.482   2.382   5.993 -0.0419  0.3392 -0.2326
   24CHL1   H4A 1708   1.474   2.484   6.034  1.9466  0.6897 -0.6123
   24CHL1   H4B 1709   1.588   2.352   6.004 -0.1937  0.2982  1.2050
   24CHL1    C5 1710   1.436   2.365   5.850 -0.0751 -0.2966 -0.4447
   24CHL1    C6 1711   1.522   2.341   5.750 -0.1608 -0.6060 -0.1711
   24CHL1    H6 1712   1.627   2.326   5.780 -0.7955 -0.0514  2.5660
   24CHL1    C7 1713   1.480   2.330   5.608  0.7217  0.1105  0.3671
   24CHL1   H7A 1714   1.553   2.383   5.544 -1.0306  2.5154  0.2098
   24CHL1   H7B 1715   1.475   2.223   5.579 -2.8243  0.7900 -2.2071
   24CHL1    C8 1716   1.332   2.384   5.579 -0.2856  0.5832 -0.8432
   24CHL1    H8 1717   1.342   2.494   5.582 -0.6909  0.6102  1.7651
   24CHL1   C14 1718   1.287   2.325   5.446 -0.0849 -0.3360 -0.6083
   24CHL1   H14 1719   1.281   2.216   5.462  0.6379 -0.1444  1.2121
   24CHL1   C15 1720   1.380   2.344   5.328  0.0663 -0.6143  0.2332
   24CHL1  H15A 1721   1.402   2.452   5.342  1.4492 -0.8057 -0.3020
   24CHL1  H15B 1722   1.475   2.289   5.314 -0.0307 -0.6973 -0.1126
   24CHL1   C16 1723   1.295   2.316   5.200  0.2310  0.1600  0.0955
   24CHL1  H16A 1724   1.303   2.394   5.121  0.8543 -0.4054 -0.4098
   24CHL1  H16B 1725   1.311   2.215   5.157  0.7575  0.5582 -0.6592
   24CHL1   C17 1726   1.147   2.304   5.259  0.7008  0.0060 -0.5949
   24CHL1   H17 1727   1.124   2.199   5.288 -2.8927  0.7827 -0.0896
   24CHL1   C13 1728   1.145   2.370   5.403 -0.7604 -0.3075  0.3212
   24CHL1   C18 1729   1.138   2.523   5.394 -0.5031  0.0612 -0.2242
   24CHL1  H18A 1730   1.034   2.556   5.373  0.2573  2.1504 -0.9722
   24CHL1  H18B 1731   1.158   2.569   5.493 -1.7226 -0.0361  0.0839
   24CHL1  H18C 1732   1.201   2.568   5.315 -0.6843 -0.3111 -0.5837
   24CHL1   C12 1733   1.055   2.310   5.511 -0.1720 -0.6970 -0.6162
   24CHL1  H12A 1734   0.948   2.339   5.500 -0.7923 -1.0097  3.2744
   24CHL1  H12B 1735   1.063   2.199   5.523 -0.3522 -0.5752  0.8489
   24CHL1   C11 1736   1.087   2.365   5.654  0.4569 -0.0512  0.1812
   24CHL1  H11A 1737   1.066   2.472   5.672  0.2912 -0.6175  4.2308
   24CHL1  H11B 1738   1.019   2.306   5.719  1.1130 -0.1163  0.8200
   24CHL1    C9 1739   1.240   2.332   5.688  0.3592 -0.0242 -0.6058
   24CHL1    H9 1740   1.250   2.222   5.680  0.7091  0.1340 -2.9362
   24CHL1   C10 1741   1.285   2.367   5.827  0.3998  0.1269 -0.2368
   24CHL1   C19 1742   1.236   2.511   5.866 -0.1168 -0.3108  0.4248
   24CHL1  H19A 1743   1.126   2.520   5.867  0.0148  2.1396  2.4115
   24CHL1  H19B 1744   1.273   2.545   5.965 -1.4754 -0.1622  0.9022
   24CHL1  H19C 1745   1.271   2.585   5.791 -0.3610  0.5218  1.1235
   24CHL1    C1 1746   1.212   2.261   5.926 -0.4771  0.2207 -0.2699
   24CHL1   H1A 1747   1.102   2.261   5.918 -0.5876 -0.2862  1.0349
   24CHL1   H1B 1748   1.243   2.156   5.907 -1.0079 -0.0077  0.0944
   24CHL1    C2 1749   1.266   2.285   6.068  0.6161  0.0556 -0.6880
   24CHL1   H2A 1750   1.215   2.220   6.141  3.2962  0.6815  1.9452
   24CHL1   H2B 1751   1.232   2.384   6.106 -1.1811  0.3895 -2.9425
   24CHL1   C20 1752   1.044   2.347   5.154 -0.1377 -0.1817 -0.5598
   24CHL1   H20 1753   1.056   2.454   5.128  2.0025 -0.1828  0.2843
   24CHL1   C21 1754   0.901   2.338   5.220 -0.3728  1.1537 -0.0550
   24CHL1  H21A 1755   0.821   2.364   5.147 -1.5136  0.9152  1.0801
   24CHL1  H21B 1756   0.892   2.409   5.305 -1.3902  3.1424 -1.7342
   24CHL1  H21C 1757   0.876   2.234   5.253 -1.2577  1.0613 -0.9477
   24CHL1   C22 1758   1.058   2.269   5.024 -0.1576  0.6465  0.3388
   24CHL1  H22A 1759   1.148   2.303   4.968  1.4351 -0.2118  2.2205
   24CHL1  H22B 1760   1.073   2.161   5.048 -3.1888 -0.6832 -2.8867
   24CHL1   C23 1761   0.936   2.267   4.933  0.0600  0.0223 -0.2117
   24CHL1  H23A 1762   0.849   2.221   4.984 -0.6505  2.6045  1.0691
   24CHL1  H23B 1763   0.915   2.374   4.914 -1.1025 -0.7989 -4.4680
   24CHL1   C24 1764   0.956   2.200   4.799 -0.8865 -0.2365  0.6309
   24CHL1  H24A 1765   1.050   2.238   4.753  0.9656 -2.3165  2.4401
   24CHL1  H24B 1766   0.964   2.090   4.814 -0.0763 -0.1550  0.8440
   24CHL1   C25 1767   0.843   2.226   4.696  0.1040 -0.1084 -0.1692
   24CHL1   H25 1768   0.740   2.225   4.739  0.1240  0.5072 -0.1116
   24CHL1   C26 1769   0.866   2.366   4.638  0.5486  0.2237  0.4722
   24CHL1  H26A 1770   0.812   2.375   4.541  1.6984  0.8799 -0.1281
   24CHL1  H26B 1771   0.839   2.440   4.717  0.2208 -2.0730  2.6575
   24CHL1  H26C 1772   0.971   2.383   4.608  0.9502  0.5095  1.9774
   24CHL1   C27 1773   0.850   2.116   4.586 -0.8010  0.1202  1.1560
   24CHL1  H27A 1774   0.771   2.139   4.511  0.5545  0.1414 -0.3336
   24CHL1  H27B 1775   0.947   2.123   4.531 -1.4241 -1.3191 -0.1863
   24CHL1  H27C 1776   0.842   2.015   4.633 -0.1079  0.2203  1.4995
   25CHL1    C3 1777   4.624   4.544   6.045  0.2254  0.0501  0.3028
   25CHL1    H3 1778   4.621   4.456   5.977 -0.9192 -0.2190  0.6666
   25CHL1    O3 1779   4.663   4.501   6.174 -0.3937 -0.0770  0.0175
   25CHL1   H3' 1780   4.641   4.408   6.168  1.2465 -0.5133  0.3931
   25CHL1    C4 1781   4.715   4.657   6.003 -0.7331 -0.4522 -0.2086
   25CHL1   H4A 1782   4.712   4.738   6.079  0.4820  0.7872 -1.4060
   25CHL1   H4B 1783   4.819   4.619   5.993 -1.2147 -1.6547 -0.7807
   25CHL1    C5 1784   4.659   4.707   5.870  0.3184  0.0469  0.6181
   25CHL1    C6 1785   4.732   4.692   5.759  0.0476  0.4080 -0.1788
   25CHL1    H6 1786   4.834   4.654   5.778 -1.2583 -2.5246  1.8156
   25CHL1    C7 1787   4.691   4.725   5.620  0.0121  0.3645  0.3118
   25CHL1   H7A 1788   4.781   4.764   5.567  1.0372 -0.4334  1.4221
   25CHL1   H7B 1789   4.661   4.636   5.560 -2.6047  1.1568  0.3344
   25CHL1    C8 1790   4.567   4.816   5.618 -0.5510  0.0892  0.6875
   25CHL1    H8 1791   4.591   4.918   5.656 -0.3680 -0.3047  1.6438
   25CHL1   C14 1792   4.509   4.811   5.479  0.9123  0.2074  0.5295
   25CHL1   H14 1793   4.487   4.708   5.445  0.9127  1.0943 -2.5015
   25CHL1   C15 1794   4.617   4.859   5.368  0.3032  0.1598  0.1028
   25CHL1  H15A 1795   4.674   4.942   5.414  1.5175  0.5429 -1.9391
   25CHL1  H15B 1796   4.691   4.781   5.343  1.2487  0.1375  2.7282
   25CHL1   C16 1797   4.527   4.901   5.253  0.1333 -0.3272 -0.0232
   25CHL1  H16A 1798   4.554   4.993   5.196 -0.9652 -0.4714 -0.7941
   25CHL1  H16B 1799   4.521   4.816   5.183 -0.6569 -1.3298  1.2139
   25CHL1   C17 1800   4.371   4.902   5.305 -0.8134 -0.3164 -0.6102
   25CHL1   H17 1801   4.336   4.804   5.268  0.5736 -0.7453 -0.8425
   25CHL1   C13 1802   4.390   4.900   5.460  0.0791  0.8611  0.4843
   25CHL1   C18 1803   4.422   5.049   5.491 -0.1372  0.0095  0.6783
   25CHL1  H18A 1804   4.461   5.078   5.591  0.9551  4.1539 -0.7406
   25CHL1  H18B 1805   4.488   5.101   5.418 -2.0684  0.3584 -0.9213
   25CHL1  H18C 1806   4.327   5.106   5.485  0.2534  0.5196 -2.9361
   25CHL1   C12 1807   4.276   4.837   5.548  0.2935  0.3794  0.2240
   25CHL1  H12A 1808   4.185   4.901   5.540 -0.8358 -1.0870  0.9273
   25CHL1  H12B 1809   4.264   4.733   5.510  1.0505  0.1413  0.6235
   25CHL1   C11 1810   4.319   4.839   5.692 -0.2973 -0.7270 -0.2507
   25CHL1  H11A 1811   4.340   4.944   5.723 -0.0480 -0.5463 -1.0117
   25CHL1  H11B 1812   4.249   4.790   5.763  0.3343 -0.3977  0.6166
   25CHL1    C9 1813   4.460   4.763   5.714  0.4328 -0.8625  0.1724
   25CHL1    H9 1814   4.452   4.657   5.682  2.0842 -0.8859 -0.2354
   25CHL1   C10 1815   4.514   4.747   5.862 -0.0027  0.0283 -0.6226
   25CHL1   C19 1816   4.490   4.886   5.939  0.3607 -0.1523 -0.3757
   25CHL1  H19A 1817   4.536   4.889   6.040 -2.3827 -3.6572  1.1725
   25CHL1  H19B 1818   4.542   4.959   5.873 -1.2942  1.6937  0.2611
   25CHL1  H19C 1819   4.383   4.910   5.953  0.1829 -1.0508 -0.1624
   25CHL1    C1 1820   4.431   4.639   5.931 -0.3377  0.2605 -0.5069
   25CHL1   H1A 1821   4.328   4.677   5.947 -0.7588 -0.7174 -0.7793
   25CHL1   H1B 1822   4.427   4.547   5.869 -0.8216 -1.2017  1.5537
   25CHL1    C2 1823   4.483   4.590   6.070 -1.0245 -0.7568  0.1980
   25CHL1   H2A 1824   4.414   4.505   6.090 -2.5273 -1.0573 -4.8391
   25CHL1   H2B 1825   4.468   4.660   6.154  0.8998  1.3319 -1.1058
   25CHL1   C20 1826   4.289   5.013   5.247  0.0999 -0.1947 -0.0004
   25CHL1   H20 1827   4.336   5.109   5.280 -0.0820 -0.1035 -0.0044
   25CHL1   C21 1828   4.139   5.020   5.292 -0.2691  0.3501  0.4624
   25CHL1  H21A 1829   4.126   5.065   5.393 -1.5996 -0.7494  0.8238
   25CHL1  H21B 1830   4.090   4.921   5.307  0.5328  0.2436  2.8025
   25CHL1  H21C 1831   4.083   5.081   5.218 -1.0798  1.9052  2.2721
   25CHL1   C22 1832   4.296   5.014   5.091 -0.2696 -0.3540 -0.5053
   25CHL1  H22A 1833   4.248   5.111   5.064  1.3715  0.1750 -1.6996
   25CHL1  H22B 1834   4.392   5.005   5.036  0.3970  2.3664  0.0361
   25CHL1   C23 1835   4.204   4.907   5.022 -0.0104 -0.1434 -0.5171
   25CHL1  H23A 1836   4.256   4.814   5.053 -0.1371 -0.5184 -1.3929
   25CHL1  H23B 1837   4.103   4.913   5.067  1.1073  1.4854  2.0342
   25CHL1   C24 1838   4.198   4.916   4.872 -0.0972 -0.4254 -0.2765
   25CHL1  H24A 1839   4.289   4.972   4.841  0.6221  0.2099  2.6889
   25CHL1  H24B 1840   4.204   4.815   4.825  0.6108 -0.7774  0.5561
   25CHL1   C25 1841   4.081   4.997   4.815  0.0854 -0.0974 -0.1655
   25CHL1   H25 1842   3.984   4.954   4.849 -0.3615 -0.5233 -1.9139
   25CHL1   C26 1843   4.070   5.144   4.859 -0.1055 -0.3762 -0.1484
   25CHL1  H26A 1844   3.981   5.189   4.809  0.4341 -0.1766 -0.9442
   25CHL1  H26B 1845   4.046   5.153   4.967  1.4883 -0.5892  0.2457
   25CHL1  H26C 1846   4.159   5.208   4.844  0.0538 -0.3891  0.6992
   25CHL1   C27 1847   4.066   4.983   4.664 -0.1159  0.5639  0.8211
   25CHL1  H27A 1848   3.983   5.042   4.619  0.4147 -0.1712 -1.2581
   25CHL1  H27B 1849   4.157   5.031   4.623  0.0915 -0.3988  0.1082
   25CHL1  H27C 1850   4.049   4.878   4.631  2.1969  0.1955  0.6270
   26CHL1    C3 1851   5.786   2.428   6.107 -0.2735 -0.4863 -0.4255
   26CHL1    H3 1852   5.689   2.375   6.127 -0.4448 -0.3666 -0.9234
   26CHL1    O3 1853   5.833   2.499   6.219  0.4322 -0.1745 -0.0638
   26CHL1   H3' 1854   5.907   2.444   6.243  1.7934  0.4227 -2.5034
   26CHL1    C4 1855   5.893   2.325   6.074  0.5152  0.8497  0.7233
   26CHL1   H4A 1856   5.996   2.365   6.070  0.6753  0.4315 -3.1240
   26CHL1   H4B 1857   5.895   2.245   6.151 -2.6785 -0.1629 -0.0750
   26CHL1    C5 1858   5.874   2.254   5.944 -0.3930  0.6159 -0.1743
   26CHL1    C6 1859   5.879   2.118   5.944 -0.7137  0.1590  0.7631
   26CHL1    H6 1860   5.911   2.063   6.033 -2.1710 -0.5964  0.8421
   26CHL1    C7 1861   5.866   2.032   5.816  0.6173 -0.5744 -0.4816
   26CHL1   H7A 1862   5.948   1.957   5.818  1.2095  0.0613 -0.3200
   26CHL1   H7B 1863   5.771   1.976   5.831  1.6195 -2.1969  0.1009
   26CHL1    C8 1864   5.877   2.118   5.684 -0.0126  0.2019 -0.6362
   26CHL1    H8 1865   5.979   2.158   5.667  0.6984  0.7101  3.7992
   26CHL1   C14 1866   5.840   2.036   5.569 -0.8105 -0.2182 -0.4420
   26CHL1   H14 1867   5.734   2.008   5.590 -0.6680 -0.2584  0.2219
   26CHL1   C15 1868   5.901   1.894   5.544  0.2942  0.1542  0.0867
   26CHL1  H15A 1869   6.012   1.898   5.557 -0.0205 -0.5122  4.6696
   26CHL1  H15B 1870   5.858   1.818   5.612  0.2357  0.0188 -0.1022
   26CHL1   C16 1871   5.857   1.861   5.398  0.2055 -0.0886 -0.0192
   26CHL1  H16A 1872   5.943   1.827   5.338 -2.0084 -0.9538 -2.9120
   26CHL1  H16B 1873   5.785   1.778   5.413 -2.3888  1.7869 -1.1214
   26CHL1   C17 1874   5.787   1.990   5.345  1.2696  0.7538  0.4445
   26CHL1   H17 1875   5.681   1.975   5.374  1.6998 -1.4423  1.0260
   26CHL1   C13 1876   5.842   2.110   5.435  0.0880 -0.3994 -0.4249
   26CHL1   C18 1877   5.985   2.154   5.393  0.1645  0.9224  0.3789
   26CHL1  H18A 1878   6.061   2.075   5.408 -0.0664  0.7370  0.5668
   26CHL1  H18B 1879   5.983   2.183   5.286  1.4876 -1.2343 -0.2792
   26CHL1  H18C 1880   6.029   2.237   5.453 -0.4164  0.8057  0.9815
   26CHL1   C12 1881   5.752   2.235   5.448 -0.3632 -0.3823  0.2119
   26CHL1  H12A 1882   5.761   2.292   5.353  1.8888  0.1191  0.6917
   26CHL1  H12B 1883   5.646   2.202   5.460 -1.1477  1.4947 -1.0863
   26CHL1   C11 1884   5.796   2.326   5.563  0.3605  0.9791  0.1305
   26CHL1  H11A 1885   5.893   2.370   5.530 -1.3149  2.7619 -2.8427
   26CHL1  H11B 1886   5.724   2.410   5.565 -1.5036 -0.5849  0.7647
   26CHL1    C9 1887   5.801   2.245   5.700 -0.1177 -0.5243 -1.0551
   26CHL1    H9 1888   5.693   2.221   5.714 -0.1864  0.2351 -0.1124
   26CHL1   C10 1889   5.845   2.342   5.820 -0.0867 -0.0763 -0.3021
   26CHL1   C19 1890   5.974   2.429   5.786  0.3499  0.0367  0.0922
   26CHL1  H19A 1891   6.024   2.472   5.875  2.1207 -0.0574 -0.8085
   26CHL1  H19B 1892   6.048   2.359   5.742 -1.5856 -1.2771 -1.2119
   26CHL1  H19C 1893   5.963   2.508   5.708 -0.2967 -0.0123  0.1316
   26CHL1    C1 1894   5.734   2.445   5.858 -0.4599  0.0375  0.1008
   26CHL1   H1A 1895   5.720   2.504   5.765 -0.8626 -1.1771 -0.6241
   26CHL1   H1B 1896   5.639   2.394   5.884 -0.8306  0.3836 -0.5453
   26CHL1    C2 1897   5.768   2.524   5.989  0.1344 -0.3578 -0.4998
   26CHL1   H2A 1898   5.679   2.585   6.016 -1.5522 -3.0892  0.6097
   26CHL1   H2B 1899   5.858   2.588   5.985  0.8437 -1.3382 -0.7906
   26CHL1   C20 1900   5.805   1.997   5.190 -0.2847 -0.3324  0.0474
   26CHL1   H20 1901   5.913   2.008   5.165  0.0066  1.5569  1.8631
   26CHL1   C21 1902   5.727   2.118   5.134 -0.1208 -0.0795  0.1065
   26CHL1  H21A 1903   5.727   2.102   5.024  1.1256 -2.8009  0.4305
   26CHL1  H21B 1904   5.786   2.211   5.145 -0.9575  0.7554 -1.8834
   26CHL1  H21C 1905   5.622   2.134   5.167 -0.1612 -2.0047  1.0254
   26CHL1   C22 1906   5.756   1.873   5.120  0.3048  0.0525 -0.0630
   26CHL1  H22A 1907   5.816   1.786   5.156 -0.2819 -0.9720 -1.4770
   26CHL1  H22B 1908   5.647   1.853   5.125  0.5171 -0.9999  0.7242
   26CHL1   C23 1909   5.798   1.858   4.974  0.3280 -0.1379  0.6898
   26CHL1  H23A 1910   5.734   1.935   4.925  0.3639 -0.3035  0.3772
   26CHL1  H23B 1911   5.904   1.881   4.952  0.4474 -0.7164  0.6427
   26CHL1   C24 1912   5.765   1.721   4.909  0.1385  0.1638  0.7063
   26CHL1  H24A 1913   5.853   1.662   4.942  1.2906  1.1927 -0.3777
   26CHL1  H24B 1914   5.670   1.696   4.961 -0.5054  1.6689  0.3356
   26CHL1   C25 1915   5.753   1.726   4.755 -0.2183  0.5205 -0.8177
   26CHL1   H25 1916   5.833   1.793   4.718  1.1735 -0.2616  0.6390
   26CHL1   C26 1917   5.779   1.588   4.697  0.1386  0.1842 -0.7043
   26CHL1  H26A 1918   5.888   1.578   4.678  0.8518  1.4377  2.1094
   26CHL1  H26B 1919   5.727   1.509   4.754 -1.7131  0.4196 -1.9712
   26CHL1  H26C 1920   5.736   1.590   4.595 -1.5951  0.7210  0.0075
   26CHL1   C27 1921   5.619   1.785   4.708  0.0446  0.0636  0.5026
   26CHL1  H27A 1922   5.613   1.886   4.755 -1.9371  0.9091 -1.3727
   26CHL1  H27B 1923   5.615   1.795   4.597  0.0838  1.1621  0.5931
   26CHL1  H27C 1924   5.531   1.733   4.752 -0.6820  1.0960  0.3075
   27CHL1    C3 1925   3.374   1.442   5.410 -0.3694  0.4682  0.1981
   27CHL1    H3 1926   3.451   1.517   5.437  2.5252 -2.7568  1.7097
   27CHL1    O3 1927   3.315   1.398   5.527  0.3879 -0.6166  0.5308
   27CHL1   H3' 1928   3.383   1.394   5.594  1.3549  2.7776 -0.0413
   27CHL1    C4 1929   3.280   1.501   5.307  0.2470 -1.1265  0.7923
   27CHL1   H4A 1930   3.207   1.421   5.281 -0.0212 -1.3543  2.1758
   27CHL1   H4B 1931   3.227   1.589   5.347  1.1671  0.6470 -1.6530
   27CHL1    C5 1932   3.350   1.541   5.179 -0.0520 -0.0707  1.0270
   27CHL1    C6 1933   3.339   1.665   5.128 -0.5935 -1.3294  0.0791
   27CHL1    H6 1934   3.272   1.732   5.185 -0.1933  0.4557 -1.4517
   27CHL1    C7 1935   3.406   1.727   5.003 -0.5941 -0.4409  0.0800
   27CHL1   H7A 1936   3.333   1.785   4.941  0.1478 -0.2012 -0.5894
   27CHL1   H7B 1937   3.483   1.802   5.029  2.3032 -2.9803 -0.6261
   27CHL1    C8 1938   3.480   1.614   4.922  0.1079  0.4664  0.5825
   27CHL1    H8 1939   3.403   1.565   4.860  0.0256 -0.3532  1.3185
   27CHL1   C14 1940   3.593   1.679   4.842  0.2200 -0.1374  0.0986
   27CHL1   H14 1941   3.672   1.719   4.909 -0.2528  1.2714 -0.1503
   27CHL1   C15 1942   3.561   1.805   4.754 -0.9761  0.4355  0.3720
   27CHL1  H15A 1943   3.469   1.785   4.697 -0.4316 -0.9413 -0.0680
   27CHL1  H15B 1944   3.541   1.898   4.813  0.2847  1.4108 -0.6717
   27CHL1   C16 1945   3.688   1.815   4.670 -0.0139 -0.2370 -0.0737
   27CHL1  H16A 1946   3.646   1.815   4.568 -2.5626  0.2754  0.9139
   27CHL1  H16B 1947   3.752   1.904   4.691 -1.7489  1.5900 -2.0517
   27CHL1   C17 1948   3.767   1.684   4.688  0.4885 -0.4830 -0.2551
   27CHL1   H17 1949   3.840   1.709   4.768  0.4337 -0.2991 -0.2604
   27CHL1   C13 1950   3.663   1.581   4.753 -1.3523  0.2662 -0.0855
   27CHL1   C18 1951   3.570   1.522   4.644  0.5051 -0.5764 -0.4936
   27CHL1  H18A 1952   3.632   1.462   4.574  0.2455  1.5129 -2.6726
   27CHL1  H18B 1953   3.488   1.460   4.687  1.4893 -2.1504 -0.8377
   27CHL1  H18C 1954   3.514   1.596   4.582 -1.2240 -1.1031  0.3695
   27CHL1   C12 1955   3.722   1.470   4.832  0.2933  0.8285  0.8438
   27CHL1  H12A 1956   3.750   1.401   4.750 -0.1675  0.1699  1.2352
   27CHL1  H12B 1957   3.809   1.507   4.890 -1.1423  1.7666  2.4853
   27CHL1   C11 1958   3.620   1.398   4.926  0.5584  0.1643 -0.4948
   27CHL1  H11A 1959   3.552   1.345   4.856 -0.2297  0.0665  0.3377
   27CHL1  H11B 1960   3.680   1.330   4.990 -0.4099 -1.0867 -0.8698
   27CHL1    C9 1961   3.538   1.502   5.009  0.5114 -0.6965 -0.5510
   27CHL1    H9 1962   3.621   1.559   5.057 -0.4835 -0.0344  0.4316
   27CHL1   C10 1963   3.444   1.435   5.118 -0.1209 -0.2331  0.3600
   27CHL1   C19 1964   3.360   1.329   5.049  0.3463  0.0635  1.3170
   27CHL1  H19A 1965   3.422   1.244   5.014  1.1709  1.6019 -1.2167
   27CHL1  H19B 1966   3.278   1.283   5.108 -0.9549 -0.1621 -0.5954
   27CHL1  H19C 1967   3.304   1.374   4.965 -1.7969 -2.3798  1.3347
   27CHL1    C1 1968   3.535   1.378   5.232  0.1467 -0.2846 -0.2763
   27CHL1   H1A 1969   3.599   1.294   5.198  1.2029  0.0488  0.7884
   27CHL1   H1B 1970   3.611   1.455   5.257 -0.0285  0.5947 -2.2829
   27CHL1    C2 1971   3.457   1.329   5.354 -0.1870  0.8623  0.1649
   27CHL1   H2A 1972   3.513   1.280   5.436 -0.4781  0.8468  0.3529
   27CHL1   H2B 1973   3.398   1.245   5.310  0.4524  0.8350 -0.6757
   27CHL1   C20 1974   3.858   1.651   4.568  0.7501  0.0115 -0.7738
   27CHL1   H20 1975   3.785   1.611   4.494 -0.3733  1.3668 -0.4277
   27CHL1   C21 1976   3.961   1.545   4.606 -0.2329 -0.2644 -0.0703
   27CHL1  H21A 1977   4.057   1.564   4.554 -0.7090 -0.5747 -1.0900
   27CHL1  H21B 1978   3.912   1.446   4.591 -0.7263 -0.3511  1.8695
   27CHL1  H21C 1979   3.989   1.551   4.713  1.2455 -0.0517 -0.4531
   27CHL1   C22 1980   3.924   1.768   4.497  0.1781  0.8189  0.4971
   27CHL1  H22A 1981   3.866   1.863   4.498  0.4145  0.9696  1.7087
   27CHL1  H22B 1982   4.017   1.792   4.554  1.1251 -0.2158 -0.5597
   27CHL1   C23 1983   3.966   1.738   4.352 -0.4441  0.5162 -0.5380
   27CHL1  H23A 1984   4.013   1.640   4.334  0.1034  0.7222 -0.2412
   27CHL1  H23B 1985   3.866   1.728   4.304 -0.1116 -2.8921 -0.7688
   27CHL1   C24 1986   4.056   1.849   4.300 -0.4867 -0.1620  0.7919
   27CHL1  H24A 1987   4.155   1.835   4.349  0.2984 -1.4213 -1.0513
   27CHL1  H24B 1988   4.073   1.829   4.192  1.5460  1.2690  0.7946
   27CHL1   C25 1989   4.008   2.002   4.300 -0.1916  0.4314  0.7338
   27CHL1   H25 1990   3.956   2.028   4.395 -1.0267 -0.2652  0.4797
   27CHL1   C26 1991   4.126   2.091   4.287  0.6765  0.7237  0.3741
   27CHL1  H26A 1992   4.100   2.194   4.319  1.4802  0.0611  3.4955
   27CHL1  H26B 1993   4.211   2.057   4.349 -0.2712 -0.6102  1.0093
   27CHL1  H26C 1994   4.159   2.095   4.181  0.7771 -1.1903  0.2966
   27CHL1   C27 1995   3.911   2.027   4.185  0.3417  0.0482 -0.4243
   27CHL1  H27A 1996   3.965   2.022   4.088 -0.0841  0.2736 -0.6800
   27CHL1  H27B 1997   3.832   1.949   4.185 -1.4604  1.7705  0.3010
   27CHL1  H27C 1998   3.867   2.128   4.199  1.8335  0.7423 -0.5946
   28CHL1    C3 1999   0.329   6.378   6.044 -0.2588  0.0583 -0.0365
   28CHL1    H3 2000   0.386   6.298   5.993  1.4170 -0.6034  2.6434
   28CHL1    O3 2001   0.360   6.379   6.184  0.1879 -0.2442  0.3103
   28CHL1   H3' 2002   0.332   6.292   6.215  2.5478 -1.2516 -0.1328
   28CHL1    C4 2003   0.362   6.520   5.987 -0.7431  0.7322  0.6128
   28CHL1   H4A 2004   0.295   6.584   6.049 -0.3902  0.4571  1.2932
   28CHL1   H4B 2005   0.464   6.553   6.014 -1.1023  0.3701  2.6216
   28CHL1    C5 2006   0.332   6.534   5.839 -0.3149 -0.7162  0.1915
   28CHL1    C6 2007   0.424   6.562   5.747  0.2105 -0.3591 -0.3134
   28CHL1    H6 2008   0.529   6.575   5.776  0.4514 -1.7497 -0.4811
   28CHL1    C7 2009   0.391   6.574   5.603 -0.7508  0.2793 -0.0161
   28CHL1   H7A 2010   0.431   6.669   5.562 -1.0071  1.2287  1.7957
   28CHL1   H7B 2011   0.431   6.491   5.540  2.0672  0.6171  1.1668
   28CHL1    C8 2012   0.243   6.581   5.574  0.1549  0.6896 -0.6641
   28CHL1    H8 2013   0.211   6.682   5.606 -0.3955  0.6865 -1.1808
   28CHL1   C14 2014   0.220   6.562   5.426  0.3869  0.1490 -0.8835
   28CHL1   H14 2015   0.249   6.456   5.409 -0.9208 -0.3409 -0.1834
   28CHL1   C15 2016   0.294   6.650   5.325 -0.4971 -0.4760 -0.5287
   28CHL1  H15A 2017   0.308   6.753   5.364 -1.4476 -0.7141  0.4814
   28CHL1  H15B 2018   0.399   6.618   5.313 -0.3878  0.3685 -2.1613
   28CHL1   C16 2019   0.212   6.651   5.200  0.8344 -0.3583  0.3265
   28CHL1  H16A 2020   0.181   6.754   5.174 -1.0732 -1.3324 -1.5539
   28CHL1  H16B 2021   0.279   6.621   5.117  1.3719  1.9480 -0.1276
   28CHL1   C17 2022   0.089   6.561   5.231 -0.8801 -0.8979  0.9496
   28CHL1   H17 2023   0.124   6.457   5.215 -1.2698 -0.6856 -1.7840
   28CHL1   C13 2024   0.075   6.564   5.382  0.1484 -0.3091  0.1124
   28CHL1   C18 2025   0.013   6.701   5.422 -0.2205 -0.2459 -0.1650
   28CHL1  H18A 2026   0.065   6.783   5.367  1.8772 -1.1138  0.4448
   28CHL1  H18B 2027  -0.097   6.702   5.402 -0.1009 -1.4095 -1.0052
   28CHL1  H18C 2028   0.033   6.720   5.529  1.9807 -0.0129 -0.5747
   28CHL1   C12 2029  -0.005   6.446   5.442  0.2060  0.0582 -0.4177
   28CHL1  H12A 2030  -0.114   6.444   5.417  0.1794  0.4503 -0.3430
   28CHL1  H12B 2031   0.043   6.354   5.404  0.3858  0.5071 -1.3222
   28CHL1   C11 2032   0.010   6.462   5.599  0.4334 -0.3432 -0.0822
   28CHL1  H11A 2033  -0.058   6.547   5.622  0.0342 -0.9053  0.9016
   28CHL1  H11B 2034  -0.044   6.386   5.659 -1.6301  0.7249 -0.5108
   28CHL1    C9 2035   0.160   6.474   5.647  0.0559  0.0081 -0.4295
   28CHL1    H9 2036   0.206   6.377   5.619  1.0921  0.7783 -1.5111
   28CHL1   C10 2037   0.189   6.491   5.801  0.4737  0.4427  0.2073
   28CHL1   C19 2038   0.084   6.595   5.850  0.8543 -0.1435 -0.3336
   28CHL1  H19A 2039  -0.020   6.558   5.860  0.7274  0.3005  0.0461
   28CHL1  H19B 2040   0.121   6.634   5.947 -0.2622 -2.9512  1.3455
   28CHL1  H19C 2041   0.086   6.674   5.773  2.2724  0.1886  0.0214
   28CHL1    C1 2042   0.144   6.363   5.874 -0.3000 -0.3737 -0.7101
   28CHL1   H1A 2043   0.034   6.346   5.863 -0.7002  0.5884  1.3024
   28CHL1   H1B 2044   0.202   6.287   5.819  1.5231  2.1644 -2.5374
   28CHL1    C2 2045   0.177   6.358   6.021  0.6624  0.0040  0.2694
   28CHL1   H2A 2046   0.137   6.261   6.058 -0.2615  0.2825  0.0216
   28CHL1   H2B 2047   0.114   6.433   6.073  0.3109 -0.2296  0.1858
   28CHL1   C20 2048  -0.033   6.607   5.143 -0.1833  0.0958  0.1454
   28CHL1   H20 2049  -0.060   6.713   5.161  2.8223  0.8794  0.7040
   28CHL1   C21 2050  -0.154   6.512   5.161 -0.4058 -0.8184  0.2550
   28CHL1  H21A 2051  -0.231   6.535   5.085  0.2679 -1.4200 -0.6256
   28CHL1  H21B 2052  -0.207   6.532   5.257  1.5911  0.5960  1.1305
   28CHL1  H21C 2053  -0.123   6.406   5.177  0.2310 -0.8935 -1.3275
   28CHL1   C22 2054   0.014   6.608   4.997 -0.0466 -0.2147  0.3115
   28CHL1  H22A 2055   0.099   6.677   4.980  0.5056 -1.0634 -0.4720
   28CHL1  H22B 2056   0.066   6.516   4.963  0.7743  0.7155 -1.0854
   28CHL1   C23 2057  -0.085   6.643   4.886 -0.2330 -0.1155 -0.6559
   28CHL1  H23A 2058  -0.173   6.578   4.907  1.1089 -1.6355  0.5033
   28CHL1  H23B 2059  -0.115   6.748   4.907 -0.6872 -0.2073 -0.8291
   28CHL1   C24 2060  -0.041   6.615   4.744 -0.2379  0.0729 -0.7085
   28CHL1  H24A 2061   0.049   6.674   4.715 -1.2338  2.2787  0.4748
   28CHL1  H24B 2062  -0.017   6.506   4.744 -0.9787 -0.0923 -1.4049
   28CHL1   C25 2063  -0.145   6.638   4.627 -0.6719  0.5859 -0.4106
   28CHL1   H25 2064  -0.152   6.749   4.618 -0.9792  0.4139 -3.0950
   28CHL1   C26 2065  -0.103   6.585   4.492 -0.2135  0.2588  0.8031
   28CHL1  H26A 2066   0.005   6.608   4.484 -0.1923  0.2681  1.1229
   28CHL1  H26B 2067  -0.103   6.474   4.496  2.9539  0.1799  0.8055
   28CHL1  H26C 2068  -0.160   6.610   4.400  1.2259 -0.9472 -0.4664
   28CHL1   C27 2069  -0.282   6.588   4.670  0.2473  0.2913 -0.0687
   28CHL1  H27A 2070  -0.357   6.593   4.588 -0.6821  0.8022  0.8069
   28CHL1  H27B 2071  -0.272   6.483   4.704  0.1757  0.4332  0.3967
   28CHL1  H27C 2072  -0.314   6.641   4.762  1.2518  1.6170 -0.4444
   29CHL1    C3 2073   2.502   4.329   2.721  0.4951 -0.4823 -0.9313
   29CHL1    H3 2074   2.596   4.284   2.756  0.8959  0.7369 -0.3678
   29CHL1    O3 2075   2.485   4.299   2.586  0.1955 -0.1421  0.0954
   29CHL1   H3' 2076   2.401   4.340   2.568  1.1690  2.4910  1.0837
   29CHL1    C4 2077   2.383   4.264   2.799 -0.3609 -0.6254 -0.2617
   29CHL1   H4A 2078   2.287   4.290   2.751 -3.1827 -2.1032  4.0084
   29CHL1   H4B 2079   2.393   4.153   2.798  1.5745 -0.6614  3.4235
   29CHL1    C5 2080   2.392   4.306   2.947  0.5402 -0.3395 -0.0725
   29CHL1    C6 2081   2.407   4.221   3.053  0.4619 -0.5777 -0.0632
   29CHL1    H6 2082   2.409   4.114   3.029 -0.9842 -0.6619  0.1073
   29CHL1    C7 2083   2.395   4.258   3.199 -0.3296  0.0273 -0.1811
   29CHL1   H7A 2084   2.320   4.192   3.246 -0.2456  0.9781  1.3577
   29CHL1   H7B 2085   2.492   4.247   3.253 -1.4389  1.2954  2.2474
   29CHL1    C8 2086   2.356   4.400   3.230 -0.1571 -0.3835 -0.3686
   29CHL1    H8 2087   2.245   4.397   3.227 -0.2074  0.0115  0.7703
   29CHL1   C14 2088   2.387   4.449   3.372 -0.1103 -0.0570  0.2313
   29CHL1   H14 2089   2.498   4.458   3.375 -0.0038 -1.3773  1.3578
   29CHL1   C15 2090   2.343   4.366   3.493  0.3502 -0.1994 -0.2332
   29CHL1  H15A 2091   2.239   4.335   3.470  1.1315 -1.5375 -2.1908
   29CHL1  H15B 2092   2.408   4.277   3.505 -0.3298 -0.5704  0.7722
   29CHL1   C16 2093   2.362   4.458   3.617  0.1986  0.3200  1.4052
   29CHL1  H16A 2094   2.270   4.455   3.679  0.3253  0.8098  1.6201
   29CHL1  H16B 2095   2.444   4.426   3.684  0.4958  1.9639  1.8833
   29CHL1   C17 2096   2.383   4.599   3.565  0.0396 -0.1770  0.0004
   29CHL1   H17 2097   2.493   4.616   3.556  0.3180 -1.1165  1.3531
   29CHL1   C13 2098   2.338   4.587   3.411  0.2922  0.6516 -0.5278
   29CHL1   C18 2099   2.182   4.584   3.397 -0.1626  0.3155 -1.0339
   29CHL1  H18A 2100   2.152   4.688   3.420 -0.2699 -0.4138  2.8131
   29CHL1  H18B 2101   2.144   4.559   3.296 -1.3845 -0.0071 -0.5102
   29CHL1  H18C 2102   2.130   4.512   3.464 -0.6394  1.1635 -0.4828
   29CHL1   C12 2103   2.403   4.678   3.310  0.6074 -0.0813 -0.3510
   29CHL1  H12A 2104   2.365   4.779   3.338 -0.0640  0.1031 -1.8179
   29CHL1  H12B 2105   2.513   4.669   3.324  0.3702 -1.4371  0.9160
   29CHL1   C11 2106   2.367   4.646   3.160  0.6698  0.0129 -0.1799
   29CHL1  H11A 2107   2.265   4.685   3.142 -0.4432 -1.4330  2.5611
   29CHL1  H11B 2108   2.428   4.710   3.093  1.8435 -2.5669 -1.7273
   29CHL1    C9 2109   2.407   4.498   3.116  0.1102 -0.0997  0.2421
   29CHL1    H9 2110   2.515   4.503   3.143 -0.0489  2.0169  0.7012
   29CHL1   C10 2111   2.388   4.458   2.970 -0.0716 -0.4206  0.4263
   29CHL1   C19 2112   2.249   4.508   2.920 -0.5764 -0.3257  0.6338
   29CHL1  H19A 2113   2.221   4.467   2.821  1.2626 -1.9877  0.7501
   29CHL1  H19B 2114   2.178   4.484   3.002  2.2037  0.9731  3.6559
   29CHL1  H19C 2115   2.257   4.619   2.913  1.7602 -0.5337 -1.0504
   29CHL1    C1 2116   2.499   4.516   2.888 -0.0867 -0.4186  0.7853
   29CHL1   H1A 2117   2.507   4.626   2.900  3.6961 -0.3454 -0.7312
   29CHL1   H1B 2118   2.597   4.480   2.925 -0.3644 -2.4977 -0.3504
   29CHL1    C2 2119   2.504   4.482   2.740  0.4177  0.3385  1.0057
   29CHL1   H2A 2120   2.601   4.520   2.700  0.1095 -0.0195 -0.0838
   29CHL1   H2B 2121   2.421   4.532   2.686  0.7771 -1.8739 -1.8034
   29CHL1   C20 2122   2.331   4.706   3.656  0.2178  0.0218 -0.6579
   29CHL1   H20 2123   2.221   4.690   3.657  0.2244 -0.2828  2.2540
   29CHL1   C21 2124   2.364   4.858   3.618 -0.2410  0.4367 -0.2369
   29CHL1  H21A 2125   2.344   4.878   3.511  0.5328  1.5719 -0.1781
   29CHL1  H21B 2126   2.474   4.874   3.621  0.1242 -1.7611 -0.0061
   29CHL1  H21C 2127   2.303   4.930   3.677 -1.0211 -0.2372 -0.1853
   29CHL1   C22 2128   2.377   4.694   3.811 -0.6918  0.2304 -0.3153
   29CHL1  H22A 2129   2.380   4.586   3.838 -0.2195  0.3639  0.1742
   29CHL1  H22B 2130   2.476   4.744   3.819 -0.2034 -0.9785  2.2536
   29CHL1   C23 2131   2.284   4.747   3.911  0.6671 -0.6175  0.0661
   29CHL1  H23A 2132   2.259   4.852   3.885 -0.4526 -0.9253 -0.1391
   29CHL1  H23B 2133   2.184   4.700   3.899  2.1885 -3.4987 -2.4637
   29CHL1   C24 2134   2.331   4.749   4.054  0.1979 -0.0982  1.2216
   29CHL1  H24A 2135   2.365   4.645   4.076  0.8655 -0.2163 -0.2475
   29CHL1  H24B 2136   2.416   4.818   4.071  0.2670  0.2435 -0.3322
   29CHL1   C25 2137   2.233   4.780   4.164  0.6075  0.0892  0.0080
   29CHL1   H25 2138   2.165   4.693   4.173 -0.3629  0.8991  0.8413
   29CHL1   C26 2139   2.313   4.798   4.299 -0.1534 -0.0226 -0.0729
   29CHL1  H26A 2140   2.385   4.881   4.278  1.0829 -1.0191  0.1474
   29CHL1  H26B 2141   2.233   4.829   4.369 -1.0682 -0.4965 -0.8868
   29CHL1  H26C 2142   2.368   4.706   4.327 -1.0537 -0.4386  0.3669
   29CHL1   C27 2143   2.148   4.906   4.143 -0.1070 -0.1319  0.3210
   29CHL1  H27A 2144   2.087   4.906   4.051  1.9259 -1.7180 -1.1068
   29CHL1  H27B 2145   2.085   4.925   4.233  0.3641  0.3426  0.5611
   29CHL1  H27C 2146   2.228   4.983   4.130  0.7928 -1.1336 -0.2801
   30CHL1    C3 2147   2.587   5.838   2.499 -0.5995  0.2812 -0.6429
   30CHL1    H3 2148   2.693   5.874   2.494 -0.4708 -0.1414 -4.3548
   30CHL1    O3 2149   2.551   5.810   2.366 -0.1108 -0.1035  0.4396
   30CHL1   H3' 2150   2.506   5.725   2.375 -0.0002 -0.1887  0.1907
   30CHL1    C4 2151   2.592   5.710   2.580 -0.0114 -0.2906 -0.1013
   30CHL1   H4A 2152   2.496   5.656   2.570  0.4487 -1.1063 -0.2321
   30CHL1   H4B 2153   2.667   5.639   2.539  0.5213  0.8055 -1.0806
   30CHL1    C5 2154   2.606   5.744   2.728  0.0841  0.1646  0.0402
   30CHL1    C6 2155   2.702   5.686   2.794 -0.4987  0.0850 -0.8969
   30CHL1    H6 2156   2.766   5.615   2.740 -1.3978 -0.9574 -0.6131
   30CHL1    C7 2157   2.727   5.707   2.944 -0.2467  0.4568  0.3527
   30CHL1   H7A 2158   2.744   5.614   3.003 -0.6526 -0.8780 -1.5298
   30CHL1   H7B 2159   2.811   5.779   2.953  1.1566 -1.0499 -0.0950
   30CHL1    C8 2160   2.603   5.775   3.011  0.0193 -0.5259 -0.0769
   30CHL1    H8 2161   2.523   5.698   3.013 -0.5251  0.0380 -0.1138
   30CHL1   C14 2162   2.632   5.813   3.162  0.5791 -0.3072 -0.0682
   30CHL1   H14 2163   2.727   5.872   3.157  1.2862 -1.5009 -1.4212
   30CHL1   C15 2164   2.663   5.699   3.252 -0.5784 -0.6675 -0.4646
   30CHL1  H15A 2165   2.595   5.616   3.223  1.1799 -1.6533 -1.9629
   30CHL1  H15B 2166   2.765   5.661   3.230 -1.2009 -1.8364 -1.4405
   30CHL1   C16 2167   2.637   5.754   3.393  0.1775 -0.3451 -0.0633
   30CHL1  H16A 2168   2.575   5.682   3.451 -0.4782  0.6246  0.4776
   30CHL1  H16B 2169   2.730   5.767   3.452 -1.4921  0.7708  2.5218
   30CHL1   C17 2170   2.567   5.893   3.370  0.2193  0.0839 -0.7857
   30CHL1   H17 2171   2.649   5.968   3.374  0.9139 -0.4654 -3.0969
   30CHL1   C13 2172   2.514   5.890   3.225  0.4249  0.0602 -0.8577
   30CHL1   C18 2173   2.385   5.811   3.218  0.0964  0.4348  0.2963
   30CHL1  H18A 2174   2.337   5.783   3.122 -0.9811 -1.3178  1.2988
   30CHL1  H18B 2175   2.388   5.722   3.284 -1.1849 -1.3352 -1.8684
   30CHL1  H18C 2176   2.317   5.874   3.278  0.2226  1.8604 -0.9961
   30CHL1   C12 2177   2.508   6.025   3.154 -0.2232 -0.3966 -0.3738
   30CHL1  H12A 2178   2.426   6.088   3.194 -0.1244  1.0874 -2.3581
   30CHL1  H12B 2179   2.604   6.080   3.166 -0.4331  0.0080 -0.5335
   30CHL1   C11 2180   2.468   6.004   3.009  0.8098 -0.5159  0.0431
   30CHL1  H11A 2181   2.363   5.967   3.003  0.1771  1.2664 -0.5517
   30CHL1  H11B 2182   2.462   6.105   2.964 -2.4898  0.6155  2.6321
   30CHL1    C9 2183   2.565   5.906   2.936 -0.2257  0.7996  0.0625
   30CHL1    H9 2184   2.668   5.947   2.934  1.1338 -2.2501  1.2367
   30CHL1   C10 2185   2.527   5.863   2.790  0.4224 -0.1629 -0.4330
   30CHL1   C19 2186   2.382   5.814   2.791  0.2849  0.6016  0.0662
   30CHL1  H19A 2187   2.316   5.904   2.794 -0.9381  0.0426 -4.0835
   30CHL1  H19B 2188   2.353   5.761   2.698 -3.8914  2.5585  0.0311
   30CHL1  H19C 2189   2.357   5.759   2.885 -0.7287  0.3140 -0.3519
   30CHL1    C1 2190   2.555   5.982   2.705  0.3158  0.3698  0.0727
   30CHL1   H1A 2191   2.504   6.070   2.749  0.1627 -0.6191  1.9844
   30CHL1   H1B 2192   2.658   6.022   2.699  0.4938 -0.2042 -1.1015
   30CHL1    C2 2193   2.508   5.956   2.555 -0.1196  0.0741  0.0665
   30CHL1   H2A 2194   2.533   6.049   2.499 -0.4028  0.0391 -0.1217
   30CHL1   H2B 2195   2.398   5.939   2.561  0.1081 -1.0660  1.7703
   30CHL1   C20 2196   2.461   5.933   3.481  0.2698 -0.1963  0.3023
   30CHL1   H20 2197   2.382   5.857   3.471  1.0170 -0.9033 -0.3893
   30CHL1   C21 2198   2.402   6.077   3.473 -0.3241  0.5413  0.5436
   30CHL1  H21A 2199   2.484   6.152   3.481  1.1268 -1.1366  2.3451
   30CHL1  H21B 2200   2.330   6.092   3.556  0.7297 -2.3090  2.0794
   30CHL1  H21C 2201   2.345   6.088   3.378  0.4034 -1.5976 -0.2022
   30CHL1   C22 2202   2.520   5.900   3.624 -0.2583 -0.7049  0.8837
   30CHL1  H22A 2203   2.566   5.799   3.620 -1.4752 -1.2675  0.5518
   30CHL1  H22B 2204   2.592   5.979   3.655 -1.2570  1.0130 -0.9196
   30CHL1   C23 2205   2.414   5.902   3.728  0.6740 -0.1162 -0.0529
   30CHL1  H23A 2206   2.403   6.004   3.772 -1.2001 -0.8699  1.3638
   30CHL1  H23B 2207   2.310   5.885   3.694  0.3745  0.0422  0.7547
   30CHL1   C24 2208   2.447   5.812   3.845 -0.2807  0.3012 -0.0394
   30CHL1  H24A 2209   2.446   5.708   3.804 -0.8363  0.7158 -1.1165
   30CHL1  H24B 2210   2.542   5.839   3.895 -0.7824  1.2253  0.4338
   30CHL1   C25 2211   2.341   5.817   3.963  0.9161  0.0566 -0.5145
   30CHL1   H25 2212   2.235   5.805   3.931 -0.3628  2.2141  2.3931
   30CHL1   C26 2213   2.377   5.696   4.056  0.0589  0.0539  0.1746
   30CHL1  H26A 2214   2.316   5.704   4.148  2.7409 -0.9682  2.1809
   30CHL1  H26B 2215   2.343   5.608   3.996 -2.2638  0.0736  1.3738
   30CHL1  H26C 2216   2.485   5.693   4.084 -0.7083 -1.3672  3.3639
   30CHL1   C27 2217   2.335   5.951   4.034  0.5494 -0.7142  0.0852
   30CHL1  H27A 2218   2.275   6.016   3.967 -1.4563 -1.8858  0.6653
   30CHL1  H27B 2219   2.287   5.950   4.134  0.2947  0.4583 -0.0113
   30CHL1  H27C 2220   2.436   5.997   4.039  0.8701 -1.2858 -0.8369
   31CHL1    C3 2221   3.456   5.155   2.547  0.0032  0.7529 -0.2538
   31CHL1    H3 2222   3.352   5.187   2.525 -0.8370 -1.1558  0.6259
   31CHL1    O3 2223   3.528   5.171   2.424  0.3726 -0.0985 -0.1478
   31CHL1   H3' 2224   3.483   5.112   2.363  1.0426  0.3347 -1.0829
   31CHL1    C4 2225   3.516   5.243   2.660  0.3060  0.0784  0.0580
   31CHL1   H4A 2226   3.624   5.220   2.675  1.0744  2.0624 -1.8188
   31CHL1   H4B 2227   3.497   5.349   2.636 -0.1375 -0.0633 -0.2364
   31CHL1    C5 2228   3.454   5.203   2.797  0.1761 -0.1171  1.1792
   31CHL1    C6 2229   3.406   5.298   2.874  0.0200  0.0853 -0.1905
   31CHL1    H6 2230   3.406   5.406   2.851  0.4990 -0.1394 -1.2988
   31CHL1    C7 2231   3.363   5.278   3.015 -0.3514  1.0527 -0.2869
   31CHL1   H7A 2232   3.414   5.339   3.092  0.3040 -0.8200  0.8303
   31CHL1   H7B 2233   3.254   5.293   3.032 -0.9974 -3.6984  1.4886
   31CHL1    C8 2234   3.399   5.131   3.065 -0.8092  0.0557 -0.5215
   31CHL1    H8 2235   3.508   5.130   3.087 -1.1751  0.1160  1.4820
   31CHL1   C14 2236   3.330   5.096   3.199  0.2640 -0.4298  0.1353
   31CHL1   H14 2237   3.220   5.095   3.182  0.5479 -0.5546 -1.9525
   31CHL1   C15 2238   3.345   5.196   3.312  0.1569 -0.4166 -0.4346
   31CHL1  H15A 2239   3.451   5.228   3.322 -0.7369  2.4708  0.6962
   31CHL1  H15B 2240   3.284   5.287   3.296  1.8931  0.3160 -3.6279
   31CHL1   C16 2241   3.315   5.114   3.436  1.0099  0.1606 -0.1547
   31CHL1  H16A 2242   3.399   5.120   3.508 -0.9836  2.5231  2.1998
   31CHL1  H16B 2243   3.232   5.164   3.491  1.4937  1.2183 -0.3576
   31CHL1   C17 2244   3.275   4.968   3.389 -0.3788 -0.4393 -0.2522
   31CHL1   H17 2245   3.166   4.970   3.373 -0.6270 -1.3194  1.1473
   31CHL1   C13 2246   3.357   4.955   3.259 -0.6085 -0.7841  0.1597
   31CHL1   C18 2247   3.507   4.939   3.299 -0.1838 -0.1761  0.5022
   31CHL1  H18A 2248   3.524   4.833   3.328 -0.3886 -0.3012  0.1722
   31CHL1  H18B 2249   3.579   4.961   3.217 -0.0665 -1.0493  0.3573
   31CHL1  H18C 2250   3.529   4.999   3.390 -0.2747 -0.8241  0.9603
   31CHL1   C12 2251   3.311   4.855   3.147 -0.0650  0.5809 -0.8415
   31CHL1  H12A 2252   3.350   4.765   3.197  1.7842  0.2163 -2.7778
   31CHL1  H12B 2253   3.201   4.852   3.135  0.0464  0.6963 -2.0751
   31CHL1   C11 2254   3.391   4.880   3.020 -0.3663 -0.9261 -0.4084
   31CHL1  H11A 2255   3.498   4.873   3.051  0.7595  0.9024 -3.4343
   31CHL1  H11B 2256   3.371   4.807   2.938  0.3845 -1.3752 -0.1969
   31CHL1    C9 2257   3.366   5.026   2.958  0.2254  0.1794 -0.4643
   31CHL1    H9 2258   3.256   5.030   2.941 -0.0877 -0.7595  1.1502
   31CHL1   C10 2259   3.452   5.051   2.835  0.6226  0.5717  0.3082
   31CHL1   C19 2260   3.596   5.002   2.848  0.0635 -0.0363  0.6510
   31CHL1  H19A 2261   3.601   4.891   2.854  0.6053 -0.0125  0.7716
   31CHL1  H19B 2262   3.665   5.034   2.767 -3.2616  1.0119 -1.9653
   31CHL1  H19C 2263   3.642   5.029   2.945  0.1328 -0.7106  0.8138
   31CHL1    C1 2264   3.390   4.966   2.718  0.4530  0.5547  0.0418
   31CHL1   H1A 2265   3.397   4.856   2.734 -1.5093  0.4178  0.1936
   31CHL1   H1B 2266   3.284   4.999   2.719  0.4689  0.6211  1.1915
   31CHL1    C2 2267   3.451   5.001   2.584 -0.1261 -0.9602  0.9486
   31CHL1   H2A 2268   3.394   4.956   2.500 -0.0960  1.0728 -0.2172
   31CHL1   H2B 2269   3.557   4.970   2.572  0.2398  0.8277 -0.7953
   31CHL1   C20 2270   3.294   4.863   3.500  0.0480  0.3836  0.2716
   31CHL1   H20 2271   3.394   4.880   3.546 -0.7055 -1.6984  2.9643
   31CHL1   C21 2272   3.273   4.718   3.451 -0.8738  0.1805  0.1259
   31CHL1  H21A 2273   3.264   4.646   3.535 -1.1990 -0.2884 -0.3013
   31CHL1  H21B 2274   3.370   4.685   3.408 -1.2194 -1.1293  0.3251
   31CHL1  H21C 2275   3.178   4.702   3.396 -1.6143 -1.3446  1.7401
   31CHL1   C22 2276   3.196   4.894   3.621 -0.6160  0.3467 -0.5366
   31CHL1  H22A 2277   3.212   4.998   3.656 -1.5666  0.5260 -0.6064
   31CHL1  H22B 2278   3.092   4.895   3.582 -1.0273 -0.5456  0.4911
   31CHL1   C23 2279   3.214   4.803   3.749 -0.9906 -0.7001  0.2338
   31CHL1  H23A 2280   3.170   4.703   3.730  1.9457 -2.2181  0.8363
   31CHL1  H23B 2281   3.325   4.797   3.758 -1.0233 -1.1797  0.3359
   31CHL1   C24 2282   3.156   4.864   3.876 -0.3179 -0.3754 -0.1279
   31CHL1  H24A 2283   3.220   4.947   3.911 -2.6528  1.1357  0.7318
   31CHL1  H24B 2284   3.052   4.901   3.861  0.0211  0.3877 -0.6538
   31CHL1   C25 2285   3.160   4.767   3.994 -0.5251 -0.1770 -0.6570
   31CHL1   H25 2286   3.092   4.686   3.960  1.9363 -0.9276 -4.2655
   31CHL1   C26 2287   3.304   4.711   4.011  0.7789  0.3887 -0.0554
   31CHL1  H26A 2288   3.326   4.632   3.936 -0.5443 -0.9107  0.8698
   31CHL1  H26B 2289   3.378   4.793   3.999 -1.0749  2.2213  0.4981
   31CHL1  H26C 2290   3.319   4.665   4.111  1.2756  1.5746  0.4460
   31CHL1   C27 2291   3.110   4.843   4.118  0.3128 -0.0327 -0.2384
   31CHL1  H27A 2292   3.013   4.898   4.114  0.3998  0.2704  1.3627
   31CHL1  H27B 2293   3.102   4.783   4.211 -2.9667  1.1600  0.4028
   31CHL1  H27C 2294   3.195   4.914   4.130  0.2282 -0.1879  1.4787
   32CHL1    C3 2295   0.394   5.048   2.720  0.3231 -0.3563  0.1144
   32CHL1    H3 2296   0.486   5.007   2.767  0.5818  1.7291  1.5889
   32CHL1    O3 2297   0.395   5.049   2.581  0.0708 -0.1278  0.3869
   32CHL1   H3' 2298   0.303   5.032   2.559  0.3239 -2.1183  0.7289
   32CHL1    C4 2299   0.265   4.989   2.771 -0.3432  0.1550 -0.3574
   32CHL1   H4A 2300   0.182   5.043   2.721  0.7670  0.9786 -1.3691
   32CHL1   H4B 2301   0.252   4.884   2.738  0.6943 -0.3122  0.6585
   32CHL1    C5 2302   0.275   4.998   2.926  0.7097 -0.2433 -0.4119
   32CHL1    C6 2303   0.285   4.896   3.001  0.3219 -0.1481  0.1368
   32CHL1    H6 2304   0.279   4.794   2.960  2.0191 -0.2871  0.1331
   32CHL1    C7 2305   0.294   4.900   3.150  0.4079 -0.3749 -0.5427
   32CHL1   H7A 2306   0.227   4.823   3.195 -2.4457  1.4834 -1.3311
   32CHL1   H7B 2307   0.401   4.895   3.179  1.3215  0.3308 -3.4388
   32CHL1    C8 2308   0.233   5.029   3.212 -0.3159 -1.0483 -0.4874
   32CHL1    H8 2309   0.126   5.040   3.186  0.0163  1.0115 -1.1400
   32CHL1   C14 2310   0.268   5.035   3.359  0.0782  0.0075 -0.1923
   32CHL1   H14 2311   0.379   5.043   3.355  0.1455 -1.1686 -1.7782
   32CHL1   C15 2312   0.235   4.906   3.448  0.7726  1.0209  0.3435
   32CHL1  H15A 2313   0.128   4.879   3.436  0.8470  0.2999  1.2291
   32CHL1  H15B 2314   0.303   4.821   3.426 -1.9175 -1.5539  1.2020
   32CHL1   C16 2315   0.252   4.961   3.585 -0.2832  0.0013 -0.3498
   32CHL1  H16A 2316   0.157   4.952   3.642  0.2681  1.9826  0.9737
   32CHL1  H16B 2317   0.323   4.909   3.653 -0.2012  1.5164  0.7798
   32CHL1   C17 2318   0.267   5.120   3.575  0.0349  1.1058 -0.2059
   32CHL1   H17 2319   0.377   5.138   3.570  0.2598 -0.0638  0.1598
   32CHL1   C13 2320   0.215   5.154   3.436 -0.2953  0.4558  0.1538
   32CHL1   C18 2321   0.061   5.164   3.441 -0.2874  0.4712  0.1542
   32CHL1  H18A 2322   0.020   5.258   3.485 -0.7957 -0.2484  1.2540
   32CHL1  H18B 2323   0.016   5.155   3.340  1.9043 -0.1986 -0.8308
   32CHL1  H18C 2324   0.017   5.084   3.505 -1.1718 -0.9604 -2.1344
   32CHL1   C12 2325   0.282   5.271   3.367 -0.3969  0.8491  0.7534
   32CHL1  H12A 2326   0.246   5.363   3.417 -2.1659 -0.9978  3.1584
   32CHL1  H12B 2327   0.390   5.274   3.389 -0.0651 -0.5296 -0.5266
   32CHL1   C11 2328   0.267   5.275   3.216 -0.2745 -0.2154  0.4457
   32CHL1  H11A 2329   0.157   5.287   3.203 -0.3018 -0.3817  0.5117
   32CHL1  H11B 2330   0.323   5.359   3.170  0.4792 -0.1484  1.4630
   32CHL1    C9 2331   0.306   5.144   3.142  0.0779  0.5602 -0.1487
   32CHL1    H9 2332   0.414   5.132   3.167  0.1298 -1.8747 -1.3187
   32CHL1   C10 2333   0.282   5.143   2.995  0.1130  0.5504  0.8902
   32CHL1   C19 2334   0.140   5.203   2.974 -0.3899 -0.1830 -0.4211
   32CHL1  H19A 2335   0.099   5.197   2.871 -0.7514  0.2533 -0.3052
   32CHL1  H19B 2336   0.064   5.148   3.033 -1.3260  0.2096 -1.2297
   32CHL1  H19C 2337   0.133   5.312   2.997  0.5220 -0.1465 -0.2951
   32CHL1    C1 2338   0.395   5.213   2.911 -0.1582 -0.1346  0.5262
   32CHL1   H1A 2339   0.389   5.318   2.948  0.1611  0.2331 -0.4287
   32CHL1   H1B 2340   0.494   5.176   2.943 -0.5991 -0.1784  1.8737
   32CHL1    C2 2341   0.383   5.193   2.757 -0.2184  0.1067 -0.2712
   32CHL1   H2A 2342   0.467   5.257   2.722 -0.3877  0.2983 -0.3310
   32CHL1   H2B 2343   0.283   5.234   2.730 -0.7557  0.3826  1.9201
   32CHL1   C20 2344   0.214   5.192   3.696 -0.8246 -0.7091 -0.2744
   32CHL1   H20 2345   0.108   5.164   3.713 -0.6125 -1.3499 -0.0188
   32CHL1   C21 2346   0.213   5.346   3.682 -0.0249 -0.3408  0.0840
   32CHL1  H21A 2347   0.319   5.379   3.679  0.5133 -1.7815  1.4044
   32CHL1  H21B 2348   0.186   5.406   3.772  2.6252 -0.9046  1.3638
   32CHL1  H21C 2349   0.141   5.380   3.604  0.3069  1.1058  0.3710
   32CHL1   C22 2350   0.301   5.155   3.827 -0.3429 -0.0937 -0.7397
   32CHL1  H22A 2351   0.309   5.045   3.841 -0.3200  0.1308  1.3530
   32CHL1  H22B 2352   0.399   5.203   3.808  0.5759 -1.2255  0.9154
   32CHL1   C23 2353   0.249   5.213   3.961  0.0488 -0.1404 -0.9888
   32CHL1  H23A 2354   0.280   5.320   3.961  1.2954 -0.4861 -1.3820
   32CHL1  H23B 2355   0.139   5.202   3.959  0.0946 -0.5857 -1.0136
   32CHL1   C24 2356   0.311   5.137   4.076  0.5927 -0.0363  0.1534
   32CHL1  H24A 2357   0.272   5.033   4.079 -0.9918  0.5411  0.7309
   32CHL1  H24B 2358   0.420   5.117   4.066  1.1655  1.9680  1.6767
   32CHL1   C25 2359   0.306   5.210   4.213  0.5027  0.6039  0.0520
   32CHL1   H25 2360   0.351   5.309   4.188  2.0374 -0.6948 -2.8343
   32CHL1   C26 2361   0.167   5.246   4.264  0.3512 -0.7108  0.5387
   32CHL1  H26A 2362   0.120   5.310   4.187  2.7764 -1.0614 -1.3474
   32CHL1  H26B 2363   0.097   5.160   4.273 -0.6786 -0.0049 -0.4590
   32CHL1  H26C 2364   0.170   5.300   4.362  1.0181  0.1745  0.0451
   32CHL1   C27 2365   0.381   5.133   4.320 -0.1093 -0.4466  0.4619
   32CHL1  H27A 2366   0.317   5.057   4.371 -0.3646 -0.1609  0.5737
   32CHL1  H27B 2367   0.466   5.073   4.281 -0.9152 -1.1985 -0.1751
   32CHL1  H27C 2368   0.410   5.207   4.397  0.2875  0.7392 -0.7965
   33CHL1    C3 2369   4.925   3.723   2.960  0.2144 -1.3443 -1.0414
   33CHL1    H3 2370   4.815   3.719   2.979  0.3820 -0.1267  0.3005
   33CHL1    O3 2371   4.933   3.682   2.830 -0.0569  0.6549  0.1904
   33CHL1   H3' 2372   4.863   3.727   2.782  0.1673 -0.2294 -1.0198
   33CHL1    C4 2373   4.962   3.868   2.972 -0.3988  0.9948 -0.0255
   33CHL1   H4A 2374   5.068   3.864   2.939 -0.3395  1.6192  0.0672
   33CHL1   H4B 2375   4.905   3.928   2.898 -1.5832  1.8246  1.4984
   33CHL1    C5 2376   4.971   3.912   3.121  0.3666  0.1294 -0.1863
   33CHL1    C6 2377   4.900   4.019   3.160  0.4823 -0.9743  0.3383
   33CHL1    H6 2378   4.838   4.078   3.090  0.8264  0.1051  0.9295
   33CHL1    C7 2379   4.895   4.090   3.295 -0.4593  0.1891 -0.1609
   33CHL1   H7A 2380   4.933   4.194   3.290  1.2988 -0.3855  0.3222
   33CHL1   H7B 2381   4.806   4.076   3.360 -1.8786  1.7321 -1.6866
   33CHL1    C8 2382   5.006   4.022   3.389  0.4221  0.7252 -0.0615
   33CHL1    H8 2383   5.102   4.076   3.377  0.3525  0.3985 -2.8492
   33CHL1   C14 2384   4.963   4.041   3.538  0.0509 -0.2742  0.6901
   33CHL1   H14 2385   4.873   3.976   3.545 -1.9496  1.9381 -1.8379
   33CHL1   C15 2386   4.919   4.186   3.582  0.4364 -0.0803  0.1758
   33CHL1  H15A 2387   4.992   4.257   3.537  0.4679 -0.2377 -0.0249
   33CHL1  H15B 2388   4.819   4.209   3.541 -0.3092  0.0644  1.9787
   33CHL1   C16 2389   4.932   4.176   3.730 -0.1870 -0.0090 -0.1224
   33CHL1  H16A 2390   5.001   4.250   3.777  1.6357 -1.6381 -0.1070
   33CHL1  H16B 2391   4.828   4.182   3.769 -0.2714  0.0747 -0.3602
   33CHL1   C17 2392   4.994   4.034   3.761 -0.0117 -0.0169  0.2625
   33CHL1   H17 2393   4.904   3.971   3.778  0.0260  0.3996  2.3065
   33CHL1   C13 2394   5.073   3.991   3.637  0.1474  1.1501  0.6883
   33CHL1   C18 2395   5.199   4.083   3.634 -0.6858 -0.1899  0.2999
   33CHL1  H18A 2396   5.167   4.189   3.632 -0.5125 -0.1446 -0.3621
   33CHL1  H18B 2397   5.267   4.079   3.722  2.1025  1.7715 -1.5637
   33CHL1  H18C 2398   5.254   4.058   3.540 -1.0977 -1.8093  0.4608
   33CHL1   C12 2399   5.099   3.843   3.617 -0.6655 -0.0025  0.5895
   33CHL1  H12A 2400   5.190   3.816   3.675  1.1238  1.3513 -1.4189
   33CHL1  H12B 2401   5.009   3.788   3.651 -0.6429  0.0398  0.7161
   33CHL1   C11 2402   5.128   3.819   3.466 -0.0466 -0.0224  0.7088
   33CHL1  H11A 2403   5.220   3.876   3.443 -0.8487  0.9158 -0.2924
   33CHL1  H11B 2404   5.148   3.710   3.459 -1.7743 -0.2951 -0.9296
   33CHL1    C9 2405   5.027   3.876   3.366 -1.1443 -0.0174  0.6622
   33CHL1    H9 2406   4.941   3.815   3.402  1.2612 -2.7821  2.1606
   33CHL1   C10 2407   5.059   3.833   3.215  0.1272  0.1679 -0.1614
   33CHL1   C19 2408   5.210   3.845   3.181  0.8081  0.8799  0.2469
   33CHL1  H19A 2409   5.237   3.953   3.187  1.3437  0.8803 -1.5440
   33CHL1  H19B 2410   5.268   3.788   3.257 -1.9737 -3.3613 -0.5297
   33CHL1  H19C 2411   5.232   3.803   3.081 -0.7277  0.9752 -0.1555
   33CHL1    C1 2412   5.016   3.685   3.200  0.3058  0.1482  0.6881
   33CHL1   H1A 2413   5.086   3.623   3.261 -0.7342 -1.2398  0.5005
   33CHL1   H1B 2414   4.914   3.680   3.243 -0.6092  1.2145 -1.1970
   33CHL1    C2 2415   5.008   3.637   3.058 -0.0742  0.0009  0.2211
   33CHL1   H2A 2416   4.986   3.529   3.044 -1.0795  0.0033  1.5835
   33CHL1   H2B 2417   5.115   3.644   3.028 -0.1941  2.7348  0.1422
   33CHL1   C20 2418   5.068   4.033   3.900  1.5191  0.2579  1.0770
   33CHL1   H20 2419   5.152   4.105   3.896 -0.3747  3.0824  5.0048
   33CHL1   C21 2420   5.132   3.899   3.932  0.0848  0.6419 -0.6062
   33CHL1  H21A 2421   5.068   3.814   3.901 -0.0258  0.3818  0.3122
   33CHL1  H21B 2422   5.155   3.894   4.040 -2.0576  0.5921 -0.1212
   33CHL1  H21C 2423   5.235   3.884   3.892  0.6053 -2.5057  1.5863
   33CHL1   C22 2424   4.960   4.071   4.008  0.0230  0.2178 -1.0572
   33CHL1  H22A 2425   4.902   4.160   3.976 -0.1805  0.4118 -0.1853
   33CHL1  H22B 2426   4.889   3.986   4.005 -1.0471  1.0382  0.0954
   33CHL1   C23 2427   5.012   4.082   4.155  0.0343  0.1789 -0.0290
   33CHL1  H23A 2428   5.024   3.984   4.205  0.7341  0.4440  0.3315
   33CHL1  H23B 2429   5.111   4.132   4.163 -0.4601  2.0011 -3.5259
   33CHL1   C24 2430   4.932   4.190   4.237  0.2130 -0.3585 -0.0242
   33CHL1  H24A 2431   4.987   4.196   4.333  0.7273 -0.9058 -0.2728
   33CHL1  H24B 2432   4.935   4.292   4.194 -0.9476  0.4594  1.7298
   33CHL1   C25 2433   4.786   4.168   4.269 -0.3771  0.3103  0.3939
   33CHL1   H25 2434   4.726   4.182   4.177 -0.4316  0.1411  0.4032
   33CHL1   C26 2435   4.774   4.024   4.329  0.5139 -0.2629  0.3907
   33CHL1  H26A 2436   4.830   4.014   4.424  1.2151 -0.4436 -0.0302
   33CHL1  H26B 2437   4.667   4.010   4.355  0.3178  3.1709  1.9539
   33CHL1  H26C 2438   4.819   3.944   4.266  0.5051 -0.3273  0.4670
   33CHL1   C27 2439   4.732   4.276   4.372 -0.7049  0.4814  0.5327
   33CHL1  H27A 2440   4.785   4.279   4.470 -0.2493  1.0124  0.2759
   33CHL1  H27B 2441   4.733   4.378   4.327  0.6261  0.8974  1.4317
   33CHL1  H27C 2442   4.637   4.240   4.418  1.3467 -1.9876  3.2514
   34CHL1    C3 2443   2.926   5.076   2.556 -0.2131  0.0097 -0.2609
   34CHL1    H3 2444   2.942   4.969   2.581 -1.0018 -0.1008 -0.1994
   34CHL1    O3 2445   2.934   5.120   2.423  0.2298 -0.1741 -0.1622
   34CHL1   H3' 2446   3.003   5.065   2.384  0.5564 -0.6286  1.0148
   34CHL1    C4 2447   2.786   5.116   2.607 -0.3974  0.2705  0.2347
   34CHL1   H4A 2448   2.761   5.224   2.592  0.2251  0.3787 -0.0809
   34CHL1   H4B 2449   2.704   5.061   2.556 -2.1817  0.6070  2.5523
   34CHL1    C5 2450   2.768   5.095   2.756 -0.1072 -0.0759  0.5590
   34CHL1    C6 2451   2.664   5.017   2.800  0.0975 -0.6066 -0.3371
   34CHL1    H6 2452   2.589   4.993   2.723 -0.0588  1.4726 -0.8958
   34CHL1    C7 2453   2.639   4.980   2.946 -0.4001  0.7851 -0.3020
   34CHL1   H7A 2454   2.535   4.950   2.973 -0.3128 -0.2353 -1.0137
   34CHL1   H7B 2455   2.690   4.881   2.950 -0.4804  0.7275 -0.6352
   34CHL1    C8 2456   2.711   5.089   3.030 -0.2082 -0.2621 -0.5777
   34CHL1    H8 2457   2.649   5.180   3.016 -0.1965  0.4060  2.9449
   34CHL1   C14 2458   2.708   5.062   3.186 -0.3211  0.2195  0.1248
   34CHL1   H14 2459   2.764   4.967   3.201  2.7996  1.6615 -1.6317
   34CHL1   C15 2460   2.572   5.031   3.249  0.3375 -0.0490 -0.3264
   34CHL1  H15A 2461   2.501   5.113   3.224  1.8676  0.8553 -1.9215
   34CHL1  H15B 2462   2.538   4.931   3.213 -0.2221 -0.5073  1.3548
   34CHL1   C16 2463   2.600   5.033   3.398 -0.5499  0.4454 -0.6180
   34CHL1  H16A 2464   2.517   5.079   3.456 -0.1829 -1.0557  1.2136
   34CHL1  H16B 2465   2.614   4.938   3.455  1.4143  1.0530 -0.0335
   34CHL1   C17 2466   2.743   5.105   3.418  1.1293  0.1458  0.1356
   34CHL1   H17 2467   2.805   5.014   3.422  0.1295 -0.5243  2.0835
   34CHL1   C13 2468   2.774   5.162   3.286  0.0123  0.1363 -0.2204
   34CHL1   C18 2469   2.700   5.299   3.269  0.3140 -0.3583  0.2021
   34CHL1  H18A 2470   2.766   5.388   3.278  0.6219 -0.4132 -1.2549
   34CHL1  H18B 2471   2.652   5.309   3.169  0.3330  1.1123  0.3138
   34CHL1  H18C 2472   2.619   5.305   3.344  0.6771  0.7652  0.5217
   34CHL1   C12 2473   2.922   5.159   3.241 -0.3892 -0.0561 -0.4700
   34CHL1  H12A 2474   2.991   5.225   3.297  1.8430  0.1590 -3.2157
   34CHL1  H12B 2475   2.969   5.059   3.253  2.5882  1.1557 -1.3176
   34CHL1   C11 2476   2.928   5.199   3.092 -0.1385  0.0387 -0.5568
   34CHL1  H11A 2477   2.883   5.300   3.089  0.7587  0.4202 -2.0276
   34CHL1  H11B 2478   3.035   5.209   3.063  1.1445 -2.7286  2.5591
   34CHL1    C9 2479   2.857   5.111   2.988 -0.8100  0.3088 -0.4575
   34CHL1    H9 2480   2.908   5.014   3.002  0.3126  0.8254 -0.8300
   34CHL1   C10 2481   2.873   5.165   2.844 -0.1454 -0.3106  0.1010
   34CHL1   C19 2482   2.860   5.317   2.842  0.9218 -0.0758 -0.3175
   34CHL1  H19A 2483   2.959   5.360   2.869  0.7907 -0.4945  0.9012
   34CHL1  H19B 2484   2.857   5.360   2.740  1.8442  0.3058 -0.1949
   34CHL1  H19C 2485   2.789   5.360   2.916  1.8323 -0.1853  0.6349
   34CHL1    C1 2486   3.017   5.129   2.793  0.7656  0.0750  0.0322
   34CHL1   H1A 2487   3.098   5.180   2.849  2.5231 -3.3200  0.8787
   34CHL1   H1B 2488   3.025   5.019   2.811 -0.0220  0.1468  0.8906
   34CHL1    C2 2489   3.033   5.150   2.644 -0.6482 -0.1849 -0.4852
   34CHL1   H2A 2490   3.135   5.122   2.610 -0.0675  1.1129  0.1380
   34CHL1   H2B 2491   3.024   5.259   2.628 -2.1711 -0.6193 -3.1491
   34CHL1   C20 2492   2.767   5.180   3.552  0.7433 -0.1325 -0.4537
   34CHL1   H20 2493   2.696   5.265   3.559  0.9665  0.3454 -3.1585
   34CHL1   C21 2494   2.906   5.239   3.552  0.3812  0.6247  0.4087
   34CHL1  H21A 2495   2.934   5.277   3.653  0.3858  2.3955 -0.2278
   34CHL1  H21B 2496   2.919   5.315   3.472  1.4114 -0.1367 -0.1736
   34CHL1  H21C 2497   2.981   5.161   3.526  0.9280  1.8787 -2.0613
   34CHL1   C22 2498   2.749   5.084   3.674 -0.2268  0.2183 -0.7389
   34CHL1  H22A 2499   2.659   5.022   3.656  1.8004 -2.4580 -2.7041
   34CHL1  H22B 2500   2.825   5.005   3.693 -1.9825 -0.8198  2.8866
   34CHL1   C23 2501   2.730   5.145   3.816 -0.6221  0.7436 -0.8273
   34CHL1  H23A 2502   2.811   5.219   3.835  0.7041 -0.6810 -0.6874
   34CHL1  H23B 2503   2.629   5.191   3.823 -1.3977 -0.9361 -0.3894
   34CHL1   C24 2504   2.735   5.042   3.941  0.4381  0.1330 -0.1421
   34CHL1  H24A 2505   2.669   4.961   3.905 -0.2019  0.2041  0.8397
   34CHL1  H24B 2506   2.838   5.002   3.949  0.4212  0.2957  1.0623
   34CHL1   C25 2507   2.677   5.105   4.073 -0.0189 -0.5586  0.8283
   34CHL1   H25 2508   2.751   5.183   4.100  1.9368 -2.1653  0.3263
   34CHL1   C26 2509   2.531   5.146   4.061 -0.2887  0.5061  0.1698
   34CHL1  H26A 2510   2.514   5.243   4.010 -0.5011 -0.4648 -1.7112
   34CHL1  H26B 2511   2.465   5.074   4.007 -0.2182 -0.4940  1.3847
   34CHL1  H26C 2512   2.487   5.149   4.163  0.2585 -1.1872  0.4938
   34CHL1   C27 2513   2.678   4.998   4.184  0.2245  0.7095 -1.0837
   34CHL1  H27A 2514   2.619   4.908   4.157 -0.4206  0.8225 -0.1081
   34CHL1  H27B 2515   2.780   4.957   4.197 -0.5891 -0.2705  6.2522
   34CHL1  H27C 2516   2.640   5.042   4.278  2.6089 -0.3532  0.4746
   35CHL1    C3 2517   0.847   1.180   2.969 -0.2858  0.2322 -0.5755
   35CHL1    H3 2518   0.853   1.289   2.986 -0.5002 -0.0926  1.8649
   35CHL1    O3 2519   0.879   1.142   2.834  0.0955  0.2688 -0.4140
   35CHL1   H3' 2520   0.869   1.047   2.842  2.9294  0.0666  2.6487
   35CHL1    C4 2521   0.948   1.098   3.062 -0.4163  0.1368 -0.0189
   35CHL1   H4A 2522   0.949   0.990   3.034 -0.0213  0.1310  0.0062
   35CHL1   H4B 2523   1.052   1.133   3.043  0.4742 -1.8650  0.8776
   35CHL1    C5 2524   0.910   1.102   3.206  0.9942 -0.0271  0.5965
   35CHL1    C6 2525   0.990   1.151   3.301 -0.3692  0.4513 -0.2496
   35CHL1    H6 2526   1.092   1.177   3.268  0.5430 -1.8121  0.5646
   35CHL1    C7 2527   0.962   1.186   3.445 -0.9411  0.9344 -0.1128
   35CHL1   H7A 2528   1.046   1.156   3.510 -0.9437  1.6159  0.2165
   35CHL1   H7B 2529   0.950   1.297   3.449  2.9489  1.4729  0.0569
   35CHL1    C8 2530   0.843   1.112   3.487  0.5264 -0.2073 -0.9190
   35CHL1    H8 2531   0.862   1.004   3.503 -0.4900 -0.4382 -1.2315
   35CHL1   C14 2532   0.802   1.180   3.621  0.7031  0.5263  0.3416
   35CHL1   H14 2533   0.755   1.277   3.596  0.2826  0.2934  0.2039
   35CHL1   C15 2534   0.907   1.188   3.730 -0.1537  0.3154 -0.4517
   35CHL1  H15A 2535   0.967   1.099   3.759  4.3348  3.2473  0.3018
   35CHL1  H15B 2536   0.984   1.268   3.716  0.2316 -0.1569 -1.0979
   35CHL1   C16 2537   0.816   1.203   3.853 -0.6406 -0.2023 -0.3424
   35CHL1  H16A 2538   0.840   1.128   3.931  0.5413  1.7319  1.2364
   35CHL1  H16B 2539   0.843   1.302   3.896  0.8039 -0.5616 -0.3966
   35CHL1   C17 2540   0.669   1.197   3.813  0.4815 -0.0767 -0.1302
   35CHL1   H17 2541   0.644   1.300   3.777  2.8442  0.0284 -1.6886
   35CHL1   C13 2542   0.676   1.114   3.680  0.7630 -0.5258 -0.4528
   35CHL1   C18 2543   0.690   0.970   3.722  0.3345  0.6450  0.1227
   35CHL1  H18A 2544   0.599   0.920   3.762 -0.2149  1.9636  0.5629
   35CHL1  H18B 2545   0.729   0.912   3.635  2.0922  0.6214  0.9009
   35CHL1  H18C 2546   0.767   0.945   3.798 -2.1131  0.2396  2.6135
   35CHL1   C12 2547   0.560   1.145   3.580 -0.1294  0.8681  0.2606
   35CHL1  H12A 2548   0.468   1.090   3.608  0.7419 -0.2851  0.9376
   35CHL1  H12B 2549   0.515   1.247   3.588 -0.4939  0.7341 -0.0477
   35CHL1   C11 2550   0.591   1.101   3.435 -0.0979  0.0858 -0.1683
   35CHL1  H11A 2551   0.570   0.993   3.444  0.8624 -0.0490  0.4959
   35CHL1  H11B 2552   0.517   1.155   3.372  1.5174  2.5450 -0.0782
   35CHL1    C9 2553   0.729   1.139   3.382 -0.0210  0.4945 -0.2199
   35CHL1    H9 2554   0.728   1.250   3.376  0.1164  0.4175 -2.1986
   35CHL1   C10 2555   0.759   1.081   3.242  0.8280 -0.1065  0.7165
   35CHL1   C19 2556   0.731   0.931   3.249 -0.1509  0.4077 -0.6657
   35CHL1  H19A 2557   0.624   0.900   3.258  0.5088 -1.7899  0.5315
   35CHL1  H19B 2558   0.768   0.882   3.157 -1.2643 -0.0804 -0.8716
   35CHL1  H19C 2559   0.773   0.879   3.338 -1.2358  4.6762  2.6956
   35CHL1    C1 2560   0.666   1.146   3.140 -0.3914 -0.5410 -0.6769
   35CHL1   H1A 2561   0.565   1.100   3.150 -1.1043  0.3370 -3.1913
   35CHL1   H1B 2562   0.652   1.255   3.148 -1.6357 -0.8139  4.3566
   35CHL1    C2 2563   0.705   1.125   2.992  0.3075  0.4133 -0.5564
   35CHL1   H2A 2564   0.640   1.183   2.923  0.7107  0.7099 -0.6924
   35CHL1   H2B 2565   0.697   1.018   2.962 -0.1794  0.2376  0.1795
   35CHL1   C20 2566   0.568   1.149   3.926 -0.2068  0.0301  0.0695
   35CHL1   H20 2567   0.596   1.049   3.967 -0.4136  0.3024  0.8712
   35CHL1   C21 2568   0.422   1.142   3.869  0.2729 -0.4847  0.2052
   35CHL1  H21A 2569   0.407   1.058   3.798  0.2660  0.5081 -0.9989
   35CHL1  H21B 2570   0.403   1.238   3.816 -1.0315  0.0154  1.4972
   35CHL1  H21C 2571   0.349   1.126   3.951 -0.4458 -1.5822 -0.6097
   35CHL1   C22 2572   0.573   1.231   4.054  0.1531  0.0413 -0.0768
   35CHL1  H22A 2573   0.522   1.161   4.124 -0.6390 -3.0615 -3.4479
   35CHL1  H22B 2574   0.675   1.242   4.097  0.5808 -0.4521 -0.9402
   35CHL1   C23 2575   0.481   1.358   4.052 -0.5883  0.6353 -0.4569
   35CHL1  H23A 2576   0.511   1.412   3.960  2.7268  1.2578  0.8785
   35CHL1  H23B 2577   0.372   1.337   4.046 -0.6498  1.0805 -0.9691
   35CHL1   C24 2578   0.503   1.458   4.169 -0.3302  0.5710 -0.2736
   35CHL1  H24A 2579   0.607   1.498   4.168  0.2067 -0.8074 -1.1403
   35CHL1  H24B 2580   0.434   1.545   4.165 -2.7829 -1.2175  0.9922
   35CHL1   C25 2581   0.497   1.393   4.313 -0.1916 -0.0755 -0.3292
   35CHL1   H25 2582   0.568   1.308   4.322 -0.7413 -0.6181 -0.9740
   35CHL1   C26 2583   0.528   1.502   4.419  0.7040 -0.1695  0.4216
   35CHL1  H26A 2584   0.636   1.528   4.426  0.4291  0.7429  1.5751
   35CHL1  H26B 2585   0.464   1.592   4.411  0.8720 -0.1069 -0.3415
   35CHL1  H26C 2586   0.505   1.458   4.519 -0.2111 -0.6808 -0.0030
   35CHL1   C27 2587   0.349   1.350   4.332  0.2789 -0.8089 -0.0703
   35CHL1  H27A 2588   0.322   1.260   4.273  0.0676 -1.2596  0.6997
   35CHL1  H27B 2589   0.321   1.327   4.437  1.3414 -1.0032  0.1872
   35CHL1  H27C 2590   0.287   1.429   4.287 -2.4238 -2.3733  0.6685
   36CHL1    C3 2591   3.551   6.831   2.694 -0.4868 -0.4610  1.0753
   36CHL1    H3 2592   3.521   6.743   2.754 -1.5820 -1.1822 -0.4779
   36CHL1    O3 2593   3.564   6.799   2.550 -0.5785  0.6352  0.0886
   36CHL1   H3' 2594   3.577   6.883   2.506 -0.3709  0.5986  0.0786
   36CHL1    C4 2595   3.445   6.940   2.712 -0.1227 -0.0629 -0.0077
   36CHL1   H4A 2596   3.488   7.035   2.673 -0.6769  0.8989  1.6335
   36CHL1   H4B 2597   3.356   6.902   2.658 -0.5256 -0.0099  0.6133
   36CHL1    C5 2598   3.416   6.971   2.854 -0.5580  0.2249  0.2208
   36CHL1    C6 2599   3.294   6.962   2.904 -0.4464  0.6708  0.6001
   36CHL1    H6 2600   3.218   6.932   2.831  1.4085  0.4739 -1.3491
   36CHL1    C7 2601   3.253   6.986   3.048 -0.2709 -1.1364 -0.3492
   36CHL1   H7A 2602   3.174   7.062   3.064  2.2138  0.9970  3.2247
   36CHL1   H7B 2603   3.215   6.888   3.087 -2.4595 -0.7254 -1.2751
   36CHL1    C8 2604   3.369   7.048   3.126  0.0120  0.1899 -0.7717
   36CHL1    H8 2605   3.375   7.157   3.106  3.2327  0.6633  1.8897
   36CHL1   C14 2606   3.338   7.022   3.273  0.0849  0.1851  0.4519
   36CHL1   H14 2607   3.347   6.911   3.273  0.7070  0.2137  1.7842
   36CHL1   C15 2608   3.196   7.059   3.329  0.1704  0.8625 -0.9434
   36CHL1  H15A 2609   3.152   7.158   3.306 -0.5588  1.1151  1.3336
   36CHL1  H15B 2610   3.133   6.980   3.283  2.6691 -1.0163 -1.4165
   36CHL1   C16 2611   3.222   7.049   3.480 -0.4548 -0.5215  0.0709
   36CHL1  H16A 2612   3.201   7.144   3.533 -0.7841 -0.1226 -0.7488
   36CHL1  H16B 2613   3.160   6.964   3.517 -0.6223  0.1721  1.4535
   36CHL1   C17 2614   3.376   7.020   3.488  0.5969  0.3961  0.0489
   36CHL1   H17 2615   3.379   6.909   3.486 -1.1900  0.2669  1.5031
   36CHL1   C13 2616   3.445   7.074   3.368  0.1148 -0.0544  0.2924
   36CHL1   C18 2617   3.442   7.228   3.363  0.4088 -0.0779 -1.0765
   36CHL1  H18A 2618   3.528   7.261   3.427 -0.3487 -1.4399  0.7253
   36CHL1  H18B 2619   3.468   7.270   3.263 -2.1794 -0.3417 -1.9115
   36CHL1  H18C 2620   3.346   7.264   3.406  0.0954 -2.4780  0.4067
   36CHL1   C12 2621   3.584   7.013   3.336  0.8760 -0.0367  0.1020
   36CHL1  H12A 2622   3.662   7.055   3.403  0.7329 -0.3188  0.4525
   36CHL1  H12B 2623   3.583   6.906   3.366 -1.1118  0.1437  0.8210
   36CHL1   C11 2624   3.614   7.038   3.189 -0.1586 -1.1395  0.0789
   36CHL1  H11A 2625   3.612   7.148   3.173  2.1722 -1.3487 -2.5055
   36CHL1  H11B 2626   3.716   6.998   3.171  0.6409  1.6454 -2.3176
   36CHL1    C9 2627   3.507   6.989   3.089  0.7499  0.2499 -1.2425
   36CHL1    H9 2628   3.492   6.880   3.105  0.2198  0.2362 -1.8124
   36CHL1   C10 2629   3.539   6.998   2.944 -0.5413 -0.2523  0.0888
   36CHL1   C19 2630   3.581   7.153   2.926 -1.1297 -0.5285  0.0480
   36CHL1  H19A 2631   3.495   7.220   2.944 -2.3509 -1.5407 -1.7427
   36CHL1  H19B 2632   3.675   7.170   2.983  0.3326 -0.8482 -2.1629
   36CHL1  H19C 2633   3.606   7.164   2.819  0.7584 -0.9620  0.4017
   36CHL1    C1 2634   3.665   6.911   2.902 -1.0775 -0.9076  0.1492
   36CHL1   H1A 2635   3.760   6.950   2.945 -0.5886 -2.7569  0.8228
   36CHL1   H1B 2636   3.648   6.811   2.947 -0.5884 -0.7822  0.6238
   36CHL1    C2 2637   3.679   6.897   2.746 -0.5002  0.4519 -0.0501
   36CHL1   H2A 2638   3.766   6.832   2.724 -1.6083 -1.3493  0.7018
   36CHL1   H2B 2639   3.695   6.994   2.694 -2.6559 -0.7151 -3.1603
   36CHL1   C20 2640   3.428   7.060   3.633  0.4351 -0.2490 -0.1951
   36CHL1   H20 2641   3.426   7.171   3.639  0.7746 -0.3100  1.8535
   36CHL1   C21 2642   3.583   7.031   3.646  0.7303 -0.5717 -0.2520
   36CHL1  H21A 2643   3.648   7.103   3.592 -2.0442  3.4454  1.3496
   36CHL1  H21B 2644   3.604   6.927   3.612  2.8215 -1.2115  2.6252
   36CHL1  H21C 2645   3.604   7.045   3.754  1.6050 -0.8474 -0.3783
   36CHL1   C22 2646   3.355   6.991   3.747 -0.6402  0.1476  0.5770
   36CHL1  H22A 2647   3.246   6.997   3.726 -0.4989 -1.0595 -0.6578
   36CHL1  H22B 2648   3.378   6.885   3.770 -0.0880 -0.2348 -1.5376
   36CHL1   C23 2649   3.373   7.071   3.875 -0.5967  0.6943 -0.0628
   36CHL1  H23A 2650   3.475   7.055   3.916 -0.3674  0.9035 -0.5438
   36CHL1  H23B 2651   3.365   7.177   3.840 -1.7242  0.3071 -1.0299
   36CHL1   C24 2652   3.271   7.036   3.984  0.1364 -0.1281 -0.2494
   36CHL1  H24A 2653   3.270   7.122   4.054  2.5477  0.9661 -1.4385
   36CHL1  H24B 2654   3.172   7.030   3.934 -0.1033  1.7374 -0.0490
   36CHL1   C25 2655   3.295   6.904   4.060 -1.1888 -0.0621 -0.2310
   36CHL1   H25 2656   3.326   6.825   3.988 -0.7465 -1.4828  1.4521
   36CHL1   C26 2657   3.407   6.923   4.168 -0.0025  0.1758  0.3521
   36CHL1  H26A 2658   3.506   6.925   4.117  0.8642 -0.2944  1.9317
   36CHL1  H26B 2659   3.399   7.019   4.224  0.0521 -1.2019  2.9103
   36CHL1  H26C 2660   3.418   6.838   4.239  1.3683 -0.7178 -0.8589
   36CHL1   C27 2661   3.176   6.843   4.134 -0.2266  0.6295 -0.1811
   36CHL1  H27A 2662   3.081   6.841   4.076  0.0537  2.3452 -0.7776
   36CHL1  H27B 2663   3.188   6.735   4.153 -1.3102  0.5880  0.3269
   36CHL1  H27C 2664   3.157   6.899   4.228  1.2439 -2.0000  1.8049
   37CHL1    C3 2665   5.127   5.272   2.729 -0.5484 -0.3010  0.5953
   37CHL1    H3 2666   5.225   5.288   2.780  0.1760  0.8109 -1.0581
   37CHL1    O3 2667   5.158   5.281   2.593 -0.6419  0.5354 -0.4244
   37CHL1   H3' 2668   5.194   5.368   2.572 -3.9160  2.1099 -0.0816
   37CHL1    C4 2669   5.073   5.131   2.765  0.0488 -0.1015 -0.1275
   37CHL1   H4A 2670   4.979   5.118   2.707 -0.2692  0.6141  0.2190
   37CHL1   H4B 2671   5.140   5.053   2.723 -0.6457 -0.3562 -0.7965
   37CHL1    C5 2672   5.053   5.110   2.915 -0.5302 -0.8264 -0.1383
   37CHL1    C6 2673   5.120   5.016   2.987  0.3384  0.1131  0.1643
   37CHL1    H6 2674   5.191   4.951   2.933  0.9733  0.2370  0.8401
   37CHL1    C7 2675   5.113   5.010   3.136 -0.0230 -0.0621  0.1494
   37CHL1   H7A 2676   5.100   4.907   3.175 -0.3830  0.7550  2.3452
   37CHL1   H7B 2677   5.208   5.042   3.184 -0.2326  0.6452  0.0986
   37CHL1    C8 2678   4.988   5.087   3.193 -0.2182 -0.1094 -0.6732
   37CHL1    H8 2679   4.896   5.027   3.175 -0.4011  0.2755 -1.0667
   37CHL1   C14 2680   5.009   5.108   3.345  1.2605 -0.4670  0.6194
   37CHL1   H14 2681   5.098   5.173   3.349  1.4551 -0.7697  1.2890
   37CHL1   C15 2682   5.046   4.985   3.429  0.0263 -0.3293  0.0635
   37CHL1  H15A 2683   4.979   4.903   3.395 -3.1366  2.7411 -1.8140
   37CHL1  H15B 2684   5.154   4.966   3.413  0.1556  0.9827 -0.7795
   37CHL1   C16 2685   5.010   5.031   3.567  0.3898  0.0709  0.1197
   37CHL1  H16A 2686   4.947   4.952   3.613 -0.5028 -0.5471 -2.0344
   37CHL1  H16B 2687   5.101   5.036   3.632 -0.6963  1.6257  1.6128
   37CHL1   C17 2688   4.939   5.170   3.560 -0.7499  0.6777  0.0502
   37CHL1   H17 2689   5.023   5.241   3.565 -0.0674 -0.0386 -0.8458
   37CHL1   C13 2690   4.893   5.173   3.416  0.5867  0.1417 -0.6965
   37CHL1   C18 2691   4.757   5.096   3.410 -0.2048 -0.2936  0.4533
   37CHL1  H18A 2692   4.753   5.000   3.466 -1.5343 -0.3847  0.2487
   37CHL1  H18B 2693   4.673   5.162   3.442 -2.0038 -2.6843  1.0104
   37CHL1  H18C 2694   4.732   5.076   3.304  2.0625  0.1126 -0.2052
   37CHL1   C12 2695   4.878   5.313   3.353 -0.0456 -0.4633 -0.9399
   37CHL1  H12A 2696   4.790   5.360   3.401 -0.2743 -1.8853  0.0905
   37CHL1  H12B 2697   4.967   5.373   3.382 -0.2810  0.7020 -2.5233
   37CHL1   C11 2698   4.856   5.306   3.198 -0.5695 -0.1609  0.6347
   37CHL1  H11A 2699   4.755   5.263   3.183 -1.1357  1.5382 -0.8538
   37CHL1  H11B 2700   4.860   5.411   3.162 -1.3691  0.6984  2.8952
   37CHL1    C9 2701   4.975   5.222   3.129  1.4553 -0.5574 -0.2147
   37CHL1    H9 2702   5.068   5.276   3.157  0.9586  0.3828 -0.3072
   37CHL1   C10 2703   4.969   5.225   2.977 -0.6735  0.3085 -0.7104
   37CHL1   C19 2704   4.821   5.198   2.935  0.8143 -0.3954 -0.0781
   37CHL1  H19A 2705   4.753   5.269   2.986  0.8538 -0.2644 -0.2055
   37CHL1  H19B 2706   4.801   5.222   2.829 -0.5780  1.3078  0.5262
   37CHL1  H19C 2707   4.785   5.095   2.954 -3.9730  0.9592 -0.6068
   37CHL1    C1 2708   5.001   5.366   2.917  0.3989 -0.8436  0.5638
   37CHL1   H1A 2709   4.917   5.428   2.956  0.2351 -1.3238  0.9824
   37CHL1   H1B 2710   5.086   5.416   2.968  1.1676 -2.5985  1.0884
   37CHL1    C2 2711   5.029   5.381   2.766  0.2694 -0.2886 -0.5963
   37CHL1   H2A 2712   5.059   5.486   2.750 -2.6262  0.5576 -1.1258
   37CHL1   H2B 2713   4.928   5.365   2.721  0.2695 -0.4364 -0.5437
   37CHL1   C20 2714   4.839   5.182   3.681  0.2978  0.0455 -0.6291
   37CHL1   H20 2715   4.773   5.093   3.683 -0.5976  0.6978  1.1835
   37CHL1   C21 2716   4.742   5.295   3.675 -0.6625  0.2330  0.0567
   37CHL1  H21A 2717   4.707   5.319   3.572 -1.0120 -0.9226 -0.0995
   37CHL1  H21B 2718   4.789   5.387   3.717  0.0381 -1.1698  2.4872
   37CHL1  H21C 2719   4.649   5.270   3.731  0.2313 -0.2179  1.3825
   37CHL1   C22 2720   4.915   5.179   3.810 -0.0587  0.0862 -0.1230
   37CHL1  H22A 2721   4.973   5.085   3.815 -0.8849 -0.3715  2.1593
   37CHL1  H22B 2722   4.985   5.262   3.831  1.1780 -1.0966  0.5889
   37CHL1   C23 2723   4.828   5.179   3.929  0.4036  0.4542  0.0262
   37CHL1  H23A 2724   4.742   5.249   3.920 -1.5474 -1.9133 -0.6506
   37CHL1  H23B 2725   4.773   5.083   3.929 -0.0561  0.7089 -0.5481
   37CHL1   C24 2726   4.907   5.183   4.060 -0.0631  0.0288 -0.0205
   37CHL1  H24A 2727   4.950   5.081   4.070  2.5159  0.9811 -0.5921
   37CHL1  H24B 2728   4.992   5.253   4.049  1.3193 -1.7526 -1.2520
   37CHL1   C25 2729   4.826   5.220   4.182 -0.1677 -0.0593  0.2220
   37CHL1   H25 2730   4.756   5.303   4.160  0.3895  0.6170  0.9470
   37CHL1   C26 2731   4.741   5.093   4.229  0.6301  0.2496  0.5805
   37CHL1  H26A 2732   4.681   5.050   4.146  0.6108  2.0778 -0.4079
   37CHL1  H26B 2733   4.796   5.011   4.281 -1.1758 -0.1292  1.9824
   37CHL1  H26C 2734   4.667   5.129   4.303  1.9737  0.1233  2.0488
   37CHL1   C27 2735   4.915   5.275   4.298  0.0371  0.8264  0.8709
   37CHL1  H27A 2736   4.846   5.291   4.383 -2.0301 -0.8010 -0.3964
   37CHL1  H27B 2737   4.990   5.202   4.337 -1.3395 -0.9745  0.3032
   37CHL1  H27C 2738   4.954   5.375   4.270 -1.1443  1.4848  1.4967
   38CHL1    C3 2739   2.025   0.132   2.774  0.0837  0.0126 -0.6525
   38CHL1    H3 2740   2.117   0.074   2.796 -0.1933  0.2659  1.3597
   38CHL1    O3 2741   2.042   0.211   2.655 -0.1064 -0.0768 -0.0026
   38CHL1   H3' 2742   2.091   0.290   2.681 -0.0078 -0.0867 -0.1536
   38CHL1    C4 2743   1.922   0.014   2.747  0.7014 -0.1871  0.0010
   38CHL1   H4A 2744   1.823   0.052   2.713  0.7660  1.0126  1.0691
   38CHL1   H4B 2745   1.959  -0.048   2.662  0.4209  0.8723 -0.9284
   38CHL1    C5 2746   1.896  -0.076   2.872  0.0199 -0.4356  0.4920
   38CHL1    C6 2747   1.914  -0.212   2.858 -0.7454 -0.9436  0.1112
   38CHL1    H6 2748   1.944  -0.263   2.765 -0.7423 -0.9032  0.0897
   38CHL1    C7 2749   1.879  -0.304   2.979 -0.0954 -0.0726  0.7725
   38CHL1   H7A 2750   1.822  -0.391   2.941 -1.7292  0.6484  1.4725
   38CHL1   H7B 2751   1.973  -0.342   3.024  0.2654 -0.7798 -0.5316
   38CHL1    C8 2752   1.795  -0.225   3.088 -0.2065  0.3719 -0.4991
   38CHL1    H8 2753   1.693  -0.222   3.044  0.4038  0.1624 -1.9853
   38CHL1   C14 2754   1.787  -0.312   3.209 -0.2318 -0.1626 -0.2109
   38CHL1   H14 2755   1.892  -0.315   3.243 -0.2242  2.1738  0.1099
   38CHL1   C15 2756   1.741  -0.457   3.196 -0.1131 -0.5855  0.4354
   38CHL1  H15A 2757   1.639  -0.457   3.152 -0.5227 -0.6008  1.3573
   38CHL1  H15B 2758   1.810  -0.529   3.146 -0.3449 -0.4312 -0.1171
   38CHL1   C16 2759   1.719  -0.502   3.345 -0.4881 -0.7489  0.1039
   38CHL1  H16A 2760   1.621  -0.552   3.358 -1.7042  0.3709 -3.5437
   38CHL1  H16B 2761   1.801  -0.573   3.370 -1.3865 -1.1935  1.9897
   38CHL1   C17 2762   1.734  -0.373   3.430 -0.2067 -0.0144  0.1499
   38CHL1   H17 2763   1.838  -0.360   3.465 -0.4685  0.6555  0.6921
   38CHL1   C13 2764   1.710  -0.256   3.331 -1.1168  0.8831 -0.6355
   38CHL1   C18 2765   1.557  -0.238   3.295 -0.0069 -0.2853 -0.7855
   38CHL1  H18A 2766   1.505  -0.202   3.387 -3.1731 -2.3836 -1.5715
   38CHL1  H18B 2767   1.537  -0.159   3.220 -1.0491 -0.1261 -0.3559
   38CHL1  H18C 2768   1.501  -0.327   3.258 -2.4919  1.0957 -0.6064
   38CHL1   C12 2769   1.779  -0.120   3.365  1.1007  0.6020 -0.3015
   38CHL1  H12A 2770   1.728  -0.064   3.447  1.4833  0.6778 -0.1140
   38CHL1  H12B 2771   1.878  -0.147   3.408 -1.0166 -2.3187  3.4133
   38CHL1   C11 2772   1.785  -0.028   3.244  0.9393 -0.2390 -0.9316
   38CHL1  H11A 2773   1.679  -0.005   3.221  0.7772 -2.0083 -2.1907
   38CHL1  H11B 2774   1.832   0.069   3.269  2.1790 -0.2869 -2.8714
   38CHL1    C9 2775   1.856  -0.089   3.118 -0.7639  0.5914 -0.9636
   38CHL1    H9 2776   1.964  -0.103   3.141 -0.6523  0.0976 -1.7424
   38CHL1   C10 2777   1.856   0.000   2.994 -0.5680  0.4596 -0.1227
   38CHL1   C19 2778   1.716   0.064   2.980  0.0462  0.3049 -0.4486
   38CHL1  H19A 2779   1.695   0.143   3.056 -2.6990 -0.8220  0.1012
   38CHL1  H19B 2780   1.697   0.116   2.884 -2.7570  1.8090  0.7924
   38CHL1  H19C 2781   1.638  -0.014   2.994  0.2554  0.3601  1.2774
   38CHL1    C1 2782   1.950   0.126   3.020 -0.2688  0.6545 -0.2764
   38CHL1   H1A 2783   1.896   0.183   3.099 -0.6642  0.1814 -0.2018
   38CHL1   H1B 2784   2.043   0.087   3.067 -1.3554 -1.3079  0.3344
   38CHL1    C2 2785   1.973   0.213   2.898  0.7495  0.1015  0.4053
   38CHL1   H2A 2786   2.039   0.299   2.921  0.4017  0.0593  1.6609
   38CHL1   H2B 2787   1.875   0.253   2.864 -0.8587 -2.2806  1.9524
   38CHL1   C20 2788   1.634  -0.373   3.551  0.3670 -0.7603  0.4278
   38CHL1   H20 2789   1.531  -0.394   3.515  0.4055 -0.8608  0.3759
   38CHL1   C21 2790   1.632  -0.233   3.627  0.1089  1.0925  0.2286
   38CHL1  H21A 2791   1.588  -0.152   3.564 -3.9287 -2.3783 -1.8858
   38CHL1  H21B 2792   1.729  -0.196   3.668  0.4160 -0.3449  0.8533
   38CHL1  H21C 2793   1.554  -0.250   3.704 -0.3181 -4.3454 -1.0600
   38CHL1   C22 2794   1.682  -0.476   3.653  0.5533  0.6316  0.5535
   38CHL1  H22A 2795   1.741  -0.557   3.605 -0.2988 -1.4339  2.7476
   38CHL1  H22B 2796   1.762  -0.441   3.722 -0.8098  1.5565  1.7082
   38CHL1   C23 2797   1.571  -0.551   3.725 -0.0248  0.2782  0.1150
   38CHL1  H23A 2798   1.510  -0.475   3.778  0.2234 -0.5944  1.7321
   38CHL1  H23B 2799   1.511  -0.604   3.649  1.8303 -1.7728 -0.0084
   38CHL1   C24 2800   1.618  -0.667   3.819 -0.0388  0.4668 -0.6547
   38CHL1  H24A 2801   1.682  -0.739   3.764  1.1444 -2.9418  4.4690
   38CHL1  H24B 2802   1.679  -0.626   3.902 -2.3783  3.0580 -0.0859
   38CHL1   C25 2803   1.509  -0.735   3.899  0.1427  0.0981 -0.5611
   38CHL1   H25 2804   1.440  -0.783   3.825  0.8442  0.0718 -1.2088
   38CHL1   C26 2805   1.579  -0.837   3.982  0.4461  0.4437  0.0188
   38CHL1  H26A 2806   1.623  -0.778   4.066  0.2057  1.2646 -0.4130
   38CHL1  H26B 2807   1.510  -0.918   4.015 -1.9276  1.2551 -2.5697
   38CHL1  H26C 2808   1.658  -0.889   3.925 -2.7154 -2.8521 -1.7443
   38CHL1   C27 2809   1.437  -0.639   3.988  0.6148  0.8676  0.5715
   38CHL1  H27A 2810   1.494  -0.629   4.083  0.7615  0.8709  0.4832
   38CHL1  H27B 2811   1.403  -0.541   3.949 -0.2448  0.4605  0.2749
   38CHL1  H27C 2812   1.350  -0.693   4.032  1.9995 -0.9330  1.1955
   39CHL1    C3 2813   0.660   5.706   2.810  0.5926 -0.1691  0.0371
   39CHL1    H3 2814   0.607   5.804   2.811 -1.3043 -1.1435 -0.0660
   39CHL1    O3 2815   0.710   5.681   2.680  0.0492 -0.5430  0.4425
   39CHL1   H3' 2816   0.735   5.588   2.680  0.2614 -0.5439 -1.7170
   39CHL1    C4 2817   0.772   5.697   2.917  0.0702  0.6179  0.2003
   39CHL1   H4A 2818   0.825   5.602   2.897  0.6277  0.6114  1.5947
   39CHL1   H4B 2819   0.846   5.774   2.889  0.0430  0.7011  0.3560
   39CHL1    C5 2820   0.741   5.711   3.064  0.4704 -0.2971 -0.6619
   39CHL1    C6 2821   0.815   5.796   3.139 -0.1355  0.1847 -0.0342
   39CHL1    H6 2822   0.902   5.852   3.099 -0.0478 -0.7402 -1.2090
   39CHL1    C7 2823   0.783   5.823   3.285 -0.1392  0.2616 -0.0311
   39CHL1   H7A 2824   0.881   5.832   3.337 -1.3015 -1.0003  2.5572
   39CHL1   H7B 2825   0.738   5.924   3.296 -0.0864  0.1037  2.0449
   39CHL1    C8 2826   0.691   5.713   3.343 -0.0227 -0.3986  0.0871
   39CHL1    H8 2827   0.751   5.623   3.364 -2.5017 -2.4432 -1.0527
   39CHL1   C14 2828   0.642   5.756   3.480  0.7874 -0.6180  0.6772
   39CHL1   H14 2829   0.589   5.852   3.465  3.7279  0.9911 -0.4379
   39CHL1   C15 2830   0.749   5.790   3.588 -0.1107 -0.5905  0.4771
   39CHL1  H15A 2831   0.830   5.714   3.590  0.7788  0.2942 -0.7606
   39CHL1  H15B 2832   0.788   5.894   3.590 -0.6190 -0.3495 -1.0249
   39CHL1   C16 2833   0.666   5.774   3.719  0.1526 -0.1510  0.4449
   39CHL1  H16A 2834   0.718   5.701   3.785 -0.6697 -1.8204 -0.6840
   39CHL1  H16B 2835   0.664   5.870   3.773 -1.2033 -0.3152  0.7040
   39CHL1   C17 2836   0.525   5.722   3.676  0.2595 -0.1792  0.6672
   39CHL1   H17 2837   0.465   5.814   3.658 -0.5865 -0.8001  0.2315
   39CHL1   C13 2838   0.555   5.646   3.546 -0.6879  0.7097 -0.3048
   39CHL1   C18 2839   0.633   5.511   3.573 -0.5547  0.3607  0.1141
   39CHL1  H18A 2840   0.673   5.467   3.479 -0.2713 -0.8703  0.7968
   39CHL1  H18B 2841   0.725   5.526   3.634 -0.3421  0.9476 -0.3473
   39CHL1  H18C 2842   0.565   5.442   3.628 -1.4708  0.8499 -0.3805
   39CHL1   C12 2843   0.433   5.627   3.459  0.0879 -0.1476  0.1360
   39CHL1  H12A 2844   0.373   5.550   3.513  0.6956  0.7478  2.2046
   39CHL1  H12B 2845   0.373   5.720   3.458  1.7443  1.0065  1.4095
   39CHL1   C11 2846   0.470   5.578   3.317 -0.7336 -0.4144  0.8525
   39CHL1  H11A 2847   0.511   5.475   3.321 -0.0932 -0.2993 -1.1962
   39CHL1  H11B 2848   0.379   5.575   3.253 -0.1789  3.4700 -0.4002
   39CHL1    C9 2849   0.574   5.677   3.252 -0.0222 -0.1268  0.8580
   39CHL1    H9 2850   0.522   5.772   3.230 -1.1133 -0.5599  1.4948
   39CHL1   C10 2851   0.623   5.625   3.116  0.2073 -0.2633 -0.2813
   39CHL1   C19 2852   0.665   5.472   3.119 -0.3608 -0.2712 -0.2257
   39CHL1  H19A 2853   0.578   5.406   3.135  0.6155 -1.0525  2.3290
   39CHL1  H19B 2854   0.713   5.448   3.022 -1.3123 -1.0679 -0.5136
   39CHL1  H19C 2855   0.736   5.458   3.203  1.0182  2.1205 -0.8815
   39CHL1    C1 2856   0.510   5.634   3.004  0.4473 -0.0991  0.6824
   39CHL1   H1A 2857   0.434   5.558   3.031  0.4629  0.1080  1.3260
   39CHL1   H1B 2858   0.463   5.735   3.010 -0.9910 -0.5112 -2.1017
   39CHL1    C2 2859   0.550   5.615   2.852 -0.4723  1.0496  0.2246
   39CHL1   H2A 2860   0.468   5.620   2.778  0.3773  1.8339 -0.6808
   39CHL1   H2B 2861   0.587   5.511   2.842  0.4513  1.4345 -0.4040
   39CHL1   C20 2862   0.445   5.660   3.795 -0.1008 -0.2705  0.8737
   39CHL1   H20 2863   0.468   5.552   3.788  1.2937  0.0748 -0.2223
   39CHL1   C21 2864   0.293   5.690   3.768  0.2134  0.5525 -0.7055
   39CHL1  H21A 2865   0.270   5.799   3.774  0.3148  0.4936  1.4038
   39CHL1  H21B 2866   0.228   5.633   3.838  0.0541 -1.8800 -2.7037
   39CHL1  H21C 2867   0.260   5.650   3.670  0.6926 -3.7407  0.6751
   39CHL1   C22 2868   0.484   5.702   3.940  0.6097 -0.4421 -0.5472
   39CHL1  H22A 2869   0.588   5.677   3.969  0.1893 -0.8152  0.7172
   39CHL1  H22B 2870   0.458   5.810   3.944 -0.8633 -0.7864  0.0334
   39CHL1   C23 2871   0.385   5.651   4.047  0.9420 -0.5345  0.2661
   39CHL1  H23A 2872   0.280   5.685   4.035  0.8461 -0.7812  0.3980
   39CHL1  H23B 2873   0.377   5.541   4.044 -1.3513 -0.4416  1.0943
   39CHL1   C24 2874   0.432   5.694   4.187  0.4952 -0.2070  0.1285
   39CHL1  H24A 2875   0.541   5.669   4.190  0.4333 -0.4903  0.0491
   39CHL1  H24B 2876   0.414   5.802   4.205 -0.3660 -0.3217 -0.0143
   39CHL1   C25 2877   0.356   5.614   4.296  0.8692 -0.5854  0.8736
   39CHL1   H25 2878   0.356   5.507   4.265 -1.2521  0.3484 -3.0543
   39CHL1   C26 2879   0.415   5.626   4.434 -0.3896  0.3630  0.2154
   39CHL1  H26A 2880   0.361   5.568   4.511 -0.9945 -0.4222 -0.7670
   39CHL1  H26B 2881   0.518   5.585   4.425 -0.3569  0.0162  1.9430
   39CHL1  H26C 2882   0.424   5.734   4.461  0.0494  0.5704 -0.7022
   39CHL1   C27 2883   0.207   5.657   4.307 -0.5011  0.3161 -0.1796
   39CHL1  H27A 2884   0.197   5.767   4.319 -0.4579  0.3436 -0.3909
   39CHL1  H27B 2885   0.157   5.622   4.214 -0.7506  2.0796 -0.7406
   39CHL1  H27C 2886   0.150   5.596   4.381 -1.1634  0.9037 -0.1909
   40CHL1    C3 2887   3.317   3.931   2.510  0.0366 -0.1092  0.4245
   40CHL1    H3 2888   3.365   4.027   2.538  0.3660  0.5608 -2.1561
   40CHL1    O3 2889   3.282   3.922   2.372  0.2913 -0.2181  0.1995
   40CHL1   H3' 2890   3.258   3.829   2.370  0.5033 -0.2567 -1.2066
   40CHL1    C4 2891   3.403   3.814   2.550 -0.2625 -0.7916  0.3601
   40CHL1   H4A 2892   3.350   3.719   2.527 -0.8032 -0.1461 -1.2263
   40CHL1   H4B 2893   3.498   3.817   2.493 -1.0344  3.3062 -1.0845
   40CHL1    C5 2894   3.440   3.825   2.700 -0.1059 -0.6897 -0.5366
   40CHL1    C6 2895   3.569   3.840   2.742  0.6981 -0.2918  0.8549
   40CHL1    H6 2896   3.652   3.845   2.670  1.6925 -1.0996  1.9120
   40CHL1    C7 2897   3.599   3.852   2.885 -0.3529  0.1950 -0.5777
   40CHL1   H7A 2898   3.690   3.792   2.903 -0.0768  1.1811  1.6103
   40CHL1   H7B 2899   3.625   3.958   2.906 -1.3662  0.5389 -1.0209
   40CHL1    C8 2900   3.492   3.812   2.981  0.0326  0.2637  0.0406
   40CHL1    H8 2901   3.492   3.701   2.978 -1.3243  0.2534 -0.2297
   40CHL1   C14 2902   3.535   3.862   3.123  0.1697  0.2831  0.3062
   40CHL1   H14 2903   3.518   3.971   3.129  0.6272  0.3978 -0.4071
   40CHL1   C15 2904   3.680   3.847   3.169 -0.2024 -0.5174 -0.7245
   40CHL1  H15A 2905   3.720   3.747   3.141 -1.0786 -0.8373 -0.8565
   40CHL1  H15B 2906   3.750   3.920   3.122 -0.0396 -1.0156 -1.2710
   40CHL1   C16 2907   3.673   3.854   3.325  0.3471 -0.0030 -0.0190
   40CHL1  H16A 2908   3.701   3.752   3.359 -0.4849 -0.0443  0.5574
   40CHL1  H16B 2909   3.742   3.927   3.374 -0.8291  0.9555  0.2469
   40CHL1   C17 2910   3.515   3.874   3.350  0.2581 -0.1069 -0.3858
   40CHL1   H17 2911   3.509   3.984   3.337  1.5085  0.0386  0.0868
   40CHL1   C13 2912   3.440   3.822   3.234 -0.5738 -0.3842  0.3205
   40CHL1   C18 2913   3.417   3.670   3.243 -0.2561  0.5449 -0.0674
   40CHL1  H18A 2914   3.517   3.624   3.262  0.6070  1.8292 -1.2969
   40CHL1  H18B 2915   3.331   3.647   3.309 -1.3203  1.2851 -1.1620
   40CHL1  H18C 2916   3.381   3.627   3.147  3.0301  1.6138 -1.9371
   40CHL1   C12 2917   3.303   3.888   3.203  0.3192  0.2770  0.6581
   40CHL1  H12A 2918   3.226   3.859   3.278  0.7767  0.1155  1.0671
   40CHL1  H12B 2919   3.306   3.999   3.196  0.8838  0.2471  0.4227
   40CHL1   C11 2920   3.249   3.848   3.056  0.1644  0.5036 -0.8948
   40CHL1  H11A 2921   3.218   3.741   3.066  0.4782  0.5323  0.6198
   40CHL1  H11B 2922   3.158   3.910   3.039  0.3179  0.9131 -0.2632
   40CHL1    C9 2923   3.358   3.869   2.943  0.2387  0.1176  0.5501
   40CHL1    H9 2924   3.380   3.978   2.939  1.3270 -0.0810  0.9036
   40CHL1   C10 2925   3.322   3.823   2.797 -0.3208 -0.3480 -0.6127
   40CHL1   C19 2926   3.258   3.685   2.812 -0.7254  0.7809  0.6241
   40CHL1  H19A 2927   3.165   3.705   2.868 -2.0064  1.5517 -1.6632
   40CHL1  H19B 2928   3.244   3.631   2.716  1.7160  1.4783 -0.2049
   40CHL1  H19C 2929   3.324   3.620   2.874 -0.5148 -0.0713 -0.4636
   40CHL1    C1 2930   3.216   3.926   2.746 -0.0988 -0.3561  0.4968
   40CHL1   H1A 2931   3.115   3.929   2.792 -1.4499 -0.5261 -2.2730
   40CHL1   H1B 2932   3.260   4.027   2.763  1.4642 -1.3491  2.8524
   40CHL1    C2 2933   3.185   3.926   2.593  0.1560 -0.4899  0.3339
   40CHL1   H2A 2934   3.139   4.026   2.574  0.2145 -0.7247 -1.1825
   40CHL1   H2B 2935   3.115   3.844   2.567 -0.3578 -0.7206  2.2927
   40CHL1   C20 2936   3.457   3.850   3.491 -0.4939  0.1089 -0.5285
   40CHL1   H20 2937   3.346   3.852   3.484 -0.7289 -2.3089  1.1116
   40CHL1   C21 2938   3.489   3.972   3.581 -0.1534  0.0479 -0.2056
   40CHL1  H21A 2939   3.599   3.981   3.596  0.4818 -1.0568 -3.3911
   40CHL1  H21B 2940   3.451   3.961   3.685 -0.2634 -1.1778 -0.3551
   40CHL1  H21C 2941   3.454   4.069   3.540 -2.0205 -0.3237  0.4411
   40CHL1   C22 2942   3.500   3.723   3.569 -0.5290  0.0578  0.8619
   40CHL1  H22A 2943   3.511   3.646   3.490  0.9879 -0.3234  1.4228
   40CHL1  H22B 2944   3.603   3.732   3.609 -0.9227 -0.7894  2.1065
   40CHL1   C23 2945   3.406   3.673   3.674 -0.5210  0.3386  0.0428
   40CHL1  H23A 2946   3.452   3.591   3.733  0.6985  1.1053  0.1697
   40CHL1  H23B 2947   3.389   3.763   3.735 -0.2426  0.1286  0.4333
   40CHL1   C24 2948   3.275   3.618   3.616  0.8349 -0.0502 -0.2131
   40CHL1  H24A 2949   3.225   3.692   3.550 -1.1122 -0.5740  0.6060
   40CHL1  H24B 2950   3.305   3.519   3.574  0.1770 -1.2715  2.0259
   40CHL1   C25 2951   3.172   3.584   3.727  0.4989  0.4741 -0.8161
   40CHL1   H25 2952   3.134   3.681   3.766  0.1172  0.0789 -0.1877
   40CHL1   C26 2953   3.045   3.526   3.666  0.1533 -0.0537  0.2041
   40CHL1  H26A 2954   3.003   3.583   3.580 -0.0033 -0.1656  0.2054
   40CHL1  H26B 2955   3.068   3.423   3.630  0.7487 -0.1419  0.8179
   40CHL1  H26C 2956   2.966   3.505   3.741 -0.2066  0.6424  0.0272
   40CHL1   C27 2957   3.229   3.490   3.838 -0.1664  0.6243 -0.4591
   40CHL1  H27A 2958   3.146   3.462   3.906  0.5551  2.1631  1.1520
   40CHL1  H27B 2959   3.275   3.398   3.797 -0.3935 -0.4922  1.6290
   40CHL1  H27C 2960   3.308   3.551   3.888  1.4933 -2.0604  0.4399
   41CHL1    C3 2961   2.132   1.566   2.953  0.5607  0.2458 -0.8052
   41CHL1    H3 2962   2.230   1.619   2.957  0.2949  0.8109 -1.5665
   41CHL1    O3 2963   2.095   1.555   2.816 -0.2334  0.1515 -0.0375
   41CHL1   H3' 2964   2.181   1.532   2.782  0.9391 -0.1318  2.8243
   41CHL1    C4 2965   2.149   1.421   3.013  0.1119  0.1290 -0.5427
   41CHL1   H4A 2966   2.063   1.352   3.001 -1.1776  1.7558 -0.9026
   41CHL1   H4B 2967   2.231   1.369   2.959 -1.0642 -2.0649 -0.3252
   41CHL1    C5 2968   2.168   1.423   3.159  1.3062  0.3176 -0.4732
   41CHL1    C6 2969   2.267   1.350   3.214  0.4495 -0.4030  0.3827
   41CHL1    H6 2970   2.319   1.275   3.152 -0.2902 -0.2370 -0.4588
   41CHL1    C7 2971   2.305   1.340   3.357  0.4577 -0.7133 -0.5935
   41CHL1   H7A 2972   2.324   1.232   3.374 -0.1290 -0.7038  0.1982
   41CHL1   H7B 2973   2.403   1.391   3.369  1.6914 -1.6184 -5.0710
   41CHL1    C8 2974   2.194   1.402   3.445 -0.2791 -0.9321 -0.1679
   41CHL1    H8 2975   2.114   1.326   3.441 -0.3912 -0.9321  1.4261
   41CHL1   C14 2976   2.241   1.419   3.587 -0.4438  0.6911 -0.4829
   41CHL1   H14 2977   2.316   1.499   3.600  1.1645 -1.0478  1.5471
   41CHL1   C15 2978   2.311   1.297   3.652  0.2932 -0.5783  0.7017
   41CHL1  H15A 2979   2.256   1.208   3.613  0.9902 -1.0221  0.7066
   41CHL1  H15B 2980   2.416   1.293   3.617  0.1540 -1.6618  0.3567
   41CHL1   C16 2981   2.295   1.324   3.803 -0.3237 -0.3811 -0.0548
   41CHL1  H16A 2982   2.254   1.235   3.856  1.0495 -1.6564 -1.0455
   41CHL1  H16B 2983   2.389   1.349   3.855 -1.1176  1.3558  0.6292
   41CHL1   C17 2984   2.214   1.455   3.818 -0.2067 -0.2639 -0.2413
   41CHL1   H17 2985   2.283   1.541   3.807  0.5363 -1.0643 -2.4206
   41CHL1   C13 2986   2.132   1.463   3.687  1.4554  0.2422 -0.0593
   41CHL1   C18 2987   2.006   1.366   3.696 -1.0485 -0.6752  0.2419
   41CHL1  H18A 2988   1.927   1.411   3.761 -1.9899 -1.3537 -0.4144
   41CHL1  H18B 2989   1.967   1.346   3.594  2.7297  0.4427 -1.6271
   41CHL1  H18C 2990   2.052   1.270   3.728  2.3835  1.4405  2.2593
   41CHL1   C12 2991   2.100   1.603   3.634 -0.1294 -0.1101 -0.1383
   41CHL1  H12A 2992   2.026   1.640   3.707  0.3528  0.7720 -0.0861
   41CHL1  H12B 2993   2.192   1.664   3.642 -0.1757  0.1608 -1.4271
   41CHL1   C11 2994   2.051   1.609   3.485 -0.1064 -0.0984 -0.6718
   41CHL1  H11A 2995   1.951   1.561   3.492  0.4808 -1.1506  1.2204
   41CHL1  H11B 2996   2.039   1.719   3.472  1.6689  0.1317 -0.5678
   41CHL1    C9 2997   2.144   1.538   3.390  0.5378 -0.6374  0.1839
   41CHL1    H9 2998   2.232   1.605   3.381  1.2048 -1.7437 -2.7386
   41CHL1   C10 2999   2.088   1.526   3.245  0.0743  0.7904  0.5070
   41CHL1   C19 3000   1.952   1.450   3.257 -0.3087  0.1716  0.5154
   41CHL1  H19A 3001   1.964   1.352   3.307 -0.0847 -0.9639 -1.6617
   41CHL1  H19B 3002   1.867   1.499   3.310 -0.7390 -0.7341  0.6711
   41CHL1  H19C 3003   1.912   1.422   3.157  2.3084 -0.4343 -0.4426
   41CHL1    C1 3004   2.080   1.668   3.176  0.1309 -0.3939 -0.6352
   41CHL1   H1A 3005   2.015   1.741   3.228  2.7940  0.6788  1.4138
   41CHL1   H1B 3006   2.183   1.708   3.174 -0.8806  2.5393  0.7119
   41CHL1    C2 3007   2.039   1.663   3.027  0.0654 -0.2258  0.3852
   41CHL1   H2A 3008   2.035   1.758   2.970 -1.1086 -1.0455 -0.9843
   41CHL1   H2B 3009   1.937   1.621   3.017 -0.1600  0.3073  0.4627
   41CHL1   C20 3010   2.129   1.478   3.956 -0.0558  0.1923  0.1261
   41CHL1   H20 3011   2.042   1.540   3.925 -0.3571  0.8562  2.1795
   41CHL1   C21 3012   2.214   1.574   4.042  0.2830  0.3632  0.0134
   41CHL1  H21A 3013   2.158   1.619   4.127  0.9788 -2.0037  1.8299
   41CHL1  H21B 3014   2.241   1.665   3.985 -0.2702  0.4707 -0.0905
   41CHL1  H21C 3015   2.304   1.525   4.086 -0.8438 -1.1182  0.7794
   41CHL1   C22 3016   2.109   1.352   4.038 -0.1009 -0.4256 -0.5323
   41CHL1  H22A 3017   2.064   1.269   3.980 -0.0369 -0.8216 -0.0170
   41CHL1  H22B 3018   2.208   1.313   4.067  0.1656  0.5039 -0.1526
   41CHL1   C23 3019   2.026   1.375   4.168 -0.5189 -0.4548  0.7578
   41CHL1  H23A 3020   2.088   1.442   4.231 -0.3626 -0.5667  0.7258
   41CHL1  H23B 3021   1.934   1.426   4.133  0.1810  1.2154  1.2428
   41CHL1   C24 3022   1.993   1.244   4.244 -0.1296 -0.6228 -0.2324
   41CHL1  H24A 3023   1.927   1.183   4.179 -2.2625 -0.6092  1.7872
   41CHL1  H24B 3024   2.095   1.205   4.262  0.0139 -1.2615 -2.1887
   41CHL1   C25 3025   1.929   1.264   4.387  0.0486 -0.3741  0.1248
   41CHL1   H25 3026   1.988   1.337   4.446  3.7763 -0.9899 -2.5051
   41CHL1   C26 3027   1.778   1.320   4.384 -0.2866  0.2694 -0.0267
   41CHL1  H26A 3028   1.753   1.414   4.329 -1.3304  0.5859  0.9418
   41CHL1  H26B 3029   1.709   1.240   4.352  2.9216 -1.5194 -3.2165
   41CHL1  H26C 3030   1.757   1.345   4.490 -3.0521 -2.3605  0.1753
   41CHL1   C27 3031   1.925   1.127   4.455 -0.1906  0.2289 -0.2247
   41CHL1  H27A 3032   1.855   1.128   4.541 -0.7307 -1.9055 -0.5893
   41CHL1  H27B 3033   1.872   1.056   4.389 -1.5156 -0.0083  1.0373
   41CHL1  H27C 3034   2.026   1.108   4.498 -1.0718 -0.5380  1.6048
   42CHL1    C3 3035   6.128   5.716   2.646  0.0773 -0.1049 -0.0649
   42CHL1    H3 3036   6.098   5.612   2.670 -0.0420 -0.2716 -0.9170
   42CHL1    O3 3037   6.140   5.724   2.511 -0.7346  0.2830  0.3011
   42CHL1   H3' 3038   6.147   5.819   2.499 -0.4388  0.1615 -0.5204
   42CHL1    C4 3039   6.014   5.811   2.691 -0.1947 -0.1944  0.2427
   42CHL1   H4A 3040   6.036   5.912   2.651 -1.8680 -0.0488 -0.3617
   42CHL1   H4B 3041   5.925   5.781   2.633  0.2896  1.0562 -1.2039
   42CHL1    C5 3042   5.998   5.812   2.844  0.0093  0.2857  0.0306
   42CHL1    C6 3043   5.877   5.792   2.913 -0.1148 -0.0887  0.5223
   42CHL1    H6 3044   5.785   5.791   2.852  1.6137  0.2295 -2.2713
   42CHL1    C7 3045   5.853   5.797   3.059  0.6633  0.8885 -0.0161
   42CHL1   H7A 3046   5.771   5.873   3.066  1.5897  2.1151 -1.7890
   42CHL1   H7B 3047   5.824   5.699   3.102  0.7885  1.0147  0.3690
   42CHL1    C8 3048   5.973   5.859   3.131  0.0302 -0.1333 -0.8052
   42CHL1    H8 3049   5.965   5.969   3.114 -0.5629 -0.0789 -0.2599
   42CHL1   C14 3050   5.965   5.838   3.280 -0.7340 -0.4603  0.5498
   42CHL1   H14 3051   5.983   5.731   3.303 -0.4442 -1.4309 -3.3901
   42CHL1   C15 3052   5.836   5.869   3.361 -0.0325 -0.9186 -0.6509
   42CHL1  H15A 3053   5.789   5.961   3.320  0.1126 -0.3844  0.3643
   42CHL1  H15B 3054   5.756   5.792   3.354 -0.9312  0.0863 -2.1757
   42CHL1   C16 3055   5.888   5.900   3.502 -0.2059 -0.1037 -0.3578
   42CHL1  H16A 3056   5.858   6.002   3.534 -1.3115 -1.0662  1.8866
   42CHL1  H16B 3057   5.836   5.838   3.578 -0.5563  1.0545  0.3731
   42CHL1   C17 3058   6.045   5.881   3.502 -0.1191 -0.1586 -0.2167
   42CHL1   H17 3059   6.074   5.778   3.530  1.2058 -0.7709 -3.4341
   42CHL1   C13 3060   6.085   5.910   3.358 -0.2943 -0.7452 -0.0415
   42CHL1   C18 3061   6.091   6.067   3.333 -0.9496  0.4627  0.5173
   42CHL1  H18A 3062   6.122   6.086   3.228  1.1302 -3.4694  0.2030
   42CHL1  H18B 3063   5.995   6.118   3.354  0.2114  3.0427 -0.0268
   42CHL1  H18C 3064   6.169   6.113   3.398  2.3259 -2.1246 -1.2773
   42CHL1   C12 3065   6.211   5.838   3.302  0.3155 -0.4129  0.3079
   42CHL1  H12A 3066   6.305   5.878   3.346  0.4529  0.7204 -0.9534
   42CHL1  H12B 3067   6.206   5.729   3.325 -0.8638 -0.4018  0.1741
   42CHL1   C11 3068   6.232   5.853   3.152  0.3787  1.2297  0.5534
   42CHL1  H11A 3069   6.239   5.961   3.124  0.7922  0.7230 -1.4641
   42CHL1  H11B 3070   6.324   5.799   3.121  0.5308  1.8089 -0.0382
   42CHL1    C9 3071   6.110   5.812   3.071 -0.0256 -0.1256  0.4460
   42CHL1    H9 3072   6.097   5.701   3.077  0.0824 -0.3156 -1.9420
   42CHL1   C10 3073   6.131   5.835   2.917 -0.3696  0.7078  0.2877
   42CHL1   C19 3074   6.172   5.981   2.893 -0.3765 -1.0388 -0.1216
   42CHL1  H19A 3075   6.112   6.045   2.961 -1.2989 -0.0006 -1.8262
   42CHL1  H19B 3076   6.277   6.009   2.916 -0.6239  0.7568 -0.9403
   42CHL1  H19C 3077   6.156   6.023   2.791  0.0745  1.8732  0.9045
   42CHL1    C1 3078   6.247   5.748   2.865  0.2084 -0.2455  0.0911
   42CHL1   H1A 3079   6.344   5.774   2.912  0.1728 -0.6979  0.4095
   42CHL1   H1B 3080   6.222   5.644   2.896  1.0612 -0.8230 -1.0880
   42CHL1    C2 3081   6.263   5.746   2.708 -0.3680  0.4895  0.6969
   42CHL1   H2A 3082   6.336   5.667   2.679  0.2141 -0.0832  3.4263
   42CHL1   H2B 3083   6.298   5.849   2.691  1.1928  0.2486  2.1644
   42CHL1   C20 3084   6.107   5.956   3.624 -0.1414 -0.9974  0.6505
   42CHL1   H20 3085   6.061   6.055   3.605 -1.1161 -1.3341  1.2287
   42CHL1   C21 3086   6.269   5.951   3.612  0.5015  0.0174 -0.8193
   42CHL1  H21A 3087   6.316   5.993   3.704 -0.5251 -0.8913  0.1664
   42CHL1  H21B 3088   6.306   6.006   3.523  0.6486  1.7721  0.2755
   42CHL1  H21C 3089   6.302   5.846   3.600  0.6154 -0.0699  0.1748
   42CHL1   C22 3090   6.064   5.908   3.765 -0.5009 -0.4837 -0.2513
   42CHL1  H22A 3091   6.113   5.974   3.840  0.9765 -0.8855 -0.8235
   42CHL1  H22B 3092   5.958   5.926   3.793 -0.6677 -2.8832  0.8480
   42CHL1   C23 3093   6.086   5.756   3.792  0.9207  0.3458 -0.2961
   42CHL1  H23A 3094   6.016   5.708   3.721  0.2868  1.8695 -0.7275
   42CHL1  H23B 3095   6.191   5.726   3.769  1.0822  1.2581 -0.8109
   42CHL1   C24 3096   6.066   5.706   3.939 -0.2013 -0.1202  0.0939
   42CHL1  H24A 3097   5.959   5.717   3.966  0.4845  1.6638  2.4859
   42CHL1  H24B 3098   6.091   5.599   3.951 -0.6564 -0.1038  1.2721
   42CHL1   C25 3099   6.153   5.783   4.052  0.1248  0.9060  1.0983
   42CHL1   H25 3100   6.138   5.893   4.046  1.6799  1.1413  1.2112
   42CHL1   C26 3101   6.107   5.733   4.188 -1.3082 -0.5013 -0.0096
   42CHL1  H26A 3102   6.172   5.781   4.265  2.7273 -1.7131 -2.3738
   42CHL1  H26B 3103   5.998   5.753   4.196 -1.4373 -1.4392  0.9191
   42CHL1  H26C 3104   6.120   5.623   4.202  0.0387 -0.3006  0.4732
   42CHL1   C27 3105   6.300   5.759   4.043 -0.4950 -0.2637 -0.1534
   42CHL1  H27A 3106   6.349   5.826   4.116 -0.5267 -2.8514  2.4238
   42CHL1  H27B 3107   6.327   5.656   4.076  1.2287  0.7797  1.9416
   42CHL1  H27C 3108   6.329   5.782   3.938  0.8898  0.6160  0.4024
   43CHL1    C3 3109   1.843   2.561   2.946 -0.6531 -0.0042 -0.4705
   43CHL1    H3 3110   1.767   2.481   2.930 -1.5083 -0.4519  4.4359
   43CHL1    O3 3111   1.916   2.591   2.827 -0.5646 -0.7803  0.1862
   43CHL1   H3' 3112   1.976   2.663   2.847  0.7143 -0.7634 -3.1010
   43CHL1    C4 3113   1.785   2.690   3.006  0.1225 -0.4241 -0.0493
   43CHL1   H4A 3114   1.877   2.746   3.035  1.5973 -3.0326  0.6544
   43CHL1   H4B 3115   1.719   2.743   2.935 -2.0775  0.7265  2.6599
   43CHL1    C5 3116   1.707   2.660   3.135 -0.6281  0.5755 -0.8666
   43CHL1    C6 3117   1.572   2.680   3.154  0.3684  0.4961  0.4340
   43CHL1    H6 3118   1.508   2.726   3.077  3.2232 -1.0664 -3.1871
   43CHL1    C7 3119   1.502   2.650   3.281 -0.3901  0.1517 -0.0029
   43CHL1   H7A 3120   1.434   2.728   3.323 -0.5626 -0.1008  0.1954
   43CHL1   H7B 3121   1.439   2.563   3.256 -0.9250  0.7497 -0.7741
   43CHL1    C8 3122   1.587   2.593   3.391  0.2668 -0.7225  0.4970
   43CHL1    H8 3123   1.635   2.684   3.432  1.9000 -1.9017  1.2559
   43CHL1   C14 3124   1.505   2.536   3.505  0.5521  0.4242  1.8064
   43CHL1   H14 3125   1.460   2.448   3.454 -1.3984  2.8560 -1.0089
   43CHL1   C15 3126   1.376   2.611   3.561  0.4281  0.2058  0.3736
   43CHL1  H15A 3127   1.396   2.720   3.568  0.8378  0.2459 -1.1398
   43CHL1  H15B 3128   1.291   2.596   3.491  0.5692 -0.5249  0.3564
   43CHL1   C16 3129   1.352   2.540   3.692  0.0095  0.1096  0.7063
   43CHL1  H16A 3130   1.348   2.617   3.772  1.4593  0.0992  0.8155
   43CHL1  H16B 3131   1.255   2.486   3.704 -0.2475  0.1423 -0.9641
   43CHL1   C17 3132   1.472   2.442   3.713  0.5244  0.1711 -0.4005
   43CHL1   H17 3133   1.428   2.352   3.666  2.0880 -1.2125  0.7065
   43CHL1   C13 3134   1.586   2.493   3.623  0.6734 -0.6292 -0.4643
   43CHL1   C18 3135   1.647   2.616   3.691 -0.5588 -0.7233  0.2435
   43CHL1  H18A 3136   1.731   2.655   3.629  0.3407 -2.6684  0.1824
   43CHL1  H18B 3137   1.579   2.698   3.723  0.0238 -0.1965  0.1569
   43CHL1  H18C 3138   1.689   2.592   3.791 -2.4176 -2.7559  0.6031
   43CHL1   C12 3139   1.688   2.384   3.583 -0.2390 -0.2412 -0.1136
   43CHL1  H12A 3140   1.745   2.359   3.675 -0.9643  2.2064  1.0709
   43CHL1  H12B 3141   1.624   2.301   3.544 -2.5236  1.6539 -0.6961
   43CHL1   C11 3142   1.780   2.436   3.473  0.8105 -0.2382  1.0009
   43CHL1  H11A 3143   1.844   2.520   3.509  0.1716  0.2711  0.9610
   43CHL1  H11B 3144   1.843   2.348   3.447  0.2472 -0.5168  0.5726
   43CHL1    C9 3145   1.697   2.498   3.352  0.2481 -0.2413  0.1320
   43CHL1    H9 3146   1.644   2.413   3.304  0.4256 -0.8732  1.0241
   43CHL1   C10 3147   1.784   2.575   3.240 -0.0755 -0.1563 -0.1358
   43CHL1   C19 3148   1.879   2.677   3.305 -0.1276 -0.2796  0.7070
   43CHL1  H19A 3149   1.825   2.735   3.383 -0.2230  1.5207 -0.6530
   43CHL1  H19B 3150   1.953   2.616   3.361  1.2486  0.6110 -0.0773
   43CHL1  H19C 3151   1.931   2.748   3.237 -2.9858  0.2872 -1.0420
   43CHL1    C1 3152   1.871   2.461   3.174  0.5076  0.3186 -0.4250
   43CHL1   H1A 3153   1.950   2.427   3.245 -0.2266 -0.1898  0.1489
   43CHL1   H1B 3154   1.815   2.377   3.129 -0.5790  0.4039  0.7406
   43CHL1    C2 3155   1.945   2.510   3.046  0.1132 -0.4813  0.1456
   43CHL1   H2A 3156   1.992   2.418   3.004 -0.6024 -0.2389 -1.2275
   43CHL1   H2B 3157   2.012   2.595   3.068 -0.3721  0.6052 -2.2967
   43CHL1   C20 3158   1.518   2.403   3.856 -0.2784  0.2293 -0.0196
   43CHL1   H20 3159   1.619   2.444   3.877  0.3441  0.5884 -3.1931
   43CHL1   C21 3160   1.521   2.251   3.856 -0.5690 -0.2716  0.2004
   43CHL1  H21A 3161   1.418   2.211   3.850  0.4536 -3.0902  0.2282
   43CHL1  H21B 3162   1.567   2.217   3.952  0.0718  0.4134  0.1470
   43CHL1  H21C 3163   1.590   2.217   3.777  0.8185  1.9046  0.3788
   43CHL1   C22 3164   1.424   2.457   3.962  0.3503 -0.6802 -1.2804
   43CHL1  H22A 3165   1.429   2.568   3.965  1.2543 -0.7156 -1.2264
   43CHL1  H22B 3166   1.317   2.436   3.940 -0.8735  3.1230  0.1743
   43CHL1   C23 3167   1.449   2.411   4.108  0.1946 -0.1853 -0.7677
   43CHL1  H23A 3168   1.426   2.306   4.135  1.6128 -0.4550 -0.5002
   43CHL1  H23B 3169   1.558   2.421   4.126 -0.0293 -0.7055  1.0306
   43CHL1   C24 3170   1.379   2.496   4.213  1.2438 -0.2406 -0.0446
   43CHL1  H24A 3171   1.404   2.602   4.188  2.9532 -0.4442  0.6709
   43CHL1  H24B 3172   1.269   2.485   4.203  0.9659 -0.0440  2.2800
   43CHL1   C25 3173   1.421   2.467   4.354  0.1372 -0.2467 -0.5045
   43CHL1   H25 3174   1.379   2.552   4.412  0.9690  1.6341 -2.5434
   43CHL1   C26 3175   1.358   2.337   4.413  0.0827  0.0137 -0.4786
   43CHL1  H26A 3176   1.253   2.340   4.376 -1.6876  2.4222  4.0165
   43CHL1  H26B 3177   1.410   2.249   4.369  1.0744  0.6809 -0.6804
   43CHL1  H26C 3178   1.343   2.334   4.523 -1.3837  1.3295 -0.6117
   43CHL1   C27 3179   1.570   2.466   4.381  1.2973  0.0766  1.1256
   43CHL1  H27A 3180   1.608   2.372   4.336 -1.7024 -1.4866  1.5842
   43CHL1  H27B 3181   1.625   2.550   4.333  0.4291 -0.7122 -1.3649
   43CHL1  H27C 3182   1.574   2.459   4.492 -2.0691 -1.5466  1.2381
   44CHL1    C3 3183   5.002   6.564   2.580  0.3368 -0.3556 -0.4710
   44CHL1    H3 3184   4.959   6.462   2.577 -0.2945 -0.0777 -2.9643
   44CHL1    O3 3185   5.060   6.583   2.447 -0.6110  0.3947 -0.4497
   44CHL1   H3' 3186   5.111   6.664   2.451  0.0451  0.1043 -2.0763
   44CHL1    C4 3187   4.899   6.674   2.606 -0.0964 -0.2350  0.4867
   44CHL1   H4A 3188   4.944   6.774   2.593 -1.6628  0.3581 -0.7442
   44CHL1   H4B 3189   4.832   6.673   2.517  0.6193 -1.2764 -0.0698
   44CHL1    C5 3190   4.830   6.662   2.739 -0.4613  0.1925 -0.2221
   44CHL1    C6 3191   4.698   6.646   2.755 -0.2950  0.6683 -0.0784
   44CHL1    H6 3192   4.626   6.639   2.672  2.3197 -3.7786 -2.2943
   44CHL1    C7 3193   4.631   6.646   2.889  0.6715  0.4056  0.6120
   44CHL1   H7A 3194   4.544   6.715   2.890  1.1578  1.0352  1.7703
   44CHL1   H7B 3195   4.599   6.543   2.919 -1.2333  0.0030 -2.4062
   44CHL1    C8 3196   4.719   6.698   3.011  0.1036 -0.3488  0.1465
   44CHL1    H8 3197   4.720   6.809   3.007  1.1127 -0.3478  0.1785
   44CHL1   C14 3198   4.668   6.639   3.145 -0.1800 -0.0785  0.0720
   44CHL1   H14 3199   4.681   6.529   3.134  1.2700 -0.1520  2.1089
   44CHL1   C15 3200   4.517   6.657   3.167 -0.0849 -0.0676 -0.4427
   44CHL1  H15A 3201   4.479   6.753   3.127  1.0727  0.5204 -0.1723
   44CHL1  H15B 3202   4.455   6.575   3.125  1.4187 -0.9809 -0.9651
   44CHL1   C16 3203   4.503   6.638   3.322 -0.5776  0.2682 -0.0699
   44CHL1  H16A 3204   4.446   6.730   3.347 -1.3864  0.0003 -0.9121
   44CHL1  H16B 3205   4.443   6.552   3.357 -0.4149  0.2456  0.1582
   44CHL1   C17 3206   4.650   6.631   3.376 -0.3492 -0.2919 -0.7050
   44CHL1   H17 3207   4.663   6.521   3.381 -4.4511 -0.8879  2.1918
   44CHL1   C13 3208   4.742   6.688   3.264 -0.1327 -0.6539  0.6066
   44CHL1   C18 3209   4.732   6.845   3.271 -0.1677  0.1740  0.6248
   44CHL1  H18A 3210   4.629   6.884   3.286 -0.3173 -0.1129  0.3552
   44CHL1  H18B 3211   4.792   6.886   3.355 -0.2665 -0.4479  1.0031
   44CHL1  H18C 3212   4.772   6.893   3.179 -1.5337 -0.2673 -0.2202
   44CHL1   C12 3213   4.884   6.642   3.247 -0.2154  0.9912  0.2130
   44CHL1  H12A 3214   4.952   6.674   3.329  0.2232 -0.9136  0.6387
   44CHL1  H12B 3215   4.895   6.532   3.245  1.5470  1.0880  2.0635
   44CHL1   C11 3216   4.953   6.688   3.118 -0.6850 -0.6123 -0.0229
   44CHL1  H11A 3217   4.968   6.798   3.122 -1.7257 -0.3830 -1.6179
   44CHL1  H11B 3218   5.054   6.640   3.111  1.6189  3.8873 -1.2975
   44CHL1    C9 3219   4.862   6.648   2.994  0.3356  0.0005  0.5561
   44CHL1    H9 3220   4.843   6.539   3.006 -1.1327  0.2327  0.4985
   44CHL1   C10 3221   4.931   6.672   2.854  0.3321  0.0238  0.1599
   44CHL1   C19 3222   4.991   6.814   2.858 -0.1043  0.2027  0.4547
   44CHL1  H19A 3223   4.933   6.903   2.890  1.9019  1.1272  1.7808
   44CHL1  H19B 3224   5.079   6.813   2.926 -1.0828 -2.3817  1.8221
   44CHL1  H19C 3225   5.019   6.855   2.758 -2.7601 -1.0879 -0.9290
   44CHL1    C1 3226   5.053   6.577   2.823 -0.6840  0.2464 -1.0146
   44CHL1   H1A 3227   5.134   6.597   2.897  0.2140 -1.3642 -1.5128
   44CHL1   H1B 3228   5.024   6.473   2.847  1.6504  0.0292  1.2601
   44CHL1    C2 3229   5.116   6.576   2.684  0.3276 -0.3232  0.5982
   44CHL1   H2A 3230   5.196   6.501   2.669  0.5393 -0.2388  1.2394
   44CHL1   H2B 3231   5.161   6.677   2.671  2.4242 -0.9870  2.0890
   44CHL1   C20 3232   4.666   6.696   3.508 -0.2859  0.1235  0.1693
   44CHL1   H20 3233   4.652   6.806   3.501  1.3858  0.2771 -1.9625
   44CHL1   C21 3234   4.802   6.661   3.572  0.0331 -0.5827 -0.5247
   44CHL1  H21A 3235   4.804   6.550   3.576 -4.2536 -0.7960  0.5026
   44CHL1  H21B 3236   4.805   6.699   3.676 -1.2639 -0.5572 -0.4890
   44CHL1  H21C 3237   4.898   6.694   3.526  0.9539 -0.2604  1.5147
   44CHL1   C22 3238   4.556   6.644   3.603 -0.0698  0.8798  0.1942
   44CHL1  H22A 3239   4.457   6.682   3.569 -0.8860 -0.1826  1.2997
   44CHL1  H22B 3240   4.549   6.533   3.592 -0.4385  1.0652 -1.9799
   44CHL1   C23 3241   4.570   6.671   3.752 -0.2893  0.7520  0.2043
   44CHL1  H23A 3242   4.663   6.620   3.783  2.2931  2.9552 -3.1777
   44CHL1  H23B 3243   4.591   6.779   3.764 -0.3717  0.6887  0.9527
   44CHL1   C24 3244   4.451   6.636   3.842  0.0477 -0.3203 -0.2091
   44CHL1  H24A 3245   4.359   6.665   3.787  1.2415 -0.4450 -2.3781
   44CHL1  H24B 3246   4.433   6.527   3.857 -0.1293 -0.2668 -0.0290
   44CHL1   C25 3247   4.449   6.689   3.991  0.4679 -0.1667  0.0352
   44CHL1   H25 3248   4.484   6.794   3.982 -0.7684  0.0939 -2.2050
   44CHL1   C26 3249   4.308   6.681   4.050  0.8897  0.0228 -0.4693
   44CHL1  H26A 3250   4.243   6.729   3.974 -0.6815  0.8939  1.3244
   44CHL1  H26B 3251   4.283   6.573   4.044  0.1663  0.1090  0.7210
   44CHL1  H26C 3252   4.305   6.734   4.148  0.6609 -1.4075  0.3208
   44CHL1   C27 3253   4.550   6.617   4.088 -0.4910 -0.4711 -0.2088
   44CHL1  H27A 3254   4.556   6.658   4.190  2.4100  1.1861 -0.9514
   44CHL1  H27B 3255   4.525   6.509   4.091  1.0498 -0.8850 -1.2454
   44CHL1  H27C 3256   4.649   6.613   4.039 -0.8676 -2.7521 -0.8944
   45CHL1    C3 3257   0.328   0.529   2.692  0.1592 -0.0108 -0.2011
   45CHL1    H3 3258   0.320   0.421   2.717  1.7413  0.1097  1.0424
   45CHL1    O3 3259   0.314   0.553   2.553 -0.4811 -0.0911 -0.1307
   45CHL1   H3' 3260   0.220   0.569   2.540  0.1507  2.2926 -2.5363
   45CHL1    C4 3261   0.210   0.600   2.764 -0.0528 -0.5223  0.4002
   45CHL1   H4A 3262   0.206   0.705   2.727 -2.9477 -1.4113 -2.3432
   45CHL1   H4B 3263   0.116   0.554   2.725 -1.2129 -0.3406  2.8202
   45CHL1    C5 3264   0.214   0.590   2.914 -0.1665  0.4274 -0.4187
   45CHL1    C6 3265   0.103   0.539   2.988 -0.7636 -0.9535 -0.2125
   45CHL1    H6 3266   0.014   0.501   2.937 -1.0329 -0.5583 -0.0368
   45CHL1    C7 3267   0.096   0.540   3.139 -0.2311 -0.3661  0.6892
   45CHL1   H7A 3268   0.003   0.590   3.173 -0.5164 -1.3269  1.3874
   45CHL1   H7B 3269   0.105   0.436   3.178  1.4483 -0.0871  1.1260
   45CHL1    C8 3270   0.221   0.617   3.200  0.1276  0.3520  0.7647
   45CHL1    H8 3271   0.192   0.724   3.194 -3.5250 -0.5715 -1.1115
   45CHL1   C14 3272   0.232   0.580   3.351  0.6819  0.5195 -0.0706
   45CHL1   H14 3273   0.237   0.469   3.350 -0.5512  0.4186  1.0196
   45CHL1   C15 3274   0.111   0.610   3.439 -0.8354 -0.3634 -0.3179
   45CHL1  H15A 3275   0.083   0.716   3.422 -0.6997 -0.0504  1.2579
   45CHL1  H15B 3276   0.019   0.553   3.413 -1.0542  0.4169 -1.3143
   45CHL1   C16 3277   0.167   0.579   3.576  0.3816 -0.6038 -0.0585
   45CHL1  H16A 3278   0.129   0.657   3.645  1.4434 -0.1392  0.0273
   45CHL1  H16B 3279   0.142   0.477   3.613 -0.0815 -1.6616 -3.0211
   45CHL1   C17 3280   0.320   0.590   3.573  0.0091 -0.0270  0.4348
   45CHL1   H17 3281   0.351   0.483   3.578  0.6768  0.1410 -0.0634
   45CHL1   C13 3282   0.354   0.633   3.431 -0.6550 -0.3062  0.3346
   45CHL1   C18 3283   0.345   0.784   3.426  0.3746 -0.2478 -0.2450
   45CHL1  H18A 3284   0.437   0.837   3.458  0.7943 -0.2374 -1.4244
   45CHL1  H18B 3285   0.345   0.814   3.319  0.3175 -1.7127 -0.6772
   45CHL1  H18C 3286   0.260   0.820   3.487  1.5680  3.2079 -0.3937
   45CHL1   C12 3287   0.479   0.577   3.364 -0.0567  0.4569  0.1626
   45CHL1  H12A 3288   0.575   0.594   3.417  0.6229  0.2192 -0.9489
   45CHL1  H12B 3289   0.475   0.466   3.370  1.4576  0.4270  0.9034
   45CHL1   C11 3290   0.484   0.604   3.218  0.3412 -0.1227 -0.6043
   45CHL1  H11A 3291   0.512   0.711   3.212  1.9884 -0.2929  2.4550
   45CHL1  H11B 3292   0.569   0.552   3.168 -0.0587 -0.9543 -0.4497
   45CHL1    C9 3293   0.356   0.582   3.132 -0.7098 -0.1081  0.3768
   45CHL1    H9 3294   0.349   0.471   3.135 -2.8619  0.0195  2.0871
   45CHL1   C10 3295   0.345   0.633   2.982  0.4884 -0.7520  0.2998
   45CHL1   C19 3296   0.346   0.785   2.978  0.7988  0.2309  0.1355
   45CHL1  H19A 3297   0.261   0.816   3.042  0.0477 -2.6732  0.6773
   45CHL1  H19B 3298   0.447   0.813   3.014  1.4528 -1.5772 -0.1859
   45CHL1  H19C 3299   0.340   0.805   2.869  0.2677 -0.5759  0.0060
   45CHL1    C1 3300   0.470   0.574   2.901  0.5480 -0.6363  0.1535
   45CHL1   H1A 3301   0.572   0.605   2.933  0.6092  1.8227 -2.1029
   45CHL1   H1B 3302   0.461   0.463   2.908  1.6740 -0.8279 -0.9870
   45CHL1    C2 3303   0.461   0.593   2.752 -0.5729 -0.1503  0.0554
   45CHL1   H2A 3304   0.547   0.553   2.693  0.5813 -0.3122  1.7767
   45CHL1   H2B 3305   0.450   0.696   2.713 -1.1807 -0.1878  0.1210
   45CHL1   C20 3306   0.390   0.653   3.695 -0.1232 -0.1102 -0.2070
   45CHL1   H20 3307   0.368   0.761   3.704  0.4243  0.0225 -0.4006
   45CHL1   C21 3308   0.547   0.653   3.678  0.4279  0.1309  0.3134
   45CHL1  H21A 3309   0.566   0.700   3.579  0.4542 -0.4139  0.0592
   45CHL1  H21B 3310   0.584   0.550   3.660 -1.6817 -0.5301 -0.5050
   45CHL1  H21C 3311   0.604   0.715   3.751 -0.1016  0.8484  0.1326
   45CHL1   C22 3312   0.343   0.580   3.831 -0.9454 -0.2099 -0.7458
   45CHL1  H22A 3313   0.232   0.578   3.837 -1.1165  1.2833 -2.5134
   45CHL1  H22B 3314   0.383   0.477   3.835 -0.1988  0.1192  1.7682
   45CHL1   C23 3315   0.398   0.650   3.954 -0.4243 -0.3351 -0.0359
   45CHL1  H23A 3316   0.505   0.623   3.962 -0.5920 -0.7004  1.3036
   45CHL1  H23B 3317   0.389   0.760   3.946  1.3648 -0.1857 -0.3598
   45CHL1   C24 3318   0.328   0.603   4.081 -0.4310  0.3915 -0.3653
   45CHL1  H24A 3319   0.245   0.673   4.104  1.0038  1.7679  0.8823
   45CHL1  H24B 3320   0.291   0.499   4.071  0.2028  0.1338 -0.0815
   45CHL1   C25 3321   0.439   0.596   4.194 -0.4421 -0.6082 -0.8726
   45CHL1   H25 3322   0.515   0.519   4.165 -2.1275 -1.6399 -2.8233
   45CHL1   C26 3323   0.489   0.741   4.214  0.0006 -0.5184  1.0215
   45CHL1  H26A 3324   0.548   0.758   4.307 -0.7420  2.2095  1.0736
   45CHL1  H26B 3325   0.537   0.789   4.126 -0.9227  0.5038  1.0705
   45CHL1  H26C 3326   0.402   0.809   4.222  1.0761  0.9040  1.0117
   45CHL1   C27 3327   0.387   0.549   4.330 -0.0501  1.2876 -0.2745
   45CHL1  H27A 3328   0.309   0.619   4.366 -1.2960 -0.4888  0.6915
   45CHL1  H27B 3329   0.344   0.446   4.330 -0.3083  1.3840 -1.3483
   45CHL1  H27C 3330   0.480   0.544   4.392 -0.2441  2.0923  0.0932
   46CHL1    C3 3331   2.862   0.943   2.703 -0.3529 -0.3762  0.2597
   46CHL1    H3 3332   2.939   0.886   2.759  0.3085  0.9866  0.8013
   46CHL1    O3 3333   2.861   0.908   2.566 -0.9028 -0.4604 -0.0206
   46CHL1   H3' 3334   2.828   0.992   2.532 -0.9814 -0.4000  0.2020
   46CHL1    C4 3335   2.726   0.931   2.766 -0.0694 -0.1642 -0.0324
   46CHL1   H4A 3336   2.653   0.994   2.712  0.7925 -0.2438 -1.3549
   46CHL1   H4B 3337   2.686   0.833   2.733  0.5383 -0.5750  0.4248
   46CHL1    C5 3338   2.732   0.971   2.912 -0.1666  0.3633  0.5953
   46CHL1    C6 3339   2.705   0.874   3.005 -0.1551 -0.7259  0.2377
   46CHL1    H6 3340   2.679   0.774   2.967  0.6216  0.2813 -3.3345
   46CHL1    C7 3341   2.715   0.911   3.151  0.4198  0.0969  0.0076
   46CHL1   H7A 3342   2.641   0.857   3.214 -0.1276 -0.9278 -1.4581
   46CHL1   H7B 3343   2.810   0.866   3.186 -0.9432 -0.9231  2.6646
   46CHL1    C8 3344   2.719   1.053   3.197  0.2238 -0.2086  0.5743
   46CHL1    H8 3345   2.616   1.093   3.181  0.2351 -0.5257 -0.3693
   46CHL1   C14 3346   2.753   1.068   3.345  0.6912 -0.1912  0.5423
   46CHL1   H14 3347   2.851   1.016   3.355  0.8839  0.4154  1.9529
   46CHL1   C15 3348   2.669   0.992   3.451 -0.6329 -0.5248 -0.4733
   46CHL1  H15A 3349   2.561   1.002   3.428 -0.5411 -0.3952 -0.8597
   46CHL1  H15B 3350   2.692   0.884   3.460  2.0513 -0.3216 -3.0799
   46CHL1   C16 3351   2.702   1.067   3.582 -0.2721  0.0486 -0.9757
   46CHL1  H16A 3352   2.608   1.098   3.631 -1.2734 -4.2419  0.2389
   46CHL1  H16B 3353   2.748   1.007   3.664  1.8474 -0.8726 -2.7112
   46CHL1   C17 3354   2.803   1.188   3.545  0.2584  0.7500 -0.1538
   46CHL1   H17 3355   2.903   1.139   3.546  0.9909  2.1156 -1.7686
   46CHL1   C13 3356   2.773   1.209   3.389  0.0734 -0.6807  0.0051
   46CHL1   C18 3357   2.636   1.290   3.392 -0.7630 -0.2218 -0.7007
   46CHL1  H18A 3358   2.603   1.282   3.286 -0.3704  0.7465 -0.9078
   46CHL1  H18B 3359   2.568   1.243   3.466  2.2376 -2.2106  1.0140
   46CHL1  H18C 3360   2.654   1.394   3.426  1.3713 -0.5262 -0.7654
   46CHL1   C12 3361   2.883   1.276   3.300  0.3373  0.2141  0.0339
   46CHL1  H12A 3362   2.885   1.378   3.344 -0.8570  0.7999 -1.1944
   46CHL1  H12B 3363   2.978   1.232   3.337  0.5638 -0.1947 -0.9862
   46CHL1   C11 3364   2.855   1.269   3.153  0.5266 -0.5086 -0.2717
   46CHL1  H11A 3365   2.772   1.339   3.132  0.9670 -0.5243 -2.2832
   46CHL1  H11B 3366   2.948   1.306   3.103  0.1234  0.2889 -0.4447
   46CHL1    C9 3367   2.822   1.121   3.100  0.3150 -0.0688 -0.0434
   46CHL1    H9 3368   2.912   1.059   3.120  0.6860  0.5347  0.2032
   46CHL1   C10 3369   2.782   1.110   2.952 -0.5072  0.2094  0.7548
   46CHL1   C19 3370   2.685   1.225   2.918  0.1351 -0.6352 -0.1508
   46CHL1  H19A 3371   2.657   1.227   2.811  0.5489 -0.3855 -0.2581
   46CHL1  H19B 3372   2.603   1.218   2.993  1.1262 -1.5340  0.9066
   46CHL1  H19C 3373   2.746   1.316   2.936  0.7374 -1.0570 -0.0267
   46CHL1    C1 3374   2.910   1.133   2.867 -0.4186 -0.1862  0.0743
   46CHL1   H1A 3375   2.921   1.243   2.875 -0.5395 -0.3058  2.6282
   46CHL1   H1B 3376   3.000   1.085   2.911 -1.1762 -1.6540  0.0974
   46CHL1    C2 3377   2.904   1.088   2.717  0.4445 -0.0735  0.5690
   46CHL1   H2A 3378   3.003   1.110   2.671  1.8720 -1.4261  2.7714
   46CHL1   H2B 3379   2.819   1.154   2.688 -0.0221 -0.8228  0.2061
   46CHL1   C20 3380   2.798   1.295   3.654 -0.2312  0.5039  0.5582
   46CHL1   H20 3381   2.691   1.324   3.650 -1.1962 -2.7716 -1.6008
   46CHL1   C21 3382   2.896   1.410   3.609  0.7444 -0.3447 -0.6715
   46CHL1  H21A 3383   3.006   1.395   3.605  0.4570 -2.4881 -1.9465
   46CHL1  H21B 3384   2.897   1.500   3.674 -3.4267 -0.7469  0.2666
   46CHL1  H21C 3385   2.850   1.449   3.516 -0.6349 -1.1493 -0.3605
   46CHL1   C22 3386   2.841   1.257   3.801 -0.0490  0.2973  0.4125
   46CHL1  H22A 3387   2.792   1.165   3.839  0.5776  0.3086  1.2698
   46CHL1  H22B 3388   2.950   1.240   3.787 -0.2329  0.6094 -1.8205
   46CHL1   C23 3389   2.795   1.353   3.913 -0.5763  0.3248 -0.1999
   46CHL1  H23A 3390   2.818   1.457   3.882  0.0957  0.2405  0.0068
   46CHL1  H23B 3391   2.684   1.352   3.921 -0.8232  0.4034 -2.8762
   46CHL1   C24 3392   2.845   1.319   4.054  0.1104  0.0807 -0.7894
   46CHL1  H24A 3393   2.807   1.392   4.130  0.2589 -1.0642  0.4254
   46CHL1  H24B 3394   2.805   1.222   4.089  0.8637 -0.4652 -1.4125
   46CHL1   C25 3395   2.994   1.322   4.084  0.5869 -0.2372  0.2353
   46CHL1   H25 3396   3.038   1.254   4.007  0.8922  0.0974  0.1142
   46CHL1   C26 3397   3.045   1.467   4.070 -0.0138  0.1426 -0.1029
   46CHL1  H26A 3398   3.029   1.522   3.974 -0.9831  0.6737  0.3432
   46CHL1  H26B 3399   3.000   1.524   4.154 -1.6393 -2.8728  1.2107
   46CHL1  H26C 3400   3.156   1.469   4.074  0.1161 -1.2645 -1.7256
   46CHL1   C27 3401   3.029   1.266   4.220  0.3867 -0.2444  0.1412
   46CHL1  H27A 3402   2.965   1.322   4.290  2.1193  0.3831  1.2755
   46CHL1  H27B 3403   3.016   1.157   4.235 -1.1388 -0.2604 -0.9828
   46CHL1  H27C 3404   3.136   1.284   4.244  0.0556  0.0645  1.4576
   47CHL1    C3 3405   0.922   2.794   2.576 -0.7949  0.5700  0.5008
   47CHL1    H3 3406   0.989   2.881   2.589  0.0471  0.6214 -3.0558
   47CHL1    O3 3407   0.929   2.770   2.435  0.3983  0.2197  0.0179
   47CHL1   H3' 3408   1.021   2.750   2.418 -0.0196 -0.6850 -1.3728
   47CHL1    C4 3409   0.969   2.667   2.656 -0.4862  0.4567 -0.8529
   47CHL1   H4A 3410   0.903   2.578   2.641 -0.1230  0.0524 -0.1098
   47CHL1   H4B 3411   1.072   2.638   2.630  0.2380 -0.7397  2.7499
   47CHL1    C5 3412   0.980   2.693   2.800 -0.3046  0.1021 -0.2105
   47CHL1    C6 3413   1.098   2.679   2.872 -0.2683  0.0647 -0.2027
   47CHL1    H6 3414   1.188   2.641   2.822 -1.3177  0.9907 -2.9618
   47CHL1    C7 3415   1.112   2.683   3.022 -0.0994  0.1243 -0.4338
   47CHL1   H7A 3416   1.146   2.587   3.065 -1.4939  0.2726  1.1051
   47CHL1   H7B 3417   1.181   2.759   3.065 -1.2881  0.7994  0.3679
   47CHL1    C8 3418   0.971   2.702   3.085  0.6175 -0.8833  0.4683
   47CHL1    H8 3419   0.923   2.602   3.090 -1.0488 -0.2679 -1.7306
   47CHL1   C14 3420   0.988   2.770   3.226 -0.3814  0.4132  0.1853
   47CHL1   H14 3421   1.018   2.874   3.198 -0.9788  0.4377 -0.3938
   47CHL1   C15 3422   1.096   2.708   3.318 -0.6127  0.3505  0.2205
   47CHL1  H15A 3423   1.082   2.598   3.314 -0.3505  0.3579 -1.1507
   47CHL1  H15B 3424   1.197   2.733   3.280 -0.2245 -1.9145 -0.3932
   47CHL1   C16 3425   1.066   2.769   3.456  0.4595 -0.6937  0.6939
   47CHL1  H16A 3426   1.063   2.679   3.521  0.5531  0.4648  2.3423
   47CHL1  H16B 3427   1.131   2.829   3.523 -1.5231 -0.7365  2.7624
   47CHL1   C17 3428   0.923   2.838   3.445 -0.0559 -0.1576 -0.2911
   47CHL1   H17 3429   0.951   2.945   3.439  0.5232 -0.3259 -0.6561
   47CHL1   C13 3430   0.866   2.787   3.309 -0.3857  0.0544 -0.2943
   47CHL1   C18 3431   0.812   2.645   3.331 -0.0778  0.3330 -0.2064
   47CHL1  H18A 3432   0.708   2.664   3.365 -0.5383  1.1799 -1.9991
   47CHL1  H18B 3433   0.799   2.575   3.246  0.1551 -1.9741  1.5471
   47CHL1  H18C 3434   0.873   2.589   3.406  4.9686  1.8848 -2.6808
   47CHL1   C12 3435   0.775   2.877   3.225 -0.0392 -0.4835 -0.5964
   47CHL1  H12A 3436   0.677   2.883   3.277 -0.0009 -3.7787  0.0577
   47CHL1  H12B 3437   0.813   2.981   3.218 -0.4860 -0.3108 -0.5146
   47CHL1   C11 3438   0.743   2.814   3.086 -0.2984 -0.6702 -0.2870
   47CHL1  H11A 3439   0.682   2.724   3.105 -0.1521 -0.7071  0.0115
   47CHL1  H11B 3440   0.672   2.879   3.029  0.5726 -0.2392 -0.9180
   47CHL1    C9 3441   0.869   2.793   2.997 -0.5717  0.9116  0.3549
   47CHL1    H9 3442   0.923   2.890   2.990  0.2086  0.3962 -1.4485
   47CHL1   C10 3443   0.843   2.747   2.857 -0.3985 -0.0225  0.1513
   47CHL1   C19 3444   0.739   2.644   2.853  0.1057  0.3590  0.5324
   47CHL1  H19A 3445   0.766   2.557   2.916  1.8820 -0.0460 -0.7192
   47CHL1  H19B 3446   0.643   2.689   2.887 -0.6529 -1.1744  0.4758
   47CHL1  H19C 3447   0.728   2.595   2.754  1.5885 -0.2978  0.6689
   47CHL1    C1 3448   0.792   2.868   2.772  0.0586 -1.0353 -0.4415
   47CHL1   H1A 3449   0.698   2.906   2.817  0.9278 -0.2820  0.8271
   47CHL1   H1B 3450   0.854   2.960   2.786 -0.0007 -0.6911 -2.2539
   47CHL1    C2 3451   0.781   2.848   2.620  0.6218  0.4849  0.3396
   47CHL1   H2A 3452   0.741   2.948   2.594  1.7133  0.5701 -1.1615
   47CHL1   H2B 3453   0.717   2.759   2.602  2.8086 -0.9668 -0.8946
   47CHL1   C20 3454   0.836   2.810   3.578 -0.6005 -0.0687  0.2749
   47CHL1   H20 3455   0.814   2.701   3.577 -3.7702  0.3324  3.5553
   47CHL1   C21 3456   0.703   2.885   3.575 -0.3450  0.6656 -0.5092
   47CHL1  H21A 3457   0.657   2.899   3.675  1.5249  0.1752  0.4731
   47CHL1  H21B 3458   0.627   2.825   3.521 -0.8356  0.1816  0.6824
   47CHL1  H21C 3459   0.710   2.983   3.523  0.6152 -0.0590 -1.8129
   47CHL1   C22 3460   0.913   2.844   3.709 -0.6663  0.4061  0.4964
   47CHL1  H22A 3461   1.022   2.843   3.688 -0.7434  0.2859  0.1097
   47CHL1  H22B 3462   0.883   2.941   3.755 -1.5731 -0.7802  2.5821
   47CHL1   C23 3463   0.899   2.736   3.819 -0.1312  0.0636  0.3131
   47CHL1  H23A 3464   0.793   2.734   3.853 -0.3006  1.7898 -0.0375
   47CHL1  H23B 3465   0.929   2.634   3.788  1.0951  0.5407 -0.1117
   47CHL1   C24 3466   1.008   2.759   3.935  0.2582  0.3130 -0.0875
   47CHL1  H24A 3467   1.114   2.749   3.903  1.2361  2.0985  2.3108
   47CHL1  H24B 3468   1.001   2.867   3.959 -0.3715  0.1062  0.6990
   47CHL1   C25 3469   0.988   2.679   4.067 -0.4971 -0.3290 -0.4770
   47CHL1   H25 3470   0.879   2.687   4.086 -0.6438 -0.5210 -1.2187
   47CHL1   C26 3471   1.022   2.531   4.057 -0.9240  0.3540 -0.1685
   47CHL1  H26A 3472   0.934   2.489   4.003 -0.6922  0.4279 -0.6124
   47CHL1  H26B 3473   1.113   2.510   3.996  0.0582  0.6981  1.1252
   47CHL1  H26C 3474   1.031   2.472   4.151 -1.0864  2.0478  0.9412
   47CHL1   C27 3475   1.066   2.732   4.181 -0.0326  0.2810 -0.1461
   47CHL1  H27A 3476   1.031   2.675   4.270  1.8627 -0.1714  0.3613
   47CHL1  H27B 3477   1.176   2.719   4.174 -0.3925 -2.5844 -3.2259
   47CHL1  H27C 3478   1.042   2.839   4.196 -0.2544  0.1613  0.3970
   48CHL1    C3 3479   1.855   5.828   2.722  0.3652 -0.2993  0.8391
   48CHL1    H3 3480   1.752   5.790   2.735  0.8564 -1.8553  0.3822
   48CHL1    O3 3481   1.875   5.854   2.584  0.6337  0.4052 -0.4568
   48CHL1   H3' 3482   1.969   5.872   2.573  0.2705  2.2590 -0.9725
   48CHL1    C4 3483   1.861   5.972   2.795 -0.0599 -0.2675  0.1153
   48CHL1   H4A 3484   1.954   6.023   2.764  0.3493 -1.0286  0.0632
   48CHL1   H4B 3485   1.767   6.020   2.759  0.8453  0.7553 -0.9554
   48CHL1    C5 3486   1.863   5.960   2.938  0.0411 -0.1172 -0.1180
   48CHL1    C6 3487   1.773   6.027   3.012  0.0526  0.1166 -0.0902
   48CHL1    H6 3488   1.708   6.098   2.959  1.2040  0.8957 -0.5076
   48CHL1    C7 3489   1.759   6.021   3.155  0.0883 -0.3852 -0.1253
   48CHL1   H7A 3490   1.758   6.127   3.189  0.1710  0.3172 -2.1824
   48CHL1   H7B 3491   1.659   5.977   3.177  0.3715 -1.3170 -0.6750
   48CHL1    C8 3492   1.876   5.946   3.232  0.4134  0.0831  0.9171
   48CHL1    H8 3493   1.956   6.022   3.227 -0.3850  0.8307 -2.4941
   48CHL1   C14 3494   1.837   5.916   3.371 -0.1891  0.2390 -0.7090
   48CHL1   H14 3495   1.759   5.837   3.363 -0.6642  0.5978  0.1595
   48CHL1   C15 3496   1.776   6.031   3.456 -1.0285  0.5597  0.1215
   48CHL1  H15A 3497   1.843   6.119   3.452  0.4584 -0.5827 -1.7131
   48CHL1  H15B 3498   1.671   6.055   3.430 -0.6627  0.3549 -1.7153
   48CHL1   C16 3499   1.787   5.970   3.599  0.0185  0.0012  0.2823
   48CHL1  H16A 3500   1.848   6.049   3.649 -0.6643  0.0483  1.0738
   48CHL1  H16B 3501   1.689   5.952   3.648 -1.3055 -0.4566 -2.3995
   48CHL1   C17 3502   1.880   5.842   3.587 -0.0911 -0.0107  0.7649
   48CHL1   H17 3503   1.811   5.755   3.581  0.8292 -0.6494 -1.0939
   48CHL1   C13 3504   1.948   5.852   3.452  0.4615 -0.1743  0.3170
   48CHL1   C18 3505   2.061   5.947   3.476 -0.3693 -0.2620 -0.0314
   48CHL1  H18A 3506   2.098   6.002   3.387 -1.0823  0.2496 -0.0214
   48CHL1  H18B 3507   2.033   6.024   3.551 -1.2418 -1.4257  0.8852
   48CHL1  H18C 3508   2.152   5.890   3.502 -0.8086 -0.0406  2.2127
   48CHL1   C12 3509   1.985   5.717   3.382 -0.1694 -0.2034  0.2271
   48CHL1  H12A 3510   2.067   5.664   3.436 -0.5060  0.2102  1.1761
   48CHL1  H12B 3511   1.898   5.648   3.386  1.2560 -2.0898  0.1163
   48CHL1   C11 3512   2.022   5.737   3.231  0.1421  0.4867 -0.2486
   48CHL1  H11A 3513   2.121   5.786   3.226  0.2521  0.2333 -0.5663
   48CHL1  H11B 3514   2.020   5.637   3.183  2.0175  0.7143 -0.8459
   48CHL1    C9 3515   1.914   5.826   3.155  0.0188 -0.1469  1.4718
   48CHL1    H9 3516   1.822   5.765   3.156  0.8403 -1.6776 -2.2941
   48CHL1   C10 3517   1.952   5.850   3.003 -0.5224  0.4459 -0.3690
   48CHL1   C19 3518   2.097   5.900   2.995  0.2371 -0.7238 -0.3381
   48CHL1  H19A 3519   2.158   5.810   3.016 -0.5907 -1.1359  0.3870
   48CHL1  H19B 3520   2.117   5.933   2.891 -2.8492  0.6942 -0.6152
   48CHL1  H19C 3521   2.111   5.981   3.070  0.9389  0.3171 -1.5433
   48CHL1    C1 3522   1.941   5.716   2.928 -0.1055  0.1831  0.3149
   48CHL1   H1A 3523   2.020   5.648   2.967  1.3667  1.3338 -0.5822
   48CHL1   H1B 3524   1.844   5.675   2.965 -0.0797  1.8664  2.4663
   48CHL1    C2 3525   1.954   5.725   2.773 -0.1584  0.4267 -0.9691
   48CHL1   H2A 3526   1.944   5.626   2.724 -0.5952  0.4481 -0.9261
   48CHL1   H2B 3527   2.055   5.771   2.765 -1.0949  2.9347  0.4092
   48CHL1   C20 3528   1.966   5.825   3.707 -0.2556 -0.8829 -0.6697
   48CHL1   H20 3529   2.029   5.916   3.718  0.6158 -1.5793  0.4174
   48CHL1   C21 3530   2.061   5.701   3.704 -0.9599 -0.2003 -0.1925
   48CHL1  H21A 3531   2.105   5.674   3.802  1.6084 -1.9969 -1.7288
   48CHL1  H21B 3532   2.144   5.714   3.631 -1.2521 -3.0473 -1.1479
   48CHL1  H21C 3533   2.002   5.612   3.673 -1.5307  0.5545 -1.3442
   48CHL1   C22 3534   1.878   5.829   3.832  0.9231 -0.5907 -0.4367
   48CHL1  H22A 3535   1.950   5.811   3.915 -0.0161 -1.9676  0.1207
   48CHL1  H22B 3536   1.829   5.928   3.840 -0.4586 -1.1266 -1.7531
   48CHL1   C23 3537   1.771   5.717   3.839  0.5808 -0.0639 -0.3413
   48CHL1  H23A 3538   1.687   5.756   3.777  0.4058 -1.2001 -0.8516
   48CHL1  H23B 3539   1.811   5.624   3.793  0.5732 -0.4457  0.4041
   48CHL1   C24 3540   1.735   5.692   3.988  0.4023 -0.0664 -0.6337
   48CHL1  H24A 3541   1.817   5.676   4.061  0.4013  3.1917  0.2248
   48CHL1  H24B 3542   1.700   5.786   4.036  2.4608  0.5961 -0.3374
   48CHL1   C25 3543   1.623   5.586   4.001 -0.2593 -0.9351 -0.1561
   48CHL1   H25 3544   1.654   5.490   3.954  1.8861 -0.6337  0.5143
   48CHL1   C26 3545   1.598   5.561   4.154  0.6566  0.5883 -0.2680
   48CHL1  H26A 3546   1.532   5.477   4.183  1.3396  0.8057  2.0951
   48CHL1  H26B 3547   1.693   5.537   4.206  0.1014 -0.3945  0.3222
   48CHL1  H26C 3548   1.545   5.652   4.191 -0.9875 -0.1263 -0.7731
   48CHL1   C27 3549   1.492   5.634   3.940  0.0120 -0.3805 -0.0966
   48CHL1  H27A 3550   1.467   5.722   4.002 -0.3906 -1.1968  0.9341
   48CHL1  H27B 3551   1.510   5.665   3.835  0.8165 -0.9788 -0.1465
   48CHL1  H27C 3552   1.411   5.558   3.935 -1.3923  1.1467 -2.6673
   49CHL1    C3 3553   5.215   0.905   2.776 -0.6515 -0.7581  0.5165
   49CHL1    H3 3554   5.200   0.795   2.782 -1.2444 -0.7325 -0.3326
   49CHL1    O3 3555   5.214   0.946   2.635  0.2721 -0.3557  0.2278
   49CHL1   H3' 3556   5.289   0.907   2.590  1.2139  2.5268 -0.9024
   49CHL1    C4 3557   5.092   0.971   2.854 -0.4283  0.3330  1.2646
   49CHL1   H4A 3558   5.095   1.082   2.843  2.0715  0.3175  1.3422
   49CHL1   H4B 3559   4.998   0.947   2.799  1.5364  0.0965 -2.3266
   49CHL1    C5 3560   5.079   0.950   2.997 -0.0660 -0.4000 -0.2130
   49CHL1    C6 3561   4.971   0.888   3.045  0.5297  0.1682  0.7608
   49CHL1    H6 3562   4.883   0.872   2.982  2.1209  1.4665 -1.9666
   49CHL1    C7 3563   4.960   0.852   3.191 -0.2181  0.1882 -0.5251
   49CHL1   H7A 3564   4.859   0.884   3.224 -0.5781 -0.5595 -0.8709
   49CHL1   H7B 3565   4.970   0.742   3.200  1.1770 -0.0491 -3.6532
   49CHL1    C8 3566   5.072   0.926   3.282 -0.4813  0.4800  0.0455
   49CHL1    H8 3567   5.035   1.030   3.290 -0.2771  0.6850 -1.3534
   49CHL1   C14 3568   5.089   0.852   3.418 -0.0510  0.9047 -0.0712
   49CHL1   H14 3569   5.115   0.745   3.404  0.1605  0.9261  0.1611
   49CHL1   C15 3570   4.962   0.839   3.502 -0.2719 -0.0852 -0.6072
   49CHL1  H15A 3571   4.901   0.932   3.500 -0.1988 -0.0365 -2.5743
   49CHL1  H15B 3572   4.904   0.751   3.470 -2.6072  0.4675  1.7845
   49CHL1   C16 3573   5.010   0.802   3.647  0.3281  0.3029 -0.5145
   49CHL1  H16A 3574   4.954   0.865   3.719  2.5678  0.2777  1.3728
   49CHL1  H16B 3575   4.987   0.700   3.684  1.6149  0.7139  1.5900
   49CHL1   C17 3576   5.163   0.819   3.629 -0.3745  0.0551 -0.6845
   49CHL1   H17 3577   5.201   0.719   3.596  1.9511  1.1006 -1.4124
   49CHL1   C13 3578   5.193   0.914   3.512  0.1900 -0.0486 -0.9347
   49CHL1   C18 3579   5.152   1.058   3.554 -0.5509  0.9431 -0.1694
   49CHL1  H18A 3580   5.214   1.095   3.639 -0.6186  0.1272  0.2390
   49CHL1  H18B 3581   5.170   1.125   3.467 -0.8306  1.1833 -0.0458
   49CHL1  H18C 3582   5.050   1.069   3.595 -0.6285 -0.1633 -0.0428
   49CHL1   C12 3583   5.332   0.905   3.444 -0.3369 -0.4090 -0.2397
   49CHL1  H12A 3584   5.410   0.957   3.504 -0.3283 -1.0528  0.3255
   49CHL1  H12B 3585   5.372   0.803   3.426 -0.5486 -0.3694 -0.9728
   49CHL1   C11 3586   5.327   0.973   3.304  0.1159  0.5599 -0.2836
   49CHL1  H11A 3587   5.316   1.082   3.325 -1.1116  0.1191  1.5663
   49CHL1  H11B 3588   5.422   0.970   3.246 -0.7016  0.0610 -1.6501
   49CHL1    C9 3589   5.203   0.924   3.219 -0.4117  0.1160 -0.2559
   49CHL1    H9 3590   5.228   0.816   3.207 -0.1168  0.3230 -1.7535
   49CHL1   C10 3591   5.205   0.982   3.079  0.2362 -0.2586  0.0653
   49CHL1   C19 3592   5.214   1.131   3.080  0.1501  0.4241  0.7956
   49CHL1  H19A 3593   5.142   1.173   3.154  0.1682  0.3169  0.8751
   49CHL1  H19B 3594   5.314   1.170   3.108  0.6208 -0.2223  0.0450
   49CHL1  H19C 3595   5.203   1.175   2.979  0.1936 -2.0257 -0.3465
   49CHL1    C1 3596   5.327   0.921   3.002 -0.2923  1.1981 -0.4482
   49CHL1   H1A 3597   5.426   0.944   3.048  0.1611 -0.1747 -0.6745
   49CHL1   H1B 3598   5.316   0.812   3.019  3.9365  0.5628 -0.5449
   49CHL1    C2 3599   5.349   0.942   2.854  0.0733 -0.0158  0.2001
   49CHL1   H2A 3600   5.422   0.869   2.812  0.7787  0.8180 -0.0573
   49CHL1   H2B 3601   5.366   1.048   2.825 -1.5580  0.5375  1.1649
   49CHL1   C20 3602   5.245   0.853   3.754 -0.0022 -0.6066  0.2780
   49CHL1   H20 3603   5.338   0.908   3.727 -0.2212 -1.5415 -2.7187
   49CHL1   C21 3604   5.289   0.708   3.807  0.2958 -0.6183 -0.0081
   49CHL1  H21A 3605   5.324   0.643   3.724  3.4027  2.0047 -0.9677
   49CHL1  H21B 3606   5.213   0.654   3.868  0.3268 -0.6725 -0.0171
   49CHL1  H21C 3607   5.380   0.728   3.869 -2.1180  0.5669  3.4922
   49CHL1   C22 3608   5.163   0.929   3.866  0.4008 -0.2631  0.0303
   49CHL1  H22A 3609   5.097   1.005   3.818  0.9005  0.0575 -0.1546
   49CHL1  H22B 3610   5.098   0.856   3.919 -0.1558 -1.7140 -2.4772
   49CHL1   C23 3611   5.263   1.001   3.959 -0.9278 -0.5743 -0.2410
   49CHL1  H23A 3612   5.337   0.925   3.993 -0.5403  0.4270  1.2409
   49CHL1  H23B 3613   5.319   1.078   3.901 -1.4436 -1.3216 -1.7944
   49CHL1   C24 3614   5.200   1.057   4.086  1.0204  0.3955  1.1570
   49CHL1  H24A 3615   5.122   1.128   4.051 -0.9817 -1.1957  2.2065
   49CHL1  H24B 3616   5.152   0.971   4.138  1.5297 -0.9300 -0.4752
   49CHL1   C25 3617   5.300   1.116   4.195  0.1361  0.3263  0.1679
   49CHL1   H25 3618   5.353   1.197   4.142  1.5470  1.4317  3.0280
   49CHL1   C26 3619   5.225   1.179   4.311 -0.3914  0.5828 -0.9053
   49CHL1  H26A 3620   5.200   1.099   4.385 -4.3584  1.4120 -1.1197
   49CHL1  H26B 3621   5.297   1.249   4.358  0.4542 -0.6813 -0.2533
   49CHL1  H26C 3622   5.141   1.245   4.281 -0.0391  2.3101  1.6291
   49CHL1   C27 3623   5.400   1.010   4.244 -0.1143  0.1711 -0.2292
   49CHL1  H27A 3624   5.473   1.059   4.311  1.2698  0.9146 -2.1944
   49CHL1  H27B 3625   5.340   0.935   4.300  3.3905 -2.6102  0.1706
   49CHL1  H27C 3626   5.460   0.961   4.164 -0.5478  0.4373 -0.7212
   50CHL1    C3 3627   3.946   0.498   2.742 -0.4481  0.2298  0.6740
   50CHL1    H3 3628   3.859   0.567   2.753 -0.2413  0.4098  1.2045
   50CHL1    O3 3629   3.963   0.466   2.600  0.5667  0.4857 -1.0488
   50CHL1   H3' 3630   3.962   0.548   2.550  0.1736 -0.3546 -2.4751
   50CHL1    C4 3631   4.069   0.568   2.797  0.3851 -0.6059 -0.4443
   50CHL1   H4A 3632   4.163   0.513   2.777  0.8158  0.8837 -2.9941
   50CHL1   H4B 3633   4.075   0.665   2.743  3.1409  0.3022  1.3116
   50CHL1    C5 3634   4.052   0.591   2.941  0.6669  0.0804  0.9347
   50CHL1    C6 3635   4.046   0.714   2.994  0.2801  0.1143  0.3387
   50CHL1    H6 3636   4.058   0.801   2.928 -2.3622 -1.0360 -1.8238
   50CHL1    C7 3637   4.026   0.736   3.138 -0.1042 -0.1182  0.0230
   50CHL1   H7A 3638   4.097   0.819   3.158  0.0419 -0.3375  0.4111
   50CHL1   H7B 3639   3.928   0.786   3.153  0.2150  0.2031  1.0745
   50CHL1    C8 3640   4.045   0.617   3.237  0.2389  0.4498  0.5848
   50CHL1    H8 3641   4.154   0.592   3.241 -0.0089 -0.4957  2.0586
   50CHL1   C14 3642   3.983   0.644   3.370  0.1719  0.1271 -0.2576
   50CHL1   H14 3643   3.875   0.658   3.347  0.2037  1.1114  0.1677
   50CHL1   C15 3644   4.033   0.769   3.449 -0.0711  0.2843  0.3022
   50CHL1  H15A 3645   4.144   0.779   3.450 -0.1865  2.3200  2.7628
   50CHL1  H15B 3646   3.996   0.859   3.395 -3.0584 -1.9165 -1.6471
   50CHL1   C16 3647   3.985   0.749   3.590 -0.1928  0.0178 -0.1270
   50CHL1  H16A 3648   4.071   0.761   3.659  0.7349 -1.0444 -1.0456
   50CHL1  H16B 3649   3.913   0.826   3.625 -1.1741 -1.4133  1.1419
   50CHL1   C17 3650   3.928   0.602   3.602 -0.3611 -0.4562 -0.0946
   50CHL1   H17 3651   3.819   0.621   3.589 -0.0413  1.5957 -0.0334
   50CHL1   C13 3652   3.983   0.529   3.472 -0.0647  0.2442  1.2137
   50CHL1   C18 3653   4.138   0.493   3.497  0.4506  0.6850  0.5299
   50CHL1  H18A 3654   4.139   0.395   3.551  1.9072  0.0690 -0.5308
   50CHL1  H18B 3655   4.188   0.461   3.403 -2.0515 -2.4503  0.0691
   50CHL1  H18C 3656   4.193   0.572   3.551  1.1769  0.1932  0.5329
   50CHL1   C12 3657   3.894   0.414   3.411 -0.9191 -0.6136  0.4210
   50CHL1  H12A 3658   3.879   0.324   3.475 -1.5320  0.6098  2.0851
   50CHL1  H12B 3659   3.795   0.463   3.392 -0.6330 -0.6068 -1.1565
   50CHL1   C11 3660   3.952   0.374   3.268 -0.9487  0.0895 -0.3832
   50CHL1  H11A 3661   4.053   0.338   3.294 -1.6251 -0.8763  1.0456
   50CHL1  H11B 3662   3.878   0.307   3.219 -2.5830  2.5014 -1.4177
   50CHL1    C9 3663   3.966   0.500   3.175 -0.1005 -0.0223  0.0191
   50CHL1    H9 3664   3.860   0.530   3.160 -1.1289 -3.5020 -0.6059
   50CHL1   C10 3665   4.016   0.463   3.024 -0.5755  0.1342 -0.1637
   50CHL1   C19 3666   4.146   0.387   3.034  0.2703 -0.6344 -0.5205
   50CHL1  H19A 3667   4.225   0.442   3.090 -0.0610 -0.4727 -0.2101
   50CHL1  H19B 3668   4.128   0.290   3.085  1.8087 -0.2803  0.7944
   50CHL1  H19C 3669   4.189   0.367   2.933  0.4296  0.6714 -0.7310
   50CHL1    C1 3670   3.913   0.378   2.956 -0.1217 -0.2151 -0.2901
   50CHL1   H1A 3671   3.900   0.280   3.006 -0.9296  0.3863  0.7157
   50CHL1   H1B 3672   3.814   0.427   2.968  1.0127  1.6623  2.5309
   50CHL1    C2 3673   3.930   0.362   2.809  0.2832  1.0544  0.2120
   50CHL1   H2A 3674   3.844   0.306   2.767 -1.7301 -0.6678  5.7769
   50CHL1   H2B 3675   4.029   0.315   2.789 -0.1874  0.5425 -1.0292
   50CHL1   C20 3676   3.943   0.544   3.740  0.6300  0.1185  0.3848
   50CHL1   H20 3677   4.051   0.528   3.758  0.0906 -1.9709  2.2366
   50CHL1   C21 3678   3.867   0.412   3.733  0.1162 -0.4397 -0.4464
   50CHL1  H21A 3679   3.869   0.361   3.832  0.9352  2.3923  1.1086
   50CHL1  H21B 3680   3.928   0.341   3.673 -1.3362 -1.6509 -0.5463
   50CHL1  H21C 3681   3.764   0.428   3.694  0.2488 -1.3330 -1.1995
   50CHL1   C22 3682   3.883   0.641   3.856 -0.0699  0.7758 -0.1940
   50CHL1  H22A 3683   3.922   0.745   3.853 -0.1567  0.8120 -0.0802
   50CHL1  H22B 3684   3.776   0.656   3.829 -0.7736 -0.2717  1.8613
   50CHL1   C23 3685   3.887   0.588   4.000  0.3119 -0.3031 -0.4102
   50CHL1  H23A 3686   3.860   0.481   4.016  2.7933 -0.7437  1.5170
   50CHL1  H23B 3687   3.991   0.594   4.040  0.0080  2.2505  0.1643
   50CHL1   C24 3688   3.808   0.678   4.100 -0.1186 -0.3544  0.2623
   50CHL1  H24A 3689   3.857   0.776   4.117  1.2259 -1.3182  2.2322
   50CHL1  H24B 3690   3.715   0.709   4.047 -0.1305 -0.4307  0.2386
   50CHL1   C25 3691   3.779   0.622   4.232 -0.0218  0.4823  0.0045
   50CHL1   H25 3692   3.873   0.605   4.289 -0.5642  1.7732  1.3493
   50CHL1   C26 3693   3.686   0.714   4.316  0.6051  0.1413 -0.5107
   50CHL1  H26A 3694   3.752   0.798   4.345  0.3523 -0.0696  0.7049
   50CHL1  H26B 3695   3.599   0.748   4.256 -0.6395 -0.9192  0.6294
   50CHL1  H26C 3696   3.650   0.651   4.400  1.2456 -0.1264 -0.4308
   50CHL1   C27 3697   3.708   0.484   4.226  0.2608 -0.2850  0.1497
   50CHL1  H27A 3698   3.631   0.491   4.147  1.0912  2.4974 -0.5209
   50CHL1  H27B 3699   3.772   0.395   4.208  1.5113  0.1458  2.1680
   50CHL1  H27C 3700   3.659   0.471   4.325  0.6635 -0.4342  0.3332
   51CHL1    C3 3701   5.525   1.510   2.833  0.2695  0.9723 -0.8770
   51CHL1    H3 3702   5.448   1.433   2.813  1.1629  0.3763 -2.1465
   51CHL1    O3 3703   5.598   1.549   2.716  0.1587  0.7916 -0.8527
   51CHL1   H3' 3704   5.677   1.595   2.744  2.6970 -2.3696 -2.1541
   51CHL1    C4 3705   5.452   1.636   2.892  0.1387  0.1333 -0.1758
   51CHL1   H4A 3706   5.530   1.713   2.910 -1.6327  1.6164  1.6072
   51CHL1   H4B 3707   5.390   1.669   2.806 -0.0575 -0.7891 -0.4015
   51CHL1    C5 3708   5.392   1.613   3.029 -0.2153 -0.1817 -0.7107
   51CHL1    C6 3709   5.261   1.636   3.049  0.3796 -0.6007  0.1594
   51CHL1    H6 3710   5.208   1.676   2.962  2.1632 -1.0957 -1.2108
   51CHL1    C7 3711   5.179   1.606   3.177 -0.2563 -0.3167  0.5029
   51CHL1   H7A 3712   5.111   1.690   3.201 -1.1238 -0.9138  0.1705
   51CHL1   H7B 3713   5.126   1.510   3.163  0.6882 -0.7002 -0.5877
   51CHL1    C8 3714   5.285   1.604   3.292 -0.1829 -0.1734  0.5342
   51CHL1    H8 3715   5.329   1.704   3.309 -1.6214  0.5881 -0.0798
   51CHL1   C14 3716   5.212   1.549   3.414  0.1099 -0.3551 -0.5321
   51CHL1   H14 3717   5.182   1.445   3.391 -0.7097  0.6029 -4.3754
   51CHL1   C15 3718   5.087   1.629   3.466 -0.3672 -0.9746 -0.7726
   51CHL1  H15A 3719   5.110   1.735   3.441 -0.9067 -1.2995 -2.8303
   51CHL1  H15B 3720   4.993   1.616   3.408 -1.3060  1.1294  0.1674
   51CHL1   C16 3721   5.073   1.599   3.613  0.2358  0.1652 -0.4355
   51CHL1  H16A 3722   5.066   1.691   3.675  2.7502  0.3754 -0.3338
   51CHL1  H16B 3723   4.976   1.547   3.627  1.9204 -2.4856  2.5813
   51CHL1   C17 3724   5.202   1.517   3.658 -1.1102 -0.4131  0.2633
   51CHL1   H17 3725   5.173   1.410   3.652  0.6140 -0.9891  1.3466
   51CHL1   C13 3726   5.301   1.549   3.549 -0.1820  0.5471 -0.3312
   51CHL1   C18 3727   5.355   1.688   3.585  0.2273 -0.5957  0.3817
   51CHL1  H18A 3728   5.405   1.742   3.501  1.1218 -2.0030 -0.0178
   51CHL1  H18B 3729   5.269   1.755   3.610 -0.7415 -0.3659 -3.0865
   51CHL1  H18C 3730   5.420   1.678   3.674  2.0956 -1.2268 -1.0061
   51CHL1   C12 3731   5.416   1.449   3.523 -0.2269 -0.3585 -0.0647
   51CHL1  H12A 3732   5.494   1.452   3.602  1.0569  1.4925 -1.2994
   51CHL1  H12B 3733   5.378   1.345   3.513  0.3739 -0.7393  1.3383
   51CHL1   C11 3734   5.491   1.487   3.396 -0.4816  0.0645  0.2916
   51CHL1  H11A 3735   5.535   1.585   3.425  0.5577 -0.2056 -0.3299
   51CHL1  H11B 3736   5.567   1.408   3.376  0.0407  0.3699  1.0003
   51CHL1    C9 3737   5.407   1.507   3.262  0.2917  0.6733 -0.1411
   51CHL1    H9 3738   5.367   1.406   3.239  1.3264  0.3862 -0.7832
   51CHL1   C10 3739   5.488   1.551   3.141 -0.5496 -0.4329 -0.8308
   51CHL1   C19 3740   5.592   1.658   3.178  0.0930  0.2442 -0.2954
   51CHL1  H19A 3741   5.660   1.616   3.256 -0.9400 -0.4046  0.2788
   51CHL1  H19B 3742   5.641   1.694   3.085 -1.0168 -0.2609 -1.0940
   51CHL1  H19C 3743   5.548   1.744   3.234  0.0386 -1.4309  2.4102
   51CHL1    C1 3744   5.559   1.432   3.080 -0.3068  0.7499 -0.2335
   51CHL1   H1A 3745   5.624   1.375   3.149 -2.2886  0.0292  1.1254
   51CHL1   H1B 3746   5.477   1.360   3.062 -0.1194 -0.5873  3.5019
   51CHL1    C2 3747   5.625   1.463   2.938 -0.9706 -0.1494 -0.3968
   51CHL1   H2A 3748   5.665   1.367   2.900 -0.1734 -0.0666  0.1856
   51CHL1   H2B 3749   5.710   1.534   2.954 -1.1029 -0.5964  3.3708
   51CHL1   C20 3750   5.235   1.521   3.807 -0.3369 -1.2135 -0.0742
   51CHL1   H20 3751   5.275   1.617   3.845  1.9459 -2.4920  0.9383
   51CHL1   C21 3752   5.326   1.408   3.844  0.1592 -0.0757 -0.3817
   51CHL1  H21A 3753   5.423   1.420   3.792 -0.8807  1.7329 -2.0109
   51CHL1  H21B 3754   5.288   1.311   3.804 -0.8569 -0.2893  1.0023
   51CHL1  H21C 3755   5.337   1.386   3.953 -2.8443  0.5021  0.1489
   51CHL1   C22 3756   5.103   1.505   3.886 -0.2541 -0.3589 -0.1424
   51CHL1  H22A 3757   5.027   1.582   3.864  0.2688  0.0308 -0.6239
   51CHL1  H22B 3758   5.062   1.403   3.869 -1.0996  0.0517 -0.6350
   51CHL1   C23 3759   5.121   1.536   4.036  0.4112 -0.3117 -0.0993
   51CHL1  H23A 3760   5.198   1.471   4.084 -0.3850 -0.5740  0.8488
   51CHL1  H23B 3761   5.155   1.639   4.058  2.6888 -1.1886  0.8069
   51CHL1   C24 3762   4.986   1.503   4.107 -0.1216 -0.0319 -0.3288
   51CHL1  H24A 3763   4.922   1.582   4.062  0.7189 -0.2250 -1.9447
   51CHL1  H24B 3764   4.952   1.400   4.083 -1.3931 -0.1213  1.6726
   51CHL1   C25 3765   4.986   1.525   4.262  0.2202  0.2268  0.6326
   51CHL1   H25 3766   5.063   1.461   4.310  2.1594  1.2231 -1.0054
   51CHL1   C26 3767   5.011   1.671   4.303 -0.2434  0.6495 -0.0179
   51CHL1  H26A 3768   5.006   1.678   4.414 -1.2864  1.7681 -0.1184
   51CHL1  H26B 3769   5.112   1.694   4.263  0.9404 -1.8026  1.3115
   51CHL1  H26C 3770   4.930   1.731   4.256  1.8423  4.1533  0.5115
   51CHL1   C27 3771   4.850   1.474   4.315  0.1152  0.0372 -0.6345
   51CHL1  H27A 3772   4.759   1.504   4.258 -0.1040  2.3584  0.8266
   51CHL1  H27B 3773   4.845   1.363   4.326 -2.2785 -0.0039 -1.4887
   51CHL1  H27C 3774   4.834   1.502   4.421 -2.1606  0.0823 -0.9280
   52CHL1    C3 3775   5.493   4.380   2.969 -0.6127  0.1768  0.3290
   52CHL1    H3 3776   5.599   4.413   2.980 -0.9432  1.9191 -1.2249
   52CHL1    O3 3777   5.487   4.321   2.842 -0.3151  0.4124  0.3468
   52CHL1   H3' 3778   5.461   4.391   2.781 -1.5322 -0.0991  0.2556
   52CHL1    C4 3779   5.455   4.263   3.066 -0.2548 -0.8462 -1.1345
   52CHL1   H4A 3780   5.359   4.217   3.035  0.3965 -2.8265 -0.4052
   52CHL1   H4B 3781   5.535   4.186   3.057  0.2959 -0.9120  2.5828
   52CHL1    C5 3782   5.454   4.331   3.211  1.0653  0.2117 -0.1338
   52CHL1    C6 3783   5.540   4.287   3.309 -0.4058  0.8770 -0.4627
   52CHL1    H6 3784   5.598   4.195   3.288 -0.5714  0.3238  1.3271
   52CHL1    C7 3785   5.533   4.339   3.451 -0.1227  0.3855  0.5437
   52CHL1   H7A 3786   5.541   4.254   3.521  0.0906  0.5654  0.7426
   52CHL1   H7B 3787   5.616   4.411   3.472  0.2555 -0.2938  1.3999
   52CHL1    C8 3788   5.403   4.417   3.477 -0.4335  0.5330 -0.2880
   52CHL1    H8 3789   5.324   4.340   3.487  0.4372 -0.1713  1.6988
   52CHL1   C14 3790   5.407   4.492   3.610  0.0418 -0.2462 -1.3228
   52CHL1   H14 3791   5.479   4.576   3.599  0.7602 -0.4634  1.1926
   52CHL1   C15 3792   5.454   4.409   3.725 -0.2787 -0.2685 -0.5246
   52CHL1  H15A 3793   5.417   4.304   3.720 -2.2625  0.3150  0.8570
   52CHL1  H15B 3794   5.564   4.423   3.726 -0.5374  2.1970  1.0093
   52CHL1   C16 3795   5.396   4.478   3.846  1.1394 -0.4110  0.2945
   52CHL1  H16A 3796   5.322   4.422   3.906  0.8216 -0.2009  0.0972
   52CHL1  H16B 3797   5.475   4.516   3.915  1.3234 -0.9396  0.3787
   52CHL1   C17 3798   5.311   4.602   3.793  0.0706 -0.7498 -0.5236
   52CHL1   H17 3799   5.375   4.693   3.790 -1.1184  0.2181  1.5433
   52CHL1   C13 3800   5.277   4.558   3.652  0.2985  0.0384  1.2486
   52CHL1   C18 3801   5.160   4.454   3.660 -0.5890 -0.8332  0.2285
   52CHL1  H18A 3802   5.078   4.521   3.692  0.5141  0.6512  0.0919
   52CHL1  H18B 3803   5.137   4.410   3.561 -0.4384 -0.7517  0.1566
   52CHL1  H18C 3804   5.172   4.372   3.734  1.1613 -1.6988 -0.9325
   52CHL1   C12 3805   5.255   4.664   3.544  1.2107 -0.1104 -0.3072
   52CHL1  H12A 3806   5.162   4.721   3.567  0.9871 -0.9431  0.9314
   52CHL1  H12B 3807   5.336   4.741   3.537 -1.1258  2.4016 -1.8821
   52CHL1   C11 3808   5.243   4.610   3.407  0.1576  0.4340 -0.1135
   52CHL1  H11A 3809   5.155   4.544   3.391  1.7521 -1.3327 -2.1470
   52CHL1  H11B 3810   5.232   4.689   3.329 -2.3278 -1.0443 -1.3953
   52CHL1    C9 3811   5.368   4.519   3.367  0.3240  0.7421  0.0084
   52CHL1    H9 3812   5.456   4.586   3.359  0.9514  0.0749  1.0467
   52CHL1   C10 3813   5.358   4.452   3.229  0.1300  0.6417  0.5588
   52CHL1   C19 3814   5.218   4.380   3.225  0.0082  0.7687  0.1045
   52CHL1  H19A 3815   5.199   4.330   3.323  0.3574  1.7268  0.6787
   52CHL1  H19B 3816   5.145   4.461   3.201 -0.7588  0.0795  0.0758
   52CHL1  H19C 3817   5.213   4.309   3.141 -2.0956 -0.4046  1.1410
   52CHL1    C1 3818   5.383   4.556   3.113 -0.3547 -0.5236 -0.1702
   52CHL1   H1A 3819   5.303   4.633   3.117 -0.9135 -1.0301 -1.2376
   52CHL1   H1B 3820   5.487   4.583   3.142  0.4650 -2.6488 -0.9332
   52CHL1    C2 3821   5.391   4.496   2.972  0.5325 -1.0223 -0.2574
   52CHL1   H2A 3822   5.420   4.580   2.905  0.7855  2.7442  4.0809
   52CHL1   H2B 3823   5.292   4.462   2.933  0.3267  1.7012 -2.4471
   52CHL1   C20 3824   5.197   4.642   3.891  0.6773  0.3321  0.6269
   52CHL1   H20 3825   5.131   4.554   3.898  1.9448 -1.0474 -2.9229
   52CHL1   C21 3826   5.104   4.753   3.830  0.0596 -0.2674 -0.2457
   52CHL1  H21A 3827   5.024   4.797   3.893  1.4298  2.9857 -0.5648
   52CHL1  H21B 3828   5.053   4.726   3.735  0.7430 -0.3634 -0.5901
   52CHL1  H21C 3829   5.160   4.847   3.809  1.5325 -1.1125 -0.2192
   52CHL1   C22 3830   5.245   4.666   4.035 -0.2794  0.0075 -0.4768
   52CHL1  H22A 3831   5.323   4.592   4.063 -0.9920 -0.6456 -0.1864
   52CHL1  H22B 3832   5.297   4.763   4.023 -1.6769  0.9280  0.6675
   52CHL1   C23 3833   5.130   4.678   4.138 -0.1614  0.0608  0.5144
   52CHL1  H23A 3834   5.051   4.753   4.118 -0.9944  0.3255  4.0368
   52CHL1  H23B 3835   5.079   4.580   4.141 -0.1528  0.0694  1.1061
   52CHL1   C24 3836   5.173   4.711   4.283  0.4715 -0.1817  0.0267
   52CHL1  H24A 3837   5.227   4.619   4.312 -0.0015 -0.6474 -0.5611
   52CHL1  H24B 3838   5.237   4.802   4.283 -2.2625  1.9019  1.2359
   52CHL1   C25 3839   5.057   4.737   4.390 -0.0060 -0.3247 -0.4251
   52CHL1   H25 3840   4.999   4.824   4.352 -0.9589 -1.0861 -0.7827
   52CHL1   C26 3841   4.963   4.617   4.389 -0.3555  0.0524 -0.1883
   52CHL1  H26A 3842   4.904   4.613   4.295 -1.2391 -2.0440  0.4045
   52CHL1  H26B 3843   5.023   4.525   4.399 -0.1676 -0.1812 -2.8914
   52CHL1  H26C 3844   4.900   4.625   4.481 -0.3309  0.8524 -0.2357
   52CHL1   C27 3845   5.111   4.756   4.529 -0.8098 -0.3552  0.1082
   52CHL1  H27A 3846   5.027   4.763   4.601 -1.7252  0.0379 -0.9844
   52CHL1  H27B 3847   5.166   4.663   4.552 -0.0329  0.2773  0.9102
   52CHL1  H27C 3848   5.190   4.835   4.532  0.2810 -1.4161  0.2449
   53CHL1    C3 3849   2.453   0.400   2.888 -0.0315 -0.1584 -0.0782
   53CHL1    H3 3850   2.431   0.292   2.900  0.6098 -0.5761 -2.1653
   53CHL1    O3 3851   2.420   0.450   2.754 -0.0886 -0.4133 -0.3961
   53CHL1   H3' 3852   2.459   0.537   2.765  1.6771 -1.3289  1.1510
   53CHL1    C4 3853   2.384   0.486   2.990 -0.0854  0.9351 -0.8252
   53CHL1   H4A 3854   2.414   0.592   2.984 -1.7153  1.7150  2.5117
   53CHL1   H4B 3855   2.274   0.473   2.976 -0.3703  1.9678  0.2921
   53CHL1    C5 3856   2.434   0.444   3.130  0.6685 -0.6931 -0.7391
   53CHL1    C6 3857   2.352   0.403   3.226  0.3687  0.0117  0.0556
   53CHL1    H6 3858   2.245   0.390   3.205 -0.7709  3.2089  2.9670
   53CHL1    C7 3859   2.400   0.353   3.364  0.1730  0.6726 -0.4488
   53CHL1   H7A 3860   2.331   0.392   3.442 -0.3440  1.0369 -1.0772
   53CHL1   H7B 3861   2.393   0.244   3.345  1.5573  0.5112 -0.1104
   53CHL1    C8 3862   2.548   0.394   3.403 -0.6933  0.5123 -0.1770
   53CHL1    H8 3863   2.547   0.503   3.425  1.4592  0.5340  0.0681
   53CHL1   C14 3864   2.602   0.325   3.532 -0.1319  0.4405  0.3034
   53CHL1   H14 3865   2.610   0.217   3.510 -3.0844  0.1046  0.4187
   53CHL1   C15 3866   2.512   0.322   3.652  0.5198 -0.8168  0.3073
   53CHL1  H15A 3867   2.463   0.419   3.673  0.4495 -0.5386 -1.0558
   53CHL1  H15B 3868   2.427   0.251   3.650 -0.6572  0.5629 -0.7653
   53CHL1   C16 3869   2.606   0.279   3.769 -0.3470  0.0873 -0.2146
   53CHL1  H16A 3870   2.587   0.349   3.853 -1.2371 -0.0055 -0.3300
   53CHL1  H16B 3871   2.586   0.175   3.802 -0.4693  0.3131  0.4277
   53CHL1   C17 3872   2.753   0.284   3.705 -0.1294 -0.5184 -0.0347
   53CHL1   H17 3873   2.764   0.180   3.668  0.5140 -0.1941 -0.8059
   53CHL1   C13 3874   2.743   0.371   3.574  0.5898 -0.2522 -0.1937
   53CHL1   C18 3875   2.750   0.523   3.615  0.2684  0.7042  0.4001
   53CHL1  H18A 3876   2.752   0.593   3.528  1.0405 -0.9328 -0.9696
   53CHL1  H18B 3877   2.663   0.548   3.679  0.3185  0.8377  0.4157
   53CHL1  H18C 3878   2.849   0.545   3.660  0.2670  2.5119 -0.3835
   53CHL1   C12 3879   2.831   0.332   3.457 -0.5215 -0.0207  0.4316
   53CHL1  H12A 3880   2.940   0.352   3.470 -0.1553 -0.6090 -1.4251
   53CHL1  H12B 3881   2.827   0.222   3.442 -1.7397  0.2732 -1.8029
   53CHL1   C11 3882   2.782   0.397   3.323 -0.4830  0.4871 -0.4405
   53CHL1  H11A 3883   2.791   0.506   3.346 -1.5815  0.5650 -0.3209
   53CHL1  H11B 3884   2.856   0.367   3.247  1.2357  1.6942  0.6610
   53CHL1    C9 3885   2.642   0.365   3.282  0.5521  0.4129  0.1005
   53CHL1    H9 3886   2.639   0.257   3.258  0.0993  0.8753 -2.1776
   53CHL1   C10 3887   2.587   0.440   3.153 -0.8811  0.7032  0.0264
   53CHL1   C19 3888   2.629   0.589   3.172  0.4212  0.0253 -0.8977
   53CHL1  H19A 3889   2.571   0.646   3.097  0.0734 -1.4241 -1.7458
   53CHL1  H19B 3890   2.609   0.633   3.273 -1.2113 -0.6268 -0.9023
   53CHL1  H19C 3891   2.738   0.602   3.157  0.0656  1.1627 -2.7424
   53CHL1    C1 3892   2.655   0.373   3.028  0.3057  0.0323  0.5042
   53CHL1   H1A 3893   2.765   0.385   3.028  0.5843 -1.9973 -1.1646
   53CHL1   H1B 3894   2.631   0.264   3.034  0.1654  0.1347  3.6913
   53CHL1    C2 3895   2.603   0.418   2.890 -0.4914 -0.1297 -0.3468
   53CHL1   H2A 3896   2.647   0.351   2.813 -2.3573 -0.8295 -0.8600
   53CHL1   H2B 3897   2.613   0.527   2.871 -2.4014  0.1368  0.0119
   53CHL1   C20 3898   2.856   0.325   3.812 -0.6891 -0.2899 -0.1610
   53CHL1   H20 3899   2.820   0.424   3.849 -0.6186  0.0343 -0.9305
   53CHL1   C21 3900   3.002   0.332   3.772 -0.4182 -0.1833  0.7957
   53CHL1  H21A 3901   3.078   0.344   3.852  1.3445  0.8689 -0.9572
   53CHL1  H21B 3902   3.029   0.425   3.717 -1.4219 -0.8171 -0.8538
   53CHL1  H21C 3903   3.017   0.241   3.710 -1.5091  0.9307 -1.2069
   53CHL1   C22 3904   2.867   0.234   3.933  0.2891 -0.5576 -0.0628
   53CHL1  H22A 3905   2.772   0.175   3.939 -0.2198 -0.0660 -2.4338
   53CHL1  H22B 3906   2.950   0.161   3.924 -1.1780 -2.9158  3.2650
   53CHL1   C23 3907   2.882   0.307   4.068 -1.0344  0.1884  0.6591
   53CHL1  H23A 3908   2.983   0.353   4.063 -0.5806 -0.8164  0.3649
   53CHL1  H23B 3909   2.809   0.390   4.076  0.9522  2.4677 -2.4033
   53CHL1   C24 3910   2.891   0.211   4.184  0.0289 -0.4703 -0.4754
   53CHL1  H24A 3911   2.787   0.179   4.203  0.4846 -1.7142  0.0310
   53CHL1  H24B 3912   2.946   0.122   4.145  1.5976  0.4269 -0.4219
   53CHL1   C25 3913   2.949   0.268   4.307 -0.5707  0.1905  0.4731
   53CHL1   H25 3914   3.048   0.314   4.284 -0.4995 -1.0627 -2.1355
   53CHL1   C26 3915   2.859   0.375   4.363  0.5574  0.4741 -0.1972
   53CHL1  H26A 3916   2.905   0.444   4.436  2.2750 -2.4379  1.6559
   53CHL1  H26B 3917   2.818   0.438   4.281 -1.6686 -0.8094 -0.1478
   53CHL1  H26C 3918   2.769   0.331   4.410  0.3693  0.0516 -0.9273
   53CHL1   C27 3919   2.985   0.156   4.414 -0.0578 -0.2986  0.1931
   53CHL1  H27A 3920   3.038   0.191   4.505  0.6125 -3.6331  1.2168
   53CHL1  H27B 3921   2.902   0.091   4.448  0.4576  0.0081  2.1564
   53CHL1  H27C 3922   3.061   0.089   4.369  0.8410  1.4693 -1.0160
   54CHL1    C3 3923   5.799   1.115   2.696  0.7593 -0.0986 -0.0205
   54CHL1    H3 3924   5.720   1.191   2.712  0.3353 -0.4498 -0.4335
   54CHL1    O3 3925   5.807   1.094   2.558 -0.4721  1.1091  0.1522
   54CHL1   H3' 3926   5.813   0.998   2.558 -0.5000  1.0862  2.0758
   54CHL1    C4 3927   5.928   1.160   2.750 -0.5330 -0.1291 -0.0930
   54CHL1   H4A 3928   6.010   1.089   2.729 -2.2089 -1.4650 -2.6244
   54CHL1   H4B 3929   5.951   1.252   2.693  0.3962  0.6142  1.4073
   54CHL1    C5 3930   5.931   1.187   2.896 -0.1100  0.2820  0.2096
   54CHL1    C6 3931   5.955   1.306   2.950 -0.3339  0.0810 -0.2698
   54CHL1    H6 3932   5.985   1.396   2.895 -1.4389  0.6711  0.0427
   54CHL1    C7 3933   5.947   1.344   3.099 -0.2363  0.1836  0.3263
   54CHL1   H7A 3934   6.039   1.401   3.125  0.2372  0.7575 -2.3605
   54CHL1   H7B 3935   5.862   1.412   3.118 -0.0595  0.1486  1.3314
   54CHL1    C8 3936   5.933   1.218   3.196 -0.3238 -0.1318  0.4276
   54CHL1    H8 3937   6.029   1.162   3.199 -1.8764 -2.9994  1.9281
   54CHL1   C14 3938   5.880   1.258   3.330  0.3462  0.8957  0.1081
   54CHL1   H14 3939   5.775   1.293   3.314  0.0649  0.1586  0.2931
   54CHL1   C15 3940   5.945   1.377   3.413  1.3338  0.0472 -0.2579
   54CHL1  H15A 3941   6.056   1.377   3.407  1.3541  2.3641 -1.1502
   54CHL1  H15B 3942   5.910   1.477   3.378  0.2422 -0.6068 -1.1198
   54CHL1   C16 3943   5.899   1.349   3.560 -0.4364  0.1068  0.0196
   54CHL1  H16A 3944   5.984   1.322   3.626 -1.3132  2.1762  2.1350
   54CHL1  H16B 3945   5.837   1.434   3.597  0.6420  1.1814 -0.5778
   54CHL1   C17 3946   5.803   1.220   3.552  0.5572  0.2693 -0.1052
   54CHL1   H17 3947   5.709   1.261   3.509 -0.6379 -2.6863 -0.5618
   54CHL1   C13 3948   5.851   1.135   3.434 -0.2984  0.8129  0.5128
   54CHL1   C18 3949   5.979   1.061   3.472  0.4454 -0.2695  0.6919
   54CHL1  H18A 3950   5.961   0.993   3.557  0.0716  0.0341  0.8551
   54CHL1  H18B 3951   6.015   1.013   3.378 -1.2470 -0.5165  0.1323
   54CHL1  H18C 3952   6.051   1.137   3.510 -0.8146  2.1989 -1.5054
   54CHL1   C12 3953   5.750   1.033   3.368 -0.9553 -0.1398  0.1911
   54CHL1  H12A 3954   5.720   0.950   3.436 -1.4379 -0.9124 -0.9496
   54CHL1  H12B 3955   5.655   1.091   3.361 -0.1356  1.2816  0.3100
   54CHL1   C11 3956   5.803   0.992   3.227  0.2452 -0.4421  0.4969
   54CHL1  H11A 3957   5.891   0.927   3.246 -0.7000 -1.1483  2.8177
   54CHL1  H11B 3958   5.725   0.930   3.178 -1.4920  0.5284  1.9025
   54CHL1    C9 3959   5.838   1.116   3.137  1.2682  0.0703  0.1900
   54CHL1    H9 3960   5.740   1.168   3.130  1.3133 -0.0233 -1.4016
   54CHL1   C10 3961   5.873   1.073   2.988 -0.2631  0.0174  0.9839
   54CHL1   C19 3962   5.985   0.964   2.995 -0.0446  0.5294  0.1474
   54CHL1  H19A 3963   5.941   0.868   3.030 -2.4629  1.5950  0.2753
   54CHL1  H19B 3964   6.017   0.944   2.891  0.7180  2.8854 -0.1464
   54CHL1  H19C 3965   6.078   0.996   3.048  0.6790 -1.9288  0.4745
   54CHL1    C1 3966   5.747   1.015   2.921  0.0850 -0.0341 -0.0831
   54CHL1   H1A 3967   5.703   0.924   2.967 -1.9662  1.4340  0.9808
   54CHL1   H1B 3968   5.673   1.097   2.928  0.7995  0.5638  0.6740
   54CHL1    C2 3969   5.760   0.985   2.767 -0.1154 -0.2504 -0.4633
   54CHL1   H2A 3970   5.664   0.946   2.728  0.0130 -0.4357 -0.5976
   54CHL1   H2B 3971   5.851   0.921   2.756 -0.7013 -1.4493  1.3003
   54CHL1   C20 3972   5.768   1.154   3.687 -0.8642 -0.5508  0.1936
   54CHL1   H20 3973   5.839   1.072   3.707  1.6364  1.1689 -1.1172
   54CHL1   C21 3974   5.621   1.107   3.673 -0.5064 -0.0846 -0.3614
   54CHL1  H21A 3975   5.597   1.040   3.758 -0.5651 -1.0732 -1.1307
   54CHL1  H21B 3976   5.612   1.037   3.587  0.0022 -1.1479  0.4198
   54CHL1  H21C 3977   5.536   1.178   3.668 -0.0059  0.9121  2.9162
   54CHL1   C22 3978   5.774   1.246   3.812 -0.3622 -0.9828  0.1187
   54CHL1  H22A 3979   5.875   1.293   3.815 -0.2592 -1.1657 -0.3443
   54CHL1  H22B 3980   5.693   1.321   3.808  0.4535 -0.1030 -0.3063
   54CHL1   C23 3981   5.777   1.166   3.944 -0.1180 -0.3019  0.2210
   54CHL1  H23A 3982   5.696   1.092   3.926  0.5586 -1.1645  0.6411
   54CHL1  H23B 3983   5.878   1.119   3.939  0.3151  0.6863 -1.1469
   54CHL1   C24 3984   5.741   1.253   4.063  0.4993 -0.2717  0.5865
   54CHL1  H24A 3985   5.794   1.349   4.048 -1.2598  0.5205 -0.7927
   54CHL1  H24B 3986   5.634   1.280   4.052  0.7471  1.5191  2.0292
   54CHL1   C25 3987   5.781   1.203   4.203 -0.2559 -0.1075  0.3450
   54CHL1   H25 3988   5.753   1.096   4.219 -0.5661 -0.4732 -2.1812
   54CHL1   C26 3989   5.927   1.218   4.234 -0.1003  0.1511  0.0294
   54CHL1  H26A 3990   5.955   1.324   4.213 -0.4317  0.2610  0.1490
   54CHL1  H26B 3991   5.953   1.186   4.337 -0.6522  0.5307  0.2881
   54CHL1  H26C 3992   5.992   1.154   4.169  0.2305  1.8587 -1.4197
   54CHL1   C27 3993   5.694   1.289   4.291 -0.0459 -0.7033 -0.1558
   54CHL1  H27A 3994   5.587   1.270   4.265 -0.3938  1.9504 -1.0059
   54CHL1  H27B 3995   5.713   1.276   4.399 -0.1616 -1.1149 -0.1825
   54CHL1  H27C 3996   5.720   1.394   4.268  3.2050 -1.5437 -0.8523
   55CHL1    C3 3997   3.056   1.681   2.862 -0.2764  0.0696  0.1205
   55CHL1    H3 3998   2.957   1.729   2.857 -0.2312  0.3806  1.7171
   55CHL1    O3 3999   3.100   1.634   2.731 -0.2393 -0.2353 -0.3460
   55CHL1   H3' 4000   3.044   1.562   2.699  1.4478 -0.4895 -3.1083
   55CHL1    C4 4001   3.157   1.787   2.917 -0.4762  0.8997 -0.9293
   55CHL1   H4A 4002   3.255   1.739   2.938 -1.0921  0.6945  1.8051
   55CHL1   H4B 4003   3.174   1.868   2.842  2.0549  0.4253 -0.9598
   55CHL1    C5 4004   3.097   1.827   3.053  0.0489  0.4841  0.4673
   55CHL1    C6 4005   3.047   1.949   3.065  0.4286 -0.2457  0.1739
   55CHL1    H6 4006   3.053   2.016   2.978  1.5514 -1.4895 -0.7675
   55CHL1    C7 4007   3.001   1.996   3.203  0.1901  0.4878  0.3883
   55CHL1   H7A 4008   3.027   2.104   3.202 -0.0216  0.5751 -2.3335
   55CHL1   H7B 4009   2.890   1.985   3.200 -0.1407  2.7390  1.8351
   55CHL1    C8 4010   3.057   1.918   3.323  0.2410 -0.2488 -0.5311
   55CHL1    H8 4011   3.166   1.936   3.326  0.1795  0.0392  0.6048
   55CHL1   C14 4012   2.993   1.962   3.455 -0.6692  0.6042  0.1882
   55CHL1   H14 4013   2.885   1.937   3.456 -0.5109 -0.1213 -0.3093
   55CHL1   C15 4014   3.017   2.112   3.491 -0.0423  0.2034  0.6259
   55CHL1  H15A 4015   3.116   2.152   3.459  0.1345 -0.5125  0.2449
   55CHL1  H15B 4016   2.943   2.175   3.438 -1.0885 -2.1398 -0.8386
   55CHL1   C16 4017   2.994   2.117   3.640  0.2224  0.4541 -0.8360
   55CHL1  H16A 4018   3.079   2.166   3.692  1.1872  0.0034 -1.9417
   55CHL1  H16B 4019   2.899   2.171   3.664  0.4468  0.3083  0.4040
   55CHL1   C17 4020   2.982   1.967   3.697 -0.7160  0.2462  0.1538
   55CHL1   H17 4021   2.873   1.946   3.685 -1.6692  4.1718  0.4976
   55CHL1   C13 4022   3.050   1.883   3.578 -0.0249 -0.7828  0.3938
   55CHL1   C18 4023   3.210   1.896   3.592 -0.3000 -0.5949  0.5420
   55CHL1  H18A 4024   3.239   1.847   3.688 -1.0815  0.5465  1.3810
   55CHL1  H18B 4025   3.259   1.838   3.511  0.8726  0.2083  0.6596
   55CHL1  H18C 4026   3.232   2.003   3.574 -0.6201 -0.8255 -1.4047
   55CHL1   C12 4027   3.014   1.733   3.565 -0.1066 -0.5650 -1.2344
   55CHL1  H12A 4028   3.055   1.686   3.656  1.5658  1.7100 -0.7053
   55CHL1  H12B 4029   2.904   1.717   3.577 -0.1843  1.4020  1.6588
   55CHL1   C11 4030   3.060   1.674   3.430 -0.2265 -0.6737 -0.0915
   55CHL1  H11A 4031   3.168   1.656   3.448  0.4535  2.4745 -0.4563
   55CHL1  H11B 4032   3.015   1.573   3.432 -0.2321 -0.7105 -1.3879
   55CHL1    C9 4033   3.031   1.765   3.304  0.2182  1.2548 -0.0677
   55CHL1    H9 4034   2.921   1.748   3.305  0.2391  0.9919  2.0134
   55CHL1   C10 4035   3.091   1.721   3.166 -0.2443  0.5282 -0.0255
   55CHL1   C19 4036   3.241   1.674   3.189  1.0235  0.0531  0.5090
   55CHL1  H19A 4037   3.280   1.622   3.100 -0.9251 -0.0592 -0.3323
   55CHL1  H19B 4038   3.309   1.756   3.221  1.8753  0.5232 -2.2780
   55CHL1  H19C 4039   3.237   1.591   3.263 -0.2140 -0.9300 -0.5999
   55CHL1    C1 4040   3.001   1.608   3.107  0.9559  0.2402 -0.4811
   55CHL1   H1A 4041   3.002   1.519   3.174 -0.9954  2.1703  2.3374
   55CHL1   H1B 4042   2.892   1.630   3.099  0.8934  0.0789 -0.0870
   55CHL1    C2 4043   3.040   1.564   2.960  0.6020 -0.0314 -0.5048
   55CHL1   H2A 4044   2.950   1.509   2.927  0.7513 -0.0263 -0.9343
   55CHL1   H2B 4045   3.130   1.498   2.968 -0.0003 -0.8451 -0.3145
   55CHL1   C20 4046   3.020   1.968   3.843 -0.1730  0.5765  0.1139
   55CHL1   H20 4047   3.117   2.021   3.848 -0.7823  1.6128  1.8169
   55CHL1   C21 4048   3.033   1.822   3.901  0.1896  0.1762 -0.6490
   55CHL1  H21A 4049   2.949   1.752   3.882 -2.0925  1.8833  2.1384
   55CHL1  H21B 4050   3.047   1.826   4.012  1.0212  3.2535 -0.7690
   55CHL1  H21C 4051   3.123   1.778   3.854  0.2792 -0.5410  0.1631
   55CHL1   C22 4052   2.920   2.039   3.926  0.8789 -0.1009 -0.5220
   55CHL1  H22A 4053   2.905   2.143   3.891  0.4992  0.1691  0.4155
   55CHL1  H22B 4054   2.828   1.976   3.915  1.5173 -1.8069  2.7808
   55CHL1   C23 4055   2.945   2.052   4.079  0.2495  0.1473  0.6425
   55CHL1  H23A 4056   2.951   1.953   4.129 -4.0761 -0.4215  0.4633
   55CHL1  H23B 4057   3.034   2.114   4.103  0.9982 -1.0316  0.9761
   55CHL1   C24 4058   2.825   2.129   4.147 -0.1959  0.4266 -0.4133
   55CHL1  H24A 4059   2.809   2.222   4.089  0.7033  0.6795 -0.2713
   55CHL1  H24B 4060   2.731   2.071   4.134  0.4396 -0.9169  0.7383
   55CHL1   C25 4061   2.834   2.137   4.297 -0.1592  0.3715 -0.5501
   55CHL1   H25 4062   2.931   2.187   4.319 -0.4147  1.2829 -1.4326
   55CHL1   C26 4063   2.714   2.224   4.344  0.6772  0.3768 -0.5967
   55CHL1  H26A 4064   2.733   2.246   4.451  0.1056 -4.0214  0.6349
   55CHL1  H26B 4065   2.720   2.321   4.291 -1.0018  0.5245 -0.5530
   55CHL1  H26C 4066   2.614   2.178   4.329  1.2379 -1.2802  0.3900
   55CHL1   C27 4067   2.841   2.006   4.379  0.1024 -0.3875 -0.3323
   55CHL1  H27A 4068   2.920   1.949   4.326  0.1625  1.1832 -2.0414
   55CHL1  H27B 4069   2.867   2.039   4.482 -1.0614 -1.4963  0.3413
   55CHL1  H27C 4070   2.740   1.961   4.372 -0.2358  0.1297  0.8829
   56CHL1    C3 4071   4.986   0.607   2.694  0.1992 -0.0235  0.4682
   56CHL1    H3 4072   4.998   0.704   2.747  0.3656 -0.3872  1.1053
   56CHL1    O3 4073   4.971   0.630   2.550 -0.7781  0.4731  0.2543
   56CHL1   H3' 4074   4.972   0.541   2.516 -0.5098 -0.2018  1.9214
   56CHL1    C4 4075   5.098   0.511   2.728 -0.1823 -0.2287 -0.0811
   56CHL1   H4A 4076   5.104   0.414   2.675 -1.1002 -1.0624  1.2851
   56CHL1   H4B 4077   5.185   0.567   2.686 -0.1035  1.7367  2.4226
   56CHL1    C5 4078   5.114   0.487   2.881  0.0290 -0.1442  0.7361
   56CHL1    C6 4079   5.229   0.526   2.946  0.0076 -0.4092  0.7468
   56CHL1    H6 4080   5.311   0.561   2.881  0.0436  0.4329  1.2276
   56CHL1    C7 4081   5.253   0.491   3.088 -0.1491  0.7924  0.0070
   56CHL1   H7A 4082   5.351   0.440   3.098  1.3170  3.2425 -1.1662
   56CHL1   H7B 4083   5.255   0.582   3.152  1.4766  1.0029 -0.3203
   56CHL1    C8 4084   5.145   0.387   3.144 -0.3666 -0.0408  0.0793
   56CHL1    H8 4085   5.157   0.283   3.108  0.6205  0.2926 -0.6077
   56CHL1   C14 4086   5.149   0.389   3.297 -0.0589 -0.2824 -0.0889
   56CHL1   H14 4087   5.134   0.496   3.322  0.6324 -0.2290  0.1123
   56CHL1   C15 4088   5.278   0.348   3.363 -0.6842  0.1410 -0.9682
   56CHL1  H15A 4089   5.314   0.254   3.316  0.8980 -0.8202  1.9373
   56CHL1  H15B 4090   5.357   0.424   3.376  1.3048 -1.9299 -0.2862
   56CHL1   C16 4091   5.246   0.304   3.509 -0.2587  0.2100  0.4868
   56CHL1  H16A 4092   5.301   0.211   3.534  0.3645  0.0355 -1.3290
   56CHL1  H16B 4093   5.278   0.384   3.580 -3.0840  3.1178 -1.2524
   56CHL1   C17 4094   5.094   0.318   3.520 -0.5761  0.0202  1.2381
   56CHL1   H17 4095   5.073   0.416   3.568  0.0402  0.0506  1.4571
   56CHL1   C13 4096   5.043   0.305   3.374  0.3249 -0.4101  0.1067
   56CHL1   C18 4097   5.041   0.152   3.329  0.3432  0.0028  0.3782
   56CHL1  H18A 4098   4.949   0.103   3.367 -0.4136  0.4897 -0.7589
   56CHL1  H18B 4099   5.051   0.132   3.220  0.9273  0.9956  0.2347
   56CHL1  H18C 4100   5.127   0.095   3.370  1.9780 -0.1512 -2.9681
   56CHL1   C12 4101   4.920   0.384   3.334  0.0025  0.0983  0.2850
   56CHL1  H12A 4102   4.838   0.351   3.402 -0.9859  1.2780 -0.2989
   56CHL1  H12B 4103   4.912   0.489   3.371 -0.5271  0.0802  0.2301
   56CHL1   C11 4104   4.892   0.373   3.184  0.0151  0.3206 -0.2251
   56CHL1  H11A 4105   4.879   0.266   3.157 -2.6429  0.2937  0.8435
   56CHL1  H11B 4106   4.801   0.431   3.160  1.0933  1.9564 -0.4704
   56CHL1    C9 4107   5.007   0.437   3.100  0.6037  0.0669  0.0575
   56CHL1    H9 4108   5.000   0.542   3.135  0.2900 -0.0744  0.4329
   56CHL1   C10 4109   4.989   0.435   2.947 -0.1866 -0.3751 -0.0927
   56CHL1   C19 4110   4.975   0.295   2.887 -0.0228 -0.2432  0.0239
   56CHL1  H19A 4111   4.888   0.245   2.936  1.4202 -1.5334  1.3751
   56CHL1  H19B 4112   4.946   0.303   2.779 -0.6179  0.8946  0.2480
   56CHL1  H19C 4113   5.067   0.235   2.902 -0.2150 -0.8388 -1.0346
   56CHL1    C1 4114   4.860   0.516   2.899 -0.1114  0.9944  1.0656
   56CHL1   H1A 4115   4.763   0.473   2.933 -1.0208  2.0306 -0.1756
   56CHL1   H1B 4116   4.874   0.616   2.945 -1.1324  1.8223 -0.3842
   56CHL1    C2 4117   4.852   0.544   2.747 -0.1020  0.1592 -0.2978
   56CHL1   H2A 4118   4.768   0.611   2.718 -0.1575  0.7380  1.1282
   56CHL1   H2B 4119   4.819   0.448   2.701 -1.3226  0.7376 -0.6755
   56CHL1   C20 4120   5.051   0.212   3.615  0.2224 -0.3255 -0.4428
   56CHL1   H20 4121   5.073   0.108   3.581 -0.0617 -1.0482  1.4552
   56CHL1   C21 4122   4.894   0.216   3.633  0.1992 -0.3405  0.9240
   56CHL1  H21A 4123   4.862   0.161   3.724  1.4407 -0.1906  1.4719
   56CHL1  H21B 4124   4.833   0.166   3.555  0.4528 -0.0177  0.5105
   56CHL1  H21C 4125   4.856   0.320   3.636 -1.9110 -1.0898  2.6699
   56CHL1   C22 4126   5.130   0.210   3.754 -1.0615 -0.0447  0.3645
   56CHL1  H22A 4127   5.085   0.118   3.798 -3.0092 -0.1360 -1.6588
   56CHL1  H22B 4128   5.233   0.177   3.728 -1.9470 -2.2150 -0.6108
   56CHL1   C23 4129   5.138   0.332   3.842 -0.4292  0.1069 -0.9238
   56CHL1  H23A 4130   5.205   0.412   3.802 -0.8857 -0.0276 -2.0024
   56CHL1  H23B 4131   5.040   0.382   3.854  0.0035  0.5871  0.8040
   56CHL1   C24 4132   5.203   0.299   3.975 -0.5807  0.0323 -0.0181
   56CHL1  H24A 4133   5.214   0.395   4.029  0.0756 -0.0215 -0.0444
   56CHL1  H24B 4134   5.123   0.241   4.025 -1.4320 -1.6746 -3.0833
   56CHL1   C25 4135   5.346   0.229   3.977  0.5361  0.3046 -0.0123
   56CHL1   H25 4136   5.332   0.135   3.920  0.2940  0.4031 -0.1172
   56CHL1   C26 4137   5.452   0.313   3.904 -0.9802 -0.1979  0.1304
   56CHL1  H26A 4138   5.554   0.268   3.897  0.3961  2.4010  1.8925
   56CHL1  H26B 4139   5.419   0.332   3.800 -0.2233 -1.0110 -0.2773
   56CHL1  H26C 4140   5.460   0.412   3.952  0.3829  0.5750 -1.5633
   56CHL1   C27 4141   5.386   0.207   4.125 -0.6194 -0.0733 -0.4855
   56CHL1  H27A 4142   5.320   0.122   4.153  2.0254 -1.7728  0.9111
   56CHL1  H27B 4143   5.493   0.181   4.119 -0.3229  1.3366 -2.2023
   56CHL1  H27C 4144   5.365   0.300   4.182  1.4409 -0.0070  0.2287
   57SAPC     N 4145   5.327   6.213   6.879  0.2237  0.7043 -0.6944
   57SAPC   C12 4146   5.321   6.133   6.742  0.0792  0.1469  0.5145
   57SAPC  H12A 4147   5.420   6.105   6.709  1.5459  4.1087  0.9939
   57SAPC  H12B 4148   5.279   6.205   6.674  1.0980  0.7446  0.5007
   57SAPC   C13 4149   5.189   6.233   6.925  0.7510  0.4063 -0.1118
   57SAPC  H13A 4150   5.139   6.311   6.871 -1.2596  0.0273  1.1132
   57SAPC  H13B 4151   5.139   6.138   6.916  1.3489  0.1189 -0.4971
   57SAPC  H13C 4152   5.183   6.252   7.031 -1.0315 -1.5457  0.2034
   57SAPC   C14 4153   5.393   6.124   6.982  0.3726  0.7366  0.1414
   57SAPC  H14A 4154   5.374   6.152   7.084 -0.1232 -2.7911  1.1660
   57SAPC  H14B 4155   5.357   6.024   6.963  0.6631  1.2747 -4.3957
   57SAPC  H14C 4156   5.501   6.131   6.976  0.6966  0.1542  3.4388
   57SAPC   C15 4157   5.396   6.347   6.866  0.2589  0.0819  0.2237
   57SAPC  H15A 4158   5.501   6.331   6.847 -0.2793 -1.1731 -2.1677
   57SAPC  H15B 4159   5.357   6.397   6.778 -0.8762 -0.9173  0.1277
   57SAPC  H15C 4160   5.371   6.395   6.959 -0.4460 -0.9543  0.5853
   57SAPC   C11 4161   5.229   6.005   6.731  0.1167  0.0994 -0.3655
   57SAPC  H11A 4162   5.242   5.963   6.628 -0.3629 -1.7048  0.2618
   57SAPC  H11B 4163   5.122   6.030   6.747 -0.3484 -3.2266  3.3114
   57SAPC     P 4164   5.326   5.773   6.802  0.0943  0.1014  0.4599
   57SAPC   O13 4165   5.475   5.777   6.788 -0.0841 -0.3221  0.2725
   57SAPC   O14 4166   5.273   5.683   6.909 -0.9709 -0.4712  0.0655
   57SAPC   O12 4167   5.264   5.915   6.830 -0.3770 -0.6004  0.1273
   57SAPC   O11 4168   5.258   5.740   6.654  0.1252 -0.0705  0.5745
   57SAPC    C1 4169   5.308   5.637   6.577  0.2865 -0.3042  0.4933
   57SAPC    HA 4170   5.418   5.628   6.590  0.3672 -0.1921 -0.0658
   57SAPC    HB 4171   5.259   5.545   6.614  0.6319 -0.8113 -0.2704
   57SAPC    C2 4172   5.291   5.660   6.422  0.6670 -0.0955 -0.7765
   57SAPC    HS 4173   5.343   5.575   6.372 -0.1740  0.9936 -3.7441
   57SAPC   O21 4174   5.338   5.787   6.391 -0.1255 -0.5465 -0.6226
   57SAPC   C21 4175   5.471   5.806   6.384 -0.4423 -0.0843  0.4642
   57SAPC   O22 4176   5.554   5.718   6.401  0.5263  0.5978  0.2968
   57SAPC   C22 4177   5.513   5.950   6.335  0.1758  0.2420 -0.0090
   57SAPC   H2R 4178   5.426   6.020   6.336 -2.3977 -2.7489  1.1535
   57SAPC   H2S 4179   5.582   5.997   6.409  0.8813 -1.1894  0.2704
   57SAPC    C3 4180   5.140   5.647   6.374 -0.3662  0.3443  0.3741
   57SAPC    HX 4181   5.092   5.734   6.423 -0.5495  2.2761 -2.9486
   57SAPC    HY 4182   5.104   5.547   6.406 -1.8260  0.9546  0.7224
   57SAPC   O31 4183   5.130   5.672   6.232  0.5197  0.0145 -0.2968
   57SAPC   C31 4184   5.006   5.636   6.194  1.0375  0.6237 -0.3991
   57SAPC   O32 4185   4.913   5.604   6.272  0.1333 -0.0154  0.7054
   57SAPC   C32 4186   4.993   5.633   6.041  0.1732 -0.1859 -0.0384
   57SAPC   H2X 4187   5.084   5.586   5.997  0.6292 -0.8323  1.5169
   57SAPC   H2Y 4188   4.988   5.739   6.009 -0.2753 -0.2857 -0.3118
   57SAPC   C23 4189   5.572   5.931   6.193 -0.0861  0.0529  0.2522
   57SAPC   H3R 4190   5.639   5.843   6.190  0.1330  0.2322 -0.8459
   57SAPC   H3S 4191   5.634   6.016   6.157 -0.2824 -0.0615 -0.3876
   57SAPC   C24 4192   5.463   5.911   6.090  0.3453 -0.5349 -0.0788
   57SAPC   H4R 4193   5.435   6.014   6.061 -0.1126 -0.2876  1.1604
   57SAPC   H4S 4194   5.378   5.852   6.131 -0.1036  0.3480  0.2966
   57SAPC   C25 4195   5.523   5.840   5.965 -0.4362 -0.4831  0.9458
   57SAPC   H5R 4196   5.594   5.761   5.991 -2.0273 -2.0378  0.7950
   57SAPC   C26 4197   5.480   5.843   5.837  0.1937 -0.5687 -0.0760
   57SAPC   H6R 4198   5.530   5.787   5.757 -0.4685 -0.1581 -0.7998
   57SAPC   C27 4199   5.361   5.922   5.789 -0.4273 -0.4786  0.4632
   57SAPC   H7R 4200   5.379   5.951   5.683  2.6186 -2.5106  0.3178
   57SAPC   H7S 4201   5.365   6.017   5.846 -1.3166 -0.9795  1.4106
   57SAPC   C28 4202   5.226   5.861   5.805 -0.0505  0.3130 -0.6524
   57SAPC   H8R 4203   5.187   5.863   5.908 -0.3709 -1.1866 -0.7226
   57SAPC   C29 4204   5.163   5.802   5.706  0.3003  0.6321 -0.4272
   57SAPC   H9R 4205   5.070   5.749   5.732  0.2625  0.5487 -0.7253
   57SAPC  C210 4206   5.211   5.804   5.561  0.7549 -0.1771 -0.3637
   57SAPC  H10R 4207   5.176   5.710   5.512  0.3779  0.2212 -0.8660
   57SAPC  H10S 4208   5.320   5.785   5.548  1.2450  1.4560  0.9935
   57SAPC  C211 4209   5.171   5.925   5.490 -0.5496 -1.1330 -0.1674
   57SAPC  H11R 4210   5.157   6.011   5.558  2.9820 -0.7528  0.2980
   57SAPC  C212 4211   5.146   5.948   5.361 -0.1818  0.2296  0.8352
   57SAPC  H12R 4212   5.136   6.051   5.325 -1.1706 -0.2623 -0.3649
   57SAPC  C213 4213   5.158   5.837   5.256  0.5819  1.0568 -0.1248
   57SAPC  H13R 4214   5.247   5.771   5.261 -0.8928 -1.0088  0.2121
   57SAPC  H13S 4215   5.170   5.887   5.157 -1.1056 -1.7321 -1.8671
   57SAPC  C214 4216   5.032   5.755   5.249 -0.1713  0.1892 -1.0806
   57SAPC  H14R 4217   4.971   5.745   5.340 -0.3250 -0.4948 -1.2512
   57SAPC  C215 4218   4.981   5.700   5.136 -0.6938 -0.4299  1.0540
   57SAPC  H15R 4219   4.886   5.646   5.144 -0.4167 -1.0526  0.2696
   57SAPC  C216 4220   5.056   5.702   5.003 -0.3480  0.1983 -0.2921
   57SAPC  H16R 4221   5.041   5.600   4.960  2.1020 -0.1976 -0.3303
   57SAPC  H16S 4222   5.166   5.710   5.008 -0.3306 -0.2287  0.1181
   57SAPC  C217 4223   4.999   5.812   4.909  0.5520  0.1503  0.3172
   57SAPC  H17R 4224   4.969   5.895   4.977 -1.9663 -1.0984  0.8283
   57SAPC  H17S 4225   4.911   5.787   4.847  1.4406  0.2759 -1.0483
   57SAPC  C218 4226   5.113   5.852   4.813 -0.2932 -0.6345  0.2021
   57SAPC  H18R 4227   5.175   5.763   4.789 -1.6461 -1.1936 -1.3590
   57SAPC  H18S 4228   5.185   5.923   4.859  1.2051 -1.6485 -0.5069
   57SAPC  C219 4229   5.063   5.910   4.682  0.5284 -0.7669 -0.1764
   57SAPC  H19R 4230   5.014   6.000   4.724 -0.4059 -0.8026 -1.1597
   57SAPC  H19S 4231   4.989   5.847   4.629  0.5706 -0.7109 -0.3022
   57SAPC  C220 4232   5.183   5.945   4.588  0.0036 -0.3580  0.5882
   57SAPC  H20R 4233   5.139   5.994   4.498  1.2900  2.5341  1.4281
   57SAPC  H20S 4234   5.248   5.856   4.582 -0.4408 -0.6221 -1.1474
   57SAPC  H20T 4235   5.233   6.025   4.646 -0.9175  0.7251 -0.0608
   57SAPC   C33 4236   4.866   5.566   5.992 -0.4479 -0.5620  0.1181
   57SAPC   H3X 4237   4.779   5.613   6.042  0.8241  2.3954 -0.2272
   57SAPC   H3Y 4238   4.858   5.458   6.018 -2.5204 -0.1898  1.2069
   57SAPC   C34 4239   4.854   5.576   5.843  1.0137  1.0621 -0.0980
   57SAPC   H4X 4240   4.790   5.488   5.822  0.5820  1.3002  0.1910
   57SAPC   H4Y 4241   4.950   5.579   5.788  1.0022  3.7416 -0.0744
   57SAPC   C35 4242   4.769   5.691   5.798  0.6940 -0.2750  1.1419
   57SAPC   H5X 4243   4.809   5.793   5.807 -0.5124  0.3721 -0.2561
   57SAPC   H5Y 4244   4.673   5.699   5.854  0.0591 -1.8925  0.3541
   57SAPC   C36 4245   4.713   5.686   5.654 -0.1362  0.1317 -0.7401
   57SAPC   H6X 4246   4.610   5.647   5.665 -0.0916  0.3353  0.5584
   57SAPC   H6Y 4247   4.768   5.609   5.596  3.6165  0.3558  2.1250
   57SAPC   C37 4248   4.699   5.820   5.591 -0.2659  0.0245  0.4777
   57SAPC   H7X 4249   4.789   5.884   5.599 -0.4883  0.4171 -0.1136
   57SAPC   H7Y 4250   4.622   5.875   5.651  0.3193 -2.7458  4.1470
   57SAPC   C38 4251   4.654   5.821   5.441  0.4081  0.2653 -0.0310
   57SAPC   H8X 4252   4.712   5.750   5.379  0.2198  0.9701 -1.0388
   57SAPC   H8Y 4253   4.653   5.923   5.397  0.5754  0.6679  0.8796
   57SAPC   C39 4254   4.517   5.759   5.417 -0.3197  0.2337 -0.5885
   57SAPC   H9X 4255   4.446   5.816   5.480  0.7610 -1.4934  2.4521
   57SAPC   H9Y 4256   4.517   5.656   5.458 -2.1016  0.9801  1.4794
   57SAPC  C310 4257   4.475   5.735   5.273 -0.0587 -0.0808  0.6410
   57SAPC  H10X 4258   4.377   5.683   5.276 -0.1717  0.1720  1.8339
   57SAPC  H10Y 4259   4.552   5.674   5.222 -1.9061  0.6114 -3.3277
   57SAPC  C311 4260   4.457   5.874   5.193 -0.3730 -0.6246  0.1239
   57SAPC  H11X 4261   4.556   5.924   5.187 -1.2791  1.5947  2.0936
   57SAPC  H11Y 4262   4.406   5.942   5.264 -1.0622 -2.8503  1.8941
   57SAPC  C312 4263   4.384   5.877   5.055  0.5502  0.0378  0.6234
   57SAPC  H12X 4264   4.411   5.974   5.009 -1.3945  0.1650 -0.3338
   57SAPC  H12Y 4265   4.275   5.867   5.074 -0.1961  0.4911 -2.8090
   57SAPC  C313 4266   4.434   5.764   4.965 -0.1412  0.2252 -0.0307
   57SAPC  H13X 4267   4.440   5.670   5.024 -2.1600  1.6064  2.5501
   57SAPC  H13Y 4268   4.538   5.791   4.936  0.8563 -1.2628  1.9513
   57SAPC  C314 4269   4.340   5.751   4.841 -0.1628  0.1195 -0.7070
   57SAPC  H14X 4270   4.234   5.755   4.874 -0.8087  1.3064 -2.7468
   57SAPC  H14Y 4271   4.357   5.650   4.798 -1.0960 -0.2736 -0.1921
   57SAPC  C315 4272   4.363   5.837   4.717 -0.3885  0.0050  0.0492
   57SAPC  H15X 4273   4.471   5.839   4.693 -0.0522 -0.7947  1.4049
   57SAPC  H15Y 4274   4.332   5.943   4.728 -4.1968 -0.7851 -1.4424
   57SAPC  C316 4275   4.282   5.787   4.595 -0.0410  0.4070 -0.2415
   57SAPC  H16X 4276   4.197   5.723   4.630 -0.2092  0.9718  0.4064
   57SAPC  H16Y 4277   4.345   5.704   4.556 -1.1621 -0.5707 -0.0773
   57SAPC  C317 4278   4.245   5.899   4.502 -0.2822  0.2740  0.5073
   57SAPC  H17X 4279   4.337   5.941   4.456  0.1908  1.1048  2.1275
   57SAPC  H17Y 4280   4.210   5.987   4.561 -0.8007  1.5381 -1.5490
   57SAPC  C318 4281   4.138   5.879   4.396  0.7789  0.4139 -0.6121
   57SAPC  H18X 4282   4.111   5.984   4.370  1.2509  1.5278  2.9062
   57SAPC  H18Y 4283   4.042   5.844   4.438 -0.3440  4.4326  0.6149
   57SAPC  H18Z 4284   4.186   5.819   4.315  0.5868 -2.2608  1.1301
   58SAPC     N 4285   3.512   4.706   6.440  0.2746  0.4645 -0.0277
   58SAPC   C12 4286   3.404   4.654   6.340 -0.2318 -0.3926 -0.2647
   58SAPC  H12A 4287   3.431   4.553   6.315 -0.4927 -0.6189  0.3190
   58SAPC  H12B 4288   3.427   4.697   6.244  1.6349  0.0852  0.3530
   58SAPC   C13 4289   3.482   4.852   6.465  0.0823  0.0759  0.3905
   58SAPC  H13A 4290   3.379   4.864   6.495 -0.2990  0.5668 -1.0077
   58SAPC  H13B 4291   3.549   4.898   6.535 -0.6797  1.3469  0.3045
   58SAPC  H13C 4292   3.493   4.900   6.369  0.8090 -0.9499 -0.0549
   58SAPC   C14 4293   3.503   4.636   6.572  0.4471  0.1058 -0.7407
   58SAPC  H14A 4294   3.499   4.531   6.545 -0.8872  0.2220 -1.0424
   58SAPC  H14B 4295   3.589   4.646   6.638 -0.0355 -2.0808  0.3286
   58SAPC  H14C 4296   3.409   4.659   6.619 -0.1520 -1.9002 -0.8528
   58SAPC   C15 4297   3.639   4.678   6.379 -0.3719  0.3076  0.1435
   58SAPC  H15A 4298   3.651   4.580   6.336  2.6858 -1.0396  3.5051
   58SAPC  H15B 4299   3.664   4.756   6.309  0.1654  0.0501  0.0490
   58SAPC  H15C 4300   3.707   4.675   6.463  0.0146 -1.8214 -0.1912
   58SAPC   C11 4301   3.256   4.666   6.386  0.1618 -0.7518  0.4201
   58SAPC  H11A 4302   3.194   4.681   6.295 -0.1932 -1.1655  0.5906
   58SAPC  H11B 4303   3.254   4.762   6.443  1.2541  0.2715 -1.1835
   58SAPC     P 4304   3.235   4.406   6.414 -0.0843 -0.3433  0.2853
   58SAPC   O13 4305   3.383   4.378   6.401  0.3649  1.1972  0.0993
   58SAPC   O14 4306   3.167   4.311   6.502  0.2664 -0.0256 -0.0823
   58SAPC   O12 4307   3.216   4.559   6.464  0.0082  0.1425 -0.2752
   58SAPC   O11 4308   3.161   4.409   6.271 -0.2248 -1.0532  0.2581
   58SAPC    C1 4309   3.034   4.341   6.255 -0.6905  0.0993 -0.4404
   58SAPC    HA 4310   3.053   4.233   6.236  0.9314  0.0346  1.3187
   58SAPC    HB 4311   2.970   4.346   6.346  0.3944 -3.0574  0.6311
   58SAPC    C2 4312   2.954   4.397   6.135 -0.2668 -0.2589  0.5522
   58SAPC    HS 4313   2.847   4.371   6.150 -0.0729 -1.2700  0.2641
   58SAPC   O21 4314   3.009   4.346   6.007 -0.0392 -0.1983  0.5843
   58SAPC   C21 4315   2.937   4.264   5.937 -0.1282  0.3138  0.7652
   58SAPC   O22 4316   2.828   4.216   5.972 -0.5331 -0.3069  0.5757
   58SAPC   C22 4317   3.006   4.240   5.799  0.1044 -0.5872  0.4064
   58SAPC   H2R 4318   3.103   4.294   5.794 -0.3422  0.3175  1.0937
   58SAPC   H2S 4319   3.044   4.135   5.797  0.5444 -0.4348 -1.8629
   58SAPC    C3 4320   2.939   4.547   6.136  0.3342 -0.7522  0.4636
   58SAPC    HX 4321   3.033   4.592   6.097  0.2525 -1.5364 -0.7012
   58SAPC    HY 4322   2.926   4.580   6.241 -2.6051 -0.4667  0.1113
   58SAPC   O31 4323   2.822   4.578   6.056  0.4923 -0.5708 -0.6099
   58SAPC   C31 4324   2.709   4.584   6.129  0.1148 -0.5049  0.4535
   58SAPC   O32 4325   2.698   4.560   6.250  0.4194 -0.1235  0.1451
   58SAPC   C32 4326   2.605   4.635   6.032 -0.3757  0.5269  0.1679
   58SAPC   H2X 4327   2.640   4.715   5.964  3.5262  1.9761  3.5083
   58SAPC   H2Y 4328   2.542   4.685   6.109 -0.5621  0.3500  0.1335
   58SAPC   C23 4329   2.917   4.268   5.676 -0.2006 -0.6109 -0.3351
   58SAPC   H3R 4330   2.987   4.288   5.592  3.0665  2.0997  2.7166
   58SAPC   H3S 4331   2.870   4.368   5.686  0.9030 -0.0177 -0.8952
   58SAPC   C24 4332   2.828   4.149   5.642  0.1304  0.1337  0.2076
   58SAPC   H4R 4333   2.743   4.153   5.714 -0.4210 -1.2874 -0.3135
   58SAPC   H4S 4334   2.882   4.056   5.670  1.6562  0.1434 -2.3523
   58SAPC   C25 4335   2.768   4.155   5.503  0.6656  0.4174 -0.0554
   58SAPC   H5R 4336   2.805   4.083   5.428 -1.8405  0.3697 -1.3901
   58SAPC   C26 4337   2.671   4.242   5.458  0.6834  0.0560  0.0842
   58SAPC   H6R 4338   2.627   4.229   5.359 -0.4609  1.0895  0.4385
   58SAPC   C27 4339   2.611   4.357   5.538 -0.7928 -0.1234 -0.1072
   58SAPC   H7R 4340   2.636   4.361   5.646  1.3328  1.2733 -0.5914
   58SAPC   H7S 4341   2.500   4.353   5.536 -0.7914 -3.8552 -0.0723
   58SAPC   C28 4342   2.656   4.492   5.478  0.3109 -0.0554 -0.7646
   58SAPC   H8R 4343   2.733   4.549   5.533  1.4199 -2.8294  0.7424
   58SAPC   C29 4344   2.605   4.557   5.367  0.4583 -0.0271 -0.5378
   58SAPC   H9R 4345   2.644   4.656   5.342 -0.6639  0.2792 -1.1592
   58SAPC  C210 4346   2.481   4.516   5.290 -0.6312 -0.0776 -0.6912
   58SAPC  H10R 4347   2.413   4.603   5.283 -1.2306 -0.5934 -1.6301
   58SAPC  H10S 4348   2.428   4.438   5.350 -0.5769  0.3686 -0.0606
   58SAPC  C211 4349   2.524   4.464   5.155 -0.3405  0.2269  0.2490
   58SAPC  H11R 4350   2.612   4.399   5.149 -0.2485  0.3135  0.6123
   58SAPC  C212 4351   2.452   4.485   5.046 -0.0207 -0.6838  0.5250
   58SAPC  H12R 4352   2.492   4.441   4.954  3.2836  1.1088  0.9661
   58SAPC  C213 4353   2.318   4.550   5.033  0.7133 -0.0214  0.1580
   58SAPC  H13R 4354   2.261   4.553   5.129 -3.0860  1.3780 -1.9367
   58SAPC  H13S 4355   2.259   4.480   4.970  1.5958 -0.1804 -0.5043
   58SAPC  C214 4356   2.318   4.680   4.967  0.4302 -0.2811 -0.4412
   58SAPC  H14R 4357   2.344   4.761   5.037  2.4281  0.2259 -1.6691
   58SAPC  C215 4358   2.291   4.707   4.837  0.4788 -0.3242  0.0943
   58SAPC  H15R 4359   2.304   4.811   4.801  1.0288  0.0678  1.3626
   58SAPC  C216 4360   2.267   4.608   4.734  0.7118  0.5629 -0.2794
   58SAPC  H16R 4361   2.322   4.513   4.750  1.9178  1.0712 -1.2477
   58SAPC  H16S 4362   2.279   4.648   4.631 -3.4639 -0.1096 -1.2193
   58SAPC  C217 4363   2.114   4.574   4.731 -0.3085 -0.1525 -0.2071
   58SAPC  H17R 4364   2.053   4.665   4.746  0.5965  0.7689 -1.8672
   58SAPC  H17S 4365   2.086   4.509   4.817  0.5504  0.0746  0.2476
   58SAPC  C218 4366   2.067   4.488   4.615 -0.2541 -0.0401  0.0999
   58SAPC  H18R 4367   1.962   4.455   4.632  0.2108 -0.8250  1.6640
   58SAPC  H18S 4368   2.127   4.396   4.599  1.3152  1.1712 -1.2446
   58SAPC  C219 4369   2.062   4.550   4.473  0.7424  0.6121  0.4023
   58SAPC  H19R 4370   2.034   4.478   4.393  2.2417 -1.5368  1.6729
   58SAPC  H19S 4371   2.163   4.592   4.456  0.6382  1.2146  1.1812
   58SAPC  C220 4372   1.970   4.673   4.476 -0.4055  0.3036  0.2750
   58SAPC  H20R 4373   1.963   4.721   4.376 -1.2179 -2.1034 -0.8939
   58SAPC  H20S 4374   2.011   4.749   4.546  1.3010 -0.7275  0.4650
   58SAPC  H20T 4375   1.866   4.657   4.513 -1.4423  0.1055 -2.5114
   58SAPC   C33 4376   2.531   4.517   5.973  0.0631  0.5540 -0.1498
   58SAPC   H3X 4377   2.474   4.464   6.052 -0.4868  1.7134  0.2462
   58SAPC   H3Y 4378   2.604   4.449   5.924 -0.9096 -2.4638  2.2070
   58SAPC   C34 4379   2.425   4.564   5.868  0.4987  0.8343 -0.3821
   58SAPC   H4X 4380   2.334   4.610   5.912 -0.9879 -0.6851 -1.7469
   58SAPC   H4Y 4381   2.399   4.468   5.820  3.0464 -0.4403  0.5838
   58SAPC   C35 4382   2.464   4.667   5.758 -0.0410 -0.0962 -0.1095
   58SAPC   H5X 4383   2.561   4.631   5.717  0.6460  0.0636  1.3007
   58SAPC   H5Y 4384   2.482   4.763   5.811  0.6459  0.2734 -0.9945
   58SAPC   C36 4385   2.353   4.683   5.658 -0.8115  0.0436  0.7797
   58SAPC   H6X 4386   2.254   4.677   5.709  0.4413 -2.2567  3.0926
   58SAPC   H6Y 4387   2.346   4.590   5.597 -3.1063 -0.7904  2.1760
   58SAPC   C37 4388   2.367   4.803   5.569  0.2049 -0.0988  0.2436
   58SAPC   H7X 4389   2.461   4.790   5.511  0.5696  1.3918  0.4484
   58SAPC   H7Y 4390   2.383   4.891   5.635  2.1398 -0.0280 -0.2374
   58SAPC   C38 4391   2.251   4.829   5.481  0.5821  0.2481 -1.1059
   58SAPC   H8X 4392   2.157   4.838   5.539  0.6963  1.5428 -1.0964
   58SAPC   H8Y 4393   2.250   4.727   5.436 -0.4493 -0.6060  0.7229
   58SAPC   C39 4394   2.262   4.929   5.367  0.7132 -0.0734  0.3756
   58SAPC   H9X 4395   2.347   4.899   5.302  1.3671  0.1061  1.1321
   58SAPC   H9Y 4396   2.291   5.023   5.417  1.4789 -0.6814  1.1142
   58SAPC  C310 4397   2.131   4.951   5.284 -0.5437  0.6923 -0.0093
   58SAPC  H10X 4398   2.053   4.974   5.360 -0.6483  0.8918 -0.1762
   58SAPC  H10Y 4399   2.110   4.853   5.235 -0.5717  1.0354 -0.7009
   58SAPC  C311 4400   2.128   5.056   5.174  0.5591 -0.9115 -0.1825
   58SAPC  H11X 4401   2.149   5.152   5.226 -1.4044 -0.5842  0.0735
   58SAPC  H11Y 4402   2.026   5.058   5.130  0.8555  0.7785 -0.8820
   58SAPC  C312 4403   2.222   5.016   5.058 -0.2404 -0.3562 -0.4255
   58SAPC  H12X 4404   2.206   4.909   5.035 -2.1783  0.0455 -1.1257
   58SAPC  H12Y 4405   2.327   5.025   5.094 -0.3727 -1.9612  0.4565
   58SAPC  C313 4406   2.205   5.094   4.927 -0.7324  0.1007 -0.0961
   58SAPC  H13X 4407   2.276   5.064   4.848 -2.2708  0.1047 -1.5554
   58SAPC  H13Y 4408   2.208   5.203   4.948 -2.4419 -0.0407  1.2079
   58SAPC  C314 4409   2.068   5.055   4.860  0.0827  0.1631  0.6151
   58SAPC  H14X 4410   1.984   5.087   4.924 -0.4888 -1.7336  0.8609
   58SAPC  H14Y 4411   2.064   4.945   4.850 -0.4797  0.1647  0.7861
   58SAPC  C315 4412   2.055   5.122   4.722 -0.3315 -0.1232 -0.4623
   58SAPC  H15X 4413   2.152   5.118   4.668  0.6257  2.0681  0.9526
   58SAPC  H15Y 4414   2.043   5.232   4.731 -1.0907 -0.1102 -1.5130
   58SAPC  C316 4415   1.943   5.060   4.642  0.2033  0.5752  0.4396
   58SAPC  H16X 4416   1.844   5.075   4.691 -0.5770 -0.2626 -0.8296
   58SAPC  H16Y 4417   1.966   4.952   4.635  1.1557  0.7799  0.2328
   58SAPC  C317 4418   1.948   5.121   4.501  0.0144  0.1270  0.2381
   58SAPC  H17X 4419   2.049   5.105   4.457 -0.5386  0.2807 -1.1452
   58SAPC  H17Y 4420   1.936   5.231   4.505  1.2636  0.2412  2.3146
   58SAPC  C318 4421   1.850   5.054   4.405  0.2513 -0.4922 -0.0683
   58SAPC  H18X 4422   1.843   5.116   4.314 -1.9615 -1.1174 -0.3738
   58SAPC  H18Y 4423   1.750   5.056   4.454 -0.0285 -0.1002 -0.6523
   58SAPC  H18Z 4424   1.880   4.948   4.389  0.0999 -0.8394  1.7287
   59SAPC     N 4425   1.752   0.209   6.465 -0.1824  0.4237  0.0168
   59SAPC   C12 4426   1.695   0.307   6.367  0.5272  0.0182 -0.1835
   59SAPC  H12A 4427   1.751   0.284   6.277  1.7979 -0.6384  0.7414
   59SAPC  H12B 4428   1.714   0.409   6.395 -3.0938  0.7213  0.1637
   59SAPC   C13 4429   1.900   0.222   6.463  0.4676 -0.4902 -0.0465
   59SAPC  H13A 4430   1.952   0.144   6.516  2.5345  1.4912  1.0151
   59SAPC  H13B 4431   1.944   0.231   6.364 -1.7734  3.2357 -0.9118
   59SAPC  H13C 4432   1.929   0.313   6.513  0.1609 -0.6819  0.4804
   59SAPC   C14 4433   1.696   0.240   6.603  0.1105 -0.2298  0.1578
   59SAPC  H14A 4434   1.735   0.164   6.670 -0.0431 -1.9508 -1.6019
   59SAPC  H14B 4435   1.718   0.339   6.638 -2.1079 -0.5273  2.6800
   59SAPC  H14C 4436   1.589   0.229   6.602  0.1300 -0.4169  0.0108
   59SAPC   C15 4437   1.704   0.068   6.416 -0.3431 -0.1272 -0.4282
   59SAPC  H15A 4438   1.752   0.025   6.330  2.8281  1.0850  0.6048
   59SAPC  H15B 4439   1.720  -0.002   6.496  3.1424  0.1699 -0.7261
   59SAPC  H15C 4440   1.597   0.068   6.396 -0.5544  1.7512  0.4105
   59SAPC   C11 4441   1.546   0.315   6.328 -0.1940 -0.2587 -0.2994
   59SAPC  H11A 4442   1.518   0.221   6.277  0.1090 -1.2438  1.2612
   59SAPC  H11B 4443   1.537   0.391   6.248 -0.3959  0.2446  0.1927
   59SAPC     P 4444   1.439   0.486   6.481  0.0614 -0.3321 -0.3082
   59SAPC   O13 4445   1.349   0.497   6.601  0.0067  0.1995  0.3392
   59SAPC   O14 4446   1.569   0.554   6.489  0.1661  0.0271 -0.2044
   59SAPC   O12 4447   1.467   0.334   6.445 -0.1544  0.1644  0.2188
   59SAPC   O11 4448   1.379   0.545   6.348  0.1628 -0.4054 -0.0880
   59SAPC    C1 4449   1.241   0.542   6.307 -0.2742 -0.0933  0.1677
   59SAPC    HA 4450   1.222   0.471   6.224 -2.6821  1.7056 -0.9331
   59SAPC    HB 4451   1.173   0.521   6.392 -0.8051  0.5226 -0.0991
   59SAPC    C2 4452   1.192   0.676   6.240  0.5585 -0.3081  0.1548
   59SAPC    HS 4453   1.251   0.689   6.147 -1.9359  1.6181 -1.2883
   59SAPC   O21 4454   1.228   0.781   6.327 -0.3828  0.7431 -0.2844
   59SAPC   C21 4455   1.203   0.897   6.283  0.5052 -0.0958  0.2379
   59SAPC   O22 4456   1.167   0.931   6.174  0.1426 -0.3072  0.3539
   59SAPC   C22 4457   1.209   0.996   6.406 -0.0777  0.0547  0.1715
   59SAPC   H2R 4458   1.108   1.037   6.424 -0.1696 -0.8301  1.9378
   59SAPC   H2S 4459   1.241   0.942   6.498  1.0597 -0.8397 -0.7047
   59SAPC    C3 4460   1.035   0.666   6.212  0.2141 -1.1376 -0.1008
   59SAPC    HX 4461   1.008   0.761   6.161  1.9994  0.3697  1.6377
   59SAPC    HY 4462   0.988   0.666   6.312  1.2250  1.9907  0.4757
   59SAPC   O31 4463   0.993   0.550   6.137  0.1181 -0.3852  0.4288
   59SAPC   C31 4464   1.020   0.563   6.010 -0.6235 -0.1872 -0.6518
   59SAPC   O32 4465   1.087   0.652   5.958  0.8224  0.4002  0.6916
   59SAPC   C32 4466   0.966   0.445   5.935  0.7910  0.2728  0.5724
   59SAPC   H2X 4467   0.859   0.435   5.962  0.3809 -3.6732 -1.7708
   59SAPC   H2Y 4468   1.010   0.345   5.955 -2.4652 -1.2683  0.5784
   59SAPC   C23 4469   1.301   1.115   6.370 -0.4772  0.3578  0.3238
   59SAPC   H3R 4470   1.265   1.205   6.423  0.4621 -0.0084  1.6268
   59SAPC   H3S 4471   1.294   1.130   6.260  0.8504 -0.0661  0.1607
   59SAPC   C24 4472   1.448   1.087   6.418  0.5222 -0.7128 -0.2100
   59SAPC   H4R 4473   1.454   1.062   6.526 -0.1215 -2.1369 -0.4808
   59SAPC   H4S 4474   1.500   1.185   6.407  2.3656 -1.6029  0.2649
   59SAPC   C25 4475   1.530   0.993   6.336  0.3085  0.2927  0.3890
   59SAPC   H5R 4476   1.534   0.890   6.375  0.0283 -0.4103 -1.3447
   59SAPC   C26 4477   1.588   1.016   6.214  0.1923  0.2502  0.1109
   59SAPC   H6R 4478   1.644   0.933   6.168  1.1972  1.8228 -1.6463
   59SAPC   C27 4479   1.589   1.142   6.132  0.0633 -0.2206  0.1886
   59SAPC   H7R 4480   1.687   1.155   6.081 -0.4764 -1.6892 -1.3170
   59SAPC   H7S 4481   1.585   1.237   6.189 -0.9354 -0.2000  0.0959
   59SAPC   C28 4482   1.479   1.154   6.029  0.1795 -0.1676  0.3426
   59SAPC   H8R 4483   1.384   1.186   6.074  0.8120 -0.5364  1.9940
   59SAPC   C29 4484   1.493   1.123   5.899  0.3495  0.6072  0.7773
   59SAPC   H9R 4485   1.410   1.129   5.827  3.3415  0.8337 -2.9627
   59SAPC  C210 4486   1.611   1.062   5.834 -0.2588 -0.2902  0.7081
   59SAPC  H10R 4487   1.577   0.965   5.791 -2.5568  1.3658 -1.5833
   59SAPC  H10S 4488   1.685   1.028   5.909 -1.7289  0.6473  2.6838
   59SAPC  C211 4489   1.661   1.153   5.727 -0.7503  0.5460 -0.2578
   59SAPC  H11R 4490   1.648   1.258   5.759  1.2913  0.3803  1.3356
   59SAPC  C212 4491   1.721   1.112   5.614 -0.1083  0.8976  0.7139
   59SAPC  H12R 4492   1.738   1.194   5.542 -2.6683  0.0942 -0.9475
   59SAPC  C213 4493   1.739   0.970   5.560  0.1246  0.1873 -0.5823
   59SAPC  H13R 4494   1.669   0.892   5.597  0.9726  0.3794  1.5647
   59SAPC  H13S 4495   1.844   0.945   5.587  0.5277  1.8088 -0.5250
   59SAPC  C214 4496   1.718   0.969   5.411 -0.3646 -0.3614  0.2745
   59SAPC  H14R 4497   1.636   1.033   5.376 -1.9354 -3.5088 -2.3279
   59SAPC  C215 4498   1.786   0.903   5.312  0.5182  0.8470  0.2198
   59SAPC  H15R 4499   1.763   0.904   5.205  0.2385 -1.0134  0.2169
   59SAPC  C216 4500   1.914   0.821   5.324  0.8398 -0.0097 -0.5520
   59SAPC  H16R 4501   1.985   0.873   5.393 -0.1352  1.1313 -0.3889
   59SAPC  H16S 4502   1.961   0.811   5.224 -0.3723 -1.0914 -1.0313
   59SAPC  C217 4503   1.892   0.678   5.375  0.2768  0.0375  0.2990
   59SAPC  H17R 4504   1.863   0.618   5.286  0.6583  2.3169 -1.4424
   59SAPC  H17S 4505   1.810   0.664   5.449  0.9150  0.1571  1.0357
   59SAPC  C218 4506   2.010   0.603   5.439  0.5072  0.5539  1.0809
   59SAPC  H18R 4507   2.105   0.622   5.384 -0.3375 -1.4761 -1.2482
   59SAPC  H18S 4508   2.000   0.493   5.433 -0.0637  0.6636 -0.3815
   59SAPC  C219 4509   2.036   0.637   5.585 -0.3604 -0.5045 -0.3909
   59SAPC  H19R 4510   2.058   0.746   5.584  0.4242 -0.6179  0.8534
   59SAPC  H19S 4511   2.124   0.581   5.626 -1.3542 -1.1582  0.9284
   59SAPC  C220 4512   1.916   0.608   5.679 -0.2228 -0.0636  0.4769
   59SAPC  H20R 4513   1.942   0.625   5.785 -3.2291  2.7654  0.9173
   59SAPC  H20S 4514   1.895   0.498   5.674  0.3774 -0.1335 -1.3513
   59SAPC  H20T 4515   1.828   0.668   5.648 -2.1307 -2.5456  0.7003
   59SAPC   C33 4516   0.964   0.464   5.778  0.7378  0.2311 -0.4792
   59SAPC   H3X 4517   0.939   0.366   5.730 -1.3006  1.0433 -1.1993
   59SAPC   H3Y 4518   1.064   0.492   5.738  0.5998  0.1333 -0.9076
   59SAPC   C34 4519   0.872   0.572   5.728 -0.1851  0.2274 -0.0681
   59SAPC   H4X 4520   0.897   0.679   5.749 -0.3933  0.9241 -2.9111
   59SAPC   H4Y 4521   0.769   0.550   5.763 -0.6510  2.3894  0.0809
   59SAPC   C35 4522   0.865   0.582   5.574  0.2034 -0.2108  0.2340
   59SAPC   H5X 4523   0.836   0.479   5.542  0.4372  0.1074 -1.0551
   59SAPC   H5Y 4524   0.970   0.602   5.543 -0.1150 -1.8225 -2.1771
   59SAPC   C36 4525   0.769   0.691   5.543 -0.4529 -0.0896  0.7090
   59SAPC   H6X 4526   0.808   0.783   5.589  0.7973 -0.6767  0.8592
   59SAPC   H6Y 4527   0.671   0.673   5.592 -0.2357 -0.1872  1.1131
   59SAPC   C37 4528   0.741   0.714   5.391 -0.2311  0.4849 -0.1079
   59SAPC   H7X 4529   0.662   0.791   5.377 -0.5363  0.3905  0.9864
   59SAPC   H7Y 4530   0.689   0.626   5.347 -0.9032  1.6016 -1.6347
   59SAPC   C38 4531   0.856   0.767   5.309 -0.8533 -0.4826 -0.7754
   59SAPC   H8X 4532   0.948   0.706   5.323  0.1840  1.0355 -0.8473
   59SAPC   H8Y 4533   0.885   0.867   5.346 -2.1924  0.3461 -1.8800
   59SAPC   C39 4534   0.807   0.783   5.162  0.1530 -0.0948 -0.1144
   59SAPC   H9X 4535   0.728   0.860   5.170 -1.3582 -1.4751 -1.0996
   59SAPC   H9Y 4536   0.760   0.696   5.112  1.2341 -0.5726 -0.3356
   59SAPC  C310 4537   0.916   0.841   5.073  0.4414  0.1690  0.2664
   59SAPC  H10X 4538   0.959   0.756   5.016  0.1739 -0.3293  0.7951
   59SAPC  H10Y 4539   1.006   0.886   5.120  1.4021  0.5533 -1.8304
   59SAPC  C311 4540   0.871   0.944   4.965  0.4108  0.1647  0.4392
   59SAPC  H11X 4541   0.833   1.038   5.010 -1.6924 -0.2506 -0.3522
   59SAPC  H11Y 4542   0.780   0.912   4.911  0.1911  1.2096  0.1646
   59SAPC  C312 4543   0.993   0.965   4.870  0.8125 -0.2642 -0.0275
   59SAPC  H12X 4544   1.035   0.874   4.822 -2.3988 -0.7419 -2.2198
   59SAPC  H12Y 4545   1.067   0.992   4.949 -0.9956  1.6224  1.1145
   59SAPC  C313 4546   0.985   1.082   4.776 -0.2179  0.0654 -0.0970
   59SAPC  H13X 4547   0.904   1.151   4.806  0.6218  0.4288  1.4341
   59SAPC  H13Y 4548   0.949   1.047   4.677 -1.1233  2.6324 -0.7376
   59SAPC  C314 4549   1.114   1.161   4.752  0.1705 -0.6148 -0.2340
   59SAPC  H14X 4550   1.153   1.203   4.847 -1.7378  1.6103 -0.3585
   59SAPC  H14Y 4551   1.096   1.242   4.678 -1.1902 -0.1653  0.5476
   59SAPC  C315 4552   1.214   1.063   4.699 -0.1959 -0.0579 -0.6602
   59SAPC  H15X 4553   1.164   1.016   4.612 -0.7836 -0.2843 -0.2087
   59SAPC  H15Y 4554   1.239   0.975   4.763 -0.2852  0.4462  0.0804
   59SAPC  C316 4555   1.344   1.136   4.660 -0.2636  0.3207 -0.0913
   59SAPC  H16X 4556   1.396   1.156   4.756  0.0714 -1.2482  0.0786
   59SAPC  H16Y 4557   1.315   1.224   4.600  0.6166  1.7456  1.4812
   59SAPC  C317 4558   1.447   1.051   4.574 -0.3186 -0.7243  0.1463
   59SAPC  H17X 4559   1.524   1.126   4.545 -0.2180 -1.5626 -1.8729
   59SAPC  H17Y 4560   1.393   1.017   4.483 -2.7632  1.8991  0.4494
   59SAPC  C318 4561   1.515   0.936   4.642 -0.3157 -0.3123 -0.4328
   59SAPC  H18X 4562   1.579   0.989   4.716 -2.9278  2.3832  0.0620
   59SAPC  H18Y 4563   1.578   0.870   4.578  0.1735 -0.2438 -0.0308
   59SAPC  H18Z 4564   1.432   0.880   4.689 -0.4515  0.2252 -0.0315
   60SAPC     N 4565   2.489   2.609   7.109  0.5238 -0.0805  0.5122
   60SAPC   C12 4566   2.560   2.711   7.026  0.4357 -0.3298  0.5495
   60SAPC  H12A 4567   2.654   2.739   7.073  1.3183  0.1525 -1.3888
   60SAPC  H12B 4568   2.506   2.804   7.026  0.8702 -0.0732  0.5400
   60SAPC   C13 4569   2.348   2.623   7.061  0.2041  0.2590 -0.3805
   60SAPC  H13A 4570   2.290   2.545   7.108  2.6938 -1.8944 -0.6577
   60SAPC  H13B 4571   2.298   2.713   7.095 -0.2065 -0.1136  0.0191
   60SAPC  H13C 4572   2.331   2.632   6.954 -0.7904  0.6714 -0.1976
   60SAPC   C14 4573   2.545   2.469   7.093 -0.1242 -0.6779 -0.3783
   60SAPC  H14A 4574   2.553   2.437   6.991  0.8850  0.3900 -0.6548
   60SAPC  H14B 4575   2.649   2.469   7.122  0.3646 -3.2412 -1.8646
   60SAPC  H14C 4576   2.485   2.395   7.144 -0.3903 -0.2825 -0.1110
   60SAPC   C15 4577   2.498   2.655   7.248  0.2860 -0.3480  0.5520
   60SAPC  H15A 4578   2.498   2.763   7.255  1.4843 -0.3860  1.5423
   60SAPC  H15B 4579   2.415   2.621   7.308 -0.8146  0.0404 -0.7000
   60SAPC  H15C 4580   2.595   2.632   7.291 -1.1372 -1.3683  3.4598
   60SAPC   C11 4581   2.592   2.680   6.875 -0.0910 -0.4645  0.7044
   60SAPC  H11A 4582   2.640   2.582   6.856  0.3233 -0.0771 -0.3199
   60SAPC  H11B 4583   2.667   2.753   6.838 -0.6554 -0.7334 -1.0400
   60SAPC     P 4584   2.424   2.834   6.728 -0.1326  0.0520 -0.2429
   60SAPC   O13 4585   2.477   2.943   6.813  0.4291  0.0172 -0.0891
   60SAPC   O14 4586   2.479   2.832   6.589  0.2940 -0.2521 -0.5778
   60SAPC   O12 4587   2.469   2.697   6.802  0.2288  0.3089  0.6158
   60SAPC   O11 4588   2.263   2.827   6.746 -0.3505  0.4642 -0.1027
   60SAPC    C1 4589   2.189   2.735   6.656 -0.6163  0.0549  0.1032
   60SAPC    HA 4590   2.252   2.653   6.614  0.6780 -0.4879  2.8009
   60SAPC    HB 4591   2.109   2.681   6.711 -0.2114 -2.1141 -1.2755
   60SAPC    C2 4592   2.124   2.810   6.533 -0.4773 -0.0985  0.4675
   60SAPC    HS 4593   2.042   2.749   6.490  0.1003 -0.6181  0.0915
   60SAPC   O21 4594   2.220   2.843   6.431  0.1854 -0.1364 -0.0457
   60SAPC   C21 4595   2.245   2.743   6.348 -0.6122  0.0584  0.5137
   60SAPC   O22 4596   2.184   2.634   6.341  0.1813 -0.8854  0.2056
   60SAPC   C22 4597   2.369   2.784   6.263  0.2222 -0.3213 -0.2909
   60SAPC   H2R 4598   2.447   2.813   6.336 -0.5514  1.1759 -0.0276
   60SAPC   H2S 4599   2.407   2.700   6.201 -2.0823 -1.8564  0.2053
   60SAPC    C3 4600   2.070   2.941   6.591 -0.8225 -0.6650 -0.4067
   60SAPC    HX 4601   2.152   3.016   6.599 -1.1084 -0.0873 -2.5192
   60SAPC    HY 4602   2.046   2.924   6.699 -1.2790  1.4867 -0.1328
   60SAPC   O31 4603   1.967   2.984   6.507 -0.1238 -0.0139 -0.0722
   60SAPC   C31 4604   1.992   3.061   6.409  0.5771  0.6169 -0.6016
   60SAPC   O32 4605   2.105   3.105   6.384  0.2597  0.6027 -0.3231
   60SAPC   C32 4606   1.873   3.091   6.320 -0.0639  0.3469 -0.4278
   60SAPC   H2X 4607   1.871   3.198   6.290  0.2589  0.5022  0.0972
   60SAPC   H2Y 4608   1.778   3.064   6.370  0.7756 -3.6084 -0.6588
   60SAPC   C23 4609   2.355   2.906   6.171  0.5591 -0.2439 -1.1505
   60SAPC   H3R 4610   2.458   2.948   6.161  0.9963 -0.4193  1.6189
   60SAPC   H3S 4611   2.294   2.987   6.216  2.3798  1.4635 -1.6100
   60SAPC   C24 4612   2.298   2.873   6.037  0.7816  0.2565 -0.3749
   60SAPC   H4R 4613   2.267   2.968   5.989 -0.0246  0.6201  0.8172
   60SAPC   H4S 4614   2.217   2.797   6.039  1.7520 -0.7979  0.1042
   60SAPC   C25 4615   2.405   2.801   5.947 -0.4834  0.0227 -0.1177
   60SAPC   H5R 4616   2.502   2.852   5.943 -0.0175 -0.8821 -0.4854
   60SAPC   C26 4617   2.394   2.688   5.873 -0.1827  0.4694  0.4755
   60SAPC   H6R 4618   2.472   2.666   5.799 -2.8427 -2.4282 -1.7375
   60SAPC   C27 4619   2.271   2.605   5.851 -0.6130 -0.4250  0.5190
   60SAPC   H7R 4620   2.194   2.640   5.923  0.0007  3.1390 -0.3968
   60SAPC   H7S 4621   2.295   2.496   5.844  2.1250  0.2003 -1.3377
   60SAPC   C28 4622   2.221   2.661   5.722 -0.0815  0.0426  0.0453
   60SAPC   H8R 4623   2.210   2.770   5.712 -1.4703  0.0281  1.1645
   60SAPC   C29 4624   2.201   2.588   5.610  0.3426  0.0313  0.1083
   60SAPC   H9R 4625   2.162   2.632   5.516  0.6818 -1.0060 -0.5363
   60SAPC  C210 4626   2.211   2.438   5.608 -0.4791  0.4476  0.6827
   60SAPC  H10R 4627   2.139   2.402   5.684 -1.6183  1.3322  0.0637
   60SAPC  H10S 4628   2.311   2.399   5.636 -0.0882  0.2965 -0.8313
   60SAPC  C211 4629   2.175   2.370   5.475 -0.0504  0.1504 -0.0941
   60SAPC  H11R 4630   2.067   2.346   5.466 -0.3868  1.2613  0.7732
   60SAPC  C212 4631   2.265   2.324   5.379  0.0892 -0.5525  0.5150
   60SAPC  H12R 4632   2.231   2.264   5.293 -1.2782 -0.6559  1.1181
   60SAPC  C213 4633   2.418   2.351   5.370 -0.0413  0.7100 -0.1459
   60SAPC  H13R 4634   2.460   2.386   5.466  1.0905  2.1245 -1.1190
   60SAPC  H13S 4635   2.431   2.434   5.297  1.6041 -0.2437 -0.9956
   60SAPC  C214 4636   2.487   2.226   5.324  0.4990 -0.2538 -0.3368
   60SAPC  H14R 4637   2.499   2.146   5.398 -1.1809 -1.1174 -0.9273
   60SAPC  C215 4638   2.532   2.196   5.201 -0.1370  0.2152 -0.7622
   60SAPC  H15R 4639   2.572   2.095   5.182  0.4667  0.1281  0.7632
   60SAPC  C216 4640   2.516   2.280   5.082 -0.3177  0.0090 -0.1765
   60SAPC  H16R 4641   2.489   2.386   5.100  1.0734  0.2158  0.8132
   60SAPC  H16S 4642   2.435   2.240   5.017  0.3522  1.6779 -2.1492
   60SAPC  C217 4643   2.641   2.293   4.993  0.6563  0.3263 -0.3899
   60SAPC  H17R 4644   2.727   2.309   5.062  0.3303 -2.7346  0.8812
   60SAPC  H17S 4645   2.629   2.380   4.925 -0.7268 -0.5370 -1.3161
   60SAPC  C218 4646   2.666   2.164   4.916 -0.1852 -0.1620 -0.0600
   60SAPC  H18R 4647   2.586   2.157   4.839  1.7306 -0.3384 -2.1451
   60SAPC  H18S 4648   2.665   2.076   4.983 -1.1738 -1.2035 -1.3958
   60SAPC  C219 4649   2.811   2.156   4.855  0.8832 -0.2986  0.0299
   60SAPC  H19R 4650   2.825   2.077   4.778  2.6661 -2.7100  2.6245
   60SAPC  H19S 4651   2.886   2.140   4.935  3.8128 -0.7310 -2.6438
   60SAPC  C220 4652   2.849   2.289   4.788  0.1569  0.3056 -0.2458
   60SAPC  H20R 4653   2.761   2.334   4.738 -1.3030  2.8216  4.0138
   60SAPC  H20S 4654   2.938   2.285   4.722 -1.7918  1.2096 -3.1447
   60SAPC  H20T 4655   2.875   2.361   4.869  0.7397  0.0374 -0.1906
   60SAPC   C33 4656   1.881   3.008   6.187 -0.0464 -0.0755  0.0829
   60SAPC   H3X 4657   1.782   3.011   6.137  0.5868 -0.1296 -1.2082
   60SAPC   H3Y 4658   1.892   2.899   6.210 -1.0712 -0.1472  0.2649
   60SAPC   C34 4659   1.976   3.068   6.079  0.0990  0.2119  0.1018
   60SAPC   H4X 4660   2.079   3.084   6.115  0.0344  0.9562 -0.0384
   60SAPC   H4Y 4661   1.942   3.170   6.050 -0.3829  0.8061  2.5928
   60SAPC   C35 4662   1.973   2.977   5.951 -0.2078  0.4244 -1.4221
   60SAPC   H5X 4663   1.871   2.936   5.937 -0.9311  1.1337  1.1471
   60SAPC   H5Y 4664   2.045   2.893   5.950  1.0515  1.3733  1.2026
   60SAPC   C36 4665   2.005   3.060   5.827  0.1992 -0.3031 -0.6094
   60SAPC   H6X 4666   2.114   3.078   5.828  0.2347 -0.2926 -2.0582
   60SAPC   H6Y 4667   1.961   3.162   5.821  0.4947 -0.1995 -1.0891
   60SAPC   C37 4668   1.987   2.982   5.695  0.5158 -0.4107 -0.7566
   60SAPC   H7X 4669   1.879   2.991   5.671 -0.2400 -1.6371  1.7718
   60SAPC   H7Y 4670   2.015   2.874   5.691 -1.5183 -0.9388 -1.9317
   60SAPC   C38 4671   2.066   3.051   5.580 -0.1720 -0.0208 -0.2097
   60SAPC   H8X 4672   2.174   3.035   5.603 -0.2053  1.7465  1.4879
   60SAPC   H8Y 4673   2.046   3.160   5.589 -0.8248 -0.2863  5.0447
   60SAPC   C39 4674   2.038   3.001   5.441 -0.0918  0.5890 -0.6088
   60SAPC   H9X 4675   1.929   2.980   5.437  0.1740 -0.9624 -0.2276
   60SAPC   H9Y 4676   2.088   2.904   5.422 -1.1131 -0.1119  0.1719
   60SAPC  C310 4677   2.086   3.095   5.325 -0.6303 -0.6353 -0.2758
   60SAPC  H10X 4678   2.195   3.108   5.345 -1.0856 -0.2742  2.2709
   60SAPC  H10Y 4679   2.041   3.193   5.350 -1.1615 -0.8597 -0.3527
   60SAPC  C311 4680   2.048   3.051   5.183  0.2091 -0.0596  0.1861
   60SAPC  H11X 4681   1.944   3.018   5.202  1.2017 -2.5873  1.8100
   60SAPC  H11Y 4682   2.115   2.962   5.177 -0.9103 -0.8363 -1.5356
   60SAPC  C312 4683   2.072   3.150   5.067 -0.0541  0.1905 -0.1646
   60SAPC  H12X 4684   2.137   3.230   5.108  1.1689 -1.4965  1.3478
   60SAPC  H12Y 4685   1.971   3.182   5.032  0.4432  1.4695 -0.4789
   60SAPC  C313 4686   2.151   3.100   4.949 -0.5514  0.3463  0.8026
   60SAPC  H13X 4687   2.101   3.008   4.911 -1.4248  0.6182  1.2618
   60SAPC  H13Y 4688   2.252   3.064   4.977 -0.6809 -0.1502  0.6432
   60SAPC  C314 4689   2.174   3.204   4.832 -0.0528  0.4260 -0.0279
   60SAPC  H14X 4690   2.226   3.289   4.881 -0.3688 -0.5715  2.2100
   60SAPC  H14Y 4691   2.072   3.225   4.796 -0.9163 -0.5048  1.7405
   60SAPC  C315 4692   2.246   3.136   4.714 -0.0245 -0.0346 -0.8243
   60SAPC  H15X 4693   2.196   3.046   4.674 -2.9563  1.0859  0.0752
   60SAPC  H15Y 4694   2.339   3.101   4.764 -0.6148  0.8584  0.9460
   60SAPC  C316 4695   2.287   3.227   4.597  0.3101 -0.5219 -0.6283
   60SAPC  H16X 4696   2.351   3.298   4.653 -0.3464 -1.2754  1.1473
   60SAPC  H16Y 4697   2.197   3.283   4.563 -0.5366 -1.0946  0.6033
   60SAPC  C317 4698   2.345   3.175   4.471 -0.1040  0.2249  0.2124
   60SAPC  H17X 4699   2.266   3.107   4.434  0.7067 -1.2922  1.1836
   60SAPC  H17Y 4700   2.437   3.114   4.484  0.1171  0.5532  0.1981
   60SAPC  C318 4701   2.364   3.291   4.364  0.6496  0.4081  0.4002
   60SAPC  H18X 4702   2.266   3.328   4.327  0.7438  0.1942 -0.0658
   60SAPC  H18Y 4703   2.416   3.242   4.279 -0.5719 -1.6823  0.7831
   60SAPC  H18Z 4704   2.425   3.380   4.389  1.3586  0.8402 -2.5054
   61SAPC     N 4705   0.423   3.079   6.717  0.3424  0.1882  0.2542
   61SAPC   C12 4706   0.306   3.027   6.637 -0.7405  0.2008  0.0721
   61SAPC  H12A 4707   0.338   2.997   6.538 -2.4714 -3.3679  0.4416
   61SAPC  H12B 4708   0.239   3.111   6.625  1.4125  1.9229 -0.5365
   61SAPC   C13 4709   0.517   2.966   6.753  0.0204  0.1841 -0.7457
   61SAPC  H13A 4710   0.571   2.936   6.665 -1.3094 -1.1641 -1.1452
   61SAPC  H13B 4711   0.585   2.996   6.832 -1.6184 -0.5859  1.0647
   61SAPC  H13C 4712   0.471   2.870   6.774  0.3804 -0.0897 -1.1887
   61SAPC   C14 4713   0.499   3.175   6.638 -0.3422 -0.2688  0.2383
   61SAPC  H14A 4714   0.536   3.128   6.548 -2.3678 -1.1546 -0.1857
   61SAPC  H14B 4715   0.452   3.267   6.607 -1.0459 -0.4852  0.6503
   61SAPC  H14C 4716   0.589   3.198   6.694 -1.1565 -0.1495  1.5411
   61SAPC   C15 4717   0.366   3.144   6.838  0.4450  1.5921 -0.0520
   61SAPC  H15A 4718   0.433   3.146   6.923 -0.6782 -0.7610  0.9915
   61SAPC  H15B 4719   0.319   3.240   6.819 -0.9644  0.8795 -0.3186
   61SAPC  H15C 4720   0.289   3.074   6.867  1.0902  1.3441  1.1206
   61SAPC   C11 4721   0.232   2.903   6.699 -0.7610 -0.1989  0.1538
   61SAPC  H11A 4722   0.134   2.912   6.649 -0.0070  0.9928 -1.1834
   61SAPC  H11B 4723   0.225   2.915   6.809  0.8933 -0.5084  0.3255
   61SAPC     P 4724   0.207   2.653   6.655 -0.2293 -0.0719  0.1023
   61SAPC   O13 4725   0.299   2.535   6.646  0.1138 -0.1766 -0.2100
   61SAPC   O14 4726   0.108   2.658   6.767 -0.0615  0.3030 -0.1677
   61SAPC   O12 4727   0.296   2.778   6.668  0.0206  0.5516 -0.1017
   61SAPC   O11 4728   0.136   2.681   6.518  0.6957  0.1569  0.3498
   61SAPC    C1 4729   0.215   2.666   6.395  0.5136  0.0065  0.5379
   61SAPC    HA 4730   0.287   2.582   6.399 -2.1356 -2.5738 -1.6554
   61SAPC    HB 4731   0.155   2.650   6.303 -0.3582 -0.7010  1.2087
   61SAPC    C2 4732   0.290   2.796   6.349 -0.4135  0.3693  0.5629
   61SAPC    HS 4733   0.335   2.839   6.441 -0.8879 -0.4059  1.1763
   61SAPC   O21 4734   0.188   2.880   6.291 -0.0853  0.5444  0.0793
   61SAPC   C21 4735   0.219   3.007   6.281  0.3533 -0.1009 -0.1421
   61SAPC   O22 4736   0.312   3.063   6.336 -1.5251 -0.1548 -0.6484
   61SAPC   C22 4737   0.124   3.082   6.197  0.0431 -0.6141 -1.2012
   61SAPC   H2R 4738   0.063   3.000   6.155 -1.7189  0.5037 -0.9283
   61SAPC   H2S 4739   0.048   3.131   6.261 -1.0300 -1.2215 -1.9875
   61SAPC    C3 4740   0.412   2.757   6.249  0.3216  0.1512  0.1233
   61SAPC    HX 4741   0.485   2.681   6.283 -1.2132 -1.7862 -0.7193
   61SAPC    HY 4742   0.476   2.848   6.256 -2.2105  1.9656  1.9914
   61SAPC   O31 4743   0.370   2.717   6.119 -0.8031 -0.2442  0.3398
   61SAPC   C31 4744   0.331   2.595   6.097  0.1849 -0.1216 -0.0273
   61SAPC   O32 4745   0.343   2.497   6.168 -0.3046  0.2916  0.2808
   61SAPC   C32 4746   0.271   2.592   5.949  0.3749  0.8747 -0.4025
   61SAPC   H2X 4747   0.169   2.550   5.966  1.1288 -0.8699 -0.0021
   61SAPC   H2Y 4748   0.326   2.503   5.912 -0.9935 -0.9978  1.7770
   61SAPC   C23 4749   0.181   3.173   6.080 -0.4601  0.2309 -0.2757
   61SAPC   H3R 4750   0.219   3.120   5.990  1.0670 -0.1068  0.5380
   61SAPC   H3S 4751   0.274   3.223   6.115 -0.8996  0.5651  0.4413
   61SAPC   C24 4752   0.085   3.288   6.051  0.6694 -1.0642  0.5865
   61SAPC   H4R 4753   0.059   3.347   6.141  1.3420 -1.2933  0.9324
   61SAPC   H4S 4754  -0.004   3.230   6.016  1.3753 -2.0215  0.3510
   61SAPC   C25 4755   0.134   3.396   5.948  0.1797  0.4835  0.1097
   61SAPC   H5R 4756   0.161   3.494   5.990  0.9153  0.2285  0.2399
   61SAPC   C26 4757   0.134   3.389   5.813  0.6492 -0.0641 -0.6843
   61SAPC   H6R 4758   0.162   3.480   5.757 -1.3786  1.9496  1.3509
   61SAPC   C27 4759   0.110   3.264   5.729  0.2668  0.0333  0.2525
   61SAPC   H7R 4760   0.004   3.267   5.696 -0.8331 -0.2593  3.4035
   61SAPC   H7S 4761   0.117   3.170   5.787  0.2983  0.3205  0.7158
   61SAPC   C28 4762   0.210   3.229   5.619 -0.6425  0.3804 -1.0602
   61SAPC   H8R 4763   0.280   3.148   5.646  1.7053  1.9296 -2.1153
   61SAPC   C29 4764   0.211   3.271   5.497 -0.0644 -0.5413  0.5822
   61SAPC   H9R 4765   0.297   3.243   5.434 -0.1979  0.4378 -0.0653
   61SAPC  C210 4766   0.113   3.372   5.439 -0.4715  0.3180 -1.0524
   61SAPC  H10R 4767   0.070   3.434   5.520 -1.8263 -0.9692 -0.7469
   61SAPC  H10S 4768   0.026   3.320   5.394  0.6328 -1.9991 -0.6739
   61SAPC  C211 4769   0.182   3.468   5.349  0.3566  0.6629 -0.1641
   61SAPC  H11R 4770   0.240   3.549   5.396 -0.4713  2.9470 -2.8106
   61SAPC  C212 4771   0.174   3.475   5.219 -0.1727  0.1244  0.2244
   61SAPC  H12R 4772   0.222   3.558   5.164 -2.0587 -0.0939 -1.8789
   61SAPC  C213 4773   0.094   3.388   5.122 -0.2658 -0.1056  0.2724
   61SAPC  H13R 4774  -0.015   3.410   5.118 -0.2168 -0.0559 -2.1684
   61SAPC  H13S 4775   0.099   3.282   5.152  0.9227 -0.2249 -0.2790
   61SAPC  C214 4776   0.147   3.408   4.981  0.3072 -0.0691  0.0119
   61SAPC  H14R 4777   0.240   3.357   4.953  1.2559  1.3101  0.5138
   61SAPC  C215 4778   0.081   3.487   4.889 -0.2856  0.1299 -0.0309
   61SAPC  H15R 4779   0.133   3.511   4.795 -0.9476  0.0313 -0.4223
   61SAPC  C216 4780  -0.044   3.574   4.905 -0.3973  0.2332 -0.4680
   61SAPC  H16R 4781  -0.008   3.677   4.885  3.6242 -1.2926 -1.8538
   61SAPC  H16S 4782  -0.079   3.565   5.010 -0.9506  0.1731 -0.6522
   61SAPC  C217 4783  -0.173   3.542   4.826 -0.3518  0.0251 -0.6269
   61SAPC  H17R 4784  -0.256   3.594   4.880 -1.2215 -2.1921  0.2745
   61SAPC  H17S 4785  -0.215   3.440   4.839 -1.4120  0.5891  0.6249
   61SAPC  C218 4786  -0.148   3.579   4.684 -0.3850 -0.0927 -0.2437
   61SAPC  H18R 4787  -0.059   3.530   4.638 -0.0726  0.2983 -0.0711
   61SAPC  H18S 4788  -0.118   3.685   4.702 -0.1917  0.0217 -1.1473
   61SAPC  C219 4789  -0.262   3.589   4.582  0.3863  0.3253 -0.1093
   61SAPC  H19R 4790  -0.221   3.631   4.488  0.2549  0.3374 -0.1614
   61SAPC  H19S 4791  -0.332   3.661   4.629 -0.5979 -1.0020  0.5475
   61SAPC  C220 4792  -0.336   3.452   4.561 -0.1520  0.2642 -0.2418
   61SAPC  H20R 4793  -0.278   3.384   4.495  1.5283 -0.5837  1.9888
   61SAPC  H20S 4794  -0.425   3.472   4.498  0.0973  0.0720 -0.6579
   61SAPC  H20T 4795  -0.369   3.411   4.659  0.5284  2.0849  0.8034
   61SAPC   C33 4796   0.286   2.708   5.848 -0.0852  0.1576 -0.8560
   61SAPC   H3X 4797   0.376   2.767   5.878  0.8820 -1.2144 -0.9704
   61SAPC   H3Y 4798   0.206   2.784   5.863 -1.1323 -1.0769  0.0520
   61SAPC   C34 4799   0.296   2.666   5.706  0.2621 -0.5492 -0.0430
   61SAPC   H4X 4800   0.215   2.601   5.664  0.7772 -0.2962 -1.5014
   61SAPC   H4Y 4801   0.394   2.619   5.686  1.4173  1.6432  0.1779
   61SAPC   C35 4802   0.295   2.795   5.619 -0.2089 -0.0186 -0.5762
   61SAPC   H5X 4803   0.371   2.864   5.659  0.9927 -0.9930 -1.1101
   61SAPC   H5Y 4804   0.190   2.831   5.615 -0.5861 -0.8459  0.9853
   61SAPC   C36 4805   0.338   2.767   5.473 -0.2498 -0.1798  0.0721
   61SAPC   H6X 4806   0.260   2.700   5.431 -1.3183  0.4093  1.0715
   61SAPC   H6Y 4807   0.435   2.718   5.449 -0.4997 -0.0733 -1.2476
   61SAPC   C37 4808   0.325   2.895   5.385  0.7214  0.4461 -0.3507
   61SAPC   H7X 4809   0.387   2.974   5.434 -0.5358  0.7927  0.7304
   61SAPC   H7Y 4810   0.215   2.907   5.395  1.0728  2.2660  2.7352
   61SAPC   C38 4811   0.377   2.863   5.248 -0.1104  0.1898  0.7281
   61SAPC   H8X 4812   0.292   2.820   5.192 -2.4443  0.5453  3.7318
   61SAPC   H8Y 4813   0.461   2.789   5.249  0.6827  1.0133 -0.8161
   61SAPC   C39 4814   0.433   2.985   5.175 -0.0374 -0.7315  0.2101
   61SAPC   H9X 4815   0.524   3.020   5.229  0.7337  1.2200 -2.2085
   61SAPC   H9Y 4816   0.355   3.065   5.180  0.2650 -0.4254  0.0552
   61SAPC  C310 4817   0.481   2.955   5.030  0.2518  0.5612 -0.4659
   61SAPC  H10X 4818   0.394   2.915   4.973  0.7965 -1.0726 -0.2108
   61SAPC  H10Y 4819   0.551   2.869   5.034 -1.4154 -0.8353  2.1201
   61SAPC  C311 4820   0.534   3.083   4.960  0.6746 -0.9617 -0.1283
   61SAPC  H11X 4821   0.599   3.144   5.026  0.4803 -0.8615 -0.0263
   61SAPC  H11Y 4822   0.442   3.138   4.930 -0.1044 -1.1719  1.7057
   61SAPC  C312 4823   0.620   3.063   4.832 -0.5844  0.2796 -0.2027
   61SAPC  H12X 4824   0.568   2.995   4.761  0.5230 -1.9065  0.9934
   61SAPC  H12Y 4825   0.712   3.002   4.847  0.8022  1.2570 -3.6471
   61SAPC  C313 4826   0.653   3.198   4.766  0.2455  0.4321  0.2268
   61SAPC  H13X 4827   0.572   3.270   4.790 -0.7443 -0.6867  0.3231
   61SAPC  H13Y 4828   0.643   3.194   4.655  2.0897 -0.3189  0.0518
   61SAPC  C314 4829   0.788   3.260   4.806  0.3435 -0.0692 -0.4636
   61SAPC  H14X 4830   0.871   3.192   4.775 -0.9027 -0.7796 -2.4502
   61SAPC  H14Y 4831   0.779   3.264   4.916 -3.5679  1.6507 -0.6745
   61SAPC  C315 4832   0.807   3.405   4.766  1.1648 -0.0335 -0.1768
   61SAPC  H15X 4833   0.872   3.465   4.833  1.4155 -0.1692 -0.2958
   61SAPC  H15Y 4834   0.712   3.461   4.780  0.7058 -0.3731 -1.7703
   61SAPC  C316 4835   0.869   3.431   4.631 -0.5762 -0.2638  1.2344
   61SAPC  H16X 4836   0.859   3.541   4.617 -1.1057 -0.4701 -0.1323
   61SAPC  H16Y 4837   0.813   3.368   4.558 -2.8891  1.1662  1.6718
   61SAPC  C317 4838   1.023   3.395   4.634 -0.0598  0.1127 -0.3347
   61SAPC  H17X 4839   1.040   3.287   4.657 -0.4488  0.4541  1.7238
   61SAPC  H17Y 4840   1.076   3.453   4.712 -0.0320  0.5456 -0.6663
   61SAPC  C318 4841   1.081   3.422   4.491 -0.3784 -0.6236 -0.0342
   61SAPC  H18X 4842   1.078   3.527   4.455  0.5803 -1.2512 -2.1086
   61SAPC  H18Y 4843   1.032   3.345   4.427 -0.2830  0.4439 -1.4443
   61SAPC  H18Z 4844   1.187   3.387   4.493  0.9571  2.9041  3.7549
   62SAPC     N 4845   1.317   0.241   6.911  0.2933  0.1692 -0.2441
   62SAPC   C12 4846   1.194   0.171   6.850 -0.8535 -0.2958  0.0941
   62SAPC  H12A 4847   1.145   0.119   6.931  0.4639 -1.6630  0.0777
   62SAPC  H12B 4848   1.219   0.088   6.784 -1.3397  0.8548 -1.6083
   62SAPC   C13 4849   1.415   0.276   6.811 -0.3187  0.0208 -0.6611
   62SAPC  H13A 4850   1.357   0.331   6.738 -0.7895 -0.6882 -0.8270
   62SAPC  H13B 4851   1.492   0.346   6.841 -0.9936  1.0701 -1.2738
   62SAPC  H13C 4852   1.456   0.188   6.764  0.1929 -1.0838  1.7107
   62SAPC   C14 4853   1.270   0.365   6.979  0.0352  0.0445 -0.7767
   62SAPC  H14A 4854   1.170   0.343   7.015  0.6349  2.2578  2.6945
   62SAPC  H14B 4855   1.340   0.403   7.052 -0.5215  2.4357 -1.4049
   62SAPC  H14C 4856   1.254   0.446   6.910 -2.4767  0.6401  0.3929
   62SAPC   C15 4857   1.377   0.146   7.006  0.0157 -1.0111 -0.1371
   62SAPC  H15A 4858   1.449   0.079   6.963  1.6431  0.1006  0.7761
   62SAPC  H15B 4859   1.447   0.206   7.062 -0.8093 -1.7812  1.7747
   62SAPC  H15C 4860   1.305   0.100   7.073 -1.5851  2.0809  0.4640
   62SAPC   C11 4861   1.107   0.265   6.759 -0.3704  0.0258  1.2474
   62SAPC  H11A 4862   1.174   0.317   6.687 -1.8489  0.0439 -0.1909
   62SAPC  H11B 4863   1.055   0.339   6.824 -1.0459 -0.3020  1.0896
   62SAPC     P 4864   1.018   0.071   6.604  0.0276  0.1924  0.0512
   62SAPC   O13 4865   1.086  -0.045   6.663  0.7558  0.3843 -0.7313
   62SAPC   O14 4866   0.885   0.047   6.546  0.6738 -0.4510 -0.2093
   62SAPC   O12 4867   1.000   0.186   6.711  0.6425  0.1625  0.0135
   62SAPC   O11 4868   1.123   0.137   6.500 -0.7607 -0.2822  0.5945
   62SAPC    C1 4869   1.085   0.247   6.415  0.8746  0.4979 -0.3163
   62SAPC    HA 4870   1.000   0.304   6.456  1.0456  0.0879  0.6229
   62SAPC    HB 4871   1.172   0.317   6.416  0.1849  1.3725  0.2519
   62SAPC    C2 4872   1.073   0.205   6.265 -0.1942 -0.0001  0.1681
   62SAPC    HS 4873   1.059   0.294   6.200 -1.9257  0.6084  1.2896
   62SAPC   O21 4874   0.967   0.109   6.235 -0.6130 -0.1218  0.2033
   62SAPC   C21 4875   0.840   0.162   6.234 -0.2926  0.7330 -0.3406
   62SAPC   O22 4876   0.813   0.278   6.229  0.0232 -0.0078 -0.0807
   62SAPC   C22 4877   0.750   0.041   6.230 -0.5321 -0.3344 -0.9169
   62SAPC   H2R 4878   0.794  -0.029   6.304 -1.2502 -2.1804 -2.1519
   62SAPC   H2S 4879   0.652   0.068   6.273 -0.0245  0.3563 -0.1710
   62SAPC    C3 4880   1.207   0.134   6.231 -0.1146  0.1111 -0.0102
   62SAPC    HX 4881   1.221   0.051   6.303  0.0808 -0.0847 -0.2708
   62SAPC    HY 4882   1.296   0.200   6.235  1.3212 -1.4439 -2.6940
   62SAPC   O31 4883   1.189   0.076   6.101 -0.2796 -0.3971 -1.0977
   62SAPC   C31 4884   1.204   0.159   6.005  0.3021 -0.5942 -0.1887
   62SAPC   O32 4885   1.240   0.274   6.012  0.4981 -0.1645 -0.3330
   62SAPC   C32 4886   1.183   0.095   5.871  0.0241 -0.1124 -0.8546
   62SAPC   H2X 4887   1.117   0.154   5.804  0.4050  0.0258 -1.1117
   62SAPC   H2Y 4888   1.130  -0.002   5.887 -0.0548 -0.3287 -2.2934
   62SAPC   C23 4889   0.730  -0.036   6.102 -0.1855  0.4847  0.4858
   62SAPC   H3R 4890   0.684  -0.130   6.137  2.3374 -0.7821  0.5804
   62SAPC   H3S 4891   0.817  -0.072   6.043 -0.6079  2.2706 -1.3262
   62SAPC   C24 4892   0.631   0.023   6.003 -0.3895 -0.4413  0.4449
   62SAPC   H4R 4893   0.539   0.053   6.058 -0.7137 -1.0951  0.2790
   62SAPC   H4S 4894   0.594  -0.060   5.939  1.3593 -0.0240 -1.1976
   62SAPC   C25 4895   0.697   0.140   5.922 -0.5190  0.8023  0.0725
   62SAPC   H5R 4896   0.703   0.235   5.978  0.3663 -0.5593  2.4344
   62SAPC   C26 4897   0.759   0.128   5.806 -0.2324  0.5592 -0.0985
   62SAPC   H6R 4898   0.785   0.219   5.750  2.2043 -0.5728 -0.9431
   62SAPC   C27 4899   0.760  -0.003   5.735 -0.1046 -1.1089  0.1014
   62SAPC   H7R 4900   0.760  -0.091   5.803 -1.1807 -2.7115 -1.8857
   62SAPC   H7S 4901   0.859  -0.015   5.687 -0.5837 -1.0138 -0.9422
   62SAPC   C28 4902   0.654  -0.012   5.635 -0.0856  0.0452 -0.0017
   62SAPC   H8R 4903   0.589  -0.094   5.667  0.5148  0.0361  1.2536
   62SAPC   C29 4904   0.637   0.051   5.519  0.3058  0.6118  0.3933
   62SAPC   H9R 4905   0.548   0.033   5.457  1.0510 -2.4746  0.0704
   62SAPC  C210 4906   0.730   0.169   5.480  0.2430  0.2510 -0.5418
   62SAPC  H10R 4907   0.804   0.126   5.411 -0.6797 -1.5813 -0.4545
   62SAPC  H10S 4908   0.797   0.216   5.556 -0.8337  1.3348 -0.2294
   62SAPC  C211 4909   0.651   0.276   5.413 -0.0837  0.0856 -0.0904
   62SAPC  H11R 4910   0.558   0.306   5.463 -0.0456  1.3695 -0.7365
   62SAPC  C212 4911   0.663   0.327   5.285  0.2865  0.2214 -0.0453
   62SAPC  H12R 4912   0.583   0.392   5.245  0.4491  0.2019 -0.4046
   62SAPC  C213 4913   0.781   0.303   5.183 -0.0866  0.2660  0.2666
   62SAPC  H13R 4914   0.760   0.204   5.136 -1.3341  0.1432  1.0266
   62SAPC  H13S 4915   0.872   0.287   5.244  0.9941  2.3181 -0.7243
   62SAPC  C214 4916   0.803   0.409   5.080 -0.1362 -0.1303 -0.3142
   62SAPC  H14R 4917   0.720   0.477   5.056  0.8689  0.8715 -1.0581
   62SAPC  C215 4918   0.924   0.449   5.035 -0.2283  0.8634 -0.4104
   62SAPC  H15R 4919   0.922   0.521   4.952 -1.6331 -2.7288 -3.8102
   62SAPC  C216 4920   1.059   0.390   5.074  0.8657  0.9997 -0.8646
   62SAPC  H16R 4921   1.068   0.280   5.062 -0.8756  0.7679 -0.3668
   62SAPC  H16S 4922   1.075   0.403   5.183 -1.0875  0.4359 -0.4701
   62SAPC  C217 4923   1.181   0.435   4.994 -0.5566 -0.2708  0.6366
   62SAPC  H17R 4924   1.271   0.391   5.042  0.0720  0.5966  0.2694
   62SAPC  H17S 4925   1.196   0.545   5.004  1.0223 -0.5510  1.7896
   62SAPC  C218 4926   1.177   0.405   4.836 -0.1903 -0.4467  0.3418
   62SAPC  H18R 4927   1.088   0.459   4.797 -0.4302  0.7820  2.4851
   62SAPC  H18S 4928   1.169   0.294   4.828 -0.6771 -0.4028  0.1636
   62SAPC  C219 4929   1.305   0.444   4.766 -0.3703 -0.1323 -0.0594
   62SAPC  H19R 4930   1.311   0.412   4.660 -1.3190  0.1615 -0.2101
   62SAPC  H19S 4931   1.388   0.412   4.833 -0.8511 -0.5388  0.3468
   62SAPC  C220 4932   1.308   0.599   4.747  0.7860 -0.4147 -0.4028
   62SAPC  H20R 4933   1.244   0.613   4.658 -1.0345 -2.1499  0.5596
   62SAPC  H20S 4934   1.413   0.617   4.715  0.9766 -1.1226 -0.1855
   62SAPC  H20T 4935   1.264   0.664   4.826  3.4292  1.1537 -0.1088
   62SAPC   C33 4936   1.309   0.084   5.778 -0.0857  0.0285  0.5665
   62SAPC   H3X 4937   1.364   0.002   5.828 -1.8718 -0.4799  1.7808
   62SAPC   H3Y 4938   1.367   0.179   5.779  2.1264 -1.2504  0.2452
   62SAPC   C34 4939   1.260   0.047   5.642  0.7253 -0.0792  0.6114
   62SAPC   H4X 4940   1.156   0.009   5.649  0.6170 -0.2607 -1.3643
   62SAPC   H4Y 4941   1.325  -0.026   5.588 -0.3598 -1.4295  1.0922
   62SAPC   C35 4942   1.248   0.171   5.555 -0.2024  0.1469 -0.8308
   62SAPC   H5X 4943   1.314   0.252   5.593 -2.0823  1.9733 -1.3090
   62SAPC   H5Y 4944   1.145   0.212   5.565 -0.3827 -0.6477  1.0062
   62SAPC   C36 4945   1.270   0.145   5.405 -0.1238 -0.2467  0.2933
   62SAPC   H6X 4946   1.377   0.116   5.391  0.5447  2.4275 -0.7429
   62SAPC   H6Y 4947   1.264   0.240   5.349  0.3045  1.4973  3.0517
   62SAPC   C37 4948   1.174   0.039   5.350  0.2489  0.0422  0.1712
   62SAPC   H7X 4949   1.076   0.090   5.364  1.6856  3.1884 -0.3558
   62SAPC   H7Y 4950   1.178  -0.059   5.403  0.3899  0.4718  0.9692
   62SAPC   C38 4951   1.177   0.019   5.199  0.1324 -0.2314  0.6586
   62SAPC   H8X 4952   1.269  -0.038   5.176  1.1355  1.5962 -0.0062
   62SAPC   H8Y 4953   1.199   0.117   5.153  0.3889  1.5009  4.1444
   62SAPC   C39 4954   1.044  -0.049   5.155 -0.0912 -0.4535  0.3793
   62SAPC   H9X 4955   0.967   0.021   5.193  1.9841  0.5535  3.0682
   62SAPC   H9Y 4956   1.021  -0.146   5.203  2.2716 -0.7357  1.0954
   62SAPC  C310 4957   1.045  -0.057   5.001 -0.1737 -0.0831 -0.0451
   62SAPC  H10X 4958   1.108  -0.141   4.964 -2.5059 -1.9774  0.0080
   62SAPC  H10Y 4959   1.098   0.034   4.966  0.6639 -0.3974  0.3865
   62SAPC  C311 4960   0.911  -0.056   4.939  0.4370 -0.3107 -0.8002
   62SAPC  H11X 4961   0.855   0.036   4.965  0.9232 -0.0119 -0.7924
   62SAPC  H11Y 4962   0.853  -0.139   4.984  0.1446  1.1496  1.7510
   62SAPC  C312 4963   0.912  -0.090   4.792  0.0335  0.5873 -0.1915
   62SAPC  H12X 4964   0.966  -0.187   4.779 -2.4719 -0.8684 -0.3440
   62SAPC  H12Y 4965   0.969  -0.004   4.752 -1.9652  1.9615 -0.2250
   62SAPC  C313 4966   0.780  -0.088   4.721  0.0069  0.4733 -0.2676
   62SAPC  H13X 4967   0.727   0.008   4.735  1.1629  1.4883 -2.3914
   62SAPC  H13Y 4968   0.708  -0.166   4.753 -0.6065 -0.2753 -3.1580
   62SAPC  C314 4969   0.798  -0.100   4.564  0.3205 -0.4816 -0.3438
   62SAPC  H14X 4970   0.856  -0.192   4.540  3.0462  1.3574 -1.2578
   62SAPC  H14Y 4971   0.846  -0.007   4.529 -0.1986  0.3759  1.1297
   62SAPC  C315 4972   0.652  -0.107   4.499  0.4262  0.3678 -0.5639
   62SAPC  H15X 4973   0.574  -0.126   4.576 -0.4280  0.4438 -1.3908
   62SAPC  H15Y 4974   0.639  -0.194   4.431 -0.7571  0.0667  0.0247
   62SAPC  C316 4975   0.606   0.023   4.426  0.9639  0.3867 -0.0088
   62SAPC  H16X 4976   0.618   0.105   4.500  0.0345 -0.4942  1.1813
   62SAPC  H16Y 4977   0.497   0.013   4.404  1.0246 -0.5365  0.0656
   62SAPC  C317 4978   0.681   0.067   4.300 -0.0843 -0.0416  0.2641
   62SAPC  H17X 4979   0.681  -0.021   4.232 -0.5982 -0.0208  0.2295
   62SAPC  H17Y 4980   0.787   0.093   4.318  0.5243 -1.5172 -0.9679
   62SAPC  C318 4981   0.605   0.173   4.222  0.1926  0.3168 -0.3365
   62SAPC  H18X 4982   0.665   0.244   4.162  0.9374 -0.2925 -0.3178
   62SAPC  H18Y 4983   0.552   0.241   4.293 -0.2291  1.0127 -1.2928
   62SAPC  H18Z 4984   0.519   0.125   4.170  0.2677 -0.8933  0.6157
   63SAPC     N 4985   3.104   2.893   6.458 -0.4679  0.4384 -0.3157
   63SAPC   C12 4986   3.128   2.892   6.309  0.3980 -0.0805 -0.0173
   63SAPC  H12A 4987   3.203   2.819   6.280 -0.3887 -0.1483 -2.0088
   63SAPC  H12B 4988   3.188   2.979   6.287  1.2798 -0.3564  1.1628
   63SAPC   C13 4989   3.031   3.018   6.501  0.2443 -0.0810  0.5788
   63SAPC  H13A 4990   3.010   3.007   6.607  1.0913 -1.5530  0.6244
   63SAPC  H13B 4991   3.092   3.104   6.478  0.2260  0.0740  1.0838
   63SAPC  H13C 4992   2.941   3.030   6.443 -1.3034  0.1331  2.9028
   63SAPC   C14 4993   3.029   2.772   6.510  0.4161 -0.0088 -0.1294
   63SAPC  H14A 4994   2.928   2.768   6.472  0.8905 -0.4419 -1.4147
   63SAPC  H14B 4995   3.087   2.685   6.483 -1.2742 -0.6389 -2.0299
   63SAPC  H14C 4996   3.018   2.784   6.617 -2.7105  0.9013 -0.4590
   63SAPC   C15 4997   3.237   2.887   6.523 -0.1008 -0.5252  0.0235
   63SAPC  H15A 4998   3.230   2.900   6.630  1.4836  2.7033 -0.1122
   63SAPC  H15B 4999   3.292   2.795   6.512 -1.0963 -1.1089 -0.1642
   63SAPC  H15C 5000   3.312   2.960   6.493 -0.8545  0.9724  1.5672
   63SAPC   C11 5001   3.003   2.887   6.227 -0.1055 -0.3845 -0.0483
   63SAPC  H11A 5002   3.049   2.896   6.127  1.2656  3.2556  0.7404
   63SAPC  H11B 5003   2.934   2.971   6.247 -2.0429 -2.0922  0.8605
   63SAPC     P 5004   2.790   2.743   6.160 -0.0011  0.4836 -0.0445
   63SAPC   O13 5005   2.802   2.625   6.065  0.4129  0.2256  0.8335
   63SAPC   O14 5006   2.687   2.729   6.261  0.3793  0.4122 -0.1721
   63SAPC   O12 5007   2.936   2.760   6.222 -0.0749 -0.0204 -0.2730
   63SAPC   O11 5008   2.767   2.876   6.079  0.3469 -0.5658  0.0095
   63SAPC    C1 5009   2.786   2.896   5.937 -0.2648  0.0336  0.5368
   63SAPC    HA 5010   2.875   2.834   5.916 -0.0591  0.1253  1.1249
   63SAPC    HB 5011   2.707   2.841   5.882  0.5188 -0.6724  0.0935
   63SAPC    C2 5012   2.802   3.036   5.898  0.1651 -0.3114  0.4194
   63SAPC    HS 5013   2.880   3.077   5.966  2.7723 -0.8041 -2.0762
   63SAPC   O21 5014   2.666   3.093   5.904  0.4598 -0.1388  0.1469
   63SAPC   C21 5015   2.659   3.222   5.891  0.0858 -0.3218  0.4708
   63SAPC   O22 5016   2.749   3.302   5.892 -0.4089 -0.2914 -0.1355
   63SAPC   C22 5017   2.515   3.281   5.887  0.4681  0.1581 -0.3664
   63SAPC   H2R 5018   2.465   3.246   5.980 -0.6456 -0.3242 -1.1251
   63SAPC   H2S 5019   2.514   3.392   5.884 -1.1063  0.2319  1.2485
   63SAPC    C3 5020   2.867   3.061   5.756  0.5133 -0.7898  0.1702
   63SAPC    HX 5021   2.963   3.006   5.751  1.3332  0.7178 -1.7250
   63SAPC    HY 5022   2.890   3.168   5.738 -1.5523 -0.5623 -1.5822
   63SAPC   O31 5023   2.775   3.026   5.642 -1.0365  0.0173  0.3799
   63SAPC   C31 5024   2.820   2.925   5.575  0.7492 -0.2319  0.3438
   63SAPC   O32 5025   2.909   2.849   5.600  0.1532 -0.1233 -0.5870
   63SAPC   C32 5026   2.728   2.914   5.446 -0.2041 -0.3011  0.3721
   63SAPC   H2X 5027   2.740   3.002   5.380 -2.1819 -0.5752 -0.4340
   63SAPC   H2Y 5028   2.620   2.915   5.476 -0.3899 -1.9607 -0.1345
   63SAPC   C23 5029   2.425   3.218   5.773 -0.0086  0.0031 -0.1537
   63SAPC   H3R 5030   2.327   3.271   5.774 -0.6542 -1.1299  1.0595
   63SAPC   H3S 5031   2.393   3.113   5.790 -1.8659  0.4724 -0.5170
   63SAPC   C24 5032   2.489   3.222   5.630 -0.0219  0.0676 -0.1072
   63SAPC   H4R 5033   2.428   3.154   5.566  0.5944 -1.5903  1.0171
   63SAPC   H4S 5034   2.580   3.162   5.647 -1.3528 -1.9631  0.1739
   63SAPC   C25 5035   2.514   3.366   5.587  0.3514  1.4553  0.5323
   63SAPC   H5R 5036   2.561   3.427   5.666  2.1481  0.7822  0.0309
   63SAPC   C26 5037   2.466   3.431   5.477 -0.0718  0.2138 -0.7746
   63SAPC   H6R 5038   2.484   3.540   5.471 -2.1322  0.7131  0.9612
   63SAPC   C27 5039   2.391   3.368   5.361  0.0919 -0.0771  0.0138
   63SAPC   H7R 5040   2.375   3.449   5.286  2.2836  0.4400  0.0370
   63SAPC   H7S 5041   2.292   3.332   5.397  0.9060 -2.2417  0.1912
   63SAPC   C28 5042   2.441   3.245   5.286 -0.1605  0.3213 -0.1040
   63SAPC   H8R 5043   2.412   3.143   5.315 -2.1863  0.5667 -1.1576
   63SAPC   C29 5044   2.539   3.258   5.200 -0.5137 -0.9286 -0.3981
   63SAPC   H9R 5045   2.574   3.175   5.136 -1.5431 -1.3731 -0.4091
   63SAPC  C210 5046   2.604   3.386   5.152  0.3589  0.4827 -0.5193
   63SAPC  H10R 5047   2.709   3.371   5.119  0.1232  2.1887 -2.1928
   63SAPC  H10S 5048   2.619   3.457   5.237  1.5212  0.9431 -1.0904
   63SAPC  C211 5049   2.534   3.439   5.034 -0.4694  0.7983  0.0406
   63SAPC  H11R 5050   2.449   3.505   5.055 -1.0108  0.3093 -0.5746
   63SAPC  C212 5051   2.586   3.431   4.906  0.8929 -0.3160 -0.1575
   63SAPC  H12R 5052   2.530   3.473   4.821 -0.6116 -0.1690  0.8726
   63SAPC  C213 5053   2.705   3.346   4.865  0.5361 -0.1758  0.4433
   63SAPC  H13R 5054   2.787   3.354   4.940  0.9934 -3.4294  0.4110
   63SAPC  H13S 5055   2.751   3.386   4.772 -0.9434 -1.3562 -0.8552
   63SAPC  C214 5056   2.670   3.203   4.832 -0.7083  0.5237 -0.4811
   63SAPC  H14R 5057   2.594   3.194   4.752  0.7897 -0.7859 -1.8296
   63SAPC  C215 5058   2.739   3.099   4.873 -0.4044  0.0554 -0.6906
   63SAPC  H15R 5059   2.707   3.000   4.838 -0.2393 -0.2044 -0.1121
   63SAPC  C216 5060   2.864   3.095   4.962  0.0088  0.2612  0.1542
   63SAPC  H16R 5061   2.873   2.991   5.000  0.1699  0.1833 -0.0964
   63SAPC  H16S 5062   2.846   3.170   5.042 -1.0555 -1.4261  1.5812
   63SAPC  C217 5063   2.985   3.145   4.877  0.4307  0.4342 -0.5787
   63SAPC  H17R 5064   3.078   3.154   4.937 -0.6667  1.1946  1.1304
   63SAPC  H17S 5065   2.973   3.246   4.832 -1.8019  0.7259  0.5270
   63SAPC  C218 5066   3.019   3.044   4.773 -0.5795 -0.0698  0.4325
   63SAPC  H18R 5067   2.945   3.039   4.690 -0.2323  0.4341  0.0850
   63SAPC  H18S 5068   3.012   2.942   4.816 -0.9163 -0.3480 -0.2725
   63SAPC  C219 5069   3.164   3.055   4.711  0.1243 -0.4102 -0.0423
   63SAPC  H19R 5070   3.174   2.972   4.638 -2.9055 -0.2134 -0.8087
   63SAPC  H19S 5071   3.238   3.033   4.791 -0.1254  1.4533  0.7497
   63SAPC  C220 5072   3.195   3.187   4.647  0.6464 -0.3175 -0.0675
   63SAPC  H20R 5073   3.143   3.200   4.550  0.0565 -3.0394 -0.2169
   63SAPC  H20S 5074   3.304   3.193   4.623  0.7052  0.7534  0.4479
   63SAPC  H20T 5075   3.162   3.262   4.721  0.2208 -1.3176  0.7832
   63SAPC   C33 5076   2.766   2.791   5.363 -0.2500 -0.3457 -0.4270
   63SAPC   H3X 5077   2.760   2.699   5.425 -1.3746 -1.7707 -2.5173
   63SAPC   H3Y 5078   2.865   2.792   5.314 -1.0784  0.5898 -2.1789
   63SAPC   C34 5079   2.655   2.776   5.267 -0.1635  0.0872 -0.2697
   63SAPC   H4X 5080   2.626   2.873   5.221 -1.9454  0.2601  1.0920
   63SAPC   H4Y 5081   2.570   2.743   5.331 -0.2789  2.0025  0.6501
   63SAPC   C35 5082   2.681   2.665   5.168 -0.5608  0.2319 -0.0365
   63SAPC   H5X 5083   2.587   2.642   5.112 -0.4055  0.5644 -0.4399
   63SAPC   H5Y 5084   2.725   2.579   5.223  0.2217  1.3877  1.1974
   63SAPC   C36 5085   2.775   2.722   5.052  0.3237  0.2510 -0.1450
   63SAPC   H6X 5086   2.880   2.725   5.091  0.1646 -1.0170  0.4443
   63SAPC   H6Y 5087   2.736   2.823   5.030  2.5157  0.5053 -3.6561
   63SAPC   C37 5088   2.776   2.632   4.925 -0.2664  0.3426 -1.0895
   63SAPC   H7X 5089   2.670   2.600   4.911 -0.2376 -1.2637  1.6052
   63SAPC   H7Y 5090   2.846   2.548   4.943  0.7000  1.0976 -1.2448
   63SAPC   C38 5091   2.812   2.705   4.796  0.7899  0.1456 -0.0493
   63SAPC   H8X 5092   2.919   2.736   4.798  0.2090  2.4274 -0.5526
   63SAPC   H8Y 5093   2.750   2.798   4.793 -0.1460 -0.4962 -1.5138
   63SAPC   C39 5094   2.777   2.632   4.667 -0.1593  0.6372 -0.3478
   63SAPC   H9X 5095   2.670   2.611   4.645 -0.0836 -0.2618  0.0726
   63SAPC   H9Y 5096   2.822   2.530   4.665 -0.6853  0.2335  3.1677
   63SAPC  C310 5097   2.842   2.698   4.541  0.4621  0.3851 -0.7791
   63SAPC  H10X 5098   2.950   2.703   4.564  0.1744 -0.7551  1.0863
   63SAPC  H10Y 5099   2.787   2.793   4.525 -2.1239 -1.1098 -1.5068
   63SAPC  C311 5100   2.831   2.601   4.420 -0.5228 -0.2450 -0.6942
   63SAPC  H11X 5101   2.724   2.577   4.399 -0.1271  0.1666 -3.5912
   63SAPC  H11Y 5102   2.872   2.505   4.458 -0.5411  0.1665  0.3960
   63SAPC  C312 5103   2.913   2.651   4.301  0.3136  0.0239  0.0179
   63SAPC  H12X 5104   3.020   2.648   4.329  0.1230  1.3047  0.9425
   63SAPC  H12Y 5105   2.884   2.757   4.285  0.5671  0.1355  0.3010
   63SAPC  C313 5106   2.893   2.581   4.167 -0.2386  0.2096 -0.3460
   63SAPC  H13X 5107   2.796   2.614   4.124 -0.9395 -1.5765 -0.2106
   63SAPC  H13Y 5108   2.890   2.472   4.185 -3.1089 -0.1309 -2.1456
   63SAPC  C314 5109   3.002   2.623   4.076  0.2240  0.3818 -0.0096
   63SAPC  H14X 5110   3.095   2.630   4.136  0.7899  0.3947 -0.8702
   63SAPC  H14Y 5111   2.980   2.730   4.054  3.4306  1.4320  1.3000
   63SAPC  C315 5112   3.017   2.544   3.946  0.2316 -0.3697 -0.7788
   63SAPC  H15X 5113   3.024   2.436   3.973 -1.7833 -0.9423 -2.3121
   63SAPC  H15Y 5114   3.113   2.578   3.901  0.2429  0.5178 -0.1065
   63SAPC  C316 5115   2.911   2.566   3.836  0.0312 -0.0906 -0.1613
   63SAPC  H16X 5116   2.915   2.672   3.804  0.2932 -0.5472 -1.7449
   63SAPC  H16Y 5117   2.806   2.561   3.871  0.6349 -0.8192  1.7026
   63SAPC  C317 5118   2.938   2.482   3.715 -0.5415  0.4894 -0.0490
   63SAPC  H17X 5119   2.837   2.461   3.673 -1.2849 -0.8403  2.2200
   63SAPC  H17Y 5120   2.964   2.382   3.756 -1.1409  0.8776  1.3106
   63SAPC  C318 5121   3.043   2.535   3.620 -0.4929 -0.0674  1.0388
   63SAPC  H18X 5122   3.005   2.629   3.576  2.7659  0.8391 -0.1304
   63SAPC  H18Y 5123   3.083   2.474   3.536 -2.0105  0.4170 -0.0879
   63SAPC  H18Z 5124   3.128   2.552   3.689  0.8643 -2.0484 -0.0430
   64SAPC     N 5125   1.538   3.862   6.518  0.1017  0.1159 -0.0729
   64SAPC   C12 5126   1.392   3.815   6.529  1.1510 -0.0423  0.5035
   64SAPC  H12A 5127   1.336   3.900   6.566 -2.4592 -1.5412 -1.0082
   64SAPC  H12B 5128   1.384   3.737   6.603 -1.1575  0.2301  0.6130
   64SAPC   C13 5129   1.570   3.986   6.441 -0.5308  0.1130 -0.4312
   64SAPC  H13A 5130   1.672   4.007   6.469 -0.8575 -0.0888  0.9638
   64SAPC  H13B 5131   1.577   3.968   6.334 -1.5872  1.1741 -0.7001
   64SAPC  H13C 5132   1.498   4.064   6.462  0.0636  0.9866 -1.5035
   64SAPC   C14 5133   1.593   3.862   6.658  0.5902  0.0607  0.1367
   64SAPC  H14A 5134   1.546   3.949   6.703  0.1381 -0.2952  0.3588
   64SAPC  H14B 5135   1.579   3.773   6.717  0.3327  0.4056  0.6015
   64SAPC  H14C 5136   1.700   3.879   6.666  0.6295  1.6242 -2.4169
   64SAPC   C15 5137   1.609   3.743   6.454 -0.6265 -0.1799 -0.0505
   64SAPC  H15A 5138   1.571   3.652   6.499  1.0871  0.2974  2.6024
   64SAPC  H15B 5139   1.598   3.746   6.347  1.3919  1.2777 -0.2737
   64SAPC  H15C 5140   1.715   3.743   6.476 -0.7150  0.0672  0.3932
   64SAPC   C11 5141   1.321   3.781   6.398 -0.2120  0.1855  0.5835
   64SAPC  H11A 5142   1.366   3.856   6.329  1.5475  0.3314  1.8286
   64SAPC  H11B 5143   1.211   3.797   6.401 -0.3179 -0.4824  0.1860
   64SAPC     P 5144   1.306   3.524   6.428  0.3044 -0.3053 -0.0520
   64SAPC   O13 5145   1.307   3.404   6.343 -0.7396  0.1788  0.3147
   64SAPC   O14 5146   1.386   3.509   6.550  0.4451  0.3521  0.2759
   64SAPC   O12 5147   1.358   3.655   6.342  0.1292  0.1508  0.2471
   64SAPC   O11 5148   1.156   3.558   6.467 -0.0298  0.8128  0.2212
   64SAPC    C1 5149   1.050   3.463   6.453 -0.2359 -0.4207  0.3280
   64SAPC    HA 5150   1.074   3.364   6.499 -2.5330 -0.8649  0.6870
   64SAPC    HB 5151   0.958   3.501   6.502 -0.3689  1.0104 -0.9846
   64SAPC    C2 5152   1.017   3.430   6.298 -0.6047 -0.3136  0.3710
   64SAPC    HS 5153   1.097   3.373   6.246  1.2201  2.3054  0.1610
   64SAPC   O21 5154   0.983   3.558   6.233 -0.2168  0.0625  0.3168
   64SAPC   C21 5155   1.037   3.580   6.108  0.4808  0.3013 -0.3047
   64SAPC   O22 5156   1.081   3.494   6.035 -1.0641 -0.1131  0.2052
   64SAPC   C22 5157   1.030   3.735   6.082 -0.0699 -0.0260  0.3490
   64SAPC   H2R 5158   0.960   3.738   5.996 -1.8767 -1.5848  1.6783
   64SAPC   H2S 5159   1.000   3.792   6.172  1.4924  3.8483 -1.3669
   64SAPC    C3 5160   0.894   3.330   6.296  0.0297 -0.2462 -0.2486
   64SAPC    HX 5161   0.822   3.377   6.366  0.6299 -1.0066  0.9108
   64SAPC    HY 5162   0.927   3.229   6.327 -0.7683 -1.1852 -2.2996
   64SAPC   O31 5163   0.831   3.322   6.167 -0.4705  0.0339 -0.1389
   64SAPC   C31 5164   0.730   3.396   6.136  0.0061  0.3294  0.1834
   64SAPC   O32 5165   0.674   3.477   6.210  0.5239 -0.4678 -0.1915
   64SAPC   C32 5166   0.689   3.374   5.998  0.2638  0.2745  0.1689
   64SAPC   H2X 5167   0.674   3.264   5.993  0.7943  0.2279 -0.4213
   64SAPC   H2Y 5168   0.774   3.407   5.935  1.3150 -0.6412  1.0655
   64SAPC   C23 5169   1.175   3.786   6.045  0.2881  0.0575  0.4038
   64SAPC   H3R 5170   1.252   3.751   6.118 -0.1006 -1.6511  0.0401
   64SAPC   H3S 5171   1.185   3.896   6.057  0.9042  0.0783 -0.2192
   64SAPC   C24 5172   1.212   3.754   5.901 -0.3364 -0.0451  0.0824
   64SAPC   H4R 5173   1.214   3.646   5.876  0.9556 -0.2089  0.7911
   64SAPC   H4S 5174   1.315   3.793   5.883 -0.2495 -0.7434 -1.0569
   64SAPC   C25 5175   1.126   3.832   5.805 -0.0046 -0.6000  0.0356
   64SAPC   H5R 5176   1.125   3.939   5.830 -0.3423 -0.7638  0.7557
   64SAPC   C26 5177   1.056   3.778   5.704  0.1763 -0.6473  0.1166
   64SAPC   H6R 5178   0.996   3.845   5.641  3.3757  0.4367 -2.0202
   64SAPC   C27 5179   1.033   3.632   5.664 -0.0369 -0.3177 -0.1332
   64SAPC   H7R 5180   0.923   3.626   5.660 -0.1703 -0.0580  2.0186
   64SAPC   H7S 5181   1.066   3.573   5.752  1.4970 -0.1597 -0.5576
   64SAPC   C28 5182   1.100   3.581   5.536  0.3823  0.4923  0.2772
   64SAPC   H8R 5183   1.119   3.473   5.537  1.9163  0.7231  1.6070
   64SAPC   C29 5184   1.123   3.648   5.419  0.1490  0.1732 -0.0327
   64SAPC   H9R 5185   1.156   3.593   5.330 -0.1923  1.0819 -0.7370
   64SAPC  C210 5186   1.114   3.797   5.389 -0.2141 -0.2137  0.3709
   64SAPC  H10R 5187   1.181   3.831   5.307 -0.6673  0.3684  0.2409
   64SAPC  H10S 5188   1.135   3.859   5.479 -0.4039  0.7088 -0.2134
   64SAPC  C211 5189   0.974   3.819   5.347  0.4936 -0.2726  0.3832
   64SAPC  H11R 5190   0.906   3.831   5.432 -0.1852  1.4452 -0.3589
   64SAPC  C212 5191   0.920   3.804   5.223  0.4637 -0.4718 -0.4358
   64SAPC  H12R 5192   0.811   3.821   5.215  0.5658 -0.2480 -1.3607
   64SAPC  C213 5193   0.999   3.774   5.101 -0.5303  0.0349  0.2359
   64SAPC  H13R 5194   1.063   3.685   5.118 -0.7261  0.1478  1.6965
   64SAPC  H13S 5195   1.073   3.855   5.084  1.0245 -1.2405  0.7004
   64SAPC  C214 5196   0.908   3.763   4.973 -0.6679 -0.0158 -0.4516
   64SAPC  H14R 5197   0.799   3.756   4.978 -0.5932 -1.8107 -0.3310
   64SAPC  C215 5198   0.953   3.759   4.845  0.3599  0.8965 -0.0300
   64SAPC  H15R 5199   0.873   3.765   4.770 -0.7825 -0.6516  0.9851
   64SAPC  C216 5200   1.084   3.773   4.784  0.3692 -0.1542  0.1432
   64SAPC  H16R 5201   1.086   3.734   4.680  2.4710  0.5685 -0.1302
   64SAPC  H16S 5202   1.160   3.724   4.849  2.9057  2.1006 -0.9134
   64SAPC  C217 5203   1.130   3.920   4.762  0.5067  0.1422 -0.2650
   64SAPC  H17R 5204   1.234   3.916   4.723 -0.0375  0.6295 -1.8491
   64SAPC  H17S 5205   1.127   3.961   4.865 -4.9391 -0.9179  0.3360
   64SAPC  C218 5206   1.045   3.996   4.661  0.1595  0.0383  0.0071
   64SAPC  H18R 5207   0.943   3.995   4.705 -0.4841  0.5902 -1.4318
   64SAPC  H18S 5208   1.038   3.943   4.564 -0.2064 -0.1687  0.1462
   64SAPC  C219 5209   1.098   4.139   4.636  0.5257 -0.2332 -0.3714
   64SAPC  H19R 5210   1.167   4.160   4.720 -3.4525 -0.4616  3.3295
   64SAPC  H19S 5211   1.007   4.203   4.633 -0.5737 -1.7389 -2.8045
   64SAPC  C220 5212   1.172   4.158   4.503 -0.3424  0.2078 -0.6414
   64SAPC  H20R 5213   1.233   4.251   4.493 -0.4507  0.4163  0.5418
   64SAPC  H20S 5214   1.098   4.161   4.420  0.8716  2.9377 -1.7704
   64SAPC  H20T 5215   1.245   4.075   4.494 -0.1280  0.5474 -2.4511
   64SAPC   C33 5216   0.558   3.447   5.960  0.0374  0.0206 -0.4338
   64SAPC   H3X 5217   0.575   3.555   5.978  0.8726 -0.1893  0.1163
   64SAPC   H3Y 5218   0.478   3.430   6.035  1.4467  1.7695  1.5879
   64SAPC   C34 5219   0.508   3.416   5.817 -0.0174 -1.0420 -0.0462
   64SAPC   H4X 5220   0.415   3.473   5.795  1.8024  2.0480 -0.3472
   64SAPC   H4Y 5221   0.476   3.310   5.807 -0.3983 -1.1051  1.5424
   64SAPC   C35 5222   0.602   3.455   5.703  0.5807  0.6974 -0.4175
   64SAPC   H5X 5223   0.682   3.381   5.687  0.0339  0.3675 -1.7819
   64SAPC   H5Y 5224   0.639   3.557   5.728 -0.3759  0.7652  0.8218
   64SAPC   C36 5225   0.530   3.465   5.567 -0.2651 -0.1290  0.3282
   64SAPC   H6X 5226   0.472   3.559   5.559 -0.4990 -0.3844 -1.5514
   64SAPC   H6Y 5227   0.449   3.389   5.563  1.3178 -1.9059  0.4685
   64SAPC   C37 5228   0.618   3.438   5.441  0.3143  0.1581 -0.1864
   64SAPC   H7X 5229   0.633   3.328   5.431 -1.5232 -0.2681  1.2067
   64SAPC   H7Y 5230   0.715   3.486   5.466 -0.4734  0.8005  1.8470
   64SAPC   C38 5231   0.562   3.499   5.307 -0.1810 -0.3091 -0.3213
   64SAPC   H8X 5232   0.519   3.601   5.320  1.9104  0.5510  0.2795
   64SAPC   H8Y 5233   0.477   3.434   5.279 -1.1893 -0.4165  2.6236
   64SAPC   C39 5234   0.658   3.510   5.196 -0.6288 -0.3798 -1.0552
   64SAPC   H9X 5235   0.715   3.417   5.172  1.3406 -0.2220  2.3938
   64SAPC   H9Y 5236   0.746   3.573   5.218  0.1924 -2.1956  1.3882
   64SAPC  C310 5237   0.591   3.548   5.069  0.1274  0.2552  0.2765
   64SAPC  H10X 5238   0.513   3.473   5.047 -0.5630  0.8902  0.5160
   64SAPC  H10Y 5239   0.663   3.556   4.984 -2.3896 -1.4373 -2.1939
   64SAPC  C311 5240   0.531   3.692   5.083 -0.9172  0.0085 -0.5387
   64SAPC  H11X 5241   0.616   3.758   5.109  0.7486 -2.8368  1.8510
   64SAPC  H11Y 5242   0.460   3.708   5.167 -0.5115  1.6866 -0.4725
   64SAPC  C312 5243   0.452   3.741   4.958 -0.0028  0.0678  0.5375
   64SAPC  H12X 5244   0.414   3.843   4.982  3.3278  1.3407  1.0729
   64SAPC  H12Y 5245   0.378   3.662   4.937  2.8013 -3.1298  1.7369
   64SAPC  C313 5246   0.533   3.762   4.829 -0.5781 -0.1206 -0.1706
   64SAPC  H13X 5247   0.596   3.670   4.820 -1.7019 -1.0524  1.1083
   64SAPC  H13Y 5248   0.593   3.854   4.842 -2.1236  0.5699  2.9419
   64SAPC  C314 5249   0.447   3.781   4.705  0.9394 -0.2772  0.2380
   64SAPC  H14X 5250   0.525   3.787   4.626 -0.4323 -3.0281 -1.4835
   64SAPC  H14Y 5251   0.402   3.883   4.703  0.8240 -0.2978  1.1938
   64SAPC  C315 5252   0.343   3.667   4.670 -0.1819 -0.4766 -0.7588
   64SAPC  H15X 5253   0.248   3.688   4.723  1.2284 -0.5688  2.0235
   64SAPC  H15Y 5254   0.380   3.569   4.708 -0.8269  0.5130  2.7979
   64SAPC  C316 5255   0.310   3.649   4.525 -0.0452  0.1257 -0.1767
   64SAPC  H16X 5256   0.258   3.550   4.521  1.2669 -0.5397 -1.8740
   64SAPC  H16Y 5257   0.402   3.656   4.463 -1.6619 -0.7048 -2.8504
   64SAPC  C317 5258   0.203   3.752   4.463  0.3824  0.8448 -0.1539
   64SAPC  H17X 5259   0.233   3.852   4.500  0.0768 -0.0426  2.7867
   64SAPC  H17Y 5260   0.102   3.730   4.504  0.7920 -0.6112  0.1627
   64SAPC  C318 5261   0.202   3.737   4.304 -0.0269  0.2266 -0.3481
   64SAPC  H18X 5262   0.297   3.769   4.256 -1.4214 -0.0370 -3.4652
   64SAPC  H18Y 5263   0.132   3.802   4.248  0.8440 -0.1203 -1.8798
   64SAPC  H18Z 5264   0.183   3.632   4.273  0.9820  0.0235 -0.3159
   65SAPC     N 5265   2.610   2.992   2.193  0.3609  0.3266 -0.0761
   65SAPC   C12 5266   2.547   2.893   2.285 -0.0771 -0.4001  0.9010
   65SAPC  H12A 5267   2.608   2.803   2.287 -2.2798 -2.1269 -2.3467
   65SAPC  H12B 5268   2.460   2.855   2.234  1.5058 -2.8225 -0.1750
   65SAPC   C13 5269   2.533   3.127   2.180 -0.2523 -0.5352 -0.1447
   65SAPC  H13A 5270   2.429   3.104   2.163 -0.0832 -1.3302 -0.1419
   65SAPC  H13B 5271   2.544   3.181   2.273 -1.1268 -0.8306  0.1380
   65SAPC  H13C 5272   2.568   3.193   2.102 -2.7231  2.2576  0.8964
   65SAPC   C14 5273   2.748   3.012   2.240 -0.0461  0.2123 -0.0176
   65SAPC  H14A 5274   2.805   3.070   2.169  2.2565 -0.2818  1.3340
   65SAPC  H14B 5275   2.750   3.072   2.329 -0.8699 -2.0061  1.5858
   65SAPC  H14C 5276   2.798   2.917   2.254 -0.1066  0.3860  1.4945
   65SAPC   C15 5277   2.618   2.933   2.054 -0.5204  0.1736  0.5296
   65SAPC  H15A 5278   2.679   2.845   2.055  2.4723  2.1016  0.1367
   65SAPC  H15B 5279   2.522   2.911   2.009 -1.3266 -0.6993  2.5407
   65SAPC  H15C 5280   2.667   3.004   1.990 -2.3843  0.3938 -0.7349
   65SAPC   C11 5281   2.523   2.935   2.432 -0.4860  0.7936  0.8631
   65SAPC  H11A 5282   2.483   3.038   2.442 -3.7161 -0.2385 -0.1757
   65SAPC  H11B 5283   2.623   2.926   2.480  0.3797  1.9559 -0.6453
   65SAPC     P 5284   2.325   2.885   2.607 -0.2269  0.5410  0.5834
   65SAPC   O13 5285   2.241   2.999   2.569 -0.1178 -0.6427 -0.5849
   65SAPC   O14 5286   2.256   2.761   2.656 -0.0821 -0.5568 -0.4412
   65SAPC   O12 5287   2.428   2.845   2.489 -0.1927 -0.2563  0.5183
   65SAPC   O11 5288   2.430   2.940   2.722 -0.2359 -0.0807  0.2018
   65SAPC    C1 5289   2.517   2.841   2.776 -0.9979 -0.1438  0.3248
   65SAPC    HA 5290   2.545   2.755   2.711 -3.0589 -0.8989  0.3427
   65SAPC    HB 5291   2.614   2.892   2.793  0.1014 -2.1904  0.5269
   65SAPC    C2 5292   2.469   2.805   2.916 -0.4251 -0.4094 -0.4356
   65SAPC    HS 5293   2.362   2.774   2.912 -1.6278  3.2771 -0.0868
   65SAPC   O21 5294   2.496   2.920   2.996 -1.0580  0.2034  0.0241
   65SAPC   C21 5295   2.389   2.998   3.026  0.7989  0.3171 -0.0178
   65SAPC   O22 5296   2.273   2.983   2.989 -0.5270  0.6927 -0.0343
   65SAPC   C22 5297   2.420   3.125   3.102 -0.5986  0.1578  0.7776
   65SAPC   H2R 5298   2.323   3.177   3.121 -1.7841 -1.5300 -0.3372
   65SAPC   H2S 5299   2.459   3.110   3.205 -0.6513 -1.0237  0.6379
   65SAPC    C3 5300   2.551   2.683   2.985  0.0294 -0.2195 -0.2250
   65SAPC    HX 5301   2.651   2.726   3.010  1.0084 -3.1910  1.4332
   65SAPC    HY 5302   2.560   2.600   2.911 -0.0912 -0.7482  0.3489
   65SAPC   O31 5303   2.487   2.646   3.105 -0.7243  1.1223  0.2405
   65SAPC   C31 5304   2.384   2.558   3.088 -0.2243 -0.5819  0.6478
   65SAPC   O32 5305   2.331   2.529   2.978  0.1111  0.2988  0.1849
   65SAPC   C32 5306   2.337   2.490   3.210 -0.7417 -0.6978 -0.7680
   65SAPC   H2X 5307   2.240   2.535   3.241  1.1258  3.4796 -0.3209
   65SAPC   H2Y 5308   2.407   2.518   3.292 -3.2448  0.3195  1.2004
   65SAPC   C23 5309   2.519   3.209   3.023 -0.3293 -0.3699  0.1793
   65SAPC   H3R 5310   2.472   3.238   2.927  0.1259  1.8677  0.5812
   65SAPC   H3S 5311   2.598   3.147   2.975 -0.6733  0.4292 -1.4691
   65SAPC   C24 5312   2.578   3.319   3.112  0.1426 -0.7842 -0.2396
   65SAPC   H4R 5313   2.663   3.369   3.060 -0.0515 -1.3741 -1.1423
   65SAPC   H4S 5314   2.617   3.281   3.209  0.2387  1.0383  0.4799
   65SAPC   C25 5315   2.467   3.416   3.134  0.7679 -0.7613  0.0388
   65SAPC   H5R 5316   2.424   3.460   3.044  3.1991 -0.2548 -0.9658
   65SAPC   C26 5317   2.384   3.423   3.240 -0.2870 -0.3919  0.7385
   65SAPC   H6R 5318   2.291   3.481   3.229  0.9114  2.0820  2.5531
   65SAPC   C27 5319   2.398   3.358   3.370  0.1348  0.1238 -0.7968
   65SAPC   H7R 5320   2.488   3.293   3.376  0.9646  1.2308 -0.9214
   65SAPC   H7S 5321   2.312   3.289   3.386  0.3712 -0.1810 -0.8411
   65SAPC   C28 5322   2.390   3.471   3.471 -0.1962 -0.2695 -0.2409
   65SAPC   H8R 5323   2.401   3.574   3.434  2.8730 -0.8869 -1.4013
   65SAPC   C29 5324   2.379   3.458   3.603  0.0666 -0.2154  0.1109
   65SAPC   H9R 5325   2.377   3.544   3.671 -2.1874  0.0288 -0.1902
   65SAPC  C210 5326   2.363   3.322   3.665 -0.0353 -0.5791  0.0121
   65SAPC  H10R 5327   2.302   3.244   3.614  0.2091 -0.1468 -0.9636
   65SAPC  H10S 5328   2.301   3.326   3.757  0.9490  0.6640  0.6375
   65SAPC  C211 5329   2.490   3.251   3.697 -0.2321  0.3753 -0.3806
   65SAPC  H11R 5330   2.563   3.246   3.614  1.1516 -2.8848  0.8848
   65SAPC  C212 5331   2.523   3.191   3.809 -0.0399  0.0854  0.2457
   65SAPC  H12R 5332   2.621   3.144   3.794  0.9917  0.9342  3.4962
   65SAPC  C213 5333   2.450   3.152   3.934 -1.2794 -0.0161  0.3363
   65SAPC  H13R 5334   2.350   3.199   3.941 -2.1285 -1.8888  2.2731
   65SAPC  H13S 5335   2.509   3.198   4.016  1.9752 -3.2660  0.0777
   65SAPC  C214 5336   2.447   3.002   3.947 -0.3778 -0.0546  0.1379
   65SAPC  H14R 5337   2.429   2.949   3.852 -2.0975 -0.5505  0.6994
   65SAPC  C215 5338   2.494   2.933   4.048 -0.1279  0.3772  0.7948
   65SAPC  H15R 5339   2.495   2.824   4.035  1.2208  0.4357  0.2287
   65SAPC  C216 5340   2.543   2.991   4.178  0.8519  0.7562  0.0699
   65SAPC  H16R 5341   2.476   2.959   4.260  0.1274 -1.7687 -1.4043
   65SAPC  H16S 5342   2.547   3.102   4.178  3.1788  0.7157 -0.2247
   65SAPC  C217 5343   2.689   2.953   4.211 -0.4832  0.0296  0.2746
   65SAPC  H17R 5344   2.752   2.962   4.120 -0.3565 -0.3099  0.3256
   65SAPC  H17S 5345   2.694   2.845   4.238  1.3726 -0.2366 -0.9788
   65SAPC  C218 5346   2.738   3.028   4.336 -0.2632 -0.5908  0.1881
   65SAPC  H18R 5347   2.840   2.989   4.354  1.1139  2.6005 -0.0625
   65SAPC  H18S 5348   2.668   3.000   4.418  0.5418 -3.1701  0.0911
   65SAPC  C219 5349   2.749   3.183   4.314 -0.3531  0.2734  0.3179
   65SAPC  H19R 5350   2.654   3.235   4.291 -0.5142 -0.0276  0.2877
   65SAPC  H19S 5351   2.814   3.204   4.227 -0.6120 -0.2957 -0.0188
   65SAPC  C220 5352   2.804   3.249   4.444 -0.1901 -0.6127  0.0742
   65SAPC  H20R 5353   2.731   3.236   4.527  0.1976  2.6228  1.0441
   65SAPC  H20S 5354   2.808   3.358   4.426 -0.1055 -0.7225 -0.5785
   65SAPC  H20T 5355   2.903   3.208   4.474 -1.3837 -2.4110  1.8397
   65SAPC   C33 5356   2.324   2.334   3.202  0.3274 -0.4208  0.9755
   65SAPC   H3X 5357   2.421   2.298   3.163 -0.5350 -0.9717 -0.7735
   65SAPC   H3Y 5358   2.258   2.302   3.119  0.8714  2.4920 -0.7190
   65SAPC   C34 5359   2.271   2.269   3.335 -0.8750  0.4759 -0.3845
   65SAPC   H4X 5360   2.176   2.314   3.370  0.4329  2.8167  0.4551
   65SAPC   H4Y 5361   2.355   2.293   3.404 -1.6953 -0.6994  1.0712
   65SAPC   C35 5362   2.247   2.120   3.327  0.3361  0.4770 -0.1321
   65SAPC   H5X 5363   2.318   2.067   3.261  0.2707  0.6769 -0.3635
   65SAPC   H5Y 5364   2.154   2.112   3.266  1.4137  0.4722 -1.8323
   65SAPC   C36 5365   2.250   2.052   3.464 -0.1732 -0.1919  1.0598
   65SAPC   H6X 5366   2.349   2.068   3.511 -0.5792 -0.9936  2.2411
   65SAPC   H6Y 5367   2.232   1.944   3.440 -3.7562  0.6511 -0.8046
   65SAPC   C37 5368   2.147   2.115   3.565 -0.0794  0.3170 -0.5666
   65SAPC   H7X 5369   2.044   2.110   3.524  0.6351  3.0275 -2.9578
   65SAPC   H7Y 5370   2.163   2.221   3.593  1.4097 -0.3409  1.3520
   65SAPC   C38 5371   2.137   2.037   3.702 -0.4894 -0.0597 -0.0685
   65SAPC   H8X 5372   2.140   1.927   3.684  0.3682 -0.2403  1.0388
   65SAPC   H8Y 5373   2.036   2.053   3.745 -0.3877 -0.8577  0.5078
   65SAPC   C39 5374   2.247   2.063   3.806  0.0954 -0.6986 -0.1705
   65SAPC   H9X 5375   2.271   2.168   3.834  1.4215 -1.1917  0.6734
   65SAPC   H9Y 5376   2.337   2.016   3.762  1.2938  2.0845 -0.9315
   65SAPC  C310 5377   2.222   1.993   3.941  0.9252 -0.1832  0.7873
   65SAPC  H10X 5378   2.210   1.890   3.901  1.5720  0.1908 -0.4296
   65SAPC  H10Y 5379   2.128   2.039   3.977  0.3191 -0.0220 -0.9164
   65SAPC  C311 5380   2.332   2.002   4.045 -0.2321 -1.4739 -0.1222
   65SAPC  H11X 5381   2.364   2.108   4.052 -1.1842 -0.8914 -2.9688
   65SAPC  H11Y 5382   2.424   1.947   4.017  1.5191  1.2983 -0.2567
   65SAPC  C312 5383   2.288   1.946   4.183 -0.7487 -0.1847  0.1357
   65SAPC  H12X 5384   2.278   1.836   4.169  2.5794 -0.2654 -2.9843
   65SAPC  H12Y 5385   2.194   2.003   4.202 -0.0486  1.5564 -1.3338
   65SAPC  C313 5386   2.391   1.977   4.295 -0.9443  0.4243 -0.5241
   65SAPC  H13X 5387   2.403   2.086   4.314  1.7999  0.8051 -3.6297
   65SAPC  H13Y 5388   2.491   1.948   4.257 -1.9896 -1.9859 -1.6578
   65SAPC  C314 5389   2.355   1.907   4.426 -0.4635 -0.3411  0.7537
   65SAPC  H14X 5390   2.348   1.797   4.410  2.3031 -0.2228 -2.2153
   65SAPC  H14Y 5391   2.254   1.947   4.447 -1.1051  1.0264 -3.8952
   65SAPC  C315 5392   2.452   1.961   4.540  0.0597  0.3751  0.5495
   65SAPC  H15X 5393   2.437   2.071   4.532  0.4700  0.3563 -0.8574
   65SAPC  H15Y 5394   2.560   1.945   4.519  0.8285  2.2096  2.7445
   65SAPC  C316 5395   2.415   1.891   4.676 -0.4069  0.1539 -0.3877
   65SAPC  H16X 5396   2.314   1.850   4.654 -0.1101  0.9673 -3.9689
   65SAPC  H16Y 5397   2.410   1.971   4.753  1.2705  0.2381 -0.3391
   65SAPC  C317 5398   2.505   1.774   4.713  0.1606 -0.6617  0.3685
   65SAPC  H17X 5399   2.608   1.804   4.682 -0.7052 -0.0581 -2.2441
   65SAPC  H17Y 5400   2.495   1.686   4.645  2.0538 -0.4632 -0.2374
   65SAPC  C318 5401   2.501   1.710   4.851  0.2687 -0.4027 -0.5352
   65SAPC  H18X 5402   2.561   1.617   4.858  0.2689 -0.3013  2.0720
   65SAPC  H18Y 5403   2.400   1.675   4.881  1.0095 -0.5922  2.0246
   65SAPC  H18Z 5404   2.534   1.784   4.928 -0.6377 -1.9184  1.4129
   66SAPC     N 5405   3.865   4.294   1.812 -0.8453  0.5206 -0.9101
   66SAPC   C12 5406   3.746   4.252   1.904 -0.1354 -0.0286  0.2826
   66SAPC  H12A 5407   3.661   4.240   1.838  0.3445 -3.2222  0.0946
   66SAPC  H12B 5408   3.709   4.334   1.964 -0.9967  0.5000 -0.9280
   66SAPC   C13 5409   3.991   4.310   1.888  0.2516 -0.3956  1.0993
   66SAPC  H13A 5410   4.075   4.339   1.827  0.3388  0.3408  1.5487
   66SAPC  H13B 5411   3.987   4.397   1.953 -0.5394  0.7740 -0.4558
   66SAPC  H13C 5412   4.014   4.226   1.951 -1.3698 -2.5365 -1.0095
   66SAPC   C14 5413   3.895   4.178   1.716 -0.0969 -0.1503 -0.2949
   66SAPC  H14A 5414   3.976   4.199   1.648  1.0652 -0.5444  0.9426
   66SAPC  H14B 5415   3.909   4.088   1.773 -1.9335 -0.8997 -0.9254
   66SAPC  H14C 5416   3.805   4.160   1.659  0.8255  0.3805 -1.9936
   66SAPC   C15 5417   3.831   4.412   1.732  0.0811  1.3793  0.0296
   66SAPC  H15A 5418   3.925   4.451   1.694 -1.1748  1.5435 -3.2860
   66SAPC  H15B 5419   3.765   4.385   1.650  0.2487 -2.2546  0.9163
   66SAPC  H15C 5420   3.790   4.490   1.795  0.9948  1.5106  0.4695
   66SAPC   C11 5421   3.768   4.128   2.001  0.0035  0.7495  0.1412
   66SAPC  H11A 5422   3.673   4.119   2.059  0.1569 -1.3770  0.1407
   66SAPC  H11B 5423   3.853   4.153   2.068  0.5643 -2.6595  0.8809
   66SAPC     P 5424   3.688   3.920   1.870  0.1946  0.1037 -0.0008
   66SAPC   O13 5425   3.563   4.002   1.866 -0.3413  0.5149  0.2157
   66SAPC   O14 5426   3.732   3.855   1.741 -0.3885  0.3038  0.0065
   66SAPC   O12 5427   3.801   4.005   1.939 -0.4726  0.1847  0.1653
   66SAPC   O11 5428   3.657   3.808   1.971 -0.0438  0.5486 -0.3092
   66SAPC    C1 5429   3.762   3.735   2.040 -0.4061 -0.0977  0.5086
   66SAPC    HA 5430   3.851   3.734   1.975 -1.3402 -0.4684 -0.8077
   66SAPC    HB 5431   3.795   3.801   2.123  0.1289 -1.0152  1.0456
   66SAPC    C2 5432   3.728   3.593   2.094 -0.7113 -0.1629  0.0732
   66SAPC    HS 5433   3.698   3.529   2.009 -0.4229  1.2284 -1.1232
   66SAPC   O21 5434   3.627   3.616   2.194  0.2449  0.1105  0.3076
   66SAPC   C21 5435   3.560   3.500   2.217 -0.2183 -0.1679 -0.3517
   66SAPC   O22 5436   3.583   3.387   2.175 -0.0941 -0.2776  0.3536
   66SAPC   C22 5437   3.443   3.526   2.312 -0.2138  0.2024  1.2524
   66SAPC   H2R 5438   3.427   3.636   2.318 -0.8751  0.0485  3.0923
   66SAPC   H2S 5439   3.354   3.471   2.276 -0.9758  0.9913  1.8744
   66SAPC    C3 5440   3.851   3.537   2.169  0.3568  0.7139 -0.5425
   66SAPC    HX 5441   3.935   3.521   2.097  2.0731 -0.9244  1.6771
   66SAPC    HY 5442   3.834   3.442   2.224 -0.9931  1.1402 -0.1813
   66SAPC   O31 5443   3.880   3.637   2.263 -0.0779 -0.4329 -0.9692
   66SAPC   C31 5444   4.001   3.665   2.303  0.1039  0.4579  0.4288
   66SAPC   O32 5445   4.099   3.608   2.262 -0.0894  0.4050  0.1969
   66SAPC   C32 5446   4.006   3.778   2.404 -0.2665  0.0087 -0.7350
   66SAPC   H2X 5447   3.910   3.833   2.402 -0.5301 -0.3659  0.5006
   66SAPC   H2Y 5448   4.088   3.847   2.376  1.6550 -1.1234  1.6709
   66SAPC   C23 5449   3.481   3.473   2.454 -0.8101 -0.1222 -0.8814
   66SAPC   H3R 5450   3.481   3.362   2.457 -1.1713 -0.1051  0.6175
   66SAPC   H3S 5451   3.408   3.506   2.531 -2.5915  1.7229 -3.2021
   66SAPC   C24 5452   3.621   3.524   2.501  0.1665  0.1648  0.2939
   66SAPC   H4R 5453   3.623   3.633   2.479 -0.6137  0.1543  0.1581
   66SAPC   H4S 5454   3.697   3.482   2.432 -0.6051  0.4597 -0.7681
   66SAPC   C25 5455   3.674   3.500   2.641  0.3455  0.0200 -0.1383
   66SAPC   H5R 5456   3.627   3.569   2.713  0.6745  0.1067 -0.0065
   66SAPC   C26 5457   3.734   3.389   2.693 -0.7746  0.4703  0.3521
   66SAPC   H6R 5458   3.769   3.392   2.797 -1.2819 -1.0634  0.5909
   66SAPC   C27 5459   3.782   3.271   2.611 -0.5302  0.3808 -0.0455
   66SAPC   H7R 5460   3.725   3.271   2.516 -0.8563  0.5090  0.1530
   66SAPC   H7S 5461   3.745   3.192   2.680 -3.5147  2.3382  0.7464
   66SAPC   C28 5462   3.928   3.256   2.565 -0.8915 -0.6245 -0.1692
   66SAPC   H8R 5463   3.946   3.248   2.457  1.2460  1.7594 -0.0782
   66SAPC   C29 5464   4.038   3.249   2.639  0.0389 -0.7000  0.0442
   66SAPC   H9R 5465   4.131   3.219   2.589 -0.1283 -1.0908 -0.0401
   66SAPC  C210 5466   4.040   3.259   2.790  0.0299  0.6602 -0.2639
   66SAPC  H10R 5467   3.963   3.329   2.827  0.7613  1.5432 -0.3629
   66SAPC  H10S 5468   4.135   3.303   2.827 -1.1778  1.2825  2.3086
   66SAPC  C211 5469   4.029   3.117   2.845  0.2154 -0.3044  0.2456
   66SAPC  H11R 5470   3.948   3.059   2.799 -1.9038  3.6605 -1.4827
   66SAPC  C212 5471   4.109   3.068   2.942  0.1681 -0.1251  0.8265
   66SAPC  H12R 5472   4.096   2.967   2.984 -0.2107 -0.6901 -0.6042
   66SAPC  C213 5473   4.216   3.146   3.024  0.0942 -0.1211 -0.2235
   66SAPC  H13R 5474   4.299   3.184   2.961  0.5411  1.0623  1.0168
   66SAPC  H13S 5475   4.280   3.083   3.089 -2.5778 -1.1170  1.6234
   66SAPC  C214 5476   4.165   3.258   3.117  0.6397 -0.0730 -0.9079
   66SAPC  H14R 5477   4.105   3.336   3.066  0.7130 -0.0002 -0.8826
   66SAPC  C215 5478   4.193   3.276   3.251  0.4758 -0.3970 -0.2145
   66SAPC  H15R 5479   4.143   3.363   3.295  0.8684 -0.9316  1.3465
   66SAPC  C216 5480   4.268   3.175   3.331  0.1889 -0.2085 -0.0559
   66SAPC  H16R 5481   4.360   3.149   3.275  0.9152 -0.2611  1.1320
   66SAPC  H16S 5482   4.211   3.081   3.349  1.3350 -0.5034  2.4942
   66SAPC  C217 5483   4.315   3.212   3.475  0.4228  0.7299 -0.2467
   66SAPC  H17R 5484   4.231   3.258   3.531  1.2246 -0.4977  2.1373
   66SAPC  H17S 5485   4.389   3.293   3.458  0.2652  1.7383  3.0506
   66SAPC  C218 5486   4.360   3.088   3.560 -0.0170  0.0311  0.1523
   66SAPC  H18R 5487   4.407   3.004   3.503 -1.3569 -1.1543  0.7498
   66SAPC  H18S 5488   4.259   3.047   3.580  0.0584 -1.5921 -2.3496
   66SAPC  C219 5489   4.434   3.128   3.688 -0.0038  0.2682  0.6183
   66SAPC  H19R 5490   4.537   3.160   3.659 -0.8809  0.9469 -2.0551
   66SAPC  H19S 5491   4.453   3.033   3.744  0.8189  1.3369  2.2305
   66SAPC  C220 5492   4.358   3.223   3.767 -0.5658 -0.5642 -0.8193
   66SAPC  H20R 5493   4.364   3.325   3.724  0.3761 -0.1266  0.2807
   66SAPC  H20S 5494   4.393   3.217   3.873  0.7717 -1.5785 -1.3038
   66SAPC  H20T 5495   4.251   3.192   3.772 -0.4226 -1.5719 -3.1954
   66SAPC   C33 5496   4.020   3.726   2.550 -0.1807 -0.2974  0.2129
   66SAPC   H3X 5497   4.127   3.705   2.568  0.9235  4.4968  0.7251
   66SAPC   H3Y 5498   3.948   3.644   2.573  2.6337 -3.2247 -0.7103
   66SAPC   C34 5499   3.987   3.843   2.641  0.2639 -0.0218 -0.4031
   66SAPC   H4X 5500   3.893   3.892   2.608 -0.2993 -2.1062 -2.0610
   66SAPC   H4Y 5501   4.069   3.919   2.638 -0.7875  1.3780  2.3249
   66SAPC   C35 5502   3.975   3.792   2.787 -0.2975  0.0593 -0.0200
   66SAPC   H5X 5503   3.905   3.707   2.796 -0.4892  0.1638 -0.5061
   66SAPC   H5Y 5504   3.924   3.873   2.843 -1.1899  0.5177 -1.4541
   66SAPC   C36 5505   4.112   3.758   2.859  0.5071  0.3672  0.0950
   66SAPC   H6X 5506   4.178   3.847   2.852  0.5611  0.2648 -1.0000
   66SAPC   H6Y 5507   4.154   3.674   2.800 -0.0536 -0.2680  0.5812
   66SAPC   C37 5508   4.104   3.720   3.006 -0.6397  0.6226 -0.4030
   66SAPC   H7X 5509   4.199   3.677   3.044  0.1783  1.2643 -1.6347
   66SAPC   H7Y 5510   4.015   3.653   3.010  0.6728 -1.1732 -0.3633
   66SAPC   C38 5511   4.076   3.841   3.097  0.4810 -0.5005 -0.3593
   66SAPC   H8X 5512   3.993   3.908   3.063 -1.3563 -1.0195  2.7047
   66SAPC   H8Y 5513   4.166   3.905   3.091  0.3380 -0.2624 -0.0164
   66SAPC   C39 5514   4.065   3.791   3.241  0.9761 -0.3129  0.4706
   66SAPC   H9X 5515   4.151   3.728   3.272  2.0335  1.0548  0.3941
   66SAPC   H9Y 5516   3.972   3.729   3.238  1.4136 -0.9585 -0.2800
   66SAPC  C310 5517   4.050   3.901   3.350 -0.1646 -0.0052 -1.0470
   66SAPC  H10X 5518   3.974   3.972   3.312  1.0428  0.4989 -2.6234
   66SAPC  H10Y 5519   4.144   3.955   3.377  0.6879 -1.1767 -1.5451
   66SAPC  C311 5520   3.999   3.846   3.489 -0.0800  0.2935 -0.0785
   66SAPC  H11X 5521   4.077   3.773   3.520  0.7245  1.9783  2.1115
   66SAPC  H11Y 5522   3.903   3.795   3.466  0.8649  0.2241 -5.2276
   66SAPC  C312 5523   3.986   3.957   3.592 -0.3136 -0.1051  1.5620
   66SAPC  H12X 5524   3.926   4.038   3.547  1.7562  1.0860  0.7702
   66SAPC  H12Y 5525   4.085   4.004   3.613 -0.0858  1.0796 -1.6061
   66SAPC  C313 5526   3.899   3.907   3.713  0.6443  0.2815  0.4713
   66SAPC  H13X 5527   3.952   3.820   3.758 -0.2808 -0.7907 -0.4446
   66SAPC  H13Y 5528   3.803   3.869   3.672  0.2486  0.2373  1.4251
   66SAPC  C314 5529   3.879   4.019   3.805 -0.5508 -0.1780 -1.3998
   66SAPC  H14X 5530   3.839   4.103   3.743  0.9090 -1.0286 -3.6505
   66SAPC  H14Y 5531   3.982   4.050   3.830 -1.2632 -0.2901  2.0884
   66SAPC  C315 5532   3.802   3.979   3.935  0.7808 -0.4159 -0.3438
   66SAPC  H15X 5533   3.807   4.066   4.004 -1.0361  0.2634 -0.9911
   66SAPC  H15Y 5534   3.855   3.900   3.992  0.8297  0.3135  0.6378
   66SAPC  C316 5535   3.653   3.945   3.902  0.0041 -0.1978  0.2676
   66SAPC  H16X 5536   3.638   3.854   3.840 -2.1892 -0.4580  1.0936
   66SAPC  H16Y 5537   3.610   4.031   3.846  0.9329 -0.6205 -1.1486
   66SAPC  C317 5538   3.567   3.936   4.027 -0.1797  0.6850  0.4593
   66SAPC  H17X 5539   3.581   4.026   4.091 -1.0289  1.5179 -0.4907
   66SAPC  H17Y 5540   3.599   3.859   4.101  1.2627 -0.3414 -1.1526
   66SAPC  C318 5541   3.416   3.929   4.005 -0.4730 -0.2181  0.1991
   66SAPC  H18X 5542   3.379   4.024   3.961 -0.0936 -1.3828 -2.8740
   66SAPC  H18Y 5543   3.370   3.930   4.106 -1.1095 -1.3116 -0.0697
   66SAPC  H18Z 5544   3.386   3.846   3.938  1.1190  1.5904 -2.9805
   67SAPC     N 5545   6.486   3.768   1.885  0.2543  0.0329 -0.7841
   67SAPC   C12 5546   6.619   3.827   1.929  0.8084 -0.7927 -0.0707
   67SAPC  H12A 5547   6.600   3.933   1.937  3.5100 -0.3818  2.2044
   67SAPC  H12B 5548   6.693   3.821   1.850  0.4220 -1.0351 -0.4258
   67SAPC   C13 5549   6.376   3.821   1.975 -0.9135 -0.3379  0.0758
   67SAPC  H13A 5550   6.405   3.812   2.078 -1.9097 -0.0721  0.3911
   67SAPC  H13B 5551   6.359   3.925   1.949  2.2904  0.3354  0.2876
   67SAPC  H13C 5552   6.279   3.776   1.959 -0.3800 -1.3986 -0.3053
   67SAPC   C14 5553   6.455   3.793   1.743  0.3191  0.1088 -0.3351
   67SAPC  H14A 5554   6.522   3.738   1.678 -0.6357 -2.4906  0.7375
   67SAPC  H14B 5555   6.357   3.751   1.725  0.7999 -1.1351 -0.2008
   67SAPC  H14C 5556   6.456   3.897   1.714 -0.5865  0.3548  0.4562
   67SAPC   C15 5557   6.499   3.621   1.908 -0.6492 -0.2795  0.2805
   67SAPC  H15A 5558   6.516   3.608   2.013  1.7697  0.1778  0.0002
   67SAPC  H15B 5559   6.402   3.582   1.881 -0.8587  0.8240 -0.6723
   67SAPC  H15C 5560   6.578   3.573   1.853 -1.2624 -2.1680  0.9845
   67SAPC   C11 5561   6.669   3.791   2.070  0.5501  0.4129  0.5788
   67SAPC  H11A 5562   6.766   3.843   2.078  1.0753 -0.6342  1.2775
   67SAPC  H11B 5563   6.687   3.681   2.070 -2.2917 -0.1220  0.7514
   67SAPC     P 5564   6.574   3.973   2.227  0.4806 -0.0304  0.3374
   67SAPC   O13 5565   6.607   4.065   2.116  0.1869 -0.3314 -0.7598
   67SAPC   O14 5566   6.449   3.991   2.299  0.1419  0.5257 -0.4320
   67SAPC   O12 5567   6.576   3.819   2.180  0.2724 -0.0063 -0.3415
   67SAPC   O11 5568   6.692   3.970   2.333  0.1890 -0.1090 -0.1477
   67SAPC    C1 5569   6.666   3.911   2.467 -0.6192  0.2591  0.8648
   67SAPC    HA 5570   6.601   3.820   2.467  0.2737 -0.3863  0.9907
   67SAPC    HB 5571   6.761   3.877   2.513  0.4233 -0.1221 -1.4320
   67SAPC    C2 5572   6.599   4.001   2.577  0.3703  0.1082  0.2124
   67SAPC    HS 5573   6.498   4.016   2.533  1.2186 -1.4179 -2.4816
   67SAPC   O21 5574   6.675   4.124   2.597 -0.0404  0.0362  0.1547
   67SAPC   C21 5575   6.606   4.224   2.642 -0.0114 -0.7745  0.1841
   67SAPC   O22 5576   6.487   4.226   2.676 -1.0720 -0.0623 -0.5291
   67SAPC   C22 5577   6.691   4.352   2.642  0.2129  0.8661 -0.1541
   67SAPC   H2R 5578   6.781   4.322   2.585 -0.8844 -0.0441 -1.4616
   67SAPC   H2S 5579   6.631   4.418   2.576 -2.6104 -2.9962 -1.8906
   67SAPC    C3 5580   6.602   3.925   2.713 -0.2120 -0.6859 -0.1774
   67SAPC    HX 5581   6.699   3.879   2.742 -0.9491 -0.6144  2.6873
   67SAPC    HY 5582   6.533   3.839   2.698 -1.5183  0.2816  0.0643
   67SAPC   O31 5583   6.570   3.991   2.835  0.7584  0.0152  0.1803
   67SAPC   C31 5584   6.447   4.001   2.873  0.0666 -0.0785 -0.0514
   67SAPC   O32 5585   6.347   3.964   2.816  0.4506  0.7171 -0.3230
   67SAPC   C32 5586   6.447   4.081   3.006 -0.2267 -0.3298  0.4152
   67SAPC   H2X 5587   6.475   4.183   2.970  0.9244 -0.2354  1.5179
   67SAPC   H2Y 5588   6.527   4.038   3.070 -0.8880  0.8208  2.0753
   67SAPC   C23 5589   6.734   4.406   2.777  0.3617  1.2967  0.5432
   67SAPC   H3R 5590   6.775   4.326   2.842 -0.9328 -0.8358 -1.1135
   67SAPC   H3S 5591   6.647   4.447   2.832 -0.1181  0.4584  0.4252
   67SAPC   C24 5592   6.849   4.508   2.755  0.0142  0.0119 -0.7065
   67SAPC   H4R 5593   6.820   4.595   2.692  1.4981 -0.0840 -1.5569
   67SAPC   H4S 5594   6.937   4.458   2.710 -0.1458  1.1755 -2.4318
   67SAPC   C25 5595   6.880   4.562   2.886  0.4489  0.4368 -0.0479
   67SAPC   H5R 5596   6.788   4.587   2.941 -2.1335 -3.4264 -2.1839
   67SAPC   C26 5597   6.998   4.564   2.954  0.0814 -0.1266 -0.0242
   67SAPC   H6R 5598   7.005   4.613   3.052 -0.9357 -1.8427  0.9578
   67SAPC   C27 5599   7.128   4.517   2.902 -0.0030  0.1135  0.0380
   67SAPC   H7R 5600   7.207   4.593   2.917 -1.0118  0.9341  1.3279
   67SAPC   H7S 5601   7.127   4.510   2.791  1.6298  1.1799 -0.0795
   67SAPC   C28 5602   7.179   4.388   2.954  0.2659 -0.2900  0.1781
   67SAPC   H8R 5603   7.156   4.299   2.893  0.7859 -2.0311  2.4235
   67SAPC   C29 5604   7.250   4.368   3.069 -0.0874  0.0151  0.3407
   67SAPC   H9R 5605   7.279   4.263   3.081  1.1873  0.3929  0.7913
   67SAPC  C210 5606   7.305   4.463   3.177 -0.4034  0.2419  0.0206
   67SAPC  H10R 5607   7.224   4.478   3.250 -1.1945  0.6843 -0.9241
   67SAPC  H10S 5608   7.326   4.563   3.134 -1.2470 -0.1141 -1.2950
   67SAPC  C211 5609   7.417   4.400   3.250  0.0451 -0.0542 -0.5278
   67SAPC  H11R 5610   7.433   4.292   3.237 -2.5640 -1.0310  2.8992
   67SAPC  C212 5611   7.481   4.457   3.356 -0.0071 -0.1985 -0.2465
   67SAPC  H12R 5612   7.560   4.394   3.399 -2.6689 -2.0655  2.2742
   67SAPC  C213 5613   7.463   4.594   3.411  0.4118  0.5984  0.3666
   67SAPC  H13R 5614   7.405   4.655   3.339  0.6449  0.6468  0.2177
   67SAPC  H13S 5615   7.564   4.640   3.423  0.9753 -0.2963 -0.7819
   67SAPC  C214 5616   7.400   4.565   3.547  0.2223  0.2851  0.4416
   67SAPC  H14R 5617   7.299   4.522   3.545  0.2959  0.1162  0.3749
   67SAPC  C215 5618   7.454   4.588   3.664  0.0780  0.2849  0.4910
   67SAPC  H15R 5619   7.408   4.533   3.747 -2.5703 -1.9796 -2.2682
   67SAPC  C216 5620   7.572   4.672   3.701 -0.1959  0.4144  0.6701
   67SAPC  H16R 5621   7.630   4.714   3.616 -0.1902 -1.5542 -0.3587
   67SAPC  H16S 5622   7.635   4.610   3.769  1.1009 -0.6767 -1.3987
   67SAPC  C217 5623   7.535   4.789   3.796  0.1199 -0.3454 -0.0107
   67SAPC  H17R 5624   7.456   4.854   3.754 -2.0852 -0.6117  3.3926
   67SAPC  H17S 5625   7.622   4.859   3.796 -1.0797  1.2190 -0.9607
   67SAPC  C218 5626   7.506   4.739   3.943  0.5691  0.6650  0.5711
   67SAPC  H18R 5627   7.599   4.720   4.000  0.8737 -3.0557 -0.8778
   67SAPC  H18S 5628   7.451   4.643   3.945 -0.8072  1.3759 -0.8201
   67SAPC  C219 5629   7.418   4.834   4.022 -0.1762 -0.1554  0.0969
   67SAPC  H19R 5630   7.322   4.851   3.968  0.7248 -1.8991 -2.2072
   67SAPC  H19S 5631   7.464   4.932   4.047  0.2953 -0.5271  0.7235
   67SAPC  C220 5632   7.374   4.762   4.151 -0.2428  0.7182  0.3676
   67SAPC  H20R 5633   7.298   4.686   4.125  1.3299 -1.0311  0.7082
   67SAPC  H20S 5634   7.327   4.835   4.221 -0.1878 -0.6191  1.8396
   67SAPC  H20T 5635   7.456   4.717   4.211 -1.5522  1.6205  2.9953
   67SAPC   C33 5636   6.317   4.098   3.086 -0.0903  0.1041 -0.3778
   67SAPC   H3X 5637   6.230   4.129   3.024  0.0988  4.9990  1.3057
   67SAPC   H3Y 5638   6.323   4.189   3.150  2.3124  0.2651 -0.7491
   67SAPC   C34 5639   6.300   3.973   3.171  0.4106  0.0086 -0.0915
   67SAPC   H4X 5640   6.360   3.982   3.264 -2.5233 -1.0460  2.0448
   67SAPC   H4Y 5641   6.327   3.881   3.116  0.8105  0.2678 -0.3370
   67SAPC   C35 5642   6.160   3.954   3.230 -0.0425 -0.2593 -0.3889
   67SAPC   H5X 5643   6.154   3.853   3.277 -1.7169 -1.0435 -2.0932
   67SAPC   H5Y 5644   6.095   3.970   3.141  0.0149  1.8354 -0.0912
   67SAPC   C36 5645   6.121   4.062   3.331  0.5540 -0.1150 -0.2868
   67SAPC   H6X 5646   6.103   4.154   3.272 -1.3207  0.0362  0.4474
   67SAPC   H6Y 5647   6.206   4.066   3.403  0.6185  0.1926 -0.3786
   67SAPC   C37 5648   5.996   4.034   3.406 -0.3552  0.3460 -0.2166
   67SAPC   H7X 5649   5.905   4.022   3.344 -0.9022  0.0142  0.6331
   67SAPC   H7Y 5650   5.976   4.128   3.461 -2.3811  0.6127 -1.3475
   67SAPC   C38 5651   6.007   3.906   3.493 -0.9052 -0.9725  0.2760
   67SAPC   H8X 5652   6.067   3.933   3.582 -1.1954  1.8901 -0.3256
   67SAPC   H8Y 5653   6.051   3.819   3.438  0.4920 -0.5753  0.7146
   67SAPC   C39 5654   5.872   3.861   3.543  0.4524  0.4203  0.8096
   67SAPC   H9X 5655   5.811   3.830   3.455  0.0648  1.8812  0.5403
   67SAPC   H9Y 5656   5.827   3.955   3.581  1.8101  1.4720 -0.0866
   67SAPC  C310 5657   5.869   3.759   3.650 -0.3501 -0.2239 -0.8862
   67SAPC  H10X 5658   5.910   3.806   3.741 -3.9655  2.1887 -0.3197
   67SAPC  H10Y 5659   5.930   3.669   3.625  3.6710  1.5102  1.7243
   67SAPC  C311 5660   5.723   3.706   3.666 -0.6387 -0.3940  0.4454
   67SAPC  H11X 5661   5.741   3.625   3.740  2.9976 -0.1590  0.0108
   67SAPC  H11Y 5662   5.705   3.655   3.569 -3.3499  0.1518  0.5721
   67SAPC  C312 5663   5.605   3.809   3.692 -0.3568  0.0033 -0.1759
   67SAPC  H12X 5664   5.525   3.739   3.724 -0.0106  0.3201  1.4844
   67SAPC  H12Y 5665   5.581   3.853   3.593 -0.4375  0.5239  0.0695
   67SAPC  C313 5666   5.641   3.911   3.802  0.3903  1.0359  0.2455
   67SAPC  H13X 5667   5.709   3.984   3.753  2.1228  0.7138  2.0197
   67SAPC  H13Y 5668   5.698   3.853   3.878 -0.0591  0.2156 -0.0452
   67SAPC  C314 5669   5.516   3.988   3.849 -0.1570  0.6886 -0.1299
   67SAPC  H14X 5670   5.443   3.911   3.881  2.1574 -1.3266  0.6119
   67SAPC  H14Y 5671   5.464   4.037   3.764 -0.7713 -0.5498 -0.4823
   67SAPC  C315 5672   5.539   4.081   3.967  1.4241 -0.2752 -0.2062
   67SAPC  H15X 5673   5.599   4.171   3.941 -0.4534  1.0605 -0.0883
   67SAPC  H15Y 5674   5.605   4.024   4.036  2.4942  1.1083 -0.0277
   67SAPC  C316 5675   5.413   4.138   4.028 -0.1971 -0.3578 -0.5029
   67SAPC  H16X 5676   5.357   4.052   4.070  1.3687 -0.9414  0.4405
   67SAPC  H16Y 5677   5.348   4.190   3.954 -1.5798 -0.3091  0.7041
   67SAPC  C317 5678   5.443   4.223   4.152 -0.3806 -0.7247 -0.0514
   67SAPC  H17X 5679   5.351   4.276   4.184  0.9511  2.7970 -1.5713
   67SAPC  H17Y 5680   5.504   4.303   4.105 -0.7780 -2.0811 -3.0751
   67SAPC  C318 5681   5.519   4.162   4.269 -0.2732  0.3860 -0.4439
   67SAPC  H18X 5682   5.624   4.134   4.245 -0.1004 -0.9844  1.6159
   67SAPC  H18Y 5683   5.468   4.071   4.308  0.6309 -0.4348 -1.1235
   67SAPC  H18Z 5684   5.529   4.238   4.349  3.4684  1.8432 -2.0649
   68SAPC     N 5685   4.844   4.981   2.238 -0.1984 -0.2991 -1.1038
   68SAPC   C12 5686   4.704   5.039   2.249 -1.3323 -0.5332  0.0947
   68SAPC  H12A 5687   4.663   5.059   2.151  1.3470  2.2091 -0.6265
   68SAPC  H12B 5688   4.707   5.140   2.288 -2.4628  0.8625 -3.1059
   68SAPC   C13 5689   4.932   5.103   2.221 -0.1618  0.2309 -0.1299
   68SAPC  H13A 5690   4.912   5.150   2.126  1.2033 -2.4577 -1.8376
   68SAPC  H13B 5691   4.923   5.174   2.302 -0.8999 -0.1086  0.1011
   68SAPC  H13C 5692   5.036   5.074   2.221 -0.2383 -0.0689  0.4076
   68SAPC   C14 5693   4.881   4.910   2.364 -0.0934  0.2805  0.4854
   68SAPC  H14A 5694   4.870   4.968   2.455  1.8916  3.1292 -0.9172
   68SAPC  H14B 5695   4.823   4.819   2.365  1.2946 -0.6339  0.6051
   68SAPC  H14C 5696   4.982   4.872   2.363 -0.3342 -0.4296 -1.3886
   68SAPC   C15 5697   4.856   4.895   2.115  0.5157 -0.0387 -0.1263
   68SAPC  H15A 5698   4.947   4.837   2.125 -0.0440 -0.8307  0.4722
   68SAPC  H15B 5699   4.773   4.828   2.103 -1.8079  2.8462 -1.4260
   68SAPC  H15C 5700   4.850   4.950   2.022  1.5775 -2.2025 -1.5579
   68SAPC   C11 5701   4.602   4.967   2.330  0.5004 -0.2679 -0.3702
   68SAPC  H11A 5702   4.509   5.029   2.334  1.3347  1.0266 -0.5131
   68SAPC  H11B 5703   4.632   4.948   2.435  0.8131 -2.9307 -0.8778
   68SAPC     P 5704   4.473   4.820   2.159 -0.3093 -0.1439  0.4716
   68SAPC   O13 5705   4.435   4.948   2.093 -0.0885  0.3407  0.1225
   68SAPC   O14 5706   4.521   4.715   2.062  0.3976 -0.0836 -0.2406
   68SAPC   O12 5707   4.581   4.838   2.270 -0.2616  0.0263 -0.3864
   68SAPC   O11 5708   4.352   4.766   2.246  0.3460  0.5654 -0.5844
   68SAPC    C1 5709   4.357   4.649   2.327  0.0264  0.2844  0.1022
   68SAPC    HA 5710   4.279   4.578   2.293  1.5629 -0.7860 -1.3541
   68SAPC    HB 5711   4.455   4.597   2.329 -0.5692 -0.9238 -0.8406
   68SAPC    C2 5712   4.324   4.689   2.479  0.1611 -0.0893 -0.1474
   68SAPC    HS 5713   4.322   4.592   2.533  0.2624  0.6819  1.2863
   68SAPC   O21 5714   4.207   4.758   2.484  0.0836  0.3604 -0.3353
   68SAPC   C21 5715   4.095   4.687   2.471 -0.1617 -0.1400 -0.9095
   68SAPC   O22 5716   4.087   4.566   2.484 -0.0447 -0.9601 -0.2153
   68SAPC   C22 5717   3.989   4.789   2.431 -0.5490 -0.2167  0.5066
   68SAPC   H2R 5718   4.043   4.864   2.369 -0.2204 -1.6952 -1.0707
   68SAPC   H2S 5719   3.910   4.745   2.367 -1.1156 -0.5819  1.4336
   68SAPC    C3 5720   4.438   4.774   2.549 -0.9383  0.1644 -0.5623
   68SAPC    HX 5721   4.436   4.879   2.514  1.1984  1.0751  1.7457
   68SAPC    HY 5722   4.534   4.721   2.533 -0.4313  0.8196  0.2413
   68SAPC   O31 5723   4.419   4.769   2.694  0.2303 -0.0376  0.3251
   68SAPC   C31 5724   4.528   4.818   2.755  0.3525  0.1779  1.0183
   68SAPC   O32 5725   4.616   4.884   2.702  0.5259 -0.4324 -0.2352
   68SAPC   C32 5726   4.514   4.793   2.902  0.7640  0.3544  0.0693
   68SAPC   H2X 5727   4.522   4.687   2.933  1.1236  0.6362  0.9573
   68SAPC   H2Y 5728   4.407   4.809   2.924  0.2753 -0.9838 -1.1211
   68SAPC   C23 5729   3.913   4.855   2.539  0.4106  1.0606 -0.2402
   68SAPC   H3R 5730   3.862   4.949   2.508  0.0993  1.2236  0.7349
   68SAPC   H3S 5731   3.973   4.887   2.627 -0.4689 -0.8943  1.1368
   68SAPC   C24 5732   3.791   4.760   2.592 -0.9618 -0.3172  0.5521
   68SAPC   H4R 5733   3.729   4.734   2.504  2.0107 -1.5091 -1.3472
   68SAPC   H4S 5734   3.727   4.822   2.660 -1.7038  0.8332 -1.1321
   68SAPC   C25 5735   3.831   4.640   2.665 -0.3636  0.1180  0.5133
   68SAPC   H5R 5736   3.824   4.549   2.603  1.8594 -1.2924  2.1565
   68SAPC   C26 5737   3.854   4.625   2.794 -0.4944 -0.2055 -0.9793
   68SAPC   H6R 5738   3.894   4.530   2.834  0.1846 -0.2067 -1.6408
   68SAPC   C27 5739   3.839   4.729   2.901  0.4852 -0.1819 -0.1209
   68SAPC   H7R 5740   3.819   4.826   2.850  0.8413 -0.3480 -0.5861
   68SAPC   H7S 5741   3.941   4.738   2.944  0.1885 -1.7138  0.9888
   68SAPC   C28 5742   3.742   4.695   3.008  0.1467  0.5385  0.5287
   68SAPC   H8R 5743   3.641   4.737   2.994  0.6560  0.9960 -2.5045
   68SAPC   C29 5744   3.769   4.629   3.122  0.2222  0.2754 -0.2063
   68SAPC   H9R 5745   3.690   4.604   3.195  0.6254 -0.6919 -0.0911
   68SAPC  C210 5746   3.908   4.592   3.175 -0.0330  0.0764 -0.5616
   68SAPC  H10R 5747   3.970   4.572   3.085  0.9195 -0.5603  0.2013
   68SAPC  H10S 5748   3.914   4.498   3.233 -1.3643  1.0428  1.2446
   68SAPC  C211 5749   3.965   4.712   3.237  0.4188 -0.3959  0.1385
   68SAPC  H11R 5750   4.014   4.777   3.163 -2.0291  0.3134 -0.9711
   68SAPC  C212 5751   3.960   4.747   3.365 -0.2356  0.4487  0.2450
   68SAPC  H12R 5752   4.022   4.834   3.393 -2.3501  2.5362 -1.2720
   68SAPC  C213 5753   3.897   4.672   3.480  0.0064 -0.2673 -0.1918
   68SAPC  H13R 5754   3.894   4.565   3.449  0.1998 -0.8470  1.6793
   68SAPC  H13S 5755   3.797   4.717   3.499 -0.2873 -1.2144  0.6163
   68SAPC  C214 5756   4.001   4.676   3.591  0.4719  0.7172 -0.1891
   68SAPC  H14R 5757   4.093   4.618   3.575 -0.7763 -1.4882  0.1694
   68SAPC  C215 5758   3.979   4.734   3.708  0.4450 -0.3493  0.3540
   68SAPC  H15R 5759   4.062   4.724   3.780  0.4545 -0.0442  0.3875
   68SAPC  C216 5760   3.858   4.814   3.752  0.0845 -0.1017  0.2126
   68SAPC  H16R 5761   3.853   4.805   3.862 -1.0786 -1.1862  0.0859
   68SAPC  H16S 5762   3.764   4.764   3.722  0.6087 -0.7609 -0.3796
   68SAPC  C217 5763   3.852   4.960   3.717 -1.0833 -0.0563 -0.4515
   68SAPC  H17R 5764   3.912   4.971   3.624  1.7058 -1.0563  1.1125
   68SAPC  H17S 5765   3.891   5.019   3.803  1.2531 -2.5035  0.3221
   68SAPC  C218 5766   3.702   4.998   3.688  0.4286  0.6418 -0.4509
   68SAPC  H18R 5767   3.671   4.949   3.594  0.3078 -0.8776  0.3564
   68SAPC  H18S 5768   3.706   5.109   3.685  1.6674  0.6435  0.3926
   68SAPC  C219 5769   3.601   4.961   3.795  0.4814  0.2156  0.0982
   68SAPC  H19R 5770   3.592   4.850   3.792 -0.8650  0.1550  2.8157
   68SAPC  H19S 5771   3.498   4.994   3.768  0.2850 -0.1309  0.4154
   68SAPC  C220 5772   3.638   5.016   3.935 -0.2413 -0.3519 -0.4783
   68SAPC  H20R 5773   3.740   4.979   3.963 -0.2409 -0.1511 -0.2110
   68SAPC  H20S 5774   3.571   4.986   4.019 -1.0085  1.8339 -0.2409
   68SAPC  H20T 5775   3.638   5.127   3.939  1.6256 -0.3219 -0.3993
   68SAPC   C33 5776   4.587   4.895   2.986  0.4527 -0.7959 -0.1396
   68SAPC   H3X 5777   4.575   4.996   2.942  0.6334 -0.9234 -0.4847
   68SAPC   H3Y 5778   4.691   4.854   2.984  0.6627 -0.2658 -0.0855
   68SAPC   C34 5779   4.534   4.910   3.127  0.3744 -0.2919  0.0690
   68SAPC   H4X 5780   4.436   4.960   3.110 -0.8934 -2.7341 -0.1673
   68SAPC   H4Y 5781   4.598   4.964   3.200  0.3985 -0.8338  0.4526
   68SAPC   C35 5782   4.512   4.777   3.201 -0.0439 -0.5164 -0.7542
   68SAPC   H5X 5783   4.587   4.697   3.180  1.7027  0.7763  0.3515
   68SAPC   H5Y 5784   4.409   4.748   3.171 -1.6957  2.8505  1.1367
   68SAPC   C36 5785   4.483   4.794   3.356 -0.4501  0.3635  0.7028
   68SAPC   H6X 5786   4.557   4.872   3.383  0.6925 -0.7309  0.8183
   68SAPC   H6Y 5787   4.488   4.692   3.400 -2.3574  0.1626  0.5548
   68SAPC   C37 5788   4.346   4.848   3.396 -0.0259  0.2661  0.2976
   68SAPC   H7X 5789   4.257   4.810   3.341 -1.4601  1.2148  1.8680
   68SAPC   H7Y 5790   4.345   4.959   3.392 -1.8788  0.2749 -0.2246
   68SAPC   C38 5791   4.322   4.825   3.546 -0.1479  0.8038  0.2932
   68SAPC   H8X 5792   4.355   4.723   3.576 -0.4002  0.8462  0.7251
   68SAPC   H8Y 5793   4.214   4.843   3.566 -0.8079 -2.8647  0.7482
   68SAPC   C39 5794   4.394   4.925   3.639 -0.6371  0.1139  0.0844
   68SAPC   H9X 5795   4.336   5.019   3.626 -1.3892 -0.0069  2.0858
   68SAPC   H9Y 5796   4.496   4.953   3.606 -0.0829 -1.4743  0.3309
   68SAPC  C310 5797   4.385   4.881   3.786 -0.5312  0.0775 -0.2515
   68SAPC  H10X 5798   4.408   4.773   3.800  3.0418  0.8776  1.2683
   68SAPC  H10Y 5799   4.280   4.900   3.816  0.4462  0.9893  2.9919
   68SAPC  C311 5800   4.457   4.979   3.884 -0.8424  0.0240 -0.0200
   68SAPC  H11X 5801   4.567   4.989   3.875 -0.6070 -1.5711  0.7266
   68SAPC  H11Y 5802   4.424   4.935   3.980  0.5222 -1.2828 -0.1180
   68SAPC  C312 5803   4.382   5.117   3.882 -0.0103  0.4919 -0.8098
   68SAPC  H12X 5804   4.273   5.099   3.892  0.2169 -1.7907 -1.7354
   68SAPC  H12Y 5805   4.387   5.177   3.789 -2.7134  3.1764  0.6055
   68SAPC  C313 5806   4.428   5.210   3.998 -0.0664 -0.3639  0.5911
   68SAPC  H13X 5807   4.538   5.219   4.007 -0.1111  1.1752  0.0172
   68SAPC  H13Y 5808   4.373   5.178   4.089  0.6216 -0.6854  0.8972
   68SAPC  C314 5809   4.379   5.349   3.965  0.0281 -0.0420  0.1906
   68SAPC  H14X 5810   4.283   5.360   3.911 -0.4081  0.9735  1.1456
   68SAPC  H14Y 5811   4.456   5.389   3.896  0.6373  0.5878  1.2071
   68SAPC  C315 5812   4.380   5.441   4.095 -0.3787 -0.7335 -0.2209
   68SAPC  H15X 5813   4.366   5.539   4.043 -0.7713 -1.1205 -0.8558
   68SAPC  H15Y 5814   4.480   5.439   4.144 -1.2213 -1.3716  1.5497
   68SAPC  C316 5815   4.253   5.413   4.182 -0.0688 -0.3610 -0.3726
   68SAPC  H16X 5816   4.269   5.316   4.234 -0.4007 -1.1127 -1.6331
   68SAPC  H16Y 5817   4.172   5.401   4.107  0.2622 -1.1700 -0.6061
   68SAPC  C317 5818   4.224   5.525   4.284  0.4155  0.6926 -0.0872
   68SAPC  H17X 5819   4.176   5.610   4.230 -1.2481 -0.7000 -0.9010
   68SAPC  H17Y 5820   4.324   5.544   4.328  0.0424 -2.1278  2.2612
   68SAPC  C318 5821   4.136   5.468   4.403  0.8448  0.2377 -0.3689
   68SAPC  H18X 5822   4.199   5.393   4.455  0.1768  0.8945  1.4518
   68SAPC  H18Y 5823   4.048   5.412   4.364 -0.0338  0.0310  1.7754
   68SAPC  H18Z 5824   4.114   5.557   4.466 -1.0390  0.7486 -1.6416
   69SAPC     N 5825   2.468   0.909   2.103  0.5793 -0.1727  0.3389
   69SAPC   C12 5826   2.615   0.928   2.080 -0.2463  0.0262 -0.0706
   69SAPC  H12A 5827   2.659   0.844   2.130 -1.3964  0.2963  1.4540
   69SAPC  H12B 5828   2.650   1.017   2.130  1.8350 -0.6294 -0.2823
   69SAPC   C13 5829   2.394   1.028   2.053 -0.9216 -0.4657 -1.1074
   69SAPC  H13A 5830   2.434   1.117   2.100  2.0036 -1.4659 -1.4660
   69SAPC  H13B 5831   2.421   1.038   1.949  2.3361  0.0087 -0.3435
   69SAPC  H13C 5832   2.287   1.027   2.066 -0.9896 -3.2740 -1.3713
   69SAPC   C14 5833   2.419   0.789   2.032 -0.5091 -0.1005 -0.1242
   69SAPC  H14A 5834   2.476   0.769   1.942 -1.8077 -2.0857 -0.5564
   69SAPC  H14B 5835   2.426   0.710   2.106 -1.4310  0.6184  0.7558
   69SAPC  H14C 5836   2.315   0.794   2.004 -0.6346 -0.3288  0.2887
   69SAPC   C15 5837   2.439   0.891   2.252 -0.8039 -0.0206 -0.0609
   69SAPC  H15A 5838   2.475   0.982   2.300 -0.8950  1.9266 -3.3879
   69SAPC  H15B 5839   2.332   0.884   2.253 -1.0043  2.2141  0.2851
   69SAPC  H15C 5840   2.489   0.799   2.277  1.7143  0.8543 -1.4754
   69SAPC   C11 5841   2.679   0.943   1.940  0.4013 -0.1787  0.0776
   69SAPC  H11A 5842   2.780   0.987   1.948  0.6946 -1.0586  1.6188
   69SAPC  H11B 5843   2.629   1.029   1.890 -0.4212 -0.2970  0.6724
   69SAPC     P 5844   2.778   0.725   1.873 -0.1328 -0.1248  0.0443
   69SAPC   O13 5845   2.729   0.612   1.958  0.2324 -0.6902 -0.3621
   69SAPC   O14 5846   2.829   0.686   1.738  0.4835 -0.4269  0.0628
   69SAPC   O12 5847   2.663   0.829   1.860 -0.7807 -0.0470 -0.0846
   69SAPC   O11 5848   2.890   0.792   1.964 -0.2100 -0.3063 -0.1547
   69SAPC    C1 5849   3.027   0.810   1.917  0.7019  0.2031 -0.7024
   69SAPC    HA 5850   3.030   0.801   1.806  0.8870 -2.6723 -0.5368
   69SAPC    HB 5851   3.056   0.907   1.963  0.3318  0.3644 -0.8095
   69SAPC    C2 5852   3.129   0.698   1.958 -0.5767  0.2024 -0.1137
   69SAPC    HS 5853   3.137   0.623   1.877 -0.5679 -0.0881  0.1537
   69SAPC   O21 5854   3.084   0.626   2.074 -0.4197 -0.0721 -0.0203
   69SAPC   C21 5855   3.145   0.510   2.096 -0.4216 -0.1605  1.0046
   69SAPC   O22 5856   3.221   0.457   2.020 -0.1873 -0.4670 -0.6138
   69SAPC   C22 5857   3.105   0.455   2.237 -0.5297  0.5976  0.1907
   69SAPC   H2R 5858   3.011   0.397   2.222 -1.6220  2.1050  0.9718
   69SAPC   H2S 5859   3.182   0.385   2.274 -1.5307  0.0510  1.2759
   69SAPC    C3 5860   3.278   0.759   1.977  0.3498  0.0686  0.2079
   69SAPC    HX 5861   3.298   0.827   1.891  0.4487  0.2237  0.3535
   69SAPC    HY 5862   3.352   0.677   1.968 -1.2364 -1.3334 -0.5717
   69SAPC   O31 5863   3.289   0.838   2.100  0.2575 -0.1955  0.3937
   69SAPC   C31 5864   3.381   0.798   2.191  0.0423  0.3495 -0.0512
   69SAPC   O32 5865   3.442   0.696   2.181 -0.3843  0.7695  0.4215
   69SAPC   C32 5866   3.391   0.892   2.302  0.0333  0.1127  0.1761
   69SAPC   H2X 5867   3.442   0.981   2.259 -0.1332  0.9923  1.7383
   69SAPC   H2Y 5868   3.460   0.849   2.378  1.5091 -0.4837 -1.4255
   69SAPC   C23 5869   3.092   0.567   2.340 -0.1952  0.1462  0.6489
   69SAPC   H3R 5870   3.010   0.638   2.316  0.7990  0.8723 -0.7531
   69SAPC   H3S 5871   3.184   0.628   2.339 -0.3113  0.3222  0.6023
   69SAPC   C24 5872   3.080   0.518   2.483 -0.2806 -0.4173  0.1433
   69SAPC   H4R 5873   3.172   0.474   2.528 -0.6311 -2.6176 -1.1387
   69SAPC   H4S 5874   3.007   0.435   2.473 -0.6059  0.1102 -2.7350
   69SAPC   C25 5875   3.001   0.615   2.565  0.7307  0.7970 -0.0696
   69SAPC   H5R 5876   2.994   0.713   2.516  0.7492  1.4607  1.2191
   69SAPC   C26 5877   2.952   0.600   2.695 -0.1551 -0.5349 -0.1778
   69SAPC   H6R 5878   2.890   0.675   2.746  0.7251 -1.0537  1.7260
   69SAPC   C27 5879   2.955   0.481   2.782  0.0675  0.4106  0.5402
   69SAPC   H7R 5880   2.887   0.406   2.737  2.2153 -0.5128 -1.3692
   69SAPC   H7S 5881   2.907   0.517   2.876 -2.2269 -1.3905  0.1429
   69SAPC   C28 5882   3.093   0.425   2.818  0.1823  0.0756 -1.1158
   69SAPC   H8R 5883   3.144   0.385   2.729  0.1524 -1.4069 -0.4951
   69SAPC   C29 5884   3.145   0.422   2.944  0.3569  0.0519  0.8634
   69SAPC   H9R 5885   3.240   0.370   2.964  0.8623  1.3004  1.8209
   69SAPC  C210 5886   3.083   0.470   3.069  0.3856  0.1192  0.0461
   69SAPC  H10R 5887   3.126   0.410   3.152  0.1352 -0.1866 -0.0420
   69SAPC  H10S 5888   2.976   0.439   3.074  0.1694  0.4381 -1.9428
   69SAPC  C211 5889   3.094   0.618   3.086  0.5275 -0.0449  0.3823
   69SAPC  H11R 5890   3.081   0.675   2.992 -1.3110 -0.9210  0.0641
   69SAPC  C212 5891   3.115   0.685   3.201 -0.5539  0.8074  0.1972
   69SAPC  H12R 5892   3.118   0.794   3.191  0.2567  0.6920 -1.0282
   69SAPC  C213 5893   3.126   0.630   3.344 -0.5418  0.4047  0.0537
   69SAPC  H13R 5894   3.227   0.632   3.391 -2.2554 -0.9384  4.2355
   69SAPC  H13S 5895   3.089   0.525   3.334  0.7965  0.0689 -1.8640
   69SAPC  C214 5896   3.022   0.710   3.418 -0.4408 -0.2632 -0.0517
   69SAPC  H14R 5897   2.920   0.671   3.426 -1.2145  1.6439 -0.0290
   69SAPC  C215 5898   3.050   0.834   3.474 -0.3877  0.0382 -0.3609
   69SAPC  H15R 5899   2.976   0.893   3.530  0.3009  0.3699  0.2205
   69SAPC  C216 5900   3.187   0.899   3.475 -0.3911 -0.4107 -0.9727
   69SAPC  H16R 5901   3.179   0.976   3.395 -1.9112  1.5112  0.9247
   69SAPC  H16S 5902   3.260   0.829   3.427 -0.6815 -1.5175  0.1698
   69SAPC  C217 5903   3.234   0.953   3.609  0.3740  0.0706  0.3738
   69SAPC  H17R 5904   3.330   1.008   3.598  0.7802 -0.6791  0.1053
   69SAPC  H17S 5905   3.229   0.869   3.681 -0.3068  0.9890  1.4406
   69SAPC  C218 5906   3.142   1.060   3.680 -0.1980  0.4546 -0.5078
   69SAPC  H18R 5907   3.043   1.018   3.708  1.3884 -1.6504  2.4895
   69SAPC  H18S 5908   3.126   1.143   3.607  0.2562  0.2842 -0.8078
   69SAPC  C219 5909   3.207   1.116   3.805 -0.4649  0.9060 -0.5054
   69SAPC  H19R 5910   3.165   1.216   3.830 -1.0205  0.3756  0.7870
   69SAPC  H19S 5911   3.311   1.134   3.771  0.9047  0.4137  3.0301
   69SAPC  C220 5912   3.218   1.033   3.932  0.3672  0.0194 -0.1571
   69SAPC  H20R 5913   3.119   0.993   3.961 -0.6404  1.3781 -1.6020
   69SAPC  H20S 5914   3.258   1.094   4.016  1.0963  0.5658 -0.8830
   69SAPC  H20T 5915   3.287   0.950   3.903  0.9556 -0.3451  2.0528
   69SAPC   C33 5916   3.254   0.930   2.359  0.2240 -0.5305 -0.5864
   69SAPC   H3X 5917   3.181   0.850   2.384 -0.4347 -0.0150 -0.8298
   69SAPC   H3Y 5918   3.195   0.981   2.279 -1.5892 -2.5205 -0.6132
   69SAPC   C34 5919   3.271   1.036   2.471 -0.1949  0.3105 -0.4201
   69SAPC   H4X 5920   3.169   1.071   2.500 -0.3501 -0.3066 -0.2156
   69SAPC   H4Y 5921   3.346   1.109   2.435  0.2289 -0.1353 -0.4509
   69SAPC   C35 5922   3.330   0.965   2.604  0.1516 -0.7288  0.3223
   69SAPC   H5X 5923   3.441   0.959   2.602  0.1127 -1.2883 -1.1594
   69SAPC   H5Y 5924   3.295   0.860   2.612 -1.4133 -0.4682 -2.0791
   69SAPC   C36 5925   3.297   1.056   2.722  0.5852 -0.3616  0.2678
   69SAPC   H6X 5926   3.187   1.068   2.724  0.4097 -1.4308  3.7316
   69SAPC   H6Y 5927   3.350   1.152   2.703 -1.7253  0.5875 -1.7795
   69SAPC   C37 5928   3.353   0.984   2.849 -0.3928  0.9278 -0.1382
   69SAPC   H7X 5929   3.464   0.979   2.838 -0.3314 -3.2320  0.5969
   69SAPC   H7Y 5930   3.320   0.879   2.836  0.3828  0.4694  1.3190
   69SAPC   C38 5931   3.305   1.047   2.977 -0.1085  0.1012 -0.8689
   69SAPC   H8X 5932   3.356   1.001   3.065  0.5267  1.5664 -0.4384
   69SAPC   H8Y 5933   3.196   1.024   2.985 -0.0603  0.5448  3.0690
   69SAPC   C39 5934   3.322   1.196   2.996  0.1824 -0.1033  0.1245
   69SAPC   H9X 5935   3.267   1.254   2.918 -0.8436  0.3009  1.1300
   69SAPC   H9Y 5936   3.430   1.218   2.981  0.9404 -1.3027  3.1521
   69SAPC  C310 5937   3.266   1.244   3.129 -0.4744  0.0295  0.6455
   69SAPC  H10X 5938   3.167   1.199   3.151 -0.4438  1.6076  4.6825
   69SAPC  H10Y 5939   3.243   1.351   3.110  0.0553 -0.1295 -1.0886
   69SAPC  C311 5940   3.367   1.226   3.246  0.0058  0.6714 -0.5540
   69SAPC  H11X 5941   3.473   1.243   3.219  0.0448  1.8821  0.2546
   69SAPC  H11Y 5942   3.359   1.120   3.279 -1.7351 -0.0184 -2.9078
   69SAPC  C312 5943   3.319   1.313   3.362 -0.2653 -0.1081 -0.6853
   69SAPC  H12X 5944   3.212   1.285   3.373 -0.3387  0.4857  0.2938
   69SAPC  H12Y 5945   3.330   1.417   3.325  0.7545  0.3956  0.9037
   69SAPC  C313 5946   3.399   1.314   3.492 -0.0302 -0.2424 -0.2737
   69SAPC  H13X 5947   3.500   1.344   3.455 -0.6356  0.4671 -1.4115
   69SAPC  H13Y 5948   3.398   1.207   3.522  1.8066 -1.4200 -3.8511
   69SAPC  C314 5949   3.338   1.405   3.599 -0.4934 -0.2395 -0.2470
   69SAPC  H14X 5950   3.235   1.371   3.618 -0.7820  1.6044  1.9989
   69SAPC  H14Y 5951   3.319   1.508   3.561 -1.1481 -0.5731 -0.8493
   69SAPC  C315 5952   3.417   1.406   3.732 -0.3777  0.3430  0.2020
   69SAPC  H15X 5953   3.528   1.415   3.727 -0.1033 -1.9417  0.9863
   69SAPC  H15Y 5954   3.402   1.310   3.786 -0.9387 -0.2224 -0.9469
   69SAPC  C316 5955   3.355   1.516   3.823 -0.4337  0.2651  0.2267
   69SAPC  H16X 5956   3.246   1.499   3.817 -0.0387 -2.4840 -0.8889
   69SAPC  H16Y 5957   3.377   1.616   3.778 -2.6602  0.2597 -0.9928
   69SAPC  C317 5958   3.411   1.523   3.966 -0.3567 -0.9943 -0.1735
   69SAPC  H17X 5959   3.371   1.434   4.019 -2.2814  1.6154  3.1992
   69SAPC  H17Y 5960   3.363   1.608   4.019 -1.3821 -1.5504 -0.2054
   69SAPC  C318 5961   3.565   1.545   3.987 -0.2078  0.8963  0.6575
   69SAPC  H18X 5962   3.597   1.643   3.945 -1.2654  0.8319 -0.3193
   69SAPC  H18Y 5963   3.616   1.453   3.951 -2.7126 -0.3314  0.0682
   69SAPC  H18Z 5964   3.593   1.548   4.095 -2.4966  0.2128  1.3156
   70SAPC     N 5965   4.173   4.738   1.892 -0.1578  1.0300  0.8484
   70SAPC   C12 5966   4.126   4.736   2.041  0.0929 -0.1218 -0.4100
   70SAPC  H12A 5967   4.037   4.797   2.041  1.3454  1.8437  1.4241
   70SAPC  H12B 5968   4.200   4.777   2.108 -0.6840  0.1199  0.3142
   70SAPC   C13 5969   4.061   4.704   1.800  0.6688  0.0456  0.0977
   70SAPC  H13A 5970   4.104   4.685   1.703 -0.1819 -2.8703  0.1920
   70SAPC  H13B 5971   4.001   4.622   1.837  0.0478  1.5641  2.7238
   70SAPC  H13C 5972   3.996   4.788   1.781  0.8933  0.0862 -0.5139
   70SAPC   C14 5973   4.227   4.878   1.865  0.1107  0.2165  0.4424
   70SAPC  H14A 5974   4.152   4.951   1.890  0.9538  2.0726 -2.0591
   70SAPC  H14B 5975   4.312   4.902   1.926  0.4217 -1.5250  0.7613
   70SAPC  H14C 5976   4.254   4.899   1.763  1.2225 -0.3231  0.6046
   70SAPC   C15 5977   4.294   4.648   1.865 -0.0626  0.3279  0.2151
   70SAPC  H15A 5978   4.341   4.674   1.772  2.0260 -0.4361  1.0066
   70SAPC  H15B 5979   4.376   4.662   1.934  0.5735  0.6752 -0.5957
   70SAPC  H15C 5980   4.264   4.544   1.875 -2.8454  0.8796 -1.4807
   70SAPC   C11 5981   4.068   4.604   2.102 -0.5747 -0.0921  0.0473
   70SAPC  H11A 5982   4.051   4.624   2.210  0.4492  3.7012 -0.3251
   70SAPC  H11B 5983   4.145   4.525   2.092 -1.3274 -0.9764  1.1618
   70SAPC     P 5984   3.796   4.609   2.084  0.0713 -0.1913 -0.2437
   70SAPC   O13 5985   3.796   4.756   2.073  0.1258  0.1767 -0.3479
   70SAPC   O14 5986   3.689   4.523   2.019 -0.0645  0.1086 -0.3431
   70SAPC   O12 5987   3.942   4.572   2.023  0.2726  0.3003 -0.7058
   70SAPC   O11 5988   3.812   4.561   2.234  0.2507  0.6121 -0.3686
   70SAPC    C1 5989   3.840   4.428   2.277  0.8126 -0.7843 -0.5104
   70SAPC    HA 5990   3.890   4.369   2.198  1.0790  0.8243 -1.5885
   70SAPC    HB 5991   3.917   4.437   2.357  0.8099  2.2125 -0.7440
   70SAPC    C2 5992   3.706   4.363   2.327 -0.0804  0.3798  0.4678
   70SAPC    HS 5993   3.644   4.368   2.235 -0.5360  2.0394  0.8326
   70SAPC   O21 5994   3.646   4.445   2.435 -0.0330 -0.4231 -0.0783
   70SAPC   C21 5995   3.520   4.413   2.448 -0.5958 -0.6896 -0.5488
   70SAPC   O22 5996   3.462   4.324   2.390 -0.3770 -0.6836 -0.3990
   70SAPC   C22 5997   3.454   4.511   2.546 -0.0700  0.6107 -0.0415
   70SAPC   H2R 5998   3.535   4.559   2.604  2.5460 -0.3127 -2.6716
   70SAPC   H2S 5999   3.395   4.582   2.484  0.1775 -1.7224 -3.2038
   70SAPC    C3 6000   3.732   4.222   2.379 -0.4040 -0.0176  0.6349
   70SAPC    HX 6001   3.798   4.174   2.303 -0.6694 -0.2088  0.5243
   70SAPC    HY 6002   3.640   4.161   2.392  0.5202 -1.2635  1.7488
   70SAPC   O31 6003   3.791   4.219   2.512  0.1010  0.8101 -0.1715
   70SAPC   C31 6004   3.915   4.190   2.523 -0.2049  0.6289 -0.1888
   70SAPC   O32 6005   3.992   4.135   2.441  0.1723  0.3631 -0.0624
   70SAPC   C32 6006   3.960   4.231   2.660  0.6101 -0.0882  0.1662
   70SAPC   H2X 6007   3.966   4.342   2.651  1.2932  0.3677  4.2420
   70SAPC   H2Y 6008   4.060   4.185   2.672  1.0809  0.7034 -0.5609
   70SAPC   C23 6009   3.351   4.443   2.641 -0.2799 -0.4994 -0.0476
   70SAPC   H3R 6010   3.288   4.375   2.579  0.5957 -0.2953 -1.1662
   70SAPC   H3S 6011   3.290   4.519   2.695  1.8954  1.1965  0.1426
   70SAPC   C24 6012   3.422   4.362   2.754  0.3567  0.0315  0.5970
   70SAPC   H4R 6013   3.513   4.327   2.702  1.2618 -0.1246  2.2266
   70SAPC   H4S 6014   3.363   4.272   2.784  1.2442 -0.4574  0.9049
   70SAPC   C25 6015   3.452   4.436   2.876 -0.9131 -0.0578 -0.3673
   70SAPC   H5R 6016   3.511   4.526   2.852  0.5382 -0.8039  0.2708
   70SAPC   C26 6017   3.419   4.406   3.004  0.2276 -0.4665 -0.1037
   70SAPC   H6R 6018   3.455   4.475   3.081 -0.9924  0.3467 -0.2365
   70SAPC   C27 6019   3.331   4.295   3.059  0.2730 -0.1897 -0.3185
   70SAPC   H7R 6020   3.404   4.236   3.118  1.3265  0.1460 -1.2491
   70SAPC   H7S 6021   3.271   4.241   2.983 -1.7188 -0.2711  1.2212
   70SAPC   C28 6022   3.223   4.354   3.149  0.2207 -0.3165 -0.5152
   70SAPC   H8R 6023   3.166   4.432   3.096  0.5280 -1.4317 -2.5865
   70SAPC   C29 6024   3.208   4.338   3.282  0.6340  0.3829  0.2439
   70SAPC   H9R 6025   3.132   4.398   3.335 -1.1894 -0.0293 -1.7620
   70SAPC  C210 6026   3.289   4.253   3.377  0.1793  0.4603  0.0477
   70SAPC  H10R 6027   3.358   4.313   3.440 -0.8196  1.5919  0.0958
   70SAPC  H10S 6028   3.356   4.181   3.325 -2.5563 -2.3286  0.0632
   70SAPC  C211 6029   3.204   4.156   3.457 -0.5330 -0.2869 -0.6082
   70SAPC  H11R 6030   3.143   4.082   3.403 -1.3885 -0.0617  0.0191
   70SAPC  C212 6031   3.195   4.160   3.592  0.0486 -0.3168 -0.2233
   70SAPC  H12R 6032   3.136   4.080   3.640 -0.3634 -0.2006 -0.5322
   70SAPC  C213 6033   3.270   4.252   3.686  0.1393  0.5943  0.5314
   70SAPC  H13R 6034   3.362   4.299   3.644 -0.6777  1.7811  0.0043
   70SAPC  H13S 6035   3.312   4.182   3.761  1.4065  0.2911 -0.4344
   70SAPC  C214 6036   3.177   4.362   3.739 -0.4099 -0.2301  1.1229
   70SAPC  H14R 6037   3.116   4.417   3.666  0.2561 -0.1584  0.6039
   70SAPC  C215 6038   3.178   4.397   3.869  0.2867 -0.3566  0.7709
   70SAPC  H15R 6039   3.112   4.480   3.895  0.7156  1.0128 -2.1673
   70SAPC  C216 6040   3.269   4.347   3.973 -0.6102 -0.2585 -0.2027
   70SAPC  H16R 6041   3.323   4.431   4.022  2.6982 -3.2943  1.7950
   70SAPC  H16S 6042   3.344   4.278   3.930 -0.8203  0.4529 -1.7613
   70SAPC  C217 6043   3.186   4.281   4.081 -0.4191 -0.0311  0.5379
   70SAPC  H17R 6044   3.243   4.201   4.134  0.5457 -0.4803 -1.1130
   70SAPC  H17S 6045   3.095   4.232   4.040  0.6729 -3.0988  1.4317
   70SAPC  C218 6046   3.149   4.381   4.189 -0.2363  0.0307  0.5942
   70SAPC  H18R 6047   3.086   4.452   4.133  0.0823  0.1259  0.3552
   70SAPC  H18S 6048   3.239   4.437   4.223  0.2211 -1.0536  1.2472
   70SAPC  C219 6049   3.092   4.319   4.318  0.0172  0.3399 -0.2243
   70SAPC  H19R 6050   3.166   4.248   4.361  1.6831  0.4784 -2.6437
   70SAPC  H19S 6051   3.006   4.251   4.301 -1.2997  0.5889  4.2956
   70SAPC  C220 6052   3.046   4.428   4.420  0.1364  0.3142  0.1758
   70SAPC  H20R 6053   3.133   4.484   4.460 -0.1672 -0.2952  1.7360
   70SAPC  H20S 6054   2.987   4.375   4.497  0.3002 -0.4572 -0.2106
   70SAPC  H20T 6055   2.978   4.498   4.368  1.5752  0.4725 -1.6145
   70SAPC   C33 6056   3.860   4.184   2.778 -0.1717 -0.8355  0.2034
   70SAPC   H3X 6057   3.820   4.082   2.760 -0.7256 -0.8216  1.2609
   70SAPC   H3Y 6058   3.773   4.253   2.767  0.7503  0.2005 -0.9123
   70SAPC   C34 6059   3.909   4.192   2.928  0.0581 -0.2544 -0.1835
   70SAPC   H4X 6060   3.963   4.289   2.927 -1.0674  0.4175 -2.0277
   70SAPC   H4Y 6061   3.971   4.105   2.957 -1.2367 -1.3099 -0.4826
   70SAPC   C35 6062   3.793   4.218   3.028  0.1099  0.1930  0.4224
   70SAPC   H5X 6063   3.711   4.143   3.021 -0.3686  0.7733 -0.2420
   70SAPC   H5Y 6064   3.757   4.321   3.007  1.1106  0.6851  1.0275
   70SAPC   C36 6065   3.847   4.215   3.168  0.2465 -0.7532  0.8907
   70SAPC   H6X 6066   3.941   4.274   3.176  0.2645 -0.7619  0.7477
   70SAPC   H6Y 6067   3.879   4.112   3.195  0.6635 -0.3631  1.9262
   70SAPC   C37 6068   3.743   4.264   3.262  0.5953  0.2817  0.1600
   70SAPC   H7X 6069   3.722   4.371   3.242 -0.6868 -0.0977 -0.6649
   70SAPC   H7Y 6070   3.653   4.200   3.244  0.4750  0.8951 -1.6745
   70SAPC   C38 6071   3.779   4.244   3.412  0.2830  0.4321 -0.4440
   70SAPC   H8X 6072   3.883   4.272   3.440  0.4262 -2.7605  3.0022
   70SAPC   H8Y 6073   3.768   4.139   3.446 -0.3107  0.3799 -0.7905
   70SAPC   C39 6074   3.683   4.343   3.487  0.0982 -0.3883  0.0095
   70SAPC   H9X 6075   3.581   4.301   3.473  0.3667 -0.7177 -1.1156
   70SAPC   H9Y 6076   3.696   4.441   3.437 -1.2077 -0.1066  0.2043
   70SAPC  C310 6077   3.712   4.351   3.637 -0.2800 -0.2406 -0.3366
   70SAPC  H10X 6078   3.815   4.391   3.648  0.2646 -1.4772 -0.7974
   70SAPC  H10Y 6079   3.710   4.253   3.689  0.2754  0.5423  1.2275
   70SAPC  C311 6080   3.613   4.446   3.707  0.5140  0.4607  0.1122
   70SAPC  H11X 6081   3.515   4.395   3.720  0.9733 -0.6270 -0.5327
   70SAPC  H11Y 6082   3.599   4.532   3.638  1.7389  0.7157  0.1527
   70SAPC  C312 6083   3.657   4.493   3.845 -0.3315 -0.2715 -0.0619
   70SAPC  H12X 6084   3.583   4.573   3.867 -0.5284 -0.4409 -0.1109
   70SAPC  H12Y 6085   3.761   4.532   3.832  0.4382 -1.5999  1.7354
   70SAPC  C313 6086   3.652   4.394   3.960  0.1564  0.1905  0.3204
   70SAPC  H13X 6087   3.728   4.317   3.934  2.1909  3.0145 -3.0210
   70SAPC  H13Y 6088   3.558   4.336   3.964  1.0038 -1.1902  2.4373
   70SAPC  C314 6089   3.685   4.460   4.098  0.1891  0.3289  0.0274
   70SAPC  H14X 6090   3.605   4.529   4.131  2.0722  2.2261  0.8969
   70SAPC  H14Y 6091   3.770   4.530   4.081 -0.2534  1.2732  1.5264
   70SAPC  C315 6092   3.716   4.362   4.208 -0.1667 -0.7296  0.5879
   70SAPC  H15X 6093   3.767   4.410   4.294 -0.5614 -0.3323  0.6007
   70SAPC  H15Y 6094   3.788   4.289   4.164 -0.2414 -0.4431 -0.0176
   70SAPC  C316 6095   3.588   4.297   4.263 -0.1411  0.4918  0.7293
   70SAPC  H16X 6096   3.536   4.261   4.172 -1.2766 -0.6659  1.7852
   70SAPC  H16Y 6097   3.512   4.358   4.317 -1.7149  1.7726 -2.6621
   70SAPC  C317 6098   3.613   4.173   4.348 -0.5641  0.0837  1.2869
   70SAPC  H17X 6099   3.669   4.201   4.440 -0.2926  0.1926  1.0907
   70SAPC  H17Y 6100   3.668   4.091   4.297  0.6183 -0.1788  2.8865
   70SAPC  C318 6101   3.479   4.114   4.392  0.1949 -0.0557 -0.1268
   70SAPC  H18X 6102   3.409   4.187   4.437  0.2101 -1.2168  1.9002
   70SAPC  H18Y 6103   3.508   4.038   4.467  0.9451  0.7282  0.3979
   70SAPC  H18Z 6104   3.433   4.066   4.303 -0.6075  2.3552 -1.1021
   71SAPC     N 6105   4.852   2.959   2.029 -0.5015 -0.2724  0.0716
   71SAPC   C12 6106   4.870   2.892   2.165  0.4203 -0.1535 -0.3658
   71SAPC  H12A 6107   4.943   2.812   2.157  0.7460  0.0822  0.2067
   71SAPC  H12B 6108   4.777   2.843   2.189  0.8783 -0.4150  0.9429
   71SAPC   C13 6109   4.985   2.996   1.965 -0.9114 -0.3953  0.5096
   71SAPC  H13A 6110   4.971   3.063   1.881  1.2471 -1.1134 -0.5086
   71SAPC  H13B 6111   5.048   3.044   2.039  1.5236 -1.3959 -0.8089
   71SAPC  H13C 6112   5.026   2.908   1.918  0.3290 -0.3175  1.4045
   71SAPC   C14 6113   4.773   2.869   1.931 -0.2522 -0.1536  0.1903
   71SAPC  H14A 6114   4.832   2.782   1.905 -0.5053 -0.3827  0.3819
   71SAPC  H14B 6115   4.680   2.837   1.974  0.8593 -3.0952  0.6738
   71SAPC  H14C 6116   4.755   2.929   1.843  3.6243  1.2151  0.1398
   71SAPC   C15 6117   4.767   3.071   2.048  0.8623 -0.2977  0.5667
   71SAPC  H15A 6118   4.810   3.146   2.112 -3.2687  0.6605  2.6140
   71SAPC  H15B 6119   4.731   3.120   1.959 -1.1415  0.5645  1.7685
   71SAPC  H15C 6120   4.683   3.037   2.108  0.1298  1.8581  0.8733
   71SAPC   C11 6121   4.924   2.977   2.285  0.2956  0.5401 -0.4891
   71SAPC  H11A 6122   4.905   2.930   2.383 -3.6404  2.0653 -0.3302
   71SAPC  H11B 6123   4.855   3.064   2.289  1.3351  1.3888 -0.5101
   71SAPC     P 6124   5.185   2.935   2.296 -0.5344 -0.2420  0.6044
   71SAPC   O13 6125   5.169   2.819   2.195 -0.7708  0.4037 -0.6063
   71SAPC   O14 6126   5.313   3.011   2.284 -0.4574 -0.1149  0.1423
   71SAPC   O12 6127   5.057   3.025   2.272 -0.2856 -0.5391  0.4816
   71SAPC   O11 6128   5.175   2.887   2.446  0.2399  0.9145  0.7122
   71SAPC    C1 6129   5.152   2.749   2.473  0.1082 -0.2821 -0.8583
   71SAPC    HA 6130   5.070   2.704   2.413 -0.3053 -0.0445 -0.4746
   71SAPC    HB 6131   5.251   2.701   2.456 -0.3754 -2.6327  2.1311
   71SAPC    C2 6132   5.126   2.731   2.622  0.7718  0.3770  0.1672
   71SAPC    HS 6133   5.223   2.753   2.671  1.6991  0.5196 -1.6536
   71SAPC   O21 6134   5.087   2.595   2.651 -0.1337 -1.0446 -0.5895
   71SAPC   C21 6135   5.132   2.545   2.774 -0.4306  0.1544  0.4134
   71SAPC   O22 6136   5.192   2.612   2.858 -0.3537 -0.9150  0.6548
   71SAPC   C22 6137   5.105   2.400   2.776 -0.3552 -0.0253  0.4106
   71SAPC   H2R 6138   5.002   2.379   2.743 -0.2790  1.3226 -0.7768
   71SAPC   H2S 6139   5.180   2.361   2.703 -0.8987  0.5988 -0.4993
   71SAPC    C3 6140   5.016   2.829   2.688  0.3328  0.6852  0.1972
   71SAPC    HX 6141   4.921   2.796   2.640  0.9194  0.9172 -1.1530
   71SAPC    HY 6142   5.031   2.933   2.652  0.7318  1.0344  1.3363
   71SAPC   O31 6143   4.996   2.809   2.836 -0.4864  0.2305 -0.0030
   71SAPC   C31 6144   5.072   2.900   2.899  0.4323  0.6541 -0.0396
   71SAPC   O32 6145   5.144   2.987   2.842  0.2149  0.8026  0.1014
   71SAPC   C32 6146   5.057   2.888   3.054  0.7714 -0.1244 -0.0122
   71SAPC   H2X 6147   5.030   2.781   3.066  0.9756 -0.5107 -2.5471
   71SAPC   H2Y 6148   4.984   2.961   3.094 -0.0705 -0.6742 -0.5143
   71SAPC   C23 6149   5.120   2.348   2.920  0.5175  0.0656 -0.8001
   71SAPC   H3R 6150   5.207   2.386   2.979  1.7536 -2.2739 -0.9649
   71SAPC   H3S 6151   5.165   2.246   2.914  1.4094  0.5202 -2.6425
   71SAPC   C24 6152   4.989   2.350   3.010  0.3959  0.3183 -0.1386
   71SAPC   H4R 6153   5.006   2.276   3.091 -4.4605  0.2849  1.1426
   71SAPC   H4S 6154   4.909   2.299   2.952  1.9504 -1.9389 -0.4190
   71SAPC   C25 6155   4.943   2.487   3.053  0.7397 -0.2373  0.1994
   71SAPC   H5R 6156   4.937   2.553   2.966  2.0068 -0.5302 -0.1185
   71SAPC   C26 6157   4.918   2.535   3.174 -1.0400  0.2757  0.1912
   71SAPC   H6R 6158   4.891   2.641   3.185 -2.0642  0.2420 -1.5580
   71SAPC   C27 6159   4.917   2.445   3.295 -0.3283 -0.6461 -0.1939
   71SAPC   H7R 6160   4.922   2.337   3.268  2.6469 -0.2181 -1.8256
   71SAPC   H7S 6161   4.825   2.471   3.351 -0.5050 -0.3096 -0.6363
   71SAPC   C28 6162   5.039   2.473   3.382 -0.1115 -0.4335  0.0231
   71SAPC   H8R 6163   5.136   2.501   3.340  0.0213 -1.9872 -0.7647
   71SAPC   C29 6164   5.027   2.466   3.518  0.0038  0.5805 -0.5577
   71SAPC   H9R 6165   5.112   2.498   3.580  0.4451 -1.0116 -0.2882
   71SAPC  C210 6166   4.908   2.417   3.594 -0.1399  0.2587  0.3351
   71SAPC  H10R 6167   4.946   2.339   3.664 -4.1201 -2.0665  0.2125
   71SAPC  H10S 6168   4.838   2.355   3.534  1.6417  0.3767 -2.0133
   71SAPC  C211 6169   4.840   2.528   3.664  0.1908 -0.3978  0.3498
   71SAPC  H11R 6170   4.762   2.578   3.606  0.7629  1.0841  0.8122
   71SAPC  C212 6171   4.854   2.574   3.791 -0.1210 -0.0792  0.2356
   71SAPC  H12R 6172   4.799   2.662   3.825 -0.2470  0.1624 -0.5681
   71SAPC  C213 6173   4.947   2.516   3.896 -0.0640  0.1387  0.1190
   71SAPC  H13R 6174   5.049   2.497   3.856  0.9202  3.0430  0.9547
   71SAPC  H13S 6175   4.899   2.423   3.934  1.1364 -0.1107  1.1082
   71SAPC  C214 6176   4.963   2.616   4.002 -0.1471  0.2752 -0.4677
   71SAPC  H14R 6177   4.897   2.705   4.001  0.2120  0.5971  1.4116
   71SAPC  C215 6178   5.048   2.611   4.108  0.8941  0.3265 -0.2125
   71SAPC  H15R 6179   5.051   2.688   4.187 -0.2272 -1.6958  1.8975
   71SAPC  C216 6180   5.155   2.507   4.131 -0.2327  0.2432 -0.3313
   71SAPC  H16R 6181   5.149   2.422   4.059 -1.0579  0.2828 -0.3154
   71SAPC  H16S 6182   5.146   2.454   4.228  1.7971 -2.8270 -1.6545
   71SAPC  C217 6183   5.297   2.564   4.122  0.2786  0.3485  0.9272
   71SAPC  H17R 6184   5.318   2.593   4.017 -1.6870  1.6697  0.8529
   71SAPC  H17S 6185   5.375   2.486   4.131  2.0174  1.9657  0.4450
   71SAPC  C218 6186   5.333   2.682   4.222  0.2144  0.2842 -0.2296
   71SAPC  H18R 6187   5.259   2.764   4.211  0.5894  0.7117  0.4174
   71SAPC  H18S 6188   5.439   2.713   4.213  0.6185 -0.6829  0.9460
   71SAPC  C219 6189   5.324   2.633   4.364 -1.1460 -0.7169 -0.4844
   71SAPC  H19R 6190   5.392   2.546   4.378  3.3686  2.3832 -0.6601
   71SAPC  H19S 6191   5.225   2.598   4.398 -1.9930  0.5000 -1.5924
   71SAPC  C220 6192   5.373   2.749   4.453 -0.4271  0.0215  0.2088
   71SAPC  H20R 6193   5.320   2.843   4.425 -0.0389  0.8509  2.1176
   71SAPC  H20S 6194   5.480   2.773   4.439  0.5838 -3.1165  1.5521
   71SAPC  H20T 6195   5.352   2.718   4.558  0.6317 -1.8284 -0.0828
   71SAPC   C33 6196   5.193   2.898   3.123 -0.0748  0.2832 -0.4098
   71SAPC   H3X 6197   5.219   3.003   3.101 -2.3974  0.7900 -1.0245
   71SAPC   H3Y 6198   5.275   2.836   3.081 -1.5773 -1.1601 -1.3289
   71SAPC   C34 6199   5.169   2.889   3.274  0.5445 -0.0254 -0.3543
   71SAPC   H4X 6200   5.114   2.794   3.292 -1.6551  0.9151 -1.6184
   71SAPC   H4Y 6201   5.115   2.984   3.295  1.4831  0.2677  0.8539
   71SAPC   C35 6202   5.298   2.882   3.353 -0.1393 -0.1973  0.2105
   71SAPC   H5X 6203   5.365   2.969   3.337  2.1795 -1.7447  1.0857
   71SAPC   H5Y 6204   5.353   2.795   3.312 -0.9150 -0.9108  0.6544
   71SAPC   C36 6205   5.283   2.884   3.505  0.3439 -0.3196  0.4946
   71SAPC   H6X 6206   5.200   2.814   3.528  1.6312 -1.9954  0.2228
   71SAPC   H6Y 6207   5.249   2.988   3.525  0.3367 -0.4680  1.2963
   71SAPC   C37 6208   5.414   2.855   3.592 -0.3249 -0.0747 -0.4558
   71SAPC   H7X 6209   5.488   2.937   3.581  1.0958 -0.9162  1.9759
   71SAPC   H7Y 6210   5.469   2.763   3.564  0.4583 -0.4633  2.0897
   71SAPC   C38 6211   5.386   2.852   3.744 -0.0741  0.8289  1.1230
   71SAPC   H8X 6212   5.468   2.796   3.792 -1.1422 -1.4372  0.4401
   71SAPC   H8Y 6213   5.298   2.785   3.750  1.5667 -1.6638 -0.6228
   71SAPC   C39 6214   5.363   2.984   3.810  0.1537  0.0364  0.2346
   71SAPC   H9X 6215   5.268   3.023   3.768 -0.1783 -2.1290 -1.1548
   71SAPC   H9Y 6216   5.447   3.054   3.792  1.2785 -1.4100 -0.3314
   71SAPC  C310 6217   5.335   2.952   3.959 -0.0245 -0.2101  0.1175
   71SAPC  H10X 6218   5.420   2.900   4.008 -0.0545  1.3145  1.9180
   71SAPC  H10Y 6219   5.245   2.887   3.950  1.0127 -1.4852 -1.7661
   71SAPC  C311 6220   5.311   3.075   4.038  0.6304 -0.0438 -0.9365
   71SAPC  H11X 6221   5.253   3.164   4.003 -2.8593 -0.6472  2.6729
   71SAPC  H11Y 6222   5.409   3.123   4.062  0.4987 -0.3676  0.3111
   71SAPC  C312 6223   5.256   3.045   4.178 -0.2491 -0.3881 -0.0828
   71SAPC  H12X 6224   5.284   3.133   4.239  1.1660 -0.8569 -0.0163
   71SAPC  H12Y 6225   5.310   2.957   4.220  3.0197  1.3840 -0.3054
   71SAPC  C313 6226   5.100   3.036   4.175 -0.0710 -0.3873  0.3501
   71SAPC  H13X 6227   5.065   2.978   4.087 -2.0089 -0.0695  0.8760
   71SAPC  H13Y 6228   5.051   3.135   4.161  2.6154  1.2782  1.7950
   71SAPC  C314 6229   5.050   2.976   4.309 -0.6699  0.0624  0.6787
   71SAPC  H14X 6230   5.092   3.046   4.384  0.5380  0.3742 -0.2522
   71SAPC  H14Y 6231   5.101   2.879   4.325  0.2410  0.4601  0.2580
   71SAPC  C315 6232   4.898   2.961   4.325  0.3812 -0.1278  0.7810
   71SAPC  H15X 6233   4.865   2.943   4.429 -0.1496  1.6051  0.9535
   71SAPC  H15Y 6234   4.865   2.880   4.257 -3.3215  1.3545  0.5681
   71SAPC  C316 6235   4.805   3.078   4.282 -0.6253  0.2566  0.2017
   71SAPC  H16X 6236   4.821   3.103   4.175 -0.6100  0.6031  0.2839
   71SAPC  H16Y 6237   4.836   3.174   4.327 -2.2346  1.2554 -0.6876
   71SAPC  C317 6238   4.660   3.055   4.326  0.3978  0.0032 -0.1688
   71SAPC  H17X 6239   4.666   3.032   4.435 -0.4996 -2.2125 -0.5311
   71SAPC  H17Y 6240   4.622   2.972   4.264 -1.7285  0.8815 -0.1437
   71SAPC  C318 6241   4.579   3.184   4.295  0.5871 -0.0230 -0.2224
   71SAPC  H18X 6242   4.472   3.182   4.326  0.3318 -1.4466 -1.0917
   71SAPC  H18Y 6243   4.579   3.200   4.185  1.9581 -0.0786 -0.2516
   71SAPC  H18Z 6244   4.630   3.266   4.349  0.8388 -0.8165  0.7681
   72SAPC     N 6245   4.043   2.433   1.909 -0.6791  0.2316  0.2645
   72SAPC   C12 6246   4.158   2.434   2.001  0.4228 -0.1004 -0.1710
   72SAPC  H12A 6247   4.212   2.526   1.984 -0.1327  0.2912  0.1435
   72SAPC  H12B 6248   4.230   2.365   1.963 -1.6872 -0.9174 -3.0113
   72SAPC   C13 6249   4.108   2.422   1.770  0.5914  0.5622 -0.5694
   72SAPC  H13A 6250   4.138   2.319   1.758  1.2418  0.7186 -0.3262
   72SAPC  H13B 6251   4.044   2.441   1.685  1.9543 -2.3523 -2.3994
   72SAPC  H13C 6252   4.198   2.479   1.754  0.1888  0.9696 -1.4495
   72SAPC   C14 6253   3.959   2.312   1.932  0.1876  0.9061 -0.1615
   72SAPC  H14A 6254   4.003   2.219   1.899 -1.9127 -0.4172  0.5573
   72SAPC  H14B 6255   3.910   2.305   2.028 -3.1442  2.8035 -1.5545
   72SAPC  H14C 6256   3.875   2.317   1.865 -0.0616  1.5602  0.1921
   72SAPC   C15 6257   3.964   2.556   1.914  0.2776  0.0754  0.3496
   72SAPC  H15A 6258   3.934   2.570   2.017 -1.5825 -1.0404  0.0218
   72SAPC  H15B 6259   4.011   2.649   1.886  0.1012 -0.4813 -2.0216
   72SAPC  H15C 6260   3.872   2.541   1.860  0.2415  0.3606  0.3275
   72SAPC   C11 6261   4.122   2.418   2.147  0.1567 -0.8117 -0.1039
   72SAPC  H11A 6262   4.221   2.428   2.196  2.5384  0.3390 -4.5802
   72SAPC  H11B 6263   4.098   2.315   2.181 -3.6048 -0.2429 -0.5829
   72SAPC     P 6264   4.041   2.647   2.260 -0.1828  0.2490 -0.4402
   72SAPC   O13 6265   4.153   2.714   2.200 -0.3018 -0.2595 -0.3379
   72SAPC   O14 6266   3.914   2.723   2.257  0.8875  0.7508 -0.1165
   72SAPC   O12 6267   4.023   2.509   2.198  0.3577  0.6343 -0.3357
   72SAPC   O11 6268   4.067   2.625   2.416 -0.3444  0.5083  0.1409
   72SAPC    C1 6269   4.090   2.488   2.460 -0.1999 -0.3851  0.1753
   72SAPC    HA 6270   4.009   2.419   2.429  1.0321 -0.6425 -2.7343
   72SAPC    HB 6271   4.184   2.455   2.413  0.2878  0.7211  0.3403
   72SAPC    C2 6272   4.097   2.472   2.621  0.3020  0.5511  0.5816
   72SAPC    HS 6273   4.066   2.371   2.657  2.8353  0.1632  1.9418
   72SAPC   O21 6274   4.016   2.570   2.686  0.2725  0.1535  0.2918
   72SAPC   C21 6275   3.889   2.549   2.678  0.8260  0.1692 -0.5838
   72SAPC   O22 6276   3.837   2.452   2.630  0.4511  0.0780  0.0109
   72SAPC   C22 6277   3.816   2.658   2.757  0.0012  0.6960 -0.3377
   72SAPC   H2R 6278   3.888   2.742   2.767  0.6532  0.2321 -1.0379
   72SAPC   H2S 6279   3.731   2.694   2.696 -1.2537  0.0355  0.9710
   72SAPC    C3 6280   4.251   2.490   2.657  0.6631 -0.5588  0.1605
   72SAPC    HX 6281   4.296   2.573   2.598 -3.2129  1.5705 -0.1630
   72SAPC    HY 6282   4.300   2.400   2.616 -0.6816 -0.7776 -1.0549
   72SAPC   O31 6283   4.268   2.500   2.801 -0.1393  0.3042  0.1875
   72SAPC   C31 6284   4.249   2.619   2.851 -0.4872  0.4477  0.0608
   72SAPC   O32 6285   4.221   2.718   2.784  0.6171 -0.1658  0.2946
   72SAPC   C32 6286   4.289   2.621   3.002  0.3913 -0.0152 -0.1991
   72SAPC   H2X 6287   4.398   2.637   3.013  0.0725  2.3728 -0.0116
   72SAPC   H2Y 6288   4.274   2.517   3.037  1.3504  0.7799  2.8297
   72SAPC   C23 6289   3.777   2.619   2.905 -0.9248  0.0971  0.3049
   72SAPC   H3R 6290   3.864   2.557   2.936 -0.6505 -0.1882 -0.9837
   72SAPC   H3S 6291   3.684   2.559   2.890 -0.8355  0.5036 -2.3555
   72SAPC   C24 6292   3.768   2.740   2.999  0.1976 -0.1157 -0.6799
   72SAPC   H4R 6293   3.703   2.815   2.950  0.3242  0.0672 -0.5720
   72SAPC   H4S 6294   3.870   2.768   3.032 -0.2383 -0.0687  0.6992
   72SAPC   C25 6295   3.693   2.697   3.119 -0.7455  0.1585 -0.8494
   72SAPC   H5R 6296   3.603   2.637   3.095 -0.8023  0.1265 -0.5624
   72SAPC   C26 6297   3.720   2.711   3.248  0.0211 -0.6754  0.0546
   72SAPC   H6R 6298   3.655   2.662   3.323  1.7597 -1.6767  0.9714
   72SAPC   C27 6299   3.831   2.793   3.314  0.5487  0.6496 -0.2206
   72SAPC   H7R 6300   3.901   2.841   3.242 -1.1506  1.0465 -1.6638
   72SAPC   H7S 6301   3.899   2.732   3.377  0.9818 -0.1583 -1.4527
   72SAPC   C28 6302   3.771   2.911   3.388  0.1029 -0.3194  0.0869
   72SAPC   H8R 6303   3.728   2.973   3.308  2.8916  0.7526 -0.7109
   72SAPC   C29 6304   3.768   2.946   3.518 -0.6362 -0.6334  1.1874
   72SAPC   H9R 6305   3.725   3.042   3.552 -0.1976  0.0804 -0.2097
   72SAPC  C210 6306   3.827   2.862   3.628 -0.0898 -0.9473  0.0804
   72SAPC  H10R 6307   3.813   2.752   3.619  3.3339 -1.3241 -2.7706
   72SAPC  H10S 6308   3.770   2.885   3.721 -0.8117  0.6303 -0.7196
   72SAPC  C211 6309   3.975   2.891   3.660  0.3929  0.8871 -0.1382
   72SAPC  H11R 6310   4.037   2.867   3.572 -2.7786 -2.0251 -1.8169
   72SAPC  C212 6311   4.029   2.925   3.779  0.1579  0.4963 -0.2630
   72SAPC  H12R 6312   4.136   2.944   3.796  0.2652 -0.3814  0.0648
   72SAPC  C213 6313   3.959   2.944   3.908 -0.5641  0.6632  0.2943
   72SAPC  H13R 6314   3.955   2.851   3.968 -1.1626  0.6649  0.2644
   72SAPC  H13S 6315   3.851   2.961   3.888 -0.6424  1.4726  1.3322
   72SAPC  C214 6316   4.005   3.055   3.994  0.1752 -0.1617 -0.1599
   72SAPC  H14R 6317   4.093   3.108   3.953 -0.1252  1.2423  0.9324
   72SAPC  C215 6318   3.958   3.076   4.117  0.1598  0.2069 -0.6952
   72SAPC  H15R 6319   3.992   3.156   4.184 -2.3942  0.6177  0.2283
   72SAPC  C216 6320   3.841   2.996   4.169  0.1678 -0.5073  0.1959
   72SAPC  H16R 6321   3.864   2.890   4.192  0.2154 -0.4404  0.4602
   72SAPC  H16S 6322   3.760   2.990   4.093 -1.2183 -0.1772  1.6006
   72SAPC  C217 6323   3.776   3.051   4.296  0.2856 -0.0762  0.7240
   72SAPC  H17R 6324   3.723   3.146   4.274 -0.7659 -0.3780  1.8242
   72SAPC  H17S 6325   3.849   3.069   4.377 -1.6997  3.7802  1.9248
   72SAPC  C218 6326   3.682   2.945   4.361  0.3291  0.6147 -0.6385
   72SAPC  H18R 6327   3.726   2.843   4.358  0.9798  0.8421  0.5648
   72SAPC  H18S 6328   3.595   2.936   4.292  1.6026  1.4857 -2.4353
   72SAPC  C219 6329   3.640   2.973   4.509 -0.2740 -0.8446  0.3625
   72SAPC  H19R 6330   3.541   2.922   4.518 -1.7937  1.6034 -1.2056
   72SAPC  H19S 6331   3.619   3.080   4.528 -1.6023 -1.2327  1.2395
   72SAPC  C220 6332   3.737   2.917   4.612  0.5972  0.3231  0.3856
   72SAPC  H20R 6333   3.839   2.956   4.588  0.5554 -0.6998 -1.6902
   72SAPC  H20S 6334   3.748   2.806   4.606 -0.5863  0.1213  1.6660
   72SAPC  H20T 6335   3.706   2.938   4.716  2.0443  0.9533  0.7230
   72SAPC   C33 6336   4.195   2.714   3.074 -0.8027 -0.1481 -0.3246
   72SAPC   H3X 6337   4.092   2.707   3.032 -0.1449  0.7075 -2.1805
   72SAPC   H3Y 6338   4.231   2.819   3.066  2.0324 -1.1127 -1.4222
   72SAPC   C34 6339   4.172   2.683   3.223 -0.0870  0.4440  0.5478
   72SAPC   H4X 6340   4.137   2.578   3.234  0.3359  0.3190  0.7198
   72SAPC   H4Y 6341   4.099   2.757   3.261  0.7516  0.2071  2.7625
   72SAPC   C35 6342   4.300   2.703   3.298  0.1132 -0.3653  0.6898
   72SAPC   H5X 6343   4.332   2.808   3.279 -0.0707 -0.5735 -0.9625
   72SAPC   H5Y 6344   4.384   2.648   3.250 -0.5055 -0.8173  0.0939
   72SAPC   C36 6345   4.292   2.670   3.449  0.2828 -0.9553  0.4138
   72SAPC   H6X 6346   4.215   2.594   3.473  0.6008 -1.4896 -0.2439
   72SAPC   H6Y 6347   4.252   2.764   3.493 -1.1252 -0.8068 -1.0959
   72SAPC   C37 6348   4.429   2.636   3.513  0.0398 -1.4920 -0.2557
   72SAPC   H7X 6349   4.494   2.725   3.502 -3.0320  0.8635 -0.9109
   72SAPC   H7Y 6350   4.469   2.553   3.451 -0.7181 -0.8835 -1.5907
   72SAPC   C38 6351   4.426   2.589   3.658  0.0996 -0.0471 -0.6864
   72SAPC   H8X 6352   4.523   2.540   3.679 -0.1580 -1.7291 -3.0893
   72SAPC   H8Y 6353   4.351   2.506   3.661 -0.3916  0.4029 -0.2919
   72SAPC   C39 6354   4.393   2.707   3.758  0.3909 -0.4238 -0.1111
   72SAPC   H9X 6355   4.298   2.748   3.718  0.7438  0.1277 -0.3835
   72SAPC   H9Y 6356   4.480   2.773   3.744 -0.0026  0.1806  0.2574
   72SAPC  C310 6357   4.382   2.660   3.900 -0.2321  0.1936 -0.3461
   72SAPC  H10X 6358   4.480   2.626   3.939  0.7551  2.5533 -0.6507
   72SAPC  H10Y 6359   4.313   2.573   3.902 -2.5346  1.9237  0.2766
   72SAPC  C311 6360   4.328   2.767   3.997  1.0372 -0.2148 -1.0457
   72SAPC  H11X 6361   4.222   2.787   3.973  0.8957 -1.2913 -1.3271
   72SAPC  H11Y 6362   4.392   2.855   3.974  2.8012 -1.2355 -0.2976
   72SAPC  C312 6363   4.363   2.749   4.152  0.3030  0.4627  0.2811
   72SAPC  H12X 6364   4.471   2.735   4.172  0.3775 -0.1405 -0.4951
   72SAPC  H12Y 6365   4.307   2.661   4.189 -1.8845  1.2678 -0.9249
   72SAPC  C313 6366   4.325   2.869   4.234 -0.6720  0.4094  0.6647
   72SAPC  H13X 6367   4.216   2.891   4.224 -1.1657 -2.7150 -3.5146
   72SAPC  H13Y 6368   4.373   2.958   4.190 -2.7209  1.6782  0.8570
   72SAPC  C314 6369   4.362   2.859   4.382  0.8266 -0.2277 -0.1954
   72SAPC  H14X 6370   4.361   2.964   4.418 -0.1580  0.5525 -2.3504
   72SAPC  H14Y 6371   4.465   2.822   4.404  0.3208 -1.7924 -0.3593
   72SAPC  C315 6372   4.261   2.777   4.459 -0.5581  0.0414 -0.4416
   72SAPC  H15X 6373   4.263   2.671   4.426  0.4906 -0.5362  1.3438
   72SAPC  H15Y 6374   4.161   2.825   4.448 -0.8043 -0.3795 -0.0865
   72SAPC  C316 6375   4.298   2.779   4.610  0.0588  0.3140  0.1607
   72SAPC  H16X 6376   4.321   2.883   4.639 -0.7806  0.5928 -0.1553
   72SAPC  H16Y 6377   4.382   2.709   4.630 -1.2569 -0.7889  2.3385
   72SAPC  C317 6378   4.188   2.742   4.709  0.6574  0.1956 -0.4580
   72SAPC  H17X 6379   4.235   2.739   4.810  2.4642  3.1430 -1.0664
   72SAPC  H17Y 6380   4.180   2.634   4.688  0.7191  0.2710 -0.8762
   72SAPC  C318 6381   4.058   2.820   4.720 -0.1716 -0.4180  0.1425
   72SAPC  H18X 6382   3.986   2.781   4.795  0.7098  1.3144  1.9742
   72SAPC  H18Y 6383   4.008   2.821   4.621 -0.6343  1.4841  0.3649
   72SAPC  H18Z 6384   4.067   2.926   4.749  0.7918 -0.8240  1.3997
   73SLPC     N 6385   3.972   1.071   6.660  0.0984  0.5499 -0.2521
   73SLPC   C13 6386   3.900   1.195   6.682 -0.2393 -0.6872 -0.0077
   73SLPC  H13A 6387   3.956   1.259   6.749 -3.3882  0.4496  1.7654
   73SLPC  H13B 6388   3.902   1.247   6.588 -1.4941 -0.4706  0.0694
   73SLPC  H13C 6389   3.802   1.182   6.727  0.0465 -0.7293  0.6080
   73SLPC   C14 6390   4.113   1.107   6.636 -0.2589 -0.6476  0.0008
   73SLPC  H14A 6391   4.163   1.152   6.721  0.0759  0.4409 -0.7388
   73SLPC  H14B 6392   4.177   1.031   6.595  1.6475  1.2313 -0.7110
   73SLPC  H14C 6393   4.110   1.194   6.571 -0.2542 -0.0409  0.7973
   73SLPC   C15 6394   3.930   1.006   6.530 -0.4590  0.3008  0.3742
   73SLPC  H15A 6395   3.822   1.006   6.526 -0.4850 -1.8185  0.2663
   73SLPC  H15B 6396   3.955   1.067   6.445  2.9944 -0.4339  0.7051
   73SLPC  H15C 6397   3.966   0.904   6.524  0.8672  0.8285 -1.5831
   73SLPC   C12 6398   3.961   0.981   6.782  0.0708  0.4340  0.0256
   73SLPC  H12A 6399   3.857   0.957   6.801  0.3809 -0.1507  1.0188
   73SLPC  H12B 6400   4.012   1.035   6.860  1.4665 -1.3370  0.4107
   73SLPC   C11 6401   4.033   0.836   6.777  0.4557  0.0317 -0.0046
   73SLPC  H11A 6402   3.991   0.784   6.865 -0.8108  0.8085 -0.1342
   73SLPC  H11B 6403   4.143   0.850   6.789  0.1123  0.2915  4.3752
   73SLPC     P 6404   4.059   0.617   6.635 -0.0591  0.2886 -0.0508
   73SLPC   O13 6405   4.182   0.589   6.714  0.3971  0.7722 -0.6825
   73SLPC   O14 6406   3.949   0.521   6.648 -0.0409 -0.4649 -0.0034
   73SLPC   O12 6407   3.998   0.762   6.661 -0.1898  0.6932 -0.0104
   73SLPC   O11 6408   4.101   0.637   6.484 -0.0950 -0.5793 -0.3297
   73SLPC    C1 6409   4.220   0.709   6.448 -0.1268 -0.4484 -0.5787
   73SLPC    HA 6410   4.273   0.752   6.536 -0.5297 -2.5825  0.7804
   73SLPC    HB 6411   4.297   0.639   6.409  1.6884  0.4158  1.2399
   73SLPC    C2 6412   4.198   0.833   6.351  0.4342  0.0867 -0.2000
   73SLPC    HS 6413   4.149   0.910   6.414 -0.1112 -0.6221  0.2577
   73SLPC   O21 6414   4.114   0.786   6.243 -0.2113 -0.2613  0.3478
   73SLPC   C21 6415   4.067   0.886   6.166 -0.2342  0.1237 -0.1490
   73SLPC   O22 6416   4.071   1.000   6.193 -0.3457 -0.2297  0.1770
   73SLPC   C22 6417   3.981   0.838   6.040  0.2063  0.1715 -0.2692
   73SLPC   H2R 6418   3.875   0.847   6.072 -0.0635  0.9007 -1.3273
   73SLPC   H2S 6419   3.990   0.921   5.967  0.1157  0.3036 -0.1307
   73SLPC    C3 6420   4.327   0.904   6.301 -0.3924  0.1083  0.5972
   73SLPC    HX 6421   4.377   0.927   6.397  2.2543  0.7350 -0.8372
   73SLPC    HY 6422   4.305   1.000   6.248 -0.7700 -0.2633  0.0616
   73SLPC   O31 6423   4.404   0.808   6.221 -0.5527  0.0042 -0.0977
   73SLPC   C31 6424   4.414   0.831   6.092  0.8416 -0.3831 -0.1401
   73SLPC   O32 6425   4.354   0.917   6.029 -0.0306 -0.2156 -0.1462
   73SLPC   C32 6426   4.496   0.718   6.030  0.1340 -0.0865  0.7446
   73SLPC   H2X 6427   4.435   0.627   6.013 -0.3634  0.0155  1.9406
   73SLPC   H2Y 6428   4.579   0.688   6.098 -0.7294 -1.5817  1.1745
   73SLPC   C23 6429   3.999   0.699   5.967  0.0482  0.9814 -0.1678
   73SLPC   H3R 6430   3.898   0.686   5.921  0.5991 -0.2809 -1.0825
   73SLPC   H3S 6431   4.013   0.615   6.039 -4.7606 -1.9475 -2.1514
   73SLPC   C24 6432   4.103   0.698   5.855  0.1365  0.0605 -0.2045
   73SLPC   H4R 6433   4.202   0.730   5.893  1.1041 -2.7892 -0.0462
   73SLPC   H4S 6434   4.071   0.770   5.776  2.0376  0.0553 -1.0224
   73SLPC   C25 6435   4.139   0.560   5.786 -0.0386  0.8673  0.6933
   73SLPC   H5R 6436   4.192   0.511   5.870  2.6000 -0.7239 -1.6928
   73SLPC   H5S 6437   4.214   0.581   5.706  0.2923 -1.7785  0.2086
   73SLPC   C26 6438   4.022   0.472   5.747 -0.2542  0.3935  0.4890
   73SLPC   H6R 6439   3.962   0.455   5.839  2.1017 -3.3778  1.5511
   73SLPC   H6S 6440   4.051   0.375   5.701 -2.1674  0.7720 -1.7313
   73SLPC   C27 6441   3.946   0.531   5.626  0.3266  0.3488 -0.7878
   73SLPC   H7R 6442   3.917   0.637   5.643  0.4006  0.2030  0.3224
   73SLPC   H7S 6443   3.853   0.470   5.624 -0.0461  0.8538  0.3038
   73SLPC   C28 6444   4.022   0.512   5.497  0.3844  0.2818  0.7021
   73SLPC   H8R 6445   3.980   0.413   5.468 -0.1014  0.3315  1.2180
   73SLPC   H8S 6446   4.132   0.499   5.505  0.1855 -0.9543  2.0500
   73SLPC   C29 6447   3.999   0.620   5.390  0.5751 -0.4630 -0.2588
   73SLPC   H9R 6448   4.006   0.725   5.420  2.4307 -0.7415  0.4229
   73SLPC  C210 6449   3.954   0.595   5.268 -1.3608  0.1162 -0.3314
   73SLPC  H10R 6450   3.943   0.677   5.195 -2.7755  0.6118  0.3990
   73SLPC  C211 6451   3.938   0.462   5.202  0.1945 -0.2642  0.2949
   73SLPC  H11R 6452   3.924   0.378   5.274  0.4998 -0.1109  0.5365
   73SLPC  H11S 6453   4.036   0.439   5.154  0.4950  2.0052 -0.2875
   73SLPC  C212 6454   3.832   0.457   5.095 -0.3242  0.6075 -0.0384
   73SLPC  H12R 6455   3.732   0.432   5.136 -0.4162  0.7964 -0.1479
   73SLPC  C213 6456   3.847   0.466   4.963  0.3682 -1.3272 -0.0930
   73SLPC  H13R 6457   3.764   0.449   4.892 -0.8303 -1.0952  1.2230
   73SLPC  C214 6458   3.973   0.489   4.885  0.0008  0.1828  0.4327
   73SLPC  H14R 6459   4.015   0.390   4.858 -1.0582  0.3475 -2.1105
   73SLPC  H14S 6460   4.052   0.530   4.952 -0.0035 -2.9871  2.5656
   73SLPC  C215 6461   3.957   0.594   4.774  0.5038 -0.0008  0.0285
   73SLPC  H15R 6462   3.930   0.684   4.832 -1.5960  2.4069 -4.1821
   73SLPC  H15S 6463   3.872   0.575   4.705 -0.2435 -1.1470  1.2246
   73SLPC  C216 6464   4.071   0.620   4.680  0.2472  0.0687  0.1123
   73SLPC  H16R 6465   4.161   0.655   4.735  0.2452  1.0769 -0.4940
   73SLPC  H16S 6466   4.032   0.704   4.618 -0.6373  0.2904  0.9507
   73SLPC  C217 6467   4.113   0.500   4.590  0.1516 -0.1746  0.3661
   73SLPC  H17R 6468   4.028   0.441   4.548  1.3561  0.1419 -2.7341
   73SLPC  H17S 6469   4.147   0.428   4.667  0.8414 -0.7944 -0.5018
   73SLPC  C218 6470   4.226   0.535   4.495  0.2751 -0.7152 -0.6147
   73SLPC  H18R 6471   4.179   0.596   4.415  1.3367  0.0072 -0.6985
   73SLPC  H18S 6472   4.273   0.443   4.454  0.6025  0.2655 -2.5687
   73SLPC  H18T 6473   4.301   0.595   4.550 -0.8427 -0.9559  1.2432
   73SLPC   C33 6474   4.567   0.773   5.903 -0.3136 -0.3710 -0.0578
   73SLPC   H3X 6475   4.619   0.870   5.916 -0.2829 -0.3719 -0.1703
   73SLPC   H3Y 6476   4.486   0.780   5.827 -1.6774 -0.9629  1.2795
   73SLPC   C34 6477   4.665   0.673   5.830 -0.1683 -0.2712  0.2497
   73SLPC   H4X 6478   4.643   0.567   5.857  0.9740 -0.0808  2.0372
   73SLPC   H4Y 6479   4.771   0.676   5.863  0.1588 -1.9761 -0.5200
   73SLPC   C35 6480   4.669   0.681   5.678 -0.2731  0.3191  0.1609
   73SLPC   H5X 6481   4.760   0.623   5.649 -0.8049 -0.5881  0.2815
   73SLPC   H5Y 6482   4.695   0.783   5.643  2.2681  0.4459  2.1621
   73SLPC   C36 6483   4.550   0.619   5.605  0.0034  0.6969 -0.2489
   73SLPC   H6X 6484   4.454   0.662   5.640 -0.5671 -0.2405 -0.6059
   73SLPC   H6Y 6485   4.542   0.513   5.638 -0.4091 -0.0369 -2.5031
   73SLPC   C37 6486   4.566   0.643   5.449  0.4578  0.4422 -0.7159
   73SLPC   H7X 6487   4.653   0.584   5.415  1.0077 -0.2893  1.7741
   73SLPC   H7Y 6488   4.582   0.752   5.439 -0.5046  0.7853  1.0811
   73SLPC   C38 6489   4.438   0.609   5.378 -0.2180  0.6307 -0.2806
   73SLPC   H8X 6490   4.360   0.675   5.422 -0.6377 -0.7261  1.0737
   73SLPC   H8Y 6491   4.407   0.504   5.397 -0.8209  0.9212  0.3762
   73SLPC   C39 6492   4.428   0.631   5.233  0.3235  0.1651  0.1687
   73SLPC   H9X 6493   4.476   0.729   5.213  0.5847  0.5506  2.3711
   73SLPC   H9Y 6494   4.321   0.636   5.203  0.3061 -2.3763 -0.4325
   73SLPC  C310 6495   4.488   0.528   5.150  0.0713  0.5876  0.2879
   73SLPC  H10X 6496   4.429   0.437   5.175 -0.7561  1.0841  0.1806
   73SLPC  H10Y 6497   4.590   0.496   5.179  0.0163 -0.8187 -0.9936
   73SLPC  C311 6498   4.494   0.566   4.998  0.1486 -0.2624  0.1619
   73SLPC  H11X 6499   4.561   0.655   5.001  1.5423 -1.2609 -0.2782
   73SLPC  H11Y 6500   4.387   0.590   4.980  0.0626  1.4207  2.5173
   73SLPC  C312 6501   4.541   0.454   4.911  0.5221  0.3782  1.0406
   73SLPC  H12X 6502   4.461   0.391   4.868  0.5556  1.5946 -0.9332
   73SLPC  H12Y 6503   4.605   0.388   4.974 -0.3000  0.3261  1.8442
   73SLPC  C313 6504   4.618   0.498   4.785 -0.8957  0.5238  0.3029
   73SLPC  H13X 6505   4.706   0.556   4.820  0.7733 -1.5462 -0.2359
   73SLPC  H13Y 6506   4.563   0.566   4.717  0.5096 -0.2222 -1.7055
   73SLPC  C314 6507   4.674   0.385   4.703 -0.1679  0.0192  0.0036
   73SLPC  H14X 6508   4.607   0.341   4.626  0.8596  0.3998 -1.1413
   73SLPC  H14Y 6509   4.693   0.296   4.768  0.3359 -0.1080 -0.3097
   73SLPC  C315 6510   4.797   0.413   4.614 -0.0365  0.1916 -0.9202
   73SLPC  H15X 6511   4.882   0.411   4.685 -0.3301 -0.6427 -0.5900
   73SLPC  H15Y 6512   4.779   0.515   4.573 -1.2230  0.5707  0.4521
   73SLPC  C316 6513   4.820   0.311   4.510  0.3275 -0.6307  0.5499
   73SLPC  H16X 6514   4.739   0.298   4.434  0.2785 -0.8537  0.6378
   73SLPC  H16Y 6515   4.833   0.207   4.548  0.4155 -0.9356 -0.2764
   73SLPC  C317 6516   4.952   0.331   4.431  0.4541  0.2249 -0.5474
   73SLPC  H17X 6517   4.960   0.433   4.387  0.9391 -0.0721 -1.1579
   73SLPC  H17Y 6518   4.950   0.266   4.342  2.6710  0.2307 -0.6605
   73SLPC  C318 6519   5.080   0.309   4.505  0.7703 -0.4632 -0.5041
   73SLPC  H18X 6520   5.062   0.218   4.566 -3.5930  0.1822 -0.5352
   73SLPC  H18Y 6521   5.086   0.393   4.577 -2.3847 -1.0884  0.6540
   73SLPC  H18Z 6522   5.161   0.303   4.429 -0.0421  1.2519 -1.5594
   74SLPC     N 6523   2.246   6.467   6.939  0.1914 -0.4180 -0.2107
   74SLPC   C13 6524   2.184   6.536   6.821  0.8987 -0.1133 -0.4262
   74SLPC  H13A 6525   2.076   6.546   6.825  0.6797 -2.2438  0.8604
   74SLPC  H13B 6526   2.221   6.633   6.793  1.5700 -0.1811  0.2003
   74SLPC  H13C 6527   2.175   6.478   6.730  1.8935 -2.0916  0.6676
   74SLPC   C14 6528   2.229   6.559   7.056  0.2311  0.3184  0.2642
   74SLPC  H14A 6529   2.224   6.509   7.152  1.6131 -0.8716 -0.2465
   74SLPC  H14B 6530   2.301   6.639   7.057 -0.8136  1.2969  0.7723
   74SLPC  H14C 6531   2.137   6.613   7.037 -0.9057 -0.8215  2.1974
   74SLPC   C15 6532   2.393   6.445   6.903  0.8895 -0.1170 -0.8952
   74SLPC  H15A 6533   2.446   6.426   6.995  1.4631  0.4614 -1.0937
   74SLPC  H15B 6534   2.405   6.353   6.848  4.5374 -1.7814  2.1987
   74SLPC  H15C 6535   2.437   6.534   6.860  0.6775 -0.5300 -2.0110
   74SLPC   C12 6536   2.181   6.331   6.979 -0.0756 -0.6292  0.4050
   74SLPC  H12A 6537   2.091   6.349   7.035  0.9907  0.2429  1.9043
   74SLPC  H12B 6538   2.255   6.273   7.034  0.1961 -0.8796 -0.2079
   74SLPC   C11 6539   2.162   6.238   6.855  0.2328  0.0068  0.5771
   74SLPC  H11A 6540   2.098   6.282   6.774  1.0157 -1.7093 -1.0416
   74SLPC  H11B 6541   2.123   6.140   6.889 -0.6649 -0.2639 -1.0848
   74SLPC     P 6542   2.324   6.093   6.700  0.3174 -0.2932 -0.3659
   74SLPC   O13 6543   2.457   6.040   6.736 -0.5346 -0.0460 -0.2091
   74SLPC   O14 6544   2.217   5.995   6.703 -0.1457 -0.3401 -0.2235
   74SLPC   O12 6545   2.289   6.214   6.792 -0.7526 -0.1268  0.0279
   74SLPC   O11 6546   2.331   6.161   6.558 -0.1521 -0.0521  0.4484
   74SLPC    C1 6547   2.433   6.261   6.538  0.2860  0.1806  0.3379
   74SLPC    HA 6548   2.402   6.362   6.573  1.2955  1.3248 -1.8814
   74SLPC    HB 6549   2.534   6.226   6.570 -0.0550 -0.8787  0.2776
   74SLPC    C2 6550   2.455   6.283   6.385 -0.5122  0.1596 -0.3791
   74SLPC    HS 6551   2.355   6.310   6.343 -1.5707 -0.7278  1.4554
   74SLPC   O21 6552   2.514   6.161   6.325  0.7520  0.0744 -0.4345
   74SLPC   C21 6553   2.434   6.063   6.294  0.2989  0.2532  0.0316
   74SLPC   O22 6554   2.312   6.066   6.295  0.2594  0.6329 -0.0171
   74SLPC   C22 6555   2.514   5.941   6.259  0.3224  0.6966  0.3151
   74SLPC   H2R 6556   2.560   5.901   6.353  1.9279  0.8350 -0.3753
   74SLPC   H2S 6557   2.448   5.853   6.243  1.8863 -0.9317  2.2680
   74SLPC    C3 6558   2.556   6.396   6.361  0.5632 -0.6573  0.7435
   74SLPC    HX 6559   2.654   6.371   6.407  0.4578 -0.6556  0.9690
   74SLPC    HY 6560   2.513   6.486   6.411  0.2078 -0.7229  0.5613
   74SLPC   O31 6561   2.577   6.419   6.221 -0.8290 -0.4777  0.1836
   74SLPC   C31 6562   2.528   6.523   6.165  0.0998 -1.0600  0.4783
   74SLPC   O32 6563   2.463   6.613   6.215  0.4764  0.2188  0.2738
   74SLPC   C32 6564   2.560   6.525   6.015 -0.5218 -0.4557  0.7552
   74SLPC   H2X 6565   2.504   6.437   5.977 -0.4340 -0.2176  0.0590
   74SLPC   H2Y 6566   2.671   6.517   6.010 -0.5976 -1.2435  0.1387
   74SLPC   C23 6567   2.626   5.959   6.153  0.2489  0.4757  0.1266
   74SLPC   H3R 6568   2.705   5.882   6.166 -0.4380  0.2122  4.2281
   74SLPC   H3S 6569   2.677   6.057   6.165 -1.9091  1.5640  0.9518
   74SLPC   C24 6570   2.571   5.967   6.006 -0.0179 -0.2180  0.1050
   74SLPC   H4R 6571   2.478   5.907   6.008 -0.8409  1.0221 -0.5011
   74SLPC   H4S 6572   2.639   5.905   5.944 -0.5451 -0.9125  0.2086
   74SLPC   C25 6573   2.566   6.112   5.945 -0.1963  0.7261  0.3042
   74SLPC   H5R 6574   2.673   6.144   5.950 -0.6245  2.5701 -1.1069
   74SLPC   H5S 6575   2.507   6.187   6.003  0.3087  0.6789  0.8876
   74SLPC   C26 6576   2.526   6.114   5.798  0.5776 -0.3298 -0.5872
   74SLPC   H6R 6577   2.415   6.117   5.795  0.3225  3.5156  3.0774
   74SLPC   H6S 6578   2.569   6.025   5.747  3.9913 -0.1607  1.6823
   74SLPC   C27 6579   2.583   6.240   5.726 -0.2654  0.0602 -0.0907
   74SLPC   H7R 6580   2.693   6.227   5.734  0.0540  2.7420  1.1823
   74SLPC   H7S 6581   2.544   6.319   5.794 -0.3021 -0.6877  0.7688
   74SLPC   C28 6582   2.537   6.273   5.579 -0.3494  0.9926 -0.1787
   74SLPC   H8R 6583   2.563   6.379   5.562 -0.6595  1.1302  0.1885
   74SLPC   H8S 6584   2.426   6.268   5.575 -0.4196  1.2263  0.9919
   74SLPC   C29 6585   2.609   6.189   5.471  0.2363  0.0885  0.5317
   74SLPC   H9R 6586   2.694   6.129   5.509 -0.4496 -1.9152 -0.9096
   74SLPC  C210 6587   2.575   6.203   5.340  0.1578  0.2229  0.1797
   74SLPC  H10R 6588   2.627   6.133   5.273  1.4129  1.2194  0.0790
   74SLPC  C211 6589   2.459   6.289   5.293  0.3160  0.1692 -0.1413
   74SLPC  H11R 6590   2.430   6.354   5.378  2.1154 -2.8157  3.0439
   74SLPC  H11S 6591   2.378   6.216   5.269  0.0547  0.7422 -1.0141
   74SLPC  C212 6592   2.494   6.368   5.172 -0.1153 -0.2745  0.0071
   74SLPC  H12R 6593   2.531   6.469   5.196 -2.6190  1.2080 -1.8799
   74SLPC  C213 6594   2.490   6.325   5.045  0.5954  0.4640  1.0345
   74SLPC  H13R 6595   2.528   6.384   4.960  0.8364 -0.0993  0.7447
   74SLPC  C214 6596   2.459   6.183   4.994 -0.4714 -0.1817  1.0195
   74SLPC  H14R 6597   2.397   6.186   4.903 -1.5466 -1.9983  1.6276
   74SLPC  H14S 6598   2.405   6.121   5.070 -0.4528 -1.3655  0.1023
   74SLPC  C215 6599   2.582   6.097   4.933  0.2280 -0.4727 -1.1897
   74SLPC  H15R 6600   2.553   5.990   4.927 -2.5253  0.1497 -0.7506
   74SLPC  H15S 6601   2.666   6.103   5.005  0.6959 -1.9138 -1.5918
   74SLPC  C216 6602   2.620   6.134   4.793 -0.0005  0.4693  0.5757
   74SLPC  H16R 6603   2.682   6.226   4.794  0.6020  0.0749  1.6309
   74SLPC  H16S 6604   2.532   6.140   4.726  1.5657  0.3764 -1.5921
   74SLPC  C217 6605   2.711   6.029   4.726 -0.7147  0.8675  0.1825
   74SLPC  H17R 6606   2.644   5.941   4.716  1.0279 -0.3109 -2.4426
   74SLPC  H17S 6607   2.795   5.993   4.788 -0.9136 -1.9435 -1.0405
   74SLPC  C218 6608   2.764   6.074   4.588  0.4675 -0.5063  0.4391
   74SLPC  H18R 6609   2.828   6.164   4.596  2.2257 -1.5348 -1.0633
   74SLPC  H18S 6610   2.680   6.081   4.516  1.6845 -2.3173 -1.2717
   74SLPC  H18T 6611   2.831   5.994   4.550 -1.1081 -1.8169  0.3054
   74SLPC   C33 6612   2.505   6.652   5.938 -0.3349 -0.4856  0.5066
   74SLPC   H3X 6613   2.542   6.741   5.993  0.1387 -1.8253  2.4813
   74SLPC   H3Y 6614   2.396   6.670   5.952 -0.2827 -0.2722  0.6369
   74SLPC   C34 6615   2.526   6.648   5.783  0.5855  0.0485 -0.2730
   74SLPC   H4X 6616   2.511   6.540   5.761 -2.7650  0.4716 -0.5728
   74SLPC   H4Y 6617   2.634   6.665   5.761  0.5000 -0.5807 -1.2533
   74SLPC   C35 6618   2.422   6.721   5.694 -0.1064  0.4346  0.1331
   74SLPC   H5X 6619   2.433   6.829   5.713  0.9556  0.6019 -1.2754
   74SLPC   H5Y 6620   2.325   6.676   5.725 -0.4304  0.8038 -0.3366
   74SLPC   C36 6621   2.459   6.680   5.552  0.5840 -0.4616  0.2241
   74SLPC   H6X 6622   2.449   6.570   5.543  1.9623 -1.0787  4.2785
   74SLPC   H6Y 6623   2.570   6.693   5.545  0.5537 -0.6768 -0.7627
   74SLPC   C37 6624   2.374   6.767   5.451 -0.0690 -0.4132 -0.1156
   74SLPC   H7X 6625   2.402   6.873   5.469 -0.0238  0.1350 -2.8830
   74SLPC   H7Y 6626   2.268   6.753   5.482 -0.1071 -0.9054 -0.4531
   74SLPC   C38 6627   2.389   6.733   5.302  0.4197  0.3325 -0.5102
   74SLPC   H8X 6628   2.366   6.626   5.279  1.1096 -0.0180  0.3936
   74SLPC   H8Y 6629   2.498   6.750   5.284  0.2766 -1.1379 -3.3574
   74SLPC   C39 6630   2.311   6.830   5.202 -0.4079  1.1784  0.4113
   74SLPC   H9X 6631   2.347   6.935   5.212 -0.6329  1.1075  2.4721
   74SLPC   H9Y 6632   2.201   6.829   5.211 -0.4594  1.1112 -0.1997
   74SLPC  C310 6633   2.334   6.789   5.055 -0.5198 -0.2947 -1.0395
   74SLPC  H10X 6634   2.435   6.745   5.057  0.3175  1.5570  0.7685
   74SLPC  H10Y 6635   2.336   6.881   4.992  3.1305  0.1890 -0.4001
   74SLPC  C311 6636   2.231   6.685   5.002 -0.4312  0.6885 -0.4274
   74SLPC  H11X 6637   2.137   6.721   5.049 -0.1173  0.1129  0.6710
   74SLPC  H11Y 6638   2.259   6.584   5.037  1.4297  1.3924  0.2770
   74SLPC  C312 6639   2.205   6.691   4.849 -0.0662 -0.3311 -0.0235
   74SLPC  H12X 6640   2.305   6.677   4.804  0.0371  0.9547 -0.2370
   74SLPC  H12Y 6641   2.169   6.793   4.821  1.5817 -0.0801 -1.4224
   74SLPC  C313 6642   2.108   6.585   4.800  0.3018  1.0886 -0.0442
   74SLPC  H13X 6643   2.107   6.583   4.689  0.3371 -0.0866 -0.0341
   74SLPC  H13Y 6644   2.009   6.611   4.842 -0.3859 -1.0337 -0.2095
   74SLPC  C314 6645   2.151   6.445   4.834 -0.0168  0.1968  0.4098
   74SLPC  H14X 6646   2.132   6.414   4.939 -0.3148  1.0690  0.6223
   74SLPC  H14Y 6647   2.261   6.447   4.817  0.2582  1.7018  2.0300
   74SLPC  C315 6648   2.071   6.344   4.746 -1.1619 -0.1847  0.5616
   74SLPC  H15X 6649   2.071   6.378   4.640  2.2025 -1.6263 -0.0492
   74SLPC  H15Y 6650   1.965   6.327   4.775 -1.3141  1.6739  1.2127
   74SLPC  C316 6651   2.142   6.212   4.742  0.4148 -0.2713 -0.0979
   74SLPC  H16X 6652   2.160   6.169   4.843  0.0271  2.0219  1.0213
   74SLPC  H16Y 6653   2.244   6.227   4.702  1.1692  0.4680  1.9721
   74SLPC  C317 6654   2.079   6.106   4.650 -0.2955  0.6439 -0.1593
   74SLPC  H17X 6655   2.087   6.125   4.541 -1.2310  3.7725  0.2258
   74SLPC  H17Y 6656   1.970   6.087   4.665 -0.1742  1.3548  1.7758
   74SLPC  C318 6657   2.147   5.970   4.683  0.6774 -0.1747  0.0995
   74SLPC  H18X 6658   2.103   5.922   4.773 -0.5299  0.5106 -0.1164
   74SLPC  H18Y 6659   2.255   5.965   4.709  0.2666 -0.7307  1.8631
   74SLPC  H18Z 6660   2.142   5.908   4.591  0.0843 -2.2315  1.4470
   75SLPC     N 6661   6.598   2.925   7.264  0.1920  0.7975 -0.2925
   75SLPC   C13 6662   6.733   2.933   7.197 -0.0013  0.7592  0.5078
   75SLPC  H13A 6663   6.741   2.878   7.105 -2.4690  0.1536  0.6008
   75SLPC  H13B 6664   6.752   3.039   7.184 -1.4387  1.0770  0.8402
   75SLPC  H13C 6665   6.806   2.895   7.267 -0.7787  1.5505  1.7955
   75SLPC   C14 6666   6.615   2.978   7.401  0.0100 -0.6846  0.4376
   75SLPC  H14A 6667   6.650   3.080   7.404 -1.0795 -0.2842  0.1092
   75SLPC  H14B 6668   6.520   2.971   7.453 -1.2603 -0.7418 -1.7481
   75SLPC  H14C 6669   6.684   2.915   7.455 -0.4226 -3.6122 -2.0891
   75SLPC   C15 6670   6.570   2.778   7.283 -0.2003 -0.0684  0.1076
   75SLPC  H15A 6671   6.574   2.723   7.191  1.1318 -0.8728  0.6173
   75SLPC  H15B 6672   6.632   2.734   7.359  1.9890  1.8912 -0.4314
   75SLPC  H15C 6673   6.465   2.772   7.311 -0.8700 -3.1337 -2.4403
   75SLPC   C12 6674   6.493   2.994   7.188  0.5760  0.3767  0.1098
   75SLPC  H12A 6675   6.513   3.100   7.180 -3.5118  1.1768 -1.7524
   75SLPC  H12B 6676   6.406   2.980   7.251  1.2438  0.4752  1.0843
   75SLPC   C11 6677   6.448   2.942   7.050 -0.5277  0.3576  0.2461
   75SLPC  H11A 6678   6.549   2.934   7.004  0.1072  0.6937  1.5319
   75SLPC  H11B 6679   6.390   3.014   6.988  0.6919 -0.6061 -2.1862
   75SLPC     P 6680   6.233   2.815   7.111 -0.0997 -0.0937  0.2981
   75SLPC   O13 6681   6.183   2.677   7.125 -0.7200 -0.3581  0.4480
   75SLPC   O14 6682   6.216   2.907   7.226  0.2625  0.3012  0.1816
   75SLPC   O12 6683   6.389   2.816   7.063 -0.1695  0.0257  0.1556
   75SLPC   O11 6684   6.164   2.878   6.980 -1.3548 -0.6582  0.5045
   75SLPC    C1 6685   6.161   2.803   6.858  0.0294  0.8104  0.2655
   75SLPC    HA 6686   6.265   2.778   6.829  0.1411  1.5314  0.0142
   75SLPC    HB 6687   6.102   2.710   6.868 -1.7944  1.9994  1.1484
   75SLPC    C2 6688   6.087   2.891   6.750 -0.2589  0.8703 -1.0016
   75SLPC    HS 6689   5.981   2.887   6.785  0.2544  1.9014  0.7478
   75SLPC   O21 6690   6.106   2.833   6.624  0.3550 -0.3293 -0.3576
   75SLPC   C21 6691   6.051   2.723   6.600  0.1154  0.1997  0.3764
   75SLPC   O22 6692   5.983   2.651   6.675  0.5662 -0.0302 -0.0084
   75SLPC   C22 6693   6.089   2.682   6.459 -0.1649  0.3489  0.5175
   75SLPC   H2R 6694   6.165   2.600   6.457 -0.0859  0.4265  0.1802
   75SLPC   H2S 6695   5.992   2.656   6.413 -0.2833  1.1054  0.3219
   75SLPC    C3 6696   6.134   3.033   6.764  0.1313 -0.5426  0.5076
   75SLPC    HX 6697   6.243   3.053   6.756  0.2540 -1.0419  0.9130
   75SLPC    HY 6698   6.112   3.072   6.866 -2.0457 -0.6291  0.1268
   75SLPC   O31 6699   6.064   3.122   6.675 -0.5333 -0.5853 -0.0298
   75SLPC   C31 6700   6.118   3.144   6.556  0.2576 -0.3651  0.1127
   75SLPC   O32 6701   6.228   3.115   6.518  0.2167 -0.2365 -0.5867
   75SLPC   C32 6702   6.009   3.204   6.468 -0.2578 -0.3975  0.4677
   75SLPC   H2X 6703   5.977   3.299   6.515  0.1197 -0.2319  0.3905
   75SLPC   H2Y 6704   5.930   3.126   6.462  1.7166 -2.5382  1.0701
   75SLPC   C23 6705   6.129   2.805   6.367 -0.3345  0.1063 -0.2057
   75SLPC   H3R 6706   6.225   2.843   6.406  0.0651  1.2888 -2.1842
   75SLPC   H3S 6707   6.058   2.891   6.372 -2.7397 -1.8618  2.1895
   75SLPC   C24 6708   6.143   2.758   6.221 -0.1685  0.6486 -0.2729
   75SLPC   H4R 6709   6.039   2.744   6.184 -0.1650 -0.0795 -0.0132
   75SLPC   H4S 6710   6.191   2.661   6.199  0.7836  0.6846  1.4772
   75SLPC   C25 6711   6.217   2.853   6.127 -0.7413 -0.8811 -0.5166
   75SLPC   H5R 6712   6.327   2.862   6.143 -0.7352  0.1960 -1.0737
   75SLPC   H5S 6713   6.170   2.954   6.132  1.9435  0.5128 -1.5046
   75SLPC   C26 6714   6.200   2.812   5.982 -0.2188  0.5033 -0.3557
   75SLPC   H6R 6715   6.237   2.885   5.907  1.2601  0.9587  0.7652
   75SLPC   H6S 6716   6.090   2.797   5.977 -0.5218  1.2112  2.4814
   75SLPC   C27 6717   6.295   2.691   5.949 -0.3930  0.7734  1.0007
   75SLPC   H7R 6718   6.249   2.600   5.992 -0.7631  0.0440 -0.8553
   75SLPC   H7S 6719   6.398   2.700   5.990 -0.6637  1.4907  1.5426
   75SLPC   C28 6720   6.301   2.674   5.793  0.2782  0.4842  0.3117
   75SLPC   H8R 6721   6.365   2.759   5.762 -1.3574  1.5968 -0.1454
   75SLPC   H8S 6722   6.205   2.705   5.746  0.1264 -0.7924 -0.2488
   75SLPC   C29 6723   6.354   2.537   5.756  1.0328  0.2924 -0.2471
   75SLPC   H9R 6724   6.373   2.472   5.842 -2.5758 -0.1442  0.3671
   75SLPC  C210 6725   6.382   2.486   5.635 -0.8245 -0.2231 -0.3582
   75SLPC  H10R 6726   6.424   2.384   5.628  0.2736  0.0672  1.4382
   75SLPC  C211 6727   6.339   2.545   5.500 -0.4443  0.1793  0.0586
   75SLPC  H11R 6728   6.235   2.584   5.495 -0.7172 -0.5954 -0.5096
   75SLPC  H11S 6729   6.340   2.454   5.437  3.6207 -0.2906  0.5313
   75SLPC  C212 6730   6.437   2.650   5.448 -0.3640  0.7677 -0.6743
   75SLPC  H12R 6731   6.510   2.687   5.522 -1.9050  1.1383  0.7137
   75SLPC  C213 6732   6.445   2.685   5.322  0.2333  0.2572  0.8489
   75SLPC  H13R 6733   6.526   2.750   5.286 -1.2662  1.3173 -0.7567
   75SLPC  C214 6734   6.350   2.645   5.208  0.3505 -0.1980 -0.4362
   75SLPC  H14R 6735   6.300   2.734   5.165  1.1880  0.9509  0.9014
   75SLPC  H14S 6736   6.273   2.573   5.243  1.2354 -0.4906  0.9956
   75SLPC  C215 6737   6.423   2.558   5.099 -0.1408  0.0089  0.1040
   75SLPC  H15R 6738   6.455   2.459   5.136 -1.8461 -1.6996 -2.6337
   75SLPC  H15S 6739   6.519   2.607   5.071 -0.7061  1.3041  0.3316
   75SLPC  C216 6740   6.354   2.547   4.971  0.3684 -0.1685 -0.2138
   75SLPC  H16R 6741   6.319   2.642   4.925 -0.7305 -0.4258  0.0591
   75SLPC  H16S 6742   6.253   2.503   4.984  0.1287  0.2695 -0.5536
   75SLPC  C217 6743   6.435   2.466   4.866 -0.1126 -0.5809 -0.5852
   75SLPC  H17R 6744   6.430   2.356   4.876 -1.7128 -0.5202 -0.3755
   75SLPC  H17S 6745   6.539   2.497   4.889  0.8479 -3.5885 -0.4161
   75SLPC  C218 6746   6.397   2.500   4.722 -0.4235  0.3247 -0.1299
   75SLPC  H18R 6747   6.466   2.447   4.653 -1.6061 -0.9830 -0.3492
   75SLPC  H18S 6748   6.380   2.608   4.703  1.8191  0.6104 -0.7596
   75SLPC  H18T 6749   6.295   2.457   4.718 -0.2935  0.0774 -0.9373
   75SLPC   C33 6750   6.056   3.225   6.320 -0.0667  0.6450  0.4964
   75SLPC   H3X 6751   5.974   3.212   6.246 -0.4798 -0.4454  1.1141
   75SLPC   H3Y 6752   6.132   3.156   6.279 -0.6443  0.2372  0.0834
   75SLPC   C34 6753   6.113   3.362   6.300  0.2100 -0.7721 -0.1095
   75SLPC   H4X 6754   6.211   3.359   6.353  0.0048 -0.0555  0.3266
   75SLPC   H4Y 6755   6.056   3.441   6.354  2.4977  2.3235 -1.9283
   75SLPC   C35 6756   6.115   3.411   6.155  0.4190 -0.5129 -0.1441
   75SLPC   H5X 6757   6.012   3.408   6.114  0.6714 -1.8081 -0.7225
   75SLPC   H5Y 6758   6.175   3.341   6.094 -0.4575 -1.8574  0.4884
   75SLPC   C36 6759   6.170   3.548   6.129  0.2821  0.7929  0.0600
   75SLPC   H6X 6760   6.261   3.563   6.191 -1.1203 -0.2498  2.4659
   75SLPC   H6Y 6761   6.097   3.627   6.156  0.0025  0.0830  1.4855
   75SLPC   C37 6762   6.207   3.580   5.985 -0.3829  0.7489 -0.3255
   75SLPC   H7X 6763   6.296   3.516   5.962 -1.0870  0.3122 -1.9464
   75SLPC   H7Y 6764   6.254   3.680   5.996  2.2711 -0.2079 -1.8770
   75SLPC   C38 6765   6.099   3.569   5.875  0.1875  0.2668 -0.4606
   75SLPC   H8X 6766   6.002   3.616   5.903 -0.8806 -2.2830  0.4248
   75SLPC   H8Y 6767   6.060   3.466   5.858 -3.4858  1.6049 -1.2054
   75SLPC   C39 6768   6.168   3.632   5.755 -0.0834  0.1772  0.1704
   75SLPC   H9X 6769   6.269   3.586   5.754 -0.0256  0.2963 -0.4577
   75SLPC   H9Y 6770   6.203   3.736   5.769  0.1668  0.1184 -0.0107
   75SLPC  C310 6771   6.094   3.618   5.617 -0.6259 -0.6483 -0.1300
   75SLPC  H10X 6772   5.996   3.670   5.624  0.7969  2.2336 -0.1790
   75SLPC  H10Y 6773   6.083   3.508   5.609  2.0210 -0.9502 -0.2889
   75SLPC  C311 6774   6.168   3.675   5.493  0.3610  0.3500 -0.0050
   75SLPC  H11X 6775   6.265   3.622   5.502 -0.6255 -1.2626  1.8219
   75SLPC  H11Y 6776   6.194   3.782   5.508  2.6838  0.0781 -1.5505
   75SLPC  C312 6777   6.097   3.641   5.359  0.2926  0.0274 -0.0164
   75SLPC  H12X 6778   6.166   3.675   5.279 -1.0740  4.3549  0.3593
   75SLPC  H12Y 6779   6.007   3.707   5.357 -0.4486 -0.8613  1.8988
   75SLPC  C313 6780   6.047   3.496   5.334  0.4658  0.1712 -0.4928
   75SLPC  H13X 6781   5.968   3.456   5.400  1.0302  2.7592  1.9144
   75SLPC  H13Y 6782   6.134   3.429   5.355  1.9600  2.2051  0.1104
   75SLPC  C314 6783   5.999   3.462   5.188  0.5493  0.2247 -0.0802
   75SLPC  H14X 6784   5.987   3.352   5.188  2.1181 -0.0284  2.1688
   75SLPC  H14Y 6785   6.079   3.473   5.112  0.3624 -0.3769 -0.3671
   75SLPC  C315 6786   5.871   3.539   5.149 -0.9552  0.1249 -0.1635
   75SLPC  H15X 6787   5.877   3.650   5.151 -1.4801  0.2733 -3.0934
   75SLPC  H15Y 6788   5.787   3.515   5.217  0.9101 -1.9634  1.6025
   75SLPC  C316 6789   5.831   3.496   5.010 -0.0395 -0.3388  0.1270
   75SLPC  H16X 6790   5.900   3.535   4.931  0.4335 -2.3365 -0.5032
   75SLPC  H16Y 6791   5.736   3.549   4.989  0.6015  0.6495 -0.4138
   75SLPC  C317 6792   5.815   3.351   4.980 -0.0409 -0.2109 -0.7079
   75SLPC  H17X 6793   5.760   3.292   5.057  2.5917  0.2757  1.7473
   75SLPC  H17Y 6794   5.915   3.302   4.981  0.2925  0.4625  0.4471
   75SLPC  C318 6795   5.749   3.330   4.843 -0.0029  0.2118 -0.5809
   75SLPC  H18X 6796   5.650   3.378   4.854 -1.1888 -2.1029 -0.4184
   75SLPC  H18Y 6797   5.744   3.220   4.824  1.9131  0.0307 -0.2820
   75SLPC  H18Z 6798   5.805   3.381   4.762  1.5540 -1.6182 -0.7197
   76SLPC     N 6799   0.438   1.944   6.828 -0.0723 -0.3891  0.1326
   76SLPC   C13 6800   0.316   1.915   6.737  0.4941  0.1787  0.3299
   76SLPC  H13A 6801   0.226   1.956   6.780 -0.0649 -0.8782  0.1940
   76SLPC  H13B 6802   0.333   1.965   6.643  0.0556 -0.6345 -0.1978
   76SLPC  H13C 6803   0.291   1.811   6.718 -0.5410  0.5387 -0.3385
   76SLPC   C14 6804   0.412   1.892   6.963 -0.0478 -0.4765  0.1981
   76SLPC  H14A 6805   0.496   1.909   7.028  0.9556 -2.8368 -0.3948
   76SLPC  H14B 6806   0.318   1.933   6.999  0.4956  2.6327 -1.5419
   76SLPC  H14C 6807   0.393   1.787   6.951 -1.4273 -0.3883  1.2218
   76SLPC   C15 6808   0.443   2.101   6.837  0.2940  0.1216  0.3036
   76SLPC  H15A 6809   0.364   2.145   6.896 -0.2054  1.5725 -1.3641
   76SLPC  H15B 6810   0.537   2.122   6.885  0.1914 -2.2302  1.6742
   76SLPC  H15C 6811   0.430   2.144   6.739 -1.8167  1.7659  1.2051
   76SLPC   C12 6812   0.566   1.882   6.773  0.2032 -1.1163 -0.6052
   76SLPC  H12A 6813   0.568   1.776   6.790  0.3936 -0.7258  2.1577
   76SLPC  H12B 6814   0.643   1.928   6.833  0.0379 -0.1765 -1.0809
   76SLPC   C11 6815   0.604   1.899   6.624 -0.0133 -0.4919 -0.0239
   76SLPC  H11A 6816   0.515   1.883   6.559 -0.8874  0.4918  0.8863
   76SLPC  H11B 6817   0.664   1.809   6.599 -1.6870 -1.6086 -0.2544
   76SLPC     P 6818   0.815   2.045   6.646  0.0560 -0.2416  0.0573
   76SLPC   O13 6819   0.830   2.188   6.691 -0.5219  0.0048  0.1672
   76SLPC   O14 6820   0.847   1.936   6.742 -0.4144  0.0787 -0.5681
   76SLPC   O12 6821   0.666   2.024   6.601  0.3587 -0.4530 -0.0289
   76SLPC   O11 6822   0.896   2.020   6.512  0.4205  0.2582  0.0242
   76SLPC    C1 6823   0.837   2.000   6.382  0.1184 -0.1789  0.9933
   76SLPC    HA 6824   0.743   2.056   6.368 -0.4913 -1.2643  0.6217
   76SLPC    HB 6825   0.896   2.052   6.304 -0.9306 -1.3051 -0.6125
   76SLPC    C2 6826   0.818   1.859   6.328  0.2324  0.0111 -0.1179
   76SLPC    HS 6827   0.730   1.822   6.385  1.1490 -1.8816  0.1714
   76SLPC   O21 6828   0.931   1.775   6.355  0.6877 -0.3855  0.4399
   76SLPC   C21 6829   0.901   1.643   6.378  0.4737 -0.0335  0.7639
   76SLPC   O22 6830   0.797   1.590   6.347  0.2848 -0.3848 -0.6072
   76SLPC   C22 6831   1.012   1.584   6.449  0.1693 -0.6055 -0.2148
   76SLPC   H2R 6832   1.098   1.650   6.476  1.1433 -1.8631 -0.1478
   76SLPC   H2S 6833   0.973   1.550   6.547  1.6075  1.4611  1.1662
   76SLPC    C3 6834   0.777   1.851   6.185  0.0255  0.0113  0.0484
   76SLPC    HX 6835   0.715   1.758   6.181 -0.6341  0.4742 -0.7466
   76SLPC    HY 6836   0.869   1.839   6.124 -0.0948 -1.8956  0.1758
   76SLPC   O31 6837   0.707   1.971   6.129 -0.9649  0.0193 -0.6910
   76SLPC   C31 6838   0.575   1.955   6.108 -0.4907  0.5661 -0.1693
   76SLPC   O32 6839   0.502   1.866   6.152  0.4722 -0.0918  0.0071
   76SLPC   C32 6840   0.521   2.053   6.007  0.7051 -0.3474  0.1916
   76SLPC   H2X 6841   0.584   2.031   5.918  1.3584 -0.1511  0.5989
   76SLPC   H2Y 6842   0.547   2.154   6.044  0.6629  0.5288 -1.9989
   76SLPC   C23 6843   1.060   1.460   6.375  0.7920  0.1481 -0.5068
   76SLPC   H3R 6844   0.969   1.397   6.357  0.0330  0.2727  2.4411
   76SLPC   H3S 6845   1.118   1.400   6.449 -0.9840 -2.9728 -1.4131
   76SLPC   C24 6846   1.143   1.485   6.249  0.0508 -0.3905  0.6393
   76SLPC   H4R 6847   1.201   1.394   6.221  1.3991  1.2144 -2.2343
   76SLPC   H4S 6848   1.210   1.571   6.270 -1.4492  0.5929  1.5690
   76SLPC   C25 6849   1.072   1.521   6.122 -0.6031 -0.8873  0.4312
   76SLPC   H5R 6850   1.153   1.534   6.047 -0.3215 -1.0074  0.7131
   76SLPC   H5S 6851   1.020   1.619   6.120  1.4642  0.2863 -1.7599
   76SLPC   C26 6852   0.966   1.413   6.074  0.1378 -0.1099 -0.2396
   76SLPC   H6R 6853   0.878   1.416   6.142  1.7247  1.1552  1.9165
   76SLPC   H6S 6854   1.012   1.314   6.092  0.3559  0.4931  3.2241
   76SLPC   C27 6855   0.916   1.430   5.931 -0.9447 -0.4645  0.1262
   76SLPC   H7R 6856   0.870   1.528   5.906 -0.5428 -1.1080 -3.6263
   76SLPC   H7S 6857   0.830   1.362   5.915 -1.6024  0.0090  1.4291
   76SLPC   C28 6858   1.026   1.396   5.837 -0.4833 -0.6634  0.4050
   76SLPC   H8R 6859   1.056   1.291   5.860  0.5888 -0.1006  1.6833
   76SLPC   H8S 6860   1.115   1.462   5.846 -0.2281 -0.6267 -1.8594
   76SLPC   C29 6861   0.983   1.410   5.690  0.6385 -1.2147  0.1168
   76SLPC   H9R 6862   0.881   1.445   5.668  0.4527 -1.2254  0.9221
   76SLPC  C210 6863   1.043   1.352   5.595  0.2120 -0.4498  0.2843
   76SLPC  H10R 6864   1.011   1.372   5.491  0.5674  0.7904  0.3964
   76SLPC  C211 6865   1.164   1.265   5.605  0.4243  0.3609  0.4297
   76SLPC  H11R 6866   1.222   1.308   5.690  1.0731 -1.6892  1.0811
   76SLPC  H11S 6867   1.236   1.268   5.521  3.3034 -2.3693  2.5164
   76SLPC  C212 6868   1.132   1.119   5.630 -0.2079 -0.4680  0.2010
   76SLPC  H12R 6869   1.058   1.107   5.710  0.6965  1.8183  1.4597
   76SLPC  C213 6870   1.191   1.012   5.565 -0.0564  0.1257  0.0962
   76SLPC  H13R 6871   1.155   0.912   5.592 -0.6734 -0.2759 -2.0363
   76SLPC  C214 6872   1.302   1.014   5.464 -0.5943 -0.5101 -0.6366
   76SLPC  H14R 6873   1.385   0.943   5.484  1.1142  2.1151  2.3389
   76SLPC  H14S 6874   1.351   1.113   5.463 -0.5232 -0.5258  0.3306
   76SLPC  C215 6875   1.258   0.976   5.319 -0.3054 -0.2020 -0.5322
   76SLPC  H15R 6876   1.177   1.047   5.291 -0.1685 -0.1529 -0.8123
   76SLPC  H15S 6877   1.209   0.877   5.322 -2.4698  0.8202 -0.0633
   76SLPC  C216 6878   1.382   0.963   5.224  0.0918  0.3559  0.4483
   76SLPC  H16R 6879   1.444   0.883   5.270  0.0957  0.0453 -0.0901
   76SLPC  H16S 6880   1.437   1.059   5.210  0.2207  0.2869  0.4751
   76SLPC  C217 6881   1.348   0.904   5.091 -0.3950 -0.1556 -0.0972
   76SLPC  H17R 6882   1.285   0.980   5.039 -0.9440  0.6358  1.6576
   76SLPC  H17S 6883   1.285   0.813   5.106 -0.9747  0.2891  0.2257
   76SLPC  C218 6884   1.468   0.870   5.003  0.3267  0.5969  0.1079
   76SLPC  H18R 6885   1.432   0.861   4.898 -1.1945 -2.1546  0.7576
   76SLPC  H18S 6886   1.511   0.773   5.038  0.5249  0.9294  0.7894
   76SLPC  H18T 6887   1.554   0.940   5.008  1.6502 -1.0300  2.9329
   76SLPC   C33 6888   0.377   2.045   5.959 -0.0279  0.1467 -0.3017
   76SLPC   H3X 6889   0.322   2.044   6.055 -1.4222  3.3733 -0.9203
   76SLPC   H3Y 6890   0.353   1.950   5.908  1.5413 -0.9253  0.8620
   76SLPC   C34 6891   0.338   2.175   5.873  0.3936  0.0713 -0.7883
   76SLPC   H4X 6892   0.347   2.272   5.927 -0.0377 -2.5571  4.7197
   76SLPC   H4Y 6893   0.232   2.156   5.846  0.3311  0.6978 -0.9971
   76SLPC   C35 6894   0.422   2.184   5.750  0.5342 -0.3381  0.2508
   76SLPC   H5X 6895   0.411   2.087   5.697  0.1985 -0.6760  0.9207
   76SLPC   H5Y 6896   0.527   2.205   5.778  0.7989 -0.8796 -0.3179
   76SLPC   C36 6897   0.385   2.297   5.646  0.3956 -0.3752 -0.1556
   76SLPC   H6X 6898   0.384   2.401   5.685 -0.6649 -0.4578  0.0645
   76SLPC   H6Y 6899   0.286   2.272   5.602 -0.0187  1.5397 -0.3931
   76SLPC   C37 6900   0.488   2.299   5.526  0.0388  0.0148  0.3501
   76SLPC   H7X 6901   0.487   2.203   5.471 -0.7070  0.2242 -0.0133
   76SLPC   H7Y 6902   0.591   2.325   5.557 -0.5368  2.1536  0.6260
   76SLPC   C38 6903   0.442   2.410   5.423  0.4416  0.3538 -0.5740
   76SLPC   H8X 6904   0.440   2.506   5.478  0.4317 -0.9030  1.7575
   76SLPC   H8Y 6905   0.338   2.386   5.393  0.2173 -2.2400  1.8175
   76SLPC   C39 6906   0.526   2.426   5.302 -0.0844 -0.2836  0.2195
   76SLPC   H9X 6907   0.554   2.324   5.267  2.5189  0.5309 -0.3083
   76SLPC   H9Y 6908   0.616   2.488   5.322  1.6359 -2.4749 -0.3094
   76SLPC  C310 6909   0.450   2.482   5.183 -0.7825  0.1701  0.3013
   76SLPC  H10X 6910   0.402   2.580   5.208  1.3101  1.4659 -0.5410
   76SLPC  H10Y 6911   0.377   2.402   5.159  1.0407 -1.7264  0.7880
   76SLPC  C311 6912   0.539   2.502   5.060 -0.0273  0.7646 -0.2145
   76SLPC  H11X 6913   0.588   2.403   5.046  1.2559  1.5487 -1.3969
   76SLPC  H11Y 6914   0.613   2.582   5.079 -0.4777  2.0716 -3.4623
   76SLPC  C312 6915   0.462   2.545   4.936  0.2457 -0.6237  0.3135
   76SLPC  H12X 6916   0.400   2.631   4.970  0.0341  0.0796 -1.7191
   76SLPC  H12Y 6917   0.411   2.454   4.898  2.7441 -0.7807 -3.1179
   76SLPC  C313 6918   0.544   2.601   4.824  0.4656  0.4291  0.6995
   76SLPC  H13X 6919   0.617   2.523   4.795 -1.5185 -0.5267 -2.2184
   76SLPC  H13Y 6920   0.586   2.700   4.849 -0.5461  0.9620  0.3610
   76SLPC  C314 6921   0.449   2.612   4.708 -0.6868 -0.2249  0.7189
   76SLPC  H14X 6922   0.373   2.687   4.741  0.6107  0.6466  1.8037
   76SLPC  H14Y 6923   0.411   2.511   4.682 -0.5960  0.2952 -1.7670
   76SLPC  C315 6924   0.519   2.667   4.584  0.8185  1.2724  0.2517
   76SLPC  H15X 6925   0.571   2.574   4.553  0.3853  0.3608  2.0971
   76SLPC  H15Y 6926   0.597   2.746   4.595 -0.1438  2.2805 -0.0462
   76SLPC  C316 6927   0.429   2.700   4.459 -0.0712 -0.1033 -0.3411
   76SLPC  H16X 6928   0.476   2.675   4.361 -0.3215  0.8706 -0.7142
   76SLPC  H16Y 6929   0.415   2.810   4.462  1.3862  0.0970  1.6675
   76SLPC  C317 6930   0.293   2.625   4.457 -0.7100 -0.0377 -0.1823
   76SLPC  H17X 6931   0.231   2.662   4.541 -0.7739  0.3466 -0.3978
   76SLPC  H17Y 6932   0.318   2.517   4.472  1.7045  0.6303  1.2049
   76SLPC  C318 6933   0.214   2.651   4.328 -0.5039  0.3714  0.2956
   76SLPC  H18X 6934   0.113   2.606   4.340 -0.6380  1.3785  4.2564
   76SLPC  H18Y 6935   0.261   2.593   4.246  0.6815  0.8862  0.5809
   76SLPC  H18Z 6936   0.212   2.758   4.298  1.4532 -0.1257 -1.8972
   77SLPC     N 6937   5.586   1.280   6.842  0.3295  0.2778  0.6982
   77SLPC   C13 6938   5.488   1.327   6.942  0.1923  0.4093  0.0317
   77SLPC  H13A 6939   5.409   1.386   6.898 -0.2933  0.4545  0.9537
   77SLPC  H13B 6940   5.429   1.248   6.987  0.8361  0.0996  0.3492
   77SLPC  H13C 6941   5.526   1.392   7.019 -2.1261  2.2591 -0.2878
   77SLPC   C14 6942   5.513   1.179   6.747 -0.0489 -0.3743 -0.2672
   77SLPC  H14A 6943   5.458   1.105   6.803  0.4738 -0.6365 -0.0998
   77SLPC  H14B 6944   5.448   1.241   6.687 -0.8525  0.3290  1.2743
   77SLPC  H14C 6945   5.585   1.133   6.682  1.0004  2.7010 -1.4944
   77SLPC   C15 6946   5.697   1.216   6.916 -0.3975  0.0236  0.4041
   77SLPC  H15A 6947   5.779   1.196   6.848 -0.4590  0.5330  0.1740
   77SLPC  H15B 6948   5.735   1.280   6.994  1.4606 -2.5115  1.7385
   77SLPC  H15C 6949   5.654   1.128   6.960 -1.5450  0.0635 -0.5883
   77SLPC   C12 6950   5.633   1.402   6.768  0.7179  0.1191  0.0133
   77SLPC  H12A 6951   5.676   1.473   6.837  1.4359 -2.4157  2.3607
   77SLPC  H12B 6952   5.550   1.461   6.732 -0.5716 -1.7473 -0.1847
   77SLPC   C11 6953   5.743   1.368   6.656 -0.1575  0.0340  0.1016
   77SLPC  H11A 6954   5.821   1.303   6.700  0.0875  0.2759  0.0270
   77SLPC  H11B 6955   5.773   1.468   6.620  1.9886 -0.2996  0.8222
   77SLPC     P 6956   5.591   1.371   6.449 -0.2289  0.2674  0.2007
   77SLPC   O13 6957   5.463   1.408   6.513  0.4636 -0.0288  0.1667
   77SLPC   O14 6958   5.658   1.481   6.385 -0.5084 -1.0321  0.0050
   77SLPC   O12 6959   5.680   1.293   6.552  0.2158 -0.3262  0.0157
   77SLPC   O11 6960   5.567   1.268   6.334  0.5151 -0.5115 -0.2367
   77SLPC    C1 6961   5.570   1.127   6.348 -0.7483 -0.1741  0.1973
   77SLPC    HA 6962   5.657   1.099   6.412 -0.3568  0.0363 -0.2341
   77SLPC    HB 6963   5.482   1.085   6.401 -0.0304 -3.1452 -0.7894
   77SLPC    C2 6964   5.592   1.049   6.216  1.1291 -0.3808  0.6067
   77SLPC    HS 6965   5.587   0.942   6.246 -2.2883 -1.1289 -1.9415
   77SLPC   O21 6966   5.717   1.096   6.150 -0.6150  0.0631  0.5725
   77SLPC   C21 6967   5.825   1.038   6.200  0.7737  0.1868  0.0879
   77SLPC   O22 6968   5.828   0.943   6.279 -0.3879 -0.0986  0.0699
   77SLPC   C22 6969   5.950   1.111   6.152  0.4481  0.1316 -0.3621
   77SLPC   H2R 6970   5.925   1.168   6.060  2.4271  4.3319  1.4398
   77SLPC   H2S 6971   5.965   1.190   6.229 -1.5817  0.8203 -0.5980
   77SLPC    C3 6972   5.482   1.072   6.107 -0.4281  0.0756 -0.7213
   77SLPC    HX 6973   5.477   1.174   6.064 -2.5585  0.2926 -0.0935
   77SLPC    HY 6974   5.380   1.065   6.151 -0.4111 -0.1004 -0.7083
   77SLPC   O31 6975   5.498   0.977   5.996  0.1054  0.2326 -0.4536
   77SLPC   C31 6976   5.466   0.855   6.020  0.2225  0.1511 -0.4787
   77SLPC   O32 6977   5.425   0.806   6.126  0.0017  0.7194 -0.2350
   77SLPC   C32 6978   5.477   0.780   5.888  0.6877  0.8937  0.0535
   77SLPC   H2X 6979   5.435   0.831   5.799 -0.2410 -0.4663 -0.3165
   77SLPC   H2Y 6980   5.408   0.695   5.907 -0.1205  1.6197  0.4525
   77SLPC   C23 6981   6.076   1.028   6.127  0.0760  0.0756 -0.1159
   77SLPC   H3R 6982   6.081   0.954   6.210 -3.5267 -1.4295 -1.0105
   77SLPC   H3S 6983   6.164   1.094   6.115 -1.3067  1.5671 -3.0256
   77SLPC   C24 6984   6.086   0.943   5.996  0.1523 -0.2395 -0.3064
   77SLPC   H4R 6985   6.019   0.855   5.990 -0.2285 -0.1586  1.8065
   77SLPC   H4S 6986   6.190   0.905   5.993 -0.1212 -0.9380 -1.0327
   77SLPC   C25 6987   6.077   1.034   5.867  0.2614  0.1709 -0.6834
   77SLPC   H5R 6988   6.145   1.117   5.895  0.2382  0.4130 -1.3088
   77SLPC   H5S 6989   5.977   1.078   5.843  0.6969  1.6468  0.0719
   77SLPC   C26 6990   6.128   0.958   5.744  0.4507 -0.5327  0.5450
   77SLPC   H6R 6991   6.052   0.879   5.725 -2.0879  1.6902  0.8384
   77SLPC   H6S 6992   6.227   0.912   5.762  1.3267  0.5294 -1.2618
   77SLPC   C27 6993   6.137   1.039   5.612  0.1326 -0.1920  0.1365
   77SLPC   H7R 6994   6.182   1.141   5.620 -4.3234  1.8793  1.6139
   77SLPC   H7S 6995   6.034   1.062   5.579  0.9046  2.3866 -0.7768
   77SLPC   C28 6996   6.215   0.965   5.501 -0.1438  0.1909 -0.4842
   77SLPC   H8R 6997   6.306   0.922   5.547 -1.7747 -1.4446  1.3467
   77SLPC   H8S 6998   6.238   1.046   5.428 -3.1147  0.5911 -1.1282
   77SLPC   C29 6999   6.145   0.848   5.437 -0.2122  0.1463  0.0945
   77SLPC   H9R 7000   6.070   0.796   5.498  0.1354 -2.5040 -1.6192
   77SLPC  C210 7001   6.146   0.815   5.306  0.0535 -0.9996  0.3049
   77SLPC  H10R 7002   6.082   0.730   5.280 -2.0598  0.6479 -0.0968
   77SLPC  C211 7003   6.243   0.875   5.201 -0.0999  0.1906  0.3489
   77SLPC  H11R 7004   6.288   0.783   5.157 -0.4315 -0.1548  0.7274
   77SLPC  H11S 7005   6.324   0.937   5.246 -0.5042 -1.0828  3.0467
   77SLPC  C212 7006   6.167   0.935   5.083 -0.1290  0.3073 -0.0700
   77SLPC  H12R 7007   6.123   1.034   5.104 -2.1104 -0.3773 -0.7831
   77SLPC  C213 7008   6.161   0.878   4.961  0.6555  0.0293 -0.2992
   77SLPC  H13R 7009   6.102   0.930   4.884 -1.1315 -0.8324  0.4292
   77SLPC  C214 7010   6.210   0.744   4.908 -0.3678  0.1628  0.3054
   77SLPC  H14R 7011   6.133   0.685   4.853 -0.1061 -1.4764  1.6085
   77SLPC  H14S 7012   6.218   0.675   4.995 -0.1824  0.5998  0.6381
   77SLPC  C215 7013   6.337   0.756   4.825 -0.4326 -0.2001  0.0927
   77SLPC  H15R 7014   6.418   0.779   4.898 -2.9429  2.4698  2.3071
   77SLPC  H15S 7015   6.328   0.842   4.755  2.8509 -0.7385 -1.1941
   77SLPC  C216 7016   6.370   0.615   4.762 -0.0455 -0.4207  0.3072
   77SLPC  H16R 7017   6.296   0.583   4.686 -1.3797 -1.1763  1.8610
   77SLPC  H16S 7018   6.362   0.537   4.841  0.5386 -0.3617  0.4293
   77SLPC  C217 7019   6.511   0.621   4.689  0.0906  0.0871 -0.0257
   77SLPC  H17R 7020   6.519   0.701   4.613  1.7454 -1.4221 -1.4994
   77SLPC  H17S 7021   6.529   0.544   4.611  2.0017 -0.4386  0.8782
   77SLPC  C218 7022   6.624   0.627   4.790  0.4753 -0.5916  0.5365
   77SLPC  H18R 7023   6.727   0.609   4.753  0.7117  0.2001  0.7955
   77SLPC  H18S 7024   6.606   0.542   4.860  0.5349 -1.9501 -1.0237
   77SLPC  H18T 7025   6.630   0.726   4.840  0.4740 -0.4761  0.3072
   77SLPC   C33 7026   5.624   0.728   5.868  1.0789  0.3119  0.9676
   77SLPC   H3X 7027   5.628   0.654   5.785 -3.2405 -0.1641  0.9537
   77SLPC   H3Y 7028   5.641   0.667   5.959 -0.3061  1.6360  2.1422
   77SLPC   C34 7029   5.722   0.845   5.865  0.0805 -0.2232  0.1165
   77SLPC   H4X 7030   5.822   0.796   5.863  0.2264  0.0874 -0.3713
   77SLPC   H4Y 7031   5.717   0.904   5.959  0.6598  1.1136 -0.6591
   77SLPC   C35 7032   5.700   0.927   5.742  0.6624 -0.6144  0.8442
   77SLPC   H5X 7033   5.769   1.014   5.744  0.0407 -0.1276  1.5933
   77SLPC   H5Y 7034   5.600   0.971   5.722  0.5301 -1.3578 -0.2538
   77SLPC   C36 7035   5.742   0.844   5.618  0.1035  0.0479  0.6507
   77SLPC   H6X 7036   5.664   0.766   5.607 -2.1397  2.3003 -0.3977
   77SLPC   H6Y 7037   5.842   0.799   5.635 -0.1226 -2.4633 -3.4047
   77SLPC   C37 7038   5.757   0.923   5.483 -0.3960 -0.3565 -0.2373
   77SLPC   H7X 7039   5.841   0.995   5.492 -0.4556 -0.4250  1.0553
   77SLPC   H7Y 7040   5.668   0.988   5.468  0.8252  1.1192 -1.4184
   77SLPC   C38 7041   5.786   0.832   5.369  0.6395  0.6246 -0.1848
   77SLPC   H8X 7042   5.711   0.751   5.352  0.8253 -0.2960  2.8445
   77SLPC   H8Y 7043   5.870   0.766   5.399 -0.9526 -1.4231 -0.0069
   77SLPC   C39 7044   5.805   0.895   5.232  0.4705  0.0380  0.4048
   77SLPC   H9X 7045   5.914   0.898   5.212  1.0577  2.4240  3.1432
   77SLPC   H9Y 7046   5.775   1.002   5.243 -0.8118  0.0363 -2.2944
   77SLPC  C310 7047   5.717   0.838   5.114 -0.5362  0.2737  0.0350
   77SLPC  H10X 7048   5.711   0.727   5.113 -1.2120  0.3055 -0.7345
   77SLPC  H10Y 7049   5.770   0.862   5.019 -1.5287  2.1930 -0.0835
   77SLPC  C311 7050   5.580   0.901   5.117 -0.0897  0.3987 -0.6952
   77SLPC  H11X 7051   5.583   1.012   5.105 -0.6907  0.5270  0.2016
   77SLPC  H11Y 7052   5.524   0.894   5.213  0.4936 -1.3074 -0.4426
   77SLPC  C312 7053   5.490   0.869   5.001  0.3946  0.2551  0.0902
   77SLPC  H12X 7054   5.390   0.915   5.009 -0.5112 -1.9454  2.9484
   77SLPC  H12Y 7055   5.458   0.763   5.010 -0.5300  0.3463 -1.6627
   77SLPC  C313 7056   5.550   0.894   4.854 -0.3740  0.2278  0.3605
   77SLPC  H13X 7057   5.661   0.886   4.853 -0.1767  1.8344 -3.0579
   77SLPC  H13Y 7058   5.531   0.996   4.815 -0.5188  0.4897  1.0935
   77SLPC  C314 7059   5.489   0.792   4.751  0.3633 -0.1644 -0.0458
   77SLPC  H14X 7060   5.510   0.693   4.797 -1.0650  0.5072  2.2059
   77SLPC  H14Y 7061   5.546   0.824   4.661 -1.2889  2.6147 -0.2329
   77SLPC  C315 7062   5.333   0.821   4.730  0.9031  0.0137 -0.4248
   77SLPC  H15X 7063   5.312   0.928   4.710 -0.7486 -0.5480 -1.9324
   77SLPC  H15Y 7064   5.269   0.806   4.819 -0.4090 -2.1247 -1.6527
   77SLPC  C316 7065   5.273   0.743   4.613 -0.0256 -0.0044  0.2087
   77SLPC  H16X 7066   5.290   0.634   4.623  0.0550  0.1868  2.8426
   77SLPC  H16Y 7067   5.327   0.779   4.523 -0.3825  1.3222  0.4992
   77SLPC  C317 7068   5.121   0.747   4.605  0.0562  0.6399  0.3298
   77SLPC  H17X 7069   5.089   0.849   4.635 -1.4676 -0.0490  1.1280
   77SLPC  H17Y 7070   5.071   0.678   4.677 -0.0621 -1.4689 -1.6388
   77SLPC  C318 7071   5.077   0.730   4.465  0.8946 -0.3618 -0.0352
   77SLPC  H18X 7072   5.113   0.808   4.395 -1.2754  0.5046 -0.2767
   77SLPC  H18Y 7073   4.968   0.747   4.450  0.4365 -0.1526  3.0121
   77SLPC  H18Z 7074   5.112   0.634   4.421 -0.9908 -0.5367 -1.2536
   78SLPC     N 7075   2.178   3.439   6.511  0.1224 -0.1411  0.1816
   78SLPC   C13 7076   2.165   3.329   6.609  0.5254  0.2512  0.2759
   78SLPC  H13A 7077   2.119   3.355   6.703 -2.4140 -2.0610 -0.3892
   78SLPC  H13B 7078   2.094   3.258   6.570 -0.3669  1.7279 -0.8826
   78SLPC  H13C 7079   2.257   3.281   6.639  2.0590  2.7191 -0.1841
   78SLPC   C14 7080   2.243   3.391   6.388 -0.2579 -0.1398 -0.2855
   78SLPC  H14A 7081   2.341   3.353   6.413 -0.4140  0.7641  2.0049
   78SLPC  H14B 7082   2.188   3.307   6.349 -0.9316  0.6777 -1.1556
   78SLPC  H14C 7083   2.251   3.471   6.316  0.8507 -1.7486 -2.0389
   78SLPC   C15 7084   2.275   3.546   6.565  0.0144 -0.9341  0.0971
   78SLPC  H15A 7085   2.283   3.626   6.493 -1.2721  0.5001  1.4677
   78SLPC  H15B 7086   2.248   3.587   6.661  0.8887  0.7407 -0.3437
   78SLPC  H15C 7087   2.375   3.508   6.580  0.1991 -0.8538 -0.8457
   78SLPC   C12 7088   2.043   3.496   6.477  0.2034 -0.4866  0.5445
   78SLPC  H12A 7089   1.971   3.419   6.449 -1.1277  0.9778 -0.2472
   78SLPC  H12B 7090   2.059   3.566   6.397 -2.4818 -0.8452 -0.4343
   78SLPC   C11 7091   1.956   3.575   6.580  0.1594 -0.6672 -0.2097
   78SLPC  H11A 7092   1.937   3.523   6.676 -1.7516 -0.9881 -0.7179
   78SLPC  H11B 7093   1.851   3.589   6.545  0.3053  1.8412  0.1830
   78SLPC     P 7094   2.019   3.821   6.502 -0.5905 -0.6254 -0.1662
   78SLPC   O13 7095   1.932   3.921   6.568  0.0453  0.4951  0.1657
   78SLPC   O14 7096   2.149   3.875   6.472 -0.2696  0.1559  0.0922
   78SLPC   O12 7097   2.023   3.698   6.601 -0.2613 -0.1221  0.4769
   78SLPC   O11 7098   1.954   3.767   6.374 -0.4031  0.3458 -0.0310
   78SLPC    C1 7099   1.889   3.849   6.276 -0.5063  0.3816 -0.3422
   78SLPC    HA 7100   1.807   3.788   6.233  0.6657  0.2218 -2.5289
   78SLPC    HB 7101   1.846   3.946   6.308  0.4761  0.8922 -0.5259
   78SLPC    C2 7102   1.985   3.881   6.153  0.2658 -0.7853 -0.0801
   78SLPC    HS 7103   1.913   3.922   6.079 -1.6914 -1.2171  1.5181
   78SLPC   O21 7104   2.065   3.774   6.104  0.1460  0.1110  0.3655
   78SLPC   C21 7105   1.998   3.662   6.058 -0.0516 -0.0955 -0.2565
   78SLPC   O22 7106   1.881   3.662   6.027  0.2754  0.4305  0.4481
   78SLPC   C22 7107   2.093   3.532   6.059  0.6053 -0.3443 -0.0888
   78SLPC   H2R 7108   2.154   3.524   6.152  1.7630 -0.7656 -0.8649
   78SLPC   H2S 7109   2.016   3.452   6.061  0.7730 -0.5575 -1.3664
   78SLPC    C3 7110   2.075   4.013   6.175 -0.0796  0.0925  0.2043
   78SLPC    HX 7111   2.164   3.974   6.230 -1.7203 -2.1996  1.4062
   78SLPC    HY 7112   2.032   4.085   6.248 -0.6171  1.4809 -1.4125
   78SLPC   O31 7113   2.110   4.077   6.052  0.6508 -0.3960 -0.4292
   78SLPC   C31 7114   2.036   4.196   6.035 -0.5387  0.2835 -0.1224
   78SLPC   O32 7115   1.932   4.219   6.093 -0.1820  0.2647  0.2844
   78SLPC   C32 7116   2.100   4.272   5.919 -0.9037  0.0713 -0.2547
   78SLPC   H2X 7117   2.208   4.245   5.922 -1.5536 -2.8639  0.6058
   78SLPC   H2Y 7118   2.081   4.377   5.947  3.1577  0.5973  1.2191
   78SLPC   C23 7119   2.193   3.532   5.942 -0.0951  0.3127  0.7193
   78SLPC   H3R 7120   2.273   3.457   5.953 -0.3335 -0.0888 -0.1951
   78SLPC   H3S 7121   2.243   3.629   5.921 -0.8649  0.4514 -0.6148
   78SLPC   C24 7122   2.121   3.506   5.806 -0.6580 -0.1668 -0.5339
   78SLPC   H4R 7123   2.014   3.536   5.805 -0.2136  1.8486 -3.9152
   78SLPC   H4S 7124   2.125   3.397   5.785  0.3454  0.1928 -2.4752
   78SLPC   C25 7125   2.174   3.595   5.694  0.5951 -0.3161 -0.8417
   78SLPC   H5R 7126   2.285   3.601   5.698  0.6089 -0.9153  0.0812
   78SLPC   H5S 7127   2.131   3.695   5.714  0.0786 -0.7159  0.1276
   78SLPC   C26 7128   2.121   3.546   5.559  1.1413 -0.2349 -0.3272
   78SLPC   H6R 7129   2.011   3.527   5.560  0.6210  2.4254  1.2664
   78SLPC   H6S 7130   2.172   3.450   5.533 -0.8093 -0.8358 -2.2838
   78SLPC   C27 7131   2.156   3.658   5.460  0.2585 -0.3206  0.3495
   78SLPC   H7R 7132   2.266   3.665   5.442  0.1933  2.9826  0.6857
   78SLPC   H7S 7133   2.126   3.760   5.493  2.3711  0.6941 -0.6818
   78SLPC   C28 7134   2.083   3.637   5.323 -0.5197  0.2577 -0.3374
   78SLPC   H8R 7135   1.975   3.617   5.341 -0.3112 -1.9867 -1.3373
   78SLPC   H8S 7136   2.128   3.545   5.280  2.2579  1.6708 -0.6143
   78SLPC   C29 7137   2.101   3.753   5.227 -0.3088 -0.4970 -0.1083
   78SLPC   H9R 7138   2.069   3.847   5.273  0.8856  0.1108 -0.4709
   78SLPC  C210 7139   2.124   3.748   5.094 -0.1255  0.2403 -0.5495
   78SLPC  H10R 7140   2.132   3.844   5.042 -1.1161  0.4525 -0.3268
   78SLPC  C211 7141   2.150   3.620   5.015  0.6441 -0.1240  1.0678
   78SLPC  H11R 7142   2.139   3.523   5.068 -1.5027  0.1844  1.3064
   78SLPC  H11S 7143   2.255   3.629   4.980  0.1072  3.3432 -0.0444
   78SLPC  C212 7144   2.054   3.622   4.893  0.0161 -0.0831 -0.5111
   78SLPC  H12R 7145   1.949   3.596   4.910 -0.1525  1.2957  0.7861
   78SLPC  C213 7146   2.082   3.681   4.776 -0.7578 -0.2714  0.6040
   78SLPC  H13R 7147   2.004   3.673   4.698  0.6907  0.6885 -1.0119
   78SLPC  C214 7148   2.219   3.737   4.733 -0.2966  0.0328  0.3084
   78SLPC  H14R 7149   2.288   3.743   4.820  0.2343  0.8470 -0.1602
   78SLPC  H14S 7150   2.205   3.841   4.697 -1.1765 -0.2449 -0.1818
   78SLPC  C215 7151   2.301   3.663   4.624  0.4864  0.6425 -0.1886
   78SLPC  H15R 7152   2.233   3.626   4.543  1.3186 -1.4811  0.0324
   78SLPC  H15S 7153   2.348   3.582   4.683  0.2465  0.7127  0.1040
   78SLPC  C216 7154   2.411   3.756   4.565 -0.1663 -0.0877  0.9690
   78SLPC  H16R 7155   2.444   3.830   4.641  1.4321 -1.3535  1.5667
   78SLPC  H16S 7156   2.367   3.817   4.483  2.9422  1.9946  0.7018
   78SLPC  C217 7157   2.532   3.678   4.512  0.2286  0.2334  0.5400
   78SLPC  H17R 7158   2.494   3.599   4.444 -2.3803  1.4265  0.4636
   78SLPC  H17S 7159   2.588   3.631   4.595  2.2013 -0.2123 -0.9718
   78SLPC  C218 7160   2.620   3.776   4.427  0.2109 -0.4481  0.1156
   78SLPC  H18R 7161   2.552   3.805   4.344  0.3314  0.2702  0.2626
   78SLPC  H18S 7162   2.712   3.729   4.385  0.2502  0.6151 -1.0490
   78SLPC  H18T 7163   2.643   3.866   4.487 -0.9101 -0.7049  0.9463
   78SLPC   C33 7164   2.054   4.219   5.784  0.3868  0.6726  0.3014
   78SLPC   H3X 7165   1.951   4.256   5.764 -0.6222 -1.2747  1.5702
   78SLPC   H3Y 7166   2.035   4.110   5.800 -0.7659  1.2121  3.0593
   78SLPC   C34 7167   2.149   4.252   5.669  0.4813 -0.3755 -0.0894
   78SLPC   H4X 7168   2.248   4.203   5.681 -0.6160 -2.6580  0.1669
   78SLPC   H4Y 7169   2.156   4.363   5.667  3.2234 -0.4768 -0.8967
   78SLPC   C35 7170   2.085   4.199   5.535 -0.3045 -0.1828  0.2749
   78SLPC   H5X 7171   1.985   4.247   5.525 -0.0259  0.8114  1.8364
   78SLPC   H5Y 7172   2.081   4.089   5.543  0.0925 -0.5207 -2.9101
   78SLPC   C36 7173   2.172   4.246   5.420 -1.0422  0.2412 -0.8583
   78SLPC   H6X 7174   2.281   4.225   5.429 -1.0070  0.4044 -0.9001
   78SLPC   H6Y 7175   2.167   4.357   5.419 -0.1565  0.2908 -0.4799
   78SLPC   C37 7176   2.123   4.192   5.287  0.5641  0.2738  0.1884
   78SLPC   H7X 7177   2.021   4.224   5.256  0.8943 -0.2247 -1.5204
   78SLPC   H7Y 7178   2.112   4.083   5.305  1.2925  0.4594  1.9218
   78SLPC   C38 7179   2.218   4.193   5.168 -0.5500  0.4193 -0.2641
   78SLPC   H8X 7180   2.292   4.118   5.202 -1.5462 -0.8700 -0.8651
   78SLPC   H8Y 7181   2.268   4.292   5.159 -1.3831  0.9321  0.4519
   78SLPC   C39 7182   2.146   4.144   5.050  0.8660  0.1098 -0.0021
   78SLPC   H9X 7183   2.073   4.221   5.016  0.2194  0.2990  1.7120
   78SLPC   H9Y 7184   2.093   4.049   5.072  0.0644  0.5723  0.1274
   78SLPC  C310 7185   2.232   4.130   4.928 -0.2200  0.1799  0.5751
   78SLPC  H10X 7186   2.309   4.050   4.939  1.1553  1.2184 -0.9906
   78SLPC  H10Y 7187   2.284   4.226   4.909  0.3061 -0.3536 -0.8584
   78SLPC  C311 7188   2.140   4.107   4.804  0.5524  0.2256 -0.0729
   78SLPC  H11X 7189   2.054   4.176   4.819 -2.0456 -2.7115 -0.4183
   78SLPC  H11Y 7190   2.098   4.005   4.811 -1.6815  1.1926  3.8236
   78SLPC  C312 7191   2.220   4.124   4.675 -0.1518 -0.2522 -0.1999
   78SLPC  H12X 7192   2.321   4.079   4.681 -1.4505 -3.1566  1.9085
   78SLPC  H12Y 7193   2.247   4.232   4.671 -0.1558 -0.1690  1.4475
   78SLPC  C313 7194   2.150   4.090   4.545  0.0296  0.1512  0.2311
   78SLPC  H13X 7195   2.041   4.108   4.548 -0.6118 -2.9530 -0.4188
   78SLPC  H13Y 7196   2.164   3.980   4.532 -1.1290  0.0408 -0.1273
   78SLPC  C314 7197   2.210   4.152   4.420 -0.2273 -0.3425 -0.0165
   78SLPC  H14X 7198   2.305   4.102   4.393  1.3949  1.4218  2.1287
   78SLPC  H14Y 7199   2.220   4.262   4.427 -1.0576 -0.3216  1.0472
   78SLPC  C315 7200   2.117   4.130   4.298  0.1856  0.0557  0.0539
   78SLPC  H15X 7201   2.134   4.193   4.209 -0.3550  1.4257  0.8894
   78SLPC  H15Y 7202   2.015   4.149   4.338  0.8242  0.7222  1.4203
   78SLPC  C316 7203   2.135   3.987   4.242 -0.3010  0.4799  0.0477
   78SLPC  H16X 7204   2.101   3.914   4.319  2.6650 -0.8845  0.1829
   78SLPC  H16Y 7205   2.245   3.978   4.229 -0.1759  1.6119  0.1498
   78SLPC  C317 7206   2.070   3.951   4.112 -0.0281 -1.0747 -0.0323
   78SLPC  H17X 7207   2.089   3.842   4.098  0.2260 -1.0818  0.3485
   78SLPC  H17Y 7208   2.128   4.002   4.032  1.2292  0.3282  1.6980
   78SLPC  C318 7209   1.924   3.985   4.096  0.7398  0.3724  0.4383
   78SLPC  H18X 7210   1.912   4.095   4.088  0.7542  0.5397  2.3681
   78SLPC  H18Y 7211   1.882   3.945   4.190  1.8607 -2.4230 -0.1324
   78SLPC  H18Z 7212   1.879   3.930   4.010 -1.8155 -0.4194  2.1551
   79SLPC     N 7213   5.917   0.443   6.797  0.9487 -0.4041  0.6418
   79SLPC   C13 7214   5.824   0.525   6.713 -0.0748 -0.6443  0.2726
   79SLPC  H13A 7215   5.738   0.549   6.773 -0.9400 -1.5875 -0.5555
   79SLPC  H13B 7216   5.871   0.619   6.690 -1.7580  0.1743 -0.0114
   79SLPC  H13C 7217   5.788   0.464   6.631 -0.8799 -0.2109  0.2967
   79SLPC   C14 7218   5.837   0.326   6.843 -0.2015 -0.2955 -0.0750
   79SLPC  H14A 7219   5.781   0.285   6.760  2.3191  1.2231 -2.7300
   79SLPC  H14B 7220   5.897   0.254   6.895 -0.9285 -0.2484  0.8533
   79SLPC  H14C 7221   5.763   0.355   6.917 -0.2875  0.1125 -0.3160
   79SLPC   C15 7222   5.959   0.521   6.919  0.1561  0.0331 -0.2489
   79SLPC  H15A 7223   6.029   0.598   6.889 -0.1290  0.5360  0.3511
   79SLPC  H15B 7224   5.876   0.574   6.963  0.2961 -1.2681  1.7031
   79SLPC  H15C 7225   6.009   0.457   6.990 -2.4932  0.4202  2.1193
   79SLPC   C12 7226   6.031   0.393   6.719 -0.0242  0.5457  0.4684
   79SLPC  H12A 7227   5.997   0.321   6.646 -1.3065  1.7672 -0.1752
   79SLPC  H12B 7228   6.089   0.331   6.786  2.0412 -0.2294 -1.8748
   79SLPC   C11 7229   6.127   0.496   6.644  0.3006 -0.5153 -0.1440
   79SLPC  H11A 7230   6.063   0.572   6.595  2.3268  0.8112 -0.8376
   79SLPC  H11B 7231   6.186   0.446   6.565 -0.6342 -0.8802 -0.6275
   79SLPC     P 7232   6.360   0.530   6.746  0.0963  0.0833  0.5261
   79SLPC   O13 7233   6.428   0.612   6.845  0.0206 -0.1240  0.7508
   79SLPC   O14 7234   6.370   0.382   6.756 -0.3233 -0.1303  0.0027
   79SLPC   O12 7235   6.210   0.564   6.740  0.0915  0.4443  0.5076
   79SLPC   O11 7236   6.421   0.574   6.605 -0.1243  0.4850 -0.7988
   79SLPC    C1 7237   6.418   0.704   6.545  0.0697  0.1846 -0.0396
   79SLPC    HA 7238   6.389   0.785   6.615  0.3118 -0.5693  0.9595
   79SLPC    HB 7239   6.517   0.728   6.502  0.8234 -0.8565  1.0589
   79SLPC    C2 7240   6.321   0.720   6.428 -0.3589 -0.0945  0.0003
   79SLPC    HS 7241   6.219   0.691   6.460 -0.8644 -0.0338 -1.4795
   79SLPC   O21 7242   6.362   0.636   6.322  0.1700  0.2813  0.1188
   79SLPC   C21 7243   6.270   0.612   6.231 -0.2148  0.9455  0.2039
   79SLPC   O22 7244   6.157   0.655   6.237  0.2990 -0.1075  0.0343
   79SLPC   C22 7245   6.318   0.536   6.109 -0.1890 -0.0443 -0.1509
   79SLPC   H2R 7246   6.405   0.478   6.147 -0.5071 -0.8134 -0.5755
   79SLPC   H2S 7247   6.249   0.456   6.074  0.2617 -0.1217 -0.8935
   79SLPC    C3 7248   6.318   0.866   6.380  1.0158  0.4756 -0.0201
   79SLPC    HX 7249   6.276   0.923   6.465 -0.3295  0.8136 -0.8855
   79SLPC    HY 7250   6.252   0.879   6.292  0.2086 -1.1929  0.2976
   79SLPC   O31 7251   6.447   0.915   6.362 -0.0678  0.0115 -0.1608
   79SLPC   C31 7252   6.446   1.050   6.339  0.2754  0.0839  0.1464
   79SLPC   O32 7253   6.345   1.122   6.345 -0.2477 -0.2538 -0.1455
   79SLPC   C32 7254   6.583   1.092   6.305 -0.3624 -0.1559 -0.1760
   79SLPC   H2X 7255   6.644   1.021   6.246  1.0555  0.2667  0.7225
   79SLPC   H2Y 7256   6.633   1.083   6.404  0.8988  1.7900 -0.5721
   79SLPC   C23 7257   6.363   0.627   5.988 -0.7720  0.2166 -0.3821
   79SLPC   H3R 7258   6.282   0.700   5.968  0.4394  2.5387  2.4080
   79SLPC   H3S 7259   6.380   0.558   5.902 -0.7559  0.5626 -0.6573
   79SLPC   C24 7260   6.507   0.687   6.007 -0.4599  0.4807 -0.0942
   79SLPC   H4R 7261   6.515   0.724   6.111  1.2594 -1.1787  0.4222
   79SLPC   H4S 7262   6.519   0.764   5.928 -2.4816 -1.4429 -2.4491
   79SLPC   C25 7263   6.620   0.574   5.978 -0.0124 -0.3080 -0.0325
   79SLPC   H5R 7264   6.622   0.529   5.877  2.3944 -1.3737  0.3968
   79SLPC   H5S 7265   6.609   0.484   6.042  0.7605 -0.7902 -0.5636
   79SLPC   C26 7266   6.758   0.640   5.988 -0.2156 -0.2965 -0.0640
   79SLPC   H6R 7267   6.765   0.679   6.092 -0.2638 -1.7473  0.5003
   79SLPC   H6S 7268   6.754   0.727   5.919  0.2486 -0.1430  0.0981
   79SLPC   C27 7269   6.880   0.557   5.949 -1.0027  0.1807 -0.2925
   79SLPC   H7R 7270   6.897   0.471   6.018 -0.8750  0.6686  0.2982
   79SLPC   H7S 7271   6.971   0.621   5.954 -1.0974  0.3243 -0.3992
   79SLPC   C28 7272   6.873   0.501   5.801 -0.0339 -0.1019  0.1279
   79SLPC   H8R 7273   6.795   0.424   5.789 -1.1672  0.8952  0.8791
   79SLPC   H8S 7274   6.968   0.444   5.796  0.2731  0.0909  2.7905
   79SLPC   C29 7275   6.863   0.600   5.685 -0.1184  0.0362  0.2419
   79SLPC   H9R 7276   6.939   0.679   5.675 -0.2753  0.7414  3.4178
   79SLPC  C210 7277   6.758   0.605   5.599 -0.4080 -1.0309  0.3247
   79SLPC  H10R 7278   6.759   0.694   5.534 -0.7784 -1.0077  0.3514
   79SLPC  C211 7279   6.637   0.519   5.584  0.0209 -0.1105  0.8004
   79SLPC  H11R 7280   6.635   0.459   5.678  1.6122  0.0295  0.9554
   79SLPC  H11S 7281   6.660   0.444   5.505 -1.8985  0.4340 -0.3451
   79SLPC  C212 7282   6.506   0.586   5.557  0.6955 -0.9365  0.3705
   79SLPC  H12R 7283   6.436   0.581   5.642 -0.8925  1.7389 -0.6543
   79SLPC  C213 7284   6.475   0.658   5.444 -0.0112  0.2444 -0.5555
   79SLPC  H13R 7285   6.378   0.709   5.440  0.7374  1.7220 -0.6362
   79SLPC  C214 7286   6.546   0.677   5.314 -0.8383  0.2325 -0.1162
   79SLPC  H14R 7287   6.644   0.725   5.335 -1.2727  2.3181 -2.3200
   79SLPC  H14S 7288   6.491   0.740   5.241 -0.6684 -0.0490 -0.4895
   79SLPC  C215 7289   6.601   0.563   5.216 -0.5344  0.2780 -0.6055
   79SLPC  H15R 7290   6.515   0.520   5.161 -0.2775 -1.3116  0.1459
   79SLPC  H15S 7291   6.629   0.477   5.282 -4.8343 -1.1556 -0.3111
   79SLPC  C216 7292   6.731   0.590   5.133  1.0771 -0.0555 -0.1221
   79SLPC  H16R 7293   6.807   0.633   5.202  0.6152 -1.8670  1.6108
   79SLPC  H16S 7294   6.709   0.670   5.059 -1.0673  1.0626  1.5948
   79SLPC  C217 7295   6.781   0.463   5.072  0.3282 -0.4142 -0.1950
   79SLPC  H17R 7296   6.697   0.423   5.010 -1.4081 -0.5515  2.1014
   79SLPC  H17S 7297   6.803   0.392   5.155  1.5152  0.1047 -0.0470
   79SLPC  C218 7298   6.908   0.495   4.986  0.5684 -0.3549 -0.5004
   79SLPC  H18R 7299   6.937   0.403   4.930  0.5034 -0.3813 -0.4913
   79SLPC  H18S 7300   6.985   0.524   5.061 -1.7814 -0.4830  2.1292
   79SLPC  H18T 7301   6.898   0.570   4.905  0.6806 -1.0510 -1.1676
   79SLPC   C33 7302   6.608   1.237   6.257 -0.1816  0.1461  0.0731
   79SLPC   H3X 7303   6.719   1.247   6.261  0.0988 -2.6674  2.5217
   79SLPC   H3Y 7304   6.562   1.310   6.327 -0.6101  0.4965 -0.5655
   79SLPC   C34 7305   6.563   1.253   6.101  0.3228  0.7525 -0.7844
   79SLPC   H4X 7306   6.543   1.360   6.080 -3.2857  0.5287  0.9133
   79SLPC   H4Y 7307   6.463   1.206   6.094 -0.2789  1.9466 -0.4883
   79SLPC   C35 7308   6.650   1.181   6.003 -0.0901  0.5085 -0.0439
   79SLPC   H5X 7309   6.716   1.102   6.043  0.1024 -0.3162 -1.8974
   79SLPC   H5Y 7310   6.708   1.264   5.956 -1.4000  2.1753  1.1327
   79SLPC   C36 7311   6.567   1.111   5.894  0.2792 -1.0343  0.1743
   79SLPC   H6X 7312   6.471   1.167   5.897  1.5650  1.3754 -0.9929
   79SLPC   H6Y 7313   6.548   1.006   5.924 -2.4183 -0.8865 -0.6932
   79SLPC   C37 7314   6.605   1.139   5.752 -0.3650 -0.0052 -0.9102
   79SLPC   H7X 7315   6.710   1.108   5.733  0.4470  1.5747  0.7358
   79SLPC   H7Y 7316   6.590   1.244   5.718 -1.7933  0.7048  1.6960
   79SLPC   C38 7317   6.525   1.048   5.655  1.1684  0.1133  0.0768
   79SLPC   H8X 7318   6.419   1.080   5.654  1.0327 -0.3288 -1.0256
   79SLPC   H8Y 7319   6.530   0.945   5.696 -0.3067  0.5399  1.4335
   79SLPC   C39 7320   6.562   1.059   5.505 -0.6729  0.9263 -0.0681
   79SLPC   H9X 7321   6.496   0.988   5.451  0.5461  0.4423 -0.9901
   79SLPC   H9Y 7322   6.664   1.023   5.479 -0.8262  1.6462 -1.7542
   79SLPC  C310 7323   6.545   1.207   5.454 -0.6030  0.7174 -0.6477
   79SLPC  H10X 7324   6.619   1.271   5.507 -1.6403  1.1817  0.2926
   79SLPC  H10Y 7325   6.442   1.242   5.476 -1.0436 -0.7740 -0.2618
   79SLPC  C311 7326   6.559   1.221   5.298  0.0064  0.2834 -0.2309
   79SLPC  H11X 7327   6.526   1.321   5.263  0.5981  0.7993  0.6420
   79SLPC  H11Y 7328   6.507   1.134   5.253  0.4466  0.4014 -0.9893
   79SLPC  C312 7329   6.711   1.215   5.251  0.0844 -0.6573  0.0763
   79SLPC  H12X 7330   6.749   1.139   5.322 -0.7532  1.9889  3.6163
   79SLPC  H12Y 7331   6.752   1.308   5.296 -1.6927  0.4334 -0.4325
   79SLPC  C313 7332   6.737   1.171   5.098 -0.4106 -0.3668 -0.0230
   79SLPC  H13X 7333   6.692   1.245   5.029  0.1856 -1.6940 -1.9050
   79SLPC  H13Y 7334   6.684   1.076   5.076  0.9532 -1.0333 -0.5190
   79SLPC  C314 7335   6.884   1.169   5.058  0.6175  0.0238  0.0333
   79SLPC  H14X 7336   6.891   1.073   5.002  1.3303  0.3945 -0.5276
   79SLPC  H14Y 7337   6.938   1.151   5.153 -3.0309 -1.7873  1.9883
   79SLPC  C315 7338   6.929   1.279   4.972 -0.0899 -0.3317  0.2677
   79SLPC  H15X 7339   7.039   1.274   4.960 -0.1751 -0.3132 -0.5699
   79SLPC  H15Y 7340   6.892   1.380   5.002 -2.0245 -0.5040 -1.2969
   79SLPC  C316 7341   6.892   1.263   4.823 -0.5665  0.5394 -0.5000
   79SLPC  H16X 7342   6.788   1.227   4.806  0.0526 -0.7222 -1.7452
   79SLPC  H16Y 7343   6.945   1.172   4.787 -1.0473 -0.4078  1.0909
   79SLPC  C317 7344   6.918   1.391   4.743  0.5207 -0.2441 -0.2857
   79SLPC  H17X 7345   7.027   1.410   4.752  0.0797  1.5167  2.8451
   79SLPC  H17Y 7346   6.871   1.463   4.814 -0.3087 -0.5889 -0.4670
   79SLPC  C318 7347   6.882   1.406   4.589 -0.3767  0.3434  0.1547
   79SLPC  H18X 7348   6.790   1.347   4.569  0.5387 -0.5488 -1.5798
   79SLPC  H18Y 7349   6.967   1.366   4.530  0.0402  0.9113  0.3632
   79SLPC  H18Z 7350   6.869   1.512   4.560 -1.0990  0.5223  1.0773
   80SLPC     N 7351   0.430   3.884   6.905 -0.1404 -0.9072  0.1538
   80SLPC   C13 7352   0.520   3.802   6.820 -0.3824  0.4434 -0.2948
   80SLPC  H13A 7353   0.595   3.861   6.770 -1.2023  1.4428 -0.3792
   80SLPC  H13B 7354   0.584   3.746   6.887 -0.3456 -0.3681 -0.9951
   80SLPC  H13C 7355   0.473   3.733   6.752  0.1655 -0.3063  0.0696
   80SLPC   C14 7356   0.503   3.942   7.023 -0.1621 -0.2766  0.2579
   80SLPC  H14A 7357   0.441   4.008   7.082  0.8838  1.5039 -0.5557
   80SLPC  H14B 7358   0.554   3.865   7.078 -1.6161 -0.3982  1.4944
   80SLPC  H14C 7359   0.579   4.001   6.973  1.2520 -1.2684  1.1779
   80SLPC   C15 7360   0.336   3.785   6.979 -0.4747  0.8564 -0.3747
   80SLPC  H15A 7361   0.251   3.831   7.027 -1.7870  0.5226 -2.2396
   80SLPC  H15B 7362   0.288   3.735   6.896  0.0650  2.2938 -1.6111
   80SLPC  H15C 7363   0.395   3.715   7.036 -1.7120  0.3617  0.3271
   80SLPC   C12 7364   0.348   3.979   6.820  0.6389  0.0178  0.0685
   80SLPC  H12A 7365   0.417   4.055   6.787  1.8187 -0.0975  2.1099
   80SLPC  H12B 7366   0.277   4.018   6.890  0.2555 -2.4749  1.1788
   80SLPC   C11 7367   0.291   3.912   6.687 -0.4583  0.1589  0.5857
   80SLPC  H11A 7368   0.372   3.882   6.619 -0.6789 -1.0084  0.8266
   80SLPC  H11B 7369   0.250   3.999   6.631  0.2822  1.3887  1.8819
   80SLPC     P 7370   0.158   3.698   6.621 -0.0171 -0.2687  0.0458
   80SLPC   O13 7371   0.267   3.595   6.644  0.2122 -0.0916 -0.0990
   80SLPC   O14 7372   0.020   3.651   6.650 -0.1341 -0.5289  0.1673
   80SLPC   O12 7373   0.191   3.826   6.716  0.1451  0.8708 -0.1817
   80SLPC   O11 7374   0.173   3.764   6.479 -0.1764 -0.3007  0.2473
   80SLPC    C1 7375   0.086   3.871   6.437  0.4799  0.5772  0.5309
   80SLPC    HA 7376   0.095   3.954   6.510 -0.1039  0.8278  0.3198
   80SLPC    HB 7377   0.121   3.908   6.338 -0.0712  0.4146  0.2711
   80SLPC    C2 7378  -0.069   3.838   6.417  0.1594 -0.3561 -0.1354
   80SLPC    HS 7379  -0.100   3.775   6.503  1.0853 -0.5890  0.0376
   80SLPC   O21 7380  -0.074   3.779   6.286 -0.3991 -0.4259  0.8108
   80SLPC   C21 7381  -0.169   3.692   6.270 -0.3939 -0.3936 -0.0001
   80SLPC   O22 7382  -0.247   3.658   6.358  0.3256 -0.0379  0.3439
   80SLPC   C22 7383  -0.166   3.645   6.128 -0.5722 -0.0613  0.3163
   80SLPC   H2R 7384  -0.073   3.675   6.076 -0.8088  3.3033  1.5951
   80SLPC   H2S 7385  -0.160   3.534   6.128 -0.0318 -0.0628 -1.4477
   80SLPC    C3 7386  -0.143   3.976   6.423  0.9130  0.8369  0.7509
   80SLPC    HX 7387  -0.126   4.004   6.530  0.7230 -1.8123  1.5624
   80SLPC    HY 7388  -0.252   3.970   6.405  0.9641  0.2289  0.6242
   80SLPC   O31 7389  -0.089   4.072   6.330  0.0953 -0.1262 -0.6197
   80SLPC   C31 7390  -0.137   4.060   6.199  0.3629 -0.1543 -0.1567
   80SLPC   O32 7391  -0.229   3.985   6.167 -0.1306  0.0204 -0.6205
   80SLPC   C32 7392  -0.058   4.144   6.104 -0.3877 -0.3550  0.0423
   80SLPC   H2X 7393   0.031   4.088   6.067  0.5812  0.6297  0.8340
   80SLPC   H2Y 7394  -0.021   4.235   6.155  0.0104 -1.5278  1.9526
   80SLPC   C23 7395  -0.301   3.682   6.052 -0.0976 -0.3597  0.3693
   80SLPC   H3R 7396  -0.303   3.792   6.040  2.7271 -0.1790  0.9028
   80SLPC   H3S 7397  -0.388   3.655   6.115  0.9074  1.6067  2.7621
   80SLPC   C24 7398  -0.317   3.611   5.914  0.1524  0.1049 -0.3303
   80SLPC   H4R 7399  -0.424   3.591   5.895  0.1042  1.9621 -2.5457
   80SLPC   H4S 7400  -0.250   3.522   5.922 -0.6689 -0.3303  2.6139
   80SLPC   C25 7401  -0.280   3.707   5.801 -1.1595  0.3110 -0.4857
   80SLPC   H5R 7402  -0.178   3.747   5.820 -1.6956  0.7926  1.5721
   80SLPC   H5S 7403  -0.349   3.794   5.797  0.1646  1.5285  1.3144
   80SLPC   C26 7404  -0.300   3.650   5.661  0.3239  0.0377 -0.4666
   80SLPC   H6R 7405  -0.267   3.723   5.585  0.0851 -0.9343 -1.5447
   80SLPC   H6S 7406  -0.408   3.631   5.639  0.5878  2.0356 -4.1337
   80SLPC   C27 7407  -0.240   3.513   5.638  0.1392  0.0987 -0.1123
   80SLPC   H7R 7408  -0.279   3.436   5.709 -0.2351  0.8978  0.5669
   80SLPC   H7S 7409  -0.132   3.524   5.660 -0.1755  2.2360  0.5531
   80SLPC   C28 7410  -0.239   3.466   5.497 -0.3484  0.2635  0.4032
   80SLPC   H8R 7411  -0.199   3.365   5.475 -0.9794  0.1807 -0.4378
   80SLPC   H8S 7412  -0.193   3.538   5.425 -0.3512  0.5393  0.6754
   80SLPC   C29 7413  -0.381   3.441   5.448  0.3407  0.5522  0.0090
   80SLPC   H9R 7414  -0.450   3.400   5.523 -1.4281  1.0795 -1.2577
   80SLPC  C210 7415  -0.437   3.475   5.335 -0.4236 -0.2735  0.0068
   80SLPC  H10R 7416  -0.543   3.452   5.318 -0.7083  1.6919 -1.1126
   80SLPC  C211 7417  -0.376   3.556   5.218  0.9634  0.6282 -0.9748
   80SLPC  H11R 7418  -0.439   3.530   5.130 -1.0318 -0.1758  0.5966
   80SLPC  H11S 7419  -0.270   3.530   5.197  1.2831  2.9207 -2.5768
   80SLPC  C212 7420  -0.381   3.701   5.243  0.3343 -0.2705  0.1376
   80SLPC  H12R 7421  -0.384   3.723   5.351  2.4558  0.8895  0.0239
   80SLPC  C213 7422  -0.425   3.805   5.165 -0.1599  0.4077 -0.8814
   80SLPC  H13R 7423  -0.425   3.906   5.208  0.1004  0.3227 -0.6816
   80SLPC  C214 7424  -0.453   3.795   5.015  0.2147  0.0261 -0.4547
   80SLPC  H14R 7425  -0.389   3.718   4.966  0.1266  0.3821 -1.1278
   80SLPC  H14S 7426  -0.432   3.889   4.960 -0.7158  0.3118 -0.3345
   80SLPC  C215 7427  -0.599   3.752   5.004 -0.6250 -0.1564  0.2172
   80SLPC  H15R 7428  -0.667   3.815   5.065 -1.6175 -1.0035  0.0307
   80SLPC  H15S 7429  -0.620   3.644   5.021  0.6148 -0.2352  1.4824
   80SLPC  C216 7430  -0.645   3.782   4.862  0.1004  0.2477 -0.2771
   80SLPC  H16R 7431  -0.588   3.718   4.792  2.4047  0.6649  1.0957
   80SLPC  H16S 7432  -0.631   3.891   4.844  0.7192  0.4680  1.3487
   80SLPC  C217 7433  -0.790   3.760   4.844  0.7409  0.0702 -0.3474
   80SLPC  H17R 7434  -0.841   3.840   4.901 -0.5028 -0.5094 -0.6059
   80SLPC  H17S 7435  -0.809   3.658   4.885  2.2238  0.3982  1.3026
   80SLPC  C218 7436  -0.838   3.769   4.699  0.8103  0.1340  0.5742
   80SLPC  H18R 7437  -0.824   3.875   4.668  1.8207 -0.0538  0.3541
   80SLPC  H18S 7438  -0.947   3.749   4.704  1.1334 -1.6169  0.9848
   80SLPC  H18T 7439  -0.779   3.708   4.627 -2.5218 -1.0926 -1.3617
   80SLPC   C33 7440  -0.143   4.183   5.980 -0.6163  0.2706  0.2903
   80SLPC   H3X 7441  -0.235   4.241   6.003  0.0143  2.1441 -1.5653
   80SLPC   H3Y 7442  -0.177   4.096   5.920  0.6758 -0.9587  1.2654
   80SLPC   C34 7443  -0.042   4.269   5.901  0.0175 -0.4043 -0.4003
   80SLPC   H4X 7444   0.042   4.202   5.869 -2.1263 -3.0228 -0.9260
   80SLPC   H4Y 7445  -0.005   4.353   5.964 -2.1916  1.5345 -1.5457
   80SLPC   C35 7446  -0.108   4.334   5.778  0.3640 -0.3925 -0.3105
   80SLPC   H5X 7447  -0.030   4.383   5.715  1.1953 -0.6296  0.5193
   80SLPC   H5Y 7448  -0.183   4.411   5.806  0.2919  0.2783 -2.1845
   80SLPC   C36 7449  -0.182   4.230   5.692 -0.2368 -0.3662  0.0591
   80SLPC   H6X 7450  -0.272   4.186   5.741 -0.4473  1.3838  1.3494
   80SLPC   H6Y 7451  -0.117   4.146   5.660 -2.2221 -1.8637 -0.2653
   80SLPC   C37 7452  -0.226   4.307   5.562  0.0243  0.2948 -0.2252
   80SLPC   H7X 7453  -0.139   4.362   5.522  0.6558 -1.3153 -1.1619
   80SLPC   H7Y 7454  -0.307   4.377   5.593  0.1701  0.6800 -0.7161
   80SLPC   C38 7455  -0.274   4.202   5.454 -0.0483 -0.3561  0.3226
   80SLPC   H8X 7456  -0.349   4.132   5.496 -1.3547  1.4835  1.2212
   80SLPC   H8Y 7457  -0.181   4.149   5.427 -0.7002 -1.6167  0.5027
   80SLPC   C39 7458  -0.331   4.274   5.332  0.6286 -0.0581 -0.1100
   80SLPC   H9X 7459  -0.411   4.344   5.363 -0.6309 -2.5957  2.9157
   80SLPC   H9Y 7460  -0.386   4.186   5.293  0.5895 -0.5220  0.9548
   80SLPC  C310 7461  -0.227   4.316   5.223  0.6246 -0.0295  0.8910
   80SLPC  H10X 7462  -0.152   4.235   5.206 -1.2881 -1.6343 -0.5033
   80SLPC  H10Y 7463  -0.183   4.416   5.243  0.6784 -0.4772  3.2108
   80SLPC  C311 7464  -0.297   4.349   5.084  0.0603 -0.2006 -0.5176
   80SLPC  H11X 7465  -0.379   4.421   5.107  1.2423  0.5343  1.7596
   80SLPC  H11Y 7466  -0.353   4.259   5.052 -1.8610  0.8533 -0.2952
   80SLPC  C312 7467  -0.208   4.421   4.984 -1.3129  0.3674  0.0967
   80SLPC  H12X 7468  -0.119   4.355   4.974 -0.6810  1.3811 -1.4106
   80SLPC  H12Y 7469  -0.167   4.519   5.017  1.1100 -1.0521  1.5963
   80SLPC  C313 7470  -0.272   4.428   4.851 -0.3648 -0.5285 -0.0915
   80SLPC  H13X 7471  -0.368   4.483   4.854 -0.5203 -0.8061  2.5802
   80SLPC  H13Y 7472  -0.293   4.323   4.822 -0.4543 -0.0498 -1.8406
   80SLPC  C314 7473  -0.188   4.473   4.738 -0.2198 -0.5925  0.6555
   80SLPC  H14X 7474  -0.084   4.454   4.771  0.2102  2.9378  1.7161
   80SLPC  H14Y 7475  -0.190   4.584   4.732  0.0548 -0.6697 -3.1096
   80SLPC  C315 7476  -0.223   4.420   4.595  0.6305 -0.3742 -0.0945
   80SLPC  H15X 7477  -0.329   4.440   4.568  1.1493  0.4465 -1.6376
   80SLPC  H15Y 7478  -0.196   4.313   4.582  1.1259 -0.6465  2.6668
   80SLPC  C316 7479  -0.147   4.502   4.491 -0.1061 -0.3029  0.0361
   80SLPC  H16X 7480  -0.039   4.482   4.507 -0.3286 -0.4275  1.4892
   80SLPC  H16Y 7481  -0.155   4.612   4.507  2.3440  0.4338 -2.7865
   80SLPC  C317 7482  -0.179   4.466   4.344 -0.3454  0.2424  0.0092
   80SLPC  H17X 7483  -0.262   4.526   4.301  0.7943 -0.4895 -3.5673
   80SLPC  H17Y 7484  -0.219   4.362   4.349 -1.0674  0.5199  0.1371
   80SLPC  C318 7485  -0.068   4.464   4.237 -0.9494  0.8207 -0.1313
   80SLPC  H18X 7486  -0.014   4.561   4.226 -3.1149  1.9786 -1.2158
   80SLPC  H18Y 7487  -0.115   4.448   4.137 -1.0431  1.2045 -0.1494
   80SLPC  H18Z 7488   0.007   4.383   4.247 -1.5645  0.1159 -1.0604
   81SLPC     N 7489   1.025   4.485   2.305 -0.6528  0.3478 -0.0446
   81SLPC   C13 7490   1.163   4.494   2.359 -0.2513  0.5734  0.5826
   81SLPC  H13A 7491   1.166   4.571   2.434 -4.3409  0.0286  1.5294
   81SLPC  H13B 7492   1.191   4.400   2.406  1.4101  1.4833  1.5203
   81SLPC  H13C 7493   1.233   4.511   2.278  0.2083  0.4573  0.9475
   81SLPC   C14 7494   1.026   4.403   2.180 -0.8863  0.1438 -0.3360
   81SLPC  H14A 7495   0.924   4.390   2.147 -1.9413  0.8968  2.3587
   81SLPC  H14B 7496   1.063   4.453   2.092 -2.0176  2.0264  0.2102
   81SLPC  H14C 7497   1.091   4.319   2.198  2.6934  2.9964  1.2170
   81SLPC   C15 7498   0.979   4.622   2.253  0.0446 -0.0944 -0.4591
   81SLPC  H15A 7499   0.876   4.626   2.222 -0.6878  1.2078  1.8615
   81SLPC  H15B 7500   0.993   4.690   2.336 -2.4162  0.6512 -0.5749
   81SLPC  H15C 7501   1.046   4.658   2.176  0.4981  1.8989  0.7692
   81SLPC   C12 7502   0.938   4.410   2.400  0.6241 -1.3223  0.0048
   81SLPC  H12A 7503   0.981   4.320   2.441  0.6728 -0.5098  1.8410
   81SLPC  H12B 7504   0.841   4.401   2.354  0.1935  0.5307  0.4754
   81SLPC   C11 7505   0.892   4.496   2.526 -0.5242  0.3365  0.5983
   81SLPC  H11A 7506   0.964   4.573   2.563 -1.4520  0.9455  1.1777
   81SLPC  H11B 7507   0.880   4.422   2.608 -0.9190  1.0758  1.2114
   81SLPC     P 7508   0.637   4.481   2.510  0.0911  0.0458  0.2424
   81SLPC   O13 7509   0.518   4.561   2.479 -0.1025 -0.9404  0.1466
   81SLPC   O14 7510   0.647   4.361   2.425  0.5722 -0.3702  0.1920
   81SLPC   O12 7511   0.769   4.568   2.501  0.0274  0.7353 -0.5642
   81SLPC   O11 7512   0.630   4.430   2.665 -0.4941  0.1817  0.0800
   81SLPC    C1 7513   0.587   4.517   2.764  0.0300  0.0691 -0.1017
   81SLPC    HA 7514   0.500   4.576   2.727  0.8225  0.0160 -2.1448
   81SLPC    HB 7515   0.546   4.453   2.845 -0.4938 -1.3741 -1.4672
   81SLPC    C2 7516   0.701   4.594   2.832 -0.3541 -0.0605  0.4309
   81SLPC    HS 7517   0.759   4.657   2.761 -0.8465  0.3301  0.3679
   81SLPC   O21 7518   0.781   4.490   2.901  0.0674  0.3200  0.3930
   81SLPC   C21 7519   0.897   4.534   2.924  0.6322  0.3943 -0.5236
   81SLPC   O22 7520   0.954   4.630   2.871 -0.3367 -0.7908 -0.2477
   81SLPC   C22 7521   0.952   4.448   3.038 -0.1991 -0.0958 -0.6338
   81SLPC   H2R 7522   0.863   4.388   3.066 -0.0933  0.3604  0.7592
   81SLPC   H2S 7523   1.035   4.383   3.004  0.3989  0.0562  0.5012
   81SLPC    C3 7524   0.650   4.690   2.938  0.0354  0.2720 -0.0790
   81SLPC    HX 7525   0.592   4.624   3.007  0.6306 -0.3469 -0.1657
   81SLPC    HY 7526   0.585   4.766   2.889 -0.5778 -0.3124 -0.2029
   81SLPC   O31 7527   0.751   4.747   3.026 -0.4339 -0.3797  0.0828
   81SLPC   C31 7528   0.801   4.870   3.003  0.5401 -0.1586  0.3746
   81SLPC   O32 7529   0.765   4.936   2.911  0.7519 -0.3359 -0.0831
   81SLPC   C32 7530   0.902   4.922   3.108 -0.0167  0.5219  0.4118
   81SLPC   H2X 7531   0.936   5.017   3.061  0.9559  0.0467  0.1283
   81SLPC   H2Y 7532   0.987   4.852   3.114  0.9353  1.4606 -1.3012
   81SLPC   C23 7533   1.019   4.521   3.154  0.0948 -0.1966 -0.1754
   81SLPC   H3R 7534   1.072   4.609   3.111  0.8296 -1.6592 -2.4217
   81SLPC   H3S 7535   1.105   4.467   3.197  2.2996  1.1953 -2.5331
   81SLPC   C24 7536   0.926   4.559   3.267 -0.2897 -1.2767 -0.7554
   81SLPC   H4R 7537   0.877   4.462   3.290  1.9093 -2.1329  0.6519
   81SLPC   H4S 7538   0.854   4.627   3.216  2.3289  0.7275 -2.0196
   81SLPC   C25 7539   0.992   4.627   3.387 -0.3969  0.4788  0.4249
   81SLPC   H5R 7540   0.913   4.678   3.447 -1.2160  0.8081 -0.8938
   81SLPC   H5S 7541   1.057   4.712   3.362 -1.4502  1.3889  0.6844
   81SLPC   C26 7542   1.058   4.519   3.465  0.5495  0.0366  0.1012
   81SLPC   H6R 7543   1.129   4.458   3.405  2.6076  0.1979  2.2286
   81SLPC   H6S 7544   0.986   4.439   3.494 -0.6850  1.1056  0.0808
   81SLPC   C27 7545   1.119   4.561   3.600  0.4080  0.4857 -0.3763
   81SLPC   H7R 7546   1.034   4.581   3.669 -0.9922 -2.5035 -1.0585
   81SLPC   H7S 7547   1.180   4.652   3.580  0.5543  0.1914 -1.2958
   81SLPC   C28 7548   1.192   4.442   3.664  0.2248 -0.0535  0.1746
   81SLPC   H8R 7549   1.269   4.397   3.597  0.2684 -2.3351  1.6479
   81SLPC   H8S 7550   1.119   4.360   3.682  1.2340 -0.8936  0.5743
   81SLPC   C29 7551   1.266   4.488   3.788  0.1674  0.0647  0.4376
   81SLPC   H9R 7552   1.211   4.472   3.882  0.4791 -1.1951  0.4274
   81SLPC  C210 7553   1.389   4.528   3.799 -0.2220  0.3443 -0.3859
   81SLPC  H10R 7554   1.418   4.564   3.899 -1.5588 -0.9127  0.5026
   81SLPC  C211 7555   1.496   4.526   3.692 -0.4928 -0.7730  0.9153
   81SLPC  H11R 7556   1.495   4.433   3.632 -2.4381  0.8750 -1.8401
   81SLPC  H11S 7557   1.596   4.529   3.739 -0.5265 -2.2845  1.1053
   81SLPC  C212 7558   1.490   4.647   3.606  0.7204  0.6386 -0.1402
   81SLPC  H12R 7559   1.451   4.730   3.667  0.8827 -0.6525  1.8381
   81SLPC  C213 7560   1.515   4.665   3.478  0.0004  0.0815  0.6666
   81SLPC  H13R 7561   1.514   4.768   3.439  0.0019  0.2787  1.1876
   81SLPC  C214 7562   1.551   4.554   3.374  0.4328 -0.4673  0.1752
   81SLPC  H14R 7563   1.594   4.474   3.437 -1.7718 -0.4890  1.7781
   81SLPC  H14S 7564   1.616   4.599   3.296  0.6567 -0.4374  0.3773
   81SLPC  C215 7565   1.423   4.487   3.309  0.2166 -0.4645  0.1290
   81SLPC  H15R 7566   1.349   4.560   3.270  0.7722 -0.4964 -1.0332
   81SLPC  H15S 7567   1.366   4.446   3.395  0.5445  1.3266  1.2280
   81SLPC  C216 7568   1.439   4.367   3.212  0.1805  0.1257  0.1170
   81SLPC  H16R 7569   1.470   4.400   3.111 -1.6929  0.2082 -0.4599
   81SLPC  H16S 7570   1.340   4.320   3.199 -0.7769  1.7440  1.2550
   81SLPC  C217 7571   1.535   4.264   3.259 -0.2154  0.4844  0.5486
   81SLPC  H17R 7572   1.630   4.313   3.289 -0.7856  2.0271 -0.0520
   81SLPC  H17S 7573   1.568   4.191   3.182 -0.3873 -0.3826  1.2730
   81SLPC  C218 7574   1.492   4.168   3.373 -0.0360  0.4346  0.6560
   81SLPC  H18R 7575   1.572   4.091   3.372 -0.4141  0.0256  1.1060
   81SLPC  H18S 7576   1.398   4.118   3.339  0.8749 -0.5629 -0.4834
   81SLPC  H18T 7577   1.488   4.222   3.470 -0.3218 -1.2272  1.6143
   81SLPC   C33 7578   0.841   4.956   3.246  0.0611 -0.2608 -0.2508
   81SLPC   H3X 7579   0.932   4.970   3.309 -0.3351  1.4403 -0.0116
   81SLPC   H3Y 7580   0.795   4.868   3.296 -0.4575  1.3368  2.2821
   81SLPC   C34 7581   0.746   5.081   3.256 -0.0813  0.0755 -1.5323
   81SLPC   H4X 7582   0.654   5.034   3.216  0.1892 -0.8005 -1.1395
   81SLPC   H4Y 7583   0.777   5.158   3.182  0.1442  3.0082  1.3722
   81SLPC   C35 7584   0.722   5.150   3.390 -0.1562  0.1058 -0.2859
   81SLPC   H5X 7585   0.639   5.223   3.382 -0.1929  0.3122  1.4752
   81SLPC   H5Y 7586   0.809   5.208   3.428  0.2158 -0.6796  0.0919
   81SLPC   C36 7587   0.685   5.049   3.498  0.0127 -0.2336 -1.0486
   81SLPC   H6X 7588   0.754   4.963   3.509 -1.4077 -1.4189 -1.0280
   81SLPC   H6Y 7589   0.592   5.003   3.458  0.2271 -0.9377 -0.7356
   81SLPC   C37 7590   0.656   5.115   3.636 -0.4685 -0.0217  0.7960
   81SLPC   H7X 7591   0.603   5.043   3.702 -0.6475 -1.2709 -0.6480
   81SLPC   H7Y 7592   0.592   5.206   3.629  0.2577  0.3632 -1.8987
   81SLPC   C38 7593   0.785   5.149   3.715  0.5900 -0.2103  0.1093
   81SLPC   H8X 7594   0.857   5.217   3.663 -0.3613  0.1990 -0.7205
   81SLPC   H8Y 7595   0.841   5.053   3.723  3.4652  1.3003 -0.4933
   81SLPC   C39 7596   0.763   5.192   3.866 -0.0711  0.1099 -0.3813
   81SLPC   H9X 7597   0.855   5.155   3.916 -0.7301 -2.5201 -0.9987
   81SLPC   H9Y 7598   0.683   5.136   3.918  1.6688  0.0210  2.4354
   81SLPC  C310 7599   0.757   5.343   3.886  0.0447 -0.2150 -0.3959
   81SLPC  H10X 7600   0.675   5.382   3.822  0.7995  3.6630  0.7402
   81SLPC  H10Y 7601   0.855   5.378   3.846  1.1143 -2.3651  0.1773
   81SLPC  C311 7602   0.737   5.380   4.033 -1.4466 -0.6774  0.3743
   81SLPC  H11X 7603   0.629   5.367   4.057 -1.7344 -0.1152 -0.5495
   81SLPC  H11Y 7604   0.758   5.488   4.049 -0.2869 -1.0244  1.2861
   81SLPC  C312 7605   0.823   5.301   4.133 -0.7765 -0.8091  0.9741
   81SLPC  H12X 7606   0.924   5.316   4.091 -1.4186  1.1287  0.0096
   81SLPC  H12Y 7607   0.795   5.193   4.129 -2.7209 -0.2912 -0.4252
   81SLPC  C313 7608   0.815   5.351   4.279  1.1692  0.7948 -0.6363
   81SLPC  H13X 7609   0.853   5.268   4.343 -0.8545  0.4691  0.2146
   81SLPC  H13Y 7610   0.706   5.364   4.298  0.8849  1.0180 -2.2913
   81SLPC  C314 7611   0.875   5.487   4.309 -0.2312 -0.0059  0.0133
   81SLPC  H14X 7612   0.832   5.555   4.232 -0.3402 -0.2643 -0.1599
   81SLPC  H14Y 7613   0.982   5.487   4.279 -0.9841  1.1789 -3.0825
   81SLPC  C315 7614   0.845   5.524   4.451 -0.0075  0.1841  0.1466
   81SLPC  H15X 7615   0.912   5.469   4.521  0.0026  0.9279  0.7328
   81SLPC  H15Y 7616   0.742   5.496   4.482  0.4997 -0.3963  1.4078
   81SLPC  C316 7617   0.851   5.669   4.469 -0.1023 -0.0027 -0.0241
   81SLPC  H16X 7618   0.796   5.727   4.391  1.5700 -1.2657 -2.2445
   81SLPC  H16Y 7619   0.955   5.703   4.452 -0.2909  2.5027  2.8833
   81SLPC  C317 7620   0.800   5.716   4.609  0.2265 -0.3626  0.1616
   81SLPC  H17X 7621   0.695   5.682   4.613  1.0634 -3.0884  1.8479
   81SLPC  H17Y 7622   0.811   5.826   4.618  1.4985 -0.6215  2.3780
   81SLPC  C318 7623   0.883   5.653   4.720  0.0028  0.6871 -1.0725
   81SLPC  H18X 7624   0.872   5.543   4.727  0.9933  0.6712  1.3566
   81SLPC  H18Y 7625   0.852   5.699   4.817 -1.5095  0.3971 -1.3950
   81SLPC  H18Z 7626   0.990   5.674   4.703 -0.4943  2.8780 -1.8866
   82SLPC     N 7627   6.706   5.596   1.695 -0.3125  0.0923 -0.1639
   82SLPC   C13 7628   6.633   5.729   1.703 -0.3636  0.5986  0.4094
   82SLPC  H13A 7629   6.616   5.765   1.803 -0.2994  4.0630 -0.6818
   82SLPC  H13B 7630   6.687   5.808   1.653 -1.4897 -0.0385 -1.9669
   82SLPC  H13C 7631   6.533   5.723   1.662 -0.4812  0.3351  0.7296
   82SLPC   C14 7632   6.836   5.616   1.763 -0.3755 -0.9020  0.3119
   82SLPC  H14A 7633   6.893   5.689   1.708 -0.1203  0.1584  1.9299
   82SLPC  H14B 7634   6.822   5.653   1.863  1.1903 -0.8788  0.5569
   82SLPC  H14C 7635   6.895   5.526   1.779  0.4093 -0.2145  1.4450
   82SLPC   C15 7636   6.754   5.574   1.551 -0.3137  0.6278 -0.6018
   82SLPC  H15A 7637   6.813   5.484   1.552 -1.5040 -0.1942  1.0950
   82SLPC  H15B 7638   6.669   5.563   1.485 -2.2325 -1.0617  1.9444
   82SLPC  H15C 7639   6.814   5.654   1.509  1.4829 -1.4542 -2.2595
   82SLPC   C12 7640   6.635   5.474   1.748 -0.0966 -0.7927 -0.1537
   82SLPC  H12A 7641   6.693   5.386   1.724  0.9203  0.2064 -1.5554
   82SLPC  H12B 7642   6.539   5.479   1.699  0.1097  2.8685 -0.4704
   82SLPC   C11 7643   6.620   5.482   1.907  0.9748 -0.9265 -0.5116
   82SLPC  H11A 7644   6.536   5.416   1.938 -3.2578  3.8171 -0.5111
   82SLPC  H11B 7645   6.580   5.582   1.933  0.2003 -2.1786  4.1813
   82SLPC     P 7646   6.786   5.314   2.026  0.1559  0.3265 -0.3925
   82SLPC   O13 7647   6.711   5.214   1.946 -0.2204 -0.2740 -0.4058
   82SLPC   O14 7648   6.933   5.306   2.007  0.2064 -0.5148 -0.0739
   82SLPC   O12 7649   6.737   5.459   1.983 -0.0451  0.0842  0.2683
   82SLPC   O11 7650   6.758   5.301   2.180 -0.0455 -0.6409  0.1674
   82SLPC    C1 7651   6.620   5.297   2.223  0.1929  0.5997  0.2751
   82SLPC    HA 7652   6.571   5.396   2.221 -0.0922  0.4546 -1.6000
   82SLPC    HB 7653   6.556   5.240   2.151 -0.8187  0.7917  0.9970
   82SLPC    C2 7654   6.604   5.220   2.359  0.0300  0.4413  0.6427
   82SLPC    HS 7655   6.495   5.199   2.366 -0.0121  0.7686  1.0217
   82SLPC   O21 7656   6.636   5.310   2.472 -0.3444 -0.3575  0.2966
   82SLPC   C21 7657   6.548   5.412   2.498 -0.1685  0.2371 -0.6159
   82SLPC   O22 7658   6.450   5.441   2.431  0.0411  0.2202  0.0146
   82SLPC   C22 7659   6.583   5.481   2.630  0.3560 -0.2889  0.6653
   82SLPC   H2R 7660   6.662   5.554   2.602  1.4395 -2.3179 -2.0799
   82SLPC   H2S 7661   6.497   5.541   2.667 -0.1227 -1.5065  1.6222
   82SLPC    C3 7662   6.677   5.087   2.366  0.8634  0.7480 -0.0670
   82SLPC    HX 7663   6.785   5.116   2.361  1.3384 -0.9463 -0.4269
   82SLPC    HY 7664   6.657   5.020   2.279  0.4226 -0.8339  1.1984
   82SLPC   O31 7665   6.644   5.017   2.490  0.2469  0.2223 -0.8799
   82SLPC   C31 7666   6.740   5.023   2.587 -0.0346 -0.4693 -0.2397
   82SLPC   O32 7667   6.838   5.092   2.584  0.0254  0.0810 -0.3931
   82SLPC   C32 7668   6.694   4.931   2.699 -0.5522  0.9189  0.0585
   82SLPC   H2X 7669   6.704   4.825   2.670  0.7033  1.0147  0.0794
   82SLPC   H2Y 7670   6.583   4.939   2.708 -0.7597  0.8225 -1.9862
   82SLPC   C23 7671   6.640   5.379   2.722 -0.6349  0.0482 -0.5921
   82SLPC   H3R 7672   6.730   5.327   2.683  0.6934 -0.7732  3.1674
   82SLPC   H3S 7673   6.562   5.301   2.736  0.0763 -0.6390 -0.4080
   82SLPC   C24 7674   6.678   5.433   2.863  0.4543 -0.5974  0.4632
   82SLPC   H4R 7675   6.733   5.527   2.843  0.9439 -1.0394 -0.3263
   82SLPC   H4S 7676   6.746   5.355   2.905 -1.9439 -2.2748  1.4860
   82SLPC   C25 7677   6.564   5.448   2.965  0.6109  0.3807 -0.5015
   82SLPC   H5R 7678   6.499   5.528   2.925  1.6150  1.9298  0.8418
   82SLPC   H5S 7679   6.615   5.486   3.056 -3.1247  0.0545  1.9977
   82SLPC   C26 7680   6.487   5.325   3.004 -0.0389  1.0007 -0.5021
   82SLPC   H6R 7681   6.564   5.247   2.988  0.9504  1.9470 -0.4302
   82SLPC   H6S 7682   6.400   5.310   2.937  1.3427 -1.6176 -1.8907
   82SLPC   C27 7683   6.444   5.312   3.155  0.0437  0.0643  1.4025
   82SLPC   H7R 7684   6.526   5.329   3.228 -0.4942 -0.2188  2.0861
   82SLPC   H7S 7685   6.385   5.218   3.161 -1.4547  0.9198  0.7859
   82SLPC   C28 7686   6.345   5.426   3.197 -0.0211 -0.7382 -0.0170
   82SLPC   H8R 7687   6.265   5.426   3.120  2.2694 -0.1034 -2.5386
   82SLPC   H8S 7688   6.399   5.522   3.185 -0.9927  0.0468  1.5811
   82SLPC   C29 7689   6.295   5.404   3.335 -0.1262 -0.0444 -0.0755
   82SLPC   H9R 7690   6.219   5.326   3.350  0.6800 -1.0969 -1.2217
   82SLPC  C210 7691   6.343   5.471   3.445  0.5438  0.3723  0.4433
   82SLPC  H10R 7692   6.292   5.455   3.541 -1.2930  1.3810 -0.2983
   82SLPC  C211 7693   6.451   5.578   3.437 -0.3492 -0.1007  0.1933
   82SLPC  H11R 7694   6.412   5.672   3.394  0.5542 -0.2701 -1.0708
   82SLPC  H11S 7695   6.533   5.543   3.371  0.6590  1.4648  0.5600
   82SLPC  C212 7696   6.509   5.610   3.575  0.2837  0.1613  0.4176
   82SLPC  H12R 7697   6.456   5.679   3.642 -1.8257 -3.0925  2.4100
   82SLPC  C213 7698   6.622   5.562   3.623  0.2781  0.5105  0.0364
   82SLPC  H13R 7699   6.640   5.583   3.730 -1.3125  1.6754  0.1099
   82SLPC  C214 7700   6.725   5.469   3.560 -0.3631 -0.3280  0.0321
   82SLPC  H14R 7701   6.682   5.394   3.491  0.8380 -1.6786  0.6949
   82SLPC  H14S 7702   6.786   5.418   3.638  0.6884 -0.4597 -0.8597
   82SLPC  C215 7703   6.820   5.557   3.472 -1.1718  0.6000 -0.3425
   82SLPC  H15R 7704   6.914   5.500   3.459 -1.8763 -0.2586 -1.8638
   82SLPC  H15S 7705   6.852   5.649   3.527  2.5104  1.2702 -3.2337
   82SLPC  C216 7706   6.778   5.598   3.332 -0.1095  0.6221 -0.2036
   82SLPC  H16R 7707   6.707   5.683   3.340 -0.1559  0.4712  1.1321
   82SLPC  H16S 7708   6.742   5.507   3.279  1.8690  0.6171 -1.6419
   82SLPC  C217 7709   6.882   5.677   3.252 -0.2612  0.4699 -0.2744
   82SLPC  H17R 7710   6.913   5.768   3.306  0.4419 -0.0836  0.2788
   82SLPC  H17S 7711   6.827   5.706   3.161  0.4185 -0.3840 -0.9802
   82SLPC  C218 7712   7.011   5.610   3.223 -0.5846 -0.7391  0.3380
   82SLPC  H18R 7713   6.983   5.507   3.193 -1.7901 -0.1394 -0.7165
   82SLPC  H18S 7714   7.070   5.618   3.316 -0.1868  1.2064 -0.0465
   82SLPC  H18T 7715   7.061   5.654   3.134 -1.4408 -2.8143 -1.2580
   82SLPC   C33 7716   6.765   4.965   2.828 -0.0860  0.2598  0.3874
   82SLPC   H3X 7717   6.761   5.075   2.842 -0.5108  0.3016 -0.0584
   82SLPC   H3Y 7718   6.871   4.932   2.832  0.0550  0.8013  1.3062
   82SLPC   C34 7719   6.695   4.905   2.951  0.1421 -0.4697  0.2781
   82SLPC   H4X 7720   6.683   4.795   2.938  1.3648 -0.4605 -1.2886
   82SLPC   H4Y 7721   6.593   4.949   2.953 -0.5271 -1.9585  0.2009
   82SLPC   C35 7722   6.778   4.927   3.077  0.3757 -0.4536  0.9215
   82SLPC   H5X 7723   6.761   5.023   3.130 -1.8172 -1.0259  1.3246
   82SLPC   H5Y 7724   6.883   4.935   3.041 -0.7153  0.6841 -2.3986
   82SLPC   C36 7725   6.756   4.825   3.194  0.7587 -0.0717  0.2211
   82SLPC   H6X 7726   6.836   4.830   3.271 -0.2629  3.2592  1.2350
   82SLPC   H6Y 7727   6.772   4.720   3.161 -0.0354  0.7650 -3.2633
   82SLPC   C37 7728   6.628   4.851   3.265  0.6750  0.1770 -0.5234
   82SLPC   H7X 7729   6.627   4.775   3.346  2.7564  0.2543 -0.3656
   82SLPC   H7Y 7730   6.535   4.855   3.204  1.6647  0.6932 -2.0369
   82SLPC   C38 7731   6.625   4.988   3.336  0.3084 -0.0694 -0.5259
   82SLPC   H8X 7732   6.628   5.074   3.266 -0.2469  1.7047  1.4920
   82SLPC   H8Y 7733   6.721   4.996   3.392 -0.4072 -1.3234  0.9603
   82SLPC   C39 7734   6.508   5.006   3.435  0.1064 -0.7721 -0.6438
   82SLPC   H9X 7735   6.460   4.910   3.465 -0.0567  0.2902  2.8343
   82SLPC   H9Y 7736   6.430   5.068   3.387 -1.1995 -2.1585 -0.3872
   82SLPC  C310 7737   6.549   5.083   3.562 -0.6437  0.0250 -0.4772
   82SLPC  H10X 7738   6.463   5.121   3.620 -0.8826  0.8788 -1.3689
   82SLPC  H10Y 7739   6.605   5.177   3.546 -1.5889  1.0859  2.0407
   82SLPC  C311 7740   6.645   4.996   3.651 -0.7688 -0.4784  0.0618
   82SLPC  H11X 7741   6.656   5.057   3.743  1.5264  0.0928 -0.5238
   82SLPC  H11Y 7742   6.749   4.998   3.611 -1.4979 -0.7786 -1.9507
   82SLPC  C312 7743   6.610   4.850   3.687  0.6881  0.1714 -0.3247
   82SLPC  H12X 7744   6.698   4.795   3.727 -0.0919 -0.4051  0.6612
   82SLPC  H12Y 7745   6.585   4.797   3.593  1.1933 -1.6269  0.5064
   82SLPC  C313 7746   6.485   4.834   3.775  0.2082  0.4021  0.1652
   82SLPC  H13X 7747   6.446   4.729   3.777 -0.5962  0.6973  1.9728
   82SLPC  H13Y 7748   6.402   4.893   3.730 -0.1768  0.2918  0.7206
   82SLPC  C314 7749   6.505   4.869   3.924  0.0604 -0.1417 -0.8334
   82SLPC  H14X 7750   6.547   4.972   3.937  0.0666 -0.4443  2.7507
   82SLPC  H14Y 7751   6.589   4.812   3.969  0.2224  0.4758 -0.3243
   82SLPC  C315 7752   6.372   4.866   4.003 -0.6396  0.0832  0.5211
   82SLPC  H15X 7753   6.298   4.905   3.930  0.1559  1.6930  0.5180
   82SLPC  H15Y 7754   6.381   4.941   4.085 -1.4922 -0.6297  1.2779
   82SLPC  C316 7755   6.340   4.729   4.074 -0.3633 -0.3033  0.9800
   82SLPC  H16X 7756   6.429   4.715   4.139  0.4971  2.6068  0.6014
   82SLPC  H16Y 7757   6.345   4.648   3.998  0.1115 -1.3581  2.1040
   82SLPC  C317 7758   6.208   4.725   4.156 -0.2628  0.0976 -0.2839
   82SLPC  H17X 7759   6.206   4.827   4.200  0.5714 -1.0296  2.6165
   82SLPC  H17Y 7760   6.215   4.663   4.248 -1.0566  2.4405  1.4390
   82SLPC  C318 7761   6.088   4.687   4.082 -0.0284  0.2559  0.1412
   82SLPC  H18X 7762   6.091   4.740   3.984  2.2015  0.3502  0.2062
   82SLPC  H18Y 7763   5.993   4.697   4.138  0.5665 -1.7856  1.6475
   82SLPC  H18Z 7764   6.086   4.586   4.036  0.0022 -0.2209  1.1589
   83SLPC     N 7765   1.318   6.533   2.177 -0.0810 -0.5603  0.2335
   83SLPC   C13 7766   1.190   6.583   2.128 -0.2453  0.0207  0.2307
   83SLPC  H13A 7767   1.130   6.630   2.205 -1.9123  0.8644 -1.5000
   83SLPC  H13B 7768   1.191   6.649   2.043 -1.6360  0.1722  0.3024
   83SLPC  H13C 7769   1.126   6.502   2.095  3.0951 -2.2634 -1.2174
   83SLPC   C14 7770   1.412   6.645   2.220 -0.2737 -0.1529  1.2430
   83SLPC  H14A 7771   1.354   6.706   2.288 -2.8273 -0.6508 -0.3335
   83SLPC  H14B 7772   1.512   6.617   2.251 -0.1005 -1.9434 -0.7130
   83SLPC  H14C 7773   1.421   6.704   2.130 -0.0052 -2.6103 -0.4431
   83SLPC   C15 7774   1.383   6.467   2.056  1.1030 -0.5524  0.5970
   83SLPC  H15A 7775   1.491   6.467   2.057  1.1146  0.5347  0.5829
   83SLPC  H15B 7776   1.356   6.362   2.051  1.7379 -0.8184  2.1795
   83SLPC  H15C 7777   1.341   6.520   1.972 -1.5514  2.1605  3.3850
   83SLPC   C12 7778   1.309   6.430   2.284  0.5628  0.3604  0.4160
   83SLPC  H12A 7779   1.399   6.372   2.297 -0.2492 -1.0115  0.1191
   83SLPC  H12B 7780   1.260   6.345   2.238  2.2383 -0.9245  0.9338
   83SLPC   C11 7781   1.253   6.471   2.419  0.4261 -0.5753  0.4939
   83SLPC  H11A 7782   1.296   6.562   2.466 -3.4433  0.4498  2.5693
   83SLPC  H11B 7783   1.273   6.394   2.497  1.8017 -0.3663  0.3627
   83SLPC     P 7784   1.006   6.395   2.365  0.1269 -0.2267  0.7834
   83SLPC   O13 7785   0.894   6.465   2.305 -0.3695  0.3043 -0.4279
   83SLPC   O14 7786   1.057   6.281   2.290  0.3284 -0.1451 -0.5242
   83SLPC   O12 7787   1.115   6.503   2.401 -0.0794 -0.0991  0.6476
   83SLPC   O11 7788   0.964   6.343   2.508  0.2698 -0.2248 -0.0622
   83SLPC    C1 7789   1.048   6.262   2.595  0.3953  0.0904  0.3028
   83SLPC    HA 7790   1.150   6.237   2.560  0.6695  1.1769  0.2973
   83SLPC    HB 7791   1.064   6.307   2.695  0.7101 -0.5067  0.5287
   83SLPC    C2 7792   0.968   6.129   2.621 -0.6080  0.5112  0.3848
   83SLPC    HS 7793   0.921   6.099   2.525  0.9398  1.4784 -0.7254
   83SLPC   O21 7794   0.873   6.154   2.722  0.0348 -0.0140  0.8725
   83SLPC   C21 7795   0.780   6.063   2.731  0.3633 -0.2996  0.5463
   83SLPC   O22 7796   0.771   5.961   2.665  0.0227  0.0102 -0.2000
   83SLPC   C22 7797   0.674   6.116   2.830  0.4723  1.2320  0.0648
   83SLPC   H2R 7798   0.620   6.199   2.780  2.1858  2.1525 -0.3216
   83SLPC   H2S 7799   0.598   6.036   2.846 -0.5930  2.4352  1.3203
   83SLPC    C3 7800   1.064   6.013   2.668 -0.6433 -0.1771  0.4725
   83SLPC    HX 7801   1.117   5.988   2.574 -1.1366  2.8225 -0.7093
   83SLPC    HY 7802   1.013   5.921   2.703 -2.0344  0.7056  0.8797
   83SLPC   O31 7803   1.162   6.064   2.762  0.4023  0.3169  0.3274
   83SLPC   C31 7804   1.132   6.040   2.887  0.0038  0.2508 -0.0495
   83SLPC   O32 7805   1.030   5.988   2.931  0.7062  0.5144 -0.0072
   83SLPC   C32 7806   1.260   6.067   2.962  0.4157 -0.1879 -0.3043
   83SLPC   H2X 7807   1.282   6.175   2.944  1.5072 -0.0413  1.5473
   83SLPC   H2Y 7808   1.343   6.004   2.923 -0.1875  0.2207 -2.3271
   83SLPC   C23 7809   0.721   6.131   2.972 -0.6139 -0.0122  0.4077
   83SLPC   H3R 7810   0.818   6.186   2.968 -1.7525  2.2076  1.5290
   83SLPC   H3S 7811   0.736   6.026   3.004  3.0255  0.9029  2.2148
   83SLPC   C24 7812   0.642   6.225   3.062  0.3392  0.6682 -0.6242
   83SLPC   H4R 7813   0.537   6.191   3.078  0.4898  1.6030  3.4347
   83SLPC   H4S 7814   0.639   6.332   3.031 -1.0220  1.5247  2.0608
   83SLPC   C25 7815   0.701   6.237   3.204  0.3232 -0.2347 -0.7973
   83SLPC   H5R 7816   0.810   6.215   3.208 -0.0647 -2.0922  1.3738
   83SLPC   H5S 7817   0.672   6.153   3.271 -1.9203 -0.1842 -1.5997
   83SLPC   C26 7818   0.667   6.372   3.273 -0.3136  0.4256  0.4507
   83SLPC   H6R 7819   0.560   6.402   3.275 -1.0135 -1.7513 -0.7804
   83SLPC   H6S 7820   0.705   6.442   3.196  1.7873 -1.0220  0.0808
   83SLPC   C27 7821   0.728   6.371   3.415 -1.0731  0.2575 -0.1547
   83SLPC   H7R 7822   0.824   6.316   3.424 -0.8522  0.7858  0.8408
   83SLPC   H7S 7823   0.659   6.315   3.482  0.5941 -0.1999  1.2479
   83SLPC   C28 7824   0.760   6.510   3.467 -0.1924  0.6761 -0.3314
   83SLPC   H8R 7825   0.823   6.558   3.389  0.8437  1.7585  1.1109
   83SLPC   H8S 7826   0.814   6.497   3.563 -3.4537 -1.2088  1.4149
   83SLPC   C29 7827   0.643   6.602   3.496  0.6610 -0.1145 -0.4482
   83SLPC   H9R 7828   0.593   6.640   3.406  1.4985  2.4389  0.0958
   83SLPC  C210 7829   0.597   6.656   3.616 -0.0990  0.4665  0.3085
   83SLPC  H10R 7830   0.513   6.726   3.605 -0.4123 -0.2028 -2.1699
   83SLPC  C211 7831   0.648   6.622   3.755  0.0630 -0.1171  0.2294
   83SLPC  H11R 7832   0.754   6.589   3.759  0.5641  1.5299  1.7729
   83SLPC  H11S 7833   0.588   6.530   3.776 -0.4554  0.4414  1.2891
   83SLPC  C212 7834   0.639   6.740   3.860 -0.4634  0.2726  0.3023
   83SLPC  H12R 7835   0.650   6.839   3.814 -0.3462  0.1804  0.1322
   83SLPC  C213 7836   0.596   6.719   3.985  0.5128  0.2241  0.7458
   83SLPC  H13R 7837   0.580   6.810   4.045 -0.5457  0.6348 -0.1173
   83SLPC  C214 7838   0.557   6.589   4.049  0.4736 -1.1358  0.3540
   83SLPC  H14R 7839   0.655   6.556   4.090  0.9610 -0.2253 -0.0458
   83SLPC  H14S 7840   0.518   6.507   3.985 -0.7309  0.4176 -0.9962
   83SLPC  C215 7841   0.462   6.613   4.171  0.5826  0.4754 -0.0991
   83SLPC  H15R 7842   0.369   6.669   4.144  1.4494  1.6718 -0.6726
   83SLPC  H15S 7843   0.508   6.695   4.229 -0.7621  1.7311 -0.7342
   83SLPC  C216 7844   0.439   6.481   4.254  0.2373 -0.3224  0.4857
   83SLPC  H16R 7845   0.413   6.501   4.360  1.1925 -4.3545  1.6777
   83SLPC  H16S 7846   0.541   6.437   4.261  0.6023  0.7764  2.8476
   83SLPC  C217 7847   0.335   6.378   4.193 -0.3801 -0.2618  0.6672
   83SLPC  H17R 7848   0.361   6.277   4.231  1.2815 -0.1483 -0.0654
   83SLPC  H17S 7849   0.345   6.390   4.083  1.9697 -0.6500  0.7882
   83SLPC  C218 7850   0.189   6.404   4.239 -0.3724 -0.2119 -0.7175
   83SLPC  H18R 7851   0.116   6.328   4.204  1.0273 -0.6920 -2.7802
   83SLPC  H18S 7852   0.163   6.504   4.197 -0.1211  0.1980  0.0724
   83SLPC  H18T 7853   0.184   6.413   4.350 -0.2571  0.0743 -0.7329
   83SLPC   C33 7854   1.247   6.038   3.120 -0.4908 -0.6165  0.6630
   83SLPC   H3X 7855   1.222   5.934   3.148  0.2202 -1.2918 -1.0705
   83SLPC   H3Y 7856   1.169   6.105   3.162  0.3573  2.0151 -1.6499
   83SLPC   C34 7857   1.379   6.082   3.194  0.2493  0.4027 -0.2496
   83SLPC   H4X 7858   1.465   6.050   3.131  1.0071  0.2814  0.8260
   83SLPC   H4Y 7859   1.380   6.024   3.288  2.5254 -1.3139 -1.2398
   83SLPC   C35 7860   1.386   6.235   3.216  0.3373 -0.1704  0.1322
   83SLPC   H5X 7861   1.348   6.291   3.127 -3.2462 -1.1555  0.8805
   83SLPC   H5Y 7862   1.494   6.258   3.219 -0.0133  1.6921 -0.2408
   83SLPC   C36 7863   1.312   6.293   3.332 -0.3097  0.2084  0.6860
   83SLPC   H6X 7864   1.383   6.296   3.418 -0.2578  0.1710  0.6444
   83SLPC   H6Y 7865   1.218   6.234   3.342  0.1600 -0.4477  1.3891
   83SLPC   C37 7866   1.251   6.433   3.312 -0.1595 -0.1652 -0.2645
   83SLPC   H7X 7867   1.207   6.446   3.211  0.1014  3.5115 -0.0423
   83SLPC   H7Y 7868   1.340   6.500   3.319  0.7754 -1.4895  1.8073
   83SLPC   C38 7869   1.146   6.462   3.409  0.2386  1.0819  0.0377
   83SLPC   H8X 7870   1.082   6.373   3.428  1.1902  0.6564  1.3375
   83SLPC   H8Y 7871   1.086   6.547   3.370  0.5336  0.8797 -0.8839
   83SLPC   C39 7872   1.195   6.502   3.551 -0.5896 -0.7322  0.7607
   83SLPC   H9X 7873   1.273   6.576   3.525 -2.5030  0.2889 -2.7920
   83SLPC   H9Y 7874   1.252   6.415   3.590  2.2796  0.8537  0.3846
   83SLPC  C310 7875   1.092   6.540   3.646  1.0052 -0.5339 -0.1916
   83SLPC  H10X 7876   1.018   6.458   3.663  0.4014  0.2821  1.3362
   83SLPC  H10Y 7877   1.026   6.623   3.613  1.3134 -0.8555 -1.6838
   83SLPC  C311 7878   1.154   6.575   3.782  0.4272  0.1182 -0.5934
   83SLPC  H11X 7879   1.223   6.662   3.778  0.7881 -0.1518 -0.3091
   83SLPC  H11Y 7880   1.213   6.487   3.814 -0.0013  0.4914  1.3567
   83SLPC  C312 7881   1.052   6.604   3.897  0.1162 -0.1837 -0.4844
   83SLPC  H12X 7882   0.965   6.537   3.883  0.6147 -1.1091  0.6842
   83SLPC  H12Y 7883   1.011   6.706   3.889  1.8140  0.7040  1.3730
   83SLPC  C313 7884   1.112   6.594   4.042  0.5404  0.4549  1.1701
   83SLPC  H13X 7885   1.222   6.607   4.033  0.4305  0.4987 -0.2808
   83SLPC  H13Y 7886   1.091   6.488   4.067 -0.8649  0.3031 -0.5414
   83SLPC  C314 7887   1.041   6.680   4.145  0.1966 -0.2541 -0.5485
   83SLPC  H14X 7888   0.935   6.647   4.153  0.4782 -0.9481  0.4873
   83SLPC  H14Y 7889   1.043   6.785   4.109  0.7708  0.3166  1.0856
   83SLPC  C315 7890   1.106   6.673   4.284 -0.8230 -0.2850 -0.0792
   83SLPC  H15X 7891   1.049   6.737   4.355 -1.2074 -1.1269  0.3854
   83SLPC  H15Y 7892   1.207   6.716   4.268  0.0046 -2.3448 -0.6601
   83SLPC  C316 7893   1.129   6.536   4.351 -0.3389  0.3126  0.3541
   83SLPC  H16X 7894   1.196   6.478   4.284 -1.3215  0.3978 -0.7246
   83SLPC  H16Y 7895   1.035   6.478   4.364  1.1060 -2.8558 -1.8085
   83SLPC  C317 7896   1.194   6.550   4.487  0.4362 -0.5251  0.1204
   83SLPC  H17X 7897   1.117   6.602   4.548 -0.4281  2.0652 -2.9142
   83SLPC  H17Y 7898   1.276   6.624   4.479 -1.3359  1.5178  0.2011
   83SLPC  C318 7899   1.246   6.426   4.552 -0.0932  0.1370  0.3166
   83SLPC  H18X 7900   1.255   6.450   4.660  0.9115  2.6654 -0.2403
   83SLPC  H18Y 7901   1.350   6.406   4.519  0.1413  2.0499 -0.2383
   83SLPC  H18Z 7902   1.190   6.334   4.526  0.7904 -0.3846  0.2228
   84SLPC     N 7903   0.977   5.666   2.447 -0.1697 -0.1814  0.2568
   84SLPC   C13 7904   0.925   5.801   2.399 -0.0023  0.4587 -0.0588
   84SLPC  H13A 7905   0.902   5.803   2.293 -0.8525  2.1837  0.1311
   84SLPC  H13B 7906   0.833   5.824   2.451 -0.3463  2.6109 -1.5266
   84SLPC  H13C 7907   0.989   5.884   2.423  0.0276  0.0638  1.3079
   84SLPC   C14 7908   1.095   5.638   2.360  0.3738 -0.2590 -0.5051
   84SLPC  H14A 7909   1.079   5.649   2.254  1.0328 -2.6836 -0.9135
   84SLPC  H14B 7910   1.173   5.712   2.374  1.1901 -1.3100  0.6798
   84SLPC  H14C 7911   1.127   5.535   2.367 -1.7360 -1.0233 -1.3583
   84SLPC   C15 7912   0.879   5.555   2.414 -0.7446 -0.7988  0.0905
   84SLPC  H15A 7913   0.783   5.556   2.462 -1.4038 -2.9609 -1.0660
   84SLPC  H15B 7914   0.865   5.548   2.307 -1.0598 -1.3713  0.1646
   84SLPC  H15C 7915   0.925   5.461   2.443 -1.6762 -1.3007 -0.0173
   84SLPC   C12 7916   1.025   5.663   2.589  0.4820  0.0523  0.7709
   84SLPC  H12A 7917   0.941   5.671   2.656  0.1679  0.8106  0.2973
   84SLPC  H12B 7918   1.079   5.755   2.608 -1.2357  1.3822 -0.4883
   84SLPC   C11 7919   1.113   5.542   2.622  0.1524 -1.0534 -0.5110
   84SLPC  H11A 7920   1.164   5.561   2.719  2.8719  0.3699 -2.0925
   84SLPC  H11B 7921   1.199   5.546   2.552  0.1103  0.2391 -0.4980
   84SLPC     P 7922   1.106   5.282   2.587  0.1571  0.0105 -0.1788
   84SLPC   O13 7923   1.052   5.191   2.693  0.5055  0.2147 -0.5698
   84SLPC   O14 7924   1.058   5.249   2.451  0.4484  0.4716 -0.2886
   84SLPC   O12 7925   1.047   5.420   2.617  0.3804  0.3701  0.1008
   84SLPC   O11 7926   1.257   5.298   2.592 -0.5654 -0.0120  0.0692
   84SLPC    C1 7927   1.359   5.249   2.675 -0.3207 -0.4316 -0.2998
   84SLPC    HA 7928   1.332   5.150   2.718  0.7021 -0.8759 -0.6320
   84SLPC    HB 7929   1.447   5.230   2.610 -1.3602 -1.4337 -1.4607
   84SLPC    C2 7930   1.407   5.344   2.789  0.0862 -0.1066  0.2838
   84SLPC    HS 7931   1.480   5.297   2.859 -0.0760 -0.5061  0.1864
   84SLPC   O21 7932   1.296   5.394   2.872  0.2004  0.1337  0.4246
   84SLPC   C21 7933   1.253   5.309   2.965 -0.5385  0.0430 -0.0677
   84SLPC   O22 7934   1.305   5.211   3.008 -0.7544 -0.2797 -0.7604
   84SLPC   C22 7935   1.114   5.360   3.011  0.5484 -0.4357 -0.3666
   84SLPC   H2R 7936   1.130   5.467   3.036  0.8165 -0.0632 -2.0243
   84SLPC   H2S 7937   1.054   5.376   2.919 -1.4040  1.5020  1.1499
   84SLPC    C3 7938   1.487   5.464   2.731  0.0977  0.1551  0.6105
   84SLPC    HX 7939   1.429   5.515   2.651  0.5455 -0.8803 -0.4032
   84SLPC    HY 7940   1.579   5.417   2.688 -0.3969  0.6192 -1.0360
   84SLPC   O31 7941   1.529   5.545   2.842  0.3681  0.5945 -0.4962
   84SLPC   C31 7942   1.457   5.648   2.882  0.0887  0.4220  0.1330
   84SLPC   O32 7943   1.356   5.692   2.830 -0.6011 -0.0509  0.1918
   84SLPC   C32 7944   1.509   5.702   3.013  0.8523  0.5457 -0.1641
   84SLPC   H2X 7945   1.528   5.812   3.008  0.0848  0.7814  1.5015
   84SLPC   H2Y 7946   1.603   5.650   3.039  0.6964  1.0471  1.4781
   84SLPC   C23 7947   1.042   5.291   3.128 -0.0505  0.5232  0.1545
   84SLPC   H3R 7948   1.053   5.183   3.108  1.5908  0.6873  0.0615
   84SLPC   H3S 7949   0.939   5.330   3.114  0.6155  2.6215  0.6450
   84SLPC   C24 7950   1.096   5.338   3.261 -0.2806  0.0751 -0.3749
   84SLPC   H4R 7951   1.190   5.292   3.297 -0.9602 -1.1453 -0.0782
   84SLPC   H4S 7952   1.024   5.288   3.330 -2.7570  1.4604 -1.8048
   84SLPC   C25 7953   1.086   5.494   3.283 -0.2752  0.5818 -0.2583
   84SLPC   H5R 7954   0.999   5.536   3.227  2.2739  3.8302 -2.1005
   84SLPC   H5S 7955   1.171   5.554   3.244 -0.1488 -0.2005 -1.2198
   84SLPC   C26 7956   1.045   5.531   3.431 -0.4848  1.0708  0.1541
   84SLPC   H6R 7957   0.944   5.486   3.420  0.4475 -1.2776  0.4920
   84SLPC   H6S 7958   1.039   5.641   3.438  1.7622  1.2476  0.1196
   84SLPC   C27 7959   1.133   5.484   3.554 -0.0697 -0.1413 -0.3182
   84SLPC   H7R 7960   1.209   5.564   3.571  0.2996 -0.3205 -1.1004
   84SLPC   H7S 7961   1.192   5.401   3.511 -2.0403 -0.8653 -1.7738
   84SLPC   C28 7962   1.044   5.476   3.682  0.1566 -0.0073  0.1291
   84SLPC   H8R 7963   0.981   5.385   3.674 -0.3076  0.3177  0.0558
   84SLPC   H8S 7964   0.978   5.564   3.692  1.2066  0.7192  0.8889
   84SLPC   C29 7965   1.119   5.463   3.815 -0.1494 -0.4862 -0.1652
   84SLPC   H9R 7966   1.190   5.379   3.811 -0.6977 -0.9210 -1.8373
   84SLPC  C210 7967   1.105   5.532   3.929 -0.5269 -0.5027  0.6998
   84SLPC  H10R 7968   1.169   5.507   4.014  0.1039 -1.3611 -0.0161
   84SLPC  C211 7969   1.020   5.667   3.937 -0.0413  1.3202 -0.4505
   84SLPC  H11R 7970   0.966   5.658   4.034 -0.0175  1.0269 -0.4633
   84SLPC  H11S 7971   0.943   5.698   3.863  0.4113  2.1205 -0.5914
   84SLPC  C212 7972   1.117   5.776   3.940 -0.2055 -0.4346 -0.2487
   84SLPC  H12R 7973   1.154   5.812   3.843 -0.5695  0.7670  0.0404
   84SLPC  C213 7974   1.164   5.835   4.052 -0.6136  0.8017 -0.5552
   84SLPC  H13R 7975   1.231   5.921   4.041  2.0566 -1.2016 -0.9305
   84SLPC  C214 7976   1.137   5.797   4.198 -0.0864  0.4379 -0.3628
   84SLPC  H14R 7977   1.047   5.733   4.212  1.0857 -1.5146 -1.2544
   84SLPC  H14S 7978   1.124   5.893   4.252  1.1689  1.2866 -1.4889
   84SLPC  C215 7979   1.253   5.716   4.265 -0.5510 -0.0963 -0.4026
   84SLPC  H15R 7980   1.344   5.777   4.253  1.1211 -1.5947  3.1102
   84SLPC  H15S 7981   1.271   5.623   4.208  1.7683  0.3352 -0.4668
   84SLPC  C216 7982   1.232   5.700   4.416  0.2124 -0.2682  0.7974
   84SLPC  H16R 7983   1.144   5.633   4.430 -1.4554  1.9159  1.2588
   84SLPC  H16S 7984   1.217   5.802   4.458  0.7350  0.1631 -0.0456
   84SLPC  C217 7985   1.355   5.636   4.480  0.0104 -0.3154  0.4274
   84SLPC  H17R 7986   1.432   5.715   4.495 -0.0331 -0.1699 -0.0694
   84SLPC  H17S 7987   1.395   5.550   4.422 -1.7872  0.1016 -1.5930
   84SLPC  C218 7988   1.321   5.582   4.624 -0.1108 -0.3149  0.2885
   84SLPC  H18R 7989   1.408   5.540   4.679 -1.8143 -2.3362  1.6064
   84SLPC  H18S 7990   1.252   5.495   4.613  0.0756 -0.5674  1.0653
   84SLPC  H18T 7991   1.268   5.649   4.694  1.5779 -0.3449  1.6698
   84SLPC   C33 7992   1.417   5.680   3.135 -0.3223 -0.0720 -0.2882
   84SLPC   H3X 7993   1.393   5.575   3.158  1.1764 -0.7120 -1.4535
   84SLPC   H3Y 7994   1.322   5.729   3.105 -0.5803 -0.1256  0.4334
   84SLPC   C34 7995   1.482   5.741   3.264  0.3269 -0.5178 -0.1530
   84SLPC   H4X 7996   1.508   5.847   3.241 -0.7953 -0.2178 -0.0954
   84SLPC   H4Y 7997   1.573   5.695   3.307 -0.2092 -1.0142  0.4583
   84SLPC   C35 7998   1.376   5.753   3.370  0.0367  0.3733 -0.1188
   84SLPC   H5X 7999   1.337   5.650   3.385  0.0914  0.2072 -1.0984
   84SLPC   H5Y 8000   1.290   5.811   3.332 -0.7322 -0.2291  0.6728
   84SLPC   C36 8001   1.437   5.804   3.499 -0.4274 -0.4969 -0.0794
   84SLPC   H6X 8002   1.503   5.888   3.469  2.8472 -1.5935  3.3178
   84SLPC   H6Y 8003   1.500   5.721   3.537  2.3966 -0.9901 -5.0338
   84SLPC   C37 8004   1.338   5.854   3.606 -0.5525  0.1401  0.0009
   84SLPC   H7X 8005   1.395   5.852   3.701 -1.1944 -0.4217  0.3769
   84SLPC   H7Y 8006   1.254   5.782   3.601  1.6880 -2.6355 -0.7013
   84SLPC   C38 8007   1.293   5.996   3.589 -0.2475 -0.0239  0.1034
   84SLPC   H8X 8008   1.281   6.025   3.483 -0.3618  2.3721  0.7175
   84SLPC   H8Y 8009   1.356   6.075   3.634  0.7191 -0.2498 -0.8198
   84SLPC   C39 8010   1.153   6.021   3.642  0.1716 -0.4675 -0.2350
   84SLPC   H9X 8011   1.162   6.011   3.752  1.8134 -2.2550 -0.4904
   84SLPC   H9Y 8012   1.096   5.932   3.608  1.2087 -0.8190 -1.1137
   84SLPC  C310 8013   1.090   6.155   3.611  0.3658  0.2691  0.2695
   84SLPC  H10X 8014   1.061   6.156   3.503  0.2269  0.4173  0.3070
   84SLPC  H10Y 8015   1.168   6.227   3.645  0.6858 -0.3011  0.7480
   84SLPC  C311 8016   0.957   6.194   3.688  0.6388 -0.4759 -0.7055
   84SLPC  H11X 8017   0.897   6.101   3.681  0.2589 -0.4465  1.4457
   84SLPC  H11Y 8018   0.900   6.277   3.641 -0.8882 -1.1936 -0.2093
   84SLPC  C312 8019   0.976   6.224   3.836  0.8509 -0.5212 -0.8051
   84SLPC  H12X 8020   1.020   6.326   3.835 -0.7989  0.2276 -0.1239
   84SLPC  H12Y 8021   1.056   6.159   3.879  2.6952  2.3217  0.3555
   84SLPC  C313 8022   0.853   6.217   3.929 -0.2373 -0.3725  1.2205
   84SLPC  H13X 8023   0.817   6.112   3.929  2.6893 -1.4852  0.6710
   84SLPC  H13Y 8024   0.772   6.273   3.877  1.3363  0.5613 -0.3349
   84SLPC  C314 8025   0.860   6.280   4.069  0.0723  0.3970  0.4689
   84SLPC  H14X 8026   0.759   6.266   4.112  0.4939  0.3212  1.4622
   84SLPC  H14Y 8027   0.877   6.389   4.058  1.2786  0.1140 -0.7492
   84SLPC  C315 8028   0.953   6.212   4.170  0.0974 -0.1443  0.1037
   84SLPC  H15X 8029   0.994   6.286   4.242  2.1636 -2.5546  1.5801
   84SLPC  H15Y 8030   1.029   6.153   4.115 -1.1514  0.4640 -2.4110
   84SLPC  C316 8031   0.873   6.106   4.251 -0.0766 -0.4168 -0.0050
   84SLPC  H16X 8032   0.953   6.036   4.283 -0.5996 -1.6821 -1.3542
   84SLPC  H16Y 8033   0.805   6.047   4.185  0.0780 -2.0966  1.2381
   84SLPC  C317 8034   0.779   6.155   4.361  0.4710  0.2058 -0.2467
   84SLPC  H17X 8035   0.726   6.242   4.315  1.0172  0.0719 -1.1345
   84SLPC  H17Y 8036   0.842   6.183   4.448 -0.2760  1.8600 -0.2007
   84SLPC  C318 8037   0.678   6.048   4.402  0.1304  0.1506  0.2561
   84SLPC  H18X 8038   0.600   6.083   4.473 -1.3317  1.3324 -1.8154
   84SLPC  H18Y 8039   0.738   5.968   4.450  0.6040  1.3179  1.6737
   84SLPC  H18Z 8040   0.625   6.006   4.314 -1.4095 -1.0629  1.6938
   85SLPC     N 8041   4.285   5.940   1.865 -0.1795  0.4103 -0.3786
   85SLPC   C13 8042   4.239   5.803   1.848  0.3119 -0.2626  0.0897
   85SLPC  H13A 8043   4.255   5.774   1.745  0.1681 -3.7928  0.9077
   85SLPC  H13B 8044   4.279   5.731   1.918  1.6406  2.3071  2.1137
   85SLPC  H13C 8045   4.132   5.803   1.865  0.2978 -0.3919  0.0036
   85SLPC   C14 8046   4.241   6.034   1.765  0.0610  0.5159 -0.3079
   85SLPC  H14A 8047   4.257   6.003   1.663  1.1561  2.9549 -0.9410
   85SLPC  H14B 8048   4.134   6.046   1.774  0.1388  3.5544 -2.0935
   85SLPC  H14C 8049   4.299   6.125   1.773  0.2458  0.4507 -0.8755
   85SLPC   C15 8050   4.433   5.943   1.870  0.4331  0.1742 -0.6094
   85SLPC  H15A 8051   4.459   6.031   1.926 -0.1301 -0.8814  1.4181
   85SLPC  H15B 8052   4.462   5.857   1.929  2.6783 -0.8823 -3.0272
   85SLPC  H15C 8053   4.488   5.933   1.777  1.6427 -3.6127  0.3303
   85SLPC   C12 8054   4.231   5.983   1.999  0.0049 -0.8715 -0.5008
   85SLPC  H12A 8055   4.127   5.953   1.998 -0.6547  1.0797  1.3237
   85SLPC  H12B 8056   4.243   6.090   1.996  0.2002 -0.9080 -2.1252
   85SLPC   C11 8057   4.289   5.922   2.129  0.1490 -0.3014 -0.2676
   85SLPC  H11A 8058   4.290   5.811   2.132 -0.7959 -0.3078  1.9169
   85SLPC  H11B 8059   4.208   5.927   2.205 -0.0155 -0.0406 -0.4551
   85SLPC     P 8060   4.431   6.095   2.254  0.4822 -0.3218  0.6221
   85SLPC   O13 8061   4.576   6.128   2.263  0.2325  0.3078  0.5664
   85SLPC   O14 8062   4.347   6.197   2.187  0.0165  0.4781  0.2007
   85SLPC   O12 8063   4.427   5.975   2.148 -0.2068 -0.4285 -1.0838
   85SLPC   O11 8064   4.372   6.048   2.392 -0.0659  0.0377  0.2411
   85SLPC    C1 8065   4.401   5.923   2.456 -0.0174  0.6030 -1.1997
   85SLPC    HA 8066   4.317   5.852   2.438 -2.4192  2.8073  0.5872
   85SLPC    HB 8067   4.490   5.875   2.409  1.0385 -1.1514  2.2444
   85SLPC    C2 8068   4.422   5.937   2.617  0.8430  0.2060 -0.4295
   85SLPC    HS 8069   4.463   5.851   2.674  1.0186  1.3031  1.1539
   85SLPC   O21 8070   4.293   5.976   2.672  0.2736  0.2443 -0.2511
   85SLPC   C21 8071   4.204   5.873   2.692 -0.1481  0.2537 -0.1307
   85SLPC   O22 8072   4.226   5.758   2.656  0.1684  0.1308  0.1959
   85SLPC   C22 8073   4.082   5.911   2.762  0.3490 -0.3892  0.6360
   85SLPC   H2R 8074   4.018   5.952   2.681  3.3621  1.5320 -0.9788
   85SLPC   H2S 8075   4.028   5.823   2.803  0.0392 -0.0435  0.9845
   85SLPC    C3 8076   4.520   6.058   2.649 -1.0558  0.6134  0.2467
   85SLPC    HX 8077   4.478   6.150   2.604 -1.4906  0.1166 -0.3729
   85SLPC    HY 8078   4.613   6.029   2.596 -0.7128 -1.3860  1.8110
   85SLPC   O31 8079   4.555   6.063   2.790 -0.7593  0.4365  0.4604
   85SLPC   C31 8080   4.622   6.180   2.810 -0.1392 -0.0241  0.3532
   85SLPC   O32 8081   4.637   6.267   2.731 -0.3994  0.3221  1.4778
   85SLPC   C32 8082   4.647   6.193   2.965 -0.2959 -0.4133  0.2343
   85SLPC   H2X 8083   4.608   6.100   3.011 -1.5353  0.2166  0.4942
   85SLPC   H2Y 8084   4.587   6.279   3.000  0.9631  0.4550  0.3134
   85SLPC   C23 8085   4.102   6.007   2.869  0.3364  0.2515 -0.6140
   85SLPC   H3R 8086   4.079   6.110   2.834 -2.8054  1.5719  4.2545
   85SLPC   H3S 8087   4.196   5.997   2.926  0.9254  0.8323 -1.4499
   85SLPC   C24 8088   3.982   5.984   2.966  0.2768  0.1357  0.4433
   85SLPC   H4R 8089   3.878   5.996   2.931  0.6489  2.1990 -0.0776
   85SLPC   H4S 8090   4.007   6.066   3.037  0.4148  1.0610 -0.6501
   85SLPC   C25 8091   4.003   5.857   3.052 -0.4998  0.0153 -0.8507
   85SLPC   H5R 8092   3.967   5.760   3.012 -2.1256 -0.1706  0.9492
   85SLPC   H5S 8093   4.112   5.837   3.053 -0.7645 -1.5163  0.6499
   85SLPC   C26 8094   3.963   5.872   3.199  0.6944 -0.0241 -0.7333
   85SLPC   H6R 8095   3.853   5.860   3.208  0.8543 -1.3175 -0.1985
   85SLPC   H6S 8096   3.986   5.976   3.230  0.6732  0.8293 -3.3097
   85SLPC   C27 8097   4.033   5.762   3.282  0.3707  0.4738 -0.2593
   85SLPC   H7R 8098   4.143   5.757   3.271  0.3149 -2.3984 -0.2769
   85SLPC   H7S 8099   3.991   5.668   3.239 -2.7737  0.6828  2.0402
   85SLPC   C28 8100   3.994   5.764   3.434  1.0043  0.1378  0.1142
   85SLPC   H8R 8101   4.023   5.667   3.479  2.3042  0.1769 -0.6040
   85SLPC   H8S 8102   3.883   5.763   3.433  0.8930  2.1414  1.9848
   85SLPC   C29 8103   4.051   5.877   3.518  0.5440 -0.2691 -0.1299
   85SLPC   H9R 8104   4.157   5.900   3.501  0.0549  1.5808 -0.8813
   85SLPC  C210 8105   3.983   5.968   3.594  0.3491 -0.2160 -0.4259
   85SLPC  H10R 8106   4.044   6.050   3.635 -1.5162  0.8823  0.2476
   85SLPC  C211 8107   3.831   5.979   3.616  0.2463  0.3732  1.0973
   85SLPC  H11R 8108   3.791   5.893   3.673  1.0549 -0.9041 -0.1884
   85SLPC  H11S 8109   3.778   5.961   3.520  0.8230  0.6986  0.7088
   85SLPC  C212 8110   3.781   6.101   3.688 -0.7145  0.4520  0.4167
   85SLPC  H12R 8111   3.773   6.194   3.630 -1.0281  0.9200  1.1918
   85SLPC  C213 8112   3.754   6.114   3.819  0.2137 -0.3194 -0.4852
   85SLPC  H13R 8113   3.728   6.212   3.861  0.3790  0.9977 -3.2594
   85SLPC  C214 8114   3.781   6.007   3.915 -0.0013  0.4463  0.0735
   85SLPC  H14R 8115   3.824   6.049   4.008  1.7953 -1.6628  0.2570
   85SLPC  H14S 8116   3.874   5.952   3.891  0.6189  0.9221  1.3352
   85SLPC  C215 8117   3.666   5.904   3.945 -0.2507 -0.8092 -0.8081
   85SLPC  H15R 8118   3.646   5.850   3.850  1.0805 -0.9435 -1.0398
   85SLPC  H15S 8119   3.582   5.966   3.984  1.4603  0.4479  1.1181
   85SLPC  C216 8120   3.714   5.798   4.052  0.1715 -0.0501  0.4167
   85SLPC  H16R 8121   3.815   5.760   4.027  0.7239  0.6314  1.5565
   85SLPC  H16S 8122   3.630   5.724   4.057  0.4671 -0.7529 -2.9479
   85SLPC  C217 8123   3.729   5.852   4.201  0.5165  0.4379 -0.3822
   85SLPC  H17R 8124   3.637   5.911   4.222  2.1567  3.5267 -1.2258
   85SLPC  H17S 8125   3.816   5.921   4.190  0.3494  1.5544  3.6581
   85SLPC  C218 8126   3.753   5.738   4.306  0.7486  0.6058  0.0246
   85SLPC  H18R 8127   3.782   5.781   4.404 -1.1593 -1.2725  1.5114
   85SLPC  H18S 8128   3.830   5.669   4.266 -0.0286  1.1315 -2.5973
   85SLPC  H18T 8129   3.665   5.677   4.335 -0.9299  3.7928  2.3597
   85SLPC   C33 8130   4.797   6.228   2.993 -0.4710  0.0862 -1.1390
   85SLPC   H3X 8131   4.838   6.300   2.918  1.8807  0.1294  0.0975
   85SLPC   H3Y 8132   4.842   6.129   2.968  0.1081  0.0090  0.1530
   85SLPC   C34 8133   4.845   6.237   3.135 -0.0195 -0.2251 -0.0540
   85SLPC   H4X 8134   4.793   6.165   3.202  1.7476 -0.5812  1.0151
   85SLPC   H4Y 8135   4.817   6.336   3.176 -1.1401  0.1906 -1.7170
   85SLPC   C35 8136   4.998   6.216   3.151  0.7194  0.0431  0.1638
   85SLPC   H5X 8137   5.050   6.288   3.084 -0.8250  0.6307 -0.4491
   85SLPC   H5Y 8138   5.024   6.117   3.109 -1.7387 -1.7057  2.4379
   85SLPC   C36 8139   5.053   6.222   3.295 -0.3439 -1.2826  0.6773
   85SLPC   H6X 8140   5.015   6.320   3.333 -1.5606 -0.2638 -2.7616
   85SLPC   H6Y 8141   5.164   6.221   3.290 -0.2738  1.8784 -2.0146
   85SLPC   C37 8142   4.993   6.115   3.389  0.1267 -0.3414  0.4570
   85SLPC   H7X 8143   5.011   6.018   3.339 -0.6456 -0.8259  1.0852
   85SLPC   H7Y 8144   4.885   6.134   3.405 -0.0996 -0.7463 -0.5129
   85SLPC   C38 8145   5.060   6.119   3.528 -0.1588  0.0310 -0.4230
   85SLPC   H8X 8146   5.166   6.100   3.499 -0.7136 -1.2019 -1.7815
   85SLPC   H8Y 8147   5.017   6.037   3.589  1.9201 -3.5399 -3.3313
   85SLPC   C39 8148   5.038   6.252   3.609 -0.4893 -0.0912  0.3987
   85SLPC   H9X 8149   4.937   6.278   3.645  0.1415  0.8495  1.5649
   85SLPC   H9Y 8150   5.066   6.340   3.547 -0.2711 -1.6233 -1.8034
   85SLPC  C310 8151   5.137   6.253   3.727  0.6210 -0.1854  0.5132
   85SLPC  H10X 8152   5.119   6.156   3.778  0.0501 -1.1582 -1.4075
   85SLPC  H10Y 8153   5.100   6.330   3.798 -0.2986  1.3090 -1.4802
   85SLPC  C311 8154   5.285   6.277   3.691  0.1316  0.2064  0.2361
   85SLPC  H11X 8155   5.306   6.371   3.635  1.1072  0.0981  0.4077
   85SLPC  H11Y 8156   5.324   6.203   3.619  0.2963  1.0260 -0.5344
   85SLPC  C312 8157   5.387   6.264   3.815  0.3955 -0.4904 -0.4110
   85SLPC  H12X 8158   5.374   6.168   3.869  0.4207 -0.3466 -0.1495
   85SLPC  H12Y 8159   5.369   6.355   3.876 -4.3674 -1.4845  0.0838
   85SLPC  C313 8160   5.529   6.264   3.747 -0.4778  0.0875  0.2543
   85SLPC  H13X 8161   5.558   6.366   3.713 -0.6367  0.3968  1.0101
   85SLPC  H13Y 8162   5.523   6.188   3.666  0.3208 -0.0086  0.2837
   85SLPC  C314 8163   5.643   6.223   3.842  0.7829 -0.3489 -1.1029
   85SLPC  H14X 8164   5.626   6.118   3.872  0.4594 -0.3399 -1.2550
   85SLPC  H14Y 8165   5.624   6.293   3.926 -1.5297 -0.8406 -1.1667
   85SLPC  C315 8166   5.780   6.236   3.790  0.0704  0.5627  0.0724
   85SLPC  H15X 8167   5.788   6.340   3.751  2.2978  1.7607  3.2974
   85SLPC  H15Y 8168   5.804   6.159   3.714  3.8090  0.5985  1.0555
   85SLPC  C316 8169   5.885   6.226   3.905  0.3600 -0.0159  0.4273
   85SLPC  H16X 8170   5.883   6.128   3.957  1.8470 -0.4055 -0.1872
   85SLPC  H16Y 8171   5.873   6.310   3.977  1.1232  0.6154 -0.1518
   85SLPC  C317 8172   6.031   6.245   3.859 -0.6882  0.6342 -0.6547
   85SLPC  H17X 8173   6.043   6.333   3.791  2.7262  0.8514  0.0448
   85SLPC  H17Y 8174   6.065   6.169   3.785  0.6801 -1.0897  1.6386
   85SLPC  C318 8175   6.139   6.257   3.972 -0.1340 -0.1690  0.0047
   85SLPC  H18X 8176   6.242   6.262   3.932  0.4419  2.3704  1.5854
   85SLPC  H18Y 8177   6.130   6.168   4.039  2.1842 -0.4692 -0.0242
   85SLPC  H18Z 8178   6.127   6.351   4.030  1.6888 -0.8920  1.6749
   86SLPC     N 8179   0.451   3.884   2.102 -0.0223 -0.5654  0.0094
   86SLPC   C13 8180   0.449   4.034   2.085  0.4013 -0.4074 -0.5290
   86SLPC  H13A 8181   0.512   4.086   2.156 -0.5443 -1.8489  1.4592
   86SLPC  H13B 8182   0.489   4.056   1.987 -0.7637 -2.8012 -1.6139
   86SLPC  H13C 8183   0.350   4.078   2.089  0.7555  0.3524  0.6575
   86SLPC   C14 8184   0.594   3.839   2.062 -0.0198 -0.4744 -0.3382
   86SLPC  H14A 8185   0.618   3.738   2.092 -0.9647  0.3807  3.9546
   86SLPC  H14B 8186   0.613   3.858   1.957  1.6982  2.2075  0.3674
   86SLPC  H14C 8187   0.662   3.900   2.118 -1.8539  0.0872  1.4037
   86SLPC   C15 8188   0.355   3.836   2.001  0.2185  0.1005  0.4838
   86SLPC  H15A 8189   0.378   3.864   1.899 -1.9669  0.3921  0.0225
   86SLPC  H15B 8190   0.339   3.729   2.001 -0.9980  0.2685  0.5909
   86SLPC  H15C 8191   0.258   3.881   2.017 -0.1954  0.1155 -1.7028
   86SLPC   C12 8192   0.397   3.840   2.241 -0.7736 -0.2515  0.1899
   86SLPC  H12A 8193   0.407   3.733   2.245  0.5269 -0.1156  1.0558
   86SLPC  H12B 8194   0.293   3.861   2.262 -1.1078 -2.9404  1.6985
   86SLPC   C11 8195   0.478   3.901   2.363  0.1445 -0.1183 -0.4576
   86SLPC  H11A 8196   0.588   3.887   2.355  0.9180  4.0173  0.6636
   86SLPC  H11B 8197   0.442   3.847   2.453  1.1533  0.5040  0.3387
   86SLPC     P 8198   0.319   4.093   2.437 -0.2147  0.5245  0.3928
   86SLPC   O13 8199   0.302   4.233   2.410  0.2050 -0.1175  0.0538
   86SLPC   O14 8200   0.210   4.000   2.396  0.0276 -0.4857 -0.0139
   86SLPC   O12 8201   0.448   4.043   2.374 -0.0786  0.1230 -0.2765
   86SLPC   O11 8202   0.350   4.069   2.587  0.3735 -0.1439  0.4717
   86SLPC    C1 8203   0.440   4.134   2.668  0.4158  0.5676  0.4358
   86SLPC    HA 8204   0.532   4.142   2.606 -0.8943 -0.3976 -1.7290
   86SLPC    HB 8205   0.407   4.238   2.691 -0.7925  0.8684 -2.3543
   86SLPC    C2 8206   0.465   4.049   2.792 -0.0482 -0.7316  0.3068
   86SLPC    HS 8207   0.505   3.949   2.766 -3.4242 -1.7627 -1.5259
   86SLPC   O21 8208   0.348   4.040   2.880  0.2845  0.2025  0.0763
   86SLPC   C21 8209   0.259   3.943   2.850 -0.0009 -0.6861 -0.1456
   86SLPC   O22 8210   0.278   3.850   2.777  0.2920  0.4138  0.6838
   86SLPC   C22 8211   0.143   3.945   2.937  0.4163 -0.5724  0.1693
   86SLPC   H2R 8212   0.092   3.848   2.921 -0.1676 -0.2586  0.0916
   86SLPC   H2S 8213   0.183   3.931   3.039 -0.5497  0.5801  0.7260
   86SLPC    C3 8214   0.583   4.122   2.868  0.0134  0.0770 -0.1794
   86SLPC    HX 8215   0.538   4.220   2.894 -0.3893 -0.2248  0.2933
   86SLPC    HY 8216   0.670   4.141   2.802 -1.1227 -1.5774 -2.2568
   86SLPC   O31 8217   0.626   4.062   2.996 -0.4807 -0.5918  0.0826
   86SLPC   C31 8218   0.717   3.968   2.985  0.2967 -0.4957 -0.7174
   86SLPC   O32 8219   0.755   3.913   2.886  0.6604 -0.6165  0.0670
   86SLPC   C32 8220   0.761   3.931   3.131 -0.4296  0.1292  0.1660
   86SLPC   H2X 8221   0.667   3.928   3.190 -1.0471 -3.2102 -0.7585
   86SLPC   H2Y 8222   0.829   4.010   3.169  0.1778  0.5878 -1.7492
   86SLPC   C23 8223   0.048   4.061   2.913 -0.6611  0.0003  0.0105
   86SLPC   H3R 8224  -0.012   4.035   2.823  0.3994 -0.3324 -0.6110
   86SLPC   H3S 8225   0.093   4.161   2.897 -1.8191  0.2951 -1.7662
   86SLPC   C24 8226  -0.065   4.069   3.020 -0.0183 -0.2951  0.1974
   86SLPC   H4R 8227  -0.100   3.965   3.036  1.0977 -0.8455 -0.7642
   86SLPC   H4S 8228  -0.151   4.125   2.978 -0.9397 -1.7297  0.0971
   86SLPC   C25 8229  -0.022   4.128   3.153  0.0596 -0.2622 -0.1093
   86SLPC   H5R 8230  -0.008   4.238   3.155 -1.4535 -0.0528  0.8190
   86SLPC   H5S 8231   0.071   4.074   3.180 -0.3374 -1.3994 -0.9441
   86SLPC   C26 8232  -0.134   4.110   3.254  0.1620  0.3172 -0.1222
   86SLPC   H6R 8233  -0.217   4.178   3.225 -0.1828 -0.3392 -0.7080
   86SLPC   H6S 8234  -0.092   4.137   3.353 -0.6694 -1.9639  0.9151
   86SLPC   C27 8235  -0.202   3.969   3.266 -0.1912  0.8668 -0.5198
   86SLPC   H7R 8236  -0.225   3.925   3.167  0.2021  0.7238 -0.5476
   86SLPC   H7S 8237  -0.297   3.981   3.322 -1.1045 -1.8534 -1.3337
   86SLPC   C28 8238  -0.119   3.876   3.361 -0.5396  1.0432 -0.1005
   86SLPC   H8R 8239  -0.155   3.875   3.466 -3.1282 -3.5054 -0.7585
   86SLPC   H8S 8240  -0.012   3.904   3.356 -0.0662 -0.3618  1.4186
   86SLPC   C29 8241  -0.129   3.729   3.320 -0.1002  0.2841  0.3134
   86SLPC   H9R 8242  -0.170   3.706   3.221 -2.1993 -1.2252  1.4568
   86SLPC  C210 8243  -0.084   3.630   3.402  0.2032  0.1703 -0.7423
   86SLPC  H10R 8244  -0.122   3.528   3.383 -1.9006  0.0877  2.9161
   86SLPC  C211 8245  -0.039   3.658   3.539 -0.3437  0.1524 -0.6143
   86SLPC  H11R 8246  -0.133   3.675   3.597 -1.0029 -2.0240 -0.9658
   86SLPC  H11S 8247   0.027   3.747   3.553 -0.9771  0.9073 -2.2248
   86SLPC  C212 8248   0.025   3.526   3.585 -0.6470 -0.5523  0.8228
   86SLPC  H12R 8249   0.133   3.523   3.563 -0.4768  2.5595  0.6916
   86SLPC  C213 8250  -0.040   3.430   3.646 -0.1625 -0.5970  0.5525
   86SLPC  H13R 8251   0.032   3.356   3.684  1.8389 -0.1020 -2.0383
   86SLPC  C214 8252  -0.183   3.422   3.698  0.5941  0.9085 -0.2302
   86SLPC  H14R 8253  -0.226   3.337   3.641 -2.0827  0.0472  2.8048
   86SLPC  H14S 8254  -0.242   3.515   3.682  0.5223  0.8984 -0.0199
   86SLPC  C215 8255  -0.187   3.382   3.848 -0.5766 -0.1779  1.1871
   86SLPC  H15R 8256  -0.094   3.324   3.869  0.6257  0.5478 -1.7104
   86SLPC  H15S 8257  -0.273   3.322   3.886 -2.5176  2.9040  2.0313
   86SLPC  C216 8258  -0.204   3.511   3.929  0.1128 -0.3729  0.3692
   86SLPC  H16R 8259  -0.310   3.540   3.916  0.4894  2.3481  2.5162
   86SLPC  H16S 8260  -0.146   3.598   3.890 -1.0215 -0.7661 -2.4914
   86SLPC  C217 8261  -0.185   3.504   4.079 -0.1465  0.8129  0.0924
   86SLPC  H17R 8262  -0.206   3.602   4.127  0.3752  2.2814 -2.4703
   86SLPC  H17S 8263  -0.078   3.486   4.104  0.3182  3.3668  0.2193
   86SLPC  C218 8264  -0.276   3.403   4.154  0.3931 -0.3947  0.0306
   86SLPC  H18R 8265  -0.298   3.446   4.254 -1.6575 -1.8198  0.2597
   86SLPC  H18S 8266  -0.230   3.302   4.153 -2.0828 -1.6007  0.0485
   86SLPC  H18T 8267  -0.377   3.393   4.108 -0.9798 -1.4808  3.0506
   86SLPC   C33 8268   0.843   3.793   3.143  0.7589  0.0430  0.0417
   86SLPC   H3X 8269   0.936   3.804   3.083  0.6008  0.8248 -0.0737
   86SLPC   H3Y 8270   0.782   3.710   3.102  1.5753  0.1982 -1.5809
   86SLPC   C34 8271   0.892   3.775   3.287 -0.4860 -0.1089  0.1949
   86SLPC   H4X 8272   0.933   3.874   3.317  0.6125  0.9523 -4.1513
   86SLPC   H4Y 8273   0.979   3.707   3.296  0.1267  0.6130 -0.2016
   86SLPC   C35 8274   0.783   3.734   3.385  0.0602 -0.6429  0.1335
   86SLPC   H5X 8275   0.728   3.646   3.344 -1.6719  0.1958  0.5635
   86SLPC   H5Y 8276   0.709   3.817   3.392  0.3056 -0.4548  0.5029
   86SLPC   C36 8277   0.831   3.699   3.522 -0.2357  0.0476 -0.2263
   86SLPC   H6X 8278   0.899   3.775   3.565  0.8018 -1.5010  1.0264
   86SLPC   H6Y 8279   0.877   3.598   3.513 -1.2101 -0.2729 -2.1634
   86SLPC   C37 8280   0.723   3.694   3.641  0.2426 -0.4970  0.2344
   86SLPC   H7X 8281   0.685   3.798   3.649  1.0773 -0.2139  0.5713
   86SLPC   H7Y 8282   0.787   3.669   3.728  1.7270  2.0145 -0.0447
   86SLPC   C38 8283   0.611   3.589   3.636 -0.2703  0.7542  0.0280
   86SLPC   H8X 8284   0.653   3.486   3.638 -0.9364  0.4996  1.3329
   86SLPC   H8Y 8285   0.563   3.601   3.536  1.6685 -0.4351 -1.1218
   86SLPC   C39 8286   0.513   3.600   3.752  0.1176  0.0928  0.8705
   86SLPC   H9X 8287   0.551   3.547   3.842 -1.9102 -0.6863  1.3257
   86SLPC   H9Y 8288   0.427   3.534   3.725  1.5567 -1.1026 -0.9922
   86SLPC  C310 8289   0.468   3.743   3.787  0.3353  0.4472  0.0753
   86SLPC  H10X 8290   0.424   3.784   3.694  0.0498 -2.7713 -1.3547
   86SLPC  H10Y 8291   0.556   3.808   3.808  1.5458  0.2431 -3.5856
   86SLPC  C311 8292   0.363   3.739   3.896 -0.3725  0.4069  0.3317
   86SLPC  H11X 8293   0.363   3.837   3.948 -1.6556  0.5109  0.1499
   86SLPC  H11Y 8294   0.387   3.665   3.976 -1.3725 -0.6742 -0.3511
   86SLPC  C312 8295   0.224   3.708   3.841 -0.6567  0.0303 -0.4366
   86SLPC  H12X 8296   0.229   3.606   3.798  2.1270  0.7753 -2.1162
   86SLPC  H12Y 8297   0.202   3.766   3.749 -1.2619 -2.0167 -1.6434
   86SLPC  C313 8298   0.114   3.727   3.937 -0.1251 -0.2244  0.2550
   86SLPC  H13X 8299   0.154   3.750   4.038  0.9321  0.5589 -0.3140
   86SLPC  H13Y 8300   0.050   3.637   3.941 -1.5854  0.6382 -1.7552
   86SLPC  C314 8301   0.020   3.848   3.897  0.6585 -0.2955 -0.6998
   86SLPC  H14X 8302  -0.070   3.850   3.962  2.3988  2.1345  1.8772
   86SLPC  H14Y 8303  -0.017   3.846   3.792 -1.7863  0.3166  0.1040
   86SLPC  C315 8304   0.096   3.982   3.915  0.4591 -0.4110  0.3863
   86SLPC  H15X 8305   0.188   3.964   3.856  0.1678  0.9277 -0.5399
   86SLPC  H15Y 8306   0.112   4.008   4.022  1.9147 -1.0730  0.3435
   86SLPC  C316 8307   0.020   4.110   3.855 -0.3688  0.3878  0.0799
   86SLPC  H16X 8308  -0.016   4.095   3.751 -0.2331 -2.3165  0.3586
   86SLPC  H16Y 8309   0.095   4.191   3.871 -0.9076  1.1262 -1.0375
   86SLPC  C317 8310  -0.100   4.154   3.927 -0.5094 -0.0569 -0.6611
   86SLPC  H17X 8311  -0.060   4.153   4.031 -1.0535 -1.5375 -0.4378
   86SLPC  H17Y 8312  -0.177   4.074   3.914  1.6002 -2.1163 -1.1513
   86SLPC  C318 8313  -0.147   4.288   3.870 -0.2885  0.0518  0.4899
   86SLPC  H18X 8314  -0.230   4.335   3.927  1.1271 -0.1120  2.8265
   86SLPC  H18Y 8315  -0.188   4.278   3.767 -0.0614  1.8883  0.1916
   86SLPC  H18Z 8316  -0.066   4.364   3.869  1.0702 -1.3112 -1.6204
   87SLPC     N 8317   4.369   1.712   2.101 -0.6692 -0.2151 -0.1109
   87SLPC   C13 8318   4.281   1.680   1.984  0.0929 -0.0759 -0.0251
   87SLPC  H13A 8319   4.178   1.661   2.010 -0.4767  1.3914 -1.0745
   87SLPC  H13B 8320   4.282   1.765   1.917 -0.9914 -0.4315 -0.5126
   87SLPC  H13C 8321   4.323   1.601   1.923  1.3877  1.7164 -1.5721
   87SLPC   C14 8322   4.513   1.699   2.061  0.1077 -0.1009  0.7297
   87SLPC  H14A 8323   4.528   1.749   1.967 -1.4829  2.4263  1.7280
   87SLPC  H14B 8324   4.563   1.751   2.141 -0.7391  3.0590 -0.6630
   87SLPC  H14C 8325   4.545   1.596   2.068  1.4859  0.2727  0.2012
   87SLPC   C15 8326   4.347   1.609   2.212 -0.2584  0.2309 -0.1055
   87SLPC  H15A 8327   4.415   1.628   2.293  0.6571 -0.8232 -0.6054
   87SLPC  H15B 8328   4.248   1.621   2.253  0.2792  2.5014  0.6845
   87SLPC  H15C 8329   4.365   1.508   2.178 -1.1045  0.0403 -0.0073
   87SLPC   C12 8330   4.341   1.858   2.142  0.2692 -0.2911  0.3954
   87SLPC  H12A 8331   4.237   1.863   2.173 -0.3468 -1.8005 -1.2755
   87SLPC  H12B 8332   4.333   1.926   2.059 -3.5082  0.1777  0.9358
   87SLPC   C11 8333   4.431   1.919   2.255 -0.0603 -0.6084 -0.4512
   87SLPC  H11A 8334   4.418   1.852   2.343 -0.3567 -0.6392 -0.5164
   87SLPC  H11B 8335   4.392   2.017   2.287 -1.4315 -0.2817 -2.8535
   87SLPC     P 8336   4.644   2.062   2.196 -0.0124  0.0289 -0.4303
   87SLPC   O13 8337   4.744   2.029   2.090  0.0384  0.2127  0.5077
   87SLPC   O14 8338   4.553   2.178   2.177  0.1617  0.0195 -0.9107
   87SLPC   O12 8339   4.567   1.924   2.220 -0.6123 -0.2214 -0.1441
   87SLPC   O11 8340   4.723   2.077   2.332  0.6591  0.8568 -0.3592
   87SLPC    C1 8341   4.749   1.965   2.418 -0.6692 -0.1104 -0.0922
   87SLPC    HA 8342   4.733   1.868   2.367 -1.0268  0.4085 -0.9920
   87SLPC    HB 8343   4.850   1.988   2.457  0.3697  0.0139 -2.6764
   87SLPC    C2 8344   4.650   1.964   2.538  0.7094  0.3166 -0.0652
   87SLPC    HS 8345   4.546   1.982   2.503 -0.1896  0.5892  2.5748
   87SLPC   O21 8346   4.690   2.071   2.626 -0.7093  0.0679  0.5172
   87SLPC   C21 8347   4.642   2.187   2.602 -0.2234 -0.8143 -0.4192
   87SLPC   O22 8348   4.567   2.216   2.511 -0.4110  0.5547 -0.2722
   87SLPC   C22 8349   4.702   2.287   2.703 -0.3203 -0.6474  0.2980
   87SLPC   H2R 8350   4.639   2.292   2.794  1.2720  2.2821  1.3634
   87SLPC   H2S 8351   4.804   2.253   2.733 -0.0946  0.4692  0.8604
   87SLPC    C3 8352   4.655   1.829   2.616 -0.5722 -0.9272 -0.5309
   87SLPC    HX 8353   4.751   1.819   2.671  0.1456 -0.8054 -1.7417
   87SLPC    HY 8354   4.650   1.744   2.546  1.7012 -2.3241  0.8695
   87SLPC   O31 8355   4.551   1.844   2.716  0.2401 -0.4556  0.2750
   87SLPC   C31 8356   4.539   1.721   2.779 -0.8545 -0.0581 -0.5950
   87SLPC   O32 8357   4.596   1.618   2.748  0.6227 -0.3027 -0.3317
   87SLPC   C32 8358   4.416   1.736   2.872 -0.4348 -0.6746 -0.2496
   87SLPC   H2X 8359   4.326   1.709   2.812  0.0473  0.6493 -1.6260
   87SLPC   H2Y 8360   4.396   1.840   2.904 -0.0233 -1.4925  3.1124
   87SLPC   C23 8361   4.691   2.433   2.652 -0.6733  0.3002 -0.4169
   87SLPC   H3R 8362   4.598   2.451   2.594 -0.1956  2.1836 -0.6868
   87SLPC   H3S 8363   4.763   2.443   2.568  1.6226  3.0665  1.6828
   87SLPC   C24 8364   4.716   2.554   2.744  0.9279 -0.2526 -0.0736
   87SLPC   H4R 8365   4.674   2.641   2.689  0.4688 -1.0721 -1.0608
   87SLPC   H4S 8366   4.825   2.568   2.752  1.0635  0.0058 -1.8522
   87SLPC   C25 8367   4.650   2.547   2.890 -0.0228 -0.4919 -0.1439
   87SLPC   H5R 8368   4.702   2.460   2.936  0.7353  0.5581  1.0302
   87SLPC   H5S 8369   4.544   2.512   2.887  0.2304 -1.3408  0.4560
   87SLPC   C26 8370   4.665   2.679   2.968 -0.1702  0.0019  0.4875
   87SLPC   H6R 8371   4.771   2.703   2.988 -0.2288  0.7873 -0.0954
   87SLPC   H6S 8372   4.616   2.658   3.066  0.8009 -1.8453  0.6243
   87SLPC   C27 8373   4.600   2.809   2.907  0.4449 -0.7063  0.6454
   87SLPC   H7R 8374   4.495   2.791   2.875 -0.2568  0.8408  1.9394
   87SLPC   H7S 8375   4.650   2.823   2.809  1.8536 -2.5523  1.0355
   87SLPC   C28 8376   4.606   2.935   2.982 -0.2910  0.3073 -0.0295
   87SLPC   H8R 8377   4.559   3.011   2.916 -2.7848 -0.4569  0.7303
   87SLPC   H8S 8378   4.712   2.966   2.995 -0.2721  0.1094  0.3029
   87SLPC   C29 8379   4.523   2.942   3.106 -0.2956 -0.2609 -0.2867
   87SLPC   H9R 8380   4.414   2.942   3.093 -0.0654 -1.2375 -2.7504
   87SLPC  C210 8381   4.570   2.948   3.227  0.5704  0.0832 -0.3913
   87SLPC  H10R 8382   4.493   2.945   3.306  0.2944 -2.3918 -0.6500
   87SLPC  C211 8383   4.705   2.986   3.273 -0.5026  0.4358  0.2564
   87SLPC  H11R 8384   4.702   3.065   3.351  1.2724 -1.1098  2.0218
   87SLPC  H11S 8385   4.772   3.013   3.189  1.1798 -0.2493  1.3236
   87SLPC  C212 8386   4.771   2.874   3.349  0.3292  0.7242 -0.4648
   87SLPC  H12R 8387   4.792   2.786   3.286  0.4381  0.6052 -0.2622
   87SLPC  C213 8388   4.797   2.855   3.477  0.0777  0.7075 -0.4672
   87SLPC  H13R 8389   4.850   2.768   3.518  0.9226  0.1683 -2.5574
   87SLPC  C214 8390   4.774   2.944   3.595  0.7532 -0.3872 -0.5722
   87SLPC  H14R 8391   4.707   2.894   3.668 -0.1765  1.2175 -0.2797
   87SLPC  H14S 8392   4.722   3.040   3.578  1.3531 -0.1815 -1.3032
   87SLPC  C215 8393   4.909   2.987   3.663  0.2213 -0.1368  0.1452
   87SLPC  H15R 8394   4.985   3.015   3.587 -1.6023  0.5448 -1.5359
   87SLPC  H15S 8395   4.952   2.904   3.722  0.3701 -0.8164 -0.9010
   87SLPC  C216 8396   4.893   3.114   3.758  0.3186  0.6343  0.4520
   87SLPC  H16R 8397   4.877   3.205   3.696 -0.2015 -0.3567 -0.8996
   87SLPC  H16S 8398   4.994   3.122   3.804  0.2451  0.4205  0.6539
   87SLPC  C217 8399   4.784   3.094   3.861 -0.1573 -0.1184 -0.8756
   87SLPC  H17R 8400   4.678   3.095   3.826 -1.4126 -0.3588  2.5111
   87SLPC  H17S 8401   4.799   3.166   3.944  0.8284 -2.5787  1.2105
   87SLPC  C218 8402   4.794   2.960   3.937 -0.3702 -0.5426  0.0528
   87SLPC  H18R 8403   4.889   2.970   3.992 -0.1551  2.1212 -0.6390
   87SLPC  H18S 8404   4.802   2.868   3.875 -5.0865 -0.9201 -0.4311
   87SLPC  H18T 8405   4.709   2.948   4.008  1.8428 -0.9728  2.7555
   87SLPC   C33 8406   4.433   1.642   2.990 -0.1409  0.3427 -0.9244
   87SLPC   H3X 8407   4.486   1.550   2.958  0.9082  0.9885 -1.0969
   87SLPC   H3Y 8408   4.331   1.614   3.023  1.2339 -1.9243  1.8163
   87SLPC   C34 8409   4.495   1.693   3.119 -1.4049 -0.6325 -0.5241
   87SLPC   H4X 8410   4.476   1.801   3.137  2.5325  0.0930  0.3562
   87SLPC   H4Y 8411   4.606   1.693   3.110 -1.3140  1.6196 -0.0480
   87SLPC   C35 8412   4.459   1.609   3.244 -0.4507 -0.8488  0.1215
   87SLPC   H5X 8413   4.485   1.503   3.225  3.6456 -0.1533  0.9592
   87SLPC   H5Y 8414   4.354   1.608   3.281 -0.3553  0.4088  0.4656
   87SLPC   C36 8415   4.535   1.665   3.369  0.0697 -0.8990 -0.4975
   87SLPC   H6X 8416   4.534   1.776   3.378  0.2829 -1.0231  1.3863
   87SLPC   H6Y 8417   4.642   1.640   3.352  1.0610  2.6640 -0.3442
   87SLPC   C37 8418   4.501   1.600   3.500  0.5323 -0.1675 -0.4353
   87SLPC   H7X 8419   4.519   1.490   3.493  1.7228  0.0134 -0.5518
   87SLPC   H7Y 8420   4.395   1.619   3.524  0.7477 -1.6284  2.1396
   87SLPC   C38 8421   4.587   1.662   3.613 -0.2267  0.8104  0.0924
   87SLPC   H8X 8422   4.602   1.772   3.612  1.7613  0.5873  0.7411
   87SLPC   H8Y 8423   4.691   1.621   3.616  0.1688  1.8213  0.4473
   87SLPC   C39 8424   4.531   1.617   3.744 -0.4855  0.1378  0.1174
   87SLPC   H9X 8425   4.528   1.508   3.764 -0.0362 -0.2188 -1.6099
   87SLPC   H9Y 8426   4.424   1.646   3.733  0.1143  1.9560 -1.4883
   87SLPC  C310 8427   4.607   1.692   3.860  0.1901  0.5369  0.0600
   87SLPC  H10X 8428   4.608   1.802   3.841  0.6861  0.4352 -0.5456
   87SLPC  H10Y 8429   4.710   1.659   3.883 -0.3202 -1.1693  0.0292
   87SLPC  C311 8430   4.529   1.658   3.991 -0.1239 -0.3811 -0.0718
   87SLPC  H11X 8431   4.516   1.549   4.007 -0.3739 -0.1433  1.5222
   87SLPC  H11Y 8432   4.429   1.705   3.988  1.4068  3.3289  1.0640
   87SLPC  C312 8433   4.611   1.691   4.116 -0.4499 -0.3005  0.1330
   87SLPC  H12X 8434   4.630   1.800   4.106 -0.4489 -0.4444 -1.6419
   87SLPC  H12Y 8435   4.711   1.644   4.111 -0.8051 -0.9681 -1.3452
   87SLPC  C313 8436   4.542   1.675   4.246  0.0821  0.3453 -0.2165
   87SLPC  H13X 8437   4.547   1.566   4.268 -0.8584  0.7617  2.5059
   87SLPC  H13Y 8438   4.437   1.710   4.242 -1.0758 -2.8401 -0.7647
   87SLPC  C314 8439   4.607   1.741   4.375 -0.0541 -0.4040 -0.2834
   87SLPC  H14X 8440   4.644   1.843   4.350  1.9960 -0.7039  1.2713
   87SLPC  H14Y 8441   4.693   1.674   4.395 -0.6222 -1.5191 -1.4446
   87SLPC  C315 8442   4.511   1.750   4.499 -0.4773 -0.4215  0.0939
   87SLPC  H15X 8443   4.473   1.647   4.518 -1.6436  0.1942  1.1930
   87SLPC  H15Y 8444   4.428   1.818   4.472 -0.2097 -0.0834  0.1091
   87SLPC  C316 8445   4.571   1.786   4.626  0.2052  0.1324 -0.5725
   87SLPC  H16X 8446   4.611   1.889   4.638  0.6059 -0.2374  1.5077
   87SLPC  H16Y 8447   4.660   1.723   4.647  0.2614  0.2605 -0.4295
   87SLPC  C317 8448   4.468   1.773   4.744 -0.8410 -0.0882 -0.0674
   87SLPC  H17X 8449   4.413   1.678   4.732 -0.1934 -0.2173 -2.8582
   87SLPC  H17Y 8450   4.394   1.855   4.727 -1.2278 -0.5882 -0.8686
   87SLPC  C318 8451   4.549   1.766   4.878  1.0383 -0.2231  0.0829
   87SLPC  H18X 8452   4.608   1.856   4.905  2.4459 -1.5444  1.6504
   87SLPC  H18Y 8453   4.620   1.680   4.876  3.1571  1.4358  0.7616
   87SLPC  H18Z 8454   4.474   1.746   4.957 -2.8537  1.5031 -2.8206
   88SLPC     N 8455   6.454   2.869   2.119 -0.5317 -0.1513  0.2994
   88SLPC   C13 8456   6.603   2.848   2.101 -0.6104 -0.1298  0.2338
   88SLPC  H13A 8457   6.619   2.758   2.043 -2.1810  1.4011 -2.8190
   88SLPC  H13B 8458   6.653   2.921   2.038 -1.7219  0.8001  0.3912
   88SLPC  H13C 8459   6.660   2.844   2.192  0.4569 -1.0059 -0.4535
   88SLPC   C14 8460   6.397   2.872   1.980  0.9366  0.1580  0.1130
   88SLPC  H14A 8461   6.432   2.954   1.919 -2.8970  0.9395 -1.2963
   88SLPC  H14B 8462   6.426   2.786   1.921  0.7709 -0.4293  0.8782
   88SLPC  H14C 8463   6.290   2.877   1.980  0.9664  1.1064 -0.6289
   88SLPC   C15 8464   6.441   2.999   2.195 -0.1837 -0.2794  0.0179
   88SLPC  H15A 8465   6.508   3.006   2.279  0.0307 -3.0425  0.1620
   88SLPC  H15B 8466   6.457   3.082   2.128 -1.7677 -0.2925 -0.4283
   88SLPC  H15C 8467   6.339   3.016   2.226 -0.5192  0.8098 -1.5802
   88SLPC   C12 8468   6.402   2.751   2.200  0.1954 -0.1271  0.1732
   88SLPC  H12A 8469   6.400   2.663   2.138  0.2345 -1.4190  1.9507
   88SLPC  H12B 8470   6.297   2.773   2.216 -0.3355 -1.6240 -1.0409
   88SLPC   C11 8471   6.468   2.711   2.337 -0.1747 -0.2249 -0.6311
   88SLPC  H11A 8472   6.407   2.640   2.397  1.4005  0.4822  1.9623
   88SLPC  H11B 8473   6.472   2.808   2.392  2.2530 -0.5671 -0.1007
   88SLPC     P 8474   6.689   2.588   2.423  0.4825 -0.0884  0.1573
   88SLPC   O13 8475   6.660   2.440   2.410  0.1638 -0.6139  0.4177
   88SLPC   O14 8476   6.831   2.622   2.392  0.1579 -0.7020  0.1996
   88SLPC   O12 8477   6.599   2.662   2.318 -0.2491 -0.2231 -0.3396
   88SLPC   O11 8478   6.650   2.645   2.562  0.7462  0.2007 -0.0643
   88SLPC    C1 8479   6.684   2.778   2.597  0.9437 -0.7064  0.4042
   88SLPC    HA 8480   6.712   2.838   2.507  0.7598  1.1474  1.5315
   88SLPC    HB 8481   6.597   2.828   2.644  2.1183  1.2141  0.6173
   88SLPC    C2 8482   6.793   2.788   2.695 -0.3805 -0.0444  0.1492
   88SLPC    HS 8483   6.877   2.729   2.652 -0.3603 -0.0240  0.1599
   88SLPC   O21 8484   6.756   2.737   2.822 -0.1291 -0.5422 -0.0232
   88SLPC   C21 8485   6.854   2.677   2.883  0.5460 -0.4399 -0.3734
   88SLPC   O22 8486   6.970   2.675   2.853 -0.3394 -0.0320  0.1208
   88SLPC   C22 8487   6.792   2.603   2.993  0.4010 -0.5613 -0.4785
   88SLPC   H2R 8488   6.682   2.615   2.996  0.4200  0.1737 -1.9950
   88SLPC   H2S 8489   6.812   2.498   2.962  0.7136 -1.2268  1.8251
   88SLPC    C3 8490   6.852   2.932   2.718 -0.1287 -0.2299  0.6613
   88SLPC    HX 8491   6.871   2.972   2.616  0.8336  0.7392  1.1938
   88SLPC    HY 8492   6.948   2.929   2.773  1.2030  1.5928 -1.3732
   88SLPC   O31 8493   6.769   3.017   2.788  0.0837 -0.2622 -0.0783
   88SLPC   C31 8494   6.823   3.140   2.793  0.7150 -0.2024 -0.3359
   88SLPC   O32 8495   6.927   3.173   2.749 -0.2275  0.6455 -0.1299
   88SLPC   C32 8496   6.710   3.224   2.860  1.3305  0.1570  0.1257
   88SLPC   H2X 8497   6.673   3.173   2.951 -0.1008 -1.0909 -1.0839
   88SLPC   H2Y 8498   6.626   3.247   2.790  3.1482  0.9248 -1.9086
   88SLPC   C23 8499   6.861   2.639   3.132  0.1933  0.5176  0.1424
   88SLPC   H3R 8500   6.823   2.739   3.161  0.3959  0.3207  1.1206
   88SLPC   H3S 8501   6.971   2.645   3.121  0.1399  0.2939 -0.5253
   88SLPC   C24 8502   6.826   2.539   3.241 -0.5977  0.2503 -0.0144
   88SLPC   H4R 8503   6.873   2.566   3.338 -2.2696 -0.6946  1.1091
   88SLPC   H4S 8504   6.874   2.442   3.216  2.2346  1.8482 -1.1385
   88SLPC   C25 8505   6.675   2.529   3.262 -0.7974 -0.0803  0.1105
   88SLPC   H5R 8506   6.665   2.437   3.323  2.9562 -1.1476 -0.6133
   88SLPC   H5S 8507   6.620   2.524   3.166  0.6621  1.9392 -0.9192
   88SLPC   C26 8508   6.619   2.659   3.332  0.1332  0.1638 -0.0304
   88SLPC   H6R 8509   6.606   2.738   3.255  0.4611 -0.8800 -1.1767
   88SLPC   H6S 8510   6.701   2.695   3.397  0.4741 -0.3437 -0.1754
   88SLPC   C27 8511   6.509   2.625   3.424  0.5387 -0.0771 -0.9680
   88SLPC   H7R 8512   6.536   2.540   3.490  0.5089  1.0699  0.5815
   88SLPC   H7S 8513   6.426   2.587   3.361  0.3592 -1.8261  0.2469
   88SLPC   C28 8514   6.454   2.737   3.514 -0.6812  0.5740 -0.0011
   88SLPC   H8R 8515   6.423   2.827   3.456  0.2495  0.9498  0.0714
   88SLPC   H8S 8516   6.548   2.766   3.565 -0.3128 -0.4373 -0.0790
   88SLPC   C29 8517   6.347   2.693   3.611 -0.0387 -0.0098 -0.5111
   88SLPC   H9R 8518   6.245   2.712   3.575 -0.3286 -0.2910  0.1442
   88SLPC  C210 8519   6.366   2.641   3.734  0.5507  0.2240  0.1467
   88SLPC  H10R 8520   6.284   2.617   3.804 -0.9144 -1.0324 -1.8722
   88SLPC  C211 8521   6.504   2.608   3.788  0.3379 -0.2174  0.5247
   88SLPC  H11R 8522   6.520   2.676   3.874  1.2461 -0.2126  0.3682
   88SLPC  H11S 8523   6.585   2.647   3.723  0.0134 -2.0257 -1.0545
   88SLPC  C212 8524   6.528   2.465   3.817 -0.2557  0.1716 -0.5247
   88SLPC  H12R 8525   6.571   2.415   3.730  2.7836  3.1726 -0.9629
   88SLPC  C213 8526   6.524   2.403   3.935 -0.3653 -0.2324  0.1117
   88SLPC  H13R 8527   6.557   2.298   3.942 -0.4950 -0.5348 -2.5579
   88SLPC  C214 8528   6.492   2.469   4.067  0.1270  0.0105  0.1940
   88SLPC  H14R 8529   6.571   2.545   4.085  1.0032 -0.6969 -0.5355
   88SLPC  H14S 8530   6.483   2.390   4.144  0.3238  0.3404  0.5539
   88SLPC  C215 8531   6.358   2.536   4.087 -0.2505  0.3167  0.0697
   88SLPC  H15R 8532   6.278   2.461   4.071 -1.8039  1.4048  2.2465
   88SLPC  H15S 8533   6.343   2.624   4.020 -5.9365  0.9342  1.6603
   88SLPC  C216 8534   6.342   2.588   4.227  0.1199  0.0209 -0.0730
   88SLPC  H16R 8535   6.425   2.640   4.278 -0.4691  0.9919 -0.0926
   88SLPC  H16S 8536   6.325   2.493   4.282  0.3573 -1.5832 -2.5964
   88SLPC  C217 8537   6.224   2.676   4.240 -0.1455 -1.0388  0.5003
   88SLPC  H17R 8538   6.134   2.622   4.202  0.5805 -1.6173 -0.4575
   88SLPC  H17S 8539   6.236   2.758   4.166  1.8949 -1.6972  0.0488
   88SLPC  C218 8540   6.201   2.728   4.381  0.0351 -0.3862 -0.4610
   88SLPC  H18R 8541   6.104   2.779   4.397  0.3309 -0.1539  0.6276
   88SLPC  H18S 8542   6.282   2.801   4.402  0.1874 -0.5952 -0.3163
   88SLPC  H18T 8543   6.211   2.639   4.447 -0.5749 -2.2385 -2.7016
   88SLPC   C33 8544   6.783   3.348   2.921  0.2131 -0.1131 -0.3707
   88SLPC   H3X 8545   6.712   3.417   2.972  2.4379  1.0936  1.2899
   88SLPC   H3Y 8546   6.826   3.402   2.834  0.1062 -1.5521 -1.3466
   88SLPC   C34 8547   6.894   3.316   3.028 -0.2382 -0.8432  0.1905
   88SLPC   H4X 8548   6.941   3.412   3.055 -1.8127 -0.8065  3.3307
   88SLPC   H4Y 8549   6.968   3.253   2.976  0.0237 -0.5833  0.2489
   88SLPC   C35 8550   6.846   3.254   3.166  0.0344 -0.3799 -0.0451
   88SLPC   H5X 8551   6.743   3.291   3.186  0.2728 -0.5526  1.6344
   88SLPC   H5Y 8552   6.902   3.286   3.256 -0.2642 -1.1867  0.4401
   88SLPC   C36 8553   6.854   3.100   3.173  0.3956  0.0239 -0.3812
   88SLPC   H6X 8554   6.960   3.068   3.182  0.0396 -1.3057 -0.6631
   88SLPC   H6Y 8555   6.811   3.065   3.077  0.3320  0.3000 -0.4532
   88SLPC   C37 8556   6.765   3.048   3.283  0.9655 -0.0892  0.6050
   88SLPC   H7X 8557   6.772   2.938   3.268 -1.4068 -0.3987  1.3435
   88SLPC   H7Y 8558   6.665   3.086   3.253  0.8498 -1.4232 -0.8627
   88SLPC   C38 8559   6.798   3.098   3.427 -0.3311  1.0901  0.3775
   88SLPC   H8X 8560   6.773   3.205   3.442 -3.4353  0.6920 -1.1843
   88SLPC   H8Y 8561   6.909   3.094   3.428 -0.2439  1.6190 -2.0084
   88SLPC   C39 8562   6.747   3.003   3.534  0.3042  0.4862  0.0516
   88SLPC   H9X 8563   6.768   2.900   3.497  1.2644  0.8156 -0.3440
   88SLPC   H9Y 8564   6.638   3.025   3.540  0.2512  0.4559 -0.7056
   88SLPC  C310 8565   6.807   3.017   3.681 -0.8751  0.3170  0.3644
   88SLPC  H10X 8566   6.786   3.123   3.706  0.7754  1.2742 -1.9430
   88SLPC  H10Y 8567   6.918   3.013   3.669 -1.0474 -0.4339 -1.2935
   88SLPC  C311 8568   6.756   2.915   3.779  0.3235 -0.5569 -0.6799
   88SLPC  H11X 8569   6.774   2.808   3.754 -1.0683 -0.7121 -1.1413
   88SLPC  H11Y 8570   6.645   2.925   3.787  0.3941 -0.6669  0.7143
   88SLPC  C312 8571   6.808   2.951   3.921  0.8583 -0.0481 -0.1835
   88SLPC  H12X 8572   6.754   3.046   3.945 -0.1340 -0.3241 -1.2369
   88SLPC  H12Y 8573   6.915   2.979   3.924  0.5626  1.2722 -0.8666
   88SLPC  C313 8574   6.773   2.849   4.024  0.0151  0.8120 -0.0393
   88SLPC  H13X 8575   6.835   2.758   4.008 -0.5244  0.4403 -0.0435
   88SLPC  H13Y 8576   6.675   2.802   4.003  1.5289 -3.4544  1.2971
   88SLPC  C314 8577   6.787   2.900   4.170 -0.0914 -0.1319  0.5198
   88SLPC  H14X 8578   6.745   3.003   4.168  1.7821  0.6535 -0.0671
   88SLPC  H14Y 8579   6.894   2.915   4.195  0.4022 -0.0540 -1.4738
   88SLPC  C315 8580   6.717   2.829   4.291 -0.3006 -0.3065  0.7103
   88SLPC  H15X 8581   6.779   2.739   4.309  0.1290 -0.3087 -0.6905
   88SLPC  H15Y 8582   6.619   2.795   4.251  0.7193  0.1054 -2.4200
   88SLPC  C316 8583   6.699   2.919   4.410  0.2063 -0.5530  0.4169
   88SLPC  H16X 8584   6.615   2.989   4.392  1.8830  1.0890 -1.6478
   88SLPC  H16Y 8585   6.793   2.976   4.427  0.0454  0.7954 -2.4586
   88SLPC  C317 8586   6.656   2.829   4.524  0.2000  0.4037 -0.5330
   88SLPC  H17X 8587   6.564   2.770   4.500 -0.9344  1.7646  0.2762
   88SLPC  H17Y 8588   6.627   2.899   4.606 -1.9827 -1.2608  0.2156
   88SLPC  C318 8589   6.770   2.735   4.581  0.2115 -0.5532 -0.2930
   88SLPC  H18X 8590   6.807   2.655   4.512 -1.2798 -0.7894 -0.8613
   88SLPC  H18Y 8591   6.718   2.680   4.662 -0.4305  0.1908 -0.1835
   88SLPC  H18Z 8592   6.850   2.801   4.620 -1.0619  2.3474 -2.2455
   89SAPE     N 8593   1.781   6.607   7.001 -0.7623  0.2169 -0.0693
   89SAPE   HN1 8594   1.861   6.670   6.980  1.7146 -2.8549 -0.6834
   89SAPE   HN2 8595   1.715   6.657   7.063  0.0016  1.6577 -0.3622
   89SAPE   HN3 8596   1.821   6.525   7.051 -0.9370  0.5244  0.5816
   89SAPE   C12 8597   1.733   6.556   6.868 -0.3320  0.2240 -0.3051
   89SAPE  H12A 8598   1.653   6.624   6.833 -0.6258 -0.7647 -1.6343
   89SAPE  H12B 8599   1.691   6.457   6.899 -0.2821  0.1065 -0.6102
   89SAPE   C11 8600   1.844   6.542   6.761  0.5752  0.1705  0.0859
   89SAPE  H11A 8601   1.796   6.514   6.665  0.2127 -2.1169  0.8756
   89SAPE  H11B 8602   1.907   6.454   6.785 -2.2557 -1.3387  2.7429
   89SAPE     P 8603   1.858   6.791   6.684 -0.1775 -0.5514 -0.3840
   89SAPE   O13 8604   1.739   6.836   6.751 -0.3148  0.1603 -0.2848
   89SAPE   O14 8605   1.964   6.895   6.678 -0.3973 -0.2144 -0.1881
   89SAPE   O12 8606   1.914   6.665   6.754 -0.6197 -0.2161  0.4152
   89SAPE   O11 8607   1.820   6.734   6.544  0.1101 -0.3478  0.4209
   89SAPE    C1 8608   1.918   6.674   6.470 -0.9773  0.0816  0.3972
   89SAPE    HA 8609   2.017   6.724   6.472 -0.2081 -1.3535 -0.0884
   89SAPE    HB 8610   1.942   6.571   6.505  2.4469  1.0123  1.1546
   89SAPE    C2 8611   1.872   6.658   6.319  0.1166 -0.6503 -0.3128
   89SAPE    HS 8612   1.928   6.576   6.270  0.9846 -0.0546 -0.3384
   89SAPE   O21 8613   1.884   6.772   6.235  0.1949  0.3390  0.4831
   89SAPE   C21 8614   2.003   6.798   6.194  0.1351  0.7157  0.0138
   89SAPE   O22 8615   2.101   6.726   6.209  0.4725  0.1581  0.2449
   89SAPE   C22 8616   2.003   6.936   6.134  0.4842  0.5323 -0.2001
   89SAPE   H2R 8617   1.900   6.976   6.140 -0.0911 -0.7941 -0.8657
   89SAPE   H2S 8618   2.085   6.985   6.191  0.9831 -1.9810  1.4243
   89SAPE    C3 8619   1.725   6.610   6.311 -0.1568 -0.2439 -0.4597
   89SAPE    HX 8620   1.652   6.675   6.364 -0.0841  0.4569 -1.2033
   89SAPE    HY 8621   1.717   6.520   6.375  0.7645 -0.2550 -0.3475
   89SAPE   O31 8622   1.672   6.568   6.182 -1.0702 -0.7448 -0.2727
   89SAPE   C31 8623   1.616   6.665   6.103  0.8461  0.4249  0.3544
   89SAPE   O32 8624   1.596   6.777   6.140  0.1688  0.0841  0.1357
   89SAPE   C32 8625   1.593   6.615   5.960 -0.2370  0.3339 -0.0127
   89SAPE   H2X 8626   1.578   6.506   5.967 -0.8928  0.4320  0.2165
   89SAPE   H2Y 8627   1.691   6.618   5.908  0.9589 -5.2279  1.3095
   89SAPE   C23 8628   2.038   6.930   5.978  0.8253  0.3750  0.2150
   89SAPE   H3R 8629   2.140   6.887   5.970  0.6804  0.1561 -0.5890
   89SAPE   H3S 8630   2.033   7.027   5.923  0.4342 -0.9720 -2.2635
   89SAPE   C24 8631   1.921   6.847   5.909 -0.7352  0.4851 -0.4548
   89SAPE   H4R 8632   1.832   6.822   5.970 -0.0234 -0.4630  0.2263
   89SAPE   H4S 8633   1.959   6.742   5.899 -0.8759  0.5117 -1.3547
   89SAPE   C25 8634   1.876   6.900   5.771 -0.1664  0.0435 -0.1275
   89SAPE   H5R 8635   1.893   6.833   5.685 -1.5825  0.7230 -0.9530
   89SAPE   C26 8636   1.819   7.022   5.754  0.3732  0.6100  0.1961
   89SAPE   H6R 8637   1.793   7.042   5.649  2.7627  0.9259 -0.3888
   89SAPE   C27 8638   1.800   7.134   5.856 -0.3742 -0.3847 -0.6282
   89SAPE   H7R 8639   1.834   7.224   5.801 -0.7056 -0.6021 -1.1994
   89SAPE   H7S 8640   1.854   7.125   5.953 -0.9477  1.3052 -0.1160
   89SAPE   C28 8641   1.658   7.151   5.904 -0.2402 -0.3301  0.7169
   89SAPE   H8R 8642   1.612   7.058   5.941 -1.7743 -0.0595 -0.4022
   89SAPE   C29 8643   1.587   7.269   5.914 -0.0882  0.4190 -0.0501
   89SAPE   H9R 8644   1.479   7.271   5.931 -0.0349  2.3955  0.2898
   89SAPE  C210 8645   1.629   7.397   5.860  0.0981 -0.4532 -0.3285
   89SAPE  H10R 8646   1.629   7.391   5.749 -1.2448 -0.6984 -0.3243
   89SAPE  H10S 8647   1.738   7.407   5.879  0.3306  0.6620 -2.0740
   89SAPE  C211 8648   1.556   7.515   5.913 -0.8083 -0.0446  0.4430
   89SAPE  H11R 8649   1.580   7.523   6.020 -0.4182 -1.3730  0.4737
   89SAPE  C212 8650   1.472   7.598   5.851  0.5595 -0.1242 -0.0752
   89SAPE  H12R 8651   1.422   7.669   5.920  1.6868  0.5721  0.0556
   89SAPE  C213 8652   1.429   7.596   5.708 -0.7103 -0.3139  0.4044
   89SAPE  H13R 8653   1.514   7.553   5.650 -0.5222  0.1349  0.3465
   89SAPE  H13S 8654   1.428   7.699   5.668 -0.7283 -0.7628 -0.7910
   89SAPE  C214 8655   1.303   7.535   5.669  0.1312  0.5975 -0.0201
   89SAPE  H14R 8656   1.257   7.481   5.753  0.4074  2.2071  1.2340
   89SAPE  C215 8657   1.274   7.504   5.542 -0.1978 -0.0071  0.1338
   89SAPE  H15R 8658   1.179   7.456   5.513  0.5661  0.1389 -2.9872
   89SAPE  C216 8659   1.353   7.537   5.418  0.2838  0.2671 -0.1661
   89SAPE  H16R 8660   1.434   7.607   5.447 -0.4614  1.4722 -0.8543
   89SAPE  H16S 8661   1.280   7.585   5.348 -1.5286 -0.5068  1.1123
   89SAPE  C217 8662   1.418   7.414   5.348 -0.6677 -0.4078 -0.2889
   89SAPE  H17R 8663   1.460   7.451   5.252  1.3012 -0.3593  0.5475
   89SAPE  H17S 8664   1.339   7.337   5.334 -3.7539  1.9356  2.5279
   89SAPE  C218 8665   1.537   7.352   5.427 -0.2897 -0.4593  0.0335
   89SAPE  H18R 8666   1.510   7.312   5.527  1.5308 -1.6187  0.1185
   89SAPE  H18S 8667   1.595   7.447   5.436 -0.2903 -0.3681 -0.8940
   89SAPE  C219 8668   1.609   7.246   5.350 -0.0751 -0.1416 -0.0501
   89SAPE  H19R 8669   1.636   7.290   5.252 -0.3555  3.3846  1.3244
   89SAPE  H19S 8670   1.539   7.165   5.319  0.4569 -0.4813 -0.3751
   89SAPE  C220 8671   1.723   7.198   5.443  0.2224  0.2825  0.5376
   89SAPE  H20R 8672   1.685   7.187   5.547  2.8122 -0.4781  1.4971
   89SAPE  H20S 8673   1.806   7.271   5.453 -0.7607  1.5204 -0.1420
   89SAPE  H20T 8674   1.774   7.101   5.421  1.5649 -0.0183  4.2337
   89SAPE   C33 8675   1.473   6.676   5.891 -0.4676  0.2790  0.6396
   89SAPE   H3X 8676   1.510   6.733   5.803  3.2198 -0.8191  1.3465
   89SAPE   H3Y 8677   1.414   6.751   5.949 -1.2784  0.3364 -0.2268
   89SAPE   C34 8678   1.371   6.570   5.855  0.3702  0.8678 -0.1640
   89SAPE   H4X 8679   1.361   6.494   5.935  0.9425  1.0511  0.0868
   89SAPE   H4Y 8680   1.399   6.508   5.767 -1.2853 -1.4841  0.8640
   89SAPE   C35 8681   1.229   6.630   5.834 -0.8112  0.3962  0.7389
   89SAPE   H5X 8682   1.246   6.703   5.752  2.3004 -1.6872 -0.6923
   89SAPE   H5Y 8683   1.198   6.689   5.922 -0.2686 -0.5131  1.5621
   89SAPE   C36 8684   1.117   6.538   5.776 -0.1995  0.5534 -0.7296
   89SAPE   H6X 8685   1.050   6.514   5.861 -1.5839  0.2832 -1.8665
   89SAPE   H6Y 8686   1.153   6.442   5.734  1.4092  0.6644  0.2816
   89SAPE   C37 8687   1.038   6.610   5.671  1.2080 -0.3276  0.1395
   89SAPE   H7X 8688   1.111   6.650   5.598 -0.6819  0.6521 -1.2995
   89SAPE   H7Y 8689   0.973   6.693   5.708  2.0022 -0.2885  1.5527
   89SAPE   C38 8690   0.952   6.505   5.602  0.5531 -0.0622  0.8119
   89SAPE   H8X 8691   0.903   6.435   5.673 -1.1405  0.5228  0.2688
   89SAPE   H8Y 8692   1.025   6.457   5.533 -1.1233  0.4916 -1.4768
   89SAPE   C39 8693   0.856   6.581   5.505 -0.2856 -0.0810 -0.5224
   89SAPE   H9X 8694   0.903   6.669   5.457 -0.1518  0.9042  1.3083
   89SAPE   H9Y 8695   0.772   6.613   5.570  0.3252 -0.9290  0.7476
   89SAPE  C310 8696   0.788   6.484   5.404 -0.1790 -0.7229 -0.3464
   89SAPE  H10X 8697   0.738   6.398   5.453  0.6690  0.0040  1.8728
   89SAPE  H10Y 8698   0.874   6.439   5.350 -0.4266 -2.5370  0.7094
   89SAPE  C311 8699   0.683   6.546   5.315 -0.1263  0.5778 -0.5920
   89SAPE  H11X 8700   0.596   6.560   5.382  0.9622  0.8678  0.8249
   89SAPE  H11Y 8701   0.659   6.479   5.229  2.4781 -0.6059 -0.4898
   89SAPE  C312 8702   0.723   6.682   5.257 -0.3547 -0.6324  0.6925
   89SAPE  H12X 8703   0.812   6.666   5.194  0.0397  1.0886  0.7575
   89SAPE  H12Y 8704   0.751   6.758   5.333 -1.2512 -0.5467  0.9488
   89SAPE  C313 8705   0.613   6.752   5.174  0.7113 -0.1233  0.9845
   89SAPE  H13X 8706   0.654   6.845   5.129  0.7348 -0.4337  0.3394
   89SAPE  H13Y 8707   0.531   6.782   5.243 -1.5884 -2.9327 -0.2929
   89SAPE  C314 8708   0.554   6.663   5.064 -0.1051 -0.5341 -0.4214
   89SAPE  H14X 8709   0.508   6.569   5.102 -0.8162 -0.4450 -1.0322
   89SAPE  H14Y 8710   0.629   6.634   4.987  0.1849 -0.6454 -0.0981
   89SAPE  C315 8711   0.459   6.744   4.971 -0.1269 -0.4085 -0.3905
   89SAPE  H15X 8712   0.518   6.828   4.928  0.5367 -1.3656 -1.4211
   89SAPE  H15Y 8713   0.372   6.779   5.031  1.3788  0.4823  1.3983
   89SAPE  C316 8714   0.412   6.666   4.845 -0.2683 -0.2039 -0.6316
   89SAPE  H16X 8715   0.351   6.577   4.869 -1.7732  1.0713  0.4801
   89SAPE  H16Y 8716   0.490   6.602   4.798 -2.4465 -3.0251 -0.7013
   89SAPE  C317 8717   0.336   6.736   4.738 -0.0431 -0.2947  0.2227
   89SAPE  H17X 8718   0.400   6.823   4.711 -0.0352 -0.4821 -0.3764
   89SAPE  H17Y 8719   0.244   6.784   4.776  2.6266  4.0002  1.9385
   89SAPE  C318 8720   0.319   6.654   4.613 -0.2198  0.3907  0.2456
   89SAPE  H18X 8721   0.253   6.706   4.540 -0.7127  0.1896  0.5397
   89SAPE  H18Y 8722   0.262   6.561   4.638 -0.1243  0.2685  0.0077
   89SAPE  H18Z 8723   0.419   6.632   4.571 -0.3398  0.1894  0.0641
   90SAPE     N 8724   4.601   0.318   6.779 -0.2299 -0.2820  0.0243
   90SAPE   HN1 8725   4.516   0.377   6.771 -1.2662 -1.6471  0.5322
   90SAPE   HN2 8726   4.579   0.228   6.827  1.9808 -0.6566  0.4449
   90SAPE   HN3 8727   4.670   0.370   6.837  0.9928  0.2814 -1.8787
   90SAPE   C12 8728   4.657   0.278   6.645  0.3016 -0.8586 -0.6236
   90SAPE  H12A 8729   4.715   0.184   6.655  0.2783 -0.6971  1.4957
   90SAPE  H12B 8730   4.727   0.355   6.605  0.8331 -0.7938  0.4136
   90SAPE   C11 8731   4.546   0.258   6.540  0.6768 -1.0538  0.0433
   90SAPE  H11A 8732   4.600   0.211   6.454 -0.6094 -2.3225 -0.1113
   90SAPE  H11B 8733   4.515   0.358   6.504  1.4551 -1.2651 -1.2894
   90SAPE     P 8734   4.451   0.022   6.543 -0.0857  0.0608  0.4469
   90SAPE   O13 8735   4.590  -0.024   6.551 -0.3803  0.4297 -0.4288
   90SAPE   O14 8736   4.350  -0.052   6.621 -0.3701 -0.4183 -0.7099
   90SAPE   O12 8737   4.444   0.181   6.584 -0.7387  0.0760 -0.1275
   90SAPE   O11 8738   4.414   0.020   6.391 -0.1575  0.3263 -0.5241
   90SAPE    C1 8739   4.301   0.092   6.333 -0.3238  0.4166  0.0571
   90SAPE    HA 8740   4.207   0.088   6.392 -0.0089 -1.5203  0.4853
   90SAPE    HB 8741   4.337   0.196   6.320  1.9473 -0.2783  0.4273
   90SAPE    C2 8742   4.268   0.040   6.189  0.0759 -0.6788 -0.3950
   90SAPE    HS 8743   4.226  -0.063   6.184  0.5787 -0.8592 -0.9768
   90SAPE   O21 8744   4.390   0.048   6.110  0.1112 -0.1683 -0.2410
   90SAPE   C21 8745   4.463  -0.057   6.122 -0.4312  0.1188 -0.1674
   90SAPE   O22 8746   4.429  -0.174   6.150 -0.9489  0.1016 -0.1431
   90SAPE   C22 8747   4.600  -0.012   6.071  0.0832  0.1341 -0.3864
   90SAPE   H2R 8748   4.584   0.019   5.965  0.5609 -1.3378 -0.9226
   90SAPE   H2S 8749   4.630   0.072   6.137  1.7095 -1.4289  0.9729
   90SAPE    C3 8750   4.170   0.145   6.132  0.5887 -0.1112  0.1120
   90SAPE    HX 8751   4.223   0.241   6.115 -0.0929 -0.0190 -1.7190
   90SAPE    HY 8752   4.086   0.175   6.199  0.3088  0.6846 -0.5840
   90SAPE   O31 8753   4.125   0.108   6.006 -0.2382 -0.5106 -0.5046
   90SAPE   C31 8754   4.029   0.019   5.996  0.4979 -0.7337 -0.4329
   90SAPE   O32 8755   3.966  -0.029   6.088 -0.3447  0.3667 -0.4088
   90SAPE   C32 8756   3.986   0.003   5.851  0.4056 -0.4063 -0.3546
   90SAPE   H2X 8757   3.994  -0.104   5.820 -0.4872 -0.7677  0.5932
   90SAPE   H2Y 8758   4.059   0.066   5.796  0.8424 -0.7645 -0.1907
   90SAPE   C23 8759   4.704  -0.122   6.082 -0.0151  0.0657  1.1311
   90SAPE   H3R 8760   4.712  -0.165   6.184  0.3834  0.3409  1.2208
   90SAPE   H3S 8761   4.802  -0.075   6.056  0.6846 -2.3982 -1.0866
   90SAPE   C24 8762   4.690  -0.233   5.979 -0.0059  0.5757  0.6017
   90SAPE   H4R 8763   4.596  -0.289   6.001  0.5828 -0.9666 -0.6217
   90SAPE   H4S 8764   4.773  -0.302   6.007  0.4967  0.7504 -0.4382
   90SAPE   C25 8765   4.705  -0.206   5.831  0.0859 -0.4113 -0.5454
   90SAPE   H5R 8766   4.782  -0.137   5.794  0.4574  0.1836  1.2499
   90SAPE   C26 8767   4.623  -0.261   5.733 -0.9065 -0.4624 -0.0841
   90SAPE   H6R 8768   4.647  -0.227   5.632  2.3235 -0.5864  0.5381
   90SAPE   C27 8769   4.508  -0.355   5.735 -0.4987  0.1024  0.4778
   90SAPE   H7R 8770   4.518  -0.417   5.827 -0.2222 -0.3593  0.1376
   90SAPE   H7S 8771   4.507  -0.418   5.644 -0.8649  1.1519 -0.2713
   90SAPE   C28 8772   4.392  -0.267   5.736  0.0056  0.0692  0.3266
   90SAPE   H8R 8773   4.398  -0.204   5.826 -0.4816 -0.3800  0.6760
   90SAPE   C29 8774   4.301  -0.244   5.632 -0.0045  0.1636 -0.0488
   90SAPE   H9R 8775   4.216  -0.178   5.653  1.1179  1.1534  1.5466
   90SAPE  C210 8776   4.294  -0.327   5.506  0.2619 -0.4534 -0.2580
   90SAPE  H10R 8777   4.310  -0.434   5.528 -1.8461 -1.1031 -1.5551
   90SAPE  H10S 8778   4.379  -0.291   5.444  0.5795 -0.9504 -0.1134
   90SAPE  C211 8779   4.173  -0.334   5.414 -0.0810 -0.8007  0.6881
   90SAPE  H11R 8780   4.085  -0.276   5.447  1.1885 -0.0480  2.9429
   90SAPE  C212 8781   4.187  -0.378   5.282 -0.3914 -0.3516  0.0666
   90SAPE  H12R 8782   4.098  -0.382   5.218 -1.2490 -2.1481  1.2760
   90SAPE  C213 8783   4.310  -0.450   5.226  0.1099 -0.0098  0.6149
   90SAPE  H13R 8784   4.288  -0.559   5.220 -1.8450  0.4229 -2.0945
   90SAPE  H13S 8785   4.411  -0.435   5.268  0.9989  0.0742 -1.4498
   90SAPE  C214 8786   4.301  -0.396   5.088 -0.5641 -0.2212  0.0465
   90SAPE  H14R 8787   4.310  -0.287   5.083  1.8908 -0.3467  0.4687
   90SAPE  C215 8788   4.278  -0.471   4.978  0.5975  0.6166 -0.4350
   90SAPE  H15R 8789   4.270  -0.435   4.874 -1.3860 -1.4954 -1.0982
   90SAPE  C216 8790   4.271  -0.624   4.983 -0.1929  0.1690 -0.3307
   90SAPE  H16R 8791   4.197  -0.647   5.062  0.5659 -0.5729  0.1741
   90SAPE  H16S 8792   4.373  -0.657   5.011  0.7994  2.3270 -1.1473
   90SAPE  C217 8793   4.222  -0.686   4.849  0.4468  0.2497 -0.1521
   90SAPE  H17R 8794   4.216  -0.794   4.875  0.9175  0.6153  1.6061
   90SAPE  H17S 8795   4.302  -0.672   4.774  0.5769  0.5015  0.0310
   90SAPE  C218 8796   4.083  -0.644   4.798 -0.5004 -0.2799 -0.1226
   90SAPE  H18R 8797   4.089  -0.538   4.767 -0.5672  0.1017  1.1446
   90SAPE  H18S 8798   4.003  -0.648   4.875 -0.1010  1.1285  0.3870
   90SAPE  C219 8799   4.042  -0.719   4.668 -0.1259 -0.1602 -0.0964
   90SAPE  H19R 8800   4.028  -0.828   4.688 -1.8973 -0.0832 -0.7394
   90SAPE  H19S 8801   4.125  -0.713   4.595 -1.0322 -0.2272 -1.1605
   90SAPE  C220 8802   3.905  -0.680   4.614 -0.1228  1.0305  0.2921
   90SAPE  H20R 8803   3.877  -0.573   4.605 -1.4685  0.6004 -1.1796
   90SAPE  H20S 8804   3.835  -0.730   4.683  0.1965 -0.5076 -0.4370
   90SAPE  H20T 8805   3.891  -0.729   4.515  0.6441  0.8353  0.2697
   90SAPE   C33 8806   3.847   0.069   5.827  1.0062 -0.1330  0.3325
   90SAPE   H3X 8807   3.846   0.171   5.872  0.2988  1.0887 -2.2034
   90SAPE   H3Y 8808   3.765   0.015   5.880 -1.4298  1.6140 -1.3852
   90SAPE   C34 8809   3.811   0.081   5.672 -0.4190  0.1113  0.9462
   90SAPE   H4X 8810   3.869   0.159   5.619 -2.2549 -0.0762 -1.5475
   90SAPE   H4Y 8811   3.709   0.124   5.668  0.2777  1.7120 -0.7126
   90SAPE   C35 8812   3.822  -0.053   5.597  0.1761 -0.7960  0.2637
   90SAPE   H5X 8813   3.772  -0.132   5.656  0.7080 -1.8893 -0.6984
   90SAPE   H5Y 8814   3.927  -0.081   5.574 -0.0769 -0.9234 -0.8206
   90SAPE   C36 8815   3.744  -0.064   5.465 -0.3333 -0.2059 -0.4763
   90SAPE   H6X 8816   3.645  -0.020   5.488 -0.3270 -0.0679 -0.7006
   90SAPE   H6Y 8817   3.718  -0.169   5.443 -2.6440  0.0969  0.5247
   90SAPE   C37 8818   3.818  -0.005   5.339  0.8109 -0.5923 -0.8036
   90SAPE   H7X 8819   3.914  -0.061   5.338  0.8621 -0.5514 -2.8783
   90SAPE   H7Y 8820   3.840   0.103   5.348 -0.6662 -0.3531  0.3963
   90SAPE   C38 8821   3.733  -0.015   5.216  0.5067 -0.0435  0.5841
   90SAPE   H8X 8822   3.633   0.033   5.217  0.7438  0.8074 -3.0372
   90SAPE   H8Y 8823   3.713  -0.118   5.179 -0.7659  0.8384 -1.3122
   90SAPE   C39 8824   3.813   0.034   5.098 -0.0432 -0.3937  0.9147
   90SAPE   H9X 8825   3.907  -0.026   5.088 -0.0875 -0.3188 -0.0450
   90SAPE   H9Y 8826   3.834   0.141   5.118  1.0643  0.2357 -2.9389
   90SAPE  C310 8827   3.737   0.022   4.963  0.4146 -0.0690  0.0589
   90SAPE  H10X 8828   3.632   0.055   4.975 -0.5705 -2.5287 -1.3118
   90SAPE  H10Y 8829   3.731  -0.082   4.926 -1.3094  0.6276 -1.7618
   90SAPE  C311 8830   3.803   0.103   4.850  0.1175  0.8141 -0.8267
   90SAPE  H11X 8831   3.911   0.099   4.876  0.0225  1.0940 -0.3786
   90SAPE  H11Y 8832   3.769   0.207   4.869  1.5044  0.8916  1.6812
   90SAPE  C312 8833   3.771   0.051   4.711  0.1126 -0.3238  0.1684
   90SAPE  H12X 8834   3.662   0.055   4.690  0.4971 -0.9477 -2.2938
   90SAPE  H12Y 8835   3.793  -0.058   4.703  1.3209 -0.1712  1.1444
   90SAPE  C313 8836   3.848   0.122   4.602 -0.4232 -0.2987  0.0120
   90SAPE  H13X 8837   3.959   0.116   4.608 -0.2676  1.6134 -0.1071
   90SAPE  H13Y 8838   3.833   0.231   4.616 -0.2600 -0.5060  1.9834
   90SAPE  C314 8839   3.802   0.082   4.455 -0.4019  0.1939  0.3374
   90SAPE  H14X 8840   3.851   0.159   4.393  3.4546  0.5650  3.4229
   90SAPE  H14Y 8841   3.691   0.082   4.460 -0.3641  1.8477  2.4448
   90SAPE  C315 8842   3.843  -0.064   4.414 -0.3218 -0.1030  0.0981
   90SAPE  H15X 8843   3.820  -0.071   4.306  1.0269 -0.0042 -0.2061
   90SAPE  H15Y 8844   3.771  -0.125   4.473  0.4821  0.2336  1.4754
   90SAPE  C316 8845   3.986  -0.105   4.436 -0.2000 -0.1268  0.9438
   90SAPE  H16X 8846   4.032  -0.084   4.535  2.2185  1.1005 -0.3416
   90SAPE  H16Y 8847   4.048  -0.054   4.359 -2.0319 -0.1302 -0.6235
   90SAPE  C317 8848   3.998  -0.257   4.420 -0.2818 -0.8146  0.1274
   90SAPE  H17X 8849   3.957  -0.281   4.319 -0.6064 -1.2388  0.3560
   90SAPE  H17Y 8850   3.930  -0.303   4.495 -0.6687  1.2435  1.1125
   90SAPE  C318 8851   4.147  -0.300   4.428  0.3645  0.0168  0.8078
   90SAPE  H18X 8852   4.175  -0.372   4.509 -0.9516  0.3498  1.5869
   90SAPE  H18Y 8853   4.212  -0.212   4.448  1.5434 -0.8811  1.0868
   90SAPE  H18Z 8854   4.192  -0.335   4.333 -0.1793  2.8406 -0.5991
   91SAPE     N 8855   2.647   2.400   6.044 -0.7569 -0.0727 -0.6126
   91SAPE   HN1 8856   2.722   2.472   6.052  0.5571 -1.6421  2.5836
   91SAPE   HN2 8857   2.696   2.314   6.073 -1.3040 -0.2925 -0.3308
   91SAPE   HN3 8858   2.614   2.390   5.946  2.6573  2.9693 -2.3316
   91SAPE   C12 8859   2.537   2.432   6.143  0.3403 -0.1723 -0.7162
   91SAPE  H12A 8860   2.443   2.400   6.095  0.1691  0.9250 -1.1402
   91SAPE  H12B 8861   2.544   2.540   6.170  0.4349 -0.4086  0.2714
   91SAPE   C11 8862   2.545   2.342   6.268  0.1670 -0.1034  0.4281
   91SAPE  H11A 8863   2.479   2.392   6.341  2.1857  0.0499  2.2400
   91SAPE  H11B 8864   2.648   2.347   6.310  1.1394 -3.2880 -1.1475
   91SAPE     P 8865   2.601   2.090   6.231 -0.3646 -0.3610 -0.4405
   91SAPE   O13 8866   2.683   2.083   6.357 -0.5193  0.0331  0.2136
   91SAPE   O14 8867   2.527   1.968   6.186 -0.8631 -0.5826 -0.3820
   91SAPE   O12 8868   2.497   2.208   6.242 -0.5563 -0.0820 -0.4963
   91SAPE   O11 8869   2.690   2.146   6.114 -0.1149 -0.9448  0.3020
   91SAPE    C1 8870   2.691   2.077   5.985 -0.0432  0.0190 -0.3486
   91SAPE    HA 8871   2.677   1.968   6.001  0.3474  0.3046  2.6524
   91SAPE    HB 8872   2.608   2.120   5.925 -1.6715 -0.8715  1.1390
   91SAPE    C2 8873   2.825   2.108   5.898 -1.0338 -0.0959 -0.5118
   91SAPE    HS 8874   2.907   2.052   5.949 -0.8019  0.4111 -0.3275
   91SAPE   O21 8875   2.852   2.250   5.887  0.3750 -0.1063  1.0607
   91SAPE   C21 8876   2.972   2.281   5.840  0.5029  0.2036 -0.3008
   91SAPE   O22 8877   3.061   2.198   5.825 -0.4524 -0.1807 -0.4260
   91SAPE   C22 8878   2.988   2.439   5.830 -0.5696 -0.2405  0.7335
   91SAPE   H2R 8879   3.002   2.485   5.930  0.5566  0.3262  0.3311
   91SAPE   H2S 8880   3.078   2.436   5.765 -1.8482 -3.6855 -1.1552
   91SAPE    C3 8881   2.814   2.044   5.751 -0.8922  0.5101 -0.3681
   91SAPE    HX 8882   2.825   1.936   5.770  1.2347  0.5470 -1.1106
   91SAPE    HY 8883   2.900   2.071   5.687  0.1445 -0.8537  0.3972
   91SAPE   O31 8884   2.689   2.099   5.695 -0.0967  0.7275 -0.0065
   91SAPE   C31 8885   2.625   2.006   5.632  0.3004  0.0041  0.4955
   91SAPE   O32 8886   2.675   1.913   5.569  0.5142  0.0316  0.0342
   91SAPE   C32 8887   2.482   2.035   5.627 -0.1843  0.7492  0.3185
   91SAPE   H2X 8888   2.460   2.142   5.605 -0.0685  0.8927  0.8929
   91SAPE   H2Y 8889   2.438   2.020   5.728 -2.3363  1.8710 -0.3743
   91SAPE   C23 8890   2.867   2.505   5.759 -0.1591  0.5098 -0.1906
   91SAPE   H3R 8891   2.874   2.615   5.755 -0.3705  0.4940 -3.1578
   91SAPE   H3S 8892   2.770   2.480   5.807 -0.3965 -1.4079 -1.5355
   91SAPE   C24 8893   2.863   2.460   5.604  0.3021  0.1447  0.2877
   91SAPE   H4R 8894   2.773   2.501   5.553  0.8457  1.0626  0.0283
   91SAPE   H4S 8895   2.860   2.349   5.594 -1.8226  0.1352  0.5584
   91SAPE   C25 8896   2.982   2.525   5.535 -0.3375 -0.0842  0.2128
   91SAPE   H5R 8897   3.007   2.627   5.566  1.8030 -0.5990  0.2922
   91SAPE   C26 8898   3.033   2.486   5.417 -0.0828  0.6021  0.3948
   91SAPE   H6R 8899   3.131   2.526   5.386  1.1145 -0.0706  3.0115
   91SAPE   C27 8900   2.978   2.376   5.330 -1.1496  0.4429  0.1915
   91SAPE   H7R 8901   2.888   2.324   5.369 -0.1927 -0.2804  1.5205
   91SAPE   H7S 8902   3.045   2.289   5.346 -1.5640 -0.4769 -2.4601
   91SAPE   C28 8903   2.979   2.400   5.180 -0.1933 -0.4548  0.3161
   91SAPE   H8R 8904   2.913   2.473   5.131  0.9645  1.6874  1.8160
   91SAPE   C29 8905   3.063   2.349   5.087 -0.4571  0.2662  0.2881
   91SAPE   H9R 8906   3.058   2.381   4.981  1.3507  0.5265  0.2412
   91SAPE  C210 8907   3.185   2.262   5.121 -0.4337 -0.0699  0.1331
   91SAPE  H10R 8908   3.200   2.261   5.231  1.0034 -0.9692 -0.0507
   91SAPE  H10S 8909   3.279   2.318   5.100  0.8006 -2.5108 -1.3050
   91SAPE  C211 8910   3.196   2.117   5.078  0.8619  0.0566  0.7711
   91SAPE  H11R 8911   3.167   2.049   5.159 -2.2435  1.6050  1.0880
   91SAPE  C212 8912   3.235   2.063   4.963 -0.4722  0.5819 -0.3758
   91SAPE  H12R 8913   3.233   1.953   4.956  2.4736  0.3974  0.4640
   91SAPE  C213 8914   3.269   2.139   4.838  0.3690  0.2460  0.0321
   91SAPE  H13R 8915   3.373   2.111   4.813  1.4505  2.7347  1.4549
   91SAPE  H13S 8916   3.271   2.249   4.853  0.1600  0.2885 -0.2370
   91SAPE  C214 8917   3.173   2.100   4.727 -0.2208  0.0202 -0.8368
   91SAPE  H14R 8918   3.081   2.053   4.764  0.1717 -1.0534 -1.1483
   91SAPE  C215 8919   3.199   2.108   4.593 -0.1838  0.2439 -0.8477
   91SAPE  H15R 8920   3.127   2.081   4.516  1.3572 -0.2357 -2.1761
   91SAPE  C216 8921   3.327   2.167   4.545  0.0391 -0.7000  0.1415
   91SAPE  H16R 8922   3.381   2.232   4.617 -1.1440  2.7671 -1.8714
   91SAPE  H16S 8923   3.301   2.246   4.472 -1.5324 -0.2622  1.1301
   91SAPE  C217 8924   3.426   2.063   4.482 -0.4554 -0.1120  0.4098
   91SAPE  H17R 8925   3.448   1.975   4.546 -1.2988 -1.3897 -0.9729
   91SAPE  H17S 8926   3.517   2.122   4.460 -0.7676  0.0384 -0.5381
   91SAPE  C218 8927   3.380   2.005   4.342  0.0017 -1.3213 -0.1422
   91SAPE  H18R 8928   3.359   2.084   4.267 -0.6118  0.5609  1.9220
   91SAPE  H18S 8929   3.285   1.954   4.369 -1.2298  1.7455  1.8422
   91SAPE  C219 8930   3.473   1.894   4.279 -0.1464 -0.1414 -0.0950
   91SAPE  H19R 8931   3.523   1.842   4.363 -1.0265  1.2662  1.3754
   91SAPE  H19S 8932   3.547   1.939   4.210 -0.5955 -0.2908 -0.6884
   91SAPE  C220 8933   3.383   1.802   4.192  0.2153  0.8805 -0.2538
   91SAPE  H20R 8934   3.426   1.700   4.186 -1.3103  0.2492 -1.3721
   91SAPE  H20S 8935   3.366   1.842   4.090  0.5489  1.1719 -0.1952
   91SAPE  H20T 8936   3.281   1.784   4.233  1.1203  1.2855  2.3376
   91SAPE   C33 8937   2.411   1.926   5.536 -0.2953  0.6079  1.3432
   91SAPE   H3X 8938   2.438   1.826   5.575  2.6989  0.5504 -0.5505
   91SAPE   H3Y 8939   2.456   1.938   5.435  0.8902 -2.5055  1.4132
   91SAPE   C34 8940   2.256   1.940   5.534 -0.2024  0.1533  0.2477
   91SAPE   H4X 8941   2.233   2.039   5.490 -1.0051 -0.7020 -1.3715
   91SAPE   H4Y 8942   2.223   1.944   5.640 -1.2175  1.3591 -0.0914
   91SAPE   C35 8943   2.180   1.833   5.452 -0.6521  0.3603 -0.9905
   91SAPE   H5X 8944   2.072   1.851   5.469 -0.4995  0.0376  0.4440
   91SAPE   H5Y 8945   2.213   1.735   5.492 -0.5143  0.8371  0.0926
   91SAPE   C36 8946   2.229   1.835   5.297  0.5826 -0.7526 -0.4931
   91SAPE   H6X 8947   2.175   1.755   5.244 -1.3494 -0.5504  1.0665
   91SAPE   H6Y 8948   2.340   1.832   5.292  0.7492  1.7077  0.1267
   91SAPE   C37 8949   2.195   1.975   5.233  0.5843  0.0099  0.1743
   91SAPE   H7X 8950   2.248   2.052   5.293  2.0130  0.1112 -1.1412
   91SAPE   H7Y 8951   2.085   1.989   5.228  0.5584  0.2529  1.2702
   91SAPE   C38 8952   2.241   1.982   5.076  0.2778  0.7901  0.2112
   91SAPE   H8X 8953   2.197   1.893   5.026 -0.5131 -0.0219  2.2017
   91SAPE   H8Y 8954   2.352   1.985   5.078  0.3152 -0.1601 -0.2099
   91SAPE   C39 8955   2.186   2.109   5.016 -0.5132  0.1777  0.1183
   91SAPE   H9X 8956   2.223   2.200   5.068  0.3558 -0.3894  0.5200
   91SAPE   H9Y 8957   2.080   2.101   5.047 -0.3590 -0.1752  0.5794
   91SAPE  C310 8958   2.206   2.131   4.872 -0.1663  0.2098  0.1834
   91SAPE  H10X 8959   2.183   2.032   4.827  2.2142 -0.2081 -0.2689
   91SAPE  H10Y 8960   2.316   2.136   4.854 -0.4178  2.1726 -1.1231
   91SAPE  C311 8961   2.146   2.255   4.811  0.0421 -0.0746  0.1116
   91SAPE  H11X 8962   2.117   2.334   4.883 -1.7645  2.2621 -2.8965
   91SAPE  H11Y 8963   2.055   2.211   4.763 -0.7109 -0.8499  2.1382
   91SAPE  C312 8964   2.220   2.318   4.699  0.1187 -0.0039  0.5471
   91SAPE  H12X 8965   2.306   2.253   4.672  0.4033  0.6695 -0.1975
   91SAPE  H12Y 8966   2.264   2.418   4.720 -1.4701  0.5011  1.6949
   91SAPE  C313 8967   2.132   2.322   4.577  0.3856  0.3127 -0.6911
   91SAPE  H13X 8968   2.106   2.218   4.549 -5.4602  1.0043  0.7652
   91SAPE  H13Y 8969   2.190   2.366   4.493  0.9166 -2.3359 -1.8075
   91SAPE  C314 8970   2.004   2.402   4.589 -0.1730  0.3016  0.4373
   91SAPE  H14X 8971   1.939   2.369   4.673  0.3553  0.2167  0.8121
   91SAPE  H14Y 8972   1.938   2.396   4.499 -0.7012 -0.3734  0.8649
   91SAPE  C315 8973   2.025   2.553   4.618  0.2042  0.2822  0.6308
   91SAPE  H15X 8974   2.108   2.586   4.552  0.3773 -1.6711 -0.1945
   91SAPE  H15Y 8975   2.069   2.565   4.719  1.4568 -0.7539  0.2345
   91SAPE  C316 8976   1.900   2.640   4.603 -0.4040 -0.0614  0.1661
   91SAPE  H16X 8977   1.831   2.580   4.667  0.0515 -2.4307 -1.4124
   91SAPE  H16Y 8978   1.858   2.635   4.500 -0.8643 -2.5433  0.3939
   91SAPE  C317 8979   1.916   2.787   4.647  0.5576 -0.4274 -0.2243
   91SAPE  H17X 8980   1.990   2.794   4.729 -0.0360  0.3630  0.2682
   91SAPE  H17Y 8981   1.815   2.810   4.688  0.7218 -0.3158  0.1173
   91SAPE  C318 8982   1.944   2.890   4.537 -1.2435 -0.3149 -0.7019
   91SAPE  H18X 8983   1.871   2.882   4.454 -0.8298 -0.0029 -1.1065
   91SAPE  H18Y 8984   2.041   2.871   4.485 -0.8687 -2.8463  0.7494
   91SAPE  H18Z 8985   1.939   2.992   4.580 -0.3888 -1.3003  1.8892
   92SAPE     N 8986   4.227   1.343   6.118 -0.1803  0.3805  0.2098
   92SAPE   HN1 8987   4.265   1.270   6.055  0.9559  1.5319 -0.4976
   92SAPE   HN2 8988   4.253   1.437   6.081 -0.0821 -0.9383 -3.5365
   92SAPE   HN3 8989   4.247   1.324   6.218 -1.4145 -2.1489  0.0425
   92SAPE   C12 8990   4.076   1.336   6.108 -0.0444  0.1673  0.1863
   92SAPE  H12A 8991   4.056   1.230   6.137  0.1394 -0.4103 -1.6598
   92SAPE  H12B 8992   4.045   1.339   6.001  0.2953 -2.1767 -0.0494
   92SAPE   C11 8993   4.008   1.438   6.201 -0.5026  0.3199 -0.5949
   92SAPE  H11A 8994   4.041   1.538   6.166  0.7353 -0.0392 -0.4994
   92SAPE  H11B 8995   4.045   1.417   6.304 -3.1006  1.8159  0.7515
   92SAPE     P 8996   3.767   1.450   6.103 -0.3870  0.0575 -0.5440
   92SAPE   O13 8997   3.635   1.448   6.168  0.2679  0.0073 -0.6195
   92SAPE   O14 8998   3.817   1.569   6.030 -0.4287  0.1324 -0.1377
   92SAPE   O12 8999   3.866   1.427   6.223  0.4993  0.4681  0.1011
   92SAPE   O11 9000   3.783   1.320   6.007 -0.1222 -0.7098  0.5378
   92SAPE    C1 9001   3.740   1.191   6.046 -0.1389  0.0460  0.3979
   92SAPE    HA 9002   3.828   1.126   6.025 -0.4821 -0.1627 -0.4552
   92SAPE    HB 9003   3.713   1.176   6.153 -0.7603 -1.6596  0.0308
   92SAPE    C2 9004   3.615   1.136   5.956 -0.3619 -0.4849 -0.5110
   92SAPE    HS 9005   3.603   1.029   5.983 -0.0049 -0.1238  1.2376
   92SAPE   O21 9006   3.635   1.177   5.818 -0.2710  0.6452  0.6870
   92SAPE   C21 9007   3.712   1.093   5.749 -0.2743  0.8214  0.0529
   92SAPE   O22 9008   3.775   1.010   5.810 -0.1078 -0.0931  0.0586
   92SAPE   C22 9009   3.698   1.096   5.599  0.0977 -0.5689 -0.8764
   92SAPE   H2R 9010   3.591   1.107   5.573  0.2457 -0.0147 -1.2658
   92SAPE   H2S 9011   3.748   1.181   5.548 -0.8435  0.5872  0.0693
   92SAPE    C3 9012   3.489   1.209   6.002  1.1034  0.1091 -0.1587
   92SAPE    HX 9013   3.490   1.315   5.972 -0.7555  1.0403  2.5970
   92SAPE    HY 9014   3.488   1.206   6.114 -1.1757  0.0844 -0.1213
   92SAPE   O31 9015   3.372   1.139   5.957 -0.3181  0.1960  0.2818
   92SAPE   C31 9016   3.331   1.174   5.840  0.4316 -0.2021  0.1660
   92SAPE   O32 9017   3.380   1.259   5.768 -0.0549 -0.2818  0.9006
   92SAPE   C32 9018   3.214   1.084   5.804  0.6568 -0.3167  0.3915
   92SAPE   H2X 9019   3.141   1.113   5.883 -0.9840  0.0121 -1.1527
   92SAPE   H2Y 9020   3.234   0.975   5.812 -3.6467 -1.7207 -3.5161
   92SAPE   C23 9021   3.769   0.977   5.533 -0.7221 -0.3107  0.3701
   92SAPE   H3R 9022   3.739   0.873   5.558  1.3269 -0.9403  0.3589
   92SAPE   H3S 9023   3.878   0.987   5.548 -0.4737 -1.6659 -0.3578
   92SAPE   C24 9024   3.745   0.985   5.372 -0.0755  0.8725  0.3822
   92SAPE   H4R 9025   3.832   0.935   5.324  0.5185  1.6071  0.6732
   92SAPE   H4S 9026   3.770   1.089   5.343  0.2977  0.4710 -0.7683
   92SAPE   C25 9027   3.612   0.944   5.329 -0.2894 -0.1163 -0.1725
   92SAPE   H5R 9028   3.549   0.908   5.412  0.8978  0.5639  1.0495
   92SAPE   C26 9029   3.570   0.918   5.204 -0.2762 -0.0441 -0.4306
   92SAPE   H6R 9030   3.465   0.886   5.199 -0.6827  0.9944  0.7284
   92SAPE   C27 9031   3.628   0.929   5.061 -0.4967 -0.3009  0.1423
   92SAPE   H7R 9032   3.736   0.952   5.051 -0.7358  0.4435 -0.8750
   92SAPE   H7S 9033   3.601   1.027   5.016  0.5174 -0.9611 -2.0351
   92SAPE   C28 9034   3.582   0.826   4.961 -0.0097  0.9507  0.0996
   92SAPE   H8R 9035   3.517   0.746   5.000  1.1112  0.2302  0.5275
   92SAPE   C29 9036   3.621   0.813   4.828 -0.0926 -0.3495  0.1100
   92SAPE   H9R 9037   3.566   0.737   4.771  0.3306  0.8154 -1.9837
   92SAPE  C210 9038   3.729   0.894   4.750  0.2884 -0.5800  0.7513
   92SAPE  H10R 9039   3.740   0.859   4.645 -2.3684  0.8118 -0.1009
   92SAPE  H10S 9040   3.822   0.872   4.806 -0.2875 -1.1240  1.5154
   92SAPE  C211 9041   3.711   1.043   4.735  0.2007 -0.3005 -0.1330
   92SAPE  H11R 9042   3.694   1.089   4.834  0.9884  0.1937 -0.2224
   92SAPE  C212 9043   3.703   1.122   4.627  0.6877 -0.3645  0.1601
   92SAPE  H12R 9044   3.703   1.230   4.643  2.1968 -0.3350  0.1590
   92SAPE  C213 9045   3.705   1.073   4.483  0.0250  0.5338 -0.1510
   92SAPE  H13R 9046   3.631   0.991   4.478 -0.9751  1.4054  0.1447
   92SAPE  H13S 9047   3.803   1.022   4.473  1.2817  2.3827  1.7991
   92SAPE  C214 9048   3.690   1.172   4.368  0.1692 -0.0109  0.2992
   92SAPE  H14R 9049   3.754   1.262   4.363 -0.0917  0.1144 -1.0106
   92SAPE  C215 9050   3.596   1.163   4.268  0.2810 -0.7426 -0.5747
   92SAPE  H15R 9051   3.603   1.243   4.193  1.4222  0.1702  0.4635
   92SAPE  C216 9052   3.488   1.059   4.255  0.1798  0.7193  0.3127
   92SAPE  H16R 9053   3.510   0.961   4.301 -1.0926 -0.1423 -0.8147
   92SAPE  H16S 9054   3.475   1.046   4.145  1.1013  1.0945  0.1487
   92SAPE  C217 9055   3.363   1.125   4.312  0.3965  0.6518 -0.2884
   92SAPE  H17R 9056   3.273   1.064   4.292 -0.4748  0.7435  2.8449
   92SAPE  H17S 9057   3.340   1.225   4.268 -2.1601  0.6258  0.8220
   92SAPE  C218 9058   3.356   1.138   4.468 -0.3471 -0.2027  0.0884
   92SAPE  H18R 9059   3.443   1.196   4.506  0.2629  0.2435 -1.9139
   92SAPE  H18S 9060   3.388   1.043   4.516  3.8967  0.6604 -0.6049
   92SAPE  C219 9061   3.232   1.215   4.520 -0.7624  0.4212 -0.8197
   92SAPE  H19R 9062   3.148   1.150   4.487 -1.3535  1.3128 -1.0953
   92SAPE  H19S 9063   3.220   1.312   4.468 -0.4335 -0.6977 -3.1077
   92SAPE  C220 9064   3.227   1.235   4.674 -0.0134 -0.7771 -0.2835
   92SAPE  H20R 9065   3.250   1.143   4.732  2.1161 -0.5943 -0.7403
   92SAPE  H20S 9066   3.123   1.267   4.693  0.2019  0.7330 -1.4362
   92SAPE  H20T 9067   3.302   1.310   4.706  0.6012 -0.6234 -1.9608
   92SAPE   C33 9068   3.134   1.108   5.673 -0.4571 -0.4006  0.4740
   92SAPE   H3X 9069   3.118   1.217   5.661 -2.0579 -0.5756  0.7474
   92SAPE   H3Y 9070   3.034   1.061   5.689 -0.5153 -0.6571 -0.5887
   92SAPE   C34 9071   3.203   1.041   5.557 -1.2327  1.1505 -0.1607
   92SAPE   H4X 9072   3.209   0.931   5.575 -1.5655  1.2144  0.3652
   92SAPE   H4Y 9073   3.306   1.081   5.544 -0.1812 -0.9872  1.0381
   92SAPE   C35 9074   3.131   1.063   5.419 -0.0325  0.0214 -0.8522
   92SAPE   H5X 9075   3.143   1.173   5.410  0.2215 -0.0416 -1.3232
   92SAPE   H5Y 9076   3.024   1.037   5.437 -0.0003  0.3105 -0.2224
   92SAPE   C36 9077   3.196   0.970   5.318 -0.1251  0.0383 -0.1051
   92SAPE   H6X 9078   3.203   0.872   5.369  1.9421  1.0174  1.6362
   92SAPE   H6Y 9079   3.301   1.002   5.298 -0.9897  2.4158 -1.1874
   92SAPE   C37 9080   3.114   0.956   5.188 -0.5477  0.2384  0.0999
   92SAPE   H7X 9081   3.062   1.051   5.161 -1.2406  0.5461  2.3375
   92SAPE   H7Y 9082   3.032   0.887   5.218  0.9116 -2.2634 -1.3607
   92SAPE   C38 9083   3.200   0.892   5.076 -0.1035  0.0851  0.2939
   92SAPE   H8X 9084   3.264   0.818   5.129  2.1035  1.7284  0.1023
   92SAPE   H8Y 9085   3.261   0.973   5.030 -0.8717 -0.4263 -1.7385
   92SAPE   C39 9086   3.115   0.822   4.969  0.0003  0.3048  0.3096
   92SAPE   H9X 9087   3.040   0.897   4.935 -1.9809 -1.4922  0.5527
   92SAPE   H9Y 9088   3.065   0.737   5.019 -0.5112 -1.1853 -2.5414
   92SAPE  C310 9089   3.185   0.750   4.855 -0.3237  0.2058  0.4233
   92SAPE  H10X 9090   3.107   0.692   4.802 -1.7554  2.4392 -0.0419
   92SAPE  H10Y 9091   3.263   0.685   4.901  0.1621  0.1499 -0.4628
   92SAPE  C311 9092   3.254   0.831   4.742  1.3120 -1.1346 -1.0269
   92SAPE  H11X 9093   3.328   0.894   4.797  0.7929  0.0423 -1.6461
   92SAPE  H11Y 9094   3.194   0.911   4.695  0.1816  1.0347  3.5403
   92SAPE  C312 9095   3.313   0.739   4.635 -0.5490 -0.8562 -0.5109
   92SAPE  H12X 9096   3.337   0.635   4.667 -0.6690 -1.0560 -1.0752
   92SAPE  H12Y 9097   3.410   0.787   4.611 -1.5400  0.0003 -3.0910
   92SAPE  C313 9098   3.226   0.725   4.517  0.0792 -0.1154 -0.1966
   92SAPE  H13X 9099   3.186   0.817   4.469 -0.0761  1.5202  2.8481
   92SAPE  H13Y 9100   3.135   0.679   4.560 -1.4586  2.5447 -0.3487
   92SAPE  C314 9101   3.311   0.649   4.415  0.0990 -0.9199  0.7892
   92SAPE  H14X 9102   3.346   0.555   4.465 -1.4107 -2.3987 -0.7938
   92SAPE  H14Y 9103   3.402   0.706   4.388 -2.0672  1.4920 -1.9560
   92SAPE  C315 9104   3.228   0.626   4.295 -0.2111 -0.1881  0.7178
   92SAPE  H15X 9105   3.209   0.731   4.266  0.5144 -0.0357  0.7774
   92SAPE  H15Y 9106   3.129   0.577   4.306 -0.9512  1.2425  0.6486
   92SAPE  C316 9107   3.304   0.556   4.176 -0.6032 -0.5837 -0.3928
   92SAPE  H16X 9108   3.285   0.447   4.176  0.5531 -0.8116  1.0417
   92SAPE  H16Y 9109   3.414   0.573   4.178 -0.5784 -0.4154 -1.7793
   92SAPE  C317 9110   3.254   0.619   4.042 -1.0279 -0.0414 -0.6087
   92SAPE  H17X 9111   3.262   0.729   4.052  1.3729  0.0977 -3.0176
   92SAPE  H17Y 9112   3.144   0.609   4.029 -1.0878 -0.7989  0.3920
   92SAPE  C318 9113   3.344   0.581   3.924 -0.5963 -0.1819 -0.9072
   92SAPE  H18X 9114   3.454   0.583   3.942 -0.4834  0.4811 -1.6036
   92SAPE  H18Y 9115   3.316   0.637   3.832 -1.2171 -1.5112 -1.5394
   92SAPE  H18Z 9116   3.315   0.477   3.900  1.0971 -0.5332 -1.6271
   93SAPE     N 9117   1.044   1.005   6.761 -0.3452 -0.2582  0.0679
   93SAPE   HN1 9118   1.145   0.984   6.775 -0.1548 -0.7043 -1.6915
   93SAPE   HN2 9119   0.997   0.935   6.822  1.3063 -1.1106  0.4253
   93SAPE   HN3 9120   1.023   0.980   6.662  1.8447 -1.3923 -0.1769
   93SAPE   C12 9121   0.995   1.147   6.794 -0.1326 -0.5052  0.3209
   93SAPE  H12A 9122   1.077   1.214   6.828  0.5738 -1.2020  0.0240
   93SAPE  H12B 9123   0.920   1.144   6.876  1.0722  1.0992  1.5427
   93SAPE   C11 9124   0.912   1.211   6.672 -0.1909 -0.5632 -0.0913
   93SAPE  H11A 9125   0.971   1.227   6.579 -1.4010 -1.2532 -1.0138
   93SAPE  H11B 9126   0.879   1.309   6.710  1.4243 -0.0313  0.0079
   93SAPE     P 9127   0.659   1.179   6.630  0.0155  0.1089 -0.5005
   93SAPE   O13 9128   0.572   1.058   6.623 -0.2461 -0.5388 -0.0165
   93SAPE   O14 9129   0.639   1.279   6.741  0.0880  0.1060 -0.3989
   93SAPE   O12 9130   0.809   1.121   6.638  0.5031 -0.5574  0.1005
   93SAPE   O11 9131   0.654   1.250   6.489 -0.5353 -0.0489  0.7299
   93SAPE    C1 9132   0.732   1.196   6.374  0.3111  0.5020 -0.5512
   93SAPE    HA 9133   0.782   1.277   6.318  1.1981 -1.0225 -2.0662
   93SAPE    HB 9134   0.814   1.131   6.412 -0.8349 -0.4226  0.4240
   93SAPE    C2 9135   0.642   1.123   6.276 -0.7066 -0.0537 -0.4887
   93SAPE    HS 9136   0.611   1.033   6.333 -2.7733  0.1472 -1.2293
   93SAPE   O21 9137   0.723   1.070   6.174  0.1458  0.6318  0.1626
   93SAPE   C21 9138   0.665   0.984   6.089 -0.6822 -0.0248  0.0964
   93SAPE   O22 9139   0.550   0.940   6.100 -0.0110  0.2041  0.2554
   93SAPE   C22 9140   0.774   0.951   5.980 -0.6111 -0.1386 -0.1543
   93SAPE   H2R 9141   0.818   1.051   5.959 -2.7200  1.1492  1.2233
   93SAPE   H2S 9142   0.849   0.884   6.027  0.1584  2.2669  2.3312
   93SAPE    C3 9143   0.512   1.201   6.232 -0.7112 -0.9205 -0.2342
   93SAPE    HX 9144   0.459   1.224   6.327 -1.5507  0.8679 -1.0880
   93SAPE    HY 9145   0.446   1.148   6.161 -1.5757  2.3505 -2.0649
   93SAPE   O31 9146   0.546   1.333   6.177 -0.1416  0.0093  0.0895
   93SAPE   C31 9147   0.453   1.421   6.154  0.2593  0.5427 -0.4607
   93SAPE   O32 9148   0.342   1.419   6.203 -0.6289  0.4059  0.2353
   93SAPE   C32 9149   0.508   1.531   6.075  0.5103 -0.0483  0.1444
   93SAPE   H2X 9150   0.602   1.570   6.120  0.7481  1.3224 -1.4423
   93SAPE   H2Y 9151   0.433   1.609   6.101 -0.9669 -1.2355 -0.3913
   93SAPE   C23 9152   0.698   0.902   5.856 -0.1399 -0.1414  0.8789
   93SAPE   H3R 9153   0.626   0.821   5.880 -0.7355 -0.2204 -0.9561
   93SAPE   H3S 9154   0.776   0.860   5.788  1.2712 -3.2061  4.0687
   93SAPE   C24 9155   0.616   1.013   5.785 -0.0551 -0.1018 -0.4532
   93SAPE   H4R 9156   0.550   1.057   5.862  1.0756 -0.6616  0.8752
   93SAPE   H4S 9157   0.551   0.961   5.712  0.5836 -2.1209  0.3673
   93SAPE   C25 9158   0.700   1.121   5.723  0.4027  0.1537  0.1145
   93SAPE   H5R 9159   0.762   1.171   5.800  0.0576  1.2982 -0.3234
   93SAPE   C26 9160   0.712   1.152   5.596 -0.4500 -0.1658  0.8226
   93SAPE   H6R 9161   0.781   1.228   5.558  1.4054 -2.5518 -0.8980
   93SAPE   C27 9162   0.641   1.087   5.484 -0.1990 -0.0533  0.0384
   93SAPE   H7R 9163   0.622   0.980   5.505 -3.6130  0.3608 -0.4601
   93SAPE   H7S 9164   0.696   1.085   5.387 -0.9974  0.8332 -0.4431
   93SAPE   C28 9165   0.503   1.137   5.467 -0.4081  0.2143  0.2912
   93SAPE   H8R 9166   0.433   1.125   5.551 -1.6271 -1.5512 -0.9045
   93SAPE   C29 9167   0.457   1.190   5.348 -0.3611 -0.1567  1.2994
   93SAPE   H9R 9168   0.353   1.220   5.332 -0.3129  0.2738  1.7564
   93SAPE  C210 9169   0.541   1.191   5.218 -0.3172 -0.1298  0.2855
   93SAPE  H10R 9170   0.564   1.085   5.194 -1.2963 -0.1766 -0.5421
   93SAPE  H10S 9171   0.634   1.250   5.233  1.1035 -2.0657 -0.4947
   93SAPE  C211 9172   0.459   1.243   5.101  0.1489 -0.2894  0.4054
   93SAPE  H11R 9173   0.353   1.213   5.106  0.7249 -2.2081  3.6032
   93SAPE  C212 9174   0.496   1.332   5.009  0.0594  0.5995 -0.4788
   93SAPE  H12R 9175   0.427   1.351   4.925  2.3837  1.3696 -2.3325
   93SAPE  C213 9176   0.637   1.391   4.993 -0.1591  0.1618 -0.2165
   93SAPE  H13R 9177   0.699   1.348   4.911  0.5209 -1.1194  0.9159
   93SAPE  H13S 9178   0.704   1.364   5.078  0.0382  3.0281  0.6304
   93SAPE  C214 9179   0.623   1.540   4.970  0.4879 -0.0432 -0.1177
   93SAPE  H14R 9180   0.567   1.604   5.040  0.5239  0.7562 -0.8169
   93SAPE  C215 9181   0.677   1.618   4.876 -0.7442  0.0297  0.1734
   93SAPE  H15R 9182   0.633   1.716   4.854 -3.5643 -1.2509 -0.2360
   93SAPE  C216 9183   0.778   1.573   4.774  0.2546 -0.3809  0.2481
   93SAPE  H16R 9184   0.728   1.540   4.680  0.2209 -2.3265  0.9069
   93SAPE  H16S 9185   0.838   1.484   4.803  0.3823 -0.7049 -0.9427
   93SAPE  C217 9186   0.878   1.689   4.747 -0.4955 -0.0526  0.6906
   93SAPE  H17R 9187   0.922   1.734   4.839  1.0709  0.5083 -0.2988
   93SAPE  H17S 9188   0.821   1.773   4.700  0.8762  0.9833  0.8344
   93SAPE  C218 9189   0.999   1.651   4.648 -0.0011  0.0999  0.3725
   93SAPE  H18R 9190   1.046   1.744   4.609 -2.8803  0.5408 -2.4348
   93SAPE  H18S 9191   0.967   1.608   4.551 -0.2648 -1.2479  1.0354
   93SAPE  C219 9192   1.102   1.564   4.703  0.1910 -0.7948  1.0284
   93SAPE  H19R 9193   1.065   1.475   4.758  1.5143 -2.1093 -0.1305
   93SAPE  H19S 9194   1.155   1.619   4.784  0.0258  0.5543  0.2571
   93SAPE  C220 9195   1.207   1.530   4.601 -0.0407  0.4550  0.6717
   93SAPE  H20R 9196   1.293   1.600   4.606 -1.2574  1.9804  1.0334
   93SAPE  H20S 9197   1.168   1.527   4.497  1.2335  0.3673  0.1787
   93SAPE  H20T 9198   1.250   1.433   4.635  0.1158  0.9093  1.7985
   93SAPE   C33 9199   0.522   1.511   5.920  0.1901 -0.1135 -0.5523
   93SAPE   H3X 9200   0.423   1.489   5.875 -1.5545 -0.1854  3.0035
   93SAPE   H3Y 9201   0.591   1.426   5.904 -0.8050 -0.8439 -1.0871
   93SAPE   C34 9202   0.587   1.630   5.848  0.0643 -0.2662 -0.3442
   93SAPE   H4X 9203   0.678   1.666   5.901 -0.0646  1.6677 -1.3783
   93SAPE   H4Y 9204   0.517   1.715   5.835  2.0915  1.3106 -1.4216
   93SAPE   C35 9205   0.647   1.595   5.711  0.4608 -0.3296 -0.1907
   93SAPE   H5X 9206   0.694   1.495   5.711  0.7869 -0.1800 -0.5476
   93SAPE   H5Y 9207   0.730   1.666   5.693  0.9257 -1.3649 -2.4908
   93SAPE   C36 9208   0.556   1.592   5.593  0.2842 -0.3508 -0.3986
   93SAPE   H6X 9209   0.505   1.690   5.578  1.0258  0.1152  0.0438
   93SAPE   H6Y 9210   0.471   1.521   5.598 -1.8066  1.9016 -1.5791
   93SAPE   C37 9211   0.632   1.569   5.459  0.0126 -0.1984  0.0965
   93SAPE   H7X 9212   0.545   1.547   5.393  2.0134  0.2016 -2.8421
   93SAPE   H7Y 9213   0.699   1.481   5.456 -1.2530 -1.2043 -2.8568
   93SAPE   C38 9214   0.713   1.683   5.401 -0.3385  0.1529 -0.0920
   93SAPE   H8X 9215   0.762   1.652   5.307  0.1139  1.2920 -0.2433
   93SAPE   H8Y 9216   0.788   1.693   5.482 -1.2401  1.6726  0.6159
   93SAPE   C39 9217   0.627   1.813   5.387 -0.5032 -0.4737 -0.5376
   93SAPE   H9X 9218   0.607   1.858   5.486  2.0090 -1.8849  0.7121
   93SAPE   H9Y 9219   0.528   1.782   5.347 -0.1034 -1.1805 -0.9980
   93SAPE  C310 9220   0.702   1.916   5.298  0.1342  0.3237  0.2433
   93SAPE  H10X 9221   0.700   1.880   5.193 -0.4894 -1.7287  0.9116
   93SAPE  H10Y 9222   0.805   1.931   5.337  0.7372 -1.6138 -0.5229
   93SAPE  C311 9223   0.636   2.051   5.284 -1.0747 -0.5474 -0.7318
   93SAPE  H11X 9224   0.694   2.126   5.225 -1.2646 -0.5760 -0.9558
   93SAPE  H11Y 9225   0.627   2.094   5.386 -0.1306  0.3644 -1.0122
   93SAPE  C312 9226   0.490   2.047   5.222 -0.5256 -0.9497 -0.3114
   93SAPE  H12X 9227   0.435   2.140   5.251 -3.3246 -2.2143 -1.1770
   93SAPE  H12Y 9228   0.425   1.972   5.273 -0.4978 -0.0185  1.1628
   93SAPE  C313 9229   0.479   2.008   5.074 -0.1299 -0.1709  0.0302
   93SAPE  H13X 9230   0.393   2.062   5.029 -0.5422  1.1348  2.2633
   93SAPE  H13Y 9231   0.464   1.898   5.074  0.7130 -0.2984 -0.4105
   93SAPE  C314 9232   0.594   2.041   4.977  0.5700 -1.1473  0.2730
   93SAPE  H14X 9233   0.689   1.993   5.009  1.0598  0.5655  1.5487
   93SAPE  H14Y 9234   0.615   2.149   4.964  0.1046 -1.0526  0.2728
   93SAPE  C315 9235   0.548   1.995   4.837  0.1055  1.1909 -0.2941
   93SAPE  H15X 9236   0.481   1.908   4.857 -1.4119  2.7234  1.7215
   93SAPE  H15Y 9237   0.640   1.961   4.785 -0.9280 -2.3554 -0.1231
   93SAPE  C316 9238   0.478   2.098   4.755  1.0460 -0.0924 -0.1537
   93SAPE  H16X 9239   0.530   2.193   4.778  2.2461 -1.5965  4.4720
   93SAPE  H16Y 9240   0.376   2.123   4.794  1.0947  3.5241 -1.8730
   93SAPE  C317 9241   0.459   2.065   4.606 -0.1106 -0.1335  0.0212
   93SAPE  H17X 9242   0.401   1.971   4.591 -0.6401  0.0786  0.6766
   93SAPE  H17Y 9243   0.554   2.061   4.550 -0.2507 -1.5892 -0.1338
   93SAPE  C318 9244   0.381   2.176   4.543 -0.0959  0.2005  0.1187
   93SAPE  H18X 9245   0.276   2.184   4.579 -0.7257  0.3942 -1.6721
   93SAPE  H18Y 9246   0.378   2.170   4.432 -1.9929  1.0979  0.0750
   93SAPE  H18Z 9247   0.442   2.264   4.571  1.9652 -2.3543  4.7988
   94SAPE     N 9248   4.090   2.832   6.702 -0.4178 -0.1357  0.2644
   94SAPE   HN1 9249   4.104   2.738   6.659  0.4992 -0.1570  0.5911
   94SAPE   HN2 9250   4.126   2.827   6.800  0.3010  1.2630  0.0892
   94SAPE   HN3 9251   3.988   2.851   6.711 -0.2096  0.1059  2.8625
   94SAPE   C12 9252   4.157   2.942   6.628 -0.2331 -0.5466 -0.1762
   94SAPE  H12A 9253   4.157   3.033   6.692 -0.6710 -0.0110 -0.9260
   94SAPE  H12B 9254   4.090   2.982   6.549 -1.7076 -2.1081  0.2393
   94SAPE   C11 9255   4.293   2.904   6.565  0.2914 -0.4968 -0.2906
   94SAPE  H11A 9256   4.320   2.952   6.469  0.7971  2.7042  1.3320
   94SAPE  H11B 9257   4.279   2.798   6.533 -2.2235 -0.2327 -0.2071
   94SAPE     P 9258   4.499   3.014   6.666 -0.1189  0.1988 -0.3525
   94SAPE   O13 9259   4.430   3.144   6.681 -0.6964 -0.0604  0.5849
   94SAPE   O14 9260   4.606   2.985   6.763  0.7356  0.2403 -0.6406
   94SAPE   O12 9261   4.393   2.899   6.665  0.3739 -0.1016  0.4984
   94SAPE   O11 9262   4.576   3.014   6.528 -0.4460  0.4209  0.1144
   94SAPE    C1 9263   4.630   3.136   6.472  0.1020 -0.5417  0.8108
   94SAPE    HA 9264   4.600   3.225   6.530 -2.0006 -0.8409  0.2470
   94SAPE    HB 9265   4.741   3.135   6.463 -0.0462 -0.1192 -2.2638
   94SAPE    C2 9266   4.575   3.181   6.332  0.0035  0.1965 -0.0682
   94SAPE    HS 9267   4.476   3.225   6.356  0.4440  0.8654  0.5611
   94SAPE   O21 9268   4.582   3.060   6.258 -0.2135  0.1724 -0.0408
   94SAPE   C21 9269   4.506   3.067   6.146 -0.3811  0.0361 -0.1069
   94SAPE   O22 9270   4.426   3.156   6.122 -0.4096 -0.0052  0.6236
   94SAPE   C22 9271   4.539   2.955   6.056  0.8783  0.0711  0.2978
   94SAPE   H2R 9272   4.621   2.989   5.990 -0.2026  3.1663  0.4185
   94SAPE   H2S 9273   4.591   2.869   6.103  0.2274 -1.7025 -2.0297
   94SAPE    C3 9274   4.662   3.300   6.280  0.3036  0.3448 -0.4252
   94SAPE    HX 9275   4.764   3.289   6.323 -0.5618  0.9469  1.9647
   94SAPE    HY 9276   4.619   3.393   6.323  1.0514  1.5922 -2.2260
   94SAPE   O31 9277   4.686   3.300   6.144 -0.1002  0.1496 -0.0475
   94SAPE   C31 9278   4.623   3.401   6.081 -0.1671  0.0350  0.5755
   94SAPE   O32 9279   4.548   3.484   6.132 -0.2014  0.2876 -0.5613
   94SAPE   C32 9280   4.647   3.408   5.929 -0.4619 -0.0963  0.0787
   94SAPE   H2X 9281   4.733   3.474   5.910  0.7545 -2.2224 -2.3939
   94SAPE   H2Y 9282   4.554   3.444   5.880 -0.3393 -1.0312 -0.8761
   94SAPE   C23 9283   4.416   2.900   5.984 -0.6038 -0.0288 -0.4570
   94SAPE   H3R 9284   4.374   2.988   5.929  0.9376  0.4910 -0.8604
   94SAPE   H3S 9285   4.344   2.853   6.055 -2.0468 -0.1293 -1.9100
   94SAPE   C24 9286   4.448   2.786   5.886  0.3697  0.2919 -0.2487
   94SAPE   H4R 9287   4.526   2.720   5.929 -0.1209 -0.3680 -0.3583
   94SAPE   H4S 9288   4.490   2.834   5.795 -0.0843 -2.3030 -1.9120
   94SAPE   C25 9289   4.329   2.703   5.843  0.0446 -0.3726 -0.1651
   94SAPE   H5R 9290   4.235   2.759   5.832  0.9044  1.1642  0.0202
   94SAPE   C26 9291   4.329   2.584   5.791 -0.2461  0.3919 -0.5141
   94SAPE   H6R 9292   4.239   2.544   5.743  0.3191  2.1272 -3.3030
   94SAPE   C27 9293   4.460   2.501   5.770  0.0998  0.2638 -0.2658
   94SAPE   H7R 9294   4.471   2.435   5.859 -0.6001  1.3801  0.6803
   94SAPE   H7S 9295   4.549   2.567   5.772 -0.3685  0.9551  2.6936
   94SAPE   C28 9296   4.453   2.412   5.650  0.1049 -0.2136  0.1052
   94SAPE   H8R 9297   4.356   2.407   5.598 -0.0010 -1.7346  0.3956
   94SAPE   C29 9298   4.568   2.365   5.591  0.7030 -0.3682 -0.2292
   94SAPE   H9R 9299   4.559   2.297   5.505 -0.7546  0.2357 -0.5898
   94SAPE  C210 9300   4.707   2.393   5.643  0.6936  0.4387 -0.4089
   94SAPE  H10R 9301   4.698   2.379   5.753  0.4992  3.5687  0.0669
   94SAPE  H10S 9302   4.721   2.503   5.647  0.8120  0.4269 -0.5005
   94SAPE  C211 9303   4.828   2.327   5.586 -0.6152  1.1390 -0.7611
   94SAPE  H11R 9304   4.863   2.241   5.643  1.3256 -0.3091 -3.8600
   94SAPE  C212 9305   4.888   2.345   5.464 -0.4843 -0.2856 -1.0331
   94SAPE  H12R 9306   4.970   2.274   5.446 -1.3230 -0.8513 -2.8486
   94SAPE  C213 9307   4.849   2.442   5.350  0.2966 -1.1753  0.1205
   94SAPE  H13R 9308   4.755   2.489   5.387  0.9485  1.6114 -1.4724
   94SAPE  H13S 9309   4.808   2.392   5.260  0.7686 -0.7290 -0.3499
   94SAPE  C214 9310   4.950   2.548   5.311 -0.7216  0.1351  0.6373
   94SAPE  H14R 9311   5.037   2.553   5.378 -1.6428 -0.7344  1.9484
   94SAPE  C215 9312   4.944   2.618   5.197 -0.0375  0.2320 -0.9361
   94SAPE  H15R 9313   5.023   2.693   5.181  0.7223 -0.4790 -0.5850
   94SAPE  C216 9314   4.829   2.618   5.103 -0.9620 -0.1757 -0.6740
   94SAPE  H16R 9315   4.819   2.725   5.074  0.2681  0.6518  1.6459
   94SAPE  H16S 9316   4.730   2.593   5.148 -1.2326  1.7502 -0.0879
   94SAPE  C217 9317   4.862   2.539   4.973  0.3805 -0.6879  0.2796
   94SAPE  H17R 9318   4.872   2.429   4.990  2.2900 -0.8576 -1.5513
   94SAPE  H17S 9319   4.956   2.589   4.943  0.3256 -0.2972  0.7548
   94SAPE  C218 9320   4.767   2.556   4.860 -0.2496 -0.3209  0.6374
   94SAPE  H18R 9321   4.662   2.560   4.897  0.4395  3.6535  2.6755
   94SAPE  H18S 9322   4.777   2.468   4.793  0.4528  0.8930 -0.9311
   94SAPE  C219 9323   4.798   2.682   4.785 -0.1268 -0.1330  0.2934
   94SAPE  H19R 9324   4.900   2.670   4.744 -1.0587  1.8798 -3.0233
   94SAPE  H19S 9325   4.807   2.758   4.866  1.3282 -0.1967  0.2060
   94SAPE  C220 9326   4.693   2.716   4.681 -0.3710 -0.0717 -1.1488
   94SAPE  H20R 9327   4.738   2.780   4.602  0.8983  1.8360  1.0066
   94SAPE  H20S 9328   4.622   2.773   4.745  2.1254  3.0370 -0.8541
   94SAPE  H20T 9329   4.644   2.624   4.643 -0.3282 -0.7736  0.4487
   94SAPE   C33 9330   4.685   3.274   5.880  0.4988 -0.5059 -0.5875
   94SAPE   H3X 9331   4.597   3.207   5.890  0.0235  0.1247 -0.4464
   94SAPE   H3Y 9332   4.773   3.230   5.931  0.2742 -2.5487 -1.8564
   94SAPE   C34 9333   4.719   3.263   5.733  0.3741 -0.0280 -0.4950
   94SAPE   H4X 9334   4.720   3.153   5.712  0.3028  0.1925 -1.7508
   94SAPE   H4Y 9335   4.821   3.306   5.719 -0.2758  1.9616  0.6403
   94SAPE   C35 9336   4.615   3.330   5.645 -0.1294 -0.0577  0.4133
   94SAPE   H5X 9337   4.617   3.440   5.662 -1.3306 -0.0001  0.2854
   94SAPE   H5Y 9338   4.516   3.296   5.683 -0.2572  1.7993  1.8780
   94SAPE   C36 9339   4.625   3.296   5.495  0.9190  0.7499 -0.1028
   94SAPE   H6X 9340   4.612   3.188   5.473  2.0194  0.5203  0.2959
   94SAPE   H6Y 9341   4.728   3.318   5.460  1.3423 -0.5242  0.3074
   94SAPE   C37 9342   4.522   3.379   5.416  0.2702  0.1362 -0.1238
   94SAPE   H7X 9343   4.539   3.483   5.451  0.9885  0.1849 -0.5907
   94SAPE   H7Y 9344   4.424   3.346   5.456  0.6072  0.7270  1.2560
   94SAPE   C38 9345   4.520   3.366   5.264  0.2578  0.3266  1.0543
   94SAPE   H8X 9346   4.422   3.333   5.225  1.4098 -0.7870 -1.0916
   94SAPE   H8Y 9347   4.593   3.289   5.230  0.3702  0.4757  0.9630
   94SAPE   C39 9348   4.551   3.502   5.194 -0.6096 -0.1838 -0.2283
   94SAPE   H9X 9349   4.627   3.553   5.258 -0.2052  0.0258 -0.8732
   94SAPE   H9Y 9350   4.461   3.565   5.176 -0.7472 -0.3543 -0.1456
   94SAPE  C310 9351   4.628   3.492   5.065  0.4482  0.4283 -0.1873
   94SAPE  H10X 9352   4.585   3.420   4.991 -0.1682 -1.8907  2.2654
   94SAPE  H10Y 9353   4.730   3.452   5.081 -0.5184 -1.8661  0.6515
   94SAPE  C311 9354   4.657   3.631   5.007  0.0880  0.0249 -0.4180
   94SAPE  H11X 9355   4.723   3.700   5.064 -1.1642  0.7472  0.1890
   94SAPE  H11Y 9356   4.558   3.679   4.993 -1.1956 -2.3208  0.0309
   94SAPE  C312 9357   4.699   3.634   4.860  0.4177 -0.0563 -0.6157
   94SAPE  H12X 9358   4.672   3.722   4.799 -0.8611 -2.7040 -4.2622
   94SAPE  H12Y 9359   4.652   3.544   4.814 -0.9504  0.0015  0.6173
   94SAPE  C313 9360   4.856   3.617   4.848 -0.3699 -0.6466  0.8942
   94SAPE  H13X 9361   4.886   3.528   4.908 -1.8440 -2.5116 -0.9791
   94SAPE  H13Y 9362   4.906   3.702   4.898 -0.0893  0.5343 -1.2565
   94SAPE  C314 9363   4.909   3.602   4.705  0.7048  0.0250  0.3585
   94SAPE  H14X 9364   4.823   3.570   4.643  0.7174 -0.5209  0.6193
   94SAPE  H14Y 9365   4.989   3.525   4.707  1.5590  0.8470 -0.7113
   94SAPE  C315 9366   4.968   3.728   4.649 -0.8310  0.5477 -0.0625
   94SAPE  H15X 9367   5.047   3.756   4.722 -1.2393 -1.1965  1.0985
   94SAPE  H15Y 9368   4.891   3.807   4.636  0.2266  1.8073  0.9790
   94SAPE  C316 9369   5.032   3.717   4.507  0.0858  0.3869  0.6996
   94SAPE  H16X 9370   4.949   3.688   4.439  1.0149 -0.3849 -0.1390
   94SAPE  H16Y 9371   5.111   3.639   4.499  0.2060  0.3036  2.3345
   94SAPE  C317 9372   5.101   3.841   4.466  0.0730 -0.0874  0.3831
   94SAPE  H17X 9373   5.160   3.877   4.553 -0.0207  1.3101 -0.1085
   94SAPE  H17Y 9374   5.042   3.928   4.431 -0.1820 -0.6548 -0.6572
   94SAPE  C318 9375   5.209   3.820   4.358  0.4578 -0.2395 -1.0595
   94SAPE  H18X 9376   5.263   3.916   4.344  0.0017  0.0385 -0.9397
   94SAPE  H18Y 9377   5.165   3.783   4.263  0.1614 -0.2849 -0.9084
   94SAPE  H18Z 9378   5.276   3.743   4.400 -0.1992 -0.7378 -0.9000
   95SAPE     N 9379   2.024   1.219   6.426 -0.4135 -0.0767 -0.1376
   95SAPE   HN1 9380   2.053   1.250   6.521  2.0828  2.1996 -1.5146
   95SAPE   HN2 9381   2.095   1.158   6.381 -1.2255 -0.3463 -1.0951
   95SAPE   HN3 9382   2.011   1.307   6.372  1.6887 -0.3123 -1.1338
   95SAPE   C12 9383   1.886   1.154   6.444  0.2212  0.3986  0.5273
   95SAPE  H12A 9384   1.863   1.111   6.344  0.8645 -0.0096  0.5487
   95SAPE  H12B 9385   1.812   1.233   6.471  1.7912  1.0380  3.3491
   95SAPE   C11 9386   1.904   1.032   6.541 -0.2516  0.5587  0.0850
   95SAPE  H11A 9387   1.802   1.003   6.574  0.2881 -2.2261 -0.4274
   95SAPE  H11B 9388   1.960   1.078   6.626 -0.0168  4.5116 -1.9911
   95SAPE     P 9389   1.991   0.785   6.543  0.0550 -0.1456  0.1776
   95SAPE   O13 9390   2.113   0.784   6.614 -0.4029 -0.5954 -0.5284
   95SAPE   O14 9391   1.873   0.773   6.629 -0.2798  0.8863 -0.0633
   95SAPE   O12 9392   1.983   0.933   6.475  0.8101 -0.4446  0.0771
   95SAPE   O11 9393   1.997   0.683   6.426  0.3257  0.0948  0.6303
   95SAPE    C1 9394   1.891   0.627   6.350 -0.1272  0.1556 -0.0517
   95SAPE    HA 9395   1.900   0.517   6.356  1.0659  0.1997 -0.7103
   95SAPE    HB 9396   1.791   0.657   6.389 -0.0111 -1.2732  1.4231
   95SAPE    C2 9397   1.888   0.668   6.193  0.3393 -0.4780  0.3398
   95SAPE    HS 9398   1.795   0.655   6.134  0.8671 -0.3276 -0.5531
   95SAPE   O21 9399   1.985   0.598   6.115  0.9622  0.1689  0.0903
   95SAPE   C21 9400   1.966   0.468   6.112  0.9729  0.0864 -0.0656
   95SAPE   O22 9401   1.866   0.411   6.150 -0.5249 -0.3829 -0.3017
   95SAPE   C22 9402   2.097   0.403   6.056 -0.2993 -0.0170  0.1638
   95SAPE   H2R 9403   2.178   0.421   6.129 -0.0613  0.2128 -0.1505
   95SAPE   H2S 9404   2.068   0.296   6.049  2.7262 -0.8512 -0.9927
   95SAPE    C3 9405   1.912   0.822   6.189 -0.1497  0.6133 -0.5045
   95SAPE    HX 9406   2.006   0.842   6.245 -1.7849  2.5530  1.7059
   95SAPE    HY 9407   1.837   0.872   6.254 -0.8387 -1.1657  0.1585
   95SAPE   O31 9408   1.905   0.871   6.051  0.0077 -0.2112  0.6840
   95SAPE   C31 9409   2.010   0.941   6.020  0.3681 -0.9512 -0.5338
   95SAPE   O32 9410   2.101   0.972   6.095 -0.1215 -0.1537  0.0749
   95SAPE   C32 9411   1.996   0.992   5.881 -0.2746 -0.7743  0.0367
   95SAPE   H2X 9412   1.908   1.059   5.867  0.6144  0.4733  0.2117
   95SAPE   H2Y 9413   1.984   0.910   5.808 -0.5449  0.8287 -1.8040
   95SAPE   C23 9414   2.137   0.452   5.915  0.2623  0.3279  0.6770
   95SAPE   H3R 9415   2.162   0.560   5.913  0.0851  0.3708  0.7805
   95SAPE   H3S 9416   2.056   0.444   5.840 -0.6170  0.3133  1.6066
   95SAPE   C24 9417   2.271   0.388   5.868  0.1800  0.3249 -0.0163
   95SAPE   H4R 9418   2.335   0.381   5.959 -1.8494 -2.6756  1.3465
   95SAPE   H4S 9419   2.319   0.452   5.791  4.0433  1.0346  2.6783
   95SAPE   C25 9420   2.250   0.241   5.813  0.4315 -0.0606  0.2875
   95SAPE   H5R 9421   2.280   0.164   5.885  0.6665  0.7440  1.0669
   95SAPE   C26 9422   2.208   0.190   5.694  0.7961  0.4991  0.4994
   95SAPE   H6R 9423   2.217   0.082   5.677 -2.5224 -0.1172  1.9435
   95SAPE   C27 9424   2.157   0.263   5.577 -0.0236 -0.3869  0.0226
   95SAPE   H7R 9425   2.107   0.352   5.620  1.3556 -0.9184  3.0321
   95SAPE   H7S 9426   2.080   0.203   5.526 -0.0894 -0.3681  0.1000
   95SAPE   C28 9427   2.260   0.318   5.483  1.0737  0.0379  0.2158
   95SAPE   H8R 9428   2.353   0.359   5.525  0.8527  0.2777  0.4747
   95SAPE   C29 9429   2.266   0.327   5.357  0.5289 -0.1317  0.5694
   95SAPE   H9R 9430   2.355   0.373   5.312  1.5945 -3.7070 -1.3866
   95SAPE  C210 9431   2.161   0.280   5.260 -0.0361 -0.6044 -0.5189
   95SAPE  H10R 9432   2.061   0.264   5.304  0.8671 -1.7786  1.2006
   95SAPE  H10S 9433   2.183   0.179   5.220 -1.0058 -0.1329 -2.3524
   95SAPE  C211 9434   2.141   0.388   5.152  0.1044  0.3731  0.3257
   95SAPE  H11R 9435   2.113   0.488   5.187  0.5468  0.4156  0.5688
   95SAPE  C212 9436   2.131   0.363   5.021 -0.1220  0.6511  0.2149
   95SAPE  H12R 9437   2.142   0.449   4.954 -1.2342  0.5950 -0.0603
   95SAPE  C213 9438   2.144   0.226   4.962 -0.5663 -0.0520 -0.6440
   95SAPE  H13R 9439   2.129   0.144   5.034  1.7949 -0.1884 -0.2097
   95SAPE  H13S 9440   2.246   0.214   4.920 -0.1348  0.2032  0.2994
   95SAPE  C214 9441   2.037   0.220   4.857 -0.1497  0.3716  0.9506
   95SAPE  H14R 9442   2.063   0.267   4.761  0.2451  1.0810  1.3996
   95SAPE  C215 9443   1.913   0.165   4.863 -0.5113  0.1052 -0.5653
   95SAPE  H15R 9444   1.851   0.159   4.772 -1.2644 -1.6739  0.0241
   95SAPE  C216 9445   1.848   0.095   4.982 -1.2711  0.5869 -0.9141
   95SAPE  H16R 9446   1.917   0.094   5.069 -0.7469 -0.1813 -1.3176
   95SAPE  H16S 9447   1.832  -0.010   4.950 -1.2076 -0.2447  1.5740
   95SAPE  C217 9448   1.721   0.160   5.040 -0.7489 -0.3190 -0.5529
   95SAPE  H17R 9449   1.744   0.258   5.087 -2.9611  0.0728 -0.2016
   95SAPE  H17S 9450   1.689   0.101   5.129  1.7733  0.1161  0.7529
   95SAPE  C218 9451   1.609   0.184   4.937  0.1883 -0.3904 -0.3530
   95SAPE  H18R 9452   1.632   0.267   4.867 -1.4418  0.2166 -0.2187
   95SAPE  H18S 9453   1.521   0.226   4.990  0.8643  1.3476 -0.5591
   95SAPE  C219 9454   1.571   0.056   4.851  0.1611 -0.1218  0.0917
   95SAPE  H19R 9455   1.657   0.011   4.798 -0.8371 -1.1595 -0.6792
   95SAPE  H19S 9456   1.500   0.093   4.774  0.0384 -1.2601 -0.3500
   95SAPE  C220 9457   1.505  -0.050   4.943  0.1487 -0.0996  0.1013
   95SAPE  H20R 9458   1.420  -0.005   4.999  0.8457 -0.4137  1.4606
   95SAPE  H20S 9459   1.573  -0.083   5.024  0.1185 -1.3370 -0.3568
   95SAPE  H20T 9460   1.466  -0.133   4.881 -0.8911 -0.3159  1.0048
   95SAPE   C33 9461   2.116   1.077   5.831 -0.0339  0.2300 -0.3589
   95SAPE   H3X 9462   2.161   1.140   5.911 -1.7197  0.4028  0.5074
   95SAPE   H3Y 9463   2.086   1.141   5.746  0.2996 -0.0935 -0.7227
   95SAPE   C34 9464   2.223   0.980   5.779  0.4164 -0.1274  0.0549
   95SAPE   H4X 9465   2.175   0.931   5.693 -0.3765 -0.3816  0.6336
   95SAPE   H4Y 9466   2.232   0.903   5.859 -0.6755  0.5506  0.8565
   95SAPE   C35 9467   2.354   1.054   5.735 -0.3470  0.0784  0.2234
   95SAPE   H5X 9468   2.417   0.977   5.685 -0.7378  0.4945 -0.9586
   95SAPE   H5Y 9469   2.409   1.085   5.826  0.1393  0.2305 -0.1167
   95SAPE   C36 9470   2.344   1.169   5.640 -0.0150 -0.2608  0.3654
   95SAPE   H6X 9471   2.443   1.220   5.636  0.6489 -1.4741  0.7672
   95SAPE   H6Y 9472   2.268   1.235   5.687 -0.8995  0.4083 -1.8444
   95SAPE   C37 9473   2.296   1.125   5.497 -0.9460  0.4438  0.2468
   95SAPE   H7X 9474   2.190   1.093   5.502 -0.8720 -0.2494 -1.6167
   95SAPE   H7Y 9475   2.350   1.032   5.468 -1.5366  0.0385  0.4199
   95SAPE   C38 9476   2.304   1.235   5.392 -0.2339  0.4157 -0.2611
   95SAPE   H8X 9477   2.411   1.265   5.384  0.0135 -0.7773 -1.8040
   95SAPE   H8Y 9478   2.240   1.313   5.440 -0.2257 -0.0785  0.5779
   95SAPE   C39 9479   2.266   1.181   5.252  0.6667  0.3076  1.0836
   95SAPE   H9X 9480   2.160   1.149   5.261  1.3457 -2.1488  0.9986
   95SAPE   H9Y 9481   2.326   1.096   5.215 -1.1120 -0.6430  0.2649
   95SAPE  C310 9482   2.282   1.290   5.140 -0.1150  0.1627  0.1602
   95SAPE  H10X 9483   2.388   1.318   5.125  0.0766 -1.7228 -2.5165
   95SAPE  H10Y 9484   2.220   1.376   5.177 -2.0628  0.0582 -2.5834
   95SAPE  C311 9485   2.226   1.256   5.001  0.3863  0.3399 -0.4441
   95SAPE  H11X 9486   2.300   1.202   4.938  1.6636  0.1684  1.1508
   95SAPE  H11Y 9487   2.188   1.349   4.953 -0.7715  0.3365  0.4303
   95SAPE  C312 9488   2.110   1.150   5.009  0.1847 -0.5149  0.6411
   95SAPE  H12X 9489   2.045   1.192   5.089  1.6724  1.6571  0.7948
   95SAPE  H12Y 9490   2.149   1.051   5.040  1.4313  0.0827  1.0391
   95SAPE  C313 9491   2.038   1.128   4.869  0.2820  0.0936 -0.4210
   95SAPE  H13X 9492   2.111   1.065   4.814  0.2527  0.9124 -1.4268
   95SAPE  H13Y 9493   2.027   1.229   4.824 -0.6589  1.4130  2.4759
   95SAPE  C314 9494   1.907   1.046   4.880  0.2623 -0.0101 -0.6360
   95SAPE  H14X 9495   1.865   1.036   4.778 -0.9822  2.2922 -0.4321
   95SAPE  H14Y 9496   1.825   1.096   4.936 -2.2025  0.0924 -4.0667
   95SAPE  C315 9497   1.933   0.910   4.941 -0.3165  0.0257 -0.3763
   95SAPE  H15X 9498   1.931   0.920   5.052 -0.5535 -0.9368 -0.2825
   95SAPE  H15Y 9499   2.035   0.877   4.912 -0.6752 -0.5663 -1.0219
   95SAPE  C316 9500   1.833   0.802   4.902  0.2265 -0.0717 -0.4025
   95SAPE  H16X 9501   1.817   0.806   4.792  1.1523 -0.6299 -0.5675
   95SAPE  H16Y 9502   1.731   0.825   4.940  1.2789  0.1069  2.5843
   95SAPE  C317 9503   1.866   0.659   4.936  0.4899  0.4426 -0.1859
   95SAPE  H17X 9504   1.905   0.650   5.040 -0.2814  0.5394  0.1232
   95SAPE  H17Y 9505   1.946   0.617   4.873 -0.4458 -1.6073 -0.0948
   95SAPE  C318 9506   1.729   0.580   4.927  0.5373 -0.0260  0.0056
   95SAPE  H18X 9507   1.749   0.474   4.956  1.5497  0.1441 -0.0373
   95SAPE  H18Y 9508   1.690   0.578   4.824 -0.7996  0.2770  0.4858
   95SAPE  H18Z 9509   1.649   0.609   4.999  1.4572  0.3701  0.9074
   96SAPE     N 9510   6.038   4.680   7.151  0.1722  0.5021 -0.6083
   96SAPE   HN1 9511   6.063   4.612   7.076 -1.2581 -0.5255 -0.1891
   96SAPE   HN2 9512   5.959   4.638   7.204  0.7896 -0.2187 -0.2266
   96SAPE   HN3 9513   6.009   4.771   7.110 -0.4881  0.4152 -0.3406
   96SAPE   C12 9514   6.155   4.695   7.240  0.1166 -0.2541 -0.1615
   96SAPE  H12A 9515   6.178   4.602   7.296  3.7431  0.0836 -0.8975
   96SAPE  H12B 9516   6.130   4.783   7.304  1.0293  0.0615 -0.2278
   96SAPE   C11 9517   6.272   4.740   7.162  0.0756  0.8380  0.4680
   96SAPE  H11A 9518   6.361   4.747   7.229  3.1439 -1.3394 -2.9843
   96SAPE  H11B 9519   6.249   4.837   7.113  0.9755  1.1541  0.6390
   96SAPE     P 9520   6.440   4.669   6.974  0.3045  0.1727  0.2182
   96SAPE   O13 9521   6.551   4.719   7.053 -0.3507  0.1877  0.7602
   96SAPE   O14 9522   6.458   4.547   6.890  0.1071 -0.3010 -0.4769
   96SAPE   O12 9523   6.311   4.642   7.061  0.1049 -0.1197 -0.3931
   96SAPE   O11 9524   6.389   4.782   6.878 -0.1548 -0.2979 -0.1484
   96SAPE    C1 9525   6.274   4.774   6.805  0.1331  0.3875  0.1810
   96SAPE    HA 9526   6.209   4.690   6.838  1.8026 -1.0146 -0.0119
   96SAPE    HB 9527   6.215   4.867   6.824  0.6942  0.2748  2.8033
   96SAPE    C2 9528   6.300   4.771   6.655  1.1726 -0.3720  0.9484
   96SAPE    HS 9529   6.325   4.665   6.633  0.2907 -0.1981 -1.0109
   96SAPE   O21 9530   6.402   4.858   6.618  0.0961 -0.8180  0.4131
   96SAPE   C21 9531   6.475   4.810   6.520  0.1937 -1.2238  0.1340
   96SAPE   O22 9532   6.465   4.712   6.455 -0.4621  0.2509  0.4069
   96SAPE   C22 9533   6.569   4.923   6.482 -0.6243 -0.4210 -0.8739
   96SAPE   H2R 9534   6.632   4.941   6.572 -0.6292 -0.7080 -0.8108
   96SAPE   H2S 9535   6.631   4.877   6.402 -2.1810 -0.8964 -1.8496
   96SAPE    C3 9536   6.168   4.797   6.582 -0.8695 -0.5270 -1.1844
   96SAPE    HX 9537   6.143   4.902   6.609 -0.8165 -1.4362  3.1342
   96SAPE    HY 9538   6.091   4.730   6.624  1.0606 -1.8940  0.3659
   96SAPE   O31 9539   6.180   4.775   6.442  0.4998 -0.3910  0.4884
   96SAPE   C31 9540   6.167   4.639   6.405  0.3002 -0.0818  0.7006
   96SAPE   O32 9541   6.156   4.553   6.482  0.1526 -0.1178 -0.6648
   96SAPE   C32 9542   6.189   4.623   6.256 -0.0194  0.0076  0.2301
   96SAPE   H2X 9543   6.231   4.718   6.218  1.2027 -1.1626 -1.4836
   96SAPE   H2Y 9544   6.093   4.600   6.205 -1.4837 -2.1264  3.5901
   96SAPE   C23 9545   6.505   5.049   6.413 -0.2964  0.3617  0.3599
   96SAPE   H3R 9546   6.578   5.130   6.391 -0.2532  0.0340 -0.8149
   96SAPE   H3S 9547   6.432   5.094   6.484  0.0561  0.3999  0.7015
   96SAPE   C24 9548   6.430   5.013   6.287  0.0892  0.5459 -0.2006
   96SAPE   H4R 9549   6.361   5.093   6.253 -1.8268 -0.2590  1.6026
   96SAPE   H4S 9550   6.352   4.941   6.319 -1.0667  2.4427  1.4908
   96SAPE   C25 9551   6.522   4.955   6.180 -1.0357 -0.4281 -0.5521
   96SAPE   H5R 9552   6.585   4.867   6.197 -0.0131  0.1965 -1.0381
   96SAPE   C26 9553   6.524   5.001   6.050  0.2646  0.2224  0.6589
   96SAPE   H6R 9554   6.597   4.961   5.979 -1.7757 -0.9577 -0.8962
   96SAPE   C27 9555   6.455   5.121   5.990  0.0705  0.4314 -0.1733
   96SAPE   H7R 9556   6.521   5.182   5.924 -1.3284  2.8359  0.4988
   96SAPE   H7S 9557   6.410   5.196   6.058 -2.2638  0.7113 -1.8934
   96SAPE   C28 9558   6.329   5.083   5.912 -0.0503 -0.0696 -0.2615
   96SAPE   H8R 9559   6.243   5.050   5.972  0.2130  0.6899  0.5613
   96SAPE   C29 9560   6.304   5.094   5.782 -0.2532  0.0412  0.7143
   96SAPE   H9R 9561   6.201   5.067   5.754 -0.2406  1.7292 -1.1626
   96SAPE  C210 9562   6.395   5.136   5.662  0.7494  0.5560  0.4100
   96SAPE  H10R 9563   6.499   5.167   5.683  0.8008 -0.0405  1.0660
   96SAPE  H10S 9564   6.351   5.227   5.615  0.9013  0.3594 -0.1228
   96SAPE  C211 9565   6.380   5.022   5.559  0.7259  0.5788 -0.0233
   96SAPE  H11R 9566   6.365   4.917   5.588  0.0001  0.4288 -0.9131
   96SAPE  C212 9567   6.407   5.044   5.431  1.0862  0.1294 -0.0817
   96SAPE  H12R 9568   6.392   4.964   5.357  1.6982 -0.7605  0.7457
   96SAPE  C213 9569   6.451   5.170   5.360  0.3737 -0.7286 -0.3582
   96SAPE  H13R 9570   6.534   5.149   5.290 -0.5615 -2.4939 -0.9907
   96SAPE  H13S 9571   6.496   5.232   5.441 -0.6603 -0.6398  0.1729
   96SAPE  C214 9572   6.344   5.240   5.282  0.0474 -0.6632  0.0556
   96SAPE  H14R 9573   6.258   5.264   5.346 -1.2670 -0.7004 -1.6289
   96SAPE  C215 9574   6.329   5.272   5.152 -0.5709 -0.5243  0.2017
   96SAPE  H15R 9575   6.248   5.330   5.106  1.0381  0.6266 -1.3063
   96SAPE  C216 9576   6.437   5.239   5.048 -0.2468 -0.0017 -0.0353
   96SAPE  H16R 9577   6.443   5.128   5.041 -1.8254 -0.1109 -0.2017
   96SAPE  H16S 9578   6.527   5.290   5.086  0.0839  0.9753 -2.0071
   96SAPE  C217 9579   6.397   5.294   4.908 -0.4778 -0.5729  0.2546
   96SAPE  H17R 9580   6.495   5.297   4.856 -0.7225 -0.4521 -0.2040
   96SAPE  H17S 9581   6.370   5.400   4.930  0.1739 -0.4228  0.3653
   96SAPE  C218 9582   6.302   5.219   4.815 -0.2818 -0.4231 -0.1296
   96SAPE  H18R 9583   6.328   5.113   4.795 -1.4987 -0.2759 -3.0032
   96SAPE  H18S 9584   6.306   5.274   4.718 -1.7726  1.9293  1.0472
   96SAPE  C219 9585   6.160   5.224   4.874 -0.0587 -0.2173  0.1217
   96SAPE  H19R 9586   6.141   5.327   4.912  3.6391  0.5385  0.2708
   96SAPE  H19S 9587   6.151   5.158   4.963  0.2034  2.6587  2.4526
   96SAPE  C220 9588   6.050   5.204   4.766 -0.0674  0.1373  0.4348
   96SAPE  H20R 9589   6.014   5.302   4.729 -1.7916  0.0599  1.8134
   96SAPE  H20S 9590   5.972   5.159   4.830  0.9954  1.9345  3.1751
   96SAPE  H20T 9591   6.091   5.136   4.688 -0.5372 -0.2270  0.5044
   96SAPE   C33 9592   6.292   4.511   6.224 -0.2488  0.2835 -0.3283
   96SAPE   H3X 9593   6.262   4.413   6.265  0.2781 -0.2579 -1.2113
   96SAPE   H3Y 9594   6.386   4.534   6.278 -1.4969  1.8885  1.3060
   96SAPE   C34 9595   6.308   4.501   6.068  1.0295 -0.2496 -0.5239
   96SAPE   H4X 9596   6.212   4.506   6.013  0.5113 -1.2975  0.2613
   96SAPE   H4Y 9597   6.343   4.396   6.055 -2.0921 -1.6123  1.0312
   96SAPE   C35 9598   6.403   4.595   6.001 -0.2558  0.0077  0.0981
   96SAPE   H5X 9599   6.493   4.589   6.066 -2.5969  1.7129  3.8750
   96SAPE   H5Y 9600   6.380   4.701   6.025  0.1274  0.4471 -1.3647
   96SAPE   C36 9601   6.429   4.576   5.858 -0.3027 -0.2038  0.2574
   96SAPE   H6X 9602   6.443   4.470   5.828  2.5730  0.3085 -0.4671
   96SAPE   H6Y 9603   6.527   4.623   5.834 -0.6579  1.9175  2.5077
   96SAPE   C37 9604   6.325   4.626   5.759  0.5694 -0.5313 -0.4868
   96SAPE   H7X 9605   6.323   4.736   5.754  0.5228 -0.5474 -0.8176
   96SAPE   H7Y 9606   6.221   4.588   5.773 -0.0565  0.7521 -1.4463
   96SAPE   C38 9607   6.370   4.600   5.611 -0.6444  0.1599  0.9829
   96SAPE   H8X 9608   6.413   4.499   5.622  0.4375  0.3228 -1.1859
   96SAPE   H8Y 9609   6.464   4.645   5.572  0.7557 -3.0294  0.3857
   96SAPE   C39 9610   6.252   4.622   5.521  0.3291  0.7036  0.0853
   96SAPE   H9X 9611   6.192   4.711   5.550  0.2251  0.9148 -0.7590
   96SAPE   H9Y 9612   6.182   4.536   5.527  1.7503 -0.6000 -1.1411
   96SAPE  C310 9613   6.298   4.637   5.382 -0.4136 -0.2092  0.4336
   96SAPE  H10X 9614   6.363   4.553   5.350  2.1521  1.6233  0.5301
   96SAPE  H10Y 9615   6.366   4.725   5.377 -1.4040  0.5906  0.6577
   96SAPE  C311 9616   6.183   4.645   5.276  0.4316 -0.1413  0.3032
   96SAPE  H11X 9617   6.111   4.726   5.301  0.2026  0.3556 -1.8262
   96SAPE  H11Y 9618   6.137   4.544   5.274  2.9104 -1.4499  2.5981
   96SAPE  C312 9619   6.254   4.654   5.137 -0.9047  0.1106 -0.4307
   96SAPE  H12X 9620   6.336   4.580   5.124 -2.9835 -2.4758  0.3980
   96SAPE  H12Y 9621   6.303   4.754   5.140  0.7328 -0.6711  0.2598
   96SAPE  C313 9622   6.157   4.637   5.018 -0.1894 -0.1832 -0.0861
   96SAPE  H13X 9623   6.074   4.709   5.031 -0.5771 -0.2546 -1.9589
   96SAPE  H13Y 9624   6.111   4.536   5.024 -2.3535  0.8034  0.8757
   96SAPE  C314 9625   6.223   4.657   4.883 -0.9208  0.6030  0.2477
   96SAPE  H14X 9626   6.296   4.574   4.866 -1.3120 -0.6464  3.8233
   96SAPE  H14Y 9627   6.279   4.753   4.873  0.9446 -0.4401  0.1237
   96SAPE  C315 9628   6.123   4.663   4.763 -0.2093 -1.1496 -0.3140
   96SAPE  H15X 9629   6.063   4.569   4.761 -0.0130 -1.3162  0.7738
   96SAPE  H15Y 9630   6.179   4.659   4.668  2.5126 -1.8715  1.2089
   96SAPE  C316 9631   6.042   4.796   4.757  0.0757  0.1916 -0.1730
   96SAPE  H16X 9632   6.116   4.878   4.778 -0.8277  0.7340  1.0171
   96SAPE  H16Y 9633   5.977   4.784   4.846  4.1416 -3.6650  2.7644
   96SAPE  C317 9634   5.972   4.816   4.628 -0.2553  0.0073 -1.1922
   96SAPE  H17X 9635   5.907   4.905   4.639  0.3024  0.0891  3.7142
   96SAPE  H17Y 9636   5.907   4.728   4.607 -0.8448  0.0264  0.4394
   96SAPE  C318 9637   6.070   4.849   4.510  0.4354  0.0303 -0.2581
   96SAPE  H18X 9638   6.155   4.777   4.503 -1.4056 -2.1288 -1.4862
   96SAPE  H18Y 9639   6.121   4.943   4.540  0.8646  0.2659 -1.6578
   96SAPE  H18Z 9640   6.018   4.875   4.416  1.2640  0.3939 -0.6233
   97SAPE     N 9641   4.438   4.205   6.562  0.1532 -0.2826  0.1366
   97SAPE   HN1 9642   4.460   4.279   6.631 -1.6444  1.3571 -0.9592
   97SAPE   HN2 9643   4.335   4.196   6.555  0.0179  1.0639  0.2176
   97SAPE   HN3 9644   4.473   4.109   6.582 -1.2950 -0.2513  3.3008
   97SAPE   C12 9645   4.475   4.250   6.417 -0.4423  0.2277  0.5366
   97SAPE  H12A 9646   4.446   4.163   6.355  1.9294 -0.3003  0.0826
   97SAPE  H12B 9647   4.583   4.277   6.422 -0.2228  0.0858 -2.0293
   97SAPE   C11 9648   4.388   4.369   6.383  0.4085 -0.4884  0.6120
   97SAPE  H11A 9649   4.285   4.329   6.385  0.9017 -1.8022  0.5673
   97SAPE  H11B 9650   4.418   4.418   6.287 -1.6335 -1.5520 -0.6209
   97SAPE     P 9651   4.283   4.544   6.549  0.1008  0.1198 -0.1729
   97SAPE   O13 9652   4.206   4.452   6.637 -0.2571  0.1701  0.0007
   97SAPE   O14 9653   4.344   4.665   6.618  0.3512  1.2306  0.3323
   97SAPE   O12 9654   4.405   4.468   6.490  0.9686 -0.7681  0.4072
   97SAPE   O11 9655   4.192   4.584   6.426  0.8502  0.1486  0.8280
   97SAPE    C1 9656   4.221   4.699   6.354  0.1748 -0.7665  0.6997
   97SAPE    HA 9657   4.214   4.793   6.413 -0.5716 -0.5764  0.3216
   97SAPE    HB 9658   4.324   4.689   6.315 -0.2247  1.3048 -1.1364
   97SAPE    C2 9659   4.132   4.714   6.227 -0.6678 -0.0438 -0.0455
   97SAPE    HS 9660   4.032   4.732   6.273  1.0150  0.2563  3.9075
   97SAPE   O21 9661   4.148   4.595   6.149  0.0001  0.0618 -0.4199
   97SAPE   C21 9662   4.032   4.526   6.135 -0.2249  0.3248  0.1252
   97SAPE   O22 9663   3.921   4.573   6.155  0.1388 -0.4154 -0.0417
   97SAPE   C22 9664   4.062   4.386   6.100  0.2959 -0.1784  0.0864
   97SAPE   H2R 9665   4.167   4.367   6.130 -0.1382 -0.8690  1.1989
   97SAPE   H2S 9666   4.005   4.313   6.162  1.3137 -0.2451  0.9740
   97SAPE    C3 9667   4.180   4.837   6.148 -0.3074  0.2946 -0.1715
   97SAPE    HX 9668   4.289   4.820   6.135  0.1190  1.4361  1.5930
   97SAPE    HY 9669   4.164   4.924   6.215 -0.4986 -0.1132  0.3246
   97SAPE   O31 9670   4.110   4.852   6.024 -0.1437  0.0573  0.2560
   97SAPE   C31 9671   3.991   4.912   6.025  0.0965  0.0575 -0.3088
   97SAPE   O32 9672   3.940   4.964   6.125  0.4832 -0.4063  0.3573
   97SAPE   C32 9673   3.922   4.901   5.893 -0.3727 -0.4424 -0.1466
   97SAPE   H2X 9674   3.855   4.813   5.889 -0.2166 -0.5304 -0.9180
   97SAPE   H2Y 9675   4.000   4.884   5.817 -0.4788 -0.2174 -0.3088
   97SAPE   C23 9676   4.024   4.350   5.952 -0.1800  0.1862  0.0132
   97SAPE   H3R 9677   3.916   4.376   5.940  0.2603  0.7534 -3.7515
   97SAPE   H3S 9678   4.024   4.240   5.942 -3.7437 -0.0342  1.0971
   97SAPE   C24 9679   4.107   4.414   5.841  0.0182 -0.5413 -0.7756
   97SAPE   H4R 9680   4.110   4.347   5.753 -1.8720 -2.8031  0.7621
   97SAPE   H4S 9681   4.212   4.413   5.875 -0.0029 -1.0741 -0.7199
   97SAPE   C25 9682   4.069   4.557   5.814  0.1543  0.3896  0.3617
   97SAPE   H5R 9683   4.113   4.629   5.885  3.3492  0.4769 -1.4979
   97SAPE   C26 9684   4.020   4.604   5.701 -0.0828 -0.1667 -0.1272
   97SAPE   H6R 9685   3.991   4.710   5.700  1.4782  0.3337  1.4938
   97SAPE   C27 9686   3.972   4.515   5.583  0.2211 -0.0353 -0.2858
   97SAPE   H7R 9687   3.901   4.439   5.621  1.9648 -2.1397 -1.0517
   97SAPE   H7S 9688   4.057   4.450   5.554  0.3510  0.7035 -1.6330
   97SAPE   C28 9689   3.907   4.588   5.466 -0.1192  0.1412 -1.3570
   97SAPE   H8R 9690   3.916   4.697   5.468 -1.2751  0.2460 -1.2208
   97SAPE   C29 9691   3.851   4.527   5.361  0.8999  0.2828  0.4204
   97SAPE   H9R 9692   3.838   4.595   5.275  1.1528  1.9967  1.6707
   97SAPE  C210 9693   3.817   4.384   5.344 -0.5257  0.3195 -0.9384
   97SAPE  H10R 9694   3.825   4.332   5.441  1.9565 -0.8889 -1.7090
   97SAPE  H10S 9695   3.903   4.337   5.293  0.4247  2.2697 -1.2419
   97SAPE  C211 9696   3.687   4.358   5.284  0.5711 -0.7148  0.9900
   97SAPE  H11R 9697   3.613   4.346   5.364 -1.8191 -0.1200 -0.9961
   97SAPE  C212 9698   3.642   4.349   5.159  0.4428 -0.5252 -0.4485
   97SAPE  H12R 9699   3.533   4.338   5.145  0.5480 -1.9026 -0.3088
   97SAPE  C213 9700   3.725   4.368   5.034  0.0991 -0.1512 -0.0983
   97SAPE  H13R 9701   3.833   4.383   5.055 -0.1204  1.3431  0.0656
   97SAPE  H13S 9702   3.703   4.467   4.989 -0.7134  1.1155  2.8503
   97SAPE  C214 9703   3.718   4.261   4.927 -0.5932 -0.0553 -0.5212
   97SAPE  H14R 9704   3.803   4.191   4.929 -0.3696  0.2122 -0.6656
   97SAPE  C215 9705   3.616   4.240   4.842  0.7233 -0.2675  0.1470
   97SAPE  H15R 9706   3.614   4.166   4.760 -2.7024  1.5991 -1.6547
   97SAPE  C216 9707   3.494   4.328   4.828  0.3294  0.6905 -0.2199
   97SAPE  H16R 9708   3.486   4.371   4.726 -3.2333 -1.4363 -1.0216
   97SAPE  H16S 9709   3.510   4.417   4.892  1.3035  0.1798  0.2742
   97SAPE  C217 9710   3.353   4.255   4.847 -0.4252  0.3703  0.3528
   97SAPE  H17R 9711   3.269   4.327   4.854  0.7470  1.6404  2.4290
   97SAPE  H17S 9712   3.357   4.196   4.942 -1.7018  0.7822  0.6839
   97SAPE  C218 9713   3.308   4.160   4.729  0.2569  0.8547 -0.7324
   97SAPE  H18R 9714   3.387   4.083   4.715  0.3997  0.9713 -0.5753
   97SAPE  H18S 9715   3.297   4.213   4.632  1.1061  1.2890 -0.6035
   97SAPE  C219 9716   3.173   4.096   4.745  0.2791  0.1883  0.3253
   97SAPE  H19R 9717   3.092   4.172   4.740  1.9287  1.9517 -3.1883
   97SAPE  H19S 9718   3.173   4.045   4.843  2.2370 -1.2146 -0.3437
   97SAPE  C220 9719   3.141   4.000   4.620  0.4909  0.7014  0.0478
   97SAPE  H20R 9720   3.154   4.061   4.528 -0.7421 -1.1413 -1.4291
   97SAPE  H20S 9721   3.034   3.973   4.631  0.4882  0.6551 -0.0966
   97SAPE  H20T 9722   3.212   3.915   4.623 -0.0898  0.2311  0.6047
   97SAPE   C33 9723   3.850   5.021   5.840  0.7032 -0.6818  0.6823
   97SAPE   H3X 9724   3.923   5.105   5.850  1.0196 -0.5783 -1.7957
   97SAPE   H3Y 9725   3.755   5.030   5.895  0.9336 -0.7587  1.0937
   97SAPE   C34 9726   3.825   5.022   5.688  0.1702  0.6535 -0.4155
   97SAPE   H4X 9727   3.921   5.030   5.632  0.8054  2.1369  0.7916
   97SAPE   H4Y 9728   3.764   5.112   5.665  0.1311  0.5277 -0.8080
   97SAPE   C35 9729   3.750   4.898   5.637  0.2560  0.3151 -0.4381
   97SAPE   H5X 9730   3.665   4.877   5.705  0.6368 -0.6390 -0.2403
   97SAPE   H5Y 9731   3.803   4.801   5.641  0.8374  0.5951 -0.9831
   97SAPE   C36 9732   3.696   4.903   5.489 -0.5704 -0.4260 -1.2926
   97SAPE   H6X 9733   3.597   4.954   5.483 -0.1333  0.4591 -1.1271
   97SAPE   H6Y 9734   3.688   4.798   5.452 -0.7064 -0.5450 -0.9271
   97SAPE   C37 9735   3.786   4.993   5.406  0.3466 -0.1839  0.6843
   97SAPE   H7X 9736   3.885   4.944   5.420  1.3979  1.5197 -0.4194
   97SAPE   H7Y 9737   3.801   5.097   5.443  0.4423  0.3530 -0.7927
   97SAPE   C38 9738   3.754   5.000   5.260 -1.2205  0.3478  0.6141
   97SAPE   H8X 9739   3.822   5.078   5.221  0.5006 -1.6121 -0.4751
   97SAPE   H8Y 9740   3.650   5.038   5.253 -2.6784 -3.2553  0.5011
   97SAPE   C39 9741   3.767   4.866   5.181  0.2869 -0.2022 -1.0252
   97SAPE   H9X 9742   3.694   4.794   5.223  3.1166 -1.3157  2.5805
   97SAPE   H9Y 9743   3.868   4.822   5.197 -0.6463 -2.0620  0.0480
   97SAPE  C310 9744   3.742   4.886   5.034  0.4371  0.4001  0.1390
   97SAPE  H10X 9745   3.789   4.976   4.988  1.0787  0.4558  0.8857
   97SAPE  H10Y 9746   3.632   4.894   5.020  0.5732  1.7272 -0.3339
   97SAPE  C311 9747   3.784   4.761   4.964  0.5925  0.1575  0.6332
   97SAPE  H11X 9748   3.718   4.681   5.004  0.8114 -0.1222  0.4395
   97SAPE  H11Y 9749   3.887   4.729   4.991  0.3428 -2.5855 -1.2399
   97SAPE  C312 9750   3.776   4.765   4.810  0.1575  0.3088 -0.1051
   97SAPE  H12X 9751   3.822   4.859   4.772 -2.8916  1.4873 -1.1523
   97SAPE  H12Y 9752   3.667   4.774   4.791 -0.6306 -3.5824  1.6291
   97SAPE  C313 9753   3.834   4.646   4.737 -0.2086 -0.2119 -0.3625
   97SAPE  H13X 9754   3.774   4.559   4.771 -1.3474  1.0303  0.9103
   97SAPE  H13Y 9755   3.941   4.631   4.764 -0.3073 -0.1215  0.0910
   97SAPE  C314 9756   3.826   4.653   4.585 -0.5944 -0.1079  0.3795
   97SAPE  H14X 9757   3.888   4.575   4.536  0.1526 -0.7302  2.2183
   97SAPE  H14Y 9758   3.871   4.747   4.551  0.4100  0.2190  2.4350
   97SAPE  C315 9759   3.691   4.639   4.526 -0.6267  0.2376  0.2111
   97SAPE  H15X 9760   3.622   4.695   4.594 -1.3352 -0.9496  0.4940
   97SAPE  H15Y 9761   3.659   4.533   4.521 -0.4389  0.2462 -2.5232
   97SAPE  C316 9762   3.689   4.702   4.383  0.0844  1.4093  1.0850
   97SAPE  H16X 9763   3.638   4.621   4.327  1.2692  1.4955 -0.1641
   97SAPE  H16Y 9764   3.790   4.702   4.338 -0.6165  0.4795 -0.5546
   97SAPE  C317 9765   3.620   4.838   4.361  0.4467  0.7311 -0.2541
   97SAPE  H17X 9766   3.637   4.873   4.257  1.6368  0.8659 -0.0311
   97SAPE  H17Y 9767   3.661   4.910   4.436 -1.3689 -1.6422  3.2867
   97SAPE  C318 9768   3.469   4.820   4.388 -0.2726 -0.6221  0.7363
   97SAPE  H18X 9769   3.410   4.885   4.320  0.6704 -0.4188  0.0762
   97SAPE  H18Y 9770   3.455   4.857   4.491 -2.3931  2.4083 -0.4928
   97SAPE  H18Z 9771   3.434   4.717   4.365 -2.2823  0.1557  0.1457
   98SAPE     N 9772   2.109   5.772   6.583 -0.5619 -0.6150  0.2412
   98SAPE   HN1 9773   2.140   5.854   6.638 -0.5740 -1.9134  2.2836
   98SAPE   HN2 9774   2.021   5.804   6.538 -0.2790 -1.7451 -1.2181
   98SAPE   HN3 9775   2.094   5.703   6.659  1.2036 -0.7394  0.5114
   98SAPE   C12 9776   2.222   5.725   6.491 -0.0156  0.7085  1.0702
   98SAPE  H12A 9777   2.284   5.809   6.453  1.1045 -0.8501 -0.7671
   98SAPE  H12B 9778   2.170   5.675   6.406  0.5945  1.9550 -0.0674
   98SAPE   C11 9779   2.311   5.620   6.574 -0.5578  0.0065 -0.0835
   98SAPE  H11A 9780   2.342   5.683   6.660  0.9707  0.4742 -0.9421
   98SAPE  H11B 9781   2.407   5.594   6.525 -0.5857  2.3413 -1.5462
   98SAPE     P 9782   2.318   5.371   6.642  0.0823  0.0002 -0.4614
   98SAPE   O13 9783   2.448   5.403   6.701  0.0547  0.4966  0.2957
   98SAPE   O14 9784   2.227   5.267   6.706  0.8896  0.3665 -0.7933
   98SAPE   O12 9785   2.237   5.505   6.613 -0.1405  0.3278 -0.1300
   98SAPE   O11 9786   2.348   5.318   6.504 -0.1048  0.4884  0.7197
   98SAPE    C1 9787   2.249   5.282   6.406 -0.2770  0.1299  0.1096
   98SAPE    HA 9788   2.186   5.196   6.438  0.1913 -0.6830 -1.0870
   98SAPE    HB 9789   2.182   5.369   6.389  0.1273  1.2157  3.2750
   98SAPE    C2 9790   2.325   5.241   6.273  0.5348 -0.6877 -0.4769
   98SAPE    HS 9791   2.398   5.160   6.293  1.7490  0.6913  0.9218
   98SAPE   O21 9792   2.376   5.359   6.214 -0.3692 -0.7486 -0.2114
   98SAPE   C21 9793   2.497   5.351   6.160  1.0149  0.4696  0.1193
   98SAPE   O22 9794   2.571   5.255   6.153 -0.2830  0.1675 -0.0974
   98SAPE   C22 9795   2.528   5.491   6.104 -0.2743 -0.0939  0.3117
   98SAPE   H2R 9796   2.509   5.482   5.995 -0.1337 -1.6656  0.3957
   98SAPE   H2S 9797   2.473   5.575   6.150  0.0325  0.3951 -0.2031
   98SAPE    C3 9798   2.210   5.184   6.189 -0.0001 -0.4125 -0.6039
   98SAPE    HX 9799   2.125   5.254   6.173 -1.1396 -1.6906 -0.4095
   98SAPE    HY 9800   2.167   5.096   6.243 -0.2095 -0.3841 -0.7209
   98SAPE   O31 9801   2.250   5.133   6.061  0.2159  0.5134  0.1101
   98SAPE   C31 9802   2.235   5.214   5.957 -0.2014  0.6877 -0.3907
   98SAPE   O32 9803   2.167   5.313   5.957  0.2017  0.3851  0.5690
   98SAPE   C32 9804   2.314   5.140   5.848  0.9279 -0.3949 -0.0755
   98SAPE   H2X 9805   2.278   5.035   5.838 -0.6632 -0.0417  1.4227
   98SAPE   H2Y 9806   2.422   5.142   5.870  0.7914 -0.0890  0.5917
   98SAPE   C23 9807   2.676   5.531   6.111  0.0705  0.1195 -0.1381
   98SAPE   H3R 9808   2.743   5.453   6.152  1.6018  1.9000  0.9216
   98SAPE   H3S 9809   2.691   5.616   6.181 -2.4921  1.1583 -0.7134
   98SAPE   C24 9810   2.713   5.587   5.966  0.6114  0.0192  0.0958
   98SAPE   H4R 9811   2.636   5.666   5.953  0.1014 -0.4956 -0.0268
   98SAPE   H4S 9812   2.704   5.509   5.887 -0.3300  2.5749 -2.4968
   98SAPE   C25 9813   2.848   5.662   5.962 -0.2987  0.8359  0.0563
   98SAPE   H5R 9814   2.915   5.642   6.047 -1.5923 -0.8565  0.7490
   98SAPE   C26 9815   2.893   5.731   5.858  0.3111 -0.1010 -0.1897
   98SAPE   H6R 9816   2.986   5.787   5.874  0.5344 -0.2820 -0.8110
   98SAPE   C27 9817   2.819   5.770   5.738  0.1956  0.1120 -0.1810
   98SAPE   H7R 9818   2.771   5.866   5.770  0.1270 -0.0905  0.3336
   98SAPE   H7S 9819   2.740   5.696   5.713  0.3291 -0.0428 -0.1392
   98SAPE   C28 9820   2.899   5.791   5.611 -0.0552 -0.4141  0.1204
   98SAPE   H8R 9821   3.009   5.784   5.602 -0.0416  1.3760 -1.9084
   98SAPE   C29 9822   2.844   5.817   5.490 -0.2850 -1.3002  0.2011
   98SAPE   H9R 9823   2.919   5.832   5.411 -0.6294  0.9588  0.2599
   98SAPE  C210 9824   2.698   5.833   5.453 -0.1149  0.1241  0.4658
   98SAPE  H10R 9825   2.689   5.905   5.368 -2.5671  1.1751  1.5177
   98SAPE  H10S 9826   2.640   5.882   5.534 -1.2937 -1.5143  0.6617
   98SAPE  C211 9827   2.632   5.703   5.419 -0.3625 -1.3311 -0.6664
   98SAPE  H11R 9828   2.604   5.640   5.505  2.3656 -0.6443  0.8677
   98SAPE  C212 9829   2.592   5.661   5.294 -0.4062  0.3253 -0.0869
   98SAPE  H12R 9830   2.544   5.562   5.296 -2.8826  1.3239  4.4298
   98SAPE  C213 9831   2.619   5.718   5.156 -1.0475 -0.5806 -0.7386
   98SAPE  H13R 9832   2.661   5.649   5.080  0.2063 -0.1235 -0.4843
   98SAPE  H13S 9833   2.705   5.788   5.164 -1.2270 -0.4092 -0.3092
   98SAPE  C214 9834   2.507   5.796   5.102  0.1720  0.0110  0.0085
   98SAPE  H14R 9835   2.493   5.896   5.145  0.3293  1.4764 -3.0714
   98SAPE  C215 9836   2.420   5.754   5.011 -0.0751 -0.1257  0.3637
   98SAPE  H15R 9837   2.341   5.821   4.974 -0.2297  0.1510  1.1852
   98SAPE  C216 9838   2.424   5.621   4.938 -0.1485 -0.0573 -0.4228
   98SAPE  H16R 9839   2.322   5.578   4.934 -0.5175  0.6917  0.4856
   98SAPE  H16S 9840   2.488   5.556   5.002  0.6906  1.5462  0.4132
   98SAPE  C217 9841   2.499   5.628   4.799 -0.4337 -0.0248 -0.1222
   98SAPE  H17R 9842   2.512   5.528   4.752  0.5128  0.3169 -0.6137
   98SAPE  H17S 9843   2.601   5.665   4.822 -0.5541  0.1544  0.1370
   98SAPE  C218 9844   2.418   5.710   4.690  0.2951 -0.1129  0.2992
   98SAPE  H18R 9845   2.403   5.816   4.717  0.4408  0.5776 -2.0551
   98SAPE  H18S 9846   2.313   5.676   4.683 -0.3451  1.8568 -0.3989
   98SAPE  C219 9847   2.492   5.709   4.560 -0.6349 -0.6271 -0.0005
   98SAPE  H19R 9848   2.485   5.612   4.506  2.4024  0.1656 -2.0789
   98SAPE  H19S 9849   2.600   5.726   4.582 -0.8367 -1.0364  1.4419
   98SAPE  C220 9850   2.442   5.811   4.460 -0.0527 -0.2044  0.0727
   98SAPE  H20R 9851   2.448   5.916   4.497 -0.7557  0.4282 -1.4939
   98SAPE  H20S 9852   2.339   5.795   4.423 -0.1968  2.5332 -1.0248
   98SAPE  H20T 9853   2.507   5.819   4.370 -1.4667  2.5867 -0.8338
   98SAPE   C33 9854   2.294   5.204   5.714  0.3283 -0.4227  0.5276
   98SAPE   H3X 9855   2.186   5.201   5.690  0.4077 -0.4565  0.1671
   98SAPE   H3Y 9856   2.343   5.144   5.634 -0.2816 -0.3120  0.0655
   98SAPE   C34 9857   2.352   5.347   5.703 -0.5217 -0.0795  0.2330
   98SAPE   H4X 9858   2.456   5.355   5.742 -0.9162  3.8513  0.8910
   98SAPE   H4Y 9859   2.294   5.425   5.757 -1.2981  0.0763 -0.8064
   98SAPE   C35 9860   2.364   5.395   5.554 -0.7541  0.3034 -0.9655
   98SAPE   H5X 9861   2.423   5.323   5.494 -2.4917  0.2620 -2.7258
   98SAPE   H5Y 9862   2.432   5.482   5.545  0.8990 -0.9973 -1.4315
   98SAPE   C36 9863   2.233   5.404   5.478  0.3697 -0.5670  0.1876
   98SAPE   H6X 9864   2.164   5.480   5.521 -0.6143 -1.1099 -0.3852
   98SAPE   H6Y 9865   2.182   5.305   5.480  0.5699 -0.6603  1.4456
   98SAPE   C37 9866   2.250   5.454   5.337 -0.2018  0.9730  0.3421
   98SAPE   H7X 9867   2.307   5.382   5.275 -2.3681  0.1882 -0.8606
   98SAPE   H7Y 9868   2.309   5.548   5.338  1.7976 -0.0209 -3.6430
   98SAPE   C38 9869   2.113   5.462   5.261 -0.7375 -0.5138 -0.1179
   98SAPE   H8X 9870   2.040   5.531   5.309 -0.3181  0.0724 -0.3058
   98SAPE   H8Y 9871   2.055   5.368   5.252 -0.8570 -0.2519 -3.5927
   98SAPE   C39 9872   2.149   5.496   5.112  0.4438 -0.7385 -0.7870
   98SAPE   H9X 9873   2.221   5.422   5.072  1.0529  0.2739 -1.6031
   98SAPE   H9Y 9874   2.197   5.595   5.094  1.4138 -1.4590 -2.3305
   98SAPE  C310 9875   2.019   5.475   5.023 -0.1963 -0.0221 -0.1334
   98SAPE  H10X 9876   1.926   5.487   5.083 -1.7778 -0.7534 -2.3166
   98SAPE  H10Y 9877   2.016   5.369   4.992 -0.2314 -0.6280  1.7932
   98SAPE  C311 9878   2.010   5.585   4.913  0.2761 -0.0670 -0.1561
   98SAPE  H11X 9879   2.105   5.566   4.859  0.9290  1.6089  0.3421
   98SAPE  H11Y 9880   2.008   5.685   4.960 -2.4171  0.9733 -2.1592
   98SAPE  C312 9881   1.885   5.566   4.818  0.2163 -0.1358  0.5977
   98SAPE  H12X 9882   1.801   5.582   4.888  0.8693  2.8791  0.8387
   98SAPE  H12Y 9883   1.881   5.466   4.770  0.8223  0.8602 -1.6886
   98SAPE  C313 9884   1.874   5.675   4.707 -0.2338 -0.3546 -0.0007
   98SAPE  H13X 9885   1.967   5.665   4.647 -1.7195 -0.6334 -2.3697
   98SAPE  H13Y 9886   1.861   5.775   4.755 -0.0365 -0.0536 -0.5750
   98SAPE  C314 9887   1.741   5.669   4.623 -0.3048  0.1676  0.2670
   98SAPE  H14X 9888   1.658   5.694   4.692 -0.1054  1.0048  0.2162
   98SAPE  H14Y 9889   1.715   5.568   4.586  2.4914 -0.4309 -0.2762
   98SAPE  C315 9890   1.737   5.768   4.503 -0.5075 -0.0567 -0.0102
   98SAPE  H15X 9891   1.699   5.870   4.524 -0.4658  0.2589 -1.4057
   98SAPE  H15Y 9892   1.667   5.728   4.427  0.5847 -0.4755 -0.8308
   98SAPE  C316 9893   1.878   5.784   4.433  0.5051  0.8774  0.5654
   98SAPE  H16X 9894   1.921   5.682   4.420 -0.9560 -0.2891  3.6985
   98SAPE  H16Y 9895   1.945   5.844   4.499 -0.3411  1.0997  1.2395
   98SAPE  C317 9896   1.856   5.850   4.302 -0.3041 -0.4334 -0.5419
   98SAPE  H17X 9897   1.829   5.954   4.329 -0.0331 -0.1896 -1.1829
   98SAPE  H17Y 9898   1.773   5.811   4.239 -0.9103  2.4136 -1.7031
   98SAPE  C318 9899   1.980   5.863   4.219 -0.5165 -0.2746 -0.0519
   98SAPE  H18X 9900   2.027   5.763   4.207 -2.2456 -1.3678  1.6648
   98SAPE  H18Y 9901   2.057   5.924   4.270 -1.7286 -0.8433  2.6649
   98SAPE  H18Z 9902   1.947   5.893   4.117 -0.8604  0.1353  0.1805
   99SAPE     N 9903   4.623   4.618   6.664 -0.4031  0.1503  0.5199
   99SAPE   HN1 9904   4.663   4.634   6.569 -0.5055 -0.0827  0.4367
   99SAPE   HN2 9905   4.631   4.518   6.692  0.9140  0.3193  0.8185
   99SAPE   HN3 9906   4.525   4.635   6.636  0.0128  2.2043  0.2014
   99SAPE   C12 9907   4.663   4.721   6.760 -0.0043 -0.3916 -0.1454
   99SAPE  H12A 9908   4.627   4.699   6.863 -0.9209 -0.1281 -0.4035
   99SAPE  H12B 9909   4.629   4.821   6.726  0.6015 -0.4930 -1.0756
   99SAPE   C11 9910   4.820   4.743   6.769  0.0949  0.5459 -1.0608
   99SAPE  H11A 9911   4.855   4.842   6.805 -1.5256  0.0276  2.3434
   99SAPE  H11B 9912   4.863   4.738   6.666  1.7948  2.0038 -0.4724
   99SAPE     P 9913   5.011   4.578   6.840  0.1776  0.1236  0.2417
   99SAPE   O13 9914   5.095   4.591   6.961 -0.2280  0.1896  0.2221
   99SAPE   O14 9915   4.984   4.440   6.791 -0.0129  0.1266 -0.1886
   99SAPE   O12 9916   4.868   4.647   6.859  0.6117 -0.3208 -0.3089
   99SAPE   O11 9917   5.068   4.658   6.722  0.1909 -0.6447  0.7591
   99SAPE    C1 9918   5.187   4.739   6.722  0.2851 -0.5214 -0.1162
   99SAPE    HA 9919   5.235   4.751   6.821  1.0001 -2.5255 -0.1689
   99SAPE    HB 9920   5.268   4.693   6.661  0.4755  0.1281 -0.3570
   99SAPE    C2 9921   5.161   4.864   6.631  0.0152 -0.2995 -0.4151
   99SAPE    HS 9922   5.085   4.921   6.688 -1.5544  1.2349 -3.7981
   99SAPE   O21 9923   5.122   4.827   6.500 -0.0044 -0.5125 -0.3057
   99SAPE   C21 9924   5.027   4.907   6.451  0.6490 -0.7009 -0.0667
   99SAPE   O22 9925   4.974   5.008   6.498 -0.1659  0.0541  0.5048
   99SAPE   C22 9926   4.990   4.848   6.311 -0.4757 -0.5500  0.2720
   99SAPE   H2R 9927   5.079   4.858   6.245 -1.2324 -1.3664 -0.9062
   99SAPE   H2S 9928   4.964   4.740   6.309  0.5180 -0.8975  2.7410
   99SAPE    C3 9929   5.285   4.959   6.619  0.7207 -0.0945 -0.5977
   99SAPE    HX 9930   5.292   5.000   6.722  0.5794 -2.9395  0.6315
   99SAPE    HY 9931   5.249   5.040   6.551 -0.4587  1.5643  1.8539
   99SAPE   O31 9932   5.408   4.895   6.589 -0.4088  0.4622  0.4935
   99SAPE   C31 9933   5.454   4.902   6.465 -0.4767 -0.1078  0.3702
   99SAPE   O32 9934   5.391   4.939   6.366  0.1996  0.3993 -0.1202
   99SAPE   C32 9935   5.603   4.868   6.461  0.4594 -0.0442 -0.2166
   99SAPE   H2X 9936   5.613   4.757   6.465 -0.4037 -0.1188  0.0607
   99SAPE   H2Y 9937   5.647   4.918   6.550 -2.1592  0.2175  1.0354
   99SAPE   C23 9938   4.872   4.925   6.253  0.0922  0.1205 -0.5243
   99SAPE   H3R 9939   4.789   4.927   6.326 -2.0040 -1.8752 -2.6425
   99SAPE   H3S 9940   4.845   4.868   6.161  1.2556  0.3466 -1.0264
   99SAPE   C24 9941   4.908   5.071   6.194 -0.1365 -0.3815 -1.1917
   99SAPE   H4R 9942   5.002   5.067   6.134  1.4816  0.1482  1.1681
   99SAPE   H4S 9943   4.939   5.135   6.279 -0.4966 -0.7410 -0.7873
   99SAPE   C25 9944   4.781   5.125   6.117 -0.2030  0.3611 -0.9731
   99SAPE   H5R 9945   4.687   5.126   6.175  0.2190 -0.8609 -0.2071
   99SAPE   C26 9946   4.769   5.158   5.987 -0.1117 -0.8686 -0.3917
   99SAPE   H6R 9947   4.666   5.167   5.950 -1.1051 -3.3617  1.4605
   99SAPE   C27 9948   4.883   5.139   5.889 -0.2309 -0.2690 -0.6493
   99SAPE   H7R 9949   4.977   5.097   5.929 -0.4140  0.2061  0.3044
   99SAPE   H7S 9950   4.928   5.236   5.860  1.0823 -0.8395 -0.5633
   99SAPE   C28 9951   4.854   5.061   5.762  0.0611  0.1006 -0.2458
   99SAPE   H8R 9952   4.885   4.956   5.761 -0.1198  0.0445 -0.9705
   99SAPE   C29 9953   4.804   5.110   5.643 -0.5814  0.7018 -0.2331
   99SAPE   H9R 9954   4.792   5.041   5.559  0.0622  0.5492 -0.2093
   99SAPE  C210 9955   4.771   5.255   5.614 -0.1693  0.2370 -0.0831
   99SAPE  H10R 9956   4.744   5.301   5.712 -0.2480 -0.7607  0.3742
   99SAPE  H10S 9957   4.685   5.268   5.544  0.7127  0.6231 -1.1223
   99SAPE  C211 9958   4.895   5.323   5.548  0.7092 -0.2532 -0.0594
   99SAPE  H11R 9959   4.987   5.316   5.608  0.6492  1.4007  0.2933
   99SAPE  C212 9960   4.896   5.392   5.435  0.6515  1.0402 -0.2808
   99SAPE  H12R 9961   4.991   5.442   5.409  0.4516  1.8784  0.5587
   99SAPE  C213 9962   4.790   5.411   5.336  0.3133  0.0295  0.7645
   99SAPE  H13R 9963   4.795   5.506   5.279  0.8254 -0.0289  0.7019
   99SAPE  H13S 9964   4.689   5.412   5.381 -1.1474 -2.7300 -2.0616
   99SAPE  C214 9965   4.781   5.285   5.246 -0.0948  0.6485  0.3087
   99SAPE  H14R 9966   4.816   5.194   5.297 -0.5324  1.1282  1.5077
   99SAPE  C215 9967   4.720   5.275   5.125 -0.2241  0.6545 -0.1914
   99SAPE  H15R 9968   4.715   5.180   5.071 -1.7865 -0.8079  2.3047
   99SAPE  C216 9969   4.664   5.387   5.045  0.0145 -0.1781  0.2579
   99SAPE  H16R 9970   4.744   5.457   5.013 -1.9910  1.6587 -1.0381
   99SAPE  H16S 9971   4.596   5.447   5.110  0.9351  0.8553  0.2887
   99SAPE  C217 9972   4.587   5.336   4.930 -0.5572  0.0345  0.1402
   99SAPE  H17R 9973   4.505   5.405   4.902  0.5857  1.0811 -0.7304
   99SAPE  H17S 9974   4.529   5.248   4.963 -1.1825  0.7347  0.9608
   99SAPE  C218 9975   4.671   5.309   4.801 -0.7876 -0.4786 -0.6167
   99SAPE  H18R 9976   4.736   5.229   4.843  0.7720  0.6635 -0.7668
   99SAPE  H18S 9977   4.733   5.394   4.765 -1.8590 -0.1806 -1.8326
   99SAPE  C219 9978   4.585   5.264   4.683  0.1388  0.3300  0.1919
   99SAPE  H19R 9979   4.654   5.232   4.602 -2.1405 -0.0397 -1.7347
   99SAPE  H19S 9980   4.537   5.358   4.648 -0.7351 -0.1102  0.1838
   99SAPE  C220 9981   4.478   5.149   4.698 -0.0916 -0.6396  0.0370
   99SAPE  H20R 9982   4.523   5.052   4.727  2.3670  0.1119 -0.9505
   99SAPE  H20S 9983   4.423   5.128   4.604 -0.1963 -3.0311  0.5749
   99SAPE  H20T 9984   4.408   5.187   4.775 -0.9876  0.3578 -1.2231
   99SAPE   C33 9985   5.672   4.928   6.340 -0.5227  0.1871 -0.5860
   99SAPE   H3X 9986   5.673   5.039   6.349 -2.0040  0.2303 -0.8104
   99SAPE   H3Y 9987   5.616   4.908   6.246 -0.1034  1.8231 -1.2345
   99SAPE   C34 9988   5.815   4.884   6.323 -0.3560  0.1878  0.6074
   99SAPE   H4X 9989   5.818   4.774   6.310  0.0521  0.4174 -1.5938
   99SAPE   H4Y 9990   5.872   4.923   6.411  0.3515 -1.0492  0.7245
   99SAPE   C35 9991   5.891   4.947   6.200  0.2825  0.5042 -0.1731
   99SAPE   H5X 9992   5.999   4.921   6.206 -0.0375 -0.8409  0.2759
   99SAPE   H5Y 9993   5.881   5.056   6.213 -1.1732  0.2682  0.9593
   99SAPE   C36 9994   5.837   4.901   6.064  0.8542 -0.4215  0.4594
   99SAPE   H6X 9995   5.739   4.950   6.048  0.7034 -1.3916 -1.9493
   99SAPE   H6Y 9996   5.818   4.793   6.082 -0.0102 -0.7299 -1.9559
   99SAPE   C37 9997   5.923   4.928   5.940 -0.4513  0.8949 -0.7139
   99SAPE   H7X 9998   6.025   4.935   5.984 -0.3261 -0.0169 -0.8406
   99SAPE   H7Y 9999   5.898   5.032   5.908 -0.8007  1.2457  0.6277
   99SAPE   C3810000   5.893   4.822   5.829 -0.1253  0.0331 -0.3859
   99SAPE   H8X10001   5.784   4.836   5.811  0.0134  2.4834  0.2647
   99SAPE   H8Y10002   5.905   4.719   5.868 -0.9033 -0.4703 -1.4427
   99SAPE   C3910003   5.972   4.827   5.703 -0.2463 -0.2410  0.6932
   99SAPE   H9X10004   5.966   4.730   5.648 -0.0824  0.8475 -1.3427
   99SAPE   H9Y10005   6.079   4.847   5.729 -0.5781  1.7677  0.6809
   99SAPE  C31010006   5.917   4.935   5.609 -0.6798  0.0865  0.4976
   99SAPE  H10X10007   5.952   5.028   5.659 -2.2689  1.1281 -0.2698
   99SAPE  H10Y10008   5.808   4.921   5.598 -0.7099  1.3313 -1.3141
   99SAPE  C31110009   5.980   4.935   5.459  0.4847 -0.2597  0.1041
   99SAPE  H11X10010   5.949   4.836   5.420  1.4639 -1.5554  2.4047
   99SAPE  H11Y10011   6.090   4.939   5.474  0.2184  0.5663  2.1588
   99SAPE  C31210012   5.927   5.056   5.380  0.8252 -0.2031 -0.0727
   99SAPE  H12X10013   5.951   5.148   5.436 -2.4372 -0.1291  1.4217
   99SAPE  H12Y10014   5.818   5.052   5.360  0.5357  1.5889  0.9216
   99SAPE  C31310015   5.998   5.077   5.241 -0.1719  0.2361 -1.0159
   99SAPE  H13X10016   6.109   5.079   5.243 -0.1470  0.6934 -2.0768
   99SAPE  H13Y10017   5.966   5.175   5.200 -1.0443  0.1046 -0.6861
   99SAPE  C31410018   5.940   4.977   5.139  0.2199 -0.0338  0.2482
   99SAPE  H14X10019   5.935   4.873   5.179 -3.0001 -0.6372 -1.4141
   99SAPE  H14Y10020   6.010   4.987   5.054  1.8005 -0.2504  1.4781
   99SAPE  C31510021   5.803   5.020   5.089  0.0959 -0.9225  0.2452
   99SAPE  H15X10022   5.813   5.126   5.059  0.5517 -0.6176  1.4160
   99SAPE  H15Y10023   5.726   5.004   5.169 -0.9015 -0.1136 -0.5282
   99SAPE  C31610024   5.757   4.941   4.959  0.4856 -0.0113 -0.1498
   99SAPE  H16X10025   5.780   4.832   4.967 -2.9317 -0.7429  1.2888
   99SAPE  H16Y10026   5.805   4.990   4.872 -0.9506  0.1924 -0.8541
   99SAPE  C31710027   5.607   4.957   4.929  0.3046 -0.0976 -0.0921
   99SAPE  H17X10028   5.584   5.061   4.899  0.5399 -0.2214 -0.7020
   99SAPE  H17Y10029   5.556   4.928   5.024  0.5815  0.5304  0.2567
   99SAPE  C31810030   5.559   4.855   4.831  0.3276  0.4366 -0.0119
   99SAPE  H18X10031   5.561   4.751   4.869  1.5567 -0.2796 -1.8566
   99SAPE  H18Y10032   5.627   4.847   4.743 -0.2953 -2.8911 -0.3227
   99SAPE  H18Z10033   5.453   4.864   4.799 -0.0713 -0.4107  1.0166
  100SAPE     N10034   1.338   4.177   6.736  0.5635 -0.4434 -0.3748
  100SAPE   HN110035   1.367   4.204   6.832  0.7056  1.6172 -0.9558
  100SAPE   HN210036   1.305   4.078   6.735 -0.1587 -0.3062  2.2629
  100SAPE   HN310037   1.423   4.190   6.678  0.7986  1.7453  0.3599
  100SAPE   C1210038   1.230   4.272   6.690  0.2414 -0.4479  0.3138
  100SAPE  H12A10039   1.276   4.373   6.703  3.2199 -1.8362  1.4396
  100SAPE  H12B10040   1.145   4.266   6.761 -0.8679  3.4961 -0.4318
  100SAPE   C1110041   1.211   4.270   6.535 -0.0616  0.1262  0.1006
  100SAPE  H11A10042   1.301   4.306   6.482 -0.2154  0.5231  0.1093
  100SAPE  H11B10043   1.123   4.334   6.513 -0.8613 -0.7797  0.5440
  100SAPE     P10044   1.056   4.056   6.546  0.2552  0.3905  0.2521
  100SAPE   O1310045   1.101   3.949   6.637 -0.4917  0.3837 -0.5521
  100SAPE   O1410046   0.957   4.148   6.599 -0.5708 -0.2683 -0.2290
  100SAPE   O1210047   1.180   4.136   6.492  0.0597 -0.1463 -0.1809
  100SAPE   O1110048   0.995   3.979   6.417 -0.1672 -0.2262 -0.7088
  100SAPE    C110049   0.951   4.068   6.316 -0.6694  0.3630  0.3364
  100SAPE    HA10050   0.998   4.169   6.307 -0.4170  0.0125 -4.0650
  100SAPE    HB10051   0.966   4.029   6.213 -1.5604  1.6193 -0.2934
  100SAPE    C210052   0.794   4.086   6.320 -0.5384 -0.1370  0.9082
  100SAPE    HS10053   0.778   4.145   6.412  1.0238  0.0652  1.0875
  100SAPE   O2110054   0.716   3.968   6.298 -0.5209  0.3283  0.6800
  100SAPE   C2110055   0.596   3.975   6.325  0.4251  0.3262 -0.8057
  100SAPE   O2210056   0.542   4.068   6.389  0.6989  0.8938  0.3023
  100SAPE   C2210057   0.529   3.850   6.276 -0.1217 -0.4256 -0.3247
  100SAPE   H2R10058   0.587   3.806   6.192  1.2754 -0.9357  0.8636
  100SAPE   H2S10059   0.521   3.775   6.358  1.0617 -1.1829 -0.8801
  100SAPE    C310060   0.749   4.195   6.207 -0.3557 -0.1907  0.2789
  100SAPE    HX10061   0.823   4.278   6.207 -1.8750  1.2071 -0.7995
  100SAPE    HY10062   0.644   4.226   6.226 -0.9481 -1.4960 -0.7049
  100SAPE   O3110063   0.757   4.128   6.074  0.8140  0.1610  0.0420
  100SAPE   C3110064   0.714   4.192   5.967 -0.1355 -0.1506 -1.2055
  100SAPE   O3210065   0.685   4.307   5.965 -0.1325 -0.3576 -0.1335
  100SAPE   C3210066   0.730   4.103   5.847 -0.3531 -0.2474  0.1469
  100SAPE   H2X10067   0.687   4.004   5.870  1.7733 -1.8745 -2.3150
  100SAPE   H2Y10068   0.840   4.096   5.833 -0.0991  2.1914  0.4713
  100SAPE   C2310069   0.385   3.884   6.235  0.3218  0.0890  0.0642
  100SAPE   H3R10070   0.320   3.934   6.311 -1.0762  0.3532 -1.2370
  100SAPE   H3S10071   0.328   3.791   6.213  0.3503  0.3177 -1.0331
  100SAPE   C2410072   0.369   3.982   6.111  0.8911  0.4036 -0.0580
  100SAPE   H4R10073   0.410   4.082   6.138 -2.0727  2.0512 -1.2052
  100SAPE   H4S10074   0.260   3.997   6.095  0.5501 -2.6986 -1.3481
  100SAPE   C2510075   0.437   3.928   5.989 -0.3411 -0.2144  0.5148
  100SAPE   H5R10076   0.547   3.929   5.984 -0.1790 -0.8848  2.6539
  100SAPE   C2610077   0.384   3.847   5.901 -0.3287  0.5734  0.6492
  100SAPE   H6R10078   0.442   3.826   5.810  0.7319 -1.0259  1.6480
  100SAPE   C2710079   0.243   3.802   5.900  0.3372  0.0416 -0.0200
  100SAPE   H7R10080   0.184   3.820   5.993 -3.1794  0.3074 -2.1035
  100SAPE   H7S10081   0.226   3.694   5.880 -2.6757  0.0486  1.8858
  100SAPE   C2810082   0.165   3.883   5.799 -0.3676  0.4511 -0.6164
  100SAPE   H8R10083   0.113   3.968   5.846  2.3291  1.5917  0.5226
  100SAPE   C2910084   0.143   3.869   5.666  0.2307  0.4621 -1.4814
  100SAPE   H9R10085   0.079   3.947   5.624  0.8145  3.0407  1.9145
  100SAPE  C21010086   0.193   3.753   5.580  0.8108  0.2505  0.2168
  100SAPE  H10R10087   0.106   3.717   5.520  0.7007  0.1796  0.4186
  100SAPE  H10S10088   0.236   3.672   5.642  0.4093  1.5703  2.3053
  100SAPE  C21110089   0.300   3.799   5.488 -0.4983 -0.3810 -0.3255
  100SAPE  H11R10090   0.400   3.791   5.533 -0.7718 -1.1579  0.1735
  100SAPE  C21210091   0.283   3.875   5.379  0.0920 -0.5448 -0.0674
  100SAPE  H12R10092   0.365   3.904   5.312 -0.0940  0.2973  0.0526
  100SAPE  C21310093   0.144   3.919   5.334  0.8194 -0.2017 -0.0368
  100SAPE  H13R10094   0.135   4.026   5.304  2.9200  0.4769  1.4952
  100SAPE  H13S10095   0.065   3.903   5.410 -1.8607  3.0260 -1.9031
  100SAPE  C21410096   0.091   3.836   5.217 -0.3957 -0.0577 -0.5238
  100SAPE  H14R10097   0.078   3.729   5.235  3.1206 -0.6628 -0.8750
  100SAPE  C21510098   0.080   3.870   5.085  0.4502 -0.2434  0.3354
  100SAPE  H15R10099   0.037   3.798   5.014 -0.1805 -0.1045  0.5681
  100SAPE  C21610100   0.110   4.001   5.016 -0.3884 -0.0041  0.9568
  100SAPE  H16R10101   0.220   3.999   4.997 -0.6292  0.4469 -0.5859
  100SAPE  H16S10102   0.087   4.091   5.077  0.8492  1.3891 -0.5318
  100SAPE  C21710103   0.046   4.010   4.877 -0.0162 -0.2199  0.4192
  100SAPE  H17R10104   0.094   3.933   4.812  1.5613  1.0565  0.0134
  100SAPE  H17S10105   0.069   4.109   4.834 -1.9189  0.5750  1.1380
  100SAPE  C21810106  -0.108   4.000   4.875  0.8068  0.3242  0.0207
  100SAPE  H18R10107  -0.149   4.071   4.950 -1.6206  2.8726 -3.4529
  100SAPE  H18S10108  -0.149   3.898   4.894 -0.4514  0.8426  0.1980
  100SAPE  C21910109  -0.166   4.045   4.740 -0.6016  0.1032 -0.6775
  100SAPE  H19R10110  -0.100   4.000   4.663 -1.1250  0.2640 -1.2259
  100SAPE  H19S10111  -0.148   4.154   4.727 -1.0465  0.2438 -0.1447
  100SAPE  C22010112  -0.314   4.022   4.715  0.3912  0.1109 -0.4937
  100SAPE  H20R10113  -0.338   3.914   4.718  0.6777  0.0080 -1.6904
  100SAPE  H20S10114  -0.337   4.051   4.611 -1.1379 -3.5999 -1.3670
  100SAPE  H20T10115  -0.370   4.081   4.791 -1.9781 -0.8111 -1.4346
  100SAPE   C3310116   0.669   4.167   5.723 -0.6667  0.5674 -0.4076
  100SAPE   H3X10117   0.732   4.255   5.697  2.7040 -1.7547 -0.6588
  100SAPE   H3Y10118   0.565   4.198   5.747 -0.3317  0.7732  0.8278
  100SAPE   C3410119   0.679   4.070   5.599 -0.1693 -0.2031  0.2633
  100SAPE   H4X10120   0.602   3.991   5.608 -3.8795  2.6086 -3.0636
  100SAPE   H4Y10121   0.781   4.029   5.589 -0.2666 -0.2471 -0.5893
  100SAPE   C3510122   0.620   4.150   5.475 -0.5972 -0.4463  0.3286
  100SAPE   H5X10123   0.643   4.259   5.481  1.4672 -0.9049  2.7487
  100SAPE   H5Y10124   0.510   4.139   5.473 -0.6177 -0.1415 -0.7871
  100SAPE   C3610125   0.669   4.093   5.342 -0.0882 -0.4240 -0.5754
  100SAPE   H6X10126   0.607   4.006   5.310  0.6276 -0.7337 -1.1535
  100SAPE   H6Y10127   0.778   4.071   5.349  0.4258  1.6860 -1.3498
  100SAPE   C3710128   0.649   4.180   5.220  0.4056 -0.5863  0.9996
  100SAPE   H7X10129   0.689   4.282   5.239  2.3120 -1.6317  3.0431
  100SAPE   H7Y10130   0.538   4.184   5.226  0.4988  1.3079  2.5098
  100SAPE   C3810131   0.706   4.117   5.094 -0.0574 -0.4143  0.0905
  100SAPE   H8X10132   0.674   4.012   5.077 -2.6103  0.5025 -1.3295
  100SAPE   H8Y10133   0.815   4.121   5.116  0.6219  1.1728 -2.9919
  100SAPE   C3910134   0.689   4.189   4.965 -0.3493  0.0073  0.2095
  100SAPE   H9X10135   0.747   4.136   4.887  0.5594 -0.6638  1.3122
  100SAPE   H9Y10136   0.724   4.294   4.973 -2.7452  1.2254 -3.1518
  100SAPE  C31010137   0.546   4.175   4.916 -0.0827  0.1124 -0.3108
  100SAPE  H10X10138   0.475   4.235   4.977 -0.2510  1.4479 -1.7682
  100SAPE  H10Y10139   0.509   4.070   4.922 -1.2626  0.2895 -3.0473
  100SAPE  C31110140   0.526   4.224   4.776 -0.2912 -0.1202 -0.8331
  100SAPE  H11X10141   0.543   4.334   4.776 -0.3787 -0.0073  2.6288
  100SAPE  H11Y10142   0.422   4.211   4.739 -0.1861 -0.6359 -0.9517
  100SAPE  C31210143   0.622   4.158   4.673  0.3560  0.0293  0.0188
  100SAPE  H12X10144   0.609   4.048   4.673 -3.2858  0.3539 -0.6036
  100SAPE  H12Y10145   0.729   4.183   4.692 -0.3588  2.2584  1.5848
  100SAPE  C31310146   0.594   4.212   4.537 -0.6722  1.1186  0.1755
  100SAPE  H13X10147   0.654   4.302   4.513  2.0847 -0.9952 -1.5496
  100SAPE  H13Y10148   0.485   4.229   4.524 -1.0523  0.1105  1.7678
  100SAPE  C31410149   0.654   4.116   4.427 -0.0652  0.4815 -0.1698
  100SAPE  H14X10150   0.747   4.071   4.468 -0.5901 -1.0561 -0.5969
  100SAPE  H14Y10151   0.674   4.157   4.326  1.6684  1.4009  0.4970
  100SAPE  C31510152   0.567   3.986   4.408  0.0355  0.1596  0.4166
  100SAPE  H15X10153   0.481   4.010   4.342  1.0229  1.9491 -0.2829
  100SAPE  H15Y10154   0.538   3.960   4.512 -1.9618  0.7307  0.0608
  100SAPE  C31610155   0.648   3.871   4.362  0.1042  0.3298 -0.1262
  100SAPE  H16X10156   0.570   3.793   4.351 -1.2237  1.6653 -0.5728
  100SAPE  H16Y10157   0.710   3.831   4.445 -1.7716  0.4462  1.4224
  100SAPE  C31710158   0.730   3.889   4.232 -0.0344 -0.2439 -0.5298
  100SAPE  H17X10159   0.780   3.795   4.198  1.8939  1.0319 -1.4272
  100SAPE  H17Y10160   0.807   3.969   4.240 -0.5275  0.1471  0.3502
  100SAPE  C31810161   0.637   3.930   4.115  0.6353  0.1442  0.5934
  100SAPE  H18X10162   0.565   3.847   4.096  0.7119  0.4241 -1.0426
  100SAPE  H18Y10163   0.704   3.927   4.026  2.3772  0.9073  1.8297
  100SAPE  H18Z10164   0.590   4.029   4.129  0.6912  0.5177 -1.4958
  101SAPE     N10165   6.657   6.446   6.814 -0.2122 -0.7856 -0.2100
  101SAPE   HN110166   6.743   6.387   6.819  0.4170  0.1711  0.6760
  101SAPE   HN210167   6.683   6.544   6.840  1.9617 -1.7641  1.6682
  101SAPE   HN310168   6.591   6.407   6.884  0.2677 -0.4272  0.4612
  101SAPE   C1210169   6.592   6.460   6.685 -0.4062  0.1260  0.2069
  101SAPE  H12A10170   6.655   6.522   6.618 -0.1684  1.4986  1.6432
  101SAPE  H12B10171   6.499   6.520   6.697 -0.8584 -0.3753 -0.6680
  101SAPE   C1110172   6.544   6.336   6.611  0.2872 -0.6123  0.4577
  101SAPE  H11A10173   6.629   6.266   6.590  0.5734 -0.1972  0.2137
  101SAPE  H11B10174   6.497   6.361   6.514 -1.2439 -1.8461  0.8378
  101SAPE     P10175   6.399   6.132   6.676 -0.7040 -0.0387  0.0221
  101SAPE   O1310176   6.512   6.040   6.717  0.4067  0.1103 -0.2248
  101SAPE   O1410177   6.273   6.119   6.747  0.2934  0.5608  0.4025
  101SAPE   O1210178   6.442   6.283   6.693 -0.6516  0.6488  0.0044
  101SAPE   O1110179   6.377   6.122   6.522 -0.3568  0.1658  0.0630
  101SAPE    C110180   6.249   6.089   6.468 -0.8280 -0.6307  0.2986
  101SAPE    HA10181   6.220   5.987   6.501 -1.4283 -0.2429  1.0144
  101SAPE    HB10182   6.172   6.162   6.504 -0.1309  0.6900 -0.7931
  101SAPE    C210183   6.261   6.090   6.313  0.3741 -0.1734  0.2496
  101SAPE    HS10184   6.174   6.039   6.266 -0.4674  0.0312  1.5391
  101SAPE   O2110185   6.386   6.031   6.265 -0.0495  0.3176  0.3619
  101SAPE   C2110186   6.379   5.897   6.268 -0.0966 -1.3204  0.4620
  101SAPE   O2210187   6.290   5.830   6.309  0.6136  0.4583 -0.0564
  101SAPE   C2210188   6.508   5.839   6.216 -0.2839  1.0939  0.3700
  101SAPE   H2R10189   6.577   5.913   6.170 -1.2125  1.8495  0.1559
  101SAPE   H2S10190   6.550   5.787   6.304  1.1934  1.7387  0.0778
  101SAPE    C310191   6.256   6.243   6.263 -1.0172 -0.0484  0.3328
  101SAPE    HX10192   6.346   6.288   6.311  0.2636 -0.2656 -1.7387
  101SAPE    HY10193   6.162   6.279   6.310 -0.0498  0.2656  2.0803
  101SAPE   O3110194   6.258   6.254   6.112  0.1166 -0.3660 -0.1363
  101SAPE   C3110195   6.138   6.281   6.053  0.1391 -0.4432  0.5465
  101SAPE   O3210196   6.033   6.300   6.114 -0.5088  0.3778  0.7630
  101SAPE   C3210197   6.163   6.274   5.908 -0.1745  0.0435  0.2073
  101SAPE   H2X10198   6.221   6.183   5.883  0.8642  0.8798 -0.5357
  101SAPE   H2Y10199   6.236   6.355   5.887 -0.2767 -0.0842 -0.6705
  101SAPE   C2310200   6.487   5.727   6.103 -0.1010 -0.4670  0.0375
  101SAPE   H3R10201   6.424   5.643   6.140 -0.9538  0.3737  0.5019
  101SAPE   H3S10202   6.583   5.674   6.083 -0.2931 -1.7166  2.0491
  101SAPE   C2410203   6.430   5.791   5.977  0.2515 -0.1706  0.6693
  101SAPE   H4R10204   6.500   5.867   5.938  1.2325 -0.6787  1.4087
  101SAPE   H4S10205   6.331   5.838   5.995  0.0811 -0.2013 -0.1365
  101SAPE   C2510206   6.403   5.682   5.874 -0.2248 -0.1972  0.0428
  101SAPE   H5R10207   6.386   5.580   5.913 -1.4458 -0.7894 -1.8968
  101SAPE   C2610208   6.421   5.700   5.741  0.5763  0.3179  0.1056
  101SAPE   H6R10209   6.403   5.620   5.668  0.5878  2.1655 -2.0202
  101SAPE   C2710210   6.467   5.830   5.678 -0.1877  0.3766 -0.4394
  101SAPE   H7R10211   6.529   5.798   5.591 -2.2876 -1.4210 -1.3553
  101SAPE   H7S10212   6.527   5.900   5.740 -0.0844 -0.2071  0.1321
  101SAPE   C2810213   6.334   5.902   5.644 -0.0213 -0.1833  0.2277
  101SAPE   H8R10214   6.277   5.941   5.729  0.5685  0.5141  0.3182
  101SAPE   C2910215   6.266   5.895   5.525  0.1677 -0.0221  0.1089
  101SAPE   H9R10216   6.176   5.956   5.510  1.5669  2.3571  0.8948
  101SAPE  C21010217   6.323   5.827   5.401  0.1381  0.7739  0.0332
  101SAPE  H10R10218   6.239   5.800   5.334  0.2239 -0.7808  0.5161
  101SAPE  H10S10219   6.376   5.730   5.413 -0.9440  0.4649  3.2528
  101SAPE  C21110220   6.412   5.925   5.324  0.3859  0.1959 -0.2173
  101SAPE  H11R10221   6.509   5.947   5.372 -1.0867  3.5314  1.5218
  101SAPE  C21210222   6.389   5.977   5.205  0.6730  0.0254  0.0127
  101SAPE  H12R10223   6.468   6.033   5.152 -1.1827  2.1255 -0.7113
  101SAPE  C21310224   6.267   5.952   5.110 -0.0233  0.0294 -0.0312
  101SAPE  H13R10225   6.183   5.912   5.172  0.1611  1.5015  1.2275
  101SAPE  H13S10226   6.293   5.871   5.039 -2.7441 -0.2646 -0.8034
  101SAPE  C21410227   6.221   6.078   5.056  0.9459  0.0674  0.4267
  101SAPE  H14R10228   6.200   6.161   5.126 -1.6958  1.8873 -2.2455
  101SAPE  C21510229   6.198   6.114   4.924  0.2005 -0.2273 -0.2701
  101SAPE  H15R10230   6.160   6.213   4.894  1.5288  0.8868  1.5381
  101SAPE  C21610231   6.207   6.022   4.806 -0.5307 -0.7716 -0.1958
  101SAPE  H16R10232   6.135   5.938   4.820  0.1166 -1.1833  0.7902
  101SAPE  H16S10233   6.308   5.977   4.799 -0.2984 -0.0368 -1.8275
  101SAPE  C21710234   6.192   6.090   4.671  0.0052 -0.2293  0.9305
  101SAPE  H17R10235   6.094   6.143   4.670 -0.3050 -0.7687  1.7525
  101SAPE  H17S10236   6.197   6.027   4.580 -1.9668  2.0319 -0.8877
  101SAPE  C21810237   6.296   6.197   4.651 -0.0382 -0.0440  0.3976
  101SAPE  H18R10238   6.391   6.140   4.658  0.7537  1.4097  2.2150
  101SAPE  H18S10239   6.305   6.273   4.732 -0.6835 -0.7638  1.1542
  101SAPE  C21910240   6.282   6.264   4.514  1.0547 -0.8249 -0.8371
  101SAPE  H19R10241   6.356   6.347   4.523 -0.2674  0.3333 -0.4164
  101SAPE  H19S10242   6.187   6.320   4.500  2.4535  1.9628  0.0354
  101SAPE  C22010243   6.313   6.175   4.397  0.3656  0.0969 -0.1483
  101SAPE  H20R10244   6.305   6.231   4.301 -3.6026  0.0205 -0.0082
  101SAPE  H20S10245   6.255   6.081   4.392  2.0448 -0.9919 -0.1840
  101SAPE  H20T10246   6.418   6.137   4.399  0.2380 -0.3254 -1.0590
  101SAPE   C3310247   6.038   6.282   5.820 -0.3050 -0.2155 -0.6142
  101SAPE   H3X10248   5.969   6.369   5.832  0.4462  0.3715 -0.5223
  101SAPE   H3Y10249   5.979   6.189   5.834  0.9636 -0.7756  1.2980
  101SAPE   C3410250   6.075   6.282   5.674  0.0262 -0.4288 -0.4348
  101SAPE   H4X10251   6.096   6.176   5.648 -2.7275 -1.6612  1.7880
  101SAPE   H4Y10252   6.167   6.341   5.655  0.1710 -1.2472 -2.4026
  101SAPE   C3510253   5.962   6.343   5.584 -0.8361 -0.8329  0.3391
  101SAPE   H5X10254   5.956   6.454   5.583  1.1396 -0.6699 -1.8572
  101SAPE   H5Y10255   5.861   6.298   5.589 -0.9725 -0.5597  0.1047
  101SAPE   C3610256   6.004   6.310   5.438 -0.3902 -0.4160 -0.2334
  101SAPE   H6X10257   6.067   6.219   5.432 -0.3546 -0.5703  1.9131
  101SAPE   H6Y10258   6.072   6.397   5.422 -2.7808  2.1307  2.4212
  101SAPE   C3710259   5.880   6.316   5.348 -0.8939  0.2117 -0.5049
  101SAPE   H7X10260   5.827   6.412   5.363 -1.4886  0.1590 -2.0119
  101SAPE   H7Y10261   5.803   6.239   5.372 -0.2487 -0.4885 -0.6460
  101SAPE   C3810262   5.930   6.305   5.205  0.2323 -0.2267  1.5161
  101SAPE   H8X10263   5.983   6.211   5.180  1.5509  0.6184  1.0218
  101SAPE   H8Y10264   5.997   6.391   5.183  3.5015 -2.9770 -0.1804
  101SAPE   C3910265   5.812   6.320   5.103 -0.4945  0.6047 -0.6712
  101SAPE   H9X10266   5.778   6.425   5.117  0.6918  1.0455 -1.0543
  101SAPE   H9Y10267   5.736   6.242   5.126 -0.6694  1.1408  0.6967
  101SAPE  C31010268   5.852   6.316   4.959 -0.5882 -0.0949 -0.2100
  101SAPE  H10X10269   5.926   6.235   4.943 -1.2689 -0.9176  0.6463
  101SAPE  H10Y10270   5.912   6.406   4.935  0.4098 -1.0027 -1.2182
  101SAPE  C31110271   5.749   6.308   4.861  0.5508  0.2292 -0.4735
  101SAPE  H11X10272   5.664   6.376   4.883  0.5241  0.2518 -0.6439
  101SAPE  H11Y10273   5.723   6.200   4.860  4.0638 -0.7489 -1.7696
  101SAPE  C31210274   5.804   6.354   4.719 -0.0798 -0.2191 -0.3110
  101SAPE  H12X10275   5.892   6.288   4.703 -0.7630 -1.5434  1.1611
  101SAPE  H12Y10276   5.844   6.457   4.731 -2.0214  0.4310  0.9728
  101SAPE  C31310277   5.704   6.372   4.604  0.2015  0.6486 -0.1184
  101SAPE  H13X10278   5.610   6.424   4.631 -0.6306  0.0078 -1.6931
  101SAPE  H13Y10279   5.663   6.280   4.557 -0.3699  1.6343 -1.5746
  101SAPE  C31410280   5.773   6.445   4.486 -0.5352 -0.4065 -0.5429
  101SAPE  H14X10281   5.812   6.541   4.525 -0.2530 -0.1541 -1.4167
  101SAPE  H14Y10282   5.707   6.464   4.399  1.1542  1.1354 -1.5722
  101SAPE  C31510283   5.894   6.376   4.424  0.4050 -0.3175 -0.1071
  101SAPE  H15X10284   5.970   6.377   4.505 -2.7608  1.6168  3.1572
  101SAPE  H15Y10285   5.921   6.448   4.344 -0.3349 -2.3693 -2.3066
  101SAPE  C31610286   5.867   6.233   4.376  0.7644  0.1367 -0.0592
  101SAPE  H16X10287   5.856   6.162   4.461 -0.6935  0.1280 -0.2363
  101SAPE  H16Y10288   5.956   6.204   4.316  0.1327 -0.2062 -0.8514
  101SAPE  C31710289   5.738   6.223   4.292 -0.6902 -0.4452 -0.0403
  101SAPE  H17X10290   5.730   6.302   4.214 -1.1140  0.5554  1.0019
  101SAPE  H17Y10291   5.651   6.244   4.357 -1.0257 -0.3100 -0.5228
  101SAPE  C31810292   5.726   6.081   4.225 -0.1137 -0.4929 -0.0823
  101SAPE  H18X10293   5.708   5.997   4.296  1.3936 -1.5890 -0.9426
  101SAPE  H18Y10294   5.817   6.065   4.165  0.0256  2.7035 -0.9159
  101SAPE  H18Z10295   5.637   6.090   4.160 -0.2810 -3.1199 -0.3185
  102SAPE     N10296   1.094   6.130   6.547  0.0135 -0.0579 -0.0311
  102SAPE   HN110297   1.179   6.185   6.521  0.7952 -1.3376 -0.2880
  102SAPE   HN210298   1.087   6.056   6.475  3.3375  1.5720 -2.3099
  102SAPE   HN310299   1.018   6.200   6.534 -0.3781 -0.1150  1.7301
  102SAPE   C1210300   1.110   6.089   6.692 -0.2632  0.0492  0.5965
  102SAPE  H12A10301   1.194   6.016   6.687  0.7792  1.2978 -1.1359
  102SAPE  H12B10302   1.012   6.048   6.725 -0.2034  0.1841  0.9479
  102SAPE   C1110303   1.152   6.211   6.763 -0.5526 -0.8896  0.0870
  102SAPE  H11A10304   1.152   6.200   6.874 -0.6705  0.6265  0.2603
  102SAPE  H11B10305   1.083   6.297   6.750  0.8997  0.1670 -0.9583
  102SAPE     P10306   1.400   6.312   6.782  0.2775 -0.2466 -0.7253
  102SAPE   O1310307   1.351   6.401   6.886 -0.3892 -0.9288 -0.1369
  102SAPE   O1410308   1.472   6.193   6.827 -0.5533  0.9109 -0.0085
  102SAPE   O1210309   1.275   6.258   6.705 -0.0599 -0.4856  0.1281
  102SAPE   O1110310   1.481   6.384   6.666  0.1614 -0.5177 -0.9674
  102SAPE    C110311   1.456   6.514   6.624  0.2871 -0.2378 -0.5786
  102SAPE    HA10312   1.411   6.585   6.697 -2.0097  1.1905 -3.1712
  102SAPE    HB10313   1.551   6.562   6.593 -0.5818  1.1498 -1.1845
  102SAPE    C210314   1.358   6.507   6.509 -0.3996 -0.3971 -0.4765
  102SAPE    HS10315   1.264   6.460   6.546 -0.1913  0.6028  1.4931
  102SAPE   O2110316   1.417   6.445   6.394 -0.7429 -0.1688  0.3145
  102SAPE   C2110317   1.330   6.361   6.326  0.4616  0.2875  0.0680
  102SAPE   O2210318   1.226   6.320   6.375 -0.6087 -0.2660  0.0341
  102SAPE   C2210319   1.374   6.341   6.189 -0.0006  0.3724  0.3060
  102SAPE   H2R10320   1.295   6.381   6.121 -1.5288 -0.2286  1.6637
  102SAPE   H2S10321   1.471   6.392   6.173  0.3034  0.4365  2.1233
  102SAPE    C310322   1.319   6.645   6.459  0.3444  0.1221 -0.0078
  102SAPE    HX10323   1.409   6.709   6.451 -0.8362  1.5899 -2.5021
  102SAPE    HY10324   1.265   6.699   6.539 -0.4530 -0.5354 -0.0887
  102SAPE   O3110325   1.258   6.646   6.332 -0.0491  0.1781  0.5024
  102SAPE   C3110326   1.125   6.640   6.340 -0.5331  0.2680  0.4103
  102SAPE   O3210327   1.064   6.608   6.442 -0.8100  0.0238  0.1484
  102SAPE   C3210328   1.063   6.665   6.203 -0.1761  0.4129  0.1641
  102SAPE   H2X10329   1.140   6.713   6.138  0.5476  0.0999  0.7847
  102SAPE   H2Y10330   0.976   6.733   6.214 -0.4710  0.2846 -1.1375
  102SAPE   C2310331   1.386   6.185   6.150  0.5062 -0.1021 -0.0533
  102SAPE   H3R10332   1.299   6.125   6.184  0.0697  0.6994  0.2968
  102SAPE   H3S10333   1.471   6.146   6.209  3.2250  1.2518 -2.8085
  102SAPE   C2410334   1.413   6.150   6.001 -0.0945 -0.6501  0.6004
  102SAPE   H4R10335   1.327   6.185   5.941  0.6338 -1.8249 -1.2170
  102SAPE   H4S10336   1.433   6.044   5.972  4.5803  0.7869 -2.5566
  102SAPE   C2510337   1.539   6.218   5.958  0.5167 -0.4813 -0.1427
  102SAPE   H5R10338   1.607   6.243   6.040 -2.9972  1.5145  2.4340
  102SAPE   C2610339   1.566   6.255   5.825  0.5114 -0.5022 -0.0601
  102SAPE   H6R10340   1.646   6.325   5.796 -0.9758  1.0130 -0.6760
  102SAPE   C2710341   1.473   6.222   5.703  0.1073  0.1827  0.3989
  102SAPE   H7R10342   1.385   6.290   5.713  1.5590  2.2218  0.0666
  102SAPE   H7S10343   1.430   6.120   5.703  2.0498 -0.6881  1.2098
  102SAPE   C2810344   1.539   6.250   5.570 -0.0425 -0.2271 -0.6032
  102SAPE   H8R10345   1.639   6.204   5.559  0.6082  0.9367  0.1431
  102SAPE   C2910346   1.481   6.295   5.458  0.2593 -0.5038  0.6455
  102SAPE   H9R10347   1.531   6.299   5.360 -0.3633  3.7606  0.3399
  102SAPE  C21010348   1.337   6.341   5.442 -0.1800 -1.0489  0.1976
  102SAPE  H10R10349   1.280   6.312   5.533 -0.0988  1.3678  1.0895
  102SAPE  H10S10350   1.291   6.289   5.356 -1.6222  1.1226 -0.4100
  102SAPE  C21110351   1.323   6.484   5.415  0.2809  0.2921  0.1584
  102SAPE  H11R10352   1.375   6.550   5.486 -0.2754 -1.7085  2.5578
  102SAPE  C21210353   1.261   6.547   5.314 -0.9719  0.7289 -1.0973
  102SAPE  H12R10354   1.258   6.657   5.308  0.6157  0.7346 -4.0902
  102SAPE  C21310355   1.177   6.480   5.213 -0.3503  0.0107 -0.3899
  102SAPE  H13R10356   1.092   6.549   5.197  1.1050  2.2105  0.8019
  102SAPE  H13S10357   1.129   6.393   5.263  0.1810 -0.5042 -0.7580
  102SAPE  C21410358   1.254   6.426   5.090  0.0899  0.0199  0.1412
  102SAPE  H14R10359   1.348   6.376   5.115  0.9395  2.1039  1.3363
  102SAPE  C21510360   1.205   6.423   4.961  0.5121 -0.6684  0.6642
  102SAPE  H15R10361   1.269   6.376   4.884  0.6395 -1.0992  1.0304
  102SAPE  C21610362   1.069   6.477   4.917  0.5118 -0.3170  0.2970
  102SAPE  H16R10363   1.075   6.541   4.826 -0.8301 -0.2354  0.2517
  102SAPE  H16S10364   1.015   6.525   5.001  1.3330  0.4071  0.4261
  102SAPE  C21710365   0.972   6.360   4.871 -0.2070  0.1533  0.4726
  102SAPE  H17R10366   0.955   6.316   4.971  1.0215 -0.2182  0.5352
  102SAPE  H17S10367   1.021   6.278   4.814  0.0121  1.1029 -0.7519
  102SAPE  C21810368   0.845   6.407   4.793 -0.2041 -0.0681  0.2299
  102SAPE  H18R10369   0.807   6.497   4.845  1.2018 -0.2079  1.5711
  102SAPE  H18S10370   0.765   6.330   4.803 -0.3861  0.3533  2.3254
  102SAPE  C21910371   0.857   6.426   4.641 -0.1312 -0.2599 -0.3817
  102SAPE  H19R10372   0.901   6.331   4.605 -1.4729 -1.9467  2.1698
  102SAPE  H19S10373   0.931   6.509   4.632 -0.8364  0.2706 -1.5543
  102SAPE  C22010374   0.725   6.448   4.559 -0.3089 -0.3221  0.3158
  102SAPE  H20R10375   0.664   6.362   4.525  1.4843 -2.1252  1.4046
  102SAPE  H20S10376   0.747   6.507   4.468  3.4494  0.0555  1.3039
  102SAPE  H20T10377   0.665   6.516   4.623 -0.5896 -1.3198  1.1460
  102SAPE   C3310378   1.004   6.547   6.130 -0.0253  0.2818 -0.6486
  102SAPE   H3X10379   1.084   6.472   6.111  1.0176  0.1909  3.1888
  102SAPE   H3Y10380   0.968   6.588   6.033  2.3247  1.5989 -1.0581
  102SAPE   C3410381   0.889   6.478   6.205  0.1743  0.3732  0.4600
  102SAPE   H4X10382   0.840   6.559   6.263  0.5018  0.8225  0.1115
  102SAPE   H4Y10383   0.936   6.404   6.273 -1.1083  0.1926  1.1817
  102SAPE   C3510384   0.781   6.396   6.118 -0.2681  0.1522 -0.4125
  102SAPE   H5X10385   0.751   6.445   6.023 -1.2536  1.2424  0.4346
  102SAPE   H5Y10386   0.689   6.391   6.181 -0.5849  2.2499 -0.6244
  102SAPE   C3610387   0.815   6.249   6.094 -0.3439  0.4323  0.0708
  102SAPE   H6X10388   0.731   6.194   6.046 -0.7411 -0.2954  1.5279
  102SAPE   H6Y10389   0.827   6.194   6.190 -0.5271 -0.8306 -0.6020
  102SAPE   C3710390   0.935   6.220   6.007  0.5641 -0.6373 -0.0573
  102SAPE   H7X10391   1.033   6.222   6.060  1.6091  0.8873 -1.9305
  102SAPE   H7Y10392   0.928   6.292   5.923 -2.4169 -1.6577 -0.8032
  102SAPE   C3810393   0.929   6.069   5.959 -0.0866  0.7426  0.4278
  102SAPE   H8X10394   0.827   6.066   5.914 -1.2898  0.2717  3.0346
  102SAPE   H8Y10395   0.912   6.001   6.045 -0.8722 -1.0326 -1.0509
  102SAPE   C3910396   1.026   6.026   5.859  0.1196  0.2644  0.6903
  102SAPE   H9X10397   1.014   5.918   5.836 -0.3521  0.6905 -1.2699
  102SAPE   H9Y10398   1.130   6.036   5.898 -0.3341  0.9182  1.7883
  102SAPE  C31010399   1.006   6.089   5.722  0.1651 -0.3044  0.4388
  102SAPE  H10X10400   1.023   6.198   5.732  0.8227 -0.2921 -0.6449
  102SAPE  H10Y10401   0.898   6.073   5.702  0.5848 -1.4825 -1.1146
  102SAPE  C31110402   1.096   6.033   5.608  0.5349  0.5561  0.6973
  102SAPE  H11X10403   1.079   5.924   5.600  0.2539  0.6556 -0.1881
  102SAPE  H11Y10404   1.201   6.051   5.639  0.5492 -0.2333  1.1371
  102SAPE  C31210405   1.061   6.095   5.475 -0.5661  0.7470  0.5331
  102SAPE  H12X10406   1.079   6.205   5.474 -0.3969  0.7398  1.8255
  102SAPE  H12Y10407   0.951   6.083   5.463 -0.4779 -0.1700  0.5812
  102SAPE  C31310408   1.138   6.023   5.364  0.1242 -0.1538 -0.2198
  102SAPE  H13X10409   1.108   5.917   5.344  2.3499 -0.6062 -1.4259
  102SAPE  H13Y10410   1.245   6.017   5.393 -0.0380 -2.0496  0.1344
  102SAPE  C31410411   1.129   6.090   5.226 -0.0051  0.2050 -0.0156
  102SAPE  H14X10412   1.210   6.164   5.214  0.7317 -0.6438 -0.3536
  102SAPE  H14Y10413   1.027   6.131   5.210  0.1063  0.4665 -0.0549
  102SAPE  C31510414   1.166   5.991   5.105  0.7138  0.5228  0.3132
  102SAPE  H15X10415   1.083   5.918   5.091 -0.0636  1.2807  0.8445
  102SAPE  H15Y10416   1.256   5.939   5.142 -1.0824 -2.0993  1.2741
  102SAPE  C31610417   1.181   6.077   4.975  0.8450 -0.4206  0.0848
  102SAPE  H16X10418   1.273   6.140   4.976 -0.6291  1.8409  0.7755
  102SAPE  H16Y10419   1.087   6.128   4.946  1.4621  0.6722 -0.0218
  102SAPE  C31710420   1.200   5.987   4.851 -0.3480  0.4306 -0.4212
  102SAPE  H17X10421   1.100   5.941   4.835 -0.1380  0.3169 -1.4725
  102SAPE  H17Y10422   1.272   5.908   4.882  1.0538  2.4733  1.9858
  102SAPE  C31810423   1.256   6.058   4.728 -0.0659  0.2183 -0.2109
  102SAPE  H18X10424   1.245   6.000   4.633 -0.0363 -1.7578  0.9321
  102SAPE  H18Y10425   1.364   6.068   4.752  0.0117 -0.6537 -0.1640
  102SAPE  H18Z10426   1.213   6.160   4.720 -0.7685 -0.2300 -3.5723
  103SAPE     N10427   0.612   6.768   2.114 -0.2410  0.4206  0.0572
  103SAPE   HN110428   0.623   6.725   2.208 -0.4594  0.6780  0.2036
  103SAPE   HN210429   0.686   6.736   2.048  0.7575  2.0020  0.3727
  103SAPE   HN310430   0.605   6.870   2.130  2.0242  0.4086  1.5061
  103SAPE   C1210431   0.482   6.721   2.062 -0.4681 -0.1985  0.7228
  103SAPE  H12A10432   0.484   6.610   2.059  0.6656 -0.1841  0.2495
  103SAPE  H12B10433   0.479   6.765   1.960  3.3481  3.0355  1.7237
  103SAPE   C1110434   0.369   6.780   2.144 -0.8357  0.5973  0.3696
  103SAPE  H11A10435   0.341   6.710   2.227  0.7043  0.4573  0.8117
  103SAPE  H11B10436   0.285   6.785   2.072  0.7635  0.1784 -1.5938
  103SAPE     P10437   0.303   6.986   2.299 -0.2934 -0.5888 -0.1111
  103SAPE   O1310438   0.345   7.126   2.289  0.0639 -0.2595 -0.1001
  103SAPE   O1410439   0.159   6.959   2.269  0.2088 -0.3610  0.2624
  103SAPE   O1210440   0.395   6.913   2.195 -0.2035  0.2121 -0.0210
  103SAPE   O1110441   0.346   6.933   2.447  0.6903  0.5084  0.1545
  103SAPE    C110442   0.487   6.897   2.465  0.1772  0.7443  0.0403
  103SAPE    HA10443   0.497   6.790   2.440  0.5380  1.0404 -1.1578
  103SAPE    HB10444   0.552   6.962   2.402 -0.0261  1.1391  0.2296
  103SAPE    C210445   0.548   6.924   2.608 -0.2219  0.4405 -0.0371
  103SAPE    HS10446   0.658   6.912   2.621  0.0788  2.6409 -0.2060
  103SAPE   O2110447   0.478   6.834   2.704  0.3331  0.2724 -0.0773
  103SAPE   C2110448   0.510   6.704   2.706  0.6132  0.4640 -0.7474
  103SAPE   O2210449   0.597   6.650   2.640 -0.4869 -0.3925  0.2624
  103SAPE   C2210450   0.417   6.640   2.807  0.2751 -0.7692 -0.6379
  103SAPE   H2R10451   0.396   6.720   2.882  4.0868  2.1720 -2.3408
  103SAPE   H2S10452   0.322   6.616   2.756 -1.3133 -0.5278  2.0095
  103SAPE    C310453   0.517   7.064   2.642 -0.2931 -1.0858 -0.0417
  103SAPE    HX10454   0.406   7.069   2.645 -0.2728  0.2349 -0.9581
  103SAPE    HY10455   0.544   7.135   2.562 -0.5335 -2.0904 -1.0390
  103SAPE   O3110456   0.562   7.100   2.770  0.3859  0.2657  0.3618
  103SAPE   C3110457   0.685   7.154   2.774 -0.1156  0.2695  1.1791
  103SAPE   O3210458   0.749   7.178   2.673  0.3571  0.8383  0.0052
  103SAPE   C3210459   0.727   7.170   2.916  0.0500  0.3048 -0.2999
  103SAPE   H2X10460   0.723   7.075   2.974 -0.5750  0.4568 -0.0840
  103SAPE   H2Y10461   0.655   7.232   2.973  0.2678 -2.1321  2.9082
  103SAPE   C2310462   0.470   6.514   2.886 -0.3662 -0.0264  0.5877
  103SAPE   H3R10463   0.552   6.562   2.944  0.5115 -0.3464 -0.3440
  103SAPE   H3S10464   0.519   6.444   2.815 -1.2414  0.7411 -0.8465
  103SAPE   C2410465   0.362   6.438   2.965 -0.6217  0.2317  0.4785
  103SAPE   H4R10466   0.336   6.501   3.052  0.1036  1.3315 -0.0756
  103SAPE   H4S10467   0.415   6.353   3.013 -0.6255 -0.1047 -0.0926
  103SAPE   C2510468   0.250   6.395   2.873  0.2173  0.0489  0.5064
  103SAPE   H5R10469   0.274   6.302   2.820 -0.4035  0.5596 -0.7254
  103SAPE   C2610470   0.118   6.430   2.869 -0.2781  0.2140  0.0247
  103SAPE   H6R10471   0.057   6.388   2.787  2.9457 -2.4451 -1.2209
  103SAPE   C2710472   0.051   6.543   2.947 -0.4493 -0.2903 -0.1882
  103SAPE   H7R10473   0.039   6.631   2.880 -4.2129 -1.2196 -0.9907
  103SAPE   H7S10474   0.118   6.566   3.033  0.9749 -1.2196 -1.0174
  103SAPE   C2810475  -0.090   6.496   2.991 -0.0801  0.0293 -0.5604
  103SAPE   H8R10476  -0.167   6.525   2.918 -1.0012 -2.2588 -0.5636
  103SAPE   C2910477  -0.125   6.413   3.097  0.1155 -0.0175  0.9631
  103SAPE   H9R10478  -0.231   6.385   3.110 -0.6651  1.9976 -0.5099
  103SAPE  C21010479  -0.029   6.349   3.199  0.0430  0.4331  0.0095
  103SAPE  H10R10480   0.077   6.372   3.174  0.1048  0.1056 -0.0298
  103SAPE  H10S10481  -0.042   6.240   3.183  4.1438  0.1305 -2.5239
  103SAPE  C21110482  -0.070   6.393   3.334 -0.3484 -0.2500 -0.3187
  103SAPE  H11R10483  -0.176   6.395   3.361 -0.1322 -1.8994  0.7996
  103SAPE  C21210484   0.021   6.426   3.432  0.4459 -0.3934  0.4061
  103SAPE  H12R10485  -0.024   6.444   3.531 -1.6948 -1.5911 -0.2702
  103SAPE  C21310486   0.169   6.418   3.423 -0.5016 -0.1238  0.4555
  103SAPE  H13R10487   0.204   6.375   3.327  0.2096 -1.2126  1.1603
  103SAPE  H13S10488   0.203   6.337   3.492 -0.3098 -0.4971 -0.0684
  103SAPE  C21410489   0.230   6.551   3.468  0.2649  0.1878  0.2074
  103SAPE  H14R10490   0.261   6.626   3.394 -0.6890 -0.5526 -0.9758
  103SAPE  C21510491   0.251   6.585   3.596 -0.4878  0.0960 -0.8157
  103SAPE  H15R10492   0.300   6.681   3.618  1.5204 -1.2602  1.0820
  103SAPE  C21610493   0.219   6.498   3.714  0.8254  0.0982  0.2591
  103SAPE  H16R10494   0.300   6.425   3.734 -1.6505 -3.0418 -0.3048
  103SAPE  H16S10495   0.129   6.438   3.692 -0.2697  0.8547  2.3668
  103SAPE  C21710496   0.194   6.570   3.851 -0.3114 -0.0903 -0.1592
  103SAPE  H17R10497   0.274   6.642   3.878 -1.0592  1.0160 -0.8482
  103SAPE  H17S10498   0.208   6.494   3.931  1.1749 -0.5342 -0.8052
  103SAPE  C21810499   0.056   6.637   3.860 -0.1269 -0.7224 -0.0055
  103SAPE  H18R10500  -0.019   6.566   3.821 -2.3188  0.9529  0.8919
  103SAPE  H18S10501   0.043   6.719   3.786  0.9949  1.0100  1.5915
  103SAPE  C21910502   0.025   6.687   4.006  0.1912  0.0566  0.0874
  103SAPE  H19R10503   0.014   6.797   3.995  1.5514  0.2084  0.0517
  103SAPE  H19S10504   0.119   6.679   4.065  0.7544  1.9304 -0.4717
  103SAPE  C22010505  -0.100   6.629   4.072  0.8837  0.0525 -0.7517
  103SAPE  H20R10506  -0.195   6.634   4.015  0.0134 -2.0005  0.4281
  103SAPE  H20S10507  -0.120   6.675   4.171  1.2723 -0.3945 -0.4617
  103SAPE  H20T10508  -0.082   6.521   4.091  1.3670 -0.1164 -2.0427
  103SAPE   C3310509   0.877   7.219   2.921  0.3931  0.0369  0.0087
  103SAPE   H3X10510   0.877   7.308   2.855  0.6216 -1.9304 -2.8233
  103SAPE   H3Y10511   0.948   7.145   2.879  0.0964  0.0857 -0.5982
  103SAPE   C3410512   0.918   7.253   3.066 -0.4407 -0.6219 -0.1822
  103SAPE   H4X10513   1.022   7.294   3.061 -0.3614 -0.6206  1.1903
  103SAPE   H4Y10514   0.922   7.167   3.136  2.6319 -0.6268 -0.2215
  103SAPE   C3510515   0.838   7.373   3.127 -0.2430  0.1954 -0.6790
  103SAPE   H5X10516   0.732   7.345   3.147 -0.2703  1.0568  0.4747
  103SAPE   H5Y10517   0.829   7.451   3.047 -0.4499 -1.6066 -2.4953
  103SAPE   C3610518   0.905   7.426   3.257  0.7739  0.2502  0.3236
  103SAPE   H6X10519   0.860   7.524   3.287 -1.5586 -1.2597  2.1071
  103SAPE   H6Y10520   1.009   7.448   3.227  0.6498  0.7528  0.2349
  103SAPE   C3710521   0.881   7.345   3.385 -0.0420 -0.2157  0.1822
  103SAPE   H7X10522   0.909   7.239   3.367 -0.9046 -0.1002 -2.1899
  103SAPE   H7Y10523   0.774   7.345   3.415 -0.5948 -1.8646 -1.6114
  103SAPE   C3810524   0.957   7.399   3.508 -0.3352  0.0322 -0.7399
  103SAPE   H8X10525   0.946   7.509   3.519  0.2358 -0.1390  2.6366
  103SAPE   H8Y10526   1.064   7.375   3.491 -0.5968 -1.9728  0.1364
  103SAPE   C3910527   0.904   7.338   3.637  0.1388 -0.4536 -0.1334
  103SAPE   H9X10528   0.948   7.238   3.652  2.7069  0.6126  0.0641
  103SAPE   H9Y10529   0.795   7.334   3.617  0.1098 -3.2877  0.3016
  103SAPE  C31010530   0.935   7.421   3.764  0.2431  0.2451  0.4350
  103SAPE  H10X10531   0.879   7.515   3.744 -0.7916 -0.4874 -0.2082
  103SAPE  H10Y10532   1.045   7.436   3.764  0.3007 -0.0243 -1.0107
  103SAPE  C31110533   0.883   7.363   3.899  0.1848 -0.2337  0.1348
  103SAPE  H11X10534   0.907   7.256   3.915 -0.3018 -0.8604 -2.7670
  103SAPE  H11Y10535   0.772   7.370   3.897  0.2229  0.7893  0.7890
  103SAPE  C31210536   0.933   7.445   4.012 -0.1156  0.5426  0.5452
  103SAPE  H12X10537   0.886   7.546   4.013  0.7908  0.9706  1.2842
  103SAPE  H12Y10538   1.040   7.467   3.993 -0.1183  1.2423  1.2957
  103SAPE  C31310539   0.905   7.383   4.148  0.8052 -0.3923  0.0264
  103SAPE  H13X10540   0.976   7.299   4.159  1.0835 -0.0223  1.1632
  103SAPE  H13Y10541   0.806   7.333   4.141  0.3357  0.2446  1.6713
  103SAPE  C31410542   0.891   7.492   4.259  0.0883  0.6371 -0.3224
  103SAPE  H14X10543   0.819   7.566   4.217  0.4865  0.7558 -0.8036
  103SAPE  H14Y10544   0.989   7.537   4.284 -0.6162  1.3336  1.3250
  103SAPE  C31510545   0.842   7.434   4.389  0.6993  0.8455 -0.9454
  103SAPE  H15X10546   0.920   7.359   4.414 -0.2137  0.1591 -0.0848
  103SAPE  H15Y10547   0.744   7.388   4.365  1.3049 -1.9443  1.4194
  103SAPE  C31610548   0.821   7.531   4.506 -0.3185  0.4374 -0.3605
  103SAPE  H16X10549   0.746   7.601   4.464 -0.7598 -2.2868 -4.7804
  103SAPE  H16Y10550   0.911   7.592   4.528 -0.4890  1.1197 -1.5269
  103SAPE  C31710551   0.789   7.458   4.636  1.6666 -0.1145 -0.1487
  103SAPE  H17X10552   0.876   7.395   4.667  2.4731 -0.1360 -2.2980
  103SAPE  H17Y10553   0.703   7.389   4.619  1.7745 -0.0036 -1.2457
  103SAPE  C31810554   0.750   7.557   4.751  0.6301 -0.5356 -0.6687
  103SAPE  H18X10555   0.767   7.515   4.852  4.0310  1.5988 -0.1943
  103SAPE  H18Y10556   0.644   7.590   4.738  0.7493 -0.2455 -0.9251
  103SAPE  H18Z10557   0.811   7.649   4.740 -0.3182 -0.1124 -3.0268
  104SAPE     N10558   0.763   0.996   2.331 -1.2613 -0.1870 -0.4147
  104SAPE   HN110559   0.754   0.900   2.292 -1.4549  0.2024 -1.3487
  104SAPE   HN210560   0.685   1.008   2.398 -0.4548 -0.6463  0.6431
  104SAPE   HN310561   0.764   1.069   2.257  0.2560  1.3426  1.0236
  104SAPE   C1210562   0.894   0.992   2.396  0.1875 -0.5226 -0.0586
  104SAPE  H12A10563   0.900   0.913   2.473  2.2678 -0.2639  0.0955
  104SAPE  H12B10564   0.902   1.085   2.456  0.1684 -2.9391  4.0615
  104SAPE   C1110565   1.002   0.977   2.284  0.1618 -0.7105  0.2086
  104SAPE  H11A10566   1.103   0.988   2.329  0.6820  1.8932 -1.3984
  104SAPE  H11B10567   0.990   1.050   2.202 -0.9898 -4.1623 -2.9926
  104SAPE     P10568   0.993   0.715   2.266 -0.0012 -0.0927 -0.1574
  104SAPE   O1310569   0.860   0.674   2.326  0.0489 -0.1762  0.0716
  104SAPE   O1410570   1.044   0.628   2.157  0.3340 -0.0873 -0.0851
  104SAPE   O1210571   0.986   0.859   2.202  0.2813 -0.0582  0.6319
  104SAPE   O1110572   1.110   0.731   2.370 -0.6057 -0.5547 -0.2448
  104SAPE    C110573   1.147   0.614   2.444 -0.9396 -0.4430 -0.6421
  104SAPE    HA10574   1.053   0.570   2.483 -1.5513  0.5443 -0.9605
  104SAPE    HB10575   1.205   0.541   2.383  1.2533 -0.2033  1.0081
  104SAPE    C210576   1.227   0.657   2.563  0.6821  0.1466 -0.0652
  104SAPE    HS10577   1.326   0.684   2.520  1.0804  0.3283  0.9368
  104SAPE   O2110578   1.231   0.533   2.647  0.3524 -0.5900  0.2239
  104SAPE   C2110579   1.354   0.477   2.660  0.7622 -0.4330 -0.1136
  104SAPE   O2210580   1.453   0.529   2.624 -0.5773  0.1380 -0.2631
  104SAPE   C2210581   1.337   0.336   2.714  0.3541 -0.0065  0.3026
  104SAPE   H2R10582   1.234   0.303   2.687 -0.1844  1.7140  0.1153
  104SAPE   H2S10583   1.412   0.274   2.662 -0.0284  1.7999 -2.6876
  104SAPE    C310584   1.154   0.769   2.644 -0.0429  0.0943  0.3532
  104SAPE    HX10585   1.049   0.734   2.645 -0.2810  0.6847 -1.1317
  104SAPE    HY10586   1.140   0.855   2.575 -2.9668  1.7955  2.8448
  104SAPE   O3110587   1.219   0.792   2.774  0.2286 -0.2213  0.0517
  104SAPE   C3110588   1.139   0.800   2.883 -0.5806  0.1604 -0.0570
  104SAPE   O3210589   1.021   0.779   2.889 -0.0464 -0.3776 -0.0987
  104SAPE   C3210590   1.219   0.845   3.002 -0.1630 -1.0218 -0.5273
  104SAPE   H2X10591   1.144   0.870   3.080 -1.5527 -0.3156 -2.0156
  104SAPE   H2Y10592   1.259   0.943   2.967 -1.3303 -1.0301 -2.0191
  104SAPE   C2310593   1.353   0.307   2.866 -0.3286  0.1348  0.1142
  104SAPE   H3R10594   1.263   0.336   2.923  0.3696  0.3318  1.1332
  104SAPE   H3S10595   1.436   0.364   2.912 -1.4509  0.6417  1.5924
  104SAPE   C2410596   1.363   0.153   2.891 -0.1392 -0.4988 -1.0900
  104SAPE   H4R10597   1.435   0.145   2.976 -1.3481  1.5264  0.2109
  104SAPE   H4S10598   1.405   0.100   2.802  1.0911  0.7288 -1.2706
  104SAPE   C2510599   1.223   0.092   2.918  0.2286 -0.3796 -0.0713
  104SAPE   H5R10600   1.169   0.089   2.822 -1.0385 -0.2639  0.6207
  104SAPE   C2610601   1.161   0.058   3.029 -0.2253  0.0385  0.4710
  104SAPE   H6R10602   1.062   0.011   3.014 -0.1162 -0.8552  2.2726
  104SAPE   C2710603   1.217   0.057   3.171  0.4491  0.0855 -0.5324
  104SAPE   H7R10604   1.172   0.148   3.216 -2.8796  0.0339 -3.3832
  104SAPE   H7S10605   1.328   0.049   3.173  0.3723 -1.4450 -1.0501
  104SAPE   C2810606   1.175  -0.065   3.249 -0.2151  0.0193 -0.0622
  104SAPE   H8R10607   1.181  -0.158   3.191  0.3175 -0.0612  0.1191
  104SAPE   C2910608   1.092  -0.065   3.360 -0.7742  0.0457 -0.7074
  104SAPE   H9R10609   1.075  -0.160   3.411 -0.0241  0.9635  1.3499
  104SAPE  C21010610   1.053   0.063   3.426 -0.2479 -0.3056 -0.3810
  104SAPE  H10R10611   1.018   0.137   3.351  2.7586 -1.0301 -2.7116
  104SAPE  H10S10612   1.144   0.114   3.464 -0.9671 -1.1575  2.8151
  104SAPE  C21110613   0.955   0.036   3.539 -0.0749  0.0638 -0.3952
  104SAPE  H11R10614   0.849   0.048   3.513 -0.7823 -2.3810  0.9875
  104SAPE  C21210615   0.983   0.025   3.671 -0.5519  0.3882  0.0906
  104SAPE  H12R10616   0.915   0.018   3.757  2.2817 -1.9324  2.3527
  104SAPE  C21310617   1.112   0.038   3.745 -0.5159 -0.0566 -0.6272
  104SAPE  H13R10618   1.194  -0.010   3.688  1.1932  0.8679  0.9559
  104SAPE  H13S10619   1.110  -0.028   3.834 -1.2359 -0.3607 -0.8556
  104SAPE  C21410620   1.152   0.179   3.774 -0.2373 -0.3377 -0.3700
  104SAPE  H14R10621   1.151   0.242   3.685 -0.8167  1.0650  0.5877
  104SAPE  C21510622   1.187   0.233   3.894  0.8090 -0.6485  0.2767
  104SAPE  H15R10623   1.189   0.343   3.890  0.3323 -0.6794 -2.4069
  104SAPE  C21610624   1.189   0.172   4.032  0.1876 -0.1405  0.1498
  104SAPE  H16R10625   1.160   0.065   4.023 -2.6589  0.5071  0.5852
  104SAPE  H16S10626   1.108   0.225   4.086  1.0711 -0.9236  2.3294
  104SAPE  C21710627   1.329   0.196   4.100  0.1065  0.1338 -0.8396
  104SAPE  H17R10628   1.363   0.301   4.108  2.0162 -0.4982 -0.1922
  104SAPE  H17S10629   1.402   0.147   4.033  0.7981 -1.8607  1.2262
  104SAPE  C21810630   1.326   0.112   4.231 -0.2872 -0.4746 -0.1884
  104SAPE  H18R10631   1.428   0.117   4.273  1.3616 -2.7657 -3.4794
  104SAPE  H18S10632   1.299   0.007   4.205  2.5610 -1.8831  1.9701
  104SAPE  C21910633   1.211   0.170   4.321  0.2526 -0.2233 -0.1664
  104SAPE  H19R10634   1.110   0.143   4.282 -0.7001 -0.1107  2.0523
  104SAPE  H19S10635   1.227   0.279   4.335  1.6719 -0.7476  3.3576
  104SAPE  C22010636   1.217   0.118   4.469  0.6557 -0.7794  0.0302
  104SAPE  H20R10637   1.253   0.201   4.533 -1.3865  0.8432 -0.8157
  104SAPE  H20S10638   1.290   0.035   4.486 -0.7740 -1.7457  1.7271
  104SAPE  H20T10639   1.121   0.080   4.508 -0.3090  2.2490  0.8462
  104SAPE   C3310640   1.335   0.752   3.042 -0.0842  0.0538 -0.4117
  104SAPE   H3X10641   1.410   0.807   3.103 -1.3738 -0.2938  1.5933
  104SAPE   H3Y10642   1.381   0.696   2.958 -2.6874 -3.2514  0.1851
  104SAPE   C3410643   1.284   0.642   3.142 -0.0661 -0.4276 -0.0414
  104SAPE   H4X10644   1.212   0.579   3.086  0.4190  0.5204 -1.8214
  104SAPE   H4Y10645   1.237   0.702   3.223  0.2557 -0.3607  0.0996
  104SAPE   C3510646   1.401   0.543   3.184 -0.5563 -0.1662 -0.3406
  104SAPE   H5X10647   1.492   0.595   3.220 -1.1069  0.6822 -0.1299
  104SAPE   H5Y10648   1.438   0.475   3.104  0.1048 -1.0894  0.7166
  104SAPE   C3610649   1.367   0.459   3.307 -0.4618 -0.4032 -0.6882
  104SAPE   H6X10650   1.264   0.418   3.301 -2.8115  4.3033  1.9792
  104SAPE   H6Y10651   1.379   0.512   3.404 -1.4576 -1.1606 -0.1315
  104SAPE   C3710652   1.463   0.338   3.313  0.3472 -1.1005  0.2011
  104SAPE   H7X10653   1.568   0.374   3.311 -0.5848  1.7606 -1.4244
  104SAPE   H7Y10654   1.448   0.282   3.219 -0.3242 -0.0869 -0.3118
  104SAPE   C3810655   1.451   0.237   3.426  0.3168  0.4209  0.0693
  104SAPE   H8X10656   1.526   0.156   3.428 -0.9489 -1.0237 -3.2853
  104SAPE   H8Y10657   1.359   0.181   3.396 -0.5091  1.6072  0.3112
  104SAPE   C3910658   1.427   0.285   3.570  0.3382 -0.3107 -0.2563
  104SAPE   H9X10659   1.401   0.202   3.639  0.1392 -0.1152 -0.0980
  104SAPE   H9Y10660   1.333   0.342   3.559 -0.1227 -1.0603 -0.2642
  104SAPE  C31010661   1.540   0.376   3.627 -0.3155 -0.2417 -0.6650
  104SAPE  H10X10662   1.540   0.466   3.562 -2.8530  0.1383 -0.2507
  104SAPE  H10Y10663   1.630   0.312   3.613 -1.0438 -2.2542  2.5680
  104SAPE  C31110664   1.512   0.405   3.778 -0.6858  0.2354  0.6583
  104SAPE  H11X10665   1.529   0.313   3.837  0.7151 -0.5976 -0.9575
  104SAPE  H11Y10666   1.405   0.432   3.785 -0.8309 -0.7163  2.5370
  104SAPE  C31210667   1.608   0.520   3.822  0.4956 -0.9130 -0.1829
  104SAPE  H12X10668   1.577   0.617   3.777  1.3218 -0.3126  0.5199
  104SAPE  H12Y10669   1.714   0.497   3.798 -0.1363 -2.8810 -1.3431
  104SAPE  C31310670   1.604   0.540   3.967  0.1030  0.0825  0.1645
  104SAPE  H13X10671   1.676   0.621   3.993 -0.1810  1.6230 -3.3538
  104SAPE  H13Y10672   1.651   0.451   4.015  0.5659 -0.9739 -2.1295
  104SAPE  C31410673   1.461   0.576   4.020 -0.0346 -0.0356  0.2066
  104SAPE  H14X10674   1.382   0.500   4.004 -1.0549  1.3137 -1.5394
  104SAPE  H14Y10675   1.432   0.665   3.960 -1.3887 -0.1974  0.5962
  104SAPE  C31510676   1.464   0.607   4.167 -0.1282  0.5779 -0.6416
  104SAPE  H15X10677   1.559   0.654   4.199 -0.4313  1.6162 -1.2260
  104SAPE  H15Y10678   1.448   0.511   4.221 -0.4654  1.3921  0.7575
  104SAPE  C31610679   1.348   0.691   4.220 -0.1412 -0.1434 -0.4101
  104SAPE  H16X10680   1.246   0.652   4.200 -1.0400  1.8892 -0.0329
  104SAPE  H16Y10681   1.345   0.793   4.177 -1.3995 -0.5112 -1.2251
  104SAPE  C31710682   1.366   0.713   4.371  0.4003  0.0953  0.6019
  104SAPE  H17X10683   1.458   0.775   4.378 -0.2710  1.0407  1.3148
  104SAPE  H17Y10684   1.382   0.615   4.422 -1.5570 -0.3953  0.3297
  104SAPE  C31810685   1.245   0.780   4.436  0.3810  0.3397 -0.2810
  104SAPE  H18X10686   1.258   0.784   4.546 -3.2997  1.2248  0.2478
  104SAPE  H18Y10687   1.158   0.712   4.418 -0.4207  0.1952  3.3556
  104SAPE  H18Z10688   1.219   0.879   4.393 -0.3674  0.3348  0.1412
  105SAPE     N10689   4.823   4.358   1.893 -0.3268 -0.3231  0.6930
  105SAPE   HN110690   4.827   4.257   1.868  0.4382  0.1324 -1.2336
  105SAPE   HN210691   4.736   4.380   1.944  0.0155  1.5205  0.5520
  105SAPE   HN310692   4.837   4.406   1.802 -0.9020 -2.8106 -0.8301
  105SAPE   C1210693   4.932   4.407   1.991  0.2015  0.2964  0.3484
  105SAPE  H12A10694   5.032   4.373   1.955  0.5266 -0.5095  1.9517
  105SAPE  H12B10695   4.915   4.350   2.085  1.6154 -4.0470 -1.7597
  105SAPE   C1110696   4.929   4.562   2.002 -0.1040  0.4505 -0.0981
  105SAPE  H11A10697   4.827   4.593   2.035 -1.9240 -3.6969 -1.2435
  105SAPE  H11B10698   4.937   4.594   1.896  0.2020 -1.7343 -0.7726
  105SAPE     P10699   5.076   4.602   2.219  0.0498  0.2043  0.6214
  105SAPE   O1310700   5.139   4.469   2.235 -0.2523 -0.2674 -0.1593
  105SAPE   O1410701   5.158   4.719   2.262  0.0755  0.2118  0.6267
  105SAPE   O1210702   5.036   4.627   2.071 -0.0081 -0.1551  0.0856
  105SAPE   O1110703   4.942   4.611   2.287  0.1865 -0.3920 -0.1397
  105SAPE    C110704   4.855   4.508   2.329  0.5744  0.4484  0.3338
  105SAPE    HA10705   4.795   4.476   2.241  1.5715  1.5228 -0.7755
  105SAPE    HB10706   4.915   4.423   2.369  1.4019  0.2747 -1.2137
  105SAPE    C210707   4.761   4.553   2.448  0.7151 -0.0117  0.5000
  105SAPE    HS10708   4.678   4.605   2.395  0.7093 -0.3159  0.2072
  105SAPE   O2110709   4.820   4.647   2.545  0.4740  0.3010  0.7334
  105SAPE   C2110710   4.930   4.608   2.589  0.4474  0.0663  0.2465
  105SAPE   O2210711   4.978   4.498   2.581 -0.4566 -1.1228  0.1666
  105SAPE   C2210712   4.987   4.716   2.685  0.4662  0.0609 -0.0861
  105SAPE   H2R10713   5.088   4.683   2.717  1.0600 -1.7143 -3.4024
  105SAPE   H2S10714   4.996   4.803   2.616 -0.0267 -1.2406 -1.8305
  105SAPE    C310715   4.692   4.429   2.518  0.2048  0.2637 -0.1153
  105SAPE    HX10716   4.766   4.364   2.569 -2.3615 -1.1909  2.0224
  105SAPE    HY10717   4.633   4.378   2.439 -1.5676  1.7739  0.1601
  105SAPE   O3110718   4.596   4.468   2.621  0.2623  0.4232 -0.0730
  105SAPE   C3110719   4.543   4.356   2.682  0.3362  0.1779 -0.0298
  105SAPE   O3210720   4.573   4.245   2.651 -0.1968 -0.0274  0.7328
  105SAPE   C3210721   4.423   4.402   2.763 -0.1622 -0.0848  0.3540
  105SAPE   H2X10722   4.340   4.406   2.690  1.4884 -3.9582 -2.0461
  105SAPE   H2Y10723   4.448   4.500   2.809  3.3096  0.1082 -1.5748
  105SAPE   C2310724   4.886   4.754   2.801 -0.6222 -0.1844 -0.5827
  105SAPE   H3R10725   4.789   4.710   2.770  0.5316 -1.2276 -2.9667
  105SAPE   H3S10726   4.870   4.863   2.816  0.9350  0.2384 -1.7024
  105SAPE   C2410727   4.939   4.691   2.937  0.0587 -0.1936  0.3846
  105SAPE   H4R10728   4.845   4.697   2.996 -0.2531  1.2815 -0.2290
  105SAPE   H4S10729   5.018   4.762   2.966 -1.3396  1.4197  0.3820
  105SAPE   C2510730   4.986   4.548   2.942  0.3466 -0.1459  0.6199
  105SAPE   H5R10731   5.095   4.543   2.933  0.4577  3.6495 -2.3757
  105SAPE   C2610732   4.909   4.441   2.952  0.6264 -0.8378 -0.0067
  105SAPE   H6R10733   4.957   4.346   2.978 -0.4115 -1.7199 -1.1958
  105SAPE   C2710734   4.763   4.433   2.959  0.1280 -0.3694 -0.4035
  105SAPE   H7R10735   4.719   4.416   2.859 -0.6403  2.1670 -0.5755
  105SAPE   H7S10736   4.716   4.526   2.999  0.2146 -1.7508  3.2890
  105SAPE   C2810737   4.712   4.319   3.042 -0.1320  0.1896 -0.3064
  105SAPE   H8R10738   4.696   4.226   2.985  0.3360 -0.3444  0.4130
  105SAPE   C2910739   4.672   4.320   3.168 -0.1617  0.6865  0.2576
  105SAPE   H9R10740   4.639   4.219   3.199  0.1261 -0.0371 -1.6428
  105SAPE  C21010741   4.678   4.427   3.270  0.7190 -0.5404  0.9183
  105SAPE  H10R10742   4.629   4.387   3.362  0.2770  1.4460  1.6125
  105SAPE  H10S10743   4.608   4.506   3.234  1.0123 -0.9183 -0.5357
  105SAPE  C21110744   4.812   4.478   3.321  0.3954 -1.0435  0.0516
  105SAPE  H11R10745   4.893   4.470   3.248  1.5667 -2.5964  1.4391
  105SAPE  C21210746   4.849   4.503   3.449 -0.2993  0.0988  0.4862
  105SAPE  H12R10747   4.950   4.539   3.472  0.7374 -1.2214 -1.6816
  105SAPE  C21310748   4.760   4.495   3.571  0.0614  0.3485  0.3316
  105SAPE  H13R10749   4.782   4.400   3.626 -0.2135 -0.3889 -0.7985
  105SAPE  H13S10750   4.652   4.489   3.548  0.1471 -2.6421  0.2935
  105SAPE  C21410751   4.761   4.612   3.658  0.0971  0.5484 -0.2717
  105SAPE  H14R10752   4.748   4.711   3.611 -1.1379  0.8892  0.7198
  105SAPE  C21510753   4.769   4.608   3.794  0.4789 -0.6020 -0.0696
  105SAPE  H15R10754   4.773   4.694   3.861 -0.3630 -1.7147  1.4706
  105SAPE  C21610755   4.774   4.478   3.871 -0.1755  0.5407  1.0075
  105SAPE  H16R10756   4.876   4.437   3.851 -0.0538  1.0466  0.5636
  105SAPE  H16S10757   4.697   4.401   3.848  1.2749 -1.2716  1.9350
  105SAPE  C21710758   4.766   4.491   4.023 -0.5765 -0.6386  0.1699
  105SAPE  H17R10759   4.825   4.580   4.052 -2.0645  0.9936 -1.5524
  105SAPE  H17S10760   4.802   4.396   4.069 -0.9150 -0.2838  1.1961
  105SAPE  C21810761   4.629   4.509   4.074  0.7158 -0.4007 -0.8489
  105SAPE  H18R10762   4.612   4.450   4.166  1.1159 -0.7838 -1.0191
  105SAPE  H18S10763   4.552   4.468   4.005  0.6205  1.9287 -2.2253
  105SAPE  C21910764   4.579   4.656   4.091 -0.3494  0.0297 -0.1902
  105SAPE  H19R10765   4.582   4.705   3.992  1.1249 -4.1546 -2.4364
  105SAPE  H19S10766   4.643   4.715   4.161 -1.0769  1.3666 -0.6309
  105SAPE  C22010767   4.444   4.667   4.144  0.0062  0.2191 -0.0079
  105SAPE  H20R10768   4.409   4.770   4.165  0.2734  0.6700 -1.6525
  105SAPE  H20S10769   4.428   4.595   4.228  1.3531 -0.8210 -0.6080
  105SAPE  H20T10770   4.373   4.640   4.063  1.9448 -0.7144 -1.4732
  105SAPE   C3310771   4.374   4.297   2.870  0.6336 -0.1854  0.2846
  105SAPE   H3X10772   4.458   4.230   2.898  1.1672 -0.2550 -1.3158
  105SAPE   H3Y10773   4.295   4.230   2.830  1.6594 -0.4978 -1.3318
  105SAPE   C3410774   4.319   4.370   2.991 -0.7943  0.1108  0.1653
  105SAPE   H4X10775   4.245   4.448   2.963  1.8336  3.5448  2.0375
  105SAPE   H4Y10776   4.397   4.427   3.045  0.2603 -1.8070  0.7786
  105SAPE   C3510777   4.263   4.267   3.090  0.1320  0.7662 -0.1655
  105SAPE   H5X10778   4.324   4.175   3.083 -0.0775  0.6568 -0.6240
  105SAPE   H5Y10779   4.158   4.244   3.060  0.3860  1.3516 -1.6081
  105SAPE   C3610780   4.273   4.334   3.227  0.3893 -0.3769 -0.6315
  105SAPE   H6X10781   4.209   4.424   3.219 -0.9155 -1.2468 -0.2999
  105SAPE   H6Y10782   4.377   4.362   3.252 -0.1586  0.4896  0.7596
  105SAPE   C3710783   4.204   4.251   3.342 -0.4361  0.2089  1.0506
  105SAPE   H7X10784   4.249   4.149   3.343  0.1507  0.4719  2.1319
  105SAPE   H7Y10785   4.098   4.221   3.324 -0.9803  0.6583  3.2515
  105SAPE   C3810786   4.208   4.345   3.463  0.6146  0.5261  0.1703
  105SAPE   H8X10787   4.149   4.437   3.443 -1.2109 -0.8515 -1.1680
  105SAPE   H8Y10788   4.310   4.386   3.483  1.6323 -1.9686  0.5082
  105SAPE   C3910789   4.156   4.277   3.592 -0.4934  0.3092  0.4078
  105SAPE   H9X10790   4.198   4.175   3.603 -1.8537 -0.3304 -0.0517
  105SAPE   H9Y10791   4.045   4.271   3.600 -0.4471 -2.4075 -0.0344
  105SAPE  C31010792   4.192   4.368   3.710  0.0490  0.0391  0.8149
  105SAPE  H10X10793   4.148   4.469   3.692  0.1801 -0.3421 -2.1419
  105SAPE  H10Y10794   4.299   4.396   3.699  1.2526 -4.4051 -0.8979
  105SAPE  C31110795   4.163   4.299   3.839  0.5716  0.2750  0.4037
  105SAPE  H11X10796   4.216   4.203   3.855  1.0647  1.0038  4.2859
  105SAPE  H11Y10797   4.058   4.261   3.842  0.6510 -0.0644 -0.8430
  105SAPE  C31210798   4.189   4.378   3.968 -0.4125 -0.2851 -0.3364
  105SAPE  H12X10799   4.296   4.403   3.985  0.1121 -2.1672 -0.6137
  105SAPE  H12Y10800   4.149   4.317   4.053  2.6356 -1.8014  0.1418
  105SAPE  C31310801   4.105   4.511   3.970  0.3097  0.2780  0.7214
  105SAPE  H13X10802   4.016   4.492   3.906  1.6225  1.6029 -1.6080
  105SAPE  H13Y10803   4.164   4.597   3.932  0.0556 -0.5749 -1.8358
  105SAPE  C31410804   4.069   4.550   4.111  0.1606 -0.1377  0.4248
  105SAPE  H14X10805   4.159   4.536   4.175 -0.1653 -2.3200  0.4734
  105SAPE  H14Y10806   3.997   4.476   4.152 -0.5341  1.6196  2.5938
  105SAPE  C31510807   4.011   4.697   4.121 -0.3565  0.2659  0.0852
  105SAPE  H15X10808   3.914   4.689   4.175 -0.0476  1.9216  0.9365
  105SAPE  H15Y10809   4.001   4.739   4.018 -1.3104  0.9330  0.4385
  105SAPE  C31610810   4.092   4.798   4.209 -0.5027 -0.2937  1.4721
  105SAPE  H16X10811   4.197   4.783   4.178 -0.9766  0.0691 -0.4551
  105SAPE  H16Y10812   4.074   4.783   4.317 -2.1150 -0.4355  1.2120
  105SAPE  C31710813   4.043   4.946   4.172 -0.2456 -0.1433  0.1345
  105SAPE  H17X10814   3.934   4.946   4.193 -0.6032  2.3936 -1.2947
  105SAPE  H17Y10815   4.053   4.972   4.064  1.3316  0.1510  0.3213
  105SAPE  C31810816   4.101   5.052   4.259  0.2549 -0.2091 -0.8863
  105SAPE  H18X10817   4.096   5.023   4.367 -2.1419  0.6838 -0.7143
  105SAPE  H18Y10818   4.056   5.153   4.253  0.8022  0.0744 -0.4164
  105SAPE  H18Z10819   4.210   5.062   4.240  1.1521  0.5202  3.4726
  106SAPE     N10820   5.327   4.883   1.867  0.0216 -0.4146  0.4955
  106SAPE   HN110821   5.423   4.867   1.903  0.0063 -1.0154  0.2808
  106SAPE   HN210822   5.320   4.800   1.805  2.7945 -0.4682  0.1183
  106SAPE   HN310823   5.319   4.977   1.821 -0.2185 -0.3308  0.7053
  106SAPE   C1210824   5.219   4.891   1.970 -0.6472  0.3288 -0.2475
  106SAPE  H12A10825   5.224   4.792   2.018 -1.5076  0.7532  0.7549
  106SAPE  H12B10826   5.119   4.915   1.927  0.0068  1.0650 -1.4010
  106SAPE   C1110827   5.260   4.991   2.068 -0.0266 -0.8516  0.1320
  106SAPE  H11A10828   5.333   4.934   2.129  0.6661  0.8354  0.9415
  106SAPE  H11B10829   5.175   5.007   2.137  0.4775  0.2347  0.5169
  106SAPE     P10830   5.291   5.249   2.065 -0.0559  0.0041 -0.0778
  106SAPE   O1310831   5.370   5.350   1.989  0.4006 -1.0367  0.1570
  106SAPE   O1410832   5.148   5.261   2.075  0.6346 -0.1032  0.0405
  106SAPE   O1210833   5.323   5.107   2.010  0.0823  0.4251 -0.2159
  106SAPE   O1110834   5.351   5.256   2.208 -0.2645  0.2579  1.0163
  106SAPE    C110835   5.494   5.236   2.231  0.2747  0.5850  0.3866
  106SAPE    HA10836   5.514   5.127   2.242  0.2006  0.4189 -1.0242
  106SAPE    HB10837   5.558   5.271   2.148  1.6767  2.5060  2.1543
  106SAPE    C210838   5.543   5.312   2.358 -0.1793 -0.3771  0.5023
  106SAPE    HS10839   5.653   5.314   2.342 -0.2448  1.4811  0.0399
  106SAPE   O2110840   5.506   5.245   2.477 -0.3331  0.5229  0.1592
  106SAPE   C2110841   5.566   5.131   2.499  0.9460 -0.4942  0.0680
  106SAPE   O2210842   5.659   5.085   2.434  0.0348 -0.8880 -0.4539
  106SAPE   C2210843   5.500   5.070   2.623  0.3594 -0.9135 -0.5083
  106SAPE   H2R10844   5.454   5.150   2.684 -0.2823 -0.3639 -1.6703
  106SAPE   H2S10845   5.417   5.004   2.589  0.6922 -0.7411 -1.7269
  106SAPE    C310846   5.489   5.465   2.362 -0.6245  0.3830 -0.4288
  106SAPE    HX10847   5.383   5.461   2.329 -1.0739 -1.4524  1.0482
  106SAPE    HY10848   5.545   5.513   2.279 -0.6223 -0.5093 -0.9643
  106SAPE   O3110849   5.524   5.529   2.488 -0.0797  0.2329  0.9557
  106SAPE   C3110850   5.435   5.513   2.580 -0.2318 -0.2567  0.6920
  106SAPE   O3210851   5.315   5.483   2.569  0.0843  0.1964 -0.1786
  106SAPE   C3210852   5.499   5.520   2.714 -0.4141  0.5264 -0.0325
  106SAPE   H2X10853   5.575   5.600   2.723  2.2471 -1.5293 -2.3052
  106SAPE   H2Y10854   5.570   5.435   2.722 -0.7484 -0.3367 -4.0771
  106SAPE   C2310855   5.585   4.977   2.701  0.0918 -0.2117 -0.4438
  106SAPE   H3R10856   5.677   5.031   2.732 -1.4038  2.8116 -0.8824
  106SAPE   H3S10857   5.608   4.884   2.645  0.7221  0.0950 -0.6975
  106SAPE   C2410858   5.495   4.928   2.815  0.5532  0.5252 -0.2457
  106SAPE   H4R10859   5.400   4.887   2.773  1.1596 -0.4515 -0.6951
  106SAPE   H4S10860   5.481   5.016   2.881 -0.4331 -1.4578  2.3457
  106SAPE   C2510861   5.555   4.819   2.895 -0.7599  0.5567  0.2420
  106SAPE   H5R10862   5.561   4.726   2.836 -0.5577  0.3463  0.5933
  106SAPE   C2610863   5.610   4.806   3.015  0.2383 -0.7235 -0.0610
  106SAPE   H6R10864   5.652   4.706   3.033 -0.9916 -1.1545  0.5666
  106SAPE   C2710865   5.606   4.907   3.129 -0.0429  0.0788 -1.0573
  106SAPE   H7R10866   5.639   5.006   3.091  0.9632  0.2651  0.2365
  106SAPE   H7S10867   5.681   4.872   3.204 -0.5124  0.4970 -0.3855
  106SAPE   C2810868   5.475   4.924   3.212  0.4005  0.3137 -0.3697
  106SAPE   H8R10869   5.384   4.910   3.153  1.0636 -0.2970 -1.2655
  106SAPE   C2910870   5.469   4.938   3.343  0.1128 -0.2763 -0.1152
  106SAPE   H9R10871   5.370   4.953   3.390  1.2169  1.2481  1.8545
  106SAPE  C21010872   5.590   4.957   3.435 -0.0992  0.0786  0.4670
  106SAPE  H10R10873   5.552   5.042   3.497  5.2009  2.6167  0.7828
  106SAPE  H10S10874   5.679   4.990   3.378 -1.6090  1.3513 -1.2600
  106SAPE  C21110875   5.640   4.839   3.522  0.6608 -0.0088 -0.1340
  106SAPE  H11R10876   5.648   4.747   3.462 -1.7674  0.0228 -0.6341
  106SAPE  C21210877   5.681   4.847   3.651  0.2545 -0.2592  1.0510
  106SAPE  H12R10878   5.749   4.768   3.686  3.3536  2.2818  1.2514
  106SAPE  C21310879   5.672   4.964   3.750 -0.9029  0.2365 -0.1122
  106SAPE  H13R10880   5.634   5.052   3.693 -2.0457  0.5097  1.0086
  106SAPE  H13S10881   5.772   4.989   3.791 -0.5612  0.0074 -0.7963
  106SAPE  C21410882   5.570   4.939   3.861 -0.3149 -0.2523 -0.0680
  106SAPE  H14R10883   5.470   4.982   3.844  0.7794  3.1526  1.1650
  106SAPE  C21510884   5.587   4.885   3.982  0.4549 -0.9230 -0.2629
  106SAPE  H15R10885   5.499   4.877   4.047 -0.3847 -1.2238 -1.4064
  106SAPE  C21610886   5.713   4.816   4.028 -0.1627  0.7470 -0.0146
  106SAPE  H16R10887   5.777   4.899   4.065 -2.7269  2.4243  0.9404
  106SAPE  H16S10888   5.768   4.762   3.948 -0.2519 -0.8777  0.9784
  106SAPE  C21710889   5.694   4.701   4.130  0.0916 -0.0241 -0.4991
  106SAPE  H17R10890   5.787   4.643   4.147  2.0010  2.6482 -1.3969
  106SAPE  H17S10891   5.613   4.633   4.093 -0.8231  0.4327  0.6022
  106SAPE  C21810892   5.642   4.739   4.270 -0.1135  0.0028  0.2595
  106SAPE  H18R10893   5.562   4.815   4.256 -1.5014 -1.0356  2.1354
  106SAPE  H18S10894   5.727   4.787   4.323  0.2183 -1.6813  1.3121
  106SAPE  C21910895   5.580   4.629   4.349 -0.0385 -0.1587  0.0838
  106SAPE  H19R10896   5.655   4.551   4.374 -0.9080 -0.4073  2.0906
  106SAPE  H19S10897   5.491   4.593   4.294 -0.1862  1.6961 -0.9584
  106SAPE  C22010898   5.527   4.673   4.482  0.0698  0.2808 -0.1329
  106SAPE  H20R10899   5.441   4.740   4.466  0.4731  0.7770 -0.2455
  106SAPE  H20S10900   5.588   4.736   4.550 -2.3233  2.8649 -0.1927
  106SAPE  H20T10901   5.481   4.591   4.540  1.4772 -0.7844 -0.4598
  106SAPE   C3310902   5.402   5.512   2.832  0.0718  0.2821  0.6346
  106SAPE   H3X10903   5.298   5.484   2.806  0.0040 -0.2024  1.4011
  106SAPE   H3Y10904   5.404   5.611   2.881  1.7817  0.9688 -0.6931
  106SAPE   C3410905   5.440   5.412   2.942  0.1925  0.4177 -1.1512
  106SAPE   H4X10906   5.543   5.440   2.976 -0.9039  1.0659  2.0404
  106SAPE   H4Y10907   5.440   5.310   2.900  0.6892 -1.5129  3.0103
  106SAPE   C3510908   5.353   5.411   3.074  0.0179 -0.5537  0.3377
  106SAPE   H5X10909   5.259   5.353   3.063  0.3863 -1.0564 -0.2324
  106SAPE   H5Y10910   5.314   5.511   3.100 -2.3924 -0.7851 -2.0532
  106SAPE   C3610911   5.431   5.361   3.195  0.0069  0.2989 -0.4061
  106SAPE   H6X10912   5.519   5.427   3.212 -1.6434  2.2353  1.2358
  106SAPE   H6Y10913   5.475   5.260   3.185  0.4571  0.4772 -0.2755
  106SAPE   C3710914   5.350   5.359   3.326  0.0354 -0.5960  0.0880
  106SAPE   H7X10915   5.283   5.270   3.329  0.6561 -1.1096 -0.8336
  106SAPE   H7Y10916   5.277   5.442   3.313  1.3601  0.5760 -0.1094
  106SAPE   C3810917   5.434   5.363   3.454  0.1908 -0.3021 -0.0839
  106SAPE   H8X10918   5.496   5.455   3.450  0.1215 -0.2741 -0.5912
  106SAPE   H8Y10919   5.511   5.283   3.464  1.6021  0.9861 -0.2643
  106SAPE   C3910920   5.353   5.363   3.583  0.7182  0.6100  0.1131
  106SAPE   H9X10921   5.258   5.413   3.554  0.1581  0.4585  1.6220
  106SAPE   H9Y10922   5.408   5.428   3.653  0.6657  1.1215 -0.3150
  106SAPE  C31010923   5.346   5.220   3.647  0.7827  0.5898  0.3993
  106SAPE  H10X10924   5.450   5.186   3.659  0.2492 -0.9545  0.8734
  106SAPE  H10Y10925   5.307   5.146   3.574  0.6102  0.6486  0.4302
  106SAPE  C31110926   5.284   5.219   3.789  1.0132  0.0367  0.8464
  106SAPE  H11X10927   5.248   5.116   3.809 -4.5748  1.8010  1.4129
  106SAPE  H11Y10928   5.196   5.287   3.792  1.1680  0.3541 -0.7135
  106SAPE  C31210929   5.385   5.262   3.899 -0.0698  0.1829 -0.5335
  106SAPE  H12X10930   5.381   5.373   3.901 -0.5963  0.1549  1.4241
  106SAPE  H12Y10931   5.489   5.235   3.870  0.1194 -0.9266  1.0570
  106SAPE  C31310932   5.343   5.217   4.042 -0.7886  0.4608 -1.0749
  106SAPE  H13X10933   5.333   5.106   4.037  0.1837  0.3335 -0.4093
  106SAPE  H13Y10934   5.237   5.246   4.059 -1.2731 -0.4520 -2.3397
  106SAPE  C31410935   5.441   5.269   4.147  0.0839 -0.0618 -0.9878
  106SAPE  H14X10936   5.436   5.379   4.133  1.6214  0.2242  0.3873
  106SAPE  H14Y10937   5.546   5.243   4.119  0.3749 -0.9632  0.8090
  106SAPE  C31510938   5.421   5.233   4.295 -0.3643  0.0781 -0.2503
  106SAPE  H15X10939   5.322   5.272   4.327 -1.2692 -2.2070 -0.0178
  106SAPE  H15Y10940   5.504   5.268   4.360 -1.5789 -0.0877  1.4599
  106SAPE  C31610941   5.425   5.081   4.321  0.0440  0.2888  0.7859
  106SAPE  H16X10942   5.502   5.021   4.268  0.6531 -0.0863  2.0436
  106SAPE  H16Y10943   5.329   5.038   4.287  2.1320 -4.1477 -0.2511
  106SAPE  C31710944   5.437   5.057   4.476  0.5038  0.0668  0.0459
  106SAPE  H17X10945   5.388   4.960   4.496 -1.6163  1.5599  2.6695
  106SAPE  H17Y10946   5.389   5.135   4.539  1.4638  0.6864  0.0495
  106SAPE  C31810947   5.579   5.038   4.517  0.4877  0.3884  0.2650
  106SAPE  H18X10948   5.637   5.121   4.472  1.4232 -1.2235 -1.6762
  106SAPE  H18Y10949   5.626   4.942   4.487  1.2936  0.9236 -0.2476
  106SAPE  H18Z10950   5.572   5.053   4.627 -0.0435  0.5694  0.2088
  107SAPE     N10951   1.969   3.053   2.552 -0.3010  0.0937 -0.2660
  107SAPE   HN110952   1.917   3.140   2.574  0.8803  0.8347 -0.2641
  107SAPE   HN210953   2.071   3.074   2.541  0.0004 -2.2440 -3.0191
  107SAPE   HN310954   1.937   3.009   2.463  0.6354 -1.1116 -0.0269
  107SAPE   C1210955   1.941   2.958   2.662 -0.5511  0.2777  0.2274
  107SAPE  H12A10956   2.021   2.967   2.738  0.0292 -2.3820  0.0239
  107SAPE  H12B10957   1.952   2.856   2.620  0.4617  0.3185  0.3767
  107SAPE   C1110958   1.807   2.997   2.726 -0.3833 -0.2527 -0.4296
  107SAPE  H11A10959   1.817   3.093   2.782 -1.8809 -0.9042  1.0514
  107SAPE  H11B10960   1.787   2.932   2.814  1.1318 -0.1303  0.0247
  107SAPE     P10961   1.636   2.863   2.589  0.1494  0.3346  0.4401
  107SAPE   O1310962   1.514   2.902   2.511  0.1182  0.2289  0.2764
  107SAPE   O1410963   1.740   2.775   2.527  0.3165  0.4755  0.2670
  107SAPE   O1210964   1.707   3.002   2.627  0.3230 -0.8809  0.4570
  107SAPE   O1110965   1.583   2.815   2.733 -0.3159  0.1983  0.1330
  107SAPE    C110966   1.447   2.854   2.768  0.6879  0.1796 -0.2199
  107SAPE    HA10967   1.373   2.828   2.689  0.5067  0.0353 -0.0007
  107SAPE    HB10968   1.421   2.796   2.859  0.9486  1.7211  0.8765
  107SAPE    C210969   1.432   3.010   2.794  0.4048  0.3781  0.1213
  107SAPE    HS10970   1.429   3.060   2.695  1.5545  0.2201 -0.0029
  107SAPE   O2110971   1.543   3.065   2.873 -0.0961 -0.0056 -0.7715
  107SAPE   C2110972   1.549   3.192   2.880 -1.1120  0.0257 -0.0291
  107SAPE   O2210973   1.486   3.275   2.811  0.0595  0.1029  0.5043
  107SAPE   C2210974   1.644   3.232   2.997 -0.3201  0.9105  0.5194
  107SAPE   H2R10975   1.590   3.260   3.089  1.2273  0.5146  1.5832
  107SAPE   H2S10976   1.708   3.144   3.020  1.5517  1.9475 -0.4672
  107SAPE    C310977   1.283   3.041   2.849 -0.0088  0.0401  0.0398
  107SAPE    HX10978   1.217   2.994   2.774  0.5939 -1.1807  0.2576
  107SAPE    HY10979   1.266   3.150   2.835 -2.3038 -0.3553 -0.6124
  107SAPE   O3110980   1.261   2.998   2.985  0.5197  0.3387  0.0731
  107SAPE   C3110981   1.257   3.083   3.075  0.4434  0.7568  0.2098
  107SAPE   O3210982   1.259   3.202   3.063 -0.0718  0.0729  0.3067
  107SAPE   C3210983   1.263   3.012   3.214  1.1464  0.1629 -0.5216
  107SAPE   H2X10984   1.292   2.906   3.201  3.6262  0.3613  2.2791
  107SAPE   H2Y10985   1.167   3.013   3.269  0.7234 -1.4335 -1.1968
  107SAPE   C2310986   1.749   3.346   2.964  0.1828 -0.2736 -0.1537
  107SAPE   H3R10987   1.687   3.438   2.954 -0.2779 -0.4815  0.6767
  107SAPE   H3S10988   1.797   3.338   2.864  0.3902  1.2920 -0.2121
  107SAPE   C2410989   1.858   3.365   3.079 -0.2712  0.0139  0.2663
  107SAPE   H4R10990   1.798   3.366   3.173 -0.2080  1.0347  0.3086
  107SAPE   H4S10991   1.891   3.471   3.080 -4.3758  1.5119 -1.1012
  107SAPE   C2510992   1.957   3.250   3.078  0.3738  0.6021  0.5103
  107SAPE   H5R10993   2.012   3.252   2.983  1.5058  0.7194  1.1478
  107SAPE   C2610994   1.983   3.160   3.173 -0.2542 -0.1967 -0.1882
  107SAPE   H6R10995   2.056   3.081   3.147  1.5449  1.3876 -0.2049
  107SAPE   C2710996   1.903   3.155   3.302  0.2684 -0.1621 -0.1362
  107SAPE   H7R10997   1.912   3.054   3.347  2.7269 -0.4384 -1.0813
  107SAPE   H7S10998   1.799   3.175   3.267 -1.0775  0.2999  3.6683
  107SAPE   C2810999   1.935   3.259   3.408  0.3301  0.6383  0.8237
  107SAPE   H8R11000   2.035   3.305   3.409  0.8131 -0.3757  1.2910
  107SAPE   C2911001   1.850   3.300   3.504  0.6192  0.0810 -0.0185
  107SAPE   H9R11002   1.882   3.383   3.569 -1.9981  0.4479  0.9217
  107SAPE  C21011003   1.711   3.252   3.525  0.2219 -0.2628 -0.1579
  107SAPE  H10R11004   1.711   3.143   3.504  2.4973 -0.1732 -0.9120
  107SAPE  H10S11005   1.639   3.297   3.453 -0.1667 -2.3643 -1.1373
  107SAPE  C21111006   1.657   3.264   3.667 -0.1651  0.1483 -0.2725
  107SAPE  H11R11007   1.586   3.348   3.671  0.8524  0.9911  1.4708
  107SAPE  C21211008   1.674   3.186   3.780  0.2378  0.6491  0.1797
  107SAPE  H12R11009   1.624   3.209   3.875  1.8465 -0.5891  1.3776
  107SAPE  C21311010   1.767   3.069   3.791 -0.4247  0.7061 -0.1222
  107SAPE  H13R11011   1.745   3.002   3.705  0.0094  0.1068  0.2342
  107SAPE  H13S11012   1.740   3.008   3.879  3.5381  0.1016  0.8511
  107SAPE  C21411013   1.916   3.087   3.797 -0.1886 -0.0586 -0.5501
  107SAPE  H14R11014   1.957   3.144   3.712  3.2617 -0.0001  0.9879
  107SAPE  C21511015   2.001   3.071   3.897 -0.2330  0.3830 -0.1115
  107SAPE  H15R11016   2.097   3.121   3.878  0.8274 -1.0454  1.2440
  107SAPE  C21611017   1.985   3.003   4.029 -0.6617 -0.4381  0.0780
  107SAPE  H16R11018   2.064   2.927   4.048 -2.7559 -2.1234  2.8195
  107SAPE  H16S11019   1.888   2.952   4.045 -0.2747 -1.2786 -0.2226
  107SAPE  C21711020   2.006   3.103   4.147  0.1073 -0.4250 -0.6568
  107SAPE  H17R11021   2.105   3.154   4.149 -1.2726  2.4320  0.0082
  107SAPE  H17S11022   2.009   3.042   4.240  0.4503  1.9661  1.0010
  107SAPE  C21811023   1.900   3.213   4.170 -0.3232  0.1037  0.5317
  107SAPE  H18R11024   1.805   3.182   4.121  0.1458  0.7836 -0.8674
  107SAPE  H18S11025   1.923   3.313   4.126  1.3861 -0.5493 -0.1852
  107SAPE  C21911026   1.875   3.246   4.312  0.5988  0.0089  0.2196
  107SAPE  H19R11027   1.893   3.170   4.391  0.8611 -0.6479 -0.4636
  107SAPE  H19S11028   1.769   3.274   4.325  0.0941 -1.2451 -0.9506
  107SAPE  C22011029   1.961   3.366   4.358 -0.4294  0.1178  0.1289
  107SAPE  H20R11030   1.967   3.374   4.469 -0.8823 -0.7148  0.2165
  107SAPE  H20S11031   1.927   3.457   4.304  2.6328  0.3690 -1.6165
  107SAPE  H20T11032   2.063   3.345   4.321 -0.9763  0.3679 -1.6271
  107SAPE   C3311033   1.380   3.071   3.295 -0.3154 -0.4775  0.6774
  107SAPE   H3X11034   1.349   3.177   3.309 -2.6036 -1.1561  1.2082
  107SAPE   H3Y11035   1.484   3.060   3.257 -0.5496  0.2043 -0.2119
  107SAPE   C3411036   1.388   3.007   3.437 -0.2546 -0.9191  0.0562
  107SAPE   H4X11037   1.491   3.035   3.467 -1.2695  4.7340 -0.7260
  107SAPE   H4Y11038   1.367   2.898   3.438 -0.0014 -0.9709 -0.2002
  107SAPE   C3511039   1.300   3.075   3.541 -0.4208 -0.0084 -0.3804
  107SAPE   H5X11040   1.194   3.058   3.513 -1.2940  1.1003  1.9476
  107SAPE   H5Y11041   1.314   3.185   3.543  0.2023 -0.0876  0.3560
  107SAPE   C3611042   1.318   3.011   3.677 -0.4538 -0.5765 -0.7380
  107SAPE   H6X11043   1.421   3.021   3.717 -1.0539  1.3249  0.4562
  107SAPE   H6Y11044   1.277   2.909   3.686 -1.4183 -0.0367  2.4509
  107SAPE   C3711045   1.234   3.087   3.790  0.1047 -0.2843 -0.0938
  107SAPE   H7X11046   1.129   3.054   3.805 -0.4050  1.7600  1.3357
  107SAPE   H7Y11047   1.229   3.195   3.767  0.8704 -0.1115  0.4883
  107SAPE   C3811048   1.302   3.080   3.931  0.7036 -0.0419  0.9204
  107SAPE   H8X11049   1.402   3.127   3.920  1.0233 -1.2221 -2.4891
  107SAPE   H8Y11050   1.333   2.974   3.950 -0.5585 -0.3462  1.3650
  107SAPE   C3911051   1.223   3.139   4.047 -0.4173  0.4393 -0.2399
  107SAPE   H9X11052   1.139   3.070   4.068 -1.1216  0.3963 -2.8650
  107SAPE   H9Y11053   1.189   3.241   4.019  3.6418  2.2595  0.7607
  107SAPE  C31011054   1.289   3.168   4.184  0.2266  0.4546  0.0124
  107SAPE  H10X11055   1.343   3.080   4.224 -1.6685  0.3790  2.6362
  107SAPE  H10Y11056   1.227   3.207   4.267  1.4696 -0.3271  1.3364
  107SAPE  C31111057   1.411   3.259   4.171  0.1105 -0.0664 -0.2999
  107SAPE  H11X11058   1.489   3.214   4.106  0.1899 -1.6966  0.8639
  107SAPE  H11Y11059   1.458   3.262   4.271 -0.3071 -0.1194 -0.0970
  107SAPE  C31211060   1.369   3.404   4.132  0.7135  0.2839 -0.3248
  107SAPE  H12X11061   1.308   3.446   4.215 -0.7373 -0.7639 -0.8146
  107SAPE  H12Y11062   1.307   3.405   4.039  1.4565  0.7119 -0.8222
  107SAPE  C31311063   1.490   3.490   4.114  0.0027  0.6603 -0.5094
  107SAPE  H13X11064   1.540   3.505   4.212 -0.7409 -2.3035  0.4020
  107SAPE  H13Y11065   1.456   3.588   4.072 -0.6822  1.1121  1.0451
  107SAPE  C31411066   1.595   3.442   4.020 -0.0863  0.6241  0.9104
  107SAPE  H14X11067   1.564   3.435   3.914  0.4515 -3.4446  0.8414
  107SAPE  H14Y11068   1.626   3.336   4.038 -0.0313  0.6229  0.8121
  107SAPE  C31511069   1.724   3.525   4.033  0.3821  0.6884  0.3144
  107SAPE  H15X11070   1.764   3.508   4.135 -0.8264 -2.0303  0.4319
  107SAPE  H15Y11071   1.693   3.629   4.012  0.9794  0.7954 -0.0630
  107SAPE  C31611072   1.834   3.482   3.932  0.5260 -0.3444  0.3410
  107SAPE  H16X11073   1.788   3.505   3.834 -1.6389  3.2981  2.0138
  107SAPE  H16Y11074   1.850   3.372   3.941  1.9959 -0.2084 -0.3231
  107SAPE  C31711075   1.966   3.549   3.956  0.1031  0.0150 -0.3633
  107SAPE  H17X11076   2.008   3.513   4.052 -1.0679  0.5213  0.3518
  107SAPE  H17Y11077   1.946   3.658   3.970 -1.2202 -0.3807  1.0789
  107SAPE  C31811078   2.072   3.536   3.840  0.7933 -0.3886 -0.1330
  107SAPE  H18X11079   2.088   3.429   3.813 -0.2445 -0.6935  0.3981
  107SAPE  H18Y11080   2.169   3.585   3.862 -0.1617  1.3738  0.3764
  107SAPE  H18Z11081   2.032   3.586   3.749  1.4376 -1.0117 -0.7679
  108SAPE     N11082   3.309   4.850   1.796  0.8255  0.5096 -0.8614
  108SAPE   HN111083   3.303   4.938   1.741 -0.2830  1.5645  0.8419
  108SAPE   HN211084   3.372   4.859   1.878 -1.4945  1.1821  0.9701
  108SAPE   HN311085   3.366   4.785   1.739 -0.9276 -1.0687 -0.9522
  108SAPE   C1211086   3.179   4.792   1.857 -0.3940  0.4896  0.1710
  108SAPE  H12A11087   3.208   4.691   1.893 -0.2596  0.3557 -0.3092
  108SAPE  H12B11088   3.108   4.778   1.773 -0.3986  1.0057  0.0855
  108SAPE   C1111089   3.127   4.875   1.974 -0.1444  0.2739  0.1295
  108SAPE  H11A11090   3.031   4.832   2.010 -1.2163  1.4237 -1.2356
  108SAPE  H11B11091   3.103   4.977   1.937 -0.5924 -0.5858 -2.0674
  108SAPE     P11092   3.242   5.002   2.168 -0.0927 -0.0030  0.3565
  108SAPE   O1311093   3.373   4.994   2.242  0.2384 -0.1038  0.2134
  108SAPE   O1411094   3.216   5.125   2.087 -0.3057  0.0080 -0.0023
  108SAPE   O1211095   3.235   4.876   2.070 -0.3071 -0.6002  0.5381
  108SAPE   O1111096   3.137   4.979   2.284 -0.2371  0.1840  0.3061
  108SAPE    C111097   3.141   4.864   2.368  0.1808  0.7273 -0.7900
  108SAPE    HA11098   3.238   4.810   2.369 -0.5075 -0.5431 -0.7236
  108SAPE    HB11099   3.098   4.879   2.470 -1.4674 -1.6646 -1.0510
  108SAPE    C211100   3.047   4.756   2.306  0.3853  0.9582  0.8442
  108SAPE    HS11101   3.084   4.724   2.206  2.3820  1.8052  1.2744
  108SAPE   O2111102   2.918   4.804   2.313 -0.3454  0.2094  1.1352
  108SAPE   C2111103   2.825   4.740   2.252  0.7044  0.1443 -0.0160
  108SAPE   O2211104   2.841   4.637   2.183 -0.9151 -0.2038 -0.3546
  108SAPE   C2211105   2.684   4.802   2.287  0.6358  0.0377 -0.1110
  108SAPE   H2R11106   2.703   4.910   2.306 -0.2605  0.3302 -0.8144
  108SAPE   H2S11107   2.612   4.794   2.203 -2.0984  0.6452  2.0121
  108SAPE    C311108   3.055   4.625   2.396  0.0404  0.3251 -0.3110
  108SAPE    HX11109   3.144   4.569   2.361 -1.2503 -1.4437 -0.9344
  108SAPE    HY11110   2.972   4.558   2.364  0.0267  1.1652 -2.1850
  108SAPE   O3111111   3.066   4.648   2.532  0.3378 -0.8063 -0.1372
  108SAPE   C3111112   2.977   4.594   2.611  0.4337  0.1486 -0.4197
  108SAPE   O3211113   2.883   4.520   2.580 -0.9428 -0.5492 -0.0995
  108SAPE   C3211114   3.012   4.624   2.759  0.6247  0.2282  0.0373
  108SAPE   H2X11115   3.079   4.711   2.768 -0.7571  1.1573  2.3586
  108SAPE   H2Y11116   3.072   4.536   2.791  0.0101  0.0321  0.6934
  108SAPE   C2311117   2.625   4.731   2.416 -0.1805 -0.5138  0.4857
  108SAPE   H3R11118   2.704   4.731   2.494 -0.6554  0.2682  0.9874
  108SAPE   H3S11119   2.592   4.626   2.399  0.7582 -0.6498 -0.6115
  108SAPE   C2411120   2.518   4.819   2.469 -0.8727 -0.4988 -0.2331
  108SAPE   H4R11121   2.566   4.919   2.477  1.3392 -1.4578 -0.7002
  108SAPE   H4S11122   2.494   4.794   2.574 -0.9208  0.2989 -0.0462
  108SAPE   C2511123   2.405   4.809   2.381  0.4633  0.2740 -0.2975
  108SAPE   H5R11124   2.432   4.807   2.274 -2.9053  0.9791 -1.2870
  108SAPE   C2611125   2.279   4.818   2.422 -0.6984 -0.4171 -0.2425
  108SAPE   H6R11126   2.197   4.824   2.348 -0.0929  3.0252 -0.8268
  108SAPE   C2711127   2.232   4.826   2.565 -0.1761  0.8556 -0.1105
  108SAPE   H7R11128   2.293   4.752   2.621 -2.0228 -1.3743 -0.8852
  108SAPE   H7S11129   2.129   4.784   2.570  0.7594 -1.9962 -1.8569
  108SAPE   C2811130   2.237   4.965   2.622  0.0416  0.4138  0.5150
  108SAPE   H8R11131   2.240   5.044   2.546 -0.5623  1.8284  1.9050
  108SAPE   C2911132   2.249   4.995   2.753 -0.0822 -0.1488  0.9389
  108SAPE   H9R11133   2.284   5.093   2.787 -0.0601  0.6249 -1.1634
  108SAPE  C21011134   2.252   4.883   2.852  0.0112 -0.0944 -0.0932
  108SAPE  H10R11135   2.350   4.832   2.845 -0.2521 -0.7884  1.1480
  108SAPE  H10S11136   2.172   4.813   2.819  0.9631 -0.5747 -1.4705
  108SAPE  C21111137   2.236   4.945   2.990  0.2542 -0.4288 -0.5194
  108SAPE  H11R11138   2.318   5.015   3.010  0.8965 -1.1641 -0.5522
  108SAPE  C21211139   2.149   4.932   3.090 -0.0331  0.7299  0.5270
  108SAPE  H12R11140   2.150   4.994   3.180 -1.8342 -0.2285  1.2626
  108SAPE  C21311141   2.029   4.839   3.085  0.8423  0.3537 -0.0815
  108SAPE  H13R11142   2.030   4.779   3.179 -1.5505  1.1598  0.5369
  108SAPE  H13S11143   2.014   4.768   3.000 -1.1551  0.0244  0.5033
  108SAPE  C21411144   1.893   4.910   3.101 -0.7237 -0.9242  0.3891
  108SAPE  H14R11145   1.848   4.920   3.002  2.6464 -1.5334 -1.3337
  108SAPE  C21511146   1.837   4.962   3.210  0.7748 -0.4926 -0.1644
  108SAPE  H15R11147   1.741   5.011   3.193  0.0061 -1.0021  2.2898
  108SAPE  C21611148   1.891   4.951   3.355 -0.3910 -0.5300  0.3857
  108SAPE  H16R11149   1.891   5.051   3.403  0.7462 -0.8288  1.0510
  108SAPE  H16S11150   1.995   4.914   3.354 -0.1239  0.2084 -0.3230
  108SAPE  C21711151   1.816   4.851   3.438  0.4322 -0.0351  0.4462
  108SAPE  H17R11152   1.815   4.763   3.370  3.6120 -0.6296  1.0154
  108SAPE  H17S11153   1.714   4.891   3.458  0.1150  0.3126 -1.6959
  108SAPE  C21811154   1.880   4.815   3.578  0.1440 -0.1150 -0.3249
  108SAPE  H18R11155   1.981   4.771   3.565  0.1919  0.0183 -0.4000
  108SAPE  H18S11156   1.825   4.726   3.616  0.7507 -0.5298 -0.4074
  108SAPE  C21911157   1.869   4.923   3.686 -0.2376 -0.1048  1.0841
  108SAPE  H19R11158   1.768   4.968   3.689 -0.9069 -1.4190 -0.3902
  108SAPE  H19S11159   1.943   5.000   3.652  0.1308 -1.4449 -1.3800
  108SAPE  C22011160   1.905   4.875   3.825  0.4501 -0.1145 -0.6936
  108SAPE  H20R11161   1.919   4.957   3.899  0.9835 -1.0856  0.3173
  108SAPE  H20S11162   2.008   4.831   3.825 -0.1090 -1.4673 -0.9909
  108SAPE  H20T11163   1.837   4.798   3.867  1.8845 -0.4952  1.0479
  108SAPE   C3311164   2.893   4.651   2.853  0.1935 -0.3825  0.7224
  108SAPE   H3X11165   2.813   4.575   2.846  1.2150 -1.5675  1.5267
  108SAPE   H3Y11166   2.836   4.738   2.814 -1.7470 -1.7231  0.4485
  108SAPE   C3411167   2.951   4.676   2.987 -0.0044 -0.4070 -0.4869
  108SAPE   H4X11168   2.987   4.782   2.992  0.2475 -0.5278  0.5899
  108SAPE   H4Y11169   3.043   4.620   3.016  0.2476  1.5753  3.1315
  108SAPE   C3511170   2.845   4.663   3.091 -0.2861  0.5843 -0.0461
  108SAPE   H5X11171   2.753   4.722   3.071 -1.2849 -0.8243  0.2430
  108SAPE   H5Y11172   2.817   4.555   3.090  0.6646  0.3089 -1.7878
  108SAPE   C3611173   2.907   4.711   3.223  0.4079 -0.4235  0.3999
  108SAPE   H6X11174   2.952   4.813   3.222 -1.5052  0.4570  0.5465
  108SAPE   H6Y11175   3.002   4.655   3.240  1.1443  0.5017 -0.5222
  108SAPE   C3711176   2.813   4.700   3.343  1.1396 -0.4607  1.0336
  108SAPE   H7X11177   2.762   4.601   3.337 -1.6723  0.9602 -1.9843
  108SAPE   H7Y11178   2.728   4.772   3.341  0.1518 -1.5982  0.7867
  108SAPE   C3811179   2.888   4.715   3.468 -0.2764  0.1130 -0.9388
  108SAPE   H8X11180   2.916   4.823   3.471 -1.7651  0.5111  0.0450
  108SAPE   H8Y11181   2.976   4.650   3.486 -0.1971  0.2632 -0.7766
  108SAPE   C3911182   2.793   4.681   3.584 -0.3418 -0.1194  0.9061
  108SAPE   H9X11183   2.734   4.596   3.544 -1.4600  1.5541 -1.2391
  108SAPE   H9Y11184   2.724   4.766   3.604  0.0221  0.4156 -0.0590
  108SAPE  C31011185   2.862   4.643   3.716 -0.4374  0.3372  0.5023
  108SAPE  H10X11186   2.930   4.722   3.756  0.0374 -0.4582  1.2908
  108SAPE  H10Y11187   2.924   4.555   3.691  1.9513  2.0632 -0.0099
  108SAPE  C31111188   2.758   4.618   3.836 -0.0997 -0.2318 -0.4095
  108SAPE  H11X11189   2.712   4.519   3.815  0.0578 -0.4453  0.2094
  108SAPE  H11Y11190   2.682   4.698   3.825  0.1775 -0.2130 -2.6121
  108SAPE  C31211191   2.814   4.605   3.978 -0.3568  0.2372 -0.0982
  108SAPE  H12X11192   2.878   4.694   4.000 -0.6254 -0.0783  2.1645
  108SAPE  H12Y11193   2.883   4.518   3.984  2.5119  2.3330 -0.3013
  108SAPE  C31311194   2.708   4.612   4.088 -0.1908  0.9084  0.7487
  108SAPE  H13X11195   2.654   4.515   4.078 -0.3981  1.2418 -1.9838
  108SAPE  H13Y11196   2.632   4.693   4.084 -1.8443 -0.5782  0.5583
  108SAPE  C31411197   2.781   4.628   4.221  0.0411 -0.0974  0.2370
  108SAPE  H14X11198   2.841   4.722   4.222 -2.8728  1.9532 -1.9685
  108SAPE  H14Y11199   2.862   4.552   4.220  1.4250  1.3027 -1.3351
  108SAPE  C31511200   2.697   4.614   4.343  0.1641  0.0900 -0.5850
  108SAPE  H15X11201   2.650   4.514   4.349 -0.4843  0.4218 -0.0888
  108SAPE  H15Y11202   2.626   4.696   4.322  0.7164  0.3103 -1.6901
  108SAPE  C31611203   2.765   4.639   4.478  0.2912  0.2401 -0.2870
  108SAPE  H16X11204   2.836   4.723   4.462  0.6916 -0.1780 -0.7398
  108SAPE  H16Y11205   2.817   4.545   4.506  3.1800  2.3160  1.9416
  108SAPE  C31711206   2.663   4.699   4.581 -0.9657 -0.2754 -0.4838
  108SAPE  H17X11207   2.565   4.647   4.571 -2.0900  1.9322 -1.7470
  108SAPE  H17Y11208   2.641   4.794   4.529 -1.3045 -0.3013 -0.3882
  108SAPE  C31811209   2.716   4.732   4.723 -0.4909  0.1959  0.4619
  108SAPE  H18X11210   2.758   4.651   4.785 -1.6848 -1.1334 -0.4149
  108SAPE  H18Y11211   2.642   4.779   4.791 -1.0476  0.1207 -0.0855
  108SAPE  H18Z11212   2.804   4.800   4.714 -0.0716 -0.4245 -0.2802
  109SAPE     N11213   3.136   2.598   1.967  0.4301  0.2036 -0.1067
  109SAPE   HN111214   3.069   2.522   1.992 -0.7891  1.4652  0.6491
  109SAPE   HN211215   3.097   2.635   1.878 -2.9687 -0.6868  0.8705
  109SAPE   HN311216   3.225   2.548   1.947  0.7797  1.6074 -2.4588
  109SAPE   C1211217   3.147   2.692   2.079 -0.7205 -0.1846  0.5133
  109SAPE  H12A11218   3.237   2.753   2.058 -0.8374 -0.0395  0.4348
  109SAPE  H12B11219   3.172   2.622   2.162  3.4041 -1.4608 -1.5537
  109SAPE   C1111220   3.021   2.776   2.094 -0.0146 -0.6606  0.7989
  109SAPE  H11A11221   2.995   2.835   2.004  1.5344  0.5915  1.1304
  109SAPE  H11B11222   3.037   2.849   2.177 -1.0351  0.5492 -0.0236
  109SAPE     P11223   2.861   2.649   2.259  0.0447 -0.0884  0.0094
  109SAPE   O1311224   2.715   2.643   2.252 -0.1938  0.6443  1.0732
  109SAPE   O1411225   2.935   2.524   2.285  0.0169  0.4685  0.1439
  109SAPE   O1211226   2.909   2.702   2.119  0.3835 -0.4695  0.4983
  109SAPE   O1111227   2.905   2.763   2.361 -0.0784 -0.0249  0.3874
  109SAPE    C111228   2.884   2.754   2.500 -0.7105 -0.6711  0.1199
  109SAPE    HA11229   2.891   2.853   2.549  1.9073 -1.4886  1.6344
  109SAPE    HB11230   2.783   2.713   2.524 -1.0461  0.2302  0.2868
  109SAPE    C211231   2.999   2.675   2.566  0.5916 -0.3353  0.4072
  109SAPE    HS11232   2.968   2.571   2.588  1.7505 -0.8332 -0.2832
  109SAPE   O2111233   3.023   2.746   2.689  0.4920 -0.2959  0.2817
  109SAPE   C2111234   2.934   2.743   2.779 -0.3209 -0.5022 -0.2039
  109SAPE   O2211235   2.820   2.699   2.772  0.5642 -0.1931  0.2974
  109SAPE   C2211236   2.983   2.806   2.912 -0.0204 -0.7321 -0.3741
  109SAPE   H2R11237   2.935   2.743   2.991 -0.1425 -0.3676 -0.1502
  109SAPE   H2S11238   3.093   2.811   2.899  0.2380 -0.2875  1.5514
  109SAPE    C311239   3.133   2.670   2.479  0.4213  0.7242  0.3593
  109SAPE    HX11240   3.151   2.776   2.454 -1.2373  1.4173  1.8169
  109SAPE    HY11241   3.109   2.597   2.398  2.5121 -2.6526  2.5077
  109SAPE   O3111242   3.239   2.615   2.555  0.7918 -0.4251 -0.6982
  109SAPE   C3111243   3.341   2.597   2.479 -0.1388  0.4884  1.1004
  109SAPE   O3211244   3.346   2.632   2.361 -0.6636  0.5416  0.0212
  109SAPE   C3211245   3.454   2.522   2.537  0.4147 -0.0593 -0.3196
  109SAPE   H2X11246   3.493   2.589   2.617 -0.3181  0.2458 -0.2096
  109SAPE   H2Y11247   3.526   2.496   2.457 -0.8420 -1.9457 -0.8920
  109SAPE   C2311248   2.949   2.956   2.932  0.0115 -0.4691 -0.6307
  109SAPE   H3R11249   2.884   2.996   2.850 -2.5384  1.3760  2.0898
  109SAPE   H3S11250   3.035   3.025   2.933 -0.4845  0.1750  1.5480
  109SAPE   C2411251   2.862   2.973   3.059  0.5652  0.5145 -0.2539
  109SAPE   H4R11252   2.770   2.912   3.050 -0.7617  2.3885 -0.1854
  109SAPE   H4S11253   2.828   3.079   3.055 -0.1811  0.2546 -3.3182
  109SAPE   C2511254   2.936   2.949   3.187 -0.0525  1.1387 -0.0206
  109SAPE   H5R11255   3.039   2.982   3.206  0.6482  1.0355 -3.1219
  109SAPE   C2611256   2.885   2.878   3.295  0.8927  0.3107  0.2748
  109SAPE   H6R11257   2.942   2.865   3.388 -0.4418  0.2373  1.0957
  109SAPE   C2711258   2.752   2.811   3.299  0.6453  0.4280 -0.2515
  109SAPE   H7R11259   2.772   2.728   3.371  1.6127  1.6758  0.9725
  109SAPE   H7S11260   2.724   2.762   3.204  1.3528  2.9289 -1.8457
  109SAPE   C2811261   2.639   2.900   3.346  0.1135 -0.3344 -0.1959
  109SAPE   H8R11262   2.644   3.003   3.308  0.7564 -0.3048 -0.0428
  109SAPE   C2911263   2.533   2.870   3.423 -0.0329  0.6972  0.1751
  109SAPE   H9R11264   2.474   2.954   3.462 -0.9774 -0.3180  0.9732
  109SAPE  C21011265   2.499   2.731   3.472  0.6051 -0.5440  0.2526
  109SAPE  H10R11266   2.577   2.661   3.434  1.3992  1.5888 -2.3973
  109SAPE  H10S11267   2.408   2.702   3.416 -0.2041 -1.4589  1.9769
  109SAPE  C21111268   2.472   2.730   3.621 -0.0362  0.5353 -0.3024
  109SAPE  H11R11269   2.556   2.755   3.687  0.5952  0.2882 -1.0055
  109SAPE  C21211270   2.364   2.687   3.685 -0.1219  0.8475  0.3858
  109SAPE  H12R11271   2.358   2.689   3.795 -2.5875 -2.7061  0.4869
  109SAPE  C21311272   2.245   2.630   3.607  0.4045 -0.3825 -0.7763
  109SAPE  H13R11273   2.239   2.520   3.619 -3.0100 -0.3831 -1.4695
  109SAPE  H13S11274   2.247   2.634   3.496 -2.5889  1.0101 -0.8775
  109SAPE  C21411275   2.119   2.693   3.662  1.0011  0.1754 -0.3078
  109SAPE  H14R11276   2.101   2.798   3.634 -1.9779 -0.1608 -0.0019
  109SAPE  C21511277   2.032   2.637   3.751  0.7517  0.3338  0.2227
  109SAPE  H15R11278   1.946   2.703   3.773  0.6953  0.9756 -1.7348
  109SAPE  C21611279   2.057   2.503   3.811  0.8165  0.2127  0.2558
  109SAPE  H16R11280   2.157   2.463   3.784  0.2818 -1.3747  0.5639
  109SAPE  H16S11281   1.980   2.429   3.780 -2.1266  1.9616  2.7835
  109SAPE  C21711282   2.061   2.492   3.961 -0.3070  0.7972 -0.7411
  109SAPE  H17R11283   2.109   2.580   4.009 -0.6271 -0.1285  1.3757
  109SAPE  H17S11284   2.113   2.400   3.996 -2.8683  0.0463  1.4014
  109SAPE  C21811285   1.913   2.473   4.015  1.3964  0.1585  0.1395
  109SAPE  H18R11286   1.866   2.383   3.971  0.1488 -0.6711  2.9218
  109SAPE  H18S11287   1.860   2.559   3.970  1.9267  0.2317 -0.3576
  109SAPE  C21911288   1.912   2.444   4.166 -0.2043 -0.2251  0.3106
  109SAPE  H19R11289   1.811   2.463   4.209 -0.2291  0.5574 -0.0858
  109SAPE  H19S11290   1.987   2.512   4.210 -1.1440  1.2427 -0.2910
  109SAPE  C22011291   1.929   2.295   4.200 -0.7396  0.0300 -0.1443
  109SAPE  H20R11292   2.036   2.266   4.199 -0.9098 -0.6138 -0.5474
  109SAPE  H20S11293   1.873   2.222   4.138  0.4467  0.0619 -1.3014
  109SAPE  H20T11294   1.909   2.289   4.309  1.7515  2.0120  0.5277
  109SAPE   C3311295   3.397   2.401   2.608 -0.7473  1.3299 -0.0593
  109SAPE   H3X11296   3.405   2.316   2.537 -2.0399 -0.7588  2.1145
  109SAPE   H3Y11297   3.293   2.405   2.647 -0.4707  0.4443  0.8344
  109SAPE   C3411298   3.477   2.363   2.734 -0.6443  0.0433  0.9053
  109SAPE   H4X11299   3.583   2.379   2.703 -0.7735  0.5538  0.7189
  109SAPE   H4Y11300   3.455   2.257   2.759  0.2071 -0.3181  0.2036
  109SAPE   C3511301   3.464   2.448   2.864  0.0030 -0.2627  0.0622
  109SAPE   H5X11302   3.455   2.554   2.834 -1.7781 -0.4478 -0.1935
  109SAPE   H5Y11303   3.555   2.425   2.924  1.1457 -0.7436 -1.7871
  109SAPE   C3611304   3.340   2.403   2.950  0.3458  0.7458 -0.2573
  109SAPE   H6X11305   3.322   2.298   2.979 -2.8816  1.2093 -0.2485
  109SAPE   H6Y11306   3.244   2.413   2.896 -0.2133  0.8722  0.7529
  109SAPE   C3711307   3.348   2.484   3.078  0.0924 -0.1828  0.2665
  109SAPE   H7X11308   3.449   2.488   3.125  0.4843 -0.9950 -0.4697
  109SAPE   H7Y11309   3.281   2.433   3.151 -1.1841  0.6670 -0.2879
  109SAPE   C3811310   3.314   2.633   3.067  0.7022 -0.3853  0.8190
  109SAPE   H8X11311   3.213   2.659   3.029  0.5282 -2.3882 -0.2256
  109SAPE   H8Y11312   3.395   2.684   3.010  1.0258  0.0068  1.6031
  109SAPE   C3911313   3.320   2.686   3.211  0.1928 -0.8262 -0.3671
  109SAPE   H9X11314   3.403   2.638   3.266 -0.5277  0.8963  2.4543
  109SAPE   H9Y11315   3.218   2.671   3.254  0.8225  1.1572  2.0853
  109SAPE  C31011316   3.336   2.842   3.206 -0.3757  0.4674  0.3394
  109SAPE  H10X11317   3.247   2.882   3.152 -0.5038 -1.3389 -0.8389
  109SAPE  H10Y11318   3.424   2.855   3.140 -2.5149  1.0494 -2.6089
  109SAPE  C31111319   3.364   2.916   3.334  0.4597 -0.2306  0.2822
  109SAPE  H11X11320   3.472   2.922   3.356  0.5468  0.0246 -0.1868
  109SAPE  H11Y11321   3.306   2.882   3.422  0.1781 -0.6807 -0.0736
  109SAPE  C31211322   3.317   3.067   3.319  0.0040 -0.4127  0.3456
  109SAPE  H12X11323   3.206   3.073   3.319 -0.1440 -1.1211 -2.9402
  109SAPE  H12Y11324   3.342   3.106   3.218  0.7595 -0.4395  0.5206
  109SAPE  C31311325   3.377   3.154   3.417  0.5225 -0.0867 -0.4815
  109SAPE  H13X11326   3.325   3.252   3.405 -1.1334 -0.8566  0.1057
  109SAPE  H13Y11327   3.484   3.178   3.403  0.9214 -0.7776  1.1788
  109SAPE  C31411328   3.365   3.106   3.565 -0.0708 -0.1713 -0.4654
  109SAPE  H14X11329   3.410   3.005   3.562 -1.1626 -0.6945  0.2289
  109SAPE  H14Y11330   3.257   3.093   3.587  0.3054 -2.3326  0.3828
  109SAPE  C31511331   3.447   3.195   3.655  0.1510  0.2466 -0.0721
  109SAPE  H15X11332   3.415   3.301   3.644 -0.1523 -0.0651 -3.0203
  109SAPE  H15Y11333   3.552   3.188   3.622 -0.3409 -0.6797 -1.5169
  109SAPE  C31611334   3.462   3.136   3.797  0.2568  0.5234  0.2982
  109SAPE  H16X11335   3.490   3.029   3.789 -1.3571  0.0329  0.8919
  109SAPE  H16Y11336   3.368   3.137   3.856 -0.3509  3.3053 -0.5899
  109SAPE  C31711337   3.558   3.218   3.883 -0.3764 -0.0712  0.3867
  109SAPE  H17X11338   3.551   3.329   3.879  2.7411  0.3356  2.3453
  109SAPE  H17Y11339   3.660   3.193   3.848 -0.4318 -1.4127  1.0991
  109SAPE  C31811340   3.540   3.191   4.029  0.0903  0.1177  0.1198
  109SAPE  H18X11341   3.623   3.235   4.089  0.5586 -0.0026 -0.4334
  109SAPE  H18Y11342   3.523   3.082   4.039  0.4941 -0.1134 -1.4670
  109SAPE  H18Z11343   3.448   3.246   4.059 -1.6853 -0.8040 -3.1619
  110SAPE     N11344   2.317   6.534   2.007  0.0374  0.5109  0.1678
  110SAPE   HN111345   2.388   6.536   1.931 -1.0056 -0.6688 -0.8842
  110SAPE   HN211346   2.292   6.435   2.023  0.3300  0.2204 -1.0447
  110SAPE   HN311347   2.229   6.569   1.965 -1.3084 -3.5885 -0.8176
  110SAPE   C1211348   2.353   6.600   2.139  0.5071  0.0370  0.6266
  110SAPE  H12A11349   2.277   6.577   2.216  0.1152 -0.7544  0.0122
  110SAPE  H12B11350   2.352   6.707   2.110  1.7869 -0.1077 -0.0526
  110SAPE   C1111351   2.499   6.562   2.182 -0.6117  0.4153  0.1633
  110SAPE  H11A11352   2.503   6.458   2.220  1.0460  1.1267  2.0840
  110SAPE  H11B11353   2.541   6.617   2.269 -0.5750  2.4017 -1.0535
  110SAPE     P11354   2.720   6.655   2.079 -0.1980  0.0877 -0.2307
  110SAPE   O1311355   2.816   6.633   1.963 -0.0606  0.4335 -0.1380
  110SAPE   O1411356   2.670   6.790   2.092  0.5470 -0.2605 -0.2211
  110SAPE   O1211357   2.593   6.557   2.068 -0.3715 -0.2857  0.0728
  110SAPE   O1111358   2.789   6.607   2.209 -0.4439 -0.2714  0.2268
  110SAPE    C111359   2.816   6.468   2.218 -0.0238 -0.0423  0.0001
  110SAPE    HA11360   2.725   6.406   2.207 -0.7138  1.3184 -3.1069
  110SAPE    HB11361   2.894   6.440   2.144 -0.7641  0.4227 -0.9642
  110SAPE    C211362   2.892   6.450   2.358  0.5326  0.1225  0.6005
  110SAPE    HS11363   2.926   6.346   2.382 -0.1807  0.3965  3.0955
  110SAPE   O2111364   2.806   6.495   2.467  0.0570  0.6423  0.1920
  110SAPE   C2111365   2.701   6.425   2.487 -0.2463 -0.2568  0.2674
  110SAPE   O2211366   2.669   6.321   2.429  0.2430 -0.4511  0.0443
  110SAPE   C2211367   2.637   6.492   2.610  0.2046  0.7885  0.6313
  110SAPE   H2R11368   2.615   6.599   2.589  1.2515  0.4040 -3.2123
  110SAPE   H2S11369   2.541   6.444   2.638  0.3033  0.0828 -0.1879
  110SAPE    C311370   3.021   6.532   2.361  0.1658 -0.9932 -0.2677
  110SAPE    HX11371   3.074   6.510   2.266  0.0374 -1.1457 -0.3043
  110SAPE    HY11372   2.992   6.639   2.359  0.5789 -0.8604 -3.3535
  110SAPE   O3111373   3.111   6.509   2.473  0.6292  0.2474 -0.4362
  110SAPE   C3111374   3.201   6.597   2.495  0.7808 -0.0115  0.7934
  110SAPE   O3211375   3.214   6.700   2.432  0.2292  0.1186 -1.0479
  110SAPE   C3211376   3.304   6.559   2.607 -0.2967 -0.2950  1.0059
  110SAPE   H2X11377   3.387   6.631   2.593  0.2603 -0.5379  2.7912
  110SAPE   H2Y11378   3.344   6.457   2.588  0.7907  0.1905  0.6165
  110SAPE   C2311379   2.736   6.485   2.733  0.4438  0.0215  0.4285
  110SAPE   H3R11380   2.822   6.554   2.719 -0.1304  0.5164 -0.8837
  110SAPE   H3S11381   2.766   6.379   2.749 -2.9263 -1.3565 -1.3763
  110SAPE   C2411382   2.663   6.546   2.854 -0.6099 -0.6811 -0.3708
  110SAPE   H4R11383   2.616   6.640   2.817  0.1572 -0.2658 -0.3095
  110SAPE   H4S11384   2.730   6.565   2.940 -0.7190 -1.0304 -0.2072
  110SAPE   C2511385   2.563   6.454   2.913 -0.5182  0.8082  0.9425
  110SAPE   H5R11386   2.461   6.453   2.872 -0.6542 -0.6177  1.2488
  110SAPE   C2611387   2.578   6.377   3.024 -0.5065  0.1270  1.3379
  110SAPE   H6R11388   2.494   6.307   3.037 -1.6579  1.3226  0.6178
  110SAPE   C2711389   2.706   6.361   3.097 -0.5741 -0.2162 -1.0405
  110SAPE   H7R11390   2.793   6.344   3.031  0.5839 -0.7295  0.5444
  110SAPE   H7S11391   2.699   6.275   3.168  0.4070  0.3754 -0.1858
  110SAPE   C2811392   2.746   6.475   3.192 -0.2768 -0.4992 -0.8206
  110SAPE   H8R11393   2.808   6.553   3.145  0.2185 -0.9521 -0.9280
  110SAPE   C2911394   2.715   6.486   3.326 -0.6367 -0.3375  0.4379
  110SAPE   H9R11395   2.764   6.565   3.385  1.4960 -0.2042 -1.3665
  110SAPE  C21011396   2.628   6.388   3.394 -0.4582 -0.0112 -0.2775
  110SAPE  H10R11397   2.696   6.325   3.456  1.3461 -0.7663 -2.8896
  110SAPE  H10S11398   2.571   6.327   3.321 -1.0606  0.9829 -0.6444
  110SAPE  C21111399   2.515   6.465   3.457  0.0019  0.0741 -0.0766
  110SAPE  H11R11400   2.462   6.539   3.395  3.1392  0.6059 -2.3741
  110SAPE  C21211401   2.480   6.448   3.580  0.5693 -0.2292 -0.1972
  110SAPE  H12R11402   2.393   6.505   3.616  0.5977 -1.3676  1.8302
  110SAPE  C21311403   2.556   6.365   3.682 -0.0295 -0.0764 -0.6082
  110SAPE  H13R11404   2.628   6.433   3.732 -0.7969  0.7258 -0.5876
  110SAPE  H13S11405   2.609   6.276   3.641  0.1053 -0.2537 -0.0486
  110SAPE  C21411406   2.449   6.316   3.773  0.8606  0.1708  0.5151
  110SAPE  H14R11407   2.382   6.241   3.730  0.3097  1.1373 -0.3314
  110SAPE  C21511408   2.427   6.358   3.900  0.4520  0.5781 -0.2065
  110SAPE  H15R11409   2.350   6.299   3.952  1.7784 -1.4768 -0.4305
  110SAPE  C21611410   2.514   6.456   3.986  0.0966  0.3874  0.6024
  110SAPE  H16R11411   2.465   6.552   4.013  0.0902  0.5410  0.0589
  110SAPE  H16S11412   2.606   6.480   3.927  0.8471 -0.8041  1.2494
  110SAPE  C21711413   2.573   6.391   4.118  0.7972  0.3304 -0.4626
  110SAPE  H17R11414   2.647   6.458   4.167  0.7634 -0.8800  1.3219
  110SAPE  H17S11415   2.642   6.308   4.091  3.5902  2.4748 -0.4495
  110SAPE  C21811416   2.456   6.364   4.225 -0.0485  0.4806 -0.2272
  110SAPE  H18R11417   2.385   6.291   4.180  0.4940 -0.4719  0.4434
  110SAPE  H18S11418   2.401   6.455   4.259 -2.7916 -1.2132  0.1490
  110SAPE  C21911419   2.520   6.297   4.348 -0.1904  1.1775 -0.4987
  110SAPE  H19R11420   2.593   6.368   4.394  0.7041 -0.6444  1.0406
  110SAPE  H19S11421   2.578   6.207   4.317  0.1231 -0.3030  3.7147
  110SAPE  C22011422   2.413   6.245   4.449 -0.6560 -0.3761 -1.1637
  110SAPE  H20R11423   2.457   6.198   4.540 -2.9956  1.3143  0.9822
  110SAPE  H20S11424   2.347   6.171   4.400  0.4883 -2.0993 -0.2112
  110SAPE  H20T11425   2.354   6.327   4.494  0.5024 -0.3585  0.4074
  110SAPE   C3311426   3.263   6.564   2.755  0.3071 -0.9227  0.5456
  110SAPE   H3X11427   3.213   6.662   2.772  3.4981  0.8482  0.5597
  110SAPE   H3Y11428   3.354   6.562   2.819  1.9325 -1.8268 -1.6924
  110SAPE   C3411429   3.170   6.441   2.799 -0.1440 -0.2217  0.5649
  110SAPE   H4X11430   3.237   6.356   2.825  1.3445  0.4969 -0.7162
  110SAPE   H4Y11431   3.104   6.408   2.716  1.0207 -2.3733  0.4358
  110SAPE   C3511432   3.097   6.475   2.931  0.0604  0.0109  0.2361
  110SAPE   H5X11433   3.022   6.395   2.945 -1.5242  1.5521  0.9483
  110SAPE   H5Y11434   3.038   6.565   2.902 -0.6767 -0.2999  0.7609
  110SAPE   C3611435   3.186   6.498   3.052 -0.0540 -0.0181 -0.6898
  110SAPE   H6X11436   3.268   6.569   3.028  0.8211 -0.8219 -0.1351
  110SAPE   H6Y11437   3.246   6.407   3.071 -1.9705 -1.5827 -1.6811
  110SAPE   C3711438   3.106   6.564   3.160 -0.3782 -0.0397  0.0190
  110SAPE   H7X11439   3.020   6.495   3.178 -0.7915 -0.4822 -3.0416
  110SAPE   H7Y11440   3.055   6.654   3.121  0.1815  0.7263  1.0070
  110SAPE   C3811441   3.190   6.580   3.285 -0.4403  0.4996 -0.5148
  110SAPE   H8X11442   3.281   6.638   3.259  0.7920 -1.6009 -1.1285
  110SAPE   H8Y11443   3.233   6.481   3.311 -0.8119 -0.1019 -2.0517
  110SAPE   C3911444   3.099   6.634   3.402 -0.5945 -0.4040 -0.0760
  110SAPE   H9X11445   3.003   6.580   3.417 -1.0722  0.5768  0.5439
  110SAPE   H9Y11446   3.078   6.743   3.390 -2.4169 -0.6676  0.4089
  110SAPE  C31011447   3.167   6.622   3.539  0.6287 -0.0963  0.0678
  110SAPE  H10X11448   3.260   6.682   3.538 -0.9242  2.4764  1.3820
  110SAPE  H10Y11449   3.187   6.515   3.562 -0.1104 -0.0480  0.9655
  110SAPE  C31111450   3.083   6.670   3.658 -0.1645  0.2865 -0.3827
  110SAPE  H11X11451   2.994   6.604   3.667 -0.7461  0.9755 -0.9989
  110SAPE  H11Y11452   3.055   6.777   3.658  1.2392  0.7458  2.4966
  110SAPE  C31211453   3.166   6.649   3.790 -0.0019 -0.0509  0.2347
  110SAPE  H12X11454   3.127   6.706   3.877 -0.5400  0.2562 -0.1985
  110SAPE  H12Y11455   3.265   6.697   3.778 -0.0433 -0.3017 -1.2977
  110SAPE  C31311456   3.186   6.499   3.826 -1.1744 -0.0797  0.4297
  110SAPE  H13X11457   3.247   6.443   3.752  0.0251  1.2636  0.3633
  110SAPE  H13Y11458   3.083   6.458   3.834 -1.6455  0.4528 -1.9909
  110SAPE  C31411459   3.242   6.482   3.973  0.0913  0.2290  0.7690
  110SAPE  H14X11460   3.190   6.562   4.029  0.1175 -1.1738  2.9126
  110SAPE  H14Y11461   3.350   6.508   3.975  0.6431 -1.7823  0.3188
  110SAPE  C31511462   3.232   6.347   4.025 -1.3750  0.6949  0.2407
  110SAPE  H15X11463   3.124   6.326   4.018 -1.4124  0.5250  1.1895
  110SAPE  H15Y11464   3.270   6.354   4.129 -1.9439 -0.5722  0.5593
  110SAPE  C31611465   3.310   6.237   3.957  0.2044  0.2701 -0.2906
  110SAPE  H16X11466   3.278   6.232   3.850 -0.9490  1.3036 -0.0227
  110SAPE  H16Y11467   3.283   6.139   4.001  0.7644 -0.0400 -0.6236
  110SAPE  C31711468   3.463   6.257   3.962  0.4644 -0.3512 -0.1018
  110SAPE  H17X11469   3.497   6.355   3.922 -0.5466  0.0525 -0.0028
  110SAPE  H17Y11470   3.499   6.177   3.893 -0.9954  0.0647 -1.3992
  110SAPE  C31811471   3.525   6.245   4.098  0.2638  0.2266 -0.8142
  110SAPE  H18X11472   3.633   6.267   4.093 -0.0799  1.9764 -1.0516
  110SAPE  H18Y11473   3.495   6.155   4.155 -0.6632  0.7854 -0.3943
  110SAPE  H18Z11474   3.478   6.324   4.161  2.0529  1.2486 -0.7048
  111SAPE     N11475   1.651   1.674   2.197 -0.0691  0.0702  0.2453
  111SAPE   HN111476   1.592   1.759   2.198  0.7850  0.6947 -0.4123
  111SAPE   HN211477   1.676   1.665   2.096 -1.9135 -0.1151 -0.2244
  111SAPE   HN311478   1.594   1.591   2.225 -1.0970  1.7857  3.6949
  111SAPE   C1211479   1.752   1.703   2.299 -0.5230  0.3259 -0.7867
  111SAPE  H12A11480   1.855   1.709   2.257  0.2242 -1.4171  0.6344
  111SAPE  H12B11481   1.744   1.618   2.371 -0.1140  1.6977  0.9278
  111SAPE   C1111482   1.716   1.838   2.372 -0.5755 -0.1331 -0.1874
  111SAPE  H11A11483   1.744   1.918   2.300 -1.6099 -1.9755 -2.7779
  111SAPE  H11B11484   1.789   1.858   2.453  0.2964  2.3606 -1.4874
  111SAPE     P11485   1.521   1.792   2.552 -0.0224 -0.0741 -0.0785
  111SAPE   O1311486   1.408   1.868   2.615  0.5497 -0.7811 -0.6421
  111SAPE   O1411487   1.494   1.651   2.520  0.1933 -0.5229 -0.2990
  111SAPE   O1211488   1.579   1.858   2.418 -0.2084  0.0076  0.0674
  111SAPE   O1111489   1.652   1.795   2.639  0.2900  0.3380 -0.1148
  111SAPE    C111490   1.707   1.921   2.685  0.6571  0.2278  0.9816
  111SAPE    HA11491   1.807   1.940   2.642  0.2042  0.1902 -0.1203
  111SAPE    HB11492   1.650   2.007   2.644  1.1278 -0.5306 -1.3861
  111SAPE    C211493   1.727   1.923   2.831 -0.4127 -0.2684 -0.3648
  111SAPE    HS11494   1.806   1.851   2.862 -1.1548 -0.8272  0.2673
  111SAPE   O2111495   1.610   1.898   2.901  0.3037 -0.6733  0.1835
  111SAPE   C2111496   1.567   1.770   2.919 -0.0837  0.5617  0.4341
  111SAPE   O2211497   1.638   1.672   2.908  0.1183 -0.1971  0.2870
  111SAPE   C2211498   1.424   1.761   2.961  1.1972  0.1568  0.1517
  111SAPE   H2R11499   1.365   1.811   2.881  1.7081  2.7437  1.2943
  111SAPE   H2S11500   1.394   1.654   2.960 -0.0480  0.4446 -2.2768
  111SAPE    C311501   1.779   2.068   2.868 -0.0670  0.2375  0.5424
  111SAPE    HX11502   1.711   2.130   2.806 -0.6267 -0.3366  0.5756
  111SAPE    HY11503   1.876   2.093   2.820 -1.0919  1.1113 -1.1443
  111SAPE   O3111504   1.767   2.098   3.009  0.5785 -0.4457  0.0517
  111SAPE   C3111505   1.858   2.049   3.084 -0.5003 -0.0269  0.0667
  111SAPE   O3211506   1.970   2.006   3.047 -0.0053  0.4976  0.1331
  111SAPE   C3211507   1.830   2.066   3.233  0.5587  0.0353  0.1570
  111SAPE   H2X11508   1.803   2.173   3.237  2.0294  0.4096  0.7724
  111SAPE   H2Y11509   1.919   2.057   3.299 -0.2451 -0.8265  1.1445
  111SAPE   C2311510   1.396   1.817   3.106  0.8044 -0.2868 -0.7636
  111SAPE   H3R11511   1.286   1.817   3.124  0.8095 -3.5860 -0.0079
  111SAPE   H3S11512   1.445   1.916   3.108  2.2544 -0.9795 -0.0622
  111SAPE   C2411513   1.439   1.725   3.223  0.0344 -0.4164 -0.1772
  111SAPE   H4R11514   1.550   1.715   3.228  0.3043  1.9329 -0.4122
  111SAPE   H4S11515   1.398   1.625   3.197  0.3307 -0.5398 -0.1809
  111SAPE   C2511516   1.387   1.758   3.358  1.0369 -0.1015  0.3691
  111SAPE   H5R11517   1.323   1.848   3.359 -0.9007 -1.3693  3.1515
  111SAPE   C2611518   1.398   1.695   3.469 -0.3457  0.5634 -0.6960
  111SAPE   H6R11519   1.372   1.745   3.563  0.9843 -1.9190  1.1282
  111SAPE   C2711520   1.475   1.567   3.486 -0.7708  0.2960 -0.2466
  111SAPE   H7R11521   1.557   1.570   3.411 -2.3877  1.5741 -2.0350
  111SAPE   H7S11522   1.412   1.488   3.439  0.2931 -0.4265 -0.5098
  111SAPE   C2811523   1.521   1.519   3.623 -0.2266 -0.2739 -0.3815
  111SAPE   H8R11524   1.630   1.521   3.635 -0.2941  1.3205  0.1176
  111SAPE   C2911525   1.452   1.492   3.736 -0.1469 -0.5674 -0.0110
  111SAPE   H9R11526   1.507   1.478   3.830 -0.2775 -0.6603  0.0502
  111SAPE  C21011527   1.307   1.494   3.754  0.2927 -0.0953  0.7350
  111SAPE  H10R11528   1.274   1.392   3.781 -0.4851 -0.8744 -2.6895
  111SAPE  H10S11529   1.264   1.516   3.654  2.5525 -0.3739 -0.3523
  111SAPE  C21111530   1.262   1.602   3.853  0.1774  0.0611  0.2481
  111SAPE  H11R11531   1.317   1.695   3.872  1.1884 -0.3889 -0.3832
  111SAPE  C21211532   1.139   1.598   3.910 -0.1417 -0.1520 -0.7521
  111SAPE  H12R11533   1.106   1.685   3.969 -1.0597 -0.8804 -0.1594
  111SAPE  C21311534   1.026   1.496   3.913  0.0610 -0.8675 -0.5407
  111SAPE  H13R11535   1.042   1.394   3.954 -1.8086 -1.8014 -1.9816
  111SAPE  H13S11536   1.008   1.475   3.806  1.8466 -1.4921 -0.7497
  111SAPE  C21411537   0.899   1.559   3.978 -0.1638  0.4521  0.6784
  111SAPE  H14R11538   0.817   1.569   3.905  1.1766 -2.6939 -1.4786
  111SAPE  C21511539   0.884   1.562   4.111  0.6215  0.4014  0.5379
  111SAPE  H15R11540   0.799   1.613   4.158 -0.4101 -1.2206  0.4642
  111SAPE  C21611541   0.981   1.520   4.217 -0.6656 -0.4828 -0.4075
  111SAPE  H16R11542   1.005   1.601   4.288  0.6764 -2.5778  1.6802
  111SAPE  H16S11543   1.079   1.489   4.175 -0.5478 -1.4468  0.5241
  111SAPE  C21711544   0.921   1.397   4.295  0.4086  0.0106  0.2943
  111SAPE  H17R11545   0.812   1.416   4.298  0.6723  1.5757  1.6031
  111SAPE  H17S11546   0.964   1.390   4.397 -0.4368 -0.2542  0.6327
  111SAPE  C21811547   0.949   1.261   4.227 -0.2302  0.4451  0.3932
  111SAPE  H18R11548   1.022   1.266   4.143 -1.7778  1.1173 -0.9763
  111SAPE  H18S11549   0.860   1.217   4.176  1.2876 -1.7177 -0.5655
  111SAPE  C21911550   0.976   1.135   4.320 -0.1030 -0.2090  0.7938
  111SAPE  H19R11551   0.892   1.125   4.391 -1.2775 -0.1723 -0.5317
  111SAPE  H19S11552   1.074   1.161   4.364 -0.6998  2.1617  0.8641
  111SAPE  C22011553   0.986   1.003   4.237 -0.1277  0.7725 -0.2645
  111SAPE  H20R11554   1.067   1.014   4.161  1.4075 -0.1137  1.1821
  111SAPE  H20S11555   0.897   0.987   4.173  0.5510 -0.9278 -0.8309
  111SAPE  H20T11556   1.011   0.912   4.296  0.1405 -0.0543 -1.5943
  111SAPE   C3311557   1.717   1.980   3.287  0.0546 -0.2952  0.6610
  111SAPE   H3X11558   1.678   1.924   3.200  2.2360  0.1706 -0.6875
  111SAPE   H3Y11559   1.642   2.053   3.325  1.1489  0.2836  1.7949
  111SAPE   C3411560   1.744   1.883   3.407  0.2129 -0.5489  0.0596
  111SAPE   H4X11561   1.826   1.812   3.382 -0.3611 -1.3824  0.4912
  111SAPE   H4Y11562   1.644   1.834   3.410 -0.4925  0.8605  2.1946
  111SAPE   C3511563   1.751   1.946   3.545 -0.7751 -0.2941  0.2068
  111SAPE   H5X11564   1.660   2.006   3.566 -2.6014 -2.6142 -0.6139
  111SAPE   H5Y11565   1.842   2.009   3.536 -0.6409 -0.4361  0.5888
  111SAPE   C3611566   1.789   1.849   3.657  0.1819 -0.7351  0.5308
  111SAPE   H6X11567   1.885   1.797   3.637 -1.8418 -4.0451 -1.6130
  111SAPE   H6Y11568   1.726   1.759   3.675  0.2880 -0.3776  3.0169
  111SAPE   C3711569   1.777   1.916   3.796  0.2608  0.5186 -0.0263
  111SAPE   H7X11570   1.672   1.944   3.816 -0.3305  0.4036 -2.7164
  111SAPE   H7Y11571   1.835   2.011   3.792  2.7560 -0.9371 -1.4505
  111SAPE   C3811572   1.823   1.819   3.898 -0.1980  0.0694 -0.7972
  111SAPE   H8X11573   1.932   1.839   3.890 -0.2133  1.0348  0.7970
  111SAPE   H8Y11574   1.806   1.710   3.888 -1.4121  0.2297 -0.6510
  111SAPE   C3911575   1.775   1.861   4.039  0.7982  0.2165 -0.1795
  111SAPE   H9X11576   1.666   1.850   4.055  0.7414  0.5858 -0.3022
  111SAPE   H9Y11577   1.797   1.969   4.043  1.0875  0.1299  2.0690
  111SAPE  C31011578   1.851   1.790   4.154 -0.9834 -0.7576  0.6755
  111SAPE  H10X11579   1.950   1.841   4.159 -1.0001 -0.7725  1.2231
  111SAPE  H10Y11580   1.875   1.686   4.123 -2.7321 -0.7742 -0.7568
  111SAPE  C31111581   1.770   1.796   4.287 -0.6125 -0.3731 -0.1432
  111SAPE  H11X11582   1.662   1.773   4.283 -0.7054 -0.6577  2.3953
  111SAPE  H11Y11583   1.799   1.898   4.320  1.3519 -0.8142 -0.3644
  111SAPE  C31211584   1.831   1.706   4.392  0.1666 -0.2212 -0.0317
  111SAPE  H12X11585   1.937   1.735   4.410  0.2591  0.0540 -1.0088
  111SAPE  H12Y11586   1.836   1.600   4.357  3.5443 -0.1581 -0.1132
  111SAPE  C31311587   1.765   1.705   4.529 -0.0383  0.0539 -0.2015
  111SAPE  H13X11588   1.662   1.663   4.520 -1.8920  3.7896  1.2500
  111SAPE  H13Y11589   1.755   1.807   4.572  2.1369  0.5832 -0.8612
  111SAPE  C31411590   1.846   1.612   4.628  0.2220  0.2248  0.0472
  111SAPE  H14X11591   1.944   1.661   4.646  1.3694 -1.0530 -2.2204
  111SAPE  H14Y11592   1.854   1.512   4.581 -2.9020  0.0175 -0.2770
  111SAPE  C31511593   1.781   1.586   4.766  0.4326  0.1697  0.7314
  111SAPE  H15X11594   1.704   1.506   4.754 -0.0347  0.6820  0.2955
  111SAPE  H15Y11595   1.728   1.673   4.809  0.8517  0.0247  1.5759
  111SAPE  C31611596   1.879   1.537   4.876 -0.1149  0.8213 -0.9758
  111SAPE  H16X11597   1.918   1.438   4.845 -0.1793  0.6796 -0.6115
  111SAPE  H16Y11598   1.822   1.530   4.971 -0.0235 -1.2723 -1.0263
  111SAPE  C31711599   1.993   1.638   4.909 -0.2237  0.0528 -0.4285
  111SAPE  H17X11600   2.068   1.643   4.827  0.7866 -1.7867  0.3469
  111SAPE  H17Y11601   2.062   1.607   4.990  2.2222 -1.3199 -2.8665
  111SAPE  C31811602   1.937   1.776   4.949  0.3177 -0.2857  0.1730
  111SAPE  H18X11603   2.011   1.843   4.999  1.5821 -2.4425  1.3363
  111SAPE  H18Y11604   1.852   1.766   5.020 -0.0746  1.1649 -0.0544
  111SAPE  H18Z11605   1.892   1.829   4.862 -0.2363 -2.1547 -0.7324
  112SAPE     N11606   5.159   5.662   1.991  0.5145  0.5065  0.0553
  112SAPE   HN111607   5.090   5.598   1.946  1.7641 -1.2315  0.5104
  112SAPE   HN211608   5.146   5.760   1.958  0.5483  0.7689  0.7984
  112SAPE   HN311609   5.246   5.608   1.972 -1.0457 -3.1114  2.2489
  112SAPE   C1211610   5.157   5.662   2.143  0.4801 -0.1966  0.1587
  112SAPE  H12A11611   5.160   5.554   2.171 -0.0111 -0.3082 -0.1914
  112SAPE  H12B11612   5.071   5.724   2.176  0.7845 -0.4406  1.4715
  112SAPE   C1111613   5.282   5.737   2.195 -0.3139  0.1856 -0.3648
  112SAPE  H11A11614   5.293   5.738   2.306 -2.4979  2.2296 -0.0818
  112SAPE  H11B11615   5.271   5.846   2.178  0.9275  0.3006 -0.5454
  112SAPE     P11616   5.531   5.763   2.105 -0.2447  0.2516 -0.0737
  112SAPE   O1311617   5.651   5.686   2.141 -0.5558  0.5360  0.6793
  112SAPE   O1411618   5.534   5.829   1.970  0.5813  0.1955 -0.2930
  112SAPE   O1211619   5.395   5.682   2.129 -0.1553 -0.0196 -0.2569
  112SAPE   O1111620   5.522   5.870   2.217 -0.1605 -0.3018  0.0029
  112SAPE    C111621   5.523   5.863   2.362 -0.4691  0.5054 -0.3090
  112SAPE    HA11622   5.419   5.867   2.400 -0.9846  2.1192 -1.7641
  112SAPE    HB11623   5.567   5.765   2.391 -0.1203  0.0401 -2.2981
  112SAPE    C211624   5.604   5.981   2.447  0.4357  0.2147  0.7882
  112SAPE    HS11625   5.651   5.926   2.532  0.6305 -0.2093  0.4126
  112SAPE   O2111626   5.507   6.084   2.480 -0.6337  0.3852  0.4311
  112SAPE   C2111627   5.415   6.056   2.568 -0.7580 -0.7425  0.3169
  112SAPE   O2211628   5.399   5.948   2.615  0.5151  0.6091 -0.0856
  112SAPE   C2211629   5.344   6.186   2.602 -0.6698 -0.3799  0.1216
  112SAPE   H2R11630   5.405   6.270   2.563 -2.2715 -0.1121 -1.9723
  112SAPE   H2S11631   5.252   6.187   2.539 -0.4527  0.0841 -0.1888
  112SAPE    C311632   5.714   6.035   2.364 -0.6271 -0.3776  0.4765
  112SAPE    HX11633   5.656   6.070   2.276 -1.4633  1.7836  1.8044
  112SAPE    HY11634   5.780   5.948   2.343 -0.6027 -0.2168 -0.1185
  112SAPE   O3111635   5.779   6.156   2.415  1.2374  0.2133  0.0354
  112SAPE   C3111636   5.818   6.155   2.536  0.0982  0.6252  0.2450
  112SAPE   O3211637   5.824   6.057   2.614 -0.0355 -0.2030 -0.2686
  112SAPE   C3211638   5.869   6.292   2.575  0.1713  0.5175  0.0145
  112SAPE   H2X11639   5.787   6.367   2.582 -0.0277  0.2476  0.7097
  112SAPE   H2Y11640   5.940   6.331   2.499  1.8488  0.0839  1.3039
  112SAPE   C2311641   5.320   6.205   2.747  0.1491 -0.5647  0.4057
  112SAPE   H3R11642   5.262   6.123   2.794  1.8707 -1.7312  0.5636
  112SAPE   H3S11643   5.251   6.292   2.753  0.9291  0.2541 -1.6505
  112SAPE   C2411644   5.438   6.219   2.850  0.2749 -0.5737  0.2432
  112SAPE   H4R11645   5.401   6.272   2.940 -0.0123  0.0959 -0.2636
  112SAPE   H4S11646   5.507   6.296   2.809  0.2529 -0.7497 -0.1281
  112SAPE   C2511647   5.520   6.094   2.888  0.5296  0.4025  0.8338
  112SAPE   H5R11648   5.567   6.059   2.795  0.4998  1.8138  0.2650
  112SAPE   C2611649   5.511   6.021   3.003  0.7253 -0.5328 -0.1275
  112SAPE   H6R11650   5.572   5.930   3.017  1.6116  0.2934  1.5920
  112SAPE   C2711651   5.428   6.056   3.124 -0.4284 -0.3001 -0.0498
  112SAPE   H7R11652   5.342   5.987   3.106  0.6710 -1.1841 -2.2448
  112SAPE   H7S11653   5.393   6.161   3.121  1.3195  0.2869 -2.3210
  112SAPE   C2811654   5.481   6.026   3.260 -0.0554  0.0361 -0.2862
  112SAPE   H8R11655   5.519   6.118   3.307 -0.9152 -0.4847  1.5376
  112SAPE   C2911656   5.488   5.914   3.328 -0.4160 -0.2993  0.3616
  112SAPE   H9R11657   5.536   5.922   3.427  2.0432 -1.6178 -0.6206
  112SAPE  C21011658   5.438   5.779   3.285  0.6710 -0.4550 -0.0880
  112SAPE  H10R11659   5.511   5.699   3.311 -0.9903 -1.1123  3.0575
  112SAPE  H10S11660   5.432   5.756   3.176  1.0341  1.6700 -0.5942
  112SAPE  C21111661   5.309   5.748   3.350 -0.5668 -0.4236 -0.1108
  112SAPE  H11R11662   5.223   5.736   3.281  0.0455  0.1644 -1.0012
  112SAPE  C21211663   5.285   5.725   3.479 -0.4196  0.3148  0.2756
  112SAPE  H12R11664   5.189   5.686   3.515 -0.4278  2.3029  2.7194
  112SAPE  C21311665   5.381   5.730   3.599  0.1045  0.7833 -0.1647
  112SAPE  H13R11666   5.484   5.717   3.559  0.4172 -0.4415  0.9781
  112SAPE  H13S11667   5.360   5.643   3.665  0.8286  1.8407  1.5076
  112SAPE  C21411668   5.363   5.854   3.686 -0.6022 -0.0744  0.2687
  112SAPE  H14R11669   5.285   5.926   3.657 -2.3956 -2.1282 -0.2641
  112SAPE  C21511670   5.438   5.864   3.798  0.7618 -0.6406  0.0403
  112SAPE  H15R11671   5.426   5.953   3.862 -0.4350 -0.7115 -0.0702
  112SAPE  C21611672   5.537   5.765   3.854 -0.8003  0.3827  0.3771
  112SAPE  H16R11673   5.605   5.747   3.768 -0.5065  2.6113  0.0707
  112SAPE  H16S11674   5.492   5.664   3.861  0.6799 -0.4639 -1.2686
  112SAPE  C21711675   5.608   5.808   3.981 -0.9623  0.6904 -0.2585
  112SAPE  H17R11676   5.536   5.865   4.042 -0.8015  0.2543  0.3446
  112SAPE  H17S11677   5.692   5.877   3.959  0.1663 -0.1741  1.1453
  112SAPE  C21811678   5.656   5.686   4.056 -0.7172  0.4740 -0.5244
  112SAPE  H18R11679   5.739   5.645   3.995 -0.1278 -0.2602  0.7228
  112SAPE  H18S11680   5.582   5.604   4.067  0.7475 -0.7973  0.3345
  112SAPE  C21911681   5.713   5.731   4.195 -0.0141  0.4916 -0.1172
  112SAPE  H19R11682   5.634   5.788   4.248 -3.5503 -2.4487 -1.7526
  112SAPE  H19S11683   5.797   5.801   4.176  0.7937 -0.6442 -0.8332
  112SAPE  C22011684   5.764   5.615   4.281 -0.2645 -0.2851  0.3765
  112SAPE  H20R11685   5.825   5.649   4.368  1.4155  0.3243 -0.9863
  112SAPE  H20S11686   5.829   5.552   4.217  1.1666  1.5609 -0.0523
  112SAPE  H20T11687   5.685   5.549   4.323  0.0878 -1.1340 -0.2754
  112SAPE   C3311688   5.943   6.296   2.714  0.6472 -0.8780 -0.3432
  112SAPE   H3X11689   5.992   6.393   2.734 -0.0161 -0.7817  0.9271
  112SAPE   H3Y11690   6.027   6.222   2.721  1.2090 -0.2908 -0.7912
  112SAPE   C3411691   5.854   6.270   2.844 -0.1953 -0.1861 -0.2442
  112SAPE   H4X11692   5.858   6.159   2.854 -0.2427 -0.3316 -1.6526
  112SAPE   H4Y11693   5.746   6.274   2.816 -0.8073 -4.3240  0.8617
  112SAPE   C3511694   5.889   6.353   2.964  0.0553 -0.1935 -0.0432
  112SAPE   H5X11695   5.850   6.454   2.937  4.9033  1.7660 -0.6365
  112SAPE   H5Y11696   5.997   6.370   2.983  0.0548 -0.2313 -0.0051
  112SAPE   C3611697   5.828   6.297   3.091  0.2358  0.5396 -0.7129
  112SAPE   H6X11698   5.855   6.189   3.094  2.8028  1.1230  0.1939
  112SAPE   H6Y11699   5.719   6.310   3.073 -0.0903 -0.6698  0.2775
  112SAPE   C3711700   5.875   6.371   3.217 -0.0778 -0.1848  0.0580
  112SAPE   H7X11701   5.865   6.478   3.190 -2.5253 -0.0363  1.2670
  112SAPE   H7Y11702   5.980   6.342   3.241  0.2862 -0.0984 -1.3328
  112SAPE   C3811703   5.784   6.325   3.337 -0.2262 -0.6730  0.0428
  112SAPE   H8X11704   5.816   6.229   3.383 -1.3594 -0.4868  1.2887
  112SAPE   H8Y11705   5.681   6.309   3.299  0.4240 -1.1513 -1.5989
  112SAPE   C3911706   5.791   6.435   3.453  0.0568  0.4633  0.1039
  112SAPE   H9X11707   5.721   6.387   3.525 -0.0810 -0.5436 -0.6736
  112SAPE   H9Y11708   5.757   6.525   3.397  1.9374  1.5752  0.6403
  112SAPE  C31011709   5.928   6.469   3.505 -0.2076 -0.0125 -0.1446
  112SAPE  H10X11710   5.987   6.502   3.417  0.6201 -0.3925  0.2541
  112SAPE  H10Y11711   5.978   6.375   3.539 -0.8100 -0.9975 -1.8789
  112SAPE  C31111712   5.925   6.574   3.615  0.1472  0.5288 -0.3190
  112SAPE  H11X11713   5.872   6.529   3.702  0.9191 -0.4503 -0.3268
  112SAPE  H11Y11714   5.870   6.662   3.576  0.4930  0.3795 -1.1473
  112SAPE  C31211715   6.066   6.594   3.664  0.3870 -1.1367 -0.1582
  112SAPE  H12X11716   6.122   6.642   3.581  0.2901 -2.3708 -0.9763
  112SAPE  H12Y11717   6.112   6.496   3.691 -1.7412 -2.0296  0.4411
  112SAPE  C31311718   6.082   6.687   3.788 -0.0429 -0.1639  0.7364
  112SAPE  H13X11719   6.014   6.766   3.751  1.2680 -0.1381 -1.8468
  112SAPE  H13Y11720   6.184   6.729   3.776  0.5257 -1.8296 -0.6613
  112SAPE  C31411721   6.067   6.625   3.925  0.1509 -0.0090  0.3374
  112SAPE  H14X11722   6.140   6.547   3.956 -2.7208 -2.4303  1.4687
  112SAPE  H14Y11723   5.974   6.565   3.914  0.0466  0.2811 -0.4014
  112SAPE  C31511724   6.042   6.726   4.037 -0.1168  0.0035 -0.1466
  112SAPE  H15X11725   5.950   6.786   4.019  0.3870  0.2304 -2.2007
  112SAPE  H15Y11726   6.134   6.787   4.027  0.4409 -0.9165 -0.7219
  112SAPE  C31611727   6.034   6.664   4.178  0.6472  0.0409  0.3288
  112SAPE  H16X11728   5.963   6.579   4.171  0.9494 -0.1643 -0.2902
  112SAPE  H16Y11729   6.010   6.740   4.255  1.3326 -0.3015  0.8928
  112SAPE  C31711730   6.164   6.605   4.235 -0.0746 -0.4780 -0.4954
  112SAPE  H17X11731   6.197   6.513   4.182  0.2905 -0.6551  0.0300
  112SAPE  H17Y11732   6.122   6.570   4.332  0.1629  0.2531 -0.1231
  112SAPE  C31811733   6.278   6.697   4.259  0.8608 -0.3083  0.0292
  112SAPE  H18X11734   6.368   6.647   4.302  2.1230  1.5791 -0.2685
  112SAPE  H18Y11735   6.249   6.787   4.317 -2.3703 -1.6701  0.7008
  112SAPE  H18Z11736   6.320   6.740   4.165  0.4778  3.6271  1.4554
  113SAPE     N11737   5.909   5.175   1.954 -0.0152 -0.1871 -0.1030
  113SAPE   HN111738   5.994   5.116   1.963  0.4181  0.3524 -0.5980
  113SAPE   HN211739   5.824   5.123   1.984 -0.3022 -0.4320 -1.2848
  113SAPE   HN311740   5.905   5.188   1.851  1.6857  0.2939 -0.1383
  113SAPE   C1211741   5.948   5.301   2.021 -0.0183  0.3980  0.3046
  113SAPE  H12A11742   5.855   5.361   2.034 -2.6242 -3.0693 -0.9064
  113SAPE  H12B11743   6.025   5.350   1.956 -0.5222  1.1281  0.2423
  113SAPE   C1111744   5.999   5.279   2.167  0.1308 -0.0286  0.0223
  113SAPE  H11A11745   5.917   5.247   2.235  0.3323  0.2576  0.4065
  113SAPE  H11B11746   6.044   5.373   2.206 -1.1000 -0.0500  1.5946
  113SAPE     P11747   6.109   5.054   2.236  0.0111  0.2252 -0.1927
  113SAPE   O1311748   5.978   4.988   2.205 -0.2339  0.0054  0.2811
  113SAPE   O1411749   6.229   4.980   2.199 -0.7775  0.2528  0.0169
  113SAPE   O1211750   6.110   5.190   2.168  0.0974 -0.1169 -0.4711
  113SAPE   O1111751   6.116   5.096   2.388 -0.3373 -0.0948  0.0147
  113SAPE    C111752   6.224   5.176   2.438  0.8314  1.2470  0.0248
  113SAPE    HA11753   6.315   5.113   2.445  0.2535  0.5300  1.3218
  113SAPE    HB11754   6.255   5.251   2.362 -0.4882 -0.4431 -2.2970
  113SAPE    C211755   6.190   5.249   2.564  0.2495 -0.0664 -1.0252
  113SAPE    HS11756   6.277   5.308   2.599 -1.0917  2.6986 -1.9765
  113SAPE   O2111757   6.152   5.164   2.675  0.3479  0.0175  0.1802
  113SAPE   C2111758   6.260   5.100   2.738  0.3542 -0.0071 -0.3973
  113SAPE   O2211759   6.377   5.134   2.728 -0.0971 -0.0381 -0.3755
  113SAPE   C2211760   6.213   4.992   2.830  0.0009 -0.0673 -0.6542
  113SAPE   H2R11761   6.112   5.027   2.860  0.0002  0.2634 -1.0353
  113SAPE   H2S11762   6.211   4.893   2.780 -0.6780 -2.2160  3.2139
  113SAPE    C311763   6.073   5.345   2.537 -0.3109 -0.3235 -0.1174
  113SAPE    HX11764   5.994   5.307   2.468  0.0918  0.8316 -1.2626
  113SAPE    HY11765   6.117   5.423   2.470 -0.5892 -0.2884 -0.2607
  113SAPE   O3111766   6.016   5.403   2.652 -0.0403 -0.1599 -0.1133
  113SAPE   C3111767   5.907   5.354   2.698 -0.0747  0.0150  0.1494
  113SAPE   O3211768   5.828   5.278   2.636  0.6699  0.1683 -0.0192
  113SAPE   C3211769   5.879   5.403   2.842  0.0330 -0.2615 -0.7507
  113SAPE   H2X11770   5.804   5.485   2.843 -0.7668 -0.9849 -0.4939
  113SAPE   H2Y11771   5.976   5.437   2.886 -0.9422  0.3260  1.0287
  113SAPE   C2311772   6.291   4.994   2.961  0.4143  0.3957  0.1081
  113SAPE   H3R11773   6.356   5.084   2.968  0.2553  0.4472  1.1581
  113SAPE   H3S11774   6.370   4.921   2.935 -0.8520 -0.5882 -1.1030
  113SAPE   C2411775   6.227   4.941   3.089 -0.1185  0.3789  0.2109
  113SAPE   H4R11776   6.300   4.917   3.170  0.2428 -0.3017 -0.3150
  113SAPE   H4S11777   6.178   4.848   3.054 -0.3904 -0.0020  1.5582
  113SAPE   C2511778   6.118   5.027   3.142  0.5530 -0.4476 -0.0320
  113SAPE   H5R11779   6.087   5.098   3.064 -1.0563 -0.8813  0.1772
  113SAPE   C2611780   6.075   5.030   3.269  1.4008  0.2654 -0.5063
  113SAPE   H6R11781   5.982   5.087   3.287  2.2066  1.2377  0.7644
  113SAPE   C2711782   6.135   4.972   3.392  0.7661  0.8914 -0.7613
  113SAPE   H7R11783   6.230   5.027   3.411  0.0499  1.0495  3.0422
  113SAPE   H7S11784   6.157   4.865   3.373 -2.6366 -0.3862  1.5508
  113SAPE   C2811785   6.041   4.964   3.506 -0.1119  0.2567 -0.4406
  113SAPE   H8R11786   5.955   4.899   3.487  0.5744 -0.2232 -2.0787
  113SAPE   C2911787   6.046   5.035   3.620  0.3699 -0.7086  0.0297
  113SAPE   H9R11788   5.968   5.022   3.696 -1.8350 -2.4991 -2.3748
  113SAPE  C21011789   6.167   5.126   3.668  0.0436 -0.1908  0.7518
  113SAPE  H10R11790   6.180   5.220   3.609 -2.4500  0.7461  1.5662
  113SAPE  H10S11791   6.256   5.065   3.641 -0.3438 -0.1828 -0.6031
  113SAPE  C21111792   6.182   5.159   3.812  0.9177 -0.1153  0.2313
  113SAPE  H11R11793   6.115   5.111   3.885  0.1204  0.8715  0.1738
  113SAPE  C21211794   6.256   5.250   3.866  0.2379  0.4000  0.1239
  113SAPE  H12R11795   6.235   5.261   3.973  0.1288 -1.4143  0.3304
  113SAPE  C21311796   6.352   5.343   3.803  0.0990 -0.1254 -0.6581
  113SAPE  H13R11797   6.296   5.400   3.726 -1.7649  1.7307  1.8796
  113SAPE  H13S11798   6.422   5.276   3.749  0.9789 -0.5778  0.9815
  113SAPE  C21411799   6.437   5.432   3.887  0.2608  0.3869  0.3410
  113SAPE  H14R11800   6.420   5.540   3.872  1.9282  0.5978 -0.3328
  113SAPE  C21511801   6.529   5.404   3.983 -0.0458  0.4411  0.1666
  113SAPE  H15R11802   6.594   5.478   4.033  1.8317 -2.3728  2.1650
  113SAPE  C21611803   6.577   5.263   4.015  0.3803  0.9752  0.2190
  113SAPE  H16R11804   6.534   5.193   3.941  0.4028 -0.0278  1.1302
  113SAPE  H16S11805   6.529   5.236   4.112  2.5041 -0.7783  0.8645
  113SAPE  C21711806   6.728   5.236   4.021 -0.2235 -0.3246 -0.0505
  113SAPE  H17R11807   6.777   5.307   4.091 -1.3272  1.0964 -0.6643
  113SAPE  H17S11808   6.777   5.259   3.925 -0.0694  1.0679  0.3392
  113SAPE  C21811809   6.764   5.096   4.070  0.0025  0.0071  0.4855
  113SAPE  H18R11810   6.874   5.095   4.085 -0.0688 -1.7603  1.0201
  113SAPE  H18S11811   6.743   5.019   3.993 -0.2631 -0.5395  1.1053
  113SAPE  C21911812   6.682   5.043   4.190  0.6798 -0.6014  1.3511
  113SAPE  H19R11813   6.584   5.017   4.145  0.5496 -0.4687  1.5587
  113SAPE  H19S11814   6.661   5.117   4.270 -0.9258 -0.1920  0.5713
  113SAPE  C22011815   6.744   4.920   4.254  0.5961  0.3168  0.0789
  113SAPE  H20R11816   6.845   4.952   4.285  0.7050 -0.7355  0.8878
  113SAPE  H20S11817   6.773   4.845   4.177  1.8376  0.6290  0.2235
  113SAPE  H20T11818   6.683   4.887   4.341 -2.5833 -0.2022 -2.1577
  113SAPE   C3311819   5.824   5.286   2.937  0.6122  0.5611  0.5240
  113SAPE   H3X11820   5.900   5.205   2.938 -2.3527 -2.4500  2.5623
  113SAPE   H3Y11821   5.738   5.230   2.895  1.1635  0.0703  0.0268
  113SAPE   C3411822   5.811   5.320   3.077 -0.0579 -0.4369  0.0655
  113SAPE   H4X11823   5.787   5.230   3.138  1.2360 -1.9478 -1.5668
  113SAPE   H4Y11824   5.724   5.389   3.081  0.1462 -0.1951  0.4183
  113SAPE   C3511825   5.933   5.386   3.147  0.3568 -1.0051 -0.2960
  113SAPE   H5X11826   5.950   5.490   3.113 -0.7340 -1.2451 -1.6367
  113SAPE   H5Y11827   6.025   5.327   3.127  0.9083 -0.2931  0.0527
  113SAPE   C3611828   5.916   5.395   3.301 -0.0334  0.8037  0.8096
  113SAPE   H6X11829   5.986   5.472   3.340 -1.3601  1.7265  1.4571
  113SAPE   H6Y11830   5.921   5.291   3.340  2.4949  0.6704  0.2747
  113SAPE   C3711831   5.775   5.446   3.351 -0.0931  0.4073 -0.0576
  113SAPE   H7X11832   5.703   5.362   3.342  1.6591 -1.1171 -0.1738
  113SAPE   H7Y11833   5.737   5.534   3.294 -1.2476 -0.4338 -0.6369
  113SAPE   C3811834   5.777   5.492   3.491  0.1943  0.7685 -0.3983
  113SAPE   H8X11835   5.841   5.581   3.507 -2.8510  2.7082  2.1667
  113SAPE   H8Y11836   5.675   5.527   3.516  0.6311  1.0167  1.1148
  113SAPE   C3911837   5.800   5.386   3.595 -1.0961 -0.1663  0.0632
  113SAPE   H9X11838   5.902   5.342   3.595 -0.6349  0.8204  1.6943
  113SAPE   H9Y11839   5.729   5.302   3.581 -0.4306 -0.7085 -0.0912
  113SAPE  C31011840   5.789   5.429   3.745  0.1894 -0.9070  0.6687
  113SAPE  H10X11841   5.686   5.466   3.764  0.2013 -0.7557  0.4331
  113SAPE  H10Y11842   5.867   5.504   3.773 -0.4389 -0.3341  0.8918
  113SAPE  C31111843   5.818   5.304   3.833  0.9381 -0.2586 -0.1738
  113SAPE  H11X11844   5.909   5.246   3.804  1.4533  0.6689 -0.4249
  113SAPE  H11Y11845   5.728   5.242   3.813  1.1729 -0.4948 -0.5049
  113SAPE  C31211846   5.839   5.346   3.980 -0.2122 -0.2489 -0.5332
  113SAPE  H12X11847   5.752   5.397   4.025 -0.6114  0.4788 -2.0663
  113SAPE  H12Y11848   5.925   5.414   3.997  0.6437 -1.9170  2.4609
  113SAPE  C31311849   5.864   5.219   4.070  0.2360  0.2765 -0.1149
  113SAPE  H13X11850   5.946   5.158   4.024  0.6836  2.2654 -2.1288
  113SAPE  H13Y11851   5.769   5.162   4.063 -0.9396  2.1202  0.3161
  113SAPE  C31411852   5.893   5.255   4.222  0.3269 -0.3471 -1.0150
  113SAPE  H14X11853   5.839   5.195   4.299 -1.6253  0.7727 -1.4394
  113SAPE  H14Y11854   5.855   5.359   4.236  1.0345 -0.1997 -0.0508
  113SAPE  C31511855   6.042   5.245   4.245  0.4614  0.0928  0.6940
  113SAPE  H15X11856   6.099   5.315   4.181  2.3111 -1.5595  0.4379
  113SAPE  H15Y11857   6.065   5.140   4.218  2.5742  0.1749  2.0117
  113SAPE  C31611858   6.086   5.272   4.392  0.4971  0.4930  0.1244
  113SAPE  H16X11859   6.077   5.185   4.459 -2.6851 -0.9087 -1.8871
  113SAPE  H16Y11860   6.015   5.346   4.433  1.4472  0.8731  1.1195
  113SAPE  C31711861   6.229   5.341   4.400 -0.2709 -0.1203  0.6273
  113SAPE  H17X11862   6.255   5.355   4.507 -0.9272  1.4713  0.6138
  113SAPE  H17Y11863   6.225   5.437   4.343 -0.1184 -1.3716 -1.5941
  113SAPE  C31811864   6.332   5.260   4.321 -0.3448  0.3295  0.1122
  113SAPE  H18X11865   6.311   5.271   4.212 -1.9026  0.2629  0.3917
  113SAPE  H18Y11866   6.341   5.156   4.357  0.1843  0.1747 -0.4491
  113SAPE  H18Z11867   6.432   5.305   4.337 -0.7501  1.4155 -0.3079
  114SAPE     N11868   1.457   0.837   2.043 -0.6486 -0.2972 -0.0080
  114SAPE   HN111869   1.462   0.941   2.034 -0.3401 -0.4005 -1.1861
  114SAPE   HN211870   1.552   0.808   2.073 -0.3505 -0.0373 -0.6759
  114SAPE   HN311871   1.416   0.797   1.956 -0.6352 -0.8819  0.2508
  114SAPE   C1211872   1.374   0.813   2.165 -0.0941 -0.5589 -0.0502
  114SAPE  H12A11873   1.379   0.705   2.188 -1.6552 -0.6149  0.0994
  114SAPE  H12B11874   1.272   0.850   2.143 -0.2315 -0.7767  0.2180
  114SAPE   C1111875   1.429   0.888   2.287 -0.5571  0.6817 -0.4528
  114SAPE  H11A11876   1.522   0.834   2.314 -1.2972 -0.6976 -0.5571
  114SAPE  H11B11877   1.369   0.868   2.378  0.8190  0.0353  0.3438
  114SAPE     P11878   1.541   1.111   2.353  0.1488 -0.3936  0.1630
  114SAPE   O1311879   1.676   1.096   2.309  0.3929  0.3674  0.1734
  114SAPE   O1411880   1.489   1.250   2.367  0.5315  0.2407  0.0407
  114SAPE   O1211881   1.435   1.031   2.262 -0.4477 -0.4113 -0.2720
  114SAPE   O1111882   1.530   1.033   2.490 -0.3121  0.6599 -0.2183
  114SAPE    C111883   1.410   1.045   2.578  0.3145  0.3222 -0.3178
  114SAPE    HA11884   1.372   1.149   2.580 -0.9862 -0.1213 -1.1226
  114SAPE    HB11885   1.327   0.983   2.539  1.9203 -1.6476 -0.8092
  114SAPE    C211886   1.455   1.006   2.725  0.3130 -0.1134 -0.0891
  114SAPE    HS11887   1.367   0.967   2.779  0.5145  0.9178  1.0403
  114SAPE   O2111888   1.520   1.117   2.798  0.0583 -0.2763 -0.2519
  114SAPE   C2111889   1.444   1.222   2.831  0.3619 -1.0174 -0.3125
  114SAPE   O2211890   1.324   1.225   2.825  0.8571 -0.3345 -0.2841
  114SAPE   C2211891   1.535   1.348   2.871 -0.1588  0.1758  0.0800
  114SAPE   H2R11892   1.596   1.359   2.778  0.9148 -1.0498  0.6052
  114SAPE   H2S11893   1.476   1.440   2.889 -0.8310 -0.3904  0.8608
  114SAPE    C311894   1.554   0.887   2.728 -0.3426 -0.2954  0.1016
  114SAPE    HX11895   1.639   0.918   2.664 -1.5146  2.2146 -0.3793
  114SAPE    HY11896   1.494   0.803   2.685 -0.4929  0.3865 -1.0464
  114SAPE   O3111897   1.597   0.843   2.862 -0.2825  0.1151  0.1273
  114SAPE   C3111898   1.691   0.750   2.868 -0.5537 -0.3642  0.2534
  114SAPE   O3211899   1.754   0.707   2.772  0.8354  0.3340  0.7458
  114SAPE   C3211900   1.704   0.705   3.012 -0.4645  0.3509 -0.4830
  114SAPE   H2X11901   1.608   0.673   3.058  0.2793  0.2828  1.1065
  114SAPE   H2Y11902   1.729   0.802   3.061 -0.0821  0.6624 -1.2874
  114SAPE   C2311903   1.635   1.325   2.987  0.3627 -0.4998  0.1719
  114SAPE   H3R11904   1.732   1.377   2.973  0.9798 -1.5300  0.5455
  114SAPE   H3S11905   1.654   1.216   2.988  2.3381 -0.1988 -0.3444
  114SAPE   C2411906   1.583   1.386   3.117 -0.4155 -0.2428 -0.3660
  114SAPE   H4R11907   1.586   1.495   3.099 -0.2039  0.1746  1.9150
  114SAPE   H4S11908   1.657   1.362   3.197  0.5159 -1.1613 -1.4727
  114SAPE   C2511909   1.448   1.347   3.159 -0.1755 -0.0308  0.0604
  114SAPE   H5R11910   1.370   1.414   3.121  1.4764  2.0053  0.0937
  114SAPE   C2611911   1.399   1.255   3.246 -0.7735  0.5296 -0.4836
  114SAPE   H6R11912   1.290   1.244   3.256 -0.7647  1.3283  0.5745
  114SAPE   C2711913   1.486   1.160   3.328 -0.2119 -0.3272 -0.6856
  114SAPE   H7R11914   1.589   1.200   3.325 -0.6309  0.8116 -0.4634
  114SAPE   H7S11915   1.502   1.059   3.285  2.7566 -1.2084  2.1336
  114SAPE   C2811916   1.429   1.151   3.469 -0.1455  0.0660  0.4450
  114SAPE   H8R11917   1.464   1.223   3.544 -0.0268 -0.4726  0.9174
  114SAPE   C2911918   1.358   1.047   3.516  0.0500 -0.2813  0.0869
  114SAPE   H9R11919   1.339   1.055   3.624 -0.7144  1.4653 -0.1434
  114SAPE  C21011920   1.301   0.930   3.438  0.1955  0.1481  0.5682
  114SAPE  H10R11921   1.338   0.923   3.333 -1.7573 -1.9076 -0.0502
  114SAPE  H10S11922   1.193   0.952   3.426  0.1566 -0.2984  0.0504
  114SAPE  C21111923   1.323   0.800   3.508 -0.4996  0.9043 -0.8153
  114SAPE  H11R11924   1.408   0.750   3.460  0.1844  1.4982 -0.2460
  114SAPE  C21211925   1.260   0.750   3.616 -0.2453 -0.1158  0.1575
  114SAPE  H12R11926   1.290   0.655   3.661 -1.0419 -0.9398 -0.9915
  114SAPE  C21311927   1.147   0.819   3.689  0.4253  0.2899  0.8901
  114SAPE  H13R11928   1.052   0.789   3.640  0.8814 -0.0865  0.2192
  114SAPE  H13S11929   1.163   0.928   3.680 -0.3918  0.2179 -3.3716
  114SAPE  C21411930   1.151   0.787   3.835 -0.0846 -0.6166  0.1103
  114SAPE  H14R11931   1.095   0.698   3.867 -0.3426 -0.7139 -0.5771
  114SAPE  C21511932   1.218   0.862   3.925 -0.0190 -0.2658 -0.2101
  114SAPE  H15R11933   1.203   0.836   4.031 -0.3671 -2.2633 -0.7154
  114SAPE  C21611934   1.305   0.982   3.910 -0.6226  0.0300  0.7020
  114SAPE  H16R11935   1.280   1.036   3.816 -0.6817  1.2097  1.3745
  114SAPE  H16S11936   1.408   0.942   3.906  0.1452  1.6069  2.7470
  114SAPE  C21711937   1.308   1.077   4.026 -0.7301 -1.2011  0.4133
  114SAPE  H17R11938   1.333   1.030   4.124 -0.6325  0.7472  1.3747
  114SAPE  H17S11939   1.206   1.122   4.030 -1.0801 -2.0511  3.7388
  114SAPE  C21811940   1.406   1.195   4.010  0.1599 -0.4193  0.3276
  114SAPE  H18R11941   1.403   1.258   4.101  1.3656  0.6775 -0.3597
  114SAPE  H18S11942   1.366   1.248   3.921 -0.7983 -2.5122 -0.5743
  114SAPE  C21911943   1.554   1.156   3.979 -0.0927  0.1963  0.4475
  114SAPE  H19R11944   1.562   1.129   3.871 -1.2604 -1.9413  0.8485
  114SAPE  H19S11945   1.579   1.071   4.046 -1.4825 -0.1340  0.5780
  114SAPE  C22011946   1.659   1.261   4.017  0.5021  0.1474 -0.3778
  114SAPE  H20R11947   1.639   1.367   3.991 -0.2151  0.4248  1.1741
  114SAPE  H20S11948   1.757   1.225   3.980  0.7968  1.8315 -1.3388
  114SAPE  H20T11949   1.674   1.264   4.127 -1.6449 -1.3775  0.0298
  114SAPE   C3311950   1.816   0.607   3.054 -0.2435 -0.3929  0.3842
  114SAPE   H3X11951   1.920   0.644   3.042  0.2266 -1.1417  1.9905
  114SAPE   H3Y11952   1.815   0.514   2.992  0.2876 -0.1351 -0.0241
  114SAPE   C3411953   1.810   0.567   3.206  0.2973  0.4166 -0.1179
  114SAPE   H4X11954   1.708   0.550   3.246 -0.3502  0.5800 -1.6334
  114SAPE   H4Y11955   1.849   0.652   3.267  0.8325 -0.8383  1.3676
  114SAPE   C3511956   1.887   0.441   3.245  0.1338  0.2676 -0.3021
  114SAPE   H5X11957   1.996   0.451   3.224  0.4201 -1.4290  0.1969
  114SAPE   H5Y11958   1.861   0.355   3.180 -1.4013 -0.5707  1.3033
  114SAPE   C3611959   1.883   0.401   3.393  0.9608  0.4207  0.4770
  114SAPE   H6X11960   1.783   0.353   3.407  0.5742  0.8126 -0.7341
  114SAPE   H6Y11961   1.890   0.483   3.467  1.5880  1.6679 -0.9218
  114SAPE   C3711962   1.996   0.306   3.431 -0.2008 -0.4047 -0.1721
  114SAPE   H7X11963   2.090   0.362   3.411 -0.5685  1.9857  3.7284
  114SAPE   H7Y11964   1.997   0.217   3.365 -0.0114  1.1581 -2.4002
  114SAPE   C3811965   1.985   0.264   3.585  0.0783 -0.2465  0.7331
  114SAPE   H8X11966   2.037   0.168   3.607 -1.8180 -1.4161  0.3830
  114SAPE   H8Y11967   1.878   0.255   3.615 -0.2333  0.6949 -0.0354
  114SAPE   C3911968   2.034   0.362   3.683 -0.4926 -0.3613  0.0604
  114SAPE   H9X11969   1.970   0.453   3.687 -1.0484 -0.7485  0.1512
  114SAPE   H9Y11970   2.136   0.395   3.654 -0.1252 -0.8786  0.7210
  114SAPE  C31011971   2.069   0.303   3.832  0.4550 -0.0640  0.3014
  114SAPE  H10X11972   2.145   0.366   3.883 -0.0790  0.7351  0.1217
  114SAPE  H10Y11973   2.103   0.197   3.827 -0.3870 -0.4930  2.4405
  114SAPE  C31111974   1.942   0.319   3.920  0.3762  0.6211 -0.1487
  114SAPE  H11X11975   1.853   0.281   3.866  1.2965 -0.9004 -0.6559
  114SAPE  H11Y11976   1.916   0.426   3.930 -0.3557  0.3355  1.2378
  114SAPE  C31211977   1.962   0.258   4.067  1.4035 -0.0744  0.2985
  114SAPE  H12X11978   2.037   0.326   4.112  0.2030  2.4965 -1.3275
  114SAPE  H12Y11979   2.012   0.159   4.063  2.9258  0.3869  3.9982
  114SAPE  C31311980   1.828   0.251   4.149 -0.0819 -0.1877 -0.6112
  114SAPE  H13X11981   1.803   0.353   4.183 -0.8757 -0.7542  0.5674
  114SAPE  H13Y11982   1.842   0.209   4.251 -0.2540 -0.0243 -0.5198
  114SAPE  C31411983   1.704   0.185   4.085  0.0051 -0.1735  0.6510
  114SAPE  H14X11984   1.679   0.231   3.987  1.8659  1.3381  0.8211
  114SAPE  H14Y11985   1.618   0.192   4.155 -1.9316 -2.9488 -1.2582
  114SAPE  C31511986   1.735   0.035   4.062  0.0799  0.2608 -0.2658
  114SAPE  H15X11987   1.807  -0.012   4.133 -1.5436 -3.1068 -0.6681
  114SAPE  H15Y11988   1.767   0.029   3.956 -3.4944 -1.8248 -1.3797
  114SAPE  C31611989   1.606  -0.044   4.064 -0.4226  0.6144 -0.3170
  114SAPE  H16X11990   1.517   0.001   4.017 -0.6900  1.5443  1.0333
  114SAPE  H16Y11991   1.588  -0.053   4.174 -1.2892 -0.4457 -0.5361
  114SAPE  C31711992   1.623  -0.191   4.014 -0.3898  0.4073 -0.3744
  114SAPE  H17X11993   1.718  -0.230   4.055 -0.3179 -0.1946 -1.1007
  114SAPE  H17Y11994   1.628  -0.194   3.904 -0.4061 -2.7894 -0.3651
  114SAPE  C31811995   1.505  -0.277   4.055 -0.1275  0.3172 -0.5546
  114SAPE  H18X11996   1.416  -0.258   3.991 -0.8125  0.5436  0.4545
  114SAPE  H18Y11997   1.478  -0.265   4.162  1.7379 -0.7957  0.0907
  114SAPE  H18Z11998   1.537  -0.382   4.036 -1.1437  0.0521 -0.8589
  115SAPE     N11999   5.465   2.156   1.748  0.0161 -0.5949  0.2715
  115SAPE   HN112000   5.500   2.090   1.676  1.5318  2.1019 -1.6168
  115SAPE   HN212001   5.402   2.104   1.814 -0.0346 -3.0550 -1.5837
  115SAPE   HN312002   5.406   2.232   1.708 -1.2021 -1.8717 -0.4503
  115SAPE   C1212003   5.585   2.215   1.825 -0.4259  0.2960 -0.1803
  115SAPE  H12A12004   5.658   2.251   1.750  0.7647  0.8327  1.1806
  115SAPE  H12B12005   5.644   2.137   1.878 -0.7553 -1.0556 -1.7158
  115SAPE   C1112006   5.545   2.336   1.912 -0.2340  0.2516 -0.8150
  115SAPE  H11A12007   5.510   2.421   1.850  0.5377  1.4523  0.3383
  115SAPE  H11B12008   5.636   2.373   1.964 -0.4377  1.2233 -1.1463
  115SAPE     P12009   5.381   2.409   2.099 -0.0149 -0.2062  0.3385
  115SAPE   O1312010   5.472   2.526   2.101  0.5082 -0.2213  0.1107
  115SAPE   O1412011   5.245   2.434   2.054  0.8040  0.2929  0.1106
  115SAPE   O1212012   5.447   2.296   2.002  0.8267  0.0933 -0.3643
  115SAPE   O1112013   5.385   2.339   2.245 -0.1210  0.1785 -0.2882
  115SAPE    C112014   5.475   2.227   2.263  0.4782  0.0985  0.3990
  115SAPE    HA12015   5.456   2.153   2.183  1.7791  0.0558  0.1123
  115SAPE    HB12016   5.581   2.250   2.239  0.4627 -0.7772 -0.5752
  115SAPE    C212017   5.454   2.151   2.398  0.8504  0.1892 -0.1672
  115SAPE    HS12018   5.504   2.052   2.383  0.0827 -0.8157  3.0995
  115SAPE   O2112019   5.308   2.119   2.411  0.1564 -0.3975 -0.1395
  115SAPE   C2112020   5.261   2.025   2.332  0.5555  0.3105  0.4555
  115SAPE   O2212021   5.331   1.962   2.250  0.3711 -0.0779  0.0116
  115SAPE   C2212022   5.116   1.989   2.373  0.1952 -0.3195  0.0593
  115SAPE   H2R12023   5.057   2.075   2.411 -0.8247 -0.6084 -0.8314
  115SAPE   H2S12024   5.074   1.980   2.270 -0.1032 -1.1297  0.2445
  115SAPE    C312025   5.509   2.217   2.522 -0.1276  0.2419  0.3825
  115SAPE    HX12026   5.432   2.296   2.536  0.7330  1.2139 -0.2228
  115SAPE    HY12027   5.610   2.257   2.497  0.8070 -1.4071  1.2982
  115SAPE   O3112028   5.518   2.126   2.633  0.3527 -0.0352 -0.1694
  115SAPE   C3112029   5.491   2.167   2.750 -0.3738 -0.0581  0.0498
  115SAPE   O3212030   5.441   2.273   2.781 -0.4357 -1.0212  0.2262
  115SAPE   C3212031   5.555   2.071   2.847 -0.8839  0.1281  0.5897
  115SAPE   H2X12032   5.664   2.068   2.825 -1.1224 -0.3072 -0.6079
  115SAPE   H2Y12033   5.515   1.969   2.826  0.1850 -0.2643  0.3490
  115SAPE   C2312034   5.093   1.867   2.460  0.3003 -0.0775 -0.4287
  115SAPE   H3R12035   5.155   1.780   2.428 -0.5663  0.2329 -3.1827
  115SAPE   H3S12036   4.989   1.831   2.449  0.0498  0.4121  0.2622
  115SAPE   C2412037   5.114   1.912   2.611  0.0436  0.2585 -0.8095
  115SAPE   H4R12038   5.068   2.008   2.643 -1.1621 -1.8274  5.0485
  115SAPE   H4S12039   5.222   1.934   2.627  0.0722 -0.7399  0.6511
  115SAPE   C2512040   5.077   1.812   2.714 -0.0966  0.3197  0.4558
  115SAPE   H5R12041   5.112   1.711   2.687 -0.1657 -0.3490  2.6712
  115SAPE   C2612042   5.001   1.825   2.826 -0.2334 -0.1003 -0.9604
  115SAPE   H6R12043   4.998   1.733   2.886  0.0529  0.0425 -0.7232
  115SAPE   C2712044   4.949   1.953   2.885 -0.7555  0.1051  0.9410
  115SAPE   H7R12045   4.963   2.028   2.804 -3.3443 -1.4050 -1.0670
  115SAPE   H7S12046   5.008   1.986   2.973 -0.6617  1.7579  0.2919
  115SAPE   C2812047   4.798   1.952   2.920 -0.3383  0.9107 -0.7496
  115SAPE   H8R12048   4.722   1.942   2.842 -1.0774  0.4105  0.0200
  115SAPE   C2912049   4.754   1.937   3.042 -0.2500  0.0398  0.3180
  115SAPE   H9R12050   4.647   1.921   3.059 -0.1481  0.8636  1.9756
  115SAPE  C21012051   4.825   1.918   3.171 -0.8233  0.2584 -0.0162
  115SAPE  H10R12052   4.932   1.898   3.153 -0.1436  1.6307  2.1221
  115SAPE  H10S12053   4.795   1.818   3.210  3.8232 -0.9693  1.0190
  115SAPE  C21112054   4.827   2.038   3.260  0.2513  0.0587  0.1254
  115SAPE  H11R12055   4.828   2.131   3.201  0.2676 -0.1081 -0.1368
  115SAPE  C21212056   4.836   2.037   3.395 -0.5320 -0.3665  0.3748
  115SAPE  H12R12057   4.853   2.129   3.452  1.3093 -0.8653  0.6791
  115SAPE  C21312058   4.810   1.919   3.469 -0.3976 -0.4854  0.0716
  115SAPE  H13R12059   4.882   1.847   3.426  0.7281  2.0442 -2.6116
  115SAPE  H13S12060   4.706   1.886   3.449 -0.0266 -0.2715 -2.5105
  115SAPE  C21412061   4.821   1.913   3.617 -0.0813 -0.0513 -0.0279
  115SAPE  H14R12062   4.872   1.820   3.645 -2.9677 -1.9788 -0.6933
  115SAPE  C21512063   4.771   1.990   3.717  0.1868  0.5198 -0.3026
  115SAPE  H15R12064   4.777   1.958   3.822 -0.4529  1.0390 -0.1092
  115SAPE  C21612065   4.689   2.113   3.705  0.2960 -0.1464  0.6091
  115SAPE  H16R12066   4.646   2.125   3.604 -0.5465 -1.5888  0.7639
  115SAPE  H16S12067   4.757   2.199   3.722  0.1951  0.3512 -1.3425
  115SAPE  C21712068   4.581   2.124   3.813  0.3178  0.6211  0.0808
  115SAPE  H17R12069   4.632   2.123   3.912  0.4369  0.5350  0.0193
  115SAPE  H17S12070   4.514   2.036   3.812 -1.5078  1.9544  0.4089
  115SAPE  C21812071   4.495   2.254   3.800 -0.6614 -0.9092  0.3780
  115SAPE  H18R12072   4.480   2.292   3.697 -1.4871 -2.4557 -0.1005
  115SAPE  H18S12073   4.560   2.333   3.842 -0.8408 -0.4950 -0.1069
  115SAPE  C21912074   4.358   2.238   3.871 -0.7268  0.3765 -0.2165
  115SAPE  H19R12075   4.307   2.144   3.843  0.5961 -0.3071 -0.4008
  115SAPE  H19S12076   4.297   2.323   3.834  0.8208  2.1894  1.1407
  115SAPE  C22012077   4.369   2.250   4.029 -0.4077  0.3168  0.2993
  115SAPE  H20R12078   4.429   2.173   4.082  0.6813  1.0716  0.1907
  115SAPE  H20S12079   4.266   2.254   4.070 -0.9163  0.5677 -0.9423
  115SAPE  H20T12080   4.423   2.346   4.045  2.0089 -0.8261 -0.5133
  115SAPE   C3312081   5.514   2.110   2.992  0.3475 -0.0815 -0.3322
  115SAPE   H3X12082   5.512   2.219   3.013 -2.6425 -0.1009 -0.1247
  115SAPE   H3Y12083   5.595   2.071   3.058  0.0245  1.7311  1.2295
  115SAPE   C3412084   5.374   2.053   3.042 -0.0942  0.5653 -0.6190
  115SAPE   H4X12085   5.383   1.943   3.035  2.1507  0.7011 -0.5745
  115SAPE   H4Y12086   5.296   2.093   2.974 -0.1313  0.7889 -0.4449
  115SAPE   C3512087   5.349   2.089   3.188 -0.0907  0.7193 -0.2821
  115SAPE   H5X12088   5.334   2.199   3.198 -0.7649  0.8374 -2.1950
  115SAPE   H5Y12089   5.430   2.059   3.257  0.0204 -0.2707 -0.8199
  115SAPE   C3612090   5.217   2.020   3.235 -0.4361  0.0492 -0.0770
  115SAPE   H6X12091   5.206   1.918   3.192  1.2106 -0.5351  0.7898
  115SAPE   H6Y12092   5.126   2.078   3.208 -1.4769 -1.2678  0.4708
  115SAPE   C3712093   5.210   1.989   3.393 -0.2995  0.3255 -0.2405
  115SAPE   H7X12094   5.294   1.922   3.421 -0.8218 -0.9550 -1.5976
  115SAPE   H7Y12095   5.127   1.919   3.417 -1.1993  1.7651  1.0369
  115SAPE   C3812096   5.212   2.112   3.481  0.0187 -0.0961 -0.3655
  115SAPE   H8X12097   5.145   2.192   3.444 -4.5846 -2.8715  1.1622
  115SAPE   H8Y12098   5.321   2.135   3.487  0.1783 -0.5185 -1.4415
  115SAPE   C3912099   5.173   2.072   3.626 -0.4991 -0.3251 -0.2376
  115SAPE   H9X12100   5.218   1.976   3.660 -0.3089  0.2295  1.1833
  115SAPE   H9Y12101   5.062   2.071   3.625 -0.5401 -1.3091  1.5387
  115SAPE  C31012102   5.212   2.184   3.720  0.7065 -0.2093  0.3648
  115SAPE  H10X12103   5.202   2.274   3.656 -1.3138  1.6459  3.0392
  115SAPE  H10Y12104   5.320   2.177   3.741  0.0486 -2.1004  3.9078
  115SAPE  C31112105   5.133   2.183   3.849  0.3779  0.2643  0.5418
  115SAPE  H11X12106   5.023   2.189   3.836  0.3460 -1.1629 -0.0191
  115SAPE  H11Y12107   5.161   2.270   3.913  0.0177  2.4262 -2.0412
  115SAPE  C31212108   5.157   2.046   3.925 -0.0323  0.0714 -0.2492
  115SAPE  H12X12109   5.265   2.021   3.918  0.3619  1.8459 -0.7475
  115SAPE  H12Y12110   5.100   1.972   3.864 -1.7493  1.8930 -0.9758
  115SAPE  C31312111   5.107   2.035   4.071  0.8909 -0.0263 -0.0432
  115SAPE  H13X12112   5.169   2.091   4.145 -0.6754  0.5465  0.8880
  115SAPE  H13Y12113   5.115   1.931   4.110 -2.1188 -0.0832  0.6706
  115SAPE  C31412114   4.962   2.076   4.077  0.0166  0.3135 -0.0998
  115SAPE  H14X12115   4.901   2.022   4.002 -1.1621  0.0394  1.0104
  115SAPE  H14Y12116   4.957   2.182   4.044  0.8386  0.1406 -0.8078
  115SAPE  C31512117   4.898   2.070   4.212  0.0278 -0.7850  0.8937
  115SAPE  H15X12118   4.925   1.972   4.258  0.2491 -1.6944 -1.0693
  115SAPE  H15Y12119   4.790   2.080   4.190 -0.1701  0.0548  2.1410
  115SAPE  C31612120   4.916   2.187   4.309 -0.2507  0.5251 -0.3621
  115SAPE  H16X12121   4.910   2.284   4.255 -0.7255  0.6892 -0.0219
  115SAPE  H16Y12122   5.024   2.193   4.336 -0.5065 -0.1948  0.9183
  115SAPE  C31712123   4.811   2.201   4.424  0.2138  0.6805 -0.0604
  115SAPE  H17X12124   4.824   2.109   4.486  1.4014 -0.3068 -1.6819
  115SAPE  H17Y12125   4.706   2.201   4.390 -0.5496 -0.5749  2.1103
  115SAPE  C31812126   4.836   2.318   4.518  0.8657  0.5911 -0.2318
  115SAPE  H18X12127   4.942   2.337   4.544  0.7216  0.0130  0.8097
  115SAPE  H18Y12128   4.778   2.317   4.613  1.3121 -1.2135  0.0573
  115SAPE  H18Z12129   4.800   2.407   4.462  0.0578  1.1763  1.1603
  116SAPE     N12130   5.682   2.599   2.237 -0.2459  0.3189  0.4392
  116SAPE   HN112131   5.593   2.571   2.192 -0.3261 -0.8970  1.3089
  116SAPE   HN212132   5.670   2.603   2.340 -1.1102  1.0167  0.3187
  116SAPE   HN312133   5.707   2.689   2.191 -0.3083 -1.0545 -2.5082
  116SAPE   C1212134   5.779   2.492   2.183  0.5076 -0.2317 -0.9336
  116SAPE  H12A12135   5.790   2.502   2.073 -0.9554 -0.8891 -1.1598
  116SAPE  H12B12136   5.732   2.395   2.210  1.2334 -0.3162  0.1100
  116SAPE   C1112137   5.909   2.506   2.268 -0.1453  0.1124 -0.0677
  116SAPE  H11A12138   5.978   2.434   2.218 -1.5248  0.6400 -2.9602
  116SAPE  H11B12139   5.899   2.481   2.375  1.9096 -0.0724  0.1161
  116SAPE     P12140   6.079   2.685   2.351  0.2423  0.2931 -0.1032
  116SAPE   O1312141   6.180   2.583   2.348 -0.2123 -0.2712 -0.1236
  116SAPE   O1412142   6.126   2.822   2.321 -0.7196 -0.1089  0.2515
  116SAPE   O1212143   5.958   2.641   2.257  0.2639  0.2101 -0.1261
  116SAPE   O1112144   6.022   2.674   2.490 -0.4130 -0.3300  0.3836
  116SAPE    C112145   5.936   2.769   2.552 -0.1567  0.6745  0.2061
  116SAPE    HA12146   5.967   2.871   2.523  3.4319 -0.4342 -0.4395
  116SAPE    HB12147   5.831   2.750   2.521  0.0566 -0.6119  0.1981
  116SAPE    C212148   5.941   2.751   2.707  0.2624 -0.1387 -0.0312
  116SAPE    HS12149   5.881   2.825   2.763 -0.0921 -0.3288 -0.1515
  116SAPE   O2112150   6.077   2.758   2.749  0.6820  0.0852  0.1303
  116SAPE   C2112151   6.123   2.879   2.755 -0.2398  0.9589 -0.1669
  116SAPE   O2212152   6.052   2.977   2.755  0.2922  0.0901  0.0727
  116SAPE   C2212153   6.276   2.876   2.740  0.6301 -0.3873 -1.0958
  116SAPE   H2R12154   6.315   2.787   2.793  0.2438  1.1173  1.8958
  116SAPE   H2S12155   6.297   2.866   2.631  2.8104 -0.6670 -0.6959
  116SAPE    C312156   5.883   2.608   2.745 -0.2317  0.2380  0.2045
  116SAPE    HX12157   5.957   2.526   2.735 -1.1176 -0.3522 -2.1618
  116SAPE    HY12158   5.806   2.588   2.668 -0.0723  3.4872 -0.9606
  116SAPE   O3112159   5.824   2.604   2.880  0.4978  0.1926  0.0060
  116SAPE   C3112160   5.795   2.476   2.908 -0.5851  0.4135  0.2540
  116SAPE   O3212161   5.787   2.386   2.824 -0.3808  0.8366  0.1844
  116SAPE   C3212162   5.776   2.464   3.065 -0.3458 -1.3089  0.1598
  116SAPE   H2X12163   5.880   2.441   3.099  0.3402  0.3792 -0.6536
  116SAPE   H2Y12164   5.715   2.372   3.073 -0.5928 -1.1173  0.4739
  116SAPE   C2312165   6.341   3.015   2.791 -0.3373  0.3056  0.0952
  116SAPE   H3R12166   6.307   3.090   2.716 -2.3080 -0.6531 -0.0582
  116SAPE   H3S12167   6.451   3.014   2.783 -0.3449 -0.6081 -0.1090
  116SAPE   C2412168   6.303   3.059   2.937 -0.6595 -0.4538  0.0849
  116SAPE   H4R12169   6.195   3.085   2.938 -0.6470 -0.3696  1.3584
  116SAPE   H4S12170   6.362   3.152   2.947  1.3029 -1.7444  1.2229
  116SAPE   C2512171   6.358   2.962   3.038  0.1599 -0.2541 -0.1630
  116SAPE   H5R12172   6.461   2.925   3.031  0.6501  1.1861 -1.0315
  116SAPE   C2612173   6.282   2.915   3.133 -0.3430  0.7190  0.5855
  116SAPE   H6R12174   6.343   2.844   3.190  1.2649  0.3199 -1.5322
  116SAPE   C2712175   6.137   2.945   3.176 -0.8356 -0.8928 -0.1265
  116SAPE   H7R12176   6.076   2.980   3.090  0.3775 -2.7546 -1.8267
  116SAPE   H7S12177   6.145   3.024   3.253  0.0602  0.3325 -1.4202
  116SAPE   C2812178   6.075   2.820   3.240 -0.0922  0.3683  0.3405
  116SAPE   H8R12179   6.092   2.735   3.172  1.0286  1.7952 -1.2468
  116SAPE   C2912180   6.017   2.804   3.358 -0.8619  0.3748 -0.1910
  116SAPE   H9R12181   5.995   2.700   3.385 -0.5507 -0.1565 -1.8382
  116SAPE  C21012182   5.981   2.907   3.457  0.6748  0.5912 -0.0785
  116SAPE  H10R12183   5.951   2.998   3.402 -1.5836 -1.2033 -2.0417
  116SAPE  H10S12184   6.069   2.925   3.522  0.5549 -2.3816  1.0573
  116SAPE  C21112185   5.867   2.868   3.549  0.6015  0.0709  0.7720
  116SAPE  H11R12186   5.773   2.875   3.493  0.9665 -1.0238 -0.0251
  116SAPE  C21212187   5.865   2.826   3.675 -0.1089  0.3187  0.2823
  116SAPE  H12R12188   5.772   2.790   3.721  0.6572 -0.1439  1.5345
  116SAPE  C21312189   5.987   2.811   3.763 -0.3349 -0.3752  0.2081
  116SAPE  H13R12190   6.075   2.812   3.695  0.3738 -1.9816  1.0429
  116SAPE  H13S12191   6.004   2.708   3.803  1.0199 -0.4541 -0.4986
  116SAPE  C21412192   5.997   2.922   3.854 -0.1693  0.8939 -0.3578
  116SAPE  H14R12193   6.039   3.014   3.809  0.5121  0.3765 -0.8034
  116SAPE  C21512194   5.972   2.917   3.987 -0.4808  0.8187 -0.3906
  116SAPE  H15R12195   5.979   3.006   4.051  0.2911  0.1721  0.4491
  116SAPE  C21612196   5.938   2.785   4.065  0.0349 -0.1212  0.6549
  116SAPE  H16R12197   5.955   2.796   4.174  0.0349  1.1160  0.5366
  116SAPE  H16S12198   5.997   2.695   4.036  0.6701  0.4906 -0.0140
  116SAPE  C21712199   5.790   2.744   4.054  0.6526  0.0659 -0.4689
  116SAPE  H17R12200   5.759   2.719   3.950  1.8160  0.7566 -0.9989
  116SAPE  H17S12201   5.731   2.834   4.084  1.0736  0.4029 -0.6406
  116SAPE  C21812202   5.745   2.617   4.133 -0.6027 -0.0193 -0.0438
  116SAPE  H18R12203   5.779   2.529   4.074  0.2452  0.3210 -0.0737
  116SAPE  H18S12204   5.634   2.607   4.136 -0.5622 -0.6053 -0.2634
  116SAPE  C21912205   5.812   2.605   4.276  0.6762  0.2042  0.4936
  116SAPE  H19R12206   5.779   2.696   4.330 -0.9579  1.3365 -2.1594
  116SAPE  H19S12207   5.923   2.609   4.275  0.7318 -0.9869  0.4039
  116SAPE  C22012208   5.769   2.480   4.351 -0.0722 -0.1666  0.7905
  116SAPE  H20R12209   5.815   2.464   4.451  2.9263  0.0595 -0.4502
  116SAPE  H20S12210   5.774   2.388   4.289  0.9172 -0.6101  1.4927
  116SAPE  H20T12211   5.663   2.501   4.377 -0.2892 -0.5465  0.2288
  116SAPE   C3312212   5.718   2.590   3.129  0.7226  0.4194 -0.4476
  116SAPE   H3X12213   5.768   2.682   3.092  1.9199 -0.6091 -1.5379
  116SAPE   H3Y12214   5.748   2.586   3.236  0.1408  2.8599 -0.1393
  116SAPE   C3412215   5.567   2.586   3.124  0.2060  0.6012  0.7306
  116SAPE   H4X12216   5.540   2.553   3.021  2.3715  3.0969 -0.7525
  116SAPE   H4Y12217   5.548   2.696   3.122 -2.4940  0.2082  0.6586
  116SAPE   C3512218   5.498   2.503   3.218  0.0618  0.4550 -0.2352
  116SAPE   H5X12219   5.540   2.401   3.206  3.0020  1.0752  2.9979
  116SAPE   H5Y12220   5.390   2.508   3.193 -0.2383  1.3535  1.1489
  116SAPE   C3612221   5.517   2.539   3.369  0.3946  0.0421 -0.7311
  116SAPE   H6X12222   5.455   2.630   3.381 -2.1078 -1.3970 -1.8745
  116SAPE   H6Y12223   5.624   2.555   3.397  0.5382 -2.7639  0.7679
  116SAPE   C3712224   5.470   2.420   3.464 -0.2156  0.3644  0.0185
  116SAPE   H7X12225   5.524   2.325   3.442 -0.1701  0.4681 -0.3272
  116SAPE   H7Y12226   5.360   2.402   3.455 -0.3382  0.5557  1.0427
  116SAPE   C3812227   5.493   2.439   3.617  0.7804 -0.0333  0.3260
  116SAPE   H8X12228   5.439   2.352   3.659  1.9370 -0.6575  0.5437
  116SAPE   H8Y12229   5.442   2.533   3.647  2.8679  1.5964 -0.8606
  116SAPE   C3912230   5.636   2.429   3.661 -0.7001 -0.1142 -0.0603
  116SAPE   H9X12231   5.693   2.504   3.602 -2.2068  0.7584 -0.4471
  116SAPE   H9Y12232   5.672   2.326   3.637  1.5391  0.4189  0.7699
  116SAPE  C31012233   5.655   2.466   3.807 -0.0096 -0.2901 -0.2042
  116SAPE  H10X12234   5.633   2.572   3.832 -2.0318 -0.8908  0.7623
  116SAPE  H10Y12235   5.763   2.449   3.824  0.4037 -0.1114 -2.3636
  116SAPE  C31112236   5.559   2.393   3.905 -0.0781 -0.0308 -0.0746
  116SAPE  H11X12237   5.452   2.393   3.873  0.3917  0.8232 -1.7932
  116SAPE  H11Y12238   5.567   2.437   4.006  0.6866 -0.4437  0.0473
  116SAPE  C31212239   5.600   2.243   3.932  0.1083  0.3519  0.5968
  116SAPE  H12X12240   5.706   2.243   3.964  0.4167  1.4367 -0.3440
  116SAPE  H12Y12241   5.617   2.179   3.843  2.2990 -1.0887  1.9650
  116SAPE  C31312242   5.502   2.183   4.030  0.7157 -0.6465  0.2705
  116SAPE  H13X12243   5.478   2.076   4.012  0.4734 -0.6525  0.6177
  116SAPE  H13Y12244   5.407   2.237   4.013  1.2228 -0.1742 -1.1408
  116SAPE  C31412245   5.538   2.216   4.169 -0.1495  0.0971 -0.4858
  116SAPE  H14X12246   5.539   2.326   4.181  0.6248 -0.0352  0.8031
  116SAPE  H14Y12247   5.645   2.187   4.173 -0.0590  0.5655  0.5036
  116SAPE  C31512248   5.450   2.158   4.278  0.8203  0.4381 -0.3979
  116SAPE  H15X12249   5.448   2.047   4.290  1.3251  0.4083 -0.5621
  116SAPE  H15Y12250   5.344   2.185   4.261  0.4630 -0.9074 -0.4154
  116SAPE  C31612251   5.487   2.204   4.422  0.3104 -0.0375  0.7751
  116SAPE  H16X12252   5.401   2.194   4.492  0.5004  0.4117  1.0768
  116SAPE  H16Y12253   5.494   2.315   4.420 -2.4685  0.2396 -2.8899
  116SAPE  C31712254   5.607   2.123   4.489  1.1627 -0.0846 -0.3565
  116SAPE  H17X12255   5.700   2.155   4.437  0.4092  1.1365 -1.0148
  116SAPE  H17Y12256   5.590   2.015   4.471 -1.9557 -0.0162  1.3801
  116SAPE  C31812257   5.626   2.150   4.634 -0.3296 -0.1845  0.0559
  116SAPE  H18X12258   5.618   2.260   4.650  0.5538  0.3822 -2.8337
  116SAPE  H18Y12259   5.722   2.114   4.677 -0.3204 -2.4305 -1.6444
  116SAPE  H18Z12260   5.540   2.113   4.694 -0.0965 -0.6946  0.0782
  117SOPE     N12261   3.178   0.277   6.909  0.0737 -0.2001  0.1823
  117SOPE   HN112262   3.186   0.378   6.889 -0.1052 -0.6520 -2.5501
  117SOPE   HN212263   3.246   0.255   6.985  0.1752  3.2886  1.2846
  117SOPE   HN312264   3.220   0.236   6.824  2.5194 -0.6518  1.5295
  117SOPE   C1212265   3.034   0.229   6.929 -0.1838 -0.8810 -0.2276
  117SOPE  H12A12266   2.989   0.310   6.991 -0.2851 -0.1286 -1.2602
  117SOPE  H12B12267   3.024   0.130   6.979 -1.4806 -0.0798  1.1969
  117SOPE   C1112268   2.967   0.206   6.799  0.1020  0.2709  0.0168
  117SOPE  H11A12269   3.013   0.124   6.739 -2.1926 -0.7863 -0.4285
  117SOPE  H11B12270   2.976   0.292   6.730 -1.3145 -0.6402 -1.3851
  117SOPE     P12271   2.707   0.239   6.753 -0.1588 -0.2770 -0.1258
  117SOPE   O1312272   2.677   0.367   6.820  0.3895  0.3355 -0.4483
  117SOPE   O1412273   2.591   0.149   6.742 -0.2147  0.4665 -0.1074
  117SOPE   O1212274   2.832   0.160   6.815 -0.2900 -0.5624 -0.0492
  117SOPE   O1112275   2.756   0.264   6.605  0.3975 -0.6354 -0.0678
  117SOPE    C112276   2.774   0.151   6.512  0.1513  0.9253 -0.1948
  117SOPE    HA12277   2.694   0.073   6.513  1.4547 -0.4778  1.4095
  117SOPE    HB12278   2.867   0.098   6.542 -0.5471 -1.0596 -1.3392
  117SOPE    C212279   2.788   0.200   6.365 -0.3933 -0.1348 -0.2235
  117SOPE    HS12280   2.804   0.114   6.296 -0.7438 -0.3397 -0.0516
  117SOPE   O2112281   2.896   0.301   6.348  0.3238  0.0169 -0.1791
  117SOPE   C2112282   3.018   0.247   6.345  0.3239  0.0850 -0.5932
  117SOPE   O2212283   3.041   0.129   6.361 -0.0011 -0.2466  0.5294
  117SOPE   C2212284   3.125   0.348   6.319 -0.0379  0.5338  0.0304
  117SOPE   H2R12285   3.205   0.345   6.396 -0.3971  3.7162  0.6582
  117SOPE   H2S12286   3.074   0.446   6.321 -0.3647  0.3613  1.1622
  117SOPE    C312287   2.652   0.257   6.305  0.1269 -0.1649 -1.0017
  117SOPE    HX12288   2.627   0.337   6.378 -0.3979 -1.8270  0.7235
  117SOPE    HY12289   2.573   0.179   6.318  0.1991  0.2492  4.0678
  117SOPE   O3112290   2.663   0.309   6.174 -0.3479  0.1078  0.3016
  117SOPE   C3112291   2.641   0.216   6.077 -0.1627  0.9700 -0.1126
  117SOPE   O3212292   2.627   0.095   6.098  0.3454  0.1901  0.3448
  117SOPE   C3212293   2.651   0.296   5.950  0.4532  0.4363 -0.0904
  117SOPE   H2X12294   2.744   0.356   5.942  0.8468 -0.3401 -1.5825
  117SOPE   H2Y12295   2.567   0.369   5.952 -2.3474 -2.5680  0.8971
  117SOPE   C2312296   3.187   0.319   6.179 -0.4533  0.2703 -0.2362
  117SOPE   H3R12297   3.219   0.215   6.158  2.0277  0.9091  0.0630
  117SOPE   H3S12298   3.281   0.379   6.172 -0.6650  0.5270 -1.0357
  117SOPE   C2412299   3.090   0.337   6.063 -0.2653  0.5185 -0.0910
  117SOPE   H4R12300   3.021   0.253   6.038  0.6112 -0.0916 -0.5040
  117SOPE   H4S12301   3.023   0.425   6.072 -2.2776 -1.0955  1.5389
  117SOPE   C2512302   3.159   0.374   5.930  0.0172  0.1953 -0.0763
  117SOPE   H5R12303   3.184   0.482   5.930  0.0521  0.3959  4.4253
  117SOPE   H5S12304   3.240   0.307   5.893  0.2494 -1.4358  3.0481
  117SOPE   C2612305   3.051   0.356   5.828  0.2090  0.2582 -0.0260
  117SOPE   H6R12306   3.008   0.254   5.836 -0.3831  0.5732  0.9789
  117SOPE   H6S12307   2.967   0.427   5.839 -0.3980 -0.0939 -1.8919
  117SOPE   C2712308   3.111   0.377   5.690  0.6415  0.1629 -0.4456
  117SOPE   H7R12309   3.137   0.485   5.681 -0.1230  0.2670 -1.7017
  117SOPE   H7S12310   3.204   0.317   5.686  2.1406  2.3212  0.1216
  117SOPE   C2812311   3.027   0.337   5.573  0.4188  0.6067  0.1133
  117SOPE   H8R12312   2.932   0.391   5.561 -0.9523 -1.9288 -1.3876
  117SOPE   H8S12313   3.082   0.365   5.481 -1.3242 -0.9534 -1.4752
  117SOPE   C2912314   2.997   0.193   5.574 -0.5882  0.1437  0.1796
  117SOPE   H9112315   2.917   0.160   5.643 -1.8250  0.4649 -1.0614
  117SOPE  C21012316   3.064   0.090   5.512 -0.5275 -0.1954  0.1224
  117SOPE  H10112317   3.045  -0.016   5.531 -1.0433  0.0058  0.7628
  117SOPE  C21112318   3.184   0.112   5.425 -1.1544  0.4711  0.3417
  117SOPE  H11R12319   3.266   0.048   5.463 -1.2209  1.7720  2.8985
  117SOPE  H11S12320   3.215   0.219   5.423  0.3761  0.0415  0.0052
  117SOPE  C21212321   3.163   0.098   5.270  0.6009 -0.1669  0.0057
  117SOPE  H12R12322   3.106   0.011   5.230  0.2825  0.5079 -1.0638
  117SOPE  H12S12323   3.265   0.108   5.226  0.7952  2.3391  0.8586
  117SOPE  C21312324   3.068   0.212   5.207 -0.1198  0.3660  0.2068
  117SOPE  H13R12325   3.129   0.301   5.233  2.4108 -1.2821  0.2809
  117SOPE  H13S12326   2.971   0.204   5.260 -0.0021 -1.5478  0.1897
  117SOPE  C21412327   3.053   0.193   5.059  0.4736 -0.4894 -0.3899
  117SOPE  H14R12328   2.988   0.103   5.056 -0.3209 -0.0720  1.9603
  117SOPE  H14S12329   3.152   0.184   5.010  0.6251 -0.3329 -0.1139
  117SOPE  C21512330   2.991   0.320   4.988 -0.3209 -0.1700 -0.1814
  117SOPE  H15R12331   3.068   0.399   5.004  2.4557 -2.8184  0.3500
  117SOPE  H15S12332   2.893   0.349   5.032 -0.3715  1.1135 -1.0883
  117SOPE  C21612333   2.978   0.301   4.841 -0.1218 -0.0474 -0.4767
  117SOPE  H16R12334   2.883   0.247   4.825  0.3172 -0.8549 -0.3791
  117SOPE  H16S12335   3.055   0.224   4.818  0.0319  0.3359 -1.3029
  117SOPE  C21712336   2.986   0.424   4.751  0.5893 -0.6217  0.7557
  117SOPE  H17R12337   2.992   0.389   4.646 -1.2706 -1.4319  0.8884
  117SOPE  H17S12338   3.083   0.472   4.775  1.3166 -0.5690 -2.0031
  117SOPE  C21812339   2.868   0.520   4.781 -0.4911  0.3448 -0.3384
  117SOPE  H18R12340   2.770   0.469   4.768 -1.0253  1.4982 -1.0869
  117SOPE  H18S12341   2.871   0.584   4.690 -1.5475  1.6733  0.5353
  117SOPE  H18T12342   2.888   0.581   4.871 -0.6440 -1.6027  1.0800
  117SOPE   C3312343   2.636   0.210   5.816 -0.8403 -0.2421  0.4867
  117SOPE   H3X12344   2.552   0.138   5.818 -0.8692 -0.2056  0.6537
  117SOPE   H3Y12345   2.729   0.149   5.822 -0.7171 -0.3320 -1.7120
  117SOPE   C3412346   2.652   0.302   5.685 -0.1151 -0.3499 -0.3159
  117SOPE   H4X12347   2.741   0.365   5.703  0.5346 -1.4634  0.5136
  117SOPE   H4Y12348   2.564   0.370   5.685  0.5432  0.5547 -2.2459
  117SOPE   C3512349   2.635   0.221   5.556 -0.2737 -0.5177 -0.4604
  117SOPE   H5X12350   2.535   0.174   5.566 -0.0063 -1.2411 -1.0993
  117SOPE   H5Y12351   2.711   0.143   5.537  0.6872  0.8234 -2.4686
  117SOPE   C3612352   2.655   0.315   5.434  0.8473  0.0992  0.0473
  117SOPE   H6X12353   2.755   0.364   5.429  0.8540  0.1676  0.7223
  117SOPE   H6Y12354   2.588   0.403   5.436 -0.6670 -1.0235  0.5062
  117SOPE   C3712355   2.634   0.225   5.313  0.3429  0.2085 -0.3422
  117SOPE   H7X12356   2.537   0.169   5.318  0.1164  0.5196 -1.0821
  117SOPE   H7Y12357   2.717   0.151   5.302  0.8706  0.3267  2.2426
  117SOPE   C3812358   2.621   0.300   5.180 -0.0263  0.7623  0.4522
  117SOPE   H8X12359   2.707   0.367   5.159 -0.6599  1.6859  0.7510
  117SOPE   H8Y12360   2.525   0.355   5.191  0.0806  1.0409  0.0289
  117SOPE   C3912361   2.607   0.197   5.064 -0.3863 -0.7854  0.3773
  117SOPE   H9X12362   2.525   0.125   5.088  0.0150 -0.9538  1.2995
  117SOPE   H9Y12363   2.701   0.138   5.059 -0.2729 -0.6283  0.6255
  117SOPE  C31012364   2.573   0.272   4.935  0.4579 -0.1170 -0.0072
  117SOPE  H10X12365   2.637   0.363   4.927 -0.0293  0.1274 -1.2289
  117SOPE  H10Y12366   2.478   0.322   4.962  0.8587  0.7138 -0.0849
  117SOPE  C31112367   2.554   0.197   4.805 -0.1808 -0.3003  0.1500
  117SOPE  H11X12368   2.491   0.108   4.824 -0.8479 -0.2227 -1.5436
  117SOPE  H11Y12369   2.651   0.154   4.770 -1.6599 -2.5944 -1.4312
  117SOPE  C31212370   2.487   0.289   4.702  0.0718  0.6231 -0.3032
  117SOPE  H12X12371   2.538   0.388   4.711 -0.0208  0.5805  0.8533
  117SOPE  H12Y12372   2.381   0.312   4.726 -0.1565  3.1636 -3.0400
  117SOPE  C31312373   2.498   0.223   4.564 -0.0116  0.2489  0.0912
  117SOPE  H13X12374   2.444   0.126   4.570  0.1561  0.0617 -1.1586
  117SOPE  H13Y12375   2.604   0.209   4.537 -0.3856 -2.3886 -0.2663
  117SOPE  C31412376   2.427   0.302   4.451 -0.4488 -0.2001 -0.5162
  117SOPE  H14X12377   2.475   0.402   4.453 -0.7158 -0.0173 -2.0211
  117SOPE  H14Y12378   2.318   0.316   4.471 -0.2960 -1.0601  1.0110
  117SOPE  C31512379   2.438   0.247   4.310  0.3975 -0.7541 -0.4597
  117SOPE  H15X12380   2.402   0.142   4.311 -0.1980 -0.5727  1.4379
  117SOPE  H15Y12381   2.544   0.254   4.278 -0.1543 -0.0490 -2.2704
  117SOPE  C31612382   2.357   0.325   4.197  0.1113 -0.5947  0.4328
  117SOPE  H16X12383   2.250   0.307   4.220 -0.1963  1.2485  0.5560
  117SOPE  H16Y12384   2.381   0.298   4.092 -0.3002 -0.6097  0.3419
  117SOPE  C31712385   2.377   0.476   4.203  0.4457 -1.0951 -0.6263
  117SOPE  H17X12386   2.329   0.520   4.293 -0.6297  0.0616 -1.7387
  117SOPE  H17Y12387   2.310   0.519   4.126 -1.3455  0.6291  1.7381
  117SOPE  C31812388   2.525   0.525   4.189  0.0556 -0.3964  0.0528
  117SOPE  H18X12389   2.587   0.516   4.280 -1.1971  1.7781  1.2153
  117SOPE  H18Y12390   2.538   0.632   4.162 -0.7948  0.5303  2.9659
  117SOPE  H18Z12391   2.574   0.460   4.113  2.0358 -2.5663  2.9742
  118SOPE     N12392   6.650   1.994   6.716 -0.4139 -0.2155  0.2312
  118SOPE   HN112393   6.703   2.079   6.690 -0.4967 -1.0768 -3.1760
  118SOPE   HN212394   6.641   1.930   6.634  2.0028  0.4006 -0.5971
  118SOPE   HN312395   6.557   2.031   6.743 -0.2472  0.7404 -0.4647
  118SOPE   C1212396   6.725   1.916   6.831  0.3544 -0.2570  0.0356
  118SOPE  H12A12397   6.653   1.838   6.866 -1.4694  1.0553 -0.6230
  118SOPE  H12B12398   6.735   1.983   6.919  1.6634 -1.8849  1.1732
  118SOPE   C1112399   6.858   1.865   6.785 -0.1859  0.2827  0.5716
  118SOPE  H11A12400   6.914   1.812   6.865 -0.5944  0.2888  0.8714
  118SOPE  H11B12401   6.919   1.950   6.749 -2.3918  2.0615  0.8179
  118SOPE     P12402   6.898   1.639   6.655  0.1295 -0.7497  0.1948
  118SOPE   O1312403   6.789   1.543   6.629 -0.3103  0.5241 -0.1565
  118SOPE   O1412404   6.986   1.607   6.772  0.2221  0.1134  0.5582
  118SOPE   O1212405   6.835   1.778   6.675  0.0653 -0.1650 -1.0198
  118SOPE   O1112406   6.991   1.643   6.528  0.0696 -0.9185  0.5741
  118SOPE    C112407   6.981   1.749   6.424  0.0065 -0.1953  0.2277
  118SOPE    HA12408   7.076   1.747   6.367 -0.4837 -0.5894 -0.5892
  118SOPE    HB12409   6.956   1.843   6.478  0.9402  0.0186  0.3007
  118SOPE    C212410   6.876   1.725   6.324 -0.1221  0.4219 -0.3321
  118SOPE    HS12411   6.782   1.722   6.383 -0.5303  0.2967 -0.9770
  118SOPE   O2112412   6.910   1.601   6.258  0.5281  0.4588 -0.0700
  118SOPE   C2112413   6.819   1.544   6.185  0.1612  0.4303  0.1480
  118SOPE   O2212414   6.700   1.572   6.179 -0.0934 -0.3142 -0.2269
  118SOPE   C2212415   6.883   1.442   6.084  0.0739 -0.7084  0.1459
  118SOPE   H2R12416   6.801   1.413   6.015  0.5163  1.2998 -1.3072
  118SOPE   H2S12417   6.915   1.345   6.129  1.5711 -0.7036 -0.8529
  118SOPE    C312418   6.887   1.842   6.222 -0.0519  0.4901 -0.7083
  118SOPE    HX12419   6.991   1.843   6.183  0.5905  0.4271  0.9379
  118SOPE    HY12420   6.878   1.943   6.266 -0.6405  0.1014  0.0809
  118SOPE   O3112421   6.810   1.838   6.101  0.6075 -0.2616 -0.6085
  118SOPE   C3112422   6.688   1.907   6.099 -0.1177 -0.6098 -0.2790
  118SOPE   O3212423   6.642   1.978   6.188  0.3305  0.3531  0.9683
  118SOPE   C3212424   6.626   1.894   5.960  0.5524  0.5751 -0.0748
  118SOPE   H2X12425   6.712   1.889   5.890  1.7772 -1.5514  1.4230
  118SOPE   H2Y12426   6.553   1.975   5.941  0.7165  0.6854 -0.2410
  118SOPE   C2312427   6.990   1.508   6.002  0.2866  0.1080 -0.1061
  118SOPE   H3R12428   7.039   1.425   5.946  0.9545 -0.7835  1.7257
  118SOPE   H3S12429   7.072   1.559   6.057  1.7296 -1.9505 -0.2102
  118SOPE   C2412430   6.935   1.605   5.902  0.4346  0.3613 -0.9182
  118SOPE   H4R12431   6.868   1.559   5.827  0.3721 -0.0667 -0.5996
  118SOPE   H4S12432   6.866   1.679   5.947 -0.2237 -0.5865 -0.3398
  118SOPE   C2512433   7.050   1.699   5.849  0.7507  0.7922 -0.1781
  118SOPE   H5R12434   7.114   1.749   5.925 -0.4846 -0.3612  1.6811
  118SOPE   H5S12435   7.107   1.622   5.792 -0.5665 -0.0270 -0.4115
  118SOPE   C2612436   6.984   1.809   5.756  0.3142 -0.1183  0.0787
  118SOPE   H6R12437   6.901   1.754   5.705 -0.5317  0.8236  0.4100
  118SOPE   H6S12438   6.921   1.885   5.807  1.5710  0.2246  1.1416
  118SOPE   C2712439   7.080   1.887   5.660 -0.4393  0.6618 -0.1887
  118SOPE   H7R12440   7.169   1.920   5.717  1.3605 -0.6744 -2.0733
  118SOPE   H7S12441   7.132   1.814   5.594  2.2451  0.5761  1.8665
  118SOPE   C2812442   7.021   2.013   5.595  0.4104  0.3866  0.1003
  118SOPE   H8R12443   7.008   2.084   5.679  0.3833 -0.1377  0.5469
  118SOPE   H8S12444   7.086   2.056   5.516  1.9609  1.2699  1.7862
  118SOPE   C2912445   6.886   1.983   5.536 -0.6325  0.8479 -0.0184
  118SOPE   H9112446   6.814   1.930   5.600  1.0607 -0.2134  1.0879
  118SOPE  C21012447   6.853   2.017   5.409 -0.3867  0.5772 -0.2400
  118SOPE  H10112448   6.748   1.994   5.387  0.5372 -1.4711 -3.0186
  118SOPE  C21112449   6.928   2.096   5.300  0.2304 -0.3702 -0.3134
  118SOPE  H11R12450   7.037   2.075   5.295  0.0389 -1.4291 -0.3136
  118SOPE  H11S12451   6.911   2.205   5.313 -1.4864 -0.5201 -1.0937
  118SOPE  C21212452   6.866   2.065   5.165 -0.4209  0.0998 -0.0913
  118SOPE  H12R12453   6.755   2.066   5.168 -0.4042  0.0861  0.8109
  118SOPE  H12S12454   6.871   1.957   5.142  0.5577 -0.6045  3.0186
  118SOPE  C21312455   6.909   2.160   5.048 -0.0053  0.1263 -0.5604
  118SOPE  H13R12456   7.020   2.159   5.047  0.0179 -1.9178 -0.5125
  118SOPE  H13S12457   6.880   2.262   5.083 -0.9140 -0.2340 -0.2200
  118SOPE  C21412458   6.846   2.131   4.908 -0.1984 -0.6556  0.0358
  118SOPE  H14R12459   6.737   2.153   4.905  0.1463  1.1612 -1.7274
  118SOPE  H14S12460   6.859   2.024   4.884  1.4826 -0.2514 -1.0148
  118SOPE  C21512461   6.897   2.218   4.796 -0.2606 -0.1692 -0.2462
  118SOPE  H15R12462   6.986   2.172   4.749  0.7702  2.5386 -1.1314
  118SOPE  H15S12463   6.916   2.318   4.842 -1.1209  0.6692 -1.6493
  118SOPE  C21612464   6.792   2.230   4.691 -0.5439 -0.0875 -0.0151
  118SOPE  H16R12465   6.707   2.289   4.733  1.1099  1.2411  1.6392
  118SOPE  H16S12466   6.751   2.131   4.663  0.6713 -0.5577 -0.1764
  118SOPE  C21712467   6.854   2.316   4.575  0.3669 -0.3599 -0.0487
  118SOPE  H17R12468   6.950   2.267   4.550  0.4284 -0.1515 -0.2234
  118SOPE  H17S12469   6.874   2.415   4.621 -1.5107  0.6843 -1.3430
  118SOPE  C21812470   6.774   2.338   4.441 -0.3967  0.0987  0.5718
  118SOPE  H18R12471   6.675   2.382   4.469 -0.4735  0.2947  0.0042
  118SOPE  H18S12472   6.764   2.233   4.405 -2.5042 -0.9060  3.6941
  118SOPE  H18T12473   6.824   2.408   4.370 -1.8969 -0.3532 -1.0075
  118SOPE   C3312474   6.558   1.753   5.942  0.0957  0.9900  0.2144
  118SOPE   H3X12475   6.479   1.736   6.018 -0.8413  0.6615 -0.8157
  118SOPE   H3Y12476   6.629   1.668   5.948 -0.8136  0.1104 -1.0419
  118SOPE   C3412477   6.490   1.752   5.801 -1.1295 -0.7438 -0.2901
  118SOPE   H4X12478   6.428   1.843   5.782  1.6571  0.9502 -2.1240
  118SOPE   H4Y12479   6.418   1.668   5.803 -2.4747  0.2747 -2.4216
  118SOPE   C3512480   6.595   1.724   5.690 -0.3013 -0.2454 -0.8110
  118SOPE   H5X12481   6.661   1.638   5.717  3.0093  1.6177 -2.3814
  118SOPE   H5Y12482   6.668   1.807   5.686 -0.5006  0.2057  2.1245
  118SOPE   C3612483   6.539   1.727   5.556 -0.4711 -0.0876 -0.2082
  118SOPE   H6X12484   6.495   1.826   5.533  1.2077  0.6170 -0.4947
  118SOPE   H6Y12485   6.457   1.652   5.554  0.1218 -0.7419 -0.0963
  118SOPE   C3712486   6.640   1.689   5.445 -0.0708  0.1078 -0.1782
  118SOPE   H7X12487   6.705   1.606   5.481  1.7137  1.9977  1.2849
  118SOPE   H7Y12488   6.708   1.776   5.428 -0.7843  1.3482  2.7041
  118SOPE   C3812489   6.572   1.661   5.313 -0.1405  0.1203 -0.0944
  118SOPE   H8X12490   6.513   1.751   5.287 -2.8102 -1.7438 -0.8499
  118SOPE   H8Y12491   6.497   1.579   5.322  0.3016 -0.2470  0.3092
  118SOPE   C3912492   6.678   1.621   5.201  0.5701 -0.5153 -0.3343
  118SOPE   H9X12493   6.739   1.533   5.232  0.1335 -0.9982 -0.8245
  118SOPE   H9Y12494   6.746   1.707   5.184 -1.1315  1.1750  1.0193
  118SOPE  C31012495   6.613   1.564   5.070  0.1550 -0.0433 -0.0199
  118SOPE  H10X12496   6.518   1.509   5.092 -2.2679  2.6645 -2.7529
  118SOPE  H10Y12497   6.688   1.498   5.023  0.8675  1.2873 -0.8225
  118SOPE  C31112498   6.565   1.666   4.968  0.0370 -0.3719  0.4139
  118SOPE  H11X12499   6.600   1.767   4.997 -1.5827  0.4186 -0.2396
  118SOPE  H11Y12500   6.454   1.678   4.973 -0.0445 -1.1875  0.6255
  118SOPE  C31212501   6.600   1.623   4.825 -0.2544  0.1656 -0.0240
  118SOPE  H12X12502   6.562   1.519   4.817 -0.6194  0.3700 -1.2657
  118SOPE  H12Y12503   6.710   1.610   4.813 -0.5749 -3.1365 -0.3621
  118SOPE  C31312504   6.545   1.711   4.717 -0.3447  0.4042 -0.9255
  118SOPE  H13X12505   6.608   1.698   4.627 -0.0539  1.9071 -0.9603
  118SOPE  H13Y12506   6.549   1.818   4.744 -0.3805  0.6481 -1.8647
  118SOPE  C31412507   6.396   1.687   4.683  0.4511  0.5413  0.3587
  118SOPE  H14X12508   6.338   1.728   4.769  0.0819  1.3669 -0.2684
  118SOPE  H14Y12509   6.371   1.578   4.684 -0.7604  0.7968  1.4571
  118SOPE  C31512510   6.348   1.757   4.556  0.6384 -0.1255  0.4212
  118SOPE  H15X12511   6.411   1.733   4.468 -0.2359 -0.8174 -0.0370
  118SOPE  H15Y12512   6.365   1.864   4.579 -1.5855  1.0777 -2.8595
  118SOPE  C31612513   6.199   1.741   4.522  0.3436  0.6487 -0.6703
  118SOPE  H16X12514   6.176   1.835   4.468 -0.8913  0.9858  0.3836
  118SOPE  H16Y12515   6.150   1.753   4.621  0.3259 -0.3349 -0.5468
  118SOPE  C31712516   6.162   1.610   4.448 -0.0413 -0.0345  0.2083
  118SOPE  H17X12517   6.160   1.526   4.520 -0.7887 -0.7470 -0.6178
  118SOPE  H17Y12518   6.232   1.588   4.364  0.7012  0.8289  0.5847
  118SOPE  C31812519   6.018   1.595   4.386 -0.2961  0.4829 -0.4212
  118SOPE  H18X12520   5.994   1.662   4.300 -0.6810  2.1878  0.9391
  118SOPE  H18Y12521   5.942   1.621   4.463  1.0042 -0.8372  1.3852
  118SOPE  H18Z12522   6.012   1.490   4.352  1.1837  0.1213  0.3426
  119SOPE     N12523   6.737   3.661   6.849  0.0585 -0.0284 -0.3416
  119SOPE   HN112524   6.773   3.602   6.926  3.7592  1.6616 -0.5338
  119SOPE   HN212525   6.823   3.680   6.794  1.6431  1.4420  2.3976
  119SOPE   HN312526   6.698   3.749   6.888  0.9038 -0.3928  1.4366
  119SOPE   C1212527   6.637   3.597   6.759 -0.0526  0.3231 -0.1373
  119SOPE  H12A12528   6.622   3.652   6.663  0.5778  1.1161  0.2079
  119SOPE  H12B12529   6.539   3.601   6.813  0.0161  2.2807 -0.0674
  119SOPE   C1112530   6.677   3.450   6.725 -0.4853 -0.4285 -0.0889
  119SOPE  H11A12531   6.770   3.455   6.665 -0.7360 -0.8980 -0.5235
  119SOPE  H11B12532   6.603   3.411   6.652 -0.6003 -0.0832 -0.1600
  119SOPE     P12533   6.762   3.240   6.844  0.1310 -0.2040 -0.6659
  119SOPE   O1312534   6.780   3.196   6.988  0.1059  0.5927  0.7116
  119SOPE   O1412535   6.883   3.240   6.759  0.0999 -0.0040  0.6703
  119SOPE   O1212536   6.685   3.372   6.844 -0.0424 -0.1693  0.4758
  119SOPE   O1112537   6.643   3.154   6.776 -0.2552  0.5692  0.4837
  119SOPE    C112538   6.665   3.019   6.734  0.0249  0.7853  0.6009
  119SOPE    HA12539   6.566   2.968   6.728 -0.3987  1.7543 -2.8772
  119SOPE    HB12540   6.733   2.962   6.800  1.7503 -1.1228 -2.5676
  119SOPE    C212541   6.714   3.013   6.582  0.1505 -0.1791 -0.1127
  119SOPE    HS12542   6.817   3.053   6.574 -0.2541  1.9573  3.2020
  119SOPE   O2112543   6.617   3.085   6.510 -0.2749 -0.4155 -0.2711
  119SOPE   C2112544   6.658   3.172   6.417  0.2622  0.7300  0.3838
  119SOPE   O2212545   6.772   3.218   6.402  0.3902  0.0943 -0.9321
  119SOPE   C2212546   6.535   3.231   6.343  0.4026 -0.4230 -1.1387
  119SOPE   H2R12547   6.498   3.316   6.405  1.1365 -1.8302  1.3936
  119SOPE   H2S12548   6.452   3.159   6.358  0.5779 -0.1657  1.6378
  119SOPE    C312549   6.713   2.862   6.531  0.1727  0.1057  0.4942
  119SOPE    HX12550   6.612   2.821   6.554  0.7899 -1.0245  1.2901
  119SOPE    HY12551   6.790   2.807   6.589  0.7279 -1.0027 -1.2302
  119SOPE   O3112552   6.744   2.851   6.391 -0.4575 -0.5982  0.5737
  119SOPE   C3112553   6.762   2.728   6.340 -0.0529  0.0835 -0.2502
  119SOPE   O3212554   6.751   2.624   6.402  0.5413 -0.1613  0.7427
  119SOPE   C3212555   6.801   2.731   6.196  0.4883  0.4588  0.2868
  119SOPE   H2X12556   6.889   2.666   6.179  1.4809  2.0678 -1.0731
  119SOPE   H2Y12557   6.826   2.836   6.166 -1.8902  0.9088 -0.3500
  119SOPE   C2312558   6.551   3.262   6.195 -0.5928 -0.0445 -0.3399
  119SOPE   H3R12559   6.659   3.269   6.172 -0.3479  1.1153  1.0689
  119SOPE   H3S12560   6.511   3.365   6.199 -1.9870 -0.5984  1.0480
  119SOPE   C2412561   6.470   3.179   6.095  0.4076  0.7981 -0.8073
  119SOPE   H4R12562   6.499   3.072   6.089 -0.8253  0.2875  1.2971
  119SOPE   H4S12563   6.372   3.178   6.148  0.9132  2.4584  0.2316
  119SOPE   C2512564   6.469   3.251   5.962 -0.0141  0.3167  0.1226
  119SOPE   H5R12565   6.447   3.355   5.993  1.0684  1.2765 -2.1206
  119SOPE   H5S12566   6.564   3.244   5.906  0.5227  0.9629  0.9341
  119SOPE   C2612567   6.369   3.195   5.871  0.4040  0.2638 -0.5979
  119SOPE   H6R12568   6.371   3.084   5.875 -0.1470  0.2674 -0.0043
  119SOPE   H6S12569   6.265   3.215   5.906  0.8404  1.3597  0.1406
  119SOPE   C2712570   6.371   3.269   5.732 -0.2521  0.0279  0.0860
  119SOPE   H7R12571   6.410   3.371   5.752 -0.3733 -0.0362  0.6548
  119SOPE   H7S12572   6.453   3.228   5.670  0.8144 -0.6996  1.8875
  119SOPE   C2812573   6.236   3.262   5.661  0.4340  0.5460  0.4017
  119SOPE   H8R12574   6.156   3.295   5.730  0.2231  1.8593 -0.4193
  119SOPE   H8S12575   6.245   3.313   5.563  1.5563 -0.3019  0.0440
  119SOPE   C2912576   6.217   3.115   5.624 -0.2232 -0.9841  0.3351
  119SOPE   H9112577   6.189   3.055   5.712 -0.0391 -0.2381  0.9146
  119SOPE  C21012578   6.223   3.056   5.502 -0.0490  0.7797 -0.2728
  119SOPE  H10112579   6.207   2.948   5.485 -0.4197  0.8741 -0.5339
  119SOPE  C21112580   6.237   3.119   5.368 -0.0640 -0.5299  0.7557
  119SOPE  H11R12581   6.337   3.087   5.330 -0.0770  0.8759 -0.5306
  119SOPE  H11S12582   6.227   3.229   5.370  4.3889  0.1266 -1.2925
  119SOPE  C21212583   6.125   3.070   5.266  0.1489  0.6978 -0.1730
  119SOPE  H12R12584   6.028   3.121   5.276  0.2724  0.4297  3.9265
  119SOPE  H12S12585   6.112   2.960   5.274  1.9939  0.3433 -1.3667
  119SOPE  C21312586   6.150   3.095   5.116 -0.1049 -0.2079 -0.3430
  119SOPE  H13R12587   6.247   3.048   5.090 -1.0066 -1.5878 -1.3550
  119SOPE  H13S12588   6.163   3.204   5.099  1.2133 -0.0987  1.2113
  119SOPE  C21412589   6.034   3.029   5.035 -0.5719 -0.1095 -0.3107
  119SOPE  H14R12590   5.940   3.087   5.046 -0.3425  0.0805  0.7926
  119SOPE  H14S12591   6.000   2.931   5.074 -1.7877  0.1996 -0.5440
  119SOPE  C21512592   6.063   3.011   4.889 -0.1774  1.1420 -0.1979
  119SOPE  H15R12593   6.164   2.965   4.885 -1.0670 -0.9550  0.0974
  119SOPE  H15S12594   6.091   3.099   4.827  4.7316 -0.5050 -0.7754
  119SOPE  C21612595   5.981   2.903   4.818 -0.9994  0.4931 -0.4878
  119SOPE  H16R12596   5.982   2.813   4.884  0.1481  0.7516 -0.1299
  119SOPE  H16S12597   6.026   2.868   4.723 -0.0732  1.3324 -0.3731
  119SOPE  C21712598   5.839   2.952   4.797 -0.1144 -0.2099 -0.5451
  119SOPE  H17R12599   5.849   3.029   4.717  1.7399  0.7174  0.5063
  119SOPE  H17S12600   5.805   3.011   4.885 -0.3170 -1.4266  0.2145
  119SOPE  C21812601   5.727   2.848   4.773 -0.2043 -0.7856 -0.1180
  119SOPE  H18R12602   5.708   2.780   4.858 -1.2613 -1.9998 -1.2975
  119SOPE  H18S12603   5.743   2.784   4.684  0.0299 -0.1360 -0.5540
  119SOPE  H18T12604   5.629   2.900   4.776 -1.1661 -2.5829  0.7214
  119SOPE   C3312605   6.674   2.677   6.111 -0.1213 -0.0166  0.2235
  119SOPE   H3X12606   6.584   2.739   6.131 -0.7374  0.0296 -2.3785
  119SOPE   H3Y12607   6.654   2.568   6.121  2.2277 -0.6886 -1.5717
  119SOPE   C3412608   6.708   2.700   5.963  0.0136  0.5435 -0.2564
  119SOPE   H4X12609   6.639   2.640   5.900 -0.1383 -0.0030  0.4142
  119SOPE   H4Y12610   6.805   2.652   5.935 -0.4821 -0.9291  0.4012
  119SOPE   C3512611   6.694   2.847   5.917  0.3849 -0.3559 -0.3388
  119SOPE   H5X12612   6.732   2.910   6.001  0.6490  1.2693 -1.6392
  119SOPE   H5Y12613   6.585   2.865   5.909  0.5987  1.2444  0.0803
  119SOPE   C3612614   6.751   2.883   5.779 -0.1723  0.8723 -0.2500
  119SOPE   H6X12615   6.741   2.796   5.711 -0.4595  0.9403 -0.2952
  119SOPE   H6Y12616   6.857   2.907   5.803  0.5428 -0.6877 -1.6343
  119SOPE   C3712617   6.686   3.008   5.712 -0.6268 -0.0521  0.5943
  119SOPE   H7X12618   6.683   3.098   5.776  0.0409 -0.6068  1.4220
  119SOPE   H7Y12619   6.578   2.985   5.699 -0.8366  0.8139  0.8019
  119SOPE   C3812620   6.746   3.046   5.576  0.2454 -0.3786 -0.1347
  119SOPE   H8X12621   6.849   3.004   5.577 -0.1582 -1.4342  1.7335
  119SOPE   H8Y12622   6.758   3.156   5.571  0.3756 -0.3372  0.8541
  119SOPE   C3912623   6.661   2.994   5.452 -0.4297 -0.1066  0.0046
  119SOPE   H9X12624   6.566   3.051   5.455  0.8243  2.3729 -2.7509
  119SOPE   H9Y12625   6.642   2.885   5.450  0.3117 -0.2998  1.3853
  119SOPE  C31012626   6.737   3.030   5.319 -0.0951 -0.0370 -0.5777
  119SOPE  H10X12627   6.844   3.002   5.332  0.1142  0.7790 -0.5279
  119SOPE  H10Y12628   6.732   3.138   5.293  0.9865  0.5465  1.3976
  119SOPE  C31112629   6.677   2.955   5.200 -0.3784  0.9932  0.0822
  119SOPE  H11X12630   6.566   2.953   5.197 -0.3620  0.9976 -0.8399
  119SOPE  H11Y12631   6.713   2.850   5.208  0.9209  1.2208 -2.0714
  119SOPE  C31212632   6.727   2.998   5.056  0.2718 -0.4017 -0.4233
  119SOPE  H12X12633   6.710   2.913   4.986  2.5653 -1.6807  0.4437
  119SOPE  H12Y12634   6.836   3.016   5.069  0.0786  0.6836 -0.2136
  119SOPE  C31312635   6.660   3.128   5.010 -0.1886 -0.5670 -0.4604
  119SOPE  H13X12636   6.720   3.212   5.051  1.1521 -0.5590 -2.2999
  119SOPE  H13Y12637   6.553   3.131   5.040  0.3697  0.4225  1.5818
  119SOPE  C31412638   6.667   3.141   4.861 -0.5450 -0.2781 -0.1733
  119SOPE  H14X12639   6.626   3.235   4.819 -1.5797 -0.4825  0.3561
  119SOPE  H14Y12640   6.619   3.058   4.806  1.0657  0.7934 -3.4687
  119SOPE  C31512641   6.814   3.133   4.815  0.8385 -0.0338  0.6916
  119SOPE  H15X12642   6.845   3.027   4.821 -0.2522 -0.4513 -0.5026
  119SOPE  H15Y12643   6.874   3.201   4.879  0.5343 -0.7712  1.7922
  119SOPE  C31612644   6.826   3.167   4.666  0.3001  0.6092  0.6560
  119SOPE  H16X12645   6.763   3.256   4.645 -1.5571 -1.1012 -1.5749
  119SOPE  H16Y12646   6.774   3.078   4.625  1.4863  0.0741  0.2569
  119SOPE  C31712647   6.973   3.186   4.632  0.3919 -0.0229 -0.5337
  119SOPE  H17X12648   6.994   3.286   4.676  1.1573 -0.3556 -0.1176
  119SOPE  H17Y12649   6.980   3.202   4.522  2.1502  0.5355 -0.3739
  119SOPE  C31812650   7.073   3.078   4.674 -0.2626 -0.1766 -0.5019
  119SOPE  H18X12651   7.113   3.096   4.776 -0.4479  1.0579 -0.6302
  119SOPE  H18Y12652   7.158   3.075   4.603 -1.0126 -0.0596 -1.4153
  119SOPE  H18Z12653   7.036   2.973   4.683 -0.2346 -0.0426  1.9390
  120SOPE     N12654   4.923   6.626   6.424 -0.3155  0.3671 -0.3098
  120SOPE   HN112655   4.852   6.550   6.420  1.9287 -1.8595 -0.9138
  120SOPE   HN212656   4.991   6.588   6.494  0.5369 -1.3159 -1.9638
  120SOPE   HN312657   4.879   6.714   6.457 -2.8280 -1.3769  1.4178
  120SOPE   C1212658   4.995   6.640   6.294  0.2260 -0.4770 -0.4543
  120SOPE  H12A12659   5.070   6.721   6.300  0.4384 -0.7852  2.3953
  120SOPE  H12B12660   4.923   6.668   6.214  0.4133  0.5610 -0.2746
  120SOPE   C1112661   5.070   6.514   6.258  0.5645 -0.7981  0.4892
  120SOPE  H11A12662   5.126   6.526   6.163  1.0899  1.2612  1.0039
  120SOPE  H11B12663   5.001   6.431   6.231  0.4068 -0.3054 -0.6729
  120SOPE     P12664   5.150   6.379   6.475  0.3033  0.1955 -0.3087
  120SOPE   O1312665   5.069   6.449   6.580 -0.0688 -0.4288  0.1523
  120SOPE   O1412666   5.285   6.344   6.510  0.0176 -0.0220 -0.2090
  120SOPE   O1212667   5.168   6.480   6.351  0.0796  0.1763 -0.5905
  120SOPE   O1112668   5.069   6.256   6.428 -0.1054 -0.6978 -0.2874
  120SOPE    C112669   5.140   6.164   6.349 -0.1243 -0.0499  0.3885
  120SOPE    HA12670   5.198   6.093   6.412  1.0557  0.8667  0.3504
  120SOPE    HB12671   5.209   6.207   6.274 -0.0283 -1.1094 -0.1454
  120SOPE    C212672   5.035   6.083   6.256  0.1382 -0.3168  0.1185
  120SOPE    HS12673   5.086   6.000   6.202  1.0336  0.3388 -0.0764
  120SOPE   O2112674   5.001   6.183   6.151 -0.3310  0.8181  0.2807
  120SOPE   C2112675   4.951   6.125   6.041 -0.8569 -0.2812  0.0698
  120SOPE   O2212676   4.959   6.006   6.017  0.5823  0.0154 -0.0707
  120SOPE   C2212677   4.892   6.223   5.947  0.1225  0.2162  0.0160
  120SOPE   H2R12678   4.966   6.302   5.919 -0.2539  0.5625 -0.0041
  120SOPE   H2S12679   4.802   6.260   6.000 -0.0088 -0.6889  0.4244
  120SOPE    C312680   4.909   6.044   6.344 -0.7388 -0.2800  0.4536
  120SOPE    HX12681   4.863   6.131   6.395  1.6941  0.6882  1.1783
  120SOPE    HY12682   4.956   5.996   6.433 -1.7367  1.5544  2.0577
  120SOPE   O3112683   4.828   5.950   6.278  0.6217 -0.4630  0.0994
  120SOPE   C3112684   4.719   5.997   6.216  0.3106  0.8487  0.3604
  120SOPE   O3212685   4.695   6.115   6.202  1.2383 -0.2086  0.0803
  120SOPE   C3212686   4.636   5.881   6.165  0.6095 -0.3429 -0.0480
  120SOPE   H2X12687   4.549   5.872   6.233 -2.3098 -0.6431 -3.5088
  120SOPE   H2Y12688   4.692   5.787   6.183 -0.0194 -1.8256 -4.6129
  120SOPE   C2312689   4.849   6.151   5.815  0.1208 -0.0255 -0.3975
  120SOPE   H3R12690   4.773   6.074   5.841 -1.4319  1.7882  0.7394
  120SOPE   H3S12691   4.943   6.115   5.768 -0.0031  0.6416 -1.1950
  120SOPE   C2412692   4.779   6.248   5.717  0.0854  0.3260  0.3893
  120SOPE   H4R12693   4.692   6.296   5.766 -0.3807 -0.6630  0.5460
  120SOPE   H4S12694   4.842   6.340   5.708  1.2192 -0.3230  1.3799
  120SOPE   C2512695   4.749   6.193   5.580  0.4459 -0.0448 -0.4400
  120SOPE   H5R12696   4.845   6.155   5.537  0.4999 -1.9072  1.1704
  120SOPE   H5S12697   4.670   6.115   5.588  2.1748 -2.0504 -1.8158
  120SOPE   C2612698   4.695   6.305   5.500  0.5110  0.4752  0.7234
  120SOPE   H6R12699   4.588   6.324   5.524 -0.3154 -0.0923 -2.0907
  120SOPE   H6S12700   4.752   6.400   5.513  0.8684  0.5694 -1.2127
  120SOPE   C2712701   4.684   6.272   5.353 -0.0790 -0.4882 -0.0088
  120SOPE   H7R12702   4.653   6.167   5.336  2.9555 -1.5316  0.3585
  120SOPE   H7S12703   4.607   6.338   5.307  0.7645  0.1719 -0.5106
  120SOPE   C2812704   4.803   6.298   5.260 -0.0373  0.3591  0.1180
  120SOPE   H8R12705   4.769   6.340   5.163  0.3041  0.6942  0.1403
  120SOPE   H8S12706   4.883   6.369   5.291  1.4993 -0.6324 -1.3335
  120SOPE   C2912707   4.868   6.160   5.246 -0.0449  0.1251 -0.1979
  120SOPE   H9112708   4.898   6.106   5.337  2.6863 -1.6756 -2.0206
  120SOPE  C21012709   4.895   6.096   5.130 -0.2412 -0.0307 -0.1081
  120SOPE  H10112710   4.930   5.992   5.134 -2.7195 -0.9145  0.3425
  120SOPE  C21112711   4.862   6.152   4.993 -0.1504  0.2907 -0.1021
  120SOPE  H11R12712   4.901   6.080   4.917  2.8404  0.7506  0.8350
  120SOPE  H11S12713   4.901   6.254   4.973 -0.1529  0.3344  0.1189
  120SOPE  C21212714   4.707   6.158   4.970  0.1706  0.8284  0.5860
  120SOPE  H12R12715   4.657   6.215   5.051 -1.3352  0.8769 -0.3212
  120SOPE  H12S12716   4.663   6.056   4.961  0.9994  0.4961  0.1704
  120SOPE  C21312717   4.666   6.237   4.843 -0.6211  0.0014  0.2377
  120SOPE  H13R12718   4.744   6.309   4.812 -3.1083  2.0905 -1.7012
  120SOPE  H13S12719   4.589   6.312   4.874  2.0007  2.0636  2.1984
  120SOPE  C21412720   4.614   6.148   4.729 -0.6049 -0.1262  0.2104
  120SOPE  H14R12721   4.515   6.104   4.754 -1.5481  1.1961 -0.9761
  120SOPE  H14S12722   4.696   6.076   4.710 -0.3405  0.0723  0.5884
  120SOPE  C21512723   4.595   6.218   4.596  0.2329 -0.6821 -0.3668
  120SOPE  H15R12724   4.688   6.230   4.537 -0.2841  3.0484 -0.6228
  120SOPE  H15S12725   4.556   6.317   4.627  0.2772 -0.3781 -1.2686
  120SOPE  C21612726   4.493   6.146   4.504  0.3356 -0.6692 -0.4402
  120SOPE  H16R12727   4.396   6.161   4.556 -0.6566 -1.2758 -2.0447
  120SOPE  H16S12728   4.518   6.038   4.501  0.9770 -0.7189  3.0737
  120SOPE  C21712729   4.487   6.205   4.367  0.0470 -0.8890 -0.4649
  120SOPE  H17R12730   4.433   6.139   4.295 -1.7102  1.4700 -1.4343
  120SOPE  H17S12731   4.588   6.216   4.322 -0.7101  2.2166 -1.6848
  120SOPE  C21812732   4.412   6.335   4.372  0.6760 -0.4307  0.0310
  120SOPE  H18R12733   4.417   6.384   4.273 -0.5183  0.2634  0.2818
  120SOPE  H18S12734   4.435   6.397   4.462  1.7838 -1.4941  0.5140
  120SOPE  H18T12735   4.302   6.315   4.374  0.2452  1.4257 -1.6751
  120SOPE   C3312736   4.606   5.895   6.019 -0.0118 -0.1686  0.9171
  120SOPE   H3X12737   4.559   5.800   5.987 -0.9521 -0.3271  2.6591
  120SOPE   H3Y12738   4.691   5.907   5.949 -0.4893  1.3660  0.5528
  120SOPE   C3412739   4.494   6.003   5.983 -0.1746  0.2131 -0.6597
  120SOPE   H4X12740   4.529   6.102   6.020 -0.6780  0.1892 -0.0901
  120SOPE   H4Y12741   4.405   5.975   6.043 -0.3538 -2.9178 -2.2076
  120SOPE   C3512742   4.471   6.009   5.828  0.2350  0.3190 -0.5572
  120SOPE   H5X12743   4.430   5.909   5.804 -0.8881  0.5110  0.4445
  120SOPE   H5Y12744   4.565   6.018   5.770 -0.0608  0.9828 -0.9435
  120SOPE   C3612745   4.362   6.112   5.799  0.2702 -0.4139 -0.3126
  120SOPE   H6X12746   4.382   6.206   5.854 -1.0840 -1.1348  1.4972
  120SOPE   H6Y12747   4.275   6.068   5.851  0.9343  1.1089  2.2566
  120SOPE   C3712748   4.333   6.139   5.655 -0.7953  0.2796  0.7379
  120SOPE   H7X12749   4.429   6.126   5.601 -0.6746  0.2538  0.9569
  120SOPE   H7Y12750   4.291   6.242   5.654 -1.0406  0.1927  1.5700
  120SOPE   C3812751   4.237   6.033   5.596  0.7480 -0.7318 -0.3671
  120SOPE   H8X12752   4.143   6.026   5.656  0.0651  1.4574 -1.0915
  120SOPE   H8Y12753   4.274   5.929   5.600 -1.7045 -1.6524  2.7832
  120SOPE   C3912754   4.199   6.071   5.451 -0.5247  0.4647  0.5391
  120SOPE   H9X12755   4.284   6.096   5.384 -2.0977  0.4260 -1.5758
  120SOPE   H9Y12756   4.138   6.164   5.458 -0.1703  0.6303  1.8121
  120SOPE  C31012757   4.133   5.957   5.372 -0.3219  0.3562  0.2895
  120SOPE  H10X12758   4.044   5.924   5.431 -2.1388  2.3525 -1.1519
  120SOPE  H10Y12759   4.208   5.876   5.363 -1.9540 -1.5307  2.4746
  120SOPE  C31112760   4.080   6.006   5.236 -0.3735  0.8419 -0.4715
  120SOPE  H11X12761   4.170   6.020   5.173 -1.1325 -0.1686 -1.8523
  120SOPE  H11Y12762   4.036   6.108   5.239  0.1434  1.2210 -3.1389
  120SOPE  C31212763   3.971   5.907   5.179  0.5034 -0.8160  0.2755
  120SOPE  H12X12764   3.888   5.882   5.248 -0.9859  0.3692 -0.9954
  120SOPE  H12Y12765   4.012   5.810   5.146  1.2054  0.1269 -1.7882
  120SOPE  C31312766   3.907   5.979   5.060 -0.4113  0.2266  0.7507
  120SOPE  H13X12767   3.993   6.026   5.008 -0.9484  1.6757  1.1302
  120SOPE  H13Y12768   3.834   6.058   5.088  0.5718  0.6200  2.3166
  120SOPE  C31412769   3.836   5.876   4.969 -0.1305  0.0675 -0.1973
  120SOPE  H14X12770   3.751   5.829   5.021 -1.1414 -0.9546 -2.6171
  120SOPE  H14Y12771   3.890   5.787   4.930  0.8420  0.6392 -0.1967
  120SOPE  C31512772   3.760   5.939   4.853  0.3873  0.4378  0.6343
  120SOPE  H15X12773   3.814   5.973   4.761 -2.0803  0.2662 -0.9729
  120SOPE  H15Y12774   3.708   6.033   4.880 -2.6728 -1.0883  0.4298
  120SOPE  C31612775   3.642   5.841   4.817  0.6563  0.0592 -0.4212
  120SOPE  H16X12776   3.569   5.830   4.901  0.4023 -2.4916 -0.8911
  120SOPE  H16Y12777   3.677   5.740   4.788  0.7549  0.4652 -1.7538
  120SOPE  C31712778   3.570   5.897   4.692 -0.2668 -0.7111 -0.3212
  120SOPE  H17X12779   3.501   5.824   4.644  0.2341 -0.1194 -1.9955
  120SOPE  H17Y12780   3.656   5.909   4.624 -1.6143 -0.8170 -2.1375
  120SOPE  C31812781   3.490   6.019   4.721 -0.5200 -0.1741  0.4489
  120SOPE  H18X12782   3.407   6.001   4.793 -0.4480 -1.1584  0.3070
  120SOPE  H18Y12783   3.448   6.055   4.625  1.2026 -1.7304 -0.9692
  120SOPE  H18Z12784   3.554   6.096   4.769 -0.7842 -0.8944  2.0155
  121SOPE     N12785   5.851   3.393   7.121  0.1348 -0.1278  0.1778
  121SOPE   HN112786   5.860   3.304   7.174  0.6575 -1.2347 -1.6872
  121SOPE   HN212787   5.888   3.473   7.176 -0.0700  1.0178 -1.2687
  121SOPE   HN312788   5.750   3.408   7.101  0.3928  0.5987 -0.6763
  121SOPE   C1212789   5.930   3.380   6.996  0.2109  0.4456  0.6886
  121SOPE  H12A12790   5.889   3.288   6.950 -0.5205  1.1328 -0.0768
  121SOPE  H12B12791   6.038   3.366   7.019  0.8508 -0.7397 -2.5605
  121SOPE   C1112792   5.910   3.487   6.892  0.1429 -0.4815  0.4055
  121SOPE  H11A12793   5.803   3.497   6.863 -0.2247 -2.0563  1.1537
  121SOPE  H11B12794   5.961   3.463   6.796  0.0356 -0.9425  0.4615
  121SOPE     P12795   5.999   3.726   6.830  0.2572 -0.1912 -0.0553
  121SOPE   O1312796   6.147   3.742   6.847  0.1076  0.7652  0.1606
  121SOPE   O1412797   5.913   3.845   6.856 -0.0401 -0.0889 -0.0381
  121SOPE   O1212798   5.945   3.621   6.936  0.1656  0.1340  0.2656
  121SOPE   O1112799   5.965   3.677   6.684  0.0378  0.0202 -0.1715
  121SOPE    C112800   6.065   3.665   6.587 -0.1688 -0.3389  0.5875
  121SOPE    HA12801   6.066   3.567   6.535 -0.1417  0.3649 -0.7685
  121SOPE    HB12802   6.172   3.682   6.613 -0.0960 -0.0315  0.1047
  121SOPE    C212803   6.038   3.755   6.467  0.0011  0.4113  0.0202
  121SOPE    HS12804   6.079   3.710   6.374 -1.7256 -0.6056 -0.2979
  121SOPE   O2112805   6.085   3.893   6.484  0.4898  0.3645  0.3223
  121SOPE   C2112806   6.217   3.890   6.471 -0.2395  0.5371 -0.0085
  121SOPE   O2212807   6.289   3.797   6.442 -0.0934  0.1360 -1.0418
  121SOPE   C2212808   6.264   4.037   6.499 -0.7329 -0.1771 -0.7641
  121SOPE   H2R12809   6.353   4.022   6.563 -1.5602 -1.7251  0.0850
  121SOPE   H2S12810   6.187   4.096   6.553 -0.2877 -1.6214  1.5731
  121SOPE    C312811   5.878   3.773   6.444 -0.0106 -0.0863 -0.1383
  121SOPE    HX12812   5.842   3.815   6.540  1.2001  0.3571  0.1407
  121SOPE    HY12813   5.829   3.674   6.438  0.0750 -0.1440  0.1157
  121SOPE   O3112814   5.842   3.856   6.335  0.0652  0.0436 -0.7624
  121SOPE   C3112815   5.833   3.801   6.219 -0.3541 -0.6536  0.4734
  121SOPE   O3212816   5.864   3.687   6.183  0.0670 -0.6233 -0.4452
  121SOPE   C3212817   5.786   3.902   6.113 -0.4363  0.2189  0.1694
  121SOPE   H2X12818   5.856   3.988   6.122  0.8940 -0.8318  0.1316
  121SOPE   H2Y12819   5.682   3.931   6.139 -0.8290 -1.4343  0.4986
  121SOPE   C2312820   6.321   4.099   6.371  0.6301 -0.5893  0.7531
  121SOPE   H3R12821   6.394   4.028   6.327 -0.4446 -1.5096  0.4267
  121SOPE   H3S12822   6.387   4.187   6.389 -1.8504  1.7200 -0.6981
  121SOPE   C2412823   6.215   4.142   6.264 -0.2098 -0.1536 -0.4179
  121SOPE   H4R12824   6.131   4.072   6.283 -0.2396 -0.4783 -1.6278
  121SOPE   H4S12825   6.172   4.244   6.272  0.4089  0.0873 -0.0551
  121SOPE   C2512826   6.264   4.126   6.122 -0.2236  0.7501 -0.1331
  121SOPE   H5R12827   6.205   4.197   6.061 -0.2685 -0.3591 -1.4337
  121SOPE   H5S12828   6.367   4.167   6.121 -0.6162  1.7742 -1.2039
  121SOPE   C2612829   6.259   3.984   6.076  0.0177  0.3140  0.7003
  121SOPE   H6R12830   6.293   3.911   6.153  1.3036  0.5296  0.3660
  121SOPE   H6S12831   6.153   3.955   6.062  0.3609 -2.2185  2.6223
  121SOPE   C2712832   6.346   3.956   5.952 -0.5653  0.2307  0.4697
  121SOPE   H7R12833   6.449   3.977   5.989 -1.0217  1.2940  1.2182
  121SOPE   H7S12834   6.324   3.851   5.924 -2.9193  1.1137 -1.2657
  121SOPE   C2812835   6.317   4.058   5.840  0.0806 -0.2371  0.1711
  121SOPE   H8R12836   6.323   4.160   5.884  1.0143 -0.6645  1.0773
  121SOPE   H8S12837   6.400   4.049   5.767  0.4984  0.7532  0.5019
  121SOPE   C2912838   6.198   4.023   5.763  0.1157 -0.0079  0.1447
  121SOPE   H9112839   6.148   3.935   5.807 -1.5868  1.4032  1.1365
  121SOPE  C21012840   6.140   4.087   5.662 -0.2326  0.3521  0.1689
  121SOPE  H10112841   6.054   4.044   5.608  1.2906 -1.3464 -0.9822
  121SOPE  C21112842   6.199   4.205   5.584  0.0532  0.3027 -0.3588
  121SOPE  H11R12843   6.288   4.247   5.636  1.6156  0.2628 -2.8670
  121SOPE  H11S12844   6.135   4.295   5.595  0.9724  0.9366 -0.1259
  121SOPE  C21212845   6.226   4.168   5.432 -0.2757 -0.6199 -0.0669
  121SOPE  H12R12846   6.279   4.070   5.428 -0.3112 -0.7967  2.3951
  121SOPE  H12S12847   6.297   4.246   5.397 -1.1303  1.2014  2.0423
  121SOPE  C21312848   6.104   4.165   5.341 -0.1950 -0.0079 -0.1963
  121SOPE  H13R12849   6.067   4.268   5.321 -2.0547 -0.9489 -1.9023
  121SOPE  H13S12850   6.021   4.112   5.391 -0.4308  0.6276  0.0973
  121SOPE  C21412851   6.118   4.107   5.194 -0.6507  0.7086  0.3539
  121SOPE  H14R12852   6.010   4.104   5.167 -0.6065 -2.7263  0.1918
  121SOPE  H14S12853   6.159   4.004   5.188 -0.5622  0.8154 -3.3637
  121SOPE  C21512854   6.201   4.198   5.103 -0.8158  0.1030 -0.4140
  121SOPE  H15R12855   6.303   4.196   5.146 -0.9807  2.0270  0.1563
  121SOPE  H15S12856   6.173   4.305   5.109  0.8900  0.5140  0.8855
  121SOPE  C21612857   6.214   4.153   4.963 -0.3272  0.1401 -0.3549
  121SOPE  H16R12858   6.134   4.082   4.932 -0.8585 -0.4055  2.0787
  121SOPE  H16S12859   6.311   4.100   4.970 -0.4724 -0.0443  0.2999
  121SOPE  C21712860   6.234   4.279   4.872 -0.0354  0.3856 -0.2960
  121SOPE  H17R12861   6.323   4.329   4.916  1.1449 -1.3310 -0.6019
  121SOPE  H17S12862   6.145   4.344   4.880  0.2000  0.4446  2.7938
  121SOPE  C21812863   6.255   4.239   4.717 -0.2120  0.2239 -0.0461
  121SOPE  H18R12864   6.245   4.325   4.646 -3.3305 -0.8461 -1.0706
  121SOPE  H18S12865   6.180   4.163   4.687  0.1343 -1.0652  2.1532
  121SOPE  H18T12866   6.352   4.187   4.707 -0.1611 -0.4119  2.9449
  121SOPE   C3312867   5.789   3.840   5.971 -0.1092 -0.3199  0.3165
  121SOPE   H3X12868   5.703   3.771   5.956  0.2717 -0.5738 -0.8145
  121SOPE   H3Y12869   5.885   3.787   5.956 -0.1657  0.2565 -2.5747
  121SOPE   C3412870   5.789   3.946   5.869 -0.2505  0.3299 -0.4581
  121SOPE   H4X12871   5.876   4.012   5.891  0.2773 -0.7031  0.6473
  121SOPE   H4Y12872   5.699   4.011   5.878  0.3725  1.0290  1.2034
  121SOPE   C3512873   5.790   3.880   5.731  0.3353  0.6117  0.2468
  121SOPE   H5X12874   5.712   3.804   5.710 -0.3850  1.3654  0.1544
  121SOPE   H5Y12875   5.884   3.821   5.723  0.9549  1.7512 -1.5010
  121SOPE   C3612876   5.759   3.972   5.610 -0.3056 -1.3536  0.5709
  121SOPE   H6X12877   5.823   4.062   5.616 -0.1383 -1.4500  0.2570
  121SOPE   H6Y12878   5.654   4.007   5.609 -0.4746 -1.7878  1.9023
  121SOPE   C3712879   5.791   3.908   5.468 -0.0994 -0.1222  0.0133
  121SOPE   H7X12880   5.732   3.815   5.467 -0.1221 -0.1107  0.2039
  121SOPE   H7Y12881   5.898   3.879   5.457 -0.4459 -0.6458 -2.5649
  121SOPE   C3812882   5.742   4.002   5.357  0.1912  0.1835 -0.5798
  121SOPE   H8X12883   5.815   4.086   5.354 -1.6137  1.8564  0.2450
  121SOPE   H8Y12884   5.645   4.048   5.387  0.1727 -0.7580  0.8846
  121SOPE   C3912885   5.719   3.931   5.221  0.0483 -0.5417  0.2667
  121SOPE   H9X12886   5.640   3.855   5.238 -0.1219  0.0090  2.1639
  121SOPE   H9Y12887   5.817   3.894   5.182  0.0080  1.7892 -2.3456
  121SOPE  C31012888   5.663   4.032   5.124 -0.2468  0.5924  0.6414
  121SOPE  H10X12889   5.747   4.097   5.091 -0.6083  0.5172 -0.4642
  121SOPE  H10Y12890   5.597   4.105   5.177  1.6058  1.5185  1.7795
  121SOPE  C31112891   5.595   3.958   5.003 -0.3473 -0.3521 -0.6921
  121SOPE  H11X12892   5.509   3.907   5.049  0.4641  0.7617  2.3071
  121SOPE  H11Y12893   5.671   3.886   4.965  2.4168  1.5708  0.8081
  121SOPE  C31212894   5.560   4.057   4.887 -0.2376  0.0067  0.4362
  121SOPE  H12X12895   5.652   4.114   4.864  0.0658  0.4228  2.4271
  121SOPE  H12Y12896   5.492   4.132   4.934  0.6579  0.4594  1.0418
  121SOPE  C31312897   5.499   3.997   4.763 -0.0823  0.4818 -0.2368
  121SOPE  H13X12898   5.487   4.077   4.686 -0.7215 -1.8965 -2.7953
  121SOPE  H13Y12899   5.398   3.956   4.784  0.6473 -1.9695 -1.1537
  121SOPE  C31412900   5.585   3.883   4.704  0.9515 -0.0062 -0.0411
  121SOPE  H14X12901   5.565   3.782   4.746  1.7369 -0.7128 -1.2910
  121SOPE  H14Y12902   5.690   3.915   4.722  0.5753  1.2117  0.0556
  121SOPE  C31512903   5.567   3.862   4.552 -0.3723  0.0130  0.0155
  121SOPE  H15X12904   5.564   3.960   4.499 -1.4210 -0.6233 -1.1494
  121SOPE  H15Y12905   5.475   3.805   4.531 -0.2848 -0.2883  0.4341
  121SOPE  C31612906   5.685   3.791   4.490 -0.7814  0.3308  0.9913
  121SOPE  H16X12907   5.644   3.740   4.399 -2.5009  3.1369  0.0770
  121SOPE  H16Y12908   5.736   3.712   4.549  0.3368 -0.8397 -1.3562
  121SOPE  C31712909   5.792   3.889   4.435  0.1229  0.5563 -0.8821
  121SOPE  H17X12910   5.838   3.918   4.532  0.0715 -0.5657 -0.5111
  121SOPE  H17Y12911   5.761   3.991   4.403  2.0079  1.5240  0.2419
  121SOPE  C31812912   5.889   3.835   4.334 -0.1015 -0.4515  0.8029
  121SOPE  H18X12913   5.968   3.914   4.331  0.9485 -1.5195 -0.4859
  121SOPE  H18Y12914   5.844   3.820   4.234  1.7025 -2.3164  0.2070
  121SOPE  H18Z12915   5.940   3.745   4.374 -1.1798 -1.8320 -0.7982
  122SOPE     N12916   0.171   4.438   7.100 -0.4739 -0.4652  0.5184
  122SOPE   HN112917   0.181   4.529   7.051 -0.7763 -0.6221  0.1645
  122SOPE   HN212918   0.078   4.407   7.065  0.3734 -1.4984 -0.9256
  122SOPE   HN312919   0.180   4.448   7.203  1.5574  0.9386  0.2889
  122SOPE   C1212920   0.281   4.347   7.065 -0.0863  0.2777 -0.0473
  122SOPE  H12A12921   0.267   4.261   7.134 -2.9326 -0.3055 -1.2464
  122SOPE  H12B12922   0.379   4.392   7.095 -0.3688  1.2054 -0.4596
  122SOPE   C1112923   0.286   4.306   6.917  0.3337 -0.7875 -0.5980
  122SOPE  H11A12924   0.381   4.265   6.877  0.3555 -0.5371 -0.8098
  122SOPE  H11B12925   0.281   4.403   6.862 -0.1352  0.1834  1.0814
  122SOPE     P12926   0.042   4.270   6.821  0.4767  0.4376  0.4843
  122SOPE   O1312927  -0.015   4.373   6.912 -0.0029  0.7774 -0.0894
  122SOPE   O1412928  -0.051   4.165   6.780  0.2060 -0.3763  0.0961
  122SOPE   O1212929   0.178   4.217   6.886  0.3644  0.1990 -0.1655
  122SOPE   O1112930   0.079   4.343   6.691 -0.1557  0.1640  0.7294
  122SOPE    C112931   0.172   4.287   6.587  0.1228  0.2069 -0.7256
  122SOPE    HA12932   0.163   4.177   6.580  3.3940 -0.1205 -1.5114
  122SOPE    HB12933   0.279   4.308   6.612 -0.4053  1.3677  0.7277
  122SOPE    C212934   0.159   4.350   6.449 -0.9302 -0.8890  0.4692
  122SOPE    HS12935   0.219   4.444   6.447 -0.4820 -1.1353  1.3452
  122SOPE   O2112936   0.022   4.363   6.414  0.2681  0.1424  0.0608
  122SOPE   C2112937  -0.022   4.490   6.407 -0.1930  0.3501  0.5205
  122SOPE   O2212938   0.035   4.591   6.446  0.6557  0.4375  1.0681
  122SOPE   C2212939  -0.148   4.502   6.329 -0.3459  0.5678 -0.7211
  122SOPE   H2R12940  -0.229   4.506   6.405 -2.2164 -0.7226 -2.5276
  122SOPE   H2S12941  -0.152   4.412   6.264  0.2282  1.2126 -1.6813
  122SOPE    C312942   0.235   4.254   6.347 -1.0434  0.7544  0.0370
  122SOPE    HX12943   0.197   4.149   6.356 -0.9778  0.5222 -2.0775
  122SOPE    HY12944   0.339   4.256   6.387 -1.1239 -1.4281  0.4895
  122SOPE   O3112945   0.209   4.297   6.213 -0.3549 -0.1681 -0.1884
  122SOPE   C3112946   0.308   4.360   6.160 -0.1500 -0.4730 -0.2923
  122SOPE   O3212947   0.421   4.374   6.204  1.0464 -0.2927 -0.1108
  122SOPE   C3212948   0.265   4.401   6.022  0.4476 -0.0394 -0.1032
  122SOPE   H2X12949   0.174   4.462   6.039  0.7915  0.5989 -0.5141
  122SOPE   H2Y12950   0.248   4.299   5.981  2.3007 -0.6670  0.5853
  122SOPE   C2312951  -0.154   4.627   6.242  0.1251  0.4047 -0.2138
  122SOPE   H3R12952  -0.095   4.711   6.283 -3.0591  2.6984  0.0424
  122SOPE   H3S12953  -0.258   4.661   6.220  0.4701  0.2350 -2.3361
  122SOPE   C2412954  -0.094   4.598   6.106 -0.0468  0.1120 -0.6150
  122SOPE   H4R12955   0.008   4.557   6.112  0.0448  0.2300 -1.3450
  122SOPE   H4S12956  -0.153   4.527   6.044  1.5540  0.5095 -2.6868
  122SOPE   C2512957  -0.091   4.726   6.028 -0.1770  0.0058  1.0222
  122SOPE   H5R12958  -0.183   4.784   6.048 -0.5835  0.6710 -2.1424
  122SOPE   H5S12959  -0.009   4.791   6.066 -1.9224  1.9989  1.6048
  122SOPE   C2612960  -0.081   4.697   5.876  0.1746 -0.3902 -0.9009
  122SOPE   H6R12961   0.004   4.630   5.852  0.0800 -0.8558 -0.0051
  122SOPE   H6S12962  -0.176   4.642   5.856  0.8083 -1.5400 -0.7865
  122SOPE   C2712963  -0.088   4.839   5.805 -0.5793 -1.0167  0.1659
  122SOPE   H7R12964  -0.165   4.901   5.855  0.9745  0.9674  0.2108
  122SOPE   H7S12965   0.010   4.889   5.820 -1.5754  0.3808  2.3592
  122SOPE   C2812966  -0.130   4.833   5.651 -0.1027 -0.4470 -1.2527
  122SOPE   H8R12967  -0.238   4.858   5.653 -0.1129 -0.5046  0.9382
  122SOPE   H8S12968  -0.083   4.925   5.611  1.0960 -0.1259  0.7300
  122SOPE   C2912969  -0.094   4.704   5.583 -0.3107  0.1413  0.3092
  122SOPE   H9112970  -0.021   4.639   5.634  0.8352 -1.3441 -2.9002
  122SOPE  C21012971  -0.139   4.664   5.462 -0.1973 -0.3486 -0.4901
  122SOPE  H10112972  -0.112   4.565   5.422 -1.1659  0.3005 -2.9499
  122SOPE  C21112973  -0.221   4.752   5.366 -0.4350  0.4028 -0.4190
  122SOPE  H11R12974  -0.233   4.855   5.406 -0.0558 -0.1747  1.2574
  122SOPE  H11S12975  -0.320   4.702   5.361 -1.5532  2.3887  0.6741
  122SOPE  C21212976  -0.172   4.755   5.218 -0.7418 -0.0203  0.2199
  122SOPE  H12R12977  -0.167   4.651   5.179  1.2535 -0.0618  0.5251
  122SOPE  H12S12978  -0.074   4.805   5.212  0.0590 -0.6993  4.5174
  122SOPE  C21312979  -0.277   4.820   5.123  0.7200 -0.4009 -0.1033
  122SOPE  H13R12980  -0.285   4.924   5.161  2.3901 -0.6143  0.9412
  122SOPE  H13S12981  -0.371   4.763   5.141 -0.7304  1.9937  0.2204
  122SOPE  C21412982  -0.228   4.812   4.973  0.1836 -0.0651 -1.0058
  122SOPE  H14R12983  -0.227   4.704   4.948 -0.2296  0.0847 -1.6766
  122SOPE  H14S12984  -0.123   4.848   4.968  1.0142 -2.1873 -0.2747
  122SOPE  C21512985  -0.306   4.892   4.871 -0.0156  0.4717 -0.3723
  122SOPE  H15R12986  -0.259   4.993   4.867  0.1680  0.3979 -0.0557
  122SOPE  H15S12987  -0.406   4.908   4.916  0.1138 -0.0689  0.1163
  122SOPE  C21612988  -0.323   4.821   4.735 -0.0368 -0.6168  0.4067
  122SOPE  H16R12989  -0.350   4.714   4.744 -1.0326 -0.3254  0.9595
  122SOPE  H16S12990  -0.230   4.843   4.677 -0.3314 -1.7830 -0.5671
  122SOPE  C21712991  -0.435   4.883   4.655  0.8265 -0.0264  0.1605
  122SOPE  H17R12992  -0.424   4.993   4.643  0.1521 -0.1220 -1.8768
  122SOPE  H17S12993  -0.529   4.858   4.710  2.4890 -0.0840  3.1524
  122SOPE  C21812994  -0.455   4.818   4.511 -0.2221 -0.2640 -0.4819
  122SOPE  H18R12995  -0.368   4.823   4.443  0.6498 -1.0944  0.5259
  122SOPE  H18S12996  -0.544   4.864   4.463 -2.3614  0.2552  3.5096
  122SOPE  H18T12997  -0.448   4.708   4.529  1.5087 -0.0646  0.3065
  122SOPE   C3312998   0.378   4.457   5.939 -0.6721 -0.0311  0.3237
  122SOPE   H3X12999   0.459   4.381   5.936 -0.4896  0.0184  2.3360
  122SOPE   H3Y13000   0.413   4.554   5.980 -1.6153  0.8087 -0.7978
  122SOPE   C3413001   0.327   4.489   5.800  0.2902 -0.3176 -0.1630
  122SOPE   H4X13002   0.402   4.543   5.740  1.4703 -1.2864  0.3967
  122SOPE   H4Y13003   0.233   4.547   5.805 -1.1792 -2.4445 -1.3124
  122SOPE   C3513004   0.298   4.362   5.722 -0.2164 -0.2383  0.4444
  122SOPE   H5X13005   0.221   4.306   5.779 -0.8959  1.4909  1.3155
  122SOPE   H5Y13006   0.386   4.294   5.724 -0.9195 -1.3441 -2.3235
  122SOPE   C3613007   0.248   4.407   5.586 -0.3010 -0.6706  0.2507
  122SOPE   H6X13008   0.339   4.448   5.537 -0.8551 -0.5621 -0.7163
  122SOPE   H6Y13009   0.168   4.484   5.595  0.7463  0.2834  2.0749
  122SOPE   C3713010   0.205   4.291   5.500  0.0692 -0.0070 -0.1795
  122SOPE   H7X13011   0.098   4.267   5.516  0.5831 -1.2777  1.6684
  122SOPE   H7Y13012   0.264   4.205   5.539  1.2292  1.1088  0.6271
  122SOPE   C3813013   0.237   4.293   5.347 -0.2534  0.1901 -0.1234
  122SOPE   H8X13014   0.230   4.198   5.292 -0.5669 -0.1984  0.5688
  122SOPE   H8Y13015   0.346   4.314   5.354 -0.4821  1.4454  0.0451
  122SOPE   C3913016   0.184   4.409   5.259  0.2899  0.2821  1.1346
  122SOPE   H9X13017   0.224   4.507   5.294 -2.2261  2.1559 -0.8599
  122SOPE   H9Y13018   0.074   4.423   5.261  0.2360 -0.2672  2.4320
  122SOPE  C31013019   0.224   4.390   5.110  0.2485 -0.0465  0.6933
  122SOPE  H10X13020   0.194   4.293   5.066  0.3883 -0.5252  1.6314
  122SOPE  H10Y13021   0.334   4.386   5.099  0.3722  1.9998  0.8140
  122SOPE  C31113022   0.180   4.499   5.012 -0.9308 -0.1178 -0.7119
  122SOPE  H11X13023   0.203   4.604   5.038 -1.1871  0.2699 -2.0040
  122SOPE  H11Y13024   0.069   4.502   5.010 -0.9180 -0.0795 -2.1076
  122SOPE  C31213025   0.234   4.496   4.867 -0.0985 -1.1719 -0.0734
  122SOPE  H12X13026   0.344   4.505   4.855 -0.1202 -2.2201 -1.1284
  122SOPE  H12Y13027   0.190   4.578   4.806  0.0313 -1.4237 -0.5113
  122SOPE  C31313028   0.192   4.372   4.799  0.3537 -0.4965 -0.6117
  122SOPE  H13X13029   0.089   4.343   4.828  0.3428 -0.8903 -1.0298
  122SOPE  H13Y13030   0.255   4.289   4.839 -1.6327 -0.0060  4.3224
  122SOPE  C31413031   0.200   4.387   4.648  0.1574  0.6396  0.3533
  122SOPE  H14X13032   0.298   4.426   4.613  0.7375 -1.2910 -0.2457
  122SOPE  H14Y13033   0.112   4.452   4.624 -0.2475  0.1393  0.4715
  122SOPE  C31513034   0.164   4.251   4.576  0.2831 -0.5736 -0.3153
  122SOPE  H15X13035   0.056   4.226   4.574 -0.1324  0.9647  1.1445
  122SOPE  H15Y13036   0.215   4.175   4.639  0.9107  0.7834  0.8413
  122SOPE  C31613037   0.215   4.257   4.432  0.5363 -0.5594 -1.0193
  122SOPE  H16X13038   0.326   4.269   4.431  0.2874  2.3871 -1.2096
  122SOPE  H16Y13039   0.177   4.351   4.388  0.0719 -0.2769 -0.0317
  122SOPE  C31713040   0.182   4.138   4.349 -0.2476  0.1481 -0.4651
  122SOPE  H17X13041   0.233   4.047   4.387 -0.1763 -0.2147 -1.3964
  122SOPE  H17Y13042   0.210   4.163   4.244 -0.8409  0.1377 -0.6282
  122SOPE  C31813043   0.034   4.092   4.354 -0.1233  0.0337  0.1960
  122SOPE  H18X13044   0.025   4.009   4.281  0.0368 -1.8392  2.2201
  122SOPE  H18Y13045  -0.024   4.186   4.343 -0.9964 -0.1931  2.3094
  122SOPE  H18Z13046   0.004   4.046   4.451 -2.1579 -1.7273 -1.1804
  123SOPE     N13047   2.549   5.708   1.605  0.0270 -0.7908 -0.1862
  123SOPE   HN113048   2.521   5.750   1.514 -3.1353 -1.1584  0.4762
  123SOPE   HN213049   2.459   5.702   1.658  0.0378 -0.3886 -0.1227
  123SOPE   HN313050   2.624   5.764   1.649 -0.7609 -0.2239  0.4861
  123SOPE   C1213051   2.598   5.575   1.574 -0.3272  0.0883  0.4704
  123SOPE  H12A13052   2.684   5.591   1.506 -1.9793 -2.4811 -2.5478
  123SOPE  H12B13053   2.516   5.514   1.529  0.4160  0.3194 -1.2435
  123SOPE   C1113054   2.628   5.499   1.709 -0.0215 -0.2185  0.5363
  123SOPE  H11A13055   2.699   5.557   1.772 -0.0408 -0.0910  0.4415
  123SOPE  H11B13056   2.676   5.403   1.680  0.0506 -0.3927  1.2180
  123SOPE     P13057   2.482   5.409   1.903  0.4554 -0.6456 -0.0928
  123SOPE   O1313058   2.452   5.268   1.865 -0.1056  0.4008 -0.1737
  123SOPE   O1413059   2.371   5.473   1.986 -0.8953  0.3167 -0.3104
  123SOPE   O1213060   2.500   5.490   1.772  0.0686 -0.1952  0.8050
  123SOPE   O1113061   2.623   5.414   1.981  0.0206 -0.3463 -0.1613
  123SOPE    C113062   2.662   5.544   2.035 -0.0472  0.1254  0.1196
  123SOPE    HA13063   2.587   5.625   2.027 -0.3250  0.1200  2.1626
  123SOPE    HB13064   2.755   5.576   1.983  0.2867  0.2868  0.8048
  123SOPE    C213065   2.688   5.535   2.190 -0.1068  0.1877  0.4337
  123SOPE    HS13066   2.704   5.636   2.233 -0.4170 -0.2806  1.6995
  123SOPE   O2113067   2.807   5.458   2.213 -0.1031  0.3247  0.6690
  123SOPE   C2113068   2.929   5.506   2.185 -0.8160 -0.2014  0.1319
  123SOPE   O2213069   2.954   5.609   2.122  0.3545 -0.2006 -0.7552
  123SOPE   C2213070   3.030   5.407   2.238 -0.1728  0.3934 -0.2540
  123SOPE   H2R13071   3.058   5.348   2.148 -0.7318  0.0356 -0.1938
  123SOPE   H2S13072   2.996   5.342   2.321  0.5195  0.9716  0.5075
  123SOPE    C313073   2.561   5.478   2.263 -0.9486  0.0100 -0.6851
  123SOPE    HX13074   2.542   5.380   2.216 -1.3503 -0.5568  0.6214
  123SOPE    HY13075   2.476   5.548   2.243 -0.7263  0.8889  1.2191
  123SOPE   O3113076   2.577   5.462   2.408 -0.1298  0.1471  0.0546
  123SOPE   C3113077   2.466   5.395   2.461 -0.3544  0.0641 -0.2637
  123SOPE   O3213078   2.364   5.367   2.400 -0.1503  0.3254  0.3578
  123SOPE   C3213079   2.504   5.348   2.603 -0.3137 -0.1346  0.0938
  123SOPE   H2X13080   2.604   5.375   2.642 -0.4841  0.7485 -0.0532
  123SOPE   H2Y13081   2.506   5.237   2.608 -2.0369 -0.2055  0.0085
  123SOPE   C2313082   3.154   5.487   2.290 -0.5898  0.3906  0.5111
  123SOPE   H3R13083   3.182   5.558   2.209 -1.0538 -0.5253 -0.4780
  123SOPE   H3S13084   3.240   5.418   2.296 -1.6701 -0.9733  0.8002
  123SOPE   C2413085   3.137   5.560   2.433  0.1380 -0.0752  0.3418
  123SOPE   H4R13086   3.042   5.617   2.426 -0.7539 -1.6725 -1.9512
  123SOPE   H4S13087   3.115   5.481   2.508 -1.4028  1.3375  1.4590
  123SOPE   C2513088   3.259   5.647   2.470 -0.2591  0.3839 -0.1029
  123SOPE   H5R13089   3.354   5.589   2.465 -1.1605 -1.2935  1.1567
  123SOPE   H5S13090   3.268   5.733   2.400 -2.8075  1.0816  0.3039
  123SOPE   C2613091   3.237   5.705   2.614 -0.1399  0.3043 -0.0084
  123SOPE   H6R13092   3.276   5.809   2.622 -1.5217  0.7432  1.6969
  123SOPE   H6S13093   3.131   5.732   2.635 -0.4806 -0.9940 -0.0196
  123SOPE   C2713094   3.297   5.619   2.724 -0.2163  0.3149 -0.0560
  123SOPE   H7R13095   3.260   5.515   2.711  1.0669 -0.1951  0.1833
  123SOPE   H7S13096   3.405   5.623   2.700 -0.6040 -1.1476 -2.3106
  123SOPE   C2813097   3.280   5.671   2.868 -0.0208  0.8011 -0.8581
  123SOPE   H8R13098   3.357   5.627   2.935  1.0792  4.2134  0.3346
  123SOPE   H8S13099   3.309   5.779   2.870  3.0053  0.0961  1.7774
  123SOPE   C2913100   3.132   5.652   2.909 -0.5072 -0.6144 -0.1076
  123SOPE   H9113101   3.059   5.666   2.828 -0.4631  2.2012  0.2364
  123SOPE  C21013102   3.105   5.588   3.024 -0.0695 -0.1711 -0.5640
  123SOPE  H10113103   2.999   5.576   3.049 -0.2415  0.2723 -1.0599
  123SOPE  C21113104   3.204   5.550   3.131 -0.4096 -0.1172 -0.3887
  123SOPE  H11R13105   3.308   5.579   3.104 -0.6097  1.4484  0.4552
  123SOPE  H11S13106   3.205   5.443   3.160  3.1745 -0.0263  0.2959
  123SOPE  C21213107   3.178   5.638   3.260 -0.4563  0.8576  0.2861
  123SOPE  H12R13108   3.157   5.743   3.231  1.2000  1.3702  0.8434
  123SOPE  H12S13109   3.273   5.646   3.316 -0.2318  1.3567 -0.1646
  123SOPE  C21313110   3.067   5.570   3.340 -0.2227  0.1359  0.2058
  123SOPE  H13R13111   3.101   5.475   3.386 -1.5044  0.2362  1.4388
  123SOPE  H13S13112   2.984   5.543   3.272 -0.0367  0.3456 -0.1026
  123SOPE  C21413113   3.027   5.665   3.450  0.3777 -0.2721 -0.1098
  123SOPE  H14R13114   2.965   5.748   3.409 -0.3859 -1.0294 -0.5260
  123SOPE  H14S13115   3.125   5.702   3.487  0.5574 -0.1383 -0.7206
  123SOPE  C21513116   2.956   5.600   3.573  0.1031 -0.8726  0.1127
  123SOPE  H15R13117   3.029   5.520   3.598  1.9530  0.6236 -0.2480
  123SOPE  H15S13118   2.859   5.562   3.534 -0.9651 -0.2605  2.0526
  123SOPE  C21613119   2.928   5.681   3.700  0.1062 -0.0003 -0.1419
  123SOPE  H16R13120   2.850   5.754   3.671 -0.3359  0.7518  2.6505
  123SOPE  H16S13121   3.024   5.730   3.728  0.8646  0.5960 -3.3975
  123SOPE  C21713122   2.878   5.599   3.819 -0.0772 -0.3320  0.4913
  123SOPE  H17R13123   2.864   5.677   3.897  0.7713  1.4557 -1.0641
  123SOPE  H17S13124   2.974   5.554   3.854  0.1859  1.7704  2.8034
  123SOPE  C21813125   2.760   5.498   3.801  0.3991  0.1483 -0.5127
  123SOPE  H18R13126   2.738   5.450   3.899  0.6018  2.1893  0.5903
  123SOPE  H18S13127   2.788   5.416   3.732  1.1419 -0.1173  0.0833
  123SOPE  H18T13128   2.683   5.562   3.754  0.9083  0.6302 -0.7012
  123SOPE   C3313129   2.393   5.387   2.708 -0.1551  0.1672  0.2328
  123SOPE   H3X13130   2.297   5.336   2.682 -0.6308 -0.4184  2.8396
  123SOPE   H3Y13131   2.356   5.492   2.709 -3.7879 -0.9623  0.7405
  123SOPE   C3413132   2.429   5.351   2.852  0.8848  0.4243  0.5895
  123SOPE   H4X13133   2.517   5.410   2.887  0.9511  0.5853  0.1574
  123SOPE   H4Y13134   2.444   5.242   2.856 -0.8981  0.1829  2.9276
  123SOPE   C3513135   2.309   5.376   2.943 -0.3490  0.5926  0.1762
  123SOPE   H5X13136   2.237   5.297   2.915  2.6938 -2.5341  0.5852
  123SOPE   H5Y13137   2.267   5.478   2.930  0.9752  1.1180 -0.1382
  123SOPE   C3613138   2.340   5.359   3.095  0.7077  0.2206 -0.3817
  123SOPE   H6X13139   2.394   5.450   3.128  0.3025  0.4592 -0.3700
  123SOPE   H6Y13140   2.427   5.291   3.108 -1.7211 -2.8672  1.0052
  123SOPE   C3713141   2.220   5.319   3.180 -0.2943  0.4068 -0.3970
  123SOPE   H7X13142   2.172   5.222   3.153 -3.0033  1.9227 -1.4281
  123SOPE   H7Y13143   2.148   5.402   3.166 -0.3757  0.2440 -0.9605
  123SOPE   C3813144   2.256   5.301   3.325 -0.4361 -0.6302 -0.3404
  123SOPE   H8X13145   2.330   5.380   3.353 -0.3992  0.4033 -3.0140
  123SOPE   H8Y13146   2.305   5.202   3.328  0.4193 -0.1888  1.7989
  123SOPE   C3913147   2.138   5.299   3.423 -0.1814 -0.1206  0.0155
  123SOPE   H9X13148   2.054   5.256   3.364  0.8445 -1.6999 -0.3722
  123SOPE   H9Y13149   2.117   5.405   3.449 -2.2203 -0.3331 -0.5621
  123SOPE  C31013150   2.139   5.209   3.548  0.4849  0.1675 -1.0064
  123SOPE  H10X13151   2.137   5.103   3.512 -0.2226  0.7445 -2.7480
  123SOPE  H10Y13152   2.044   5.231   3.601  0.6497 -0.6164 -0.3571
  123SOPE  C31113153   2.259   5.225   3.629 -0.3193 -0.6998 -0.1084
  123SOPE  H11X13154   2.303   5.326   3.616 -0.8207 -0.3679  0.6527
  123SOPE  H11Y13155   2.334   5.158   3.582 -0.8935 -0.9681 -0.6641
  123SOPE  C31213156   2.234   5.189   3.777  0.4650 -0.2570 -0.7171
  123SOPE  H12X13157   2.328   5.217   3.829  0.8895  3.0368 -2.9553
  123SOPE  H12Y13158   2.213   5.080   3.784  1.1536 -0.4205 -1.0795
  123SOPE  C31313159   2.128   5.270   3.844 -0.4024  0.9632  0.2010
  123SOPE  H13X13160   2.025   5.247   3.808 -1.8502  0.2442  4.2818
  123SOPE  H13Y13161   2.153   5.376   3.822 -1.9947  1.2667 -0.2745
  123SOPE  C31413162   2.110   5.260   3.989 -0.7314  0.8530  0.2598
  123SOPE  H14X13163   2.212   5.255   4.034 -0.4856  1.5856 -0.2045
  123SOPE  H14Y13164   2.073   5.161   4.024  0.2638  1.0765  2.1090
  123SOPE  C31513165   2.045   5.385   4.050 -0.3650  0.0046  0.4743
  123SOPE  H15X13166   1.940   5.386   4.012 -1.0050 -1.8788  2.0251
  123SOPE  H15Y13167   2.107   5.472   4.018 -0.3146 -0.2297 -0.0809
  123SOPE  C31613168   2.037   5.387   4.203  0.1098 -0.1757  0.8900
  123SOPE  H16X13169   1.990   5.293   4.239 -1.4573 -0.6431 -2.0653
  123SOPE  H16Y13170   1.971   5.472   4.230 -0.3654 -0.3805  0.3912
  123SOPE  C31713171   2.174   5.419   4.275 -0.2340  0.2674 -0.0004
  123SOPE  H17X13172   2.204   5.522   4.247 -2.8806  0.2863 -3.2545
  123SOPE  H17Y13173   2.238   5.336   4.237 -1.7508 -0.7713 -0.3667
  123SOPE  C31813174   2.174   5.405   4.423  0.6123  0.2447  0.0643
  123SOPE  H18X13175   2.261   5.451   4.474  1.7098 -0.4549 -1.1039
  123SOPE  H18Y13176   2.184   5.297   4.448  1.4185  0.1363 -0.6677
  123SOPE  H18Z13177   2.083   5.443   4.474 -2.0426 -1.5386 -2.9214
  124SOPE     N13178   4.722   6.342   2.292 -0.8764  0.2469 -0.8752
  124SOPE   HN113179   4.635   6.396   2.312 -0.5522  0.5063 -0.1529
  124SOPE   HN213180   4.791   6.401   2.241 -0.7777  1.9277  1.0519
  124SOPE   HN313181   4.702   6.255   2.239 -1.6739  0.1311 -0.3979
  124SOPE   C1213182   4.780   6.299   2.428  0.4160 -0.1404  0.3947
  124SOPE  H12A13183   4.723   6.212   2.467  3.1108 -0.8819  3.0702
  124SOPE  H12B13184   4.769   6.386   2.496 -0.7517  0.1383 -0.1162
  124SOPE   C1113185   4.918   6.243   2.406 -0.4591 -0.2807  0.4454
  124SOPE  H11A13186   4.965   6.218   2.503  0.7130  0.5588  0.1192
  124SOPE  H11B13187   4.986   6.318   2.361 -0.2815 -0.3706  0.5634
  124SOPE     P13188   5.053   6.074   2.274  0.1466  0.1364  0.0905
  124SOPE   O1313189   5.157   6.162   2.323 -0.5648  0.0869 -0.1400
  124SOPE   O1413190   5.051   6.055   2.128  0.0736 -0.0266  0.0516
  124SOPE   O1213191   4.916   6.123   2.328  0.3913 -0.0750 -0.6648
  124SOPE   O1113192   5.059   5.935   2.353 -0.2966 -0.0344  0.4484
  124SOPE    C113193   5.084   5.927   2.491  0.3019 -0.3659  0.6608
  124SOPE    HA13194   5.096   6.028   2.535  3.2721  0.2420 -1.2502
  124SOPE    HB13195   5.168   5.859   2.515  0.0327 -0.2929  1.8901
  124SOPE    C213196   4.969   5.871   2.574  0.0113 -0.3124 -0.5957
  124SOPE    HS13197   4.881   5.938   2.583 -0.5722 -1.1857  0.5648
  124SOPE   O2113198   5.028   5.839   2.697 -0.0063  0.1960  0.0707
  124SOPE   C2113199   5.023   5.933   2.780  0.5554 -0.0214  0.0476
  124SOPE   O2213200   4.962   6.039   2.765 -0.3251  0.2713 -0.0974
  124SOPE   C2213201   5.095   5.895   2.907  0.5978 -0.1318  0.4185
  124SOPE   H2R13202   5.068   5.977   2.977 -3.9801 -2.5438  1.8657
  124SOPE   H2S13203   5.202   5.883   2.880  0.3005 -0.1008 -0.8099
  124SOPE    C313204   4.920   5.737   2.513 -0.4945  0.0769 -0.2839
  124SOPE    HX13205   5.009   5.684   2.474 -1.0245 -0.7291 -0.4414
  124SOPE    HY13206   4.853   5.760   2.427  0.9979  0.0940 -1.4968
  124SOPE   O3113207   4.853   5.640   2.607 -0.8417 -0.0885 -0.0856
  124SOPE   C3113208   4.726   5.680   2.634  0.3533 -0.1723 -0.0531
  124SOPE   O3213209   4.680   5.783   2.591  0.6618 -0.3168 -0.2273
  124SOPE   C3213210   4.657   5.570   2.712 -0.3162 -0.8003  0.8993
  124SOPE   H2X13211   4.715   5.481   2.679  1.9520  0.4424  1.3864
  124SOPE   H2Y13212   4.557   5.569   2.663  0.1389  1.6410 -0.2056
  124SOPE   C2313213   5.023   5.783   2.977  0.3052 -0.6138  0.2919
  124SOPE   H3R13214   5.094   5.697   2.980  1.9094  0.5955 -1.0380
  124SOPE   H3S13215   4.936   5.752   2.915  0.3646 -2.5884  1.1176
  124SOPE   C2413216   4.975   5.824   3.117  0.0865 -0.2541 -0.1665
  124SOPE   H4R13217   5.060   5.862   3.178 -2.2835  0.7613  2.6863
  124SOPE   H4S13218   4.896   5.900   3.100 -0.4576 -0.8673 -0.4551
  124SOPE   C2513219   4.927   5.709   3.205  0.0784 -0.2526  0.2243
  124SOPE   H5R13220   4.877   5.631   3.144  1.1123 -0.2558 -0.6508
  124SOPE   H5S13221   5.018   5.671   3.256 -0.9984 -0.3874  2.1458
  124SOPE   C2613222   4.841   5.769   3.322 -0.4381 -0.3960 -0.4580
  124SOPE   H6R13223   4.874   5.859   3.378 -3.6779 -0.2081  1.4109
  124SOPE   H6S13224   4.749   5.810   3.276 -1.1691 -2.4479 -0.9012
  124SOPE   C2713225   4.805   5.668   3.434 -0.0305  0.8629 -0.0636
  124SOPE   H7R13226   4.777   5.571   3.388  1.9877 -0.5214  1.4529
  124SOPE   H7S13227   4.892   5.649   3.500 -0.8975  2.6840  1.7134
  124SOPE   C2813228   4.686   5.705   3.527 -0.6198 -0.5248  0.0203
  124SOPE   H8R13229   4.594   5.727   3.470 -0.6827 -1.3169 -0.1895
  124SOPE   H8S13230   4.671   5.613   3.588 -0.4557  0.4405  1.5679
  124SOPE   C2913231   4.712   5.819   3.621 -0.7729 -0.4341 -0.4271
  124SOPE   H9113232   4.694   5.914   3.569 -0.0033 -1.1068 -2.0310
  124SOPE  C21013233   4.763   5.821   3.750  0.2078  0.0376  0.9337
  124SOPE  H10113234   4.764   5.917   3.804 -1.9729 -0.0410  1.2216
  124SOPE  C21113235   4.789   5.698   3.831 -0.1279  0.4012 -0.6068
  124SOPE  H11R13236   4.779   5.603   3.775 -0.0276  0.7068 -1.1468
  124SOPE  H11S13237   4.717   5.691   3.915  0.2660 -1.4667 -0.3718
  124SOPE  C21213238   4.944   5.700   3.872 -0.4837  0.4664 -0.2795
  124SOPE  H12R13239   4.965   5.795   3.927 -1.7757  0.9351 -0.5697
  124SOPE  H12S13240   5.008   5.687   3.783 -1.0227  0.1229 -0.6188
  124SOPE  C21313241   4.966   5.583   3.971 -0.7617 -0.1506 -0.1382
  124SOPE  H13R13242   4.956   5.485   3.920  0.6262 -0.8753  0.9152
  124SOPE  H13S13243   4.900   5.593   4.060 -1.3781  0.1859 -0.6318
  124SOPE  C21413244   5.103   5.587   4.042  0.2278 -0.6347 -0.0389
  124SOPE  H14R13245   5.176   5.642   3.978 -0.1172  1.0977  0.9724
  124SOPE  H14S13246   5.145   5.485   4.051  0.2230 -0.5877  0.5420
  124SOPE  C21513247   5.094   5.650   4.184  0.4826 -0.0816  0.3034
  124SOPE  H15R13248   5.025   5.588   4.245  2.1584  0.2789  2.6908
  124SOPE  H15S13249   5.066   5.757   4.173  2.3397  0.4113  0.1720
  124SOPE  C21613250   5.229   5.640   4.256 -0.2971 -0.0511  0.5018
  124SOPE  H16R13251   5.267   5.536   4.252 -1.3005 -0.4001 -0.5944
  124SOPE  H16S13252   5.209   5.655   4.365 -0.3200  0.1823  0.4664
  124SOPE  C21713253   5.335   5.734   4.203 -0.2241  0.7747 -0.1239
  124SOPE  H17R13254   5.328   5.742   4.093 -2.2302 -4.2460 -0.6350
  124SOPE  H17S13255   5.425   5.675   4.230 -1.7215 -0.7742  1.7601
  124SOPE  C21813256   5.335   5.867   4.277  0.0131  0.4803 -0.2407
  124SOPE  H18R13257   5.428   5.917   4.241  0.0539  0.5530 -0.0344
  124SOPE  H18S13258   5.330   5.845   4.386  0.8205 -0.1035 -0.3097
  124SOPE  H18T13259   5.249   5.931   4.250  0.9086  1.4157 -0.9869
  124SOPE   C3313260   4.652   5.582   2.867  0.1111 -0.2313  0.3337
  124SOPE   H3X13261   4.748   5.608   2.918 -0.6561 -0.1895  1.8143
  124SOPE   H3Y13262   4.621   5.491   2.921  1.6514 -1.3493 -0.5938
  124SOPE   C3413263   4.555   5.693   2.896  0.8499 -0.0949 -0.0777
  124SOPE   H4X13264   4.455   5.668   2.854  0.7993  1.8426 -1.1916
  124SOPE   H4Y13265   4.580   5.788   2.845 -1.4799  1.0377  0.7714
  124SOPE   C3513266   4.537   5.719   3.053  0.4865  0.2207 -0.0652
  124SOPE   H5X13267   4.637   5.742   3.098  0.6428  2.1716 -1.2937
  124SOPE   H5Y13268   4.488   5.629   3.096 -0.1735  0.9140  0.6666
  124SOPE   C3613269   4.441   5.835   3.103 -0.0244  1.0008  0.2785
  124SOPE   H6X13270   4.340   5.802   3.071  1.1309 -1.3836 -1.2272
  124SOPE   H6Y13271   4.456   5.928   3.045  1.2052  0.5336 -0.1877
  124SOPE   C3713272   4.457   5.862   3.254  0.4540  0.6960  0.7701
  124SOPE   H7X13273   4.562   5.892   3.275  0.7043  0.7670 -0.4739
  124SOPE   H7Y13274   4.431   5.774   3.316 -0.3992  1.0761  0.9676
  124SOPE   C3813275   4.364   5.976   3.294  0.7878  0.1054 -0.0254
  124SOPE   H8X13276   4.257   5.949   3.290  0.7547  0.3465 -1.0721
  124SOPE   H8Y13277   4.371   6.057   3.217  0.3472  0.5848  0.4290
  124SOPE   C3913278   4.407   6.049   3.426  0.5003  0.2394  0.2574
  124SOPE   H9X13279   4.451   5.975   3.496 -1.2063 -1.7566 -0.6982
  124SOPE   H9Y13280   4.315   6.094   3.468  1.7082  0.4525  2.8947
  124SOPE  C31013281   4.507   6.161   3.405 -0.6036 -0.2278  0.7674
  124SOPE  H10X13282   4.461   6.237   3.338 -1.6444 -1.5219 -0.0471
  124SOPE  H10Y13283   4.590   6.105   3.356 -0.7977 -0.3461  0.5691
  124SOPE  C31113284   4.582   6.216   3.531 -0.1223  0.2508 -0.3766
  124SOPE  H11X13285   4.632   6.312   3.506  0.1236  0.0644 -0.6068
  124SOPE  H11Y13286   4.657   6.136   3.551  0.6885  0.1851 -3.3227
  124SOPE  C31213287   4.494   6.242   3.651  0.2063 -0.4077  0.2447
  124SOPE  H12X13288   4.436   6.150   3.674 -1.1684  0.1779 -0.7208
  124SOPE  H12Y13289   4.415   6.316   3.626 -0.2589 -1.2824 -0.9328
  124SOPE  C31313290   4.560   6.300   3.778  0.2660  1.1658  0.6483
  124SOPE  H13X13291   4.477   6.325   3.848 -1.9647 -1.1024 -1.0212
  124SOPE  H13Y13292   4.620   6.392   3.761  1.2608  0.7586  1.7808
  124SOPE  C31413293   4.655   6.206   3.843 -0.0160  0.4477 -0.1056
  124SOPE  H14X13294   4.711   6.142   3.770  0.0106  0.0434  0.2658
  124SOPE  H14Y13295   4.586   6.137   3.897  0.3479 -0.4848 -0.7916
  124SOPE  C31513296   4.760   6.280   3.930  0.1272  0.4677  0.6809
  124SOPE  H15X13297   4.697   6.333   4.005  0.8459 -0.6841  2.1609
  124SOPE  H15Y13298   4.820   6.360   3.882  1.0755 -1.4162 -1.4701
  124SOPE  C31613299   4.852   6.189   4.014  0.3460  0.2332 -0.1170
  124SOPE  H16X13300   4.930   6.154   3.943 -0.0845 -1.6346  0.2754
  124SOPE  H16Y13301   4.795   6.102   4.054 -1.8380  0.4429 -2.4887
  124SOPE  C31713302   4.921   6.262   4.135 -0.9435 -0.7856  0.9924
  124SOPE  H17X13303   4.849   6.336   4.178  1.5785  2.1915  0.4162
  124SOPE  H17Y13304   5.000   6.328   4.093 -0.1602 -1.2876  1.6575
  124SOPE  C31813305   4.987   6.165   4.233 -0.2744  0.2174  0.4381
  124SOPE  H18X13306   5.061   6.105   4.176  0.6827  0.5010  1.3287
  124SOPE  H18Y13307   4.914   6.096   4.281  0.8598  0.1238  2.1223
  124SOPE  H18Z13308   5.032   6.225   4.315 -2.0445  0.4321  1.3133
  125SOPE     N13309   6.858   0.019   2.106  0.3522 -0.3969 -0.2497
  125SOPE   HN113310   6.764  -0.006   2.143  1.2755 -1.2638  1.6906
  125SOPE   HN213311   6.907  -0.061   2.060 -0.9848 -0.9237 -0.8298
  125SOPE   HN313312   6.915   0.036   2.191  1.9576 -1.5243 -1.0529
  125SOPE   C1213313   6.859   0.133   2.017 -0.8405 -0.1049 -0.4147
  125SOPE  H12A13314   6.770   0.128   1.950 -1.5718  1.2949  0.3915
  125SOPE  H12B13315   6.955   0.136   1.961 -0.0871  0.7138  0.8695
  125SOPE   C1113316   6.821   0.250   2.110 -0.7418  0.1616 -0.3020
  125SOPE  H11A13317   6.815   0.345   2.053  1.2845  0.1170 -0.6581
  125SOPE  H11B13318   6.902   0.265   2.185 -2.4108  1.2645  1.3599
  125SOPE     P13319   6.654   0.332   2.305 -0.6328  0.8220 -0.0862
  125SOPE   O1313320   6.519   0.283   2.349 -0.3091  0.0175  0.5387
  125SOPE   O1413321   6.657   0.470   2.251  0.0276 -1.5086 -0.2101
  125SOPE   O1213322   6.704   0.226   2.192  0.3460 -0.0205 -0.3380
  125SOPE   O1113323   6.758   0.322   2.418  0.0627  0.8505  0.2507
  125SOPE    C113324   6.748   0.202   2.498  0.0475  0.9239  0.3606
  125SOPE    HA13325   6.781   0.110   2.446  1.3999  1.1154  0.8503
  125SOPE    HB13326   6.645   0.167   2.518  0.8453 -1.6921  0.2122
  125SOPE    C213327   6.829   0.226   2.632  0.5897  0.9851  0.1485
  125SOPE    HS13328   6.815   0.137   2.697  0.8678  1.8165  1.3933
  125SOPE   O2113329   6.793   0.347   2.700  0.3185 -0.1014 -0.1634
  125SOPE   C2113330   6.677   0.347   2.765 -0.7652  0.4962 -0.0453
  125SOPE   O2213331   6.601   0.256   2.778 -0.2756 -0.1228 -0.1490
  125SOPE   C2213332   6.651   0.486   2.824 -0.7678  0.6073  0.1077
  125SOPE   H2R13333   6.596   0.538   2.743 -0.4185 -1.3654 -1.4694
  125SOPE   H2S13334   6.750   0.535   2.839 -0.7212 -0.1055  2.5649
  125SOPE    C313335   6.984   0.223   2.598 -0.0358 -0.4293  0.3994
  125SOPE    HX13336   6.994   0.306   2.525 -1.2767  0.6210  1.3737
  125SOPE    HY13337   7.006   0.128   2.545  2.8290  0.0978  0.4689
  125SOPE   O3113338   7.061   0.236   2.711  0.0488 -0.0284 -0.5054
  125SOPE   C3113339   7.091   0.129   2.781 -0.2516  1.0356 -0.1050
  125SOPE   O3213340   7.054   0.013   2.762 -0.2494  0.1569 -0.1866
  125SOPE   C3213341   7.177   0.166   2.898 -1.1703 -0.0075 -1.0655
  125SOPE   H2X13342   7.208   0.272   2.883  0.4021 -0.5314 -1.7258
  125SOPE   H2Y13343   7.265   0.099   2.900 -1.9842 -1.0956 -0.7160
  125SOPE   C2313344   6.562   0.486   2.947  0.6327  0.0532 -0.5410
  125SOPE   H3R13345   6.489   0.403   2.943 -0.1826  0.5693  1.8260
  125SOPE   H3S13346   6.504   0.581   2.957  2.0186  0.8992 -0.2330
  125SOPE   C2413347   6.648   0.484   3.078 -0.0372  0.2408  1.0260
  125SOPE   H4R13348   6.721   0.400   3.065 -0.1385  0.2844  0.1300
  125SOPE   H4S13349   6.695   0.585   3.077  0.3375  0.0970 -0.8364
  125SOPE   C2513350   6.567   0.459   3.207  0.2892 -0.4472  0.0317
  125SOPE   H5R13351   6.490   0.539   3.207  1.5001  0.7889 -1.4304
  125SOPE   H5S13352   6.523   0.357   3.202 -2.4060  0.4631  2.3996
  125SOPE   C2613353   6.650   0.470   3.337  0.4976  0.2953  0.1216
  125SOPE   H6R13354   6.732   0.397   3.319 -0.1375  0.2054 -2.7996
  125SOPE   H6S13355   6.702   0.568   3.347  0.2618  0.2713  2.0825
  125SOPE   C2713356   6.572   0.447   3.474  0.5750  0.1268 -0.2344
  125SOPE   H7R13357   6.472   0.493   3.462 -0.1264 -1.3249 -0.2088
  125SOPE   H7S13358   6.554   0.337   3.469  2.4791 -0.2185 -0.4195
  125SOPE   C2813359   6.655   0.477   3.596 -0.3281 -0.2426  0.2649
  125SOPE   H8R13360   6.617   0.418   3.682 -1.6632 -0.8917 -0.7327
  125SOPE   H8S13361   6.759   0.440   3.589 -0.3989 -1.0404  2.5236
  125SOPE   C2913362   6.653   0.621   3.620  0.2664 -0.7396 -0.4929
  125SOPE   H9113363   6.582   0.683   3.563  0.4338  0.8997  0.9793
  125SOPE  C21013364   6.713   0.688   3.725 -0.0452  0.2628  0.4916
  125SOPE  H10113365   6.704   0.798   3.727 -2.9751  0.0977  1.0311
  125SOPE  C21113366   6.799   0.620   3.834 -1.1331 -0.6061  0.4488
  125SOPE  H11R13367   6.903   0.657   3.821 -1.3296 -0.6663 -1.4870
  125SOPE  H11S13368   6.801   0.509   3.827  0.1494 -0.8401  3.1312
  125SOPE  C21213369   6.745   0.660   3.978 -0.0194 -0.0160 -0.5117
  125SOPE  H12R13370   6.648   0.606   3.979  0.5752 -1.1231 -0.3862
  125SOPE  H12S13371   6.712   0.766   3.985 -3.3342 -1.0216  1.0648
  125SOPE  C21313372   6.816   0.599   4.096 -0.5509 -0.1737 -0.3347
  125SOPE  H13R13373   6.907   0.662   4.109 -2.2827  2.4835 -0.2779
  125SOPE  H13S13374   6.844   0.494   4.076 -2.4774 -0.4385 -1.8082
  125SOPE  C21413375   6.742   0.598   4.228  0.1600 -0.3809  0.4647
  125SOPE  H14R13376   6.653   0.535   4.209 -0.4722  0.9362 -1.1799
  125SOPE  H14S13377   6.701   0.694   4.267  0.4055 -0.9968  2.3286
  125SOPE  C21513378   6.818   0.527   4.341  0.3439 -0.1105  0.3593
  125SOPE  H15R13379   6.884   0.457   4.286  1.8109  1.2821  0.2618
  125SOPE  H15S13380   6.747   0.464   4.400  0.0279  0.5759  0.7227
  125SOPE  C21613381   6.899   0.626   4.422  0.0613 -0.1117 -0.3704
  125SOPE  H16R13382   6.823   0.694   4.467  0.3125 -0.4141  0.5303
  125SOPE  H16S13383   6.965   0.690   4.360 -0.5910  0.1041 -0.8582
  125SOPE  C21713384   6.978   0.561   4.539  0.1862 -0.1128 -0.6423
  125SOPE  H17R13385   7.055   0.495   4.493  0.2583 -0.5158  0.0448
  125SOPE  H17S13386   6.912   0.490   4.593 -1.6089 -1.0162 -3.7611
  125SOPE  C21813387   7.047   0.659   4.647  0.0730 -0.4548 -0.4128
  125SOPE  H18R13388   7.089   0.614   4.739 -0.2329  0.9463  0.4404
  125SOPE  H18S13389   6.975   0.731   4.691 -1.0525 -2.4814  1.2150
  125SOPE  H18T13390   7.118   0.731   4.600 -1.9993  2.0914  0.1472
  125SOPE   C3313391   7.096   0.151   3.033  1.1009  0.0005  0.0790
  125SOPE   H3X13392   7.006   0.214   3.020  1.4259  1.1058  2.5551
  125SOPE   H3Y13393   7.163   0.202   3.105 -0.4637  0.8535  0.9825
  125SOPE   C3413394   7.054   0.005   3.079 -0.0742 -0.2020 -0.1270
  125SOPE   H4X13395   7.144  -0.060   3.084  1.3565  1.7651  1.0625
  125SOPE   H4Y13396   6.973  -0.038   3.016  1.2266  1.0707 -2.8331
  125SOPE   C3513397   6.988   0.010   3.220  0.5451 -0.0682  0.6395
  125SOPE   H5X13398   6.944  -0.090   3.238 -1.9567  0.1574 -3.1920
  125SOPE   H5Y13399   6.898   0.074   3.211  0.3294 -0.4915 -0.3863
  125SOPE   C3613400   7.074   0.053   3.335  0.6726  0.1238  0.6274
  125SOPE   H6X13401   7.119   0.149   3.301 -0.8551  1.0680  1.1789
  125SOPE   H6Y13402   7.150  -0.027   3.344 -0.4328 -1.1922 -1.0923
  125SOPE   C3713403   6.983   0.076   3.461 -0.4104  0.5621  0.6276
  125SOPE   H7X13404   6.928  -0.020   3.476  1.0863 -0.7166 -1.4781
  125SOPE   H7Y13405   6.906   0.154   3.442  2.0188  3.3962  1.7532
  125SOPE   C3813406   7.070   0.125   3.580 -0.5335  0.1611 -0.0307
  125SOPE   H8X13407   7.121   0.220   3.555 -0.0674  0.5401  2.1631
  125SOPE   H8Y13408   7.147   0.048   3.604  0.3968  1.0949  0.0209
  125SOPE   C3913409   6.995   0.142   3.704  0.0967  0.6163 -0.9001
  125SOPE   H9X13410   6.961   0.038   3.724  0.6470  0.0698 -2.6914
  125SOPE   H9Y13411   6.907   0.208   3.691 -0.3730  1.2773  3.8017
  125SOPE  C31013412   7.077   0.182   3.827  0.6211 -1.2709 -0.5847
  125SOPE  H10X13413   7.117   0.283   3.802  1.4628 -1.5782 -0.5201
  125SOPE  H10Y13414   7.159   0.109   3.843  1.4893  0.0753  1.6943
  125SOPE  C31113415   6.990   0.189   3.953 -0.2085  0.1724 -0.4234
  125SOPE  H11X13416   6.917   0.107   3.941 -0.2875  0.4643 -2.2419
  125SOPE  H11Y13417   6.939   0.288   3.959  1.6730  1.1385  4.6929
  125SOPE  C31213418   7.081   0.171   4.078  0.3334 -0.6627 -0.2710
  125SOPE  H12X13419   7.127   0.270   4.097 -0.7090 -0.1989 -0.1244
  125SOPE  H12Y13420   7.156   0.094   4.049 -0.2770 -1.3168 -0.1586
  125SOPE  C31313421   6.997   0.132   4.208 -0.3204  0.6028 -0.3972
  125SOPE  H13X13422   6.948   0.034   4.188 -1.0880  0.5076  1.6747
  125SOPE  H13Y13423   6.926   0.213   4.234 -0.8053 -0.8765  3.7191
  125SOPE  C31413424   7.080   0.121   4.335  0.0750  0.3422 -0.0102
  125SOPE  H14X13425   7.122   0.219   4.367  2.4337 -0.8669  0.8497
  125SOPE  H14Y13426   7.157   0.048   4.301 -1.0235  0.9554 -4.4557
  125SOPE  C31513427   6.997   0.073   4.451  0.0198  0.2551  0.3056
  125SOPE  H15X13428   6.997  -0.038   4.451  1.9119  0.2070  0.9292
  125SOPE  H15Y13429   6.893   0.111   4.447  0.0100  0.3262  1.1943
  125SOPE  C31613430   7.058   0.120   4.586  0.5078  0.0030  0.4348
  125SOPE  H16X13431   7.089   0.226   4.580 -0.7800  0.3864  0.2702
  125SOPE  H16Y13432   7.153   0.063   4.600  0.4934  0.2822  1.8077
  125SOPE  C31713433   6.962   0.088   4.708 -0.2356  0.0412  0.5594
  125SOPE  H17X13434   7.013   0.104   4.806 -0.9340  1.5622  0.7133
  125SOPE  H17Y13435   6.940  -0.020   4.696  0.6148  0.0496 -1.2856
  125SOPE  C31813436   6.834   0.162   4.727  1.3254 -0.2858 -0.0267
  125SOPE  H18X13437   6.863   0.267   4.750 -1.4298  0.3169  1.0906
  125SOPE  H18Y13438   6.777   0.126   4.816  2.8159 -2.4922  0.1220
  125SOPE  H18Z13439   6.772   0.136   4.639 -0.5386 -1.5024  1.5498
  126SOPE     N13440   2.632   3.610   1.719  0.2052  0.0942 -0.0338
  126SOPE   HN113441   2.547   3.550   1.711 -0.2934  0.8690 -0.5683
  126SOPE   HN213442   2.650   3.647   1.624  1.9661 -1.1217 -0.2380
  126SOPE   HN313443   2.716   3.561   1.758  0.1354  0.0873  0.1092
  126SOPE   C1213444   2.583   3.724   1.808 -0.3997  0.2123  0.0609
  126SOPE  H12A13445   2.479   3.752   1.784  0.0491  1.0044 -1.0548
  126SOPE  H12B13446   2.647   3.814   1.794  0.7568 -0.5477  0.2781
  126SOPE   C1113447   2.610   3.701   1.960  0.6797 -0.0108  0.7853
  126SOPE  H11A13448   2.556   3.610   1.995  1.2072 -1.1178 -1.1846
  126SOPE  H11B13449   2.574   3.789   2.018 -1.7155  1.1553 -2.1829
  126SOPE     P13450   2.828   3.673   2.109 -0.0189 -0.0682  0.1551
  126SOPE   O1313451   2.915   3.792   2.141 -0.0148  0.3123 -0.3355
  126SOPE   O1413452   2.889   3.539   2.100 -0.3148 -0.2483 -0.4827
  126SOPE   O1213453   2.744   3.691   1.984  0.0594  0.3252  0.5818
  126SOPE   O1113454   2.715   3.665   2.220 -0.1103  0.1186  0.3780
  126SOPE    C113455   2.650   3.783   2.276  0.1777 -0.4822 -0.0142
  126SOPE    HA13456   2.543   3.767   2.304 -0.4278  0.9450 -1.3520
  126SOPE    HB13457   2.649   3.864   2.200 -0.8985 -0.4610 -0.0016
  126SOPE    C213458   2.713   3.828   2.412  0.2456 -0.2734 -0.4736
  126SOPE    HS13459   2.822   3.846   2.400  0.6747 -1.2448  1.6146
  126SOPE   O2113460   2.687   3.736   2.517  0.2180 -0.2785 -0.5603
  126SOPE   C2113461   2.783   3.635   2.524  0.1168 -0.0280  0.1313
  126SOPE   O2213462   2.892   3.640   2.475  0.0504  0.4820 -0.0132
  126SOPE   C2213463   2.727   3.517   2.600 -0.3187  0.2976  0.0764
  126SOPE   H2R13464   2.766   3.428   2.546  0.9268  1.0472 -0.2898
  126SOPE   H2S13465   2.616   3.517   2.602 -0.5828 -0.9058 -4.1332
  126SOPE    C313466   2.655   3.969   2.457 -0.0537  0.5960  0.7110
  126SOPE    HX13467   2.545   3.966   2.440  0.1765 -1.2897 -0.8675
  126SOPE    HY13468   2.694   4.049   2.391  0.9284 -1.7267 -1.7014
  126SOPE   O3113469   2.682   3.992   2.595 -1.2849 -0.2120 -0.2462
  126SOPE   C3113470   2.807   4.038   2.620 -0.3224 -0.2763  0.2452
  126SOPE   O3213471   2.887   4.081   2.534 -0.3813  0.5114  0.3127
  126SOPE   C3213472   2.816   4.053   2.774 -0.4093  0.2505  1.0788
  126SOPE   H2X13473   2.886   3.975   2.812 -0.0160  0.2902  0.4578
  126SOPE   H2Y13474   2.715   4.039   2.818 -0.3585 -0.8063  0.8918
  126SOPE   C2313475   2.794   3.515   2.737  0.0209 -0.4731  0.1519
  126SOPE   H3R13476   2.898   3.554   2.733  0.0527 -0.3239  1.6425
  126SOPE   H3S13477   2.778   3.411   2.774 -1.8537 -1.2253 -2.5527
  126SOPE   C2413478   2.726   3.604   2.844 -0.6723  0.1995  0.6726
  126SOPE   H4R13479   2.699   3.702   2.799  0.8517  0.2588 -0.1442
  126SOPE   H4S13480   2.636   3.546   2.876  0.7643 -1.6855  1.4440
  126SOPE   C2513481   2.819   3.628   2.961  0.0701  0.6725  0.7338
  126SOPE   H5R13482   2.866   3.536   3.002 -0.8499  0.4737  1.3615
  126SOPE   H5S13483   2.902   3.689   2.920 -0.2999  0.5966 -0.1629
  126SOPE   C2613484   2.756   3.702   3.078  0.1145  0.2117  0.6631
  126SOPE   H6R13485   2.715   3.799   3.042  0.7389  0.1817 -0.1627
  126SOPE   H6S13486   2.670   3.648   3.122  0.6263  0.0172  1.4429
  126SOPE   C2713487   2.859   3.745   3.179  1.3854  0.1753 -0.6146
  126SOPE   H7R13488   2.881   3.649   3.231  0.0033 -0.4863 -1.1817
  126SOPE   H7S13489   2.952   3.789   3.136  1.7843  2.1702  2.0379
  126SOPE   C2813490   2.811   3.864   3.273 -0.3543  0.0230 -0.0571
  126SOPE   H8R13491   2.896   3.894   3.338 -0.9749 -3.2081  2.5249
  126SOPE   H8S13492   2.786   3.950   3.207  0.9070  1.7168  1.5431
  126SOPE   C2913493   2.695   3.840   3.358  0.3225  0.9956  0.7949
  126SOPE   H9113494   2.606   3.832   3.293  1.8183  1.1396 -1.3653
  126SOPE  C21013495   2.677   3.848   3.488 -0.4063  0.5952 -0.0232
  126SOPE  H10113496   2.584   3.806   3.530  0.8891 -1.5218  0.9137
  126SOPE  C21113497   2.776   3.867   3.598 -0.1006 -0.0300 -0.6342
  126SOPE  H11R13498   2.743   3.958   3.653 -0.5065 -0.3835 -0.2888
  126SOPE  H11S13499   2.882   3.880   3.566 -0.0470 -0.4427 -0.6301
  126SOPE  C21213500   2.792   3.746   3.682  0.6796 -0.4899 -0.7124
  126SOPE  H12R13501   2.876   3.761   3.752 -0.9993  1.1873  1.0699
  126SOPE  H12S13502   2.801   3.659   3.613  0.8318 -1.2020  0.1714
  126SOPE  C21313503   2.674   3.703   3.776 -0.0948 -0.0863  0.3067
  126SOPE  H13R13504   2.580   3.713   3.719 -0.1581  0.1758  0.4543
  126SOPE  H13S13505   2.671   3.773   3.863  0.7089  0.9156 -0.4424
  126SOPE  C21413506   2.698   3.563   3.829 -0.4262 -0.5501 -0.4770
  126SOPE  H14R13507   2.805   3.548   3.850 -0.9426 -1.5594  1.6752
  126SOPE  H14S13508   2.670   3.485   3.755  1.3992  0.6752 -2.5576
  126SOPE  C21513509   2.626   3.537   3.962 -0.3092  0.2450  0.1079
  126SOPE  H15R13510   2.685   3.578   4.047 -2.4188  1.0891  1.2401
  126SOPE  H15S13511   2.636   3.429   3.986  0.1209 -0.4316 -2.7633
  126SOPE  C21613512   2.479   3.587   3.971  0.0004 -0.3215  0.5799
  126SOPE  H16R13513   2.429   3.566   3.874  1.8210  0.9897 -0.7181
  126SOPE  H16S13514   2.478   3.698   3.964 -0.0848 -0.3367  0.3157
  126SOPE  C21713515   2.406   3.546   4.097 -0.8225 -0.2097  0.2220
  126SOPE  H17R13516   2.471   3.570   4.184 -0.8284 -1.6444  0.6541
  126SOPE  H17S13517   2.372   3.440   4.104 -0.4184 -0.2381  3.2596
  126SOPE  C21813518   2.287   3.641   4.125  0.1730 -0.0496  0.5344
  126SOPE  H18R13519   2.299   3.737   4.071  1.4010 -0.8782 -0.7459
  126SOPE  H18S13520   2.261   3.653   4.232 -1.9106  0.6373 -0.0025
  126SOPE  H18T13521   2.191   3.594   4.094 -0.4008  0.6086  1.2795
  126SOPE   C3313522   2.880   4.192   2.806  0.0466  0.2204  0.2137
  126SOPE   H3X13523   2.812   4.279   2.793  0.2291  0.0966 -1.9515
  126SOPE   H3Y13524   2.963   4.215   2.736 -0.9732 -0.1525 -1.1772
  126SOPE   C3413525   2.925   4.195   2.955  0.2151 -0.0064  0.9813
  126SOPE   H4X13526   3.001   4.273   2.978 -0.0275  0.6094 -0.1810
  126SOPE   H4Y13527   2.986   4.104   2.975  0.3059 -0.1092  0.2686
  126SOPE   C3513528   2.811   4.211   3.069  0.4781 -0.2182  0.2763
  126SOPE   H5X13529   2.750   4.118   3.072  1.1773 -0.7825 -1.3620
  126SOPE   H5Y13530   2.755   4.302   3.040  0.4138 -0.7652 -1.4856
  126SOPE   C3613531   2.882   4.226   3.208 -0.0543 -0.1306 -0.0797
  126SOPE   H6X13532   2.944   4.317   3.192 -0.2855 -0.1292 -1.0427
  126SOPE   H6Y13533   2.936   4.133   3.232 -0.3894 -0.1330  0.7024
  126SOPE   C3713534   2.780   4.255   3.315  0.0903  0.0842 -0.4237
  126SOPE   H7X13535   2.708   4.171   3.325  0.4599 -0.0612  1.2332
  126SOPE   H7Y13536   2.722   4.350   3.303 -4.8197 -2.4929  0.3337
  126SOPE   C3813537   2.851   4.265   3.454  0.7836 -0.1919  0.2772
  126SOPE   H8X13538   2.915   4.356   3.456 -0.6215  0.8525 -0.3806
  126SOPE   H8Y13539   2.916   4.176   3.444  0.5446 -0.5357  1.6118
  126SOPE   C3913540   2.748   4.252   3.572  0.2994 -0.1281 -0.8851
  126SOPE   H9X13541   2.680   4.165   3.559  1.0436 -0.6603 -1.3416
  126SOPE   H9Y13542   2.698   4.351   3.568  1.6611  0.6164 -0.1894
  126SOPE  C31013543   2.827   4.236   3.701  0.4458 -0.2800 -0.7140
  126SOPE  H10X13544   2.864   4.337   3.729 -2.0813  0.3559  0.6816
  126SOPE  H10Y13545   2.911   4.166   3.682 -0.2164 -1.1647 -0.3981
  126SOPE  C31113546   2.746   4.193   3.818 -0.0719 -0.5971  0.0948
  126SOPE  H11X13547   2.653   4.141   3.786 -0.2326 -1.1207  1.3488
  126SOPE  H11Y13548   2.710   4.282   3.874  2.4644 -0.2049  1.2318
  126SOPE  C31213549   2.826   4.098   3.906 -0.4885  0.1194  0.3201
  126SOPE  H12X13550   2.903   4.164   3.952 -1.8902  1.2627  1.0943
  126SOPE  H12Y13551   2.873   4.016   3.847  1.1052  0.3755  1.1739
  126SOPE  C31313552   2.742   4.028   4.023  0.4730 -0.4457 -0.0184
  126SOPE  H13X13553   2.648   3.987   3.981  0.1069  0.9103 -0.5676
  126SOPE  H13Y13554   2.707   4.086   4.111 -1.7494 -1.7851  0.0806
  126SOPE  C31413555   2.819   3.908   4.083  0.0589 -0.3865  0.2492
  126SOPE  H14X13556   2.861   3.838   4.007  2.5902 -2.2126  3.1259
  126SOPE  H14Y13557   2.738   3.856   4.137 -2.4270  1.6384 -1.2570
  126SOPE  C31513558   2.925   3.963   4.168 -0.0074 -0.1984 -0.8442
  126SOPE  H15X13559   2.886   4.048   4.229 -0.8144 -0.8246 -0.4752
  126SOPE  H15Y13560   3.002   4.006   4.101  1.8455 -0.4478  1.0050
  126SOPE  C31613561   3.008   3.864   4.254  0.0509  1.4804 -0.1008
  126SOPE  H16X13562   2.936   3.799   4.309  0.7552 -0.1984 -1.0947
  126SOPE  H16Y13563   3.075   3.913   4.328  1.8216 -2.6593  1.3297
  126SOPE  C31713564   3.095   3.770   4.169 -0.2340  0.3204  0.2943
  126SOPE  H17X13565   3.198   3.810   4.158  0.1689 -0.4400  1.1177
  126SOPE  H17Y13566   3.046   3.770   4.070  0.0462  0.6683  0.1562
  126SOPE  C31813567   3.094   3.625   4.227 -0.4195  0.9386 -0.2917
  126SOPE  H18X13568   2.992   3.605   4.268  1.1730  2.0339  4.8759
  126SOPE  H18Y13569   3.162   3.611   4.313 -0.2201  2.0255 -0.2532
  126SOPE  H18Z13570   3.116   3.545   4.154 -0.0002  0.0228  0.8062
  127SOPE     N13571   1.429   4.772   2.474  0.4009  0.6123 -0.0443
  127SOPE   HN113572   1.367   4.731   2.546  0.3290 -0.2650 -0.5911
  127SOPE   HN213573   1.414   4.710   2.392  1.0907  0.8126 -0.3305
  127SOPE   HN313574   1.526   4.770   2.512  0.7501  2.6928 -0.7291
  127SOPE   C1213575   1.368   4.909   2.457 -0.4437  0.5000 -0.0132
  127SOPE  H12A13576   1.367   4.954   2.559  0.4483  0.1206  0.1684
  127SOPE  H12B13577   1.266   4.881   2.423  0.8470 -0.8925 -3.0588
  127SOPE   C1113578   1.447   4.987   2.350 -0.3204 -0.0145  1.0938
  127SOPE  H11A13579   1.402   5.088   2.336  2.5745  1.1573 -0.6917
  127SOPE  H11B13580   1.430   4.927   2.258  0.0062 -1.1479  1.7597
  127SOPE     P13581   1.669   5.108   2.324  0.1568  0.3715  0.1451
  127SOPE   O1313582   1.608   5.234   2.371  0.1867  0.6544 -0.2521
  127SOPE   O1413583   1.685   5.083   2.173  0.7675 -0.1097 -0.1050
  127SOPE   O1213584   1.584   4.987   2.380  0.0990  0.3372 -0.7951
  127SOPE   O1113585   1.801   5.091   2.402 -0.2231 -0.0157  0.3157
  127SOPE    C113586   1.834   4.986   2.495 -0.5116 -0.5266 -0.1393
  127SOPE    HA13587   1.941   4.988   2.524 -0.4051 -1.0309 -0.4754
  127SOPE    HB13588   1.807   4.886   2.455 -0.4177  0.4901 -2.9710
  127SOPE    C213589   1.761   5.013   2.632  0.3120  0.1723  1.1332
  127SOPE    HS13590   1.656   5.049   2.622  0.3451  0.0065  0.0844
  127SOPE   O2113591   1.847   5.103   2.702 -0.3646 -0.5473  0.3643
  127SOPE   C2113592   1.792   5.176   2.799  0.4474 -0.2016  0.6892
  127SOPE   O2213593   1.671   5.180   2.815  0.3432 -0.0293 -0.3218
  127SOPE   C2213594   1.900   5.269   2.861  0.2405 -0.3676  0.5653
  127SOPE   H2R13595   1.933   5.334   2.778 -2.4840 -0.2736 -0.5386
  127SOPE   H2S13596   1.976   5.201   2.906 -0.8328  0.0327  3.1944
  127SOPE    C313597   1.763   4.889   2.715 -0.4409  0.2429 -0.4354
  127SOPE    HX13598   1.872   4.888   2.738 -0.6981 -2.7166  1.2063
  127SOPE    HY13599   1.732   4.809   2.645  0.5730 -2.3030  1.8625
  127SOPE   O3113600   1.693   4.892   2.841 -1.3032  0.3002  0.0569
  127SOPE   C3113601   1.568   4.853   2.844 -0.3244  0.3940 -0.4741
  127SOPE   O3213602   1.500   4.834   2.745  0.2045  0.6196 -0.7181
  127SOPE   C3213603   1.528   4.824   2.987  0.1093 -0.2942  0.3156
  127SOPE   H2X13604   1.610   4.788   3.053  0.5243  1.4154  0.7779
  127SOPE   H2Y13605   1.459   4.740   2.964 -1.3326  1.6396 -3.2558
  127SOPE   C2313606   1.838   5.361   2.969  0.2069  0.5334  0.5460
  127SOPE   H3R13607   1.753   5.418   2.925 -0.6504 -1.3669 -0.3579
  127SOPE   H3S13608   1.921   5.427   3.004 -0.0544  0.9278  0.4327
  127SOPE   C2413609   1.790   5.284   3.092 -0.4053  0.5222  0.2747
  127SOPE   H4R13610   1.720   5.202   3.065 -0.9476 -0.3020  3.6843
  127SOPE   H4S13611   1.878   5.252   3.153  0.0844  0.7616 -0.2891
  127SOPE   C2513612   1.701   5.373   3.179 -0.4229  0.0534 -0.3819
  127SOPE   H5R13613   1.772   5.439   3.234 -1.3800  0.5901  0.2506
  127SOPE   H5S13614   1.622   5.424   3.120 -2.3233 -1.7573  0.4837
  127SOPE   C2613615   1.617   5.286   3.280 -0.0530 -0.0384 -0.0334
  127SOPE   H6R13616   1.546   5.230   3.215 -1.9668 -0.2657  2.1423
  127SOPE   H6S13617   1.694   5.225   3.332  2.1656  2.8237  0.3101
  127SOPE   C2713618   1.544   5.367   3.382 -0.3629  0.4164 -0.0934
  127SOPE   H7R13619   1.477   5.439   3.330  0.5414  2.5791  1.5725
  127SOPE   H7S13620   1.480   5.293   3.434 -0.7088 -0.5648 -1.8147
  127SOPE   C2813621   1.628   5.447   3.473 -0.4141 -0.7672 -0.4499
  127SOPE   H8R13622   1.688   5.517   3.412 -2.7836  2.6515  0.7758
  127SOPE   H8S13623   1.561   5.517   3.528  2.2374  3.3563 -2.0259
  127SOPE   C2913624   1.720   5.364   3.560  0.2323  0.0803  0.5007
  127SOPE   H9113625   1.825   5.353   3.529 -0.2416  0.0822 -1.2179
  127SOPE  C21013626   1.683   5.300   3.671 -0.0360  0.7188  0.1083
  127SOPE  H10113627   1.741   5.218   3.717 -1.7958 -0.0851  1.0174
  127SOPE  C21113628   1.541   5.303   3.732 -1.4691  0.1224  0.1752
  127SOPE  H11R13629   1.466   5.349   3.665  0.3472  1.5168 -1.0105
  127SOPE  H11S13630   1.552   5.360   3.827  0.4383 -0.3808  0.2973
  127SOPE  C21213631   1.482   5.178   3.787  0.1859  0.3209  0.0249
  127SOPE  H12R13632   1.463   5.104   3.707  1.1896 -0.5336  0.5561
  127SOPE  H12S13633   1.387   5.209   3.837 -0.6129 -1.3747 -0.3648
  127SOPE  C21313634   1.564   5.100   3.895 -0.1671  0.0083  0.4793
  127SOPE  H13R13635   1.659   5.153   3.919 -1.1453  1.7047  0.7568
  127SOPE  H13S13636   1.601   5.002   3.859 -0.7033 -0.2627  0.6601
  127SOPE  C21413637   1.495   5.071   4.025  0.6849 -0.0427 -1.0228
  127SOPE  H14R13638   1.553   4.998   4.084 -0.3868  0.6535  0.9630
  127SOPE  H14S13639   1.397   5.024   3.999  0.1262  1.6994 -2.2779
  127SOPE  C21513640   1.475   5.197   4.114  0.2518  0.2662 -0.2415
  127SOPE  H15R13641   1.416   5.271   4.056 -1.8476 -0.5388  0.7584
  127SOPE  H15S13642   1.575   5.243   4.129 -0.2518  1.6155 -0.8222
  127SOPE  C21613643   1.420   5.156   4.251  0.1806 -0.2453  0.7748
  127SOPE  H16R13644   1.501   5.099   4.302  3.1060  2.1338 -0.8844
  127SOPE  H16S13645   1.338   5.086   4.225  0.3199  0.7370 -2.9126
  127SOPE  C21713646   1.372   5.274   4.334 -0.3955 -0.2812  0.0636
  127SOPE  H17R13647   1.462   5.337   4.351  1.4857 -2.0871 -2.3710
  127SOPE  H17S13648   1.349   5.222   4.429 -0.6787 -2.8666 -1.3206
  127SOPE  C21813649   1.254   5.350   4.283  0.1286  0.1085  0.1483
  127SOPE  H18R13650   1.279   5.404   4.189 -0.3257  0.7189  0.3769
  127SOPE  H18S13651   1.223   5.421   4.362  1.2003  0.0161  0.6728
  127SOPE  H18T13652   1.163   5.288   4.267 -1.6238  2.9134 -1.5996
  127SOPE   C3313653   1.449   4.935   3.060  0.1747 -0.0336 -0.5055
  127SOPE   H3X13654   1.350   4.953   3.011  0.5610 -2.0597 -2.1409
  127SOPE   H3Y13655   1.509   5.028   3.067  2.4030 -1.0984 -3.4300
  127SOPE   C3413656   1.404   4.892   3.195 -0.2091 -0.1689  0.3338
  127SOPE   H4X13657   1.497   4.873   3.253  1.4181 -0.0837 -2.0907
  127SOPE   H4Y13658   1.338   4.803   3.203  0.8360 -1.0852 -0.7979
  127SOPE   C3513659   1.326   5.005   3.274 -0.1404  0.0901  0.1026
  127SOPE   H5X13660   1.237   5.023   3.209 -1.1213  0.1553  1.4247
  127SOPE   H5Y13661   1.382   5.100   3.260 -0.8438  0.5942  0.6030
  127SOPE   C3613662   1.293   4.975   3.421  0.5538  1.1275 -1.1138
  127SOPE   H6X13663   1.379   4.982   3.491  0.7724 -1.0418 -1.0820
  127SOPE   H6Y13664   1.252   4.872   3.421  0.0547  1.2743  1.1205
  127SOPE   C3713665   1.190   5.068   3.479 -0.0342 -0.2355  0.0943
  127SOPE   H7X13666   1.101   5.052   3.414  1.1265 -0.2564 -1.5644
  127SOPE   H7Y13667   1.224   5.171   3.454  0.5957 -0.3085  0.6313
  127SOPE   C3813668   1.164   5.080   3.633 -0.5019  0.1127  0.0292
  127SOPE   H8X13669   1.087   5.159   3.641 -0.8470 -0.2269  0.0337
  127SOPE   H8Y13670   1.259   5.112   3.682  0.4141 -0.5694 -1.2222
  127SOPE   C3913671   1.119   4.948   3.695 -0.2624  0.3991 -0.0260
  127SOPE   H9X13672   1.200   4.873   3.682 -0.8963 -0.3596  0.3865
  127SOPE   H9Y13673   1.032   4.909   3.639  0.6542  0.5155 -1.5876
  127SOPE  C31013674   1.091   4.966   3.846  0.0937 -0.8174 -0.6436
  127SOPE  H10X13675   0.992   5.016   3.846 -0.1124 -0.8521  3.6989
  127SOPE  H10Y13676   1.163   5.042   3.883 -0.9927 -0.4290  0.7668
  127SOPE  C31113677   1.091   4.834   3.920  0.0452  0.3764  0.3554
  127SOPE  H11X13678   1.178   4.780   3.877 -1.0390  0.3014 -1.8791
  127SOPE  H11Y13679   0.994   4.789   3.888  1.4132 -1.1856 -1.9449
  127SOPE  C31213680   1.093   4.851   4.077 -0.0334 -0.2142 -0.0690
  127SOPE  H12X13681   1.177   4.919   4.106 -0.9713  1.6907 -1.5895
  127SOPE  H12Y13682   1.099   4.753   4.129  3.1039  0.1751  0.5285
  127SOPE  C31313683   0.960   4.924   4.134 -0.1171 -0.1879  0.7809
  127SOPE  H13X13684   0.867   4.888   4.085  1.7810 -1.6210 -2.0700
  127SOPE  H13Y13685   0.968   5.031   4.104 -0.7788 -0.3138  0.1311
  127SOPE  C31413686   0.941   4.919   4.283 -0.0840 -0.5422  0.1114
  127SOPE  H14X13687   0.922   4.818   4.325  2.5168 -0.1615  2.5219
  127SOPE  H14Y13688   0.851   4.978   4.312 -0.8672 -2.9578  2.9914
  127SOPE  C31513689   1.060   4.977   4.363  0.5482  0.2003  0.3889
  127SOPE  H15X13690   1.073   5.083   4.331 -1.3603 -0.4680 -3.0675
  127SOPE  H15Y13691   1.153   4.918   4.344  0.1869 -0.3615  0.3503
  127SOPE  C31613692   1.035   4.981   4.514  0.0323 -0.0810 -0.8934
  127SOPE  H16X13693   1.061   4.879   4.550  0.0632  0.9477  2.2809
  127SOPE  H16Y13694   0.935   5.016   4.549 -0.5436 -2.5729  0.2043
  127SOPE  C31713695   1.124   5.081   4.595  0.3734 -0.2629  0.4956
  127SOPE  H17X13696   1.222   5.069   4.544  0.1594 -0.9755  0.2416
  127SOPE  H17Y13697   1.136   5.048   4.701 -1.7115  2.8225  1.8462
  127SOPE  C31813698   1.079   5.226   4.584 -0.1795 -0.1371  0.2150
  127SOPE  H18X13699   1.042   5.250   4.482  0.1004 -0.1754  0.1037
  127SOPE  H18Y13700   1.169   5.291   4.594  0.0288 -0.2597 -0.8245
  127SOPE  H18Z13701   1.001   5.251   4.659 -0.2606 -0.2432  0.1660
  128SOPE     N13702   0.146   2.429   2.344 -0.1911 -1.0860 -0.8064
  128SOPE   HN113703   0.196   2.487   2.272 -2.3832 -0.8449 -2.2327
  128SOPE   HN213704   0.066   2.386   2.293 -0.1817 -1.7822 -0.2456
  128SOPE   HN313705   0.108   2.486   2.422  0.1541  0.8150 -1.9475
  128SOPE   C1213706   0.242   2.325   2.379 -0.0221 -0.4946 -0.1673
  128SOPE  H12A13707   0.196   2.270   2.464  0.6837 -1.0594 -0.1387
  128SOPE  H12B13708   0.334   2.383   2.398 -0.1231  0.6159 -2.6271
  128SOPE   C1113709   0.256   2.227   2.256  0.4490  0.4943  0.1298
  128SOPE  H11A13710   0.295   2.283   2.168  0.3616 -0.0092 -0.2294
  128SOPE  H11B13711   0.155   2.185   2.233  0.3044  0.2824  1.1083
  128SOPE     P13712   0.494   2.120   2.293  0.0938 -0.2309 -0.3703
  128SOPE   O1313713   0.538   2.256   2.264  0.3877 -0.1571 -0.2139
  128SOPE   O1413714   0.534   2.004   2.209 -0.0624 -0.4475 -0.4953
  128SOPE   O1213715   0.333   2.113   2.298 -0.0938 -0.2141  0.8908
  128SOPE   O1113716   0.538   2.106   2.438 -0.1980  0.1433  0.1774
  128SOPE    C113717   0.500   1.986   2.514  0.2976  0.3551 -0.5697
  128SOPE    HA13718   0.584   1.947   2.576  0.2863  0.7388 -0.3063
  128SOPE    HB13719   0.468   1.896   2.459 -3.0831 -0.1525  1.9016
  128SOPE    C213720   0.378   2.023   2.601 -0.2264  0.0312 -0.2952
  128SOPE    HS13721   0.312   2.075   2.528  0.0617  0.8940  0.0603
  128SOPE   O2113722   0.429   2.085   2.718 -0.3070 -0.0061  0.0635
  128SOPE   C2113723   0.376   2.195   2.745 -0.8931 -0.0033 -0.1276
  128SOPE   O2213724   0.296   2.255   2.676  0.1878  0.3765  0.0548
  128SOPE   C2213725   0.431   2.255   2.878  0.3061  0.0578  1.2459
  128SOPE   H2R13726   0.514   2.320   2.842  0.1054 -1.5035 -2.3974
  128SOPE   H2S13727   0.475   2.176   2.943  0.5228 -1.3871 -0.5700
  128SOPE    C313728   0.301   1.897   2.640 -0.0416 -0.1965 -0.4132
  128SOPE    HX13729   0.377   1.835   2.693 -0.8686  0.2287  1.3349
  128SOPE    HY13730   0.277   1.842   2.547  0.9507 -1.0630 -0.1833
  128SOPE   O3113731   0.191   1.919   2.722  0.3082  0.2491  0.3562
  128SOPE   C3113732   0.083   1.974   2.659 -0.4696 -0.0899  0.1829
  128SOPE   O3213733   0.073   1.979   2.537  0.2291 -0.3927  0.2932
  128SOPE   C3213734  -0.008   2.015   2.767 -0.0488 -0.1664  0.1239
  128SOPE   H2X13735  -0.018   1.926   2.834  0.5317  0.4942  1.1073
  128SOPE   H2Y13736  -0.111   2.021   2.725  1.4770 -0.3191 -4.2009
  128SOPE   C2313737   0.323   2.329   2.962  0.0520  0.2230 -0.3395
  128SOPE   H3R13738   0.230   2.270   2.979  0.8295 -0.6710  0.9781
  128SOPE   H3S13739   0.287   2.418   2.905 -2.4775  0.4936  1.5151
  128SOPE   C2413740   0.366   2.365   3.103 -0.3266  0.2912 -0.1337
  128SOPE   H4R13741   0.406   2.277   3.156 -3.1744 -2.2978 -1.9317
  128SOPE   H4S13742   0.444   2.443   3.088 -1.0082  0.9678 -0.2501
  128SOPE   C2513743   0.251   2.424   3.181  0.0248  0.3549 -0.0971
  128SOPE   H5R13744   0.200   2.490   3.107 -0.7635  1.3232  1.2788
  128SOPE   H5S13745   0.186   2.343   3.219  1.1893  0.0017  1.2075
  128SOPE   C2613746   0.290   2.504   3.305  0.1879  0.2873  0.1601
  128SOPE   H6R13747   0.194   2.522   3.359 -1.3758 -0.9860 -2.0501
  128SOPE   H6S13748   0.363   2.451   3.369  1.1207 -1.0878 -1.9665
  128SOPE   C2713749   0.356   2.636   3.261  0.0741  0.5632 -0.0022
  128SOPE   H7R13750   0.449   2.615   3.204 -0.3004 -1.0665 -0.0580
  128SOPE   H7S13751   0.283   2.688   3.195 -1.2212  0.6488  1.4435
  128SOPE   C2813752   0.408   2.720   3.379 -0.4907 -0.3953  0.1646
  128SOPE   H8R13753   0.439   2.647   3.457 -0.1330 -0.5447 -0.1186
  128SOPE   H8S13754   0.499   2.778   3.352 -1.5286  2.0950  1.6123
  128SOPE   C2913755   0.302   2.811   3.435 -0.1515  0.4546 -0.1708
  128SOPE   H9113756   0.293   2.898   3.368 -2.4179 -0.3401 -1.0010
  128SOPE  C21013757   0.218   2.788   3.542  0.6221 -0.5276 -0.1740
  128SOPE  H10113758   0.138   2.861   3.555  1.4960  0.0094  3.0262
  128SOPE  C21113759   0.200   2.667   3.624 -0.2073 -0.3624  0.8738
  128SOPE  H11R13760   0.217   2.571   3.570  2.0985 -0.9370  2.4928
  128SOPE  H11S13761   0.094   2.661   3.659 -0.6459 -0.0958 -0.3378
  128SOPE  C21213762   0.286   2.683   3.750  0.5793  0.0414  0.3946
  128SOPE  H12R13763   0.389   2.693   3.709  1.4700 -3.6643  1.4055
  128SOPE  H12S13764   0.275   2.593   3.814 -1.5823 -0.1380 -0.1316
  128SOPE  C21313765   0.240   2.801   3.839  0.0136  0.4350 -0.4085
  128SOPE  H13R13766   0.141   2.768   3.877  0.4463 -2.2883 -1.4884
  128SOPE  H13S13767   0.212   2.893   3.782 -1.4234 -1.7161 -3.4278
  128SOPE  C21413768   0.337   2.836   3.962 -0.4259  0.2032  0.0097
  128SOPE  H14R13769   0.312   2.765   4.043 -0.6462 -0.3915 -0.5661
  128SOPE  H14S13770   0.306   2.936   3.999  1.4800  1.0829 -0.6625
  128SOPE  C21513771   0.486   2.847   3.919  0.4736 -0.1829  0.2684
  128SOPE  H15R13772   0.495   2.898   3.821  0.9735 -1.8126 -0.5747
  128SOPE  H15S13773   0.528   2.746   3.902 -0.6432 -0.6949  0.4105
  128SOPE  C21613774   0.582   2.912   4.024 -0.0877 -0.0225 -0.0480
  128SOPE  H16R13775   0.548   3.017   4.037  0.4233  0.0819  0.5045
  128SOPE  H16S13776   0.687   2.915   3.988  0.3494 -0.4968  1.1347
  128SOPE  C21713777   0.579   2.852   4.164  0.7083 -0.5451  0.2389
  128SOPE  H17R13778   0.598   2.745   4.143  1.1305 -0.0353 -2.3657
  128SOPE  H17S13779   0.476   2.868   4.204  0.8699 -0.6207  0.6944
  128SOPE  C21813780   0.680   2.925   4.253 -0.3655 -0.6430 -0.7603
  128SOPE  H18R13781   0.701   2.874   4.349  0.4100  0.2296 -0.4479
  128SOPE  H18S13782   0.643   3.027   4.277  1.0998 -0.7756  2.7198
  128SOPE  H18T13783   0.779   2.926   4.202 -0.2011  0.0443 -0.4405
  128SOPE   C3313784   0.033   2.146   2.838  0.2093 -0.3692  0.4326
  128SOPE   H3X13785   0.045   2.231   2.769 -0.5767  0.0903  0.8430
  128SOPE   H3Y13786   0.140   2.135   2.863  0.2198  0.9924  1.0591
  128SOPE   C3413787  -0.054   2.184   2.962  0.7876 -0.0688  0.6402
  128SOPE   H4X13788  -0.155   2.217   2.931 -0.3373 -3.7268 -0.1046
  128SOPE   H4Y13789  -0.006   2.264   3.021 -1.1773  0.9716  0.8954
  128SOPE   C3513790  -0.068   2.070   3.071  0.0949  0.3680  0.7862
  128SOPE   H5X13791   0.035   2.037   3.094  0.3874 -1.3749 -2.4618
  128SOPE   H5Y13792  -0.122   1.986   3.023 -1.2179  3.1281 -3.1665
  128SOPE   C3613793  -0.134   2.126   3.194  1.0094 -0.0427  0.2558
  128SOPE   H6X13794  -0.234   2.170   3.173  0.5891 -0.6132  0.9850
  128SOPE   H6Y13795  -0.065   2.208   3.222  3.1927 -1.6182 -0.3174
  128SOPE   C3713796  -0.143   2.018   3.308  0.6526  0.2222  0.4432
  128SOPE   H7X13797  -0.044   1.967   3.312  1.8221  2.3262 -0.0099
  128SOPE   H7Y13798  -0.232   1.954   3.289 -0.3268  1.6737 -0.0181
  128SOPE   C3813799  -0.174   2.076   3.448 -0.3822  0.2528 -0.0214
  128SOPE   H8X13800  -0.273   2.127   3.446 -0.2445  0.5166 -0.2456
  128SOPE   H8Y13801  -0.089   2.144   3.467  2.5917 -3.0632 -0.4193
  128SOPE   C3913802  -0.188   1.965   3.550  0.6991 -0.3925  0.4238
  128SOPE   H9X13803  -0.087   1.918   3.550  0.9370  0.0947 -0.3139
  128SOPE   H9Y13804  -0.250   1.888   3.499 -1.2022  0.9088  0.6724
  128SOPE  C31013805  -0.242   2.008   3.689 -0.2525  0.1053 -0.3006
  128SOPE  H10X13806  -0.341   2.053   3.670  0.5372  1.7605 -0.6732
  128SOPE  H10Y13807  -0.177   2.085   3.736 -0.8236 -0.2774  1.1731
  128SOPE  C31113808  -0.270   1.879   3.776  0.8360 -0.1948 -0.3273
  128SOPE  H11X13809  -0.174   1.839   3.816  1.2697  0.2822 -0.8592
  128SOPE  H11Y13810  -0.319   1.799   3.717 -3.4663  1.4435  0.6525
  128SOPE  C31213811  -0.358   1.906   3.898 -0.3156 -0.6946  0.2711
  128SOPE  H12X13812  -0.373   1.814   3.959 -1.4431  0.0456  1.1544
  128SOPE  H12Y13813  -0.458   1.941   3.864  0.4096  1.2098 -0.0323
  128SOPE  C31313814  -0.312   2.016   3.996  0.0978  0.0622  0.5611
  128SOPE  H13X13815  -0.360   2.111   3.963  0.4459  0.8658  2.2712
  128SOPE  H13Y13816  -0.203   2.029   4.011  0.0629 -0.7675  1.6538
  128SOPE  C31413817  -0.359   1.992   4.141 -0.0522  0.1104  0.4963
  128SOPE  H14X13818  -0.275   1.948   4.199  1.5861  1.4644 -0.7524
  128SOPE  H14Y13819  -0.437   1.915   4.126 -1.0159  1.1777 -0.1730
  128SOPE  C31513820  -0.410   2.114   4.217 -0.2418  0.3640 -0.2838
  128SOPE  H15X13821  -0.484   2.167   4.153 -0.9192 -0.3004 -0.0685
  128SOPE  H15Y13822  -0.322   2.179   4.239  0.1841 -0.3262  0.0949
  128SOPE  C31613823  -0.476   2.071   4.350 -0.2410 -0.0170 -0.0379
  128SOPE  H16X13824  -0.395   2.026   4.412 -0.0960 -1.7900 -1.4351
  128SOPE  H16Y13825  -0.561   2.001   4.339 -0.6674  0.4347  0.3056
  128SOPE  C31713826  -0.529   2.196   4.424 -0.1088  0.1589 -0.2521
  128SOPE  H17X13827  -0.608   2.246   4.364 -1.1796 -1.9513 -0.6888
  128SOPE  H17Y13828  -0.445   2.268   4.434 -1.2099  1.2494  2.3604
  128SOPE  C31813829  -0.584   2.163   4.563  0.8420  0.3743 -0.9453
  128SOPE  H18X13830  -0.529   2.080   4.612 -0.2461 -0.8180 -1.6705
  128SOPE  H18Y13831  -0.686   2.121   4.543  1.2827 -0.1739 -2.1467
  128SOPE  H18Z13832  -0.601   2.246   4.634  2.3331 -0.1583  0.0669
  129OSM      N13833   3.207   6.228   6.999 -0.3562  0.0238 -0.2288
  129OSM    C1513834   3.353   6.203   7.018 -0.3750 -0.2497 -0.0478
  129OSM   H15A13835   3.382   6.186   7.121  2.6825 -1.2170 -0.9542
  129OSM   H15B13836   3.420   6.283   6.992 -0.2506  0.8071  3.0571
  129OSM   H15C13837   3.386   6.111   6.972 -0.4950 -1.6564  2.4597
  129OSM    C1413838   3.180   6.211   6.850  0.3723  0.4207  0.4167
  129OSM   H14A13839   3.088   6.258   6.816 -1.0227 -2.8731 -0.8331
  129OSM   H14B13840   3.166   6.107   6.823 -0.7027  0.2960  1.3663
  129OSM   H14C13841   3.246   6.269   6.787 -1.9781  1.1100 -1.5618
  129OSM    C1313842   3.134   6.130   7.083  0.5404 -0.2675 -0.3007
  129OSM   H13A13843   3.171   6.030   7.065 -0.4537 -0.5668 -0.7136
  129OSM   H13B13844   3.027   6.137   7.070  0.3915 -0.6917  0.5816
  129OSM   H13C13845   3.144   6.145   7.190 -4.2548  0.6066  0.2631
  129OSM    C1213846   3.171   6.374   7.039  0.2528 -0.0944  0.2374
  129OSM   H12A13847   3.185   6.380   7.146  0.7978  1.7638  0.1016
  129OSM   H12B13848   3.067   6.381   7.011  0.3941  4.0267  0.1293
  129OSM    C1113849   3.248   6.486   6.961 -0.6273  0.3450  0.4348
  129OSM   H11A13850   3.354   6.455   6.960 -1.2549 -2.0279 -1.5411
  129OSM   H11B13851   3.256   6.577   7.025 -0.5374  0.9705 -0.4500
  129OSM      P13852   3.050   6.550   6.798 -0.1648 -0.1313 -0.0432
  129OSM    O1313853   2.958   6.439   6.840  0.1778  0.2844 -0.1677
  129OSM    O1413854   3.035   6.681   6.861 -0.4702 -0.3047  0.4200
  129OSM    O1113855   3.056   6.552   6.640 -0.4305 -0.3922 -0.3690
  129OSM    O1213856   3.195   6.505   6.832  0.2351 -0.3255 -0.1925
  129OSM    C1S13857   3.075   6.687   6.584  0.1428  0.0309  0.1000
  129OSM    H1S13858   3.173   6.728   6.614  0.8954 -0.9520 -0.9282
  129OSM    H1T13859   2.985   6.749   6.604 -1.6638 -1.2038 -3.3049
  129OSM     NF13860   3.174   6.768   6.370 -0.3467  0.1409  0.2918
  129OSM    HNF13861   3.132   6.840   6.314  1.9354  0.3281 -1.3164
  129OSM    C2S13862   3.078   6.675   6.431 -0.4999  0.0347  0.5070
  129OSM    H2S13863   3.131   6.579   6.413 -0.1321  0.1447  0.9809
  129OSM    C3S13864   2.941   6.681   6.366  0.1074 -0.2965 -0.1765
  129OSM    H3S13865   2.899   6.783   6.362  0.5392 -0.1392 -0.7801
  129OSM     O313866   2.846   6.604   6.436  0.2079  0.1785 -0.4708
  129OSM    HO313867   2.890   6.566   6.512 -3.9824 -1.8832  1.2874
  129OSM    C4S13868   2.958   6.625   6.224  0.1370  0.8371 -0.4805
  129OSM    H4S13869   2.971   6.516   6.220 -1.0321  0.6363  0.4091
  129OSM    C5S13870   2.966   6.691   6.110  0.9510 -0.0680 -0.0750
  129OSM    H5S13871   2.963   6.800   6.096 -0.7237 -0.0012  0.5718
  129OSM    C6S13872   2.974   6.616   5.984  0.0541 -0.5519 -0.0440
  129OSM    H6S13873   2.917   6.520   5.986 -0.1349 -0.4681 -1.0092
  129OSM    H6T13874   3.080   6.584   5.973 -0.0483 -1.1629  0.6867
  129OSM    C7S13875   2.940   6.688   5.853  0.5357 -0.0622 -0.3065
  129OSM    H7S13876   2.999   6.780   5.832 -0.8286  0.9939  0.3311
  129OSM    H7T13877   2.831   6.711   5.856  0.6216  0.4766 -1.0059
  129OSM    C8S13878   2.958   6.588   5.741 -0.3152  0.1241  0.3582
  129OSM    H8S13879   2.897   6.498   5.764  0.2611 -0.4260 -0.2414
  129OSM    H8T13880   3.062   6.553   5.731 -0.2331 -0.0992  1.8007
  129OSM    C9S13881   2.905   6.645   5.615  0.3502 -0.4946 -0.0716
  129OSM    H9S13882   2.992   6.683   5.556  0.7280 -2.1317 -0.6525
  129OSM    H9T13883   2.830   6.726   5.621 -0.0057 -0.5577 -2.5109
  129OSM   C10S13884   2.846   6.543   5.515 -0.4117  0.3721 -0.1735
  129OSM   H10S13885   2.757   6.492   5.557 -0.4095  0.2611 -0.2998
  129OSM   H10T13886   2.922   6.465   5.492  0.6784  0.3863  2.9681
  129OSM   C11S13887   2.801   6.610   5.383 -0.4523 -0.0896  0.3180
  129OSM   H11S13888   2.722   6.686   5.401 -0.3565 -0.1159  0.8527
  129OSM   H11T13889   2.755   6.523   5.330  0.6711 -1.5440  1.6221
  129OSM   C12S13890   2.911   6.669   5.302 -0.3882 -0.2569  0.1375
  129OSM   H12S13891   2.974   6.583   5.271 -1.6735 -1.1012 -0.1812
  129OSM   H12T13892   2.967   6.749   5.356 -1.8446  0.7929  0.1587
  129OSM   C13S13893   2.870   6.725   5.170  1.1530  0.3128 -0.1298
  129OSM   H13S13894   2.957   6.733   5.100  1.3947 -0.6401  0.0460
  129OSM   H13T13895   2.828   6.827   5.182  1.5365  0.5655 -0.8488
  129OSM   C14S13896   2.750   6.661   5.091  0.0501  0.0987 -0.2176
  129OSM   H14S13897   2.655   6.659   5.149 -0.6516  0.8381 -1.3076
  129OSM   H14T13898   2.783   6.558   5.069 -2.8309 -0.9301 -0.1159
  129OSM   C15S13899   2.731   6.720   4.961 -0.0151  0.3994 -0.4787
  129OSM   H15S13900   2.824   6.739   4.902 -0.7629 -1.0005 -2.1922
  129OSM   H15T13901   2.699   6.825   4.976 -0.6841  0.5040 -2.4115
  129OSM   C16S13902   2.642   6.641   4.869  0.7381 -0.1433 -0.4808
  129OSM   H16S13903   2.535   6.638   4.901  0.2597 -0.9017 -2.0348
  129OSM   H16T13904   2.679   6.537   4.866 -3.5478 -1.9167  0.6784
  129OSM   C17S13905   2.635   6.703   4.734 -0.0478 -0.5158  0.5640
  129OSM   H17S13906   2.735   6.704   4.684 -0.0382 -0.2195  0.5881
  129OSM   H17T13907   2.592   6.804   4.750  0.0552 -0.5890  1.3431
  129OSM   C18S13908   2.542   6.617   4.646 -0.3669  0.3582  0.6895
  129OSM   H18S13909   2.579   6.513   4.635 -2.7682 -0.5611  0.7903
  129OSM   H18T13910   2.526   6.649   4.541 -3.1613 -0.3783  0.8204
  129OSM   H18U13911   2.440   6.613   4.691 -0.5496  0.5634  0.2915
  129OSM    C1F13912   3.304   6.765   6.384 -0.1887  0.4925 -0.4855
  129OSM     OF13913   3.354   6.677   6.453  0.5678  0.8156  0.5332
  129OSM    C2F13914   3.389   6.878   6.333  0.9274  0.1364 -0.4234
  129OSM    H2F13915   3.415   6.944   6.419  0.4504 -0.2180 -0.0002
  129OSM    H2G13916   3.335   6.931   6.251 -1.6929 -1.3354  0.2282
  129OSM    C3F13917   3.529   6.833   6.280 -0.3174  0.6181 -0.5677
  129OSM    H3F13918   3.587   6.786   6.361 -1.7952  0.8447  0.6646
  129OSM    H3G13919   3.586   6.926   6.259  0.9888 -0.1290 -0.4246
  129OSM    C4F13920   3.524   6.744   6.147 -0.0240 -0.0738 -0.3023
  129OSM    H4F13921   3.457   6.658   6.168  1.0872 -0.4670  1.9707
  129OSM    H4G13922   3.629   6.715   6.123  0.7151  2.4578 -0.4761
  129OSM    C5F13923   3.491   6.815   6.014 -0.0305 -0.2759  0.0705
  129OSM    H5F13924   3.583   6.869   5.983  0.7766 -2.2857 -1.2719
  129OSM    H5G13925   3.415   6.892   6.039 -2.5691 -2.6437  0.1602
  129OSM    C6F13926   3.447   6.733   5.892 -0.0937 -0.8582 -0.3622
  129OSM    H6F13927   3.352   6.682   5.921 -0.4924  1.0137  1.8990
  129OSM    H6G13928   3.526   6.656   5.877  1.1859 -0.1461  2.1162
  129OSM    C7F13929   3.419   6.816   5.769 -0.9617  0.4496 -0.3539
  129OSM    H7F13930   3.487   6.903   5.759 -0.4798  0.0263 -0.8884
  129OSM    H7G13931   3.317   6.858   5.783 -1.1351  0.0239 -0.3099
  129OSM    C8F13932   3.435   6.729   5.640  0.1157 -0.5082 -0.2095
  129OSM    H8F13933   3.537   6.686   5.648  0.5111 -0.0613 -2.1618
  129OSM    H8G13934   3.441   6.810   5.564  0.8280  0.9327  1.3152
  129OSM    C9F13935   3.323   6.628   5.625  0.0347  0.2529  0.5445
  129OSM    H9F13936   3.300   6.561   5.709  1.1160 -0.2974  0.4200
  129OSM   C10F13937   3.260   6.587   5.509 -0.6381  0.2361 -0.5066
  129OSM   H10F13938   3.191   6.502   5.514 -0.9440  0.5487  0.7741
  129OSM   C11F13939   3.279   6.643   5.371 -0.3256 -0.2068 -1.3573
  129OSM   H11F13940   3.314   6.749   5.373  2.0995 -0.9115 -1.9685
  129OSM   H11G13941   3.180   6.652   5.322 -1.0874 -0.5570  0.0666
  129OSM   C12F13942   3.378   6.561   5.289 -0.3681 -0.7987  0.2569
  129OSM   H12F13943   3.338   6.464   5.251  1.7041 -1.0891 -1.3696
  129OSM   H12G13944   3.473   6.551   5.346  0.7422  3.5671 -0.5122
  129OSM   C13F13945   3.414   6.636   5.164  0.0026  0.2490  0.4371
  129OSM   H13F13946   3.509   6.595   5.124  0.8990  1.8133  0.8772
  129OSM   H13G13947   3.436   6.741   5.191  0.1559  0.9999 -2.3176
  129OSM   C14F13948   3.306   6.638   5.057 -0.0265  0.1356 -0.6495
  129OSM   H14F13949   3.212   6.674   5.103  1.3944  2.1249  0.8888
  129OSM   H14G13950   3.285   6.534   5.025 -0.9330  0.3407 -0.7447
  129OSM   C15F13951   3.353   6.728   4.934 -0.0215  0.3587  0.2336
  129OSM   H15F13952   3.457   6.704   4.901 -0.3850 -0.0144 -0.6717
  129OSM   H15G13953   3.352   6.835   4.962  0.0985  0.6483 -0.8124
  129OSM   C16F13954   3.270   6.706   4.803  0.3782  0.0641 -0.5324
  129OSM   H16F13955   3.260   6.599   4.777 -1.1566 -0.2491  1.1097
  129OSM   H16G13956   3.326   6.761   4.725 -1.6530  1.4682 -1.0839
  129OSM   C17F13957   3.131   6.773   4.822 -0.1189 -0.3890  0.0033
  129OSM   H17F13958   3.152   6.875   4.860 -3.0061  0.1879  0.3196
  129OSM   H17G13959   3.077   6.718   4.902  2.2776 -1.1901  1.1632
  129OSM   C18F13960   3.059   6.780   4.689 -0.3994 -0.0979 -0.0981
  129OSM   H18F13961   3.057   6.678   4.643 -1.4348 -0.9601  1.7342
  129OSM   H18G13962   3.119   6.838   4.616  0.4122  1.1347  1.4884
  129OSM   H18H13963   2.956   6.821   4.698  0.8152  3.2499 -0.2001
  130OSM      N13964   4.143   3.758   6.710 -0.5827 -0.0596  1.3338
  130OSM    C1513965   4.033   3.749   6.804  0.4328  0.4272 -0.2452
  130OSM   H15A13966   4.072   3.772   6.902  1.6483 -0.7277 -0.4374
  130OSM   H15B13967   3.997   3.648   6.791  1.6642  0.1838 -2.1029
  130OSM   H15C13968   3.959   3.825   6.782 -0.8193 -1.2689 -2.3546
  130OSM    C1413969   4.216   3.887   6.735 -0.2513  0.2840 -0.4048
  130OSM   H14A13970   4.240   3.901   6.839 -0.0036 -1.9385 -0.1174
  130OSM   H14B13971   4.159   3.968   6.691  0.6767  0.8977 -0.5070
  130OSM   H14C13972   4.303   3.897   6.672 -0.2829 -0.8665 -0.6434
  130OSM    C1313973   4.236   3.647   6.741 -0.2989  0.4169  0.5363
  130OSM   H13A13974   4.181   3.554   6.745  0.4160  0.0219  3.2384
  130OSM   H13B13975   4.279   3.652   6.840  1.2205  1.5797 -0.1432
  130OSM   H13C13976   4.308   3.621   6.664 -0.0524  1.9762  0.2062
  130OSM    C1213977   4.117   3.734   6.563 -0.0437 -0.3084  0.0850
  130OSM   H12A13978   4.103   3.629   6.543  1.4923 -0.5206  0.0241
  130OSM   H12B13979   4.207   3.752   6.507 -0.7253  0.2276 -0.8697
  130OSM    C1113980   3.993   3.817   6.510 -0.4064  0.3654 -0.2759
  130OSM   H11A13981   3.899   3.784   6.558  1.0392  0.7087  3.0503
  130OSM   H11B13982   3.971   3.802   6.402 -0.4483 -2.7913  0.0964
  130OSM      P13983   4.091   4.052   6.439 -0.4916 -0.4538  0.2945
  130OSM    O1313984   4.007   4.160   6.385  0.2232  0.4755  0.4466
  130OSM    O1413985   4.206   4.100   6.522 -0.1680 -0.2422 -0.1631
  130OSM    O1113986   4.154   3.962   6.318  0.1753  0.4264  0.1776
  130OSM    O1213987   4.011   3.957   6.531 -0.0408 -0.1418 -0.2091
  130OSM    C1S13988   4.134   4.021   6.192  0.0369  0.3340  0.3748
  130OSM    H1S13989   4.202   4.108   6.181  1.0953 -0.3514  1.2572
  130OSM    H1T13990   4.028   4.044   6.166  0.4428  1.2437 -0.5685
  130OSM     NF13991   4.204   3.996   5.949  0.2339  0.3658 -0.3476
  130OSM    HNF13992   4.130   4.028   5.890 -0.7243  0.0914  0.6751
  130OSM    C2S13993   4.177   3.921   6.075 -0.3750  0.1801 -0.1197
  130OSM    H2S13994   4.271   3.870   6.106 -0.2547 -0.8569 -2.0509
  130OSM    C3S13995   4.071   3.808   6.072  0.0106 -0.2368  0.8155
  130OSM    H3S13996   3.968   3.847   6.057  0.6770  0.7492 -1.8346
  130OSM     O313997   4.058   3.729   6.183 -0.6771  0.2544 -0.2054
  130OSM    HO313998   4.089   3.791   6.249  1.1081  1.5778 -2.1381
  130OSM    C4S13999   4.107   3.712   5.960  0.0091  0.5319  0.1903
  130OSM    H4S14000   4.196   3.647   5.971 -0.3816 -0.4925 -2.1128
  130OSM    C5S14001   4.035   3.694   5.852 -0.2937  0.2280  0.5828
  130OSM    H5S14002   3.947   3.759   5.843  0.5429  1.3022 -0.1378
  130OSM    C6S14003   4.071   3.597   5.741 -0.6500  0.0194 -0.3955
  130OSM    H6S14004   4.157   3.534   5.771 -2.1773 -1.9843  0.0423
  130OSM    H6T14005   4.114   3.652   5.655 -0.5462  2.9832  1.4099
  130OSM    C7S14006   3.953   3.526   5.677  0.0385 -0.2528 -0.1414
  130OSM    H7S14007   3.857   3.572   5.708  0.3311  0.0660  0.2986
  130OSM    H7T14008   3.942   3.421   5.711 -2.9500  0.0002 -0.0650
  130OSM    C8S14009   3.955   3.518   5.520  0.1704  0.6926 -0.1117
  130OSM    H8S14010   4.061   3.502   5.490  0.4957 -0.0009  1.3233
  130OSM    H8T14011   3.935   3.620   5.482  0.1868  0.4377 -0.8288
  130OSM    C9S14012   3.869   3.407   5.461  0.3087 -0.9115  0.3735
  130OSM    H9S14013   3.765   3.436   5.487  1.1940  1.1330  1.8953
  130OSM    H9T14014   3.888   3.309   5.511 -2.6158 -1.8671 -0.1914
  130OSM   C10S14015   3.877   3.391   5.307  0.5899 -0.6965 -0.4942
  130OSM   H10S14016   3.880   3.489   5.255  2.5861 -0.8991 -0.8244
  130OSM   H10T14017   3.790   3.329   5.276  0.7668 -0.8301 -0.7261
  130OSM   C11S14018   4.009   3.332   5.262  0.1872 -0.8727 -0.6272
  130OSM   H11S14019   4.014   3.236   5.317 -0.4767 -0.0444  0.9416
  130OSM   H11T14020   4.092   3.402   5.287  0.3034 -0.3696 -2.3038
  130OSM   C12S14021   4.017   3.306   5.108  0.5587 -0.4539  0.6409
  130OSM   H12S14022   3.999   3.401   5.055  2.8636  0.5825  1.5796
  130OSM   H12T14023   3.934   3.238   5.079  1.5741 -1.2667 -0.4911
  130OSM   C13S14024   4.151   3.245   5.073  0.7970  0.0507  0.0850
  130OSM   H13S14025   4.162   3.163   5.147 -1.2394 -0.9318 -0.6402
  130OSM   H13T14026   4.228   3.325   5.085  2.7178 -1.8546  1.1720
  130OSM   C14S14027   4.172   3.193   4.930  0.6330 -0.1951  0.8775
  130OSM   H14S14028   4.192   3.281   4.865  0.8282 -0.2168  0.9090
  130OSM   H14T14029   4.087   3.131   4.894  0.8256  0.7595 -1.4258
  130OSM   C15S14030   4.281   3.090   4.926  0.4691  0.3971 -0.1328
  130OSM   H15S14031   4.262   3.019   4.842 -1.9459 -0.8443  1.3562
  130OSM   H15T14032   4.289   3.045   5.027 -0.5307  0.0101 -0.2166
  130OSM   C16S14033   4.413   3.154   4.897 -0.6883  0.7123 -0.0431
  130OSM   H16S14034   4.498   3.089   4.926  0.5072  1.6483 -1.3410
  130OSM   H16T14035   4.415   3.244   4.962  1.5732 -0.5817  1.8416
  130OSM   C17S14036   4.428   3.184   4.753  0.6258 -0.2290  0.1109
  130OSM   H17S14037   4.358   3.268   4.735  1.1172  0.1004 -0.2623
  130OSM   H17T14038   4.417   3.099   4.683  0.6766 -0.0526 -0.1122
  130OSM   C18S14039   4.570   3.235   4.720  0.6990 -0.2252 -0.0276
  130OSM   H18S14040   4.645   3.163   4.760  0.9409 -0.9220 -1.6744
  130OSM   H18T14041   4.590   3.333   4.767 -1.9593 -0.2692  1.3931
  130OSM   H18U14042   4.570   3.245   4.610  0.8629  0.4554  0.0324
  130OSM    C1F14043   4.318   4.063   5.931  0.5634 -0.1624  0.0724
  130OSM     OF14044   4.400   4.076   6.021  0.2234  0.0820  0.6023
  130OSM    C2F14045   4.346   4.125   5.797 -0.6444  0.3750  0.2448
  130OSM    H2F14046   4.255   4.178   5.763 -0.1420  1.1264  0.0611
  130OSM    H2G14047   4.390   4.043   5.736 -1.8307 -0.6328  0.6976
  130OSM    C3F14048   4.469   4.218   5.807 -0.3155  0.0540 -0.3193
  130OSM    H3F14049   4.549   4.151   5.845 -1.4467 -0.6026  1.0106
  130OSM    H3G14050   4.457   4.303   5.878 -1.4737 -0.3537 -0.0032
  130OSM    C4F14051   4.517   4.271   5.673 -0.1574  0.3319  0.6096
  130OSM    H4F14052   4.554   4.181   5.619 -1.6185  0.1385 -0.1358
  130OSM    H4G14053   4.600   4.343   5.687  1.0272 -0.6107 -1.1501
  130OSM    C5F14054   4.405   4.344   5.589  0.5859  0.4648 -1.1980
  130OSM    H5F14055   4.363   4.432   5.643  0.6587 -0.7094  0.8606
  130OSM    H5G14056   4.327   4.265   5.586  0.1755  0.8714 -1.4687
  130OSM    C6F14057   4.449   4.374   5.453 -0.2409 -0.2585 -0.7123
  130OSM    H6F14058   4.489   4.285   5.401 -1.9776 -0.7013 -1.3694
  130OSM    H6G14059   4.531   4.450   5.459  0.4427 -0.9927 -0.6532
  130OSM    C7F14060   4.333   4.424   5.375  0.5935 -0.1897 -0.5432
  130OSM    H7F14061   4.280   4.496   5.442  1.3855  0.5299 -0.6766
  130OSM    H7G14062   4.271   4.336   5.349 -1.0659  1.3686 -2.1631
  130OSM    C8F14063   4.366   4.500   5.246  0.3052  0.0354 -0.3061
  130OSM    H8F14064   4.463   4.552   5.264 -1.3706  2.8508  1.2317
  130OSM    H8G14065   4.288   4.578   5.234  0.4477 -0.0739 -2.3047
  130OSM    C9F14066   4.390   4.418   5.118  0.1857  0.3091  0.0514
  130OSM    H9F14067   4.494   4.384   5.108  0.5953  1.0494  1.4680
  130OSM   C10F14068   4.313   4.415   5.004 -0.4055 -0.5062  0.2215
  130OSM   H10F14069   4.341   4.340   4.929 -0.8709  0.1163 -0.5979
  130OSM   C11F14070   4.176   4.480   4.980 -0.6474 -0.2619 -1.0725
  130OSM   H11F14071   4.184   4.578   4.928 -3.9471  0.8511  0.2461
  130OSM   H11G14072   4.128   4.500   5.078  0.5426  0.8700 -0.6950
  130OSM   C12F14073   4.095   4.381   4.889  0.7138  0.7092 -0.6300
  130OSM   H12F14074   3.991   4.420   4.888  0.7863  0.9128 -1.4809
  130OSM   H12G14075   4.088   4.280   4.934 -0.4326  0.0057 -2.2857
  130OSM   C13F14076   4.140   4.381   4.745 -0.6849 -0.8938 -1.0649
  130OSM   H13F14077   4.239   4.330   4.748 -1.2303 -2.0167 -1.4936
  130OSM   H13G14078   4.149   4.483   4.703  0.0895 -1.0393 -1.2752
  130OSM   C14F14079   4.046   4.305   4.654 -0.1648  0.0992 -0.5187
  130OSM   H14F14080   3.948   4.358   4.659  0.2565  0.7360  3.0307
  130OSM   H14G14081   4.043   4.202   4.696  1.0782  0.1765 -0.2225
  130OSM   C15F14082   4.106   4.289   4.517  0.0354 -0.2406  1.0908
  130OSM   H15F14083   4.132   4.391   4.483  0.0174 -0.1214  1.4271
  130OSM   H15G14084   4.029   4.239   4.455  0.9796  0.7223 -0.9560
  130OSM   C16F14085   4.221   4.195   4.513 -0.0497 -0.1008  0.3532
  130OSM   H16F14086   4.199   4.096   4.560 -0.0974 -0.5467 -0.5781
  130OSM   H16G14087   4.303   4.242   4.571  0.8068 -0.3664 -0.6192
  130OSM   C17F14088   4.285   4.169   4.382 -0.0492 -0.5096  0.5483
  130OSM   H17F14089   4.198   4.132   4.324  0.9464 -0.1203 -1.2529
  130OSM   H17G14090   4.362   4.090   4.385  0.3964 -0.0885  0.3530
  130OSM   C18F14091   4.340   4.286   4.300  0.5160 -0.0478 -0.7844
  130OSM   H18F14092   4.386   4.262   4.202  0.7916 -1.1829 -0.3977
  130OSM   H18G14093   4.418   4.336   4.361 -0.2158 -0.4574  0.5224
  130OSM   H18H14094   4.258   4.357   4.278  1.2940  0.7583 -1.1441
  131OSM      N14095   4.183   6.192   7.238 -0.1765 -0.3987 -0.4460
  131OSM    C1514096   4.235   6.117   7.359 -0.1576 -0.1276  0.2755
  131OSM   H15A14097   4.320   6.169   7.399  0.2332 -0.0833 -0.5819
  131OSM   H15B14098   4.266   6.017   7.333  2.5366  0.8998 -0.8206
  131OSM   H15C14099   4.164   6.118   7.440  1.5002 -0.7770  1.7971
  131OSM    C1414100   4.073   6.120   7.178 -0.2585  0.2756  0.1214
  131OSM   H14A14101   4.101   6.016   7.163  1.5365  0.7979 -0.4663
  131OSM   H14B14102   4.050   6.163   7.081  0.3006 -1.0540 -0.6400
  131OSM   H14C14103   3.986   6.120   7.241  0.6314  2.8892  1.4904
  131OSM    C1314104   4.133   6.330   7.278 -0.3535 -0.2924  0.5551
  131OSM   H13A14105   4.207   6.377   7.341  0.5836  0.0737 -0.7828
  131OSM   H13B14106   4.043   6.326   7.338 -0.0913  1.5229  1.1231
  131OSM   H13C14107   4.100   6.390   7.194  2.2681  1.8520  0.9450
  131OSM    C1214108   4.295   6.203   7.143 -0.1349  0.1043  0.5615
  131OSM   H12A14109   4.343   6.107   7.130  0.0850  0.5034 -1.9550
  131OSM   H12B14110   4.359   6.280   7.184 -0.4429  2.1015 -2.3722
  131OSM    C1114111   4.279   6.246   6.992 -0.3338  0.4171 -0.3080
  131OSM   H11A14112   4.269   6.356   7.006 -0.1139  0.7572 -2.4698
  131OSM   H11B14113   4.184   6.202   6.954  0.3363 -1.4691  0.0952
  131OSM      P14114   4.422   6.077   6.851  0.4597  0.0527 -0.1963
  131OSM    O1314115   4.539   6.085   6.758  0.1003 -0.3781 -0.3071
  131OSM    O1414116   4.433   5.984   6.970 -0.4565  0.1176  0.1142
  131OSM    O1114117   4.288   6.056   6.764  0.2915 -0.4980  0.4311
  131OSM    O1214118   4.394   6.218   6.916  0.6572  0.2235 -1.0194
  131OSM    C1S14119   4.235   6.172   6.695  0.8169  0.6952  0.7083
  131OSM    H1S14120   4.297   6.264   6.700 -0.7408  1.7311  1.7120
  131OSM    H1T14121   4.136   6.195   6.740  0.4381  1.1210 -0.3141
  131OSM     NF14122   4.157   6.265   6.474  0.0856 -0.0095 -0.0520
  131OSM    HNF14123   4.061   6.291   6.473  0.5573  2.3218  2.6610
  131OSM    C2S14124   4.202   6.143   6.540  0.2590 -0.1648  0.6161
  131OSM    H2S14125   4.294   6.110   6.487  0.7012  1.8583  0.0319
  131OSM    C3S14126   4.093   6.036   6.540  0.2426  0.0931 -0.8264
  131OSM    H3S14127   4.007   6.069   6.602 -0.6368 -1.1945 -1.3379
  131OSM     O314128   4.124   5.915   6.607 -0.3975 -0.1579  0.0396
  131OSM    HO314129   4.207   5.930   6.652 -0.3714 -1.9845  0.6879
  131OSM    C4S14130   4.045   6.009   6.402 -0.0300  0.8635  0.7774
  131OSM    H4S14131   3.962   6.074   6.369  0.4326  0.8562 -0.4655
  131OSM    C5S14132   4.092   5.921   6.317 -0.2825 -0.0073 -0.0133
  131OSM    H5S14133   4.172   5.851   6.343  0.6063  0.2533 -1.8245
  131OSM    C6S14134   4.036   5.882   6.181 -0.2510  0.5300 -0.5265
  131OSM    H6S14135   4.038   5.773   6.164 -0.6901  0.4974 -0.3886
  131OSM    H6T14136   4.096   5.935   6.104  2.6943  0.6145  1.6132
  131OSM    C7S14137   3.892   5.930   6.157  0.6932 -0.0272 -0.1466
  131OSM    H7S14138   3.875   6.040   6.155 -3.0389 -0.4419  0.3629
  131OSM    H7T14139   3.835   5.895   6.246  1.6283 -2.7501 -0.5140
  131OSM    C8S14140   3.826   5.871   6.030  0.2106  0.0538 -0.8547
  131OSM    H8S14141   3.716   5.876   6.044  0.3923  1.0696  0.3612
  131OSM    H8T14142   3.854   5.764   6.015 -2.2352 -0.6507 -0.8540
  131OSM    C9S14143   3.870   5.953   5.911 -0.3801  0.7269  0.4044
  131OSM    H9S14144   3.953   5.896   5.863 -0.1890 -0.7984  2.4205
  131OSM    H9T14145   3.908   6.051   5.944  1.6149  0.4072 -0.7862
  131OSM   C10S14146   3.759   5.976   5.807  0.4667 -0.5980 -0.2154
  131OSM   H10S14147   3.801   6.037   5.724  0.4633 -1.0941 -0.5916
  131OSM   H10T14148   3.679   6.030   5.861  2.0855 -0.2952  2.0244
  131OSM   C11S14149   3.710   5.843   5.758  1.0051 -0.0397 -0.7459
  131OSM   H11S14150   3.664   5.792   5.845 -2.6662  2.0667 -1.2541
  131OSM   H11T14151   3.800   5.786   5.725  0.3953 -1.6148  0.2080
  131OSM   C12S14152   3.599   5.851   5.657  0.7583 -0.1326  0.2519
  131OSM   H12S14153   3.528   5.933   5.684 -0.0506 -0.8487  0.3561
  131OSM   H12T14154   3.551   5.752   5.642  2.6583 -1.0416 -0.0551
  131OSM   C13S14155   3.642   5.883   5.512  0.2552 -0.4947  0.4534
  131OSM   H13S14156   3.709   5.803   5.476 -0.3437 -0.0594 -1.7706
  131OSM   H13T14157   3.711   5.970   5.511 -0.2107 -0.0953 -1.9991
  131OSM   C14S14158   3.530   5.919   5.422 -0.6847 -0.7277 -0.3039
  131OSM   H14S14159   3.492   6.020   5.449  2.1052  0.0708  0.8933
  131OSM   H14T14160   3.442   5.852   5.427 -0.1477 -1.4211 -0.0751
  131OSM   C15S14161   3.576   5.929   5.272 -0.1919  0.1441  0.1907
  131OSM   H15S14162   3.589   5.821   5.250  0.8273  0.5320 -1.2559
  131OSM   H15T14163   3.677   5.973   5.283 -0.3143  0.3490  0.5172
  131OSM   C16S14164   3.494   6.008   5.169  0.1448  0.4030  0.1441
  131OSM   H16S14165   3.390   5.968   5.163  0.0555  0.5277  0.7297
  131OSM   H16T14166   3.534   5.994   5.067  1.2082  0.4695  0.5438
  131OSM   C17S14167   3.484   6.154   5.204  0.4355 -0.3108 -0.5534
  131OSM   H17S14168   3.585   6.180   5.243  0.8660 -1.0483 -1.1479
  131OSM   H17T14169   3.416   6.169   5.291  1.1069 -1.4854  0.2002
  131OSM   C18S14170   3.460   6.246   5.085 -0.8808 -0.3994  0.1246
  131OSM   H18S14171   3.366   6.247   5.026  0.9010 -0.2002 -2.9136
  131OSM   H18T14172   3.540   6.228   5.010 -0.8748 -1.3151  0.3467
  131OSM   H18U14173   3.472   6.350   5.123  3.7992  0.2410 -2.3706
  131OSM    C1F14174   4.241   6.358   6.435 -0.0019  0.0417 -1.0630
  131OSM     OF14175   4.358   6.338   6.453  0.1947 -0.0739  0.0064
  131OSM    C2F14176   4.187   6.491   6.399  0.7225 -0.1755  0.0659
  131OSM    H2F14177   4.248   6.568   6.451 -0.6792  0.6589  0.5490
  131OSM    H2G14178   4.082   6.489   6.436  0.4690 -1.9669 -0.6661
  131OSM    C3F14179   4.202   6.523   6.249  0.0089  0.7531 -0.3935
  131OSM    H3F14180   4.309   6.500   6.228  0.0713  1.1165 -0.4835
  131OSM    H3G14181   4.177   6.629   6.231  0.8161  1.0179 -0.0081
  131OSM    C4F14182   4.114   6.435   6.167  0.5894 -0.2288  0.3475
  131OSM    H4F14183   4.004   6.449   6.178  0.8256  1.9914  0.3243
  131OSM    H4G14184   4.135   6.329   6.192  1.6553  0.0485  0.6661
  131OSM    C5F14185   4.154   6.441   6.017  0.8109  0.2831 -0.1736
  131OSM    H5F14186   4.234   6.364   6.008  1.0936  0.5417  0.0667
  131OSM    H5G14187   4.194   6.545   6.007 -3.8410  2.7769  3.1438
  131OSM    C6F14188   4.031   6.412   5.926  0.5422 -0.2786 -0.4475
  131OSM    H6F14189   3.951   6.483   5.957  1.4263  1.5960 -2.2468
  131OSM    H6G14190   4.006   6.306   5.951  1.1838 -0.6603 -1.3983
  131OSM    C7F14191   4.053   6.435   5.777  0.4422 -0.0073  0.4871
  131OSM    H7F14192   4.127   6.369   5.726  0.1673 -0.4344  0.6266
  131OSM    H7G14193   4.082   6.541   5.763 -0.2609  0.3535  1.6043
  131OSM    C8F14194   3.918   6.431   5.706 -0.2568  1.1306 -0.1517
  131OSM    H8F14195   3.952   6.478   5.611  1.6332 -0.0995 -0.1472
  131OSM    H8G14196   3.842   6.499   5.750 -0.2978  0.2239  1.2350
  131OSM    C9F14197   3.858   6.299   5.675 -0.5344 -0.4120 -0.9330
  131OSM    H9F14198   3.880   6.219   5.748 -3.9276 -1.0662 -0.4893
  131OSM   C10F14199   3.795   6.267   5.563 -1.0319  0.4722 -0.2414
  131OSM   H10F14200   3.747   6.169   5.549 -1.4021  0.8757 -2.0897
  131OSM   C11F14201   3.754   6.357   5.451  0.5018 -0.1975 -0.9137
  131OSM   H11F14202   3.783   6.462   5.473 -0.8236 -0.4074  2.5581
  131OSM   H11G14203   3.645   6.356   5.428  0.3421 -1.5524 -0.2593
  131OSM   C12F14204   3.820   6.325   5.312 -0.7846 -0.9904 -0.2950
  131OSM   H12F14205   3.772   6.229   5.284 -1.6422 -0.6853  0.0844
  131OSM   H12G14206   3.931   6.326   5.325 -0.7602  0.7003 -0.3964
  131OSM   C13F14207   3.791   6.437   5.214 -0.4375  0.2278  0.3695
  131OSM   H13F14208   3.807   6.538   5.259 -1.9791  0.6670  0.0148
  131OSM   H13G14209   3.682   6.425   5.196 -0.5546  0.3473  0.9768
  131OSM   C14F14210   3.862   6.415   5.078  0.4140 -0.0540 -0.0975
  131OSM   H14F14211   3.834   6.314   5.039  2.6966 -0.9135  0.3575
  131OSM   H14G14212   3.969   6.386   5.078  0.2555 -0.7009 -0.8634
  131OSM   C15F14213   3.825   6.526   4.975 -0.2622 -0.1292 -0.1232
  131OSM   H15F14214   3.906   6.546   4.901 -2.6452 -0.3685 -3.0172
  131OSM   H15G14215   3.802   6.627   5.015 -0.1472 -0.8268  1.8077
  131OSM   C16F14216   3.705   6.470   4.880 -0.5565 -0.8896  0.7477
  131OSM   H16F14217   3.606   6.481   4.928  0.2180 -1.6891  2.6195
  131OSM   H16G14218   3.720   6.361   4.864  0.8493 -0.5423 -0.5463
  131OSM   C17F14219   3.698   6.539   4.741 -0.6541  0.5641 -0.1906
  131OSM   H17F14220   3.797   6.521   4.695  0.0774 -0.9744  1.8393
  131OSM   H17G14221   3.674   6.648   4.736 -1.5884  0.3877  0.1618
  131OSM   C18F14222   3.589   6.474   4.655 -0.1999  0.7713 -0.4822
  131OSM   H18F14223   3.583   6.365   4.675  0.3433  0.5217 -1.6209
  131OSM   H18G14224   3.614   6.502   4.551 -0.1135  0.3510 -0.5749
  131OSM   H18H14225   3.492   6.524   4.677  0.2144  1.1227  0.6048
  132OSM      N14226   5.838   2.768   7.285 -0.9146 -0.1871  0.0948
  132OSM    C1514227   5.704   2.798   7.343 -0.7241 -0.3775 -0.0702
  132OSM   H15A14228   5.617   2.734   7.341 -2.4847  1.8923 -1.2592
  132OSM   H15B14229   5.668   2.883   7.286  1.9233  0.3915 -0.7173
  132OSM   H15C14230   5.709   2.827   7.448 -1.3000 -1.0133  0.1415
  132OSM    C1414231   5.939   2.877   7.303  0.7215  0.1353  0.1663
  132OSM   H14A14232   5.925   2.950   7.224  1.6417 -0.9652 -1.0494
  132OSM   H14B14233   6.045   2.855   7.300  1.0104  1.5003 -0.5420
  132OSM   H14C14234   5.913   2.930   7.394 -0.6035 -1.3024  0.6611
  132OSM    C1314235   5.900   2.650   7.352  0.5033  0.2652  0.6798
  132OSM   H13A14236   5.839   2.561   7.340 -0.9876  1.2188  0.9930
  132OSM   H13B14237   5.890   2.658   7.459 -1.7104 -0.7723  0.6099
  132OSM   H13C14238   6.001   2.624   7.323 -0.0221 -1.9816  0.6876
  132OSM    C1214239   5.826   2.726   7.138 -0.2736 -0.0665 -0.3136
  132OSM   H12A14240   5.748   2.654   7.119 -0.3554  0.1337 -0.7666
  132OSM   H12B14241   5.918   2.678   7.110  1.1831  1.6164  1.3273
  132OSM    C1114242   5.818   2.833   7.030 -0.2234 -0.2888  0.3728
  132OSM   H11A14243   5.804   2.769   6.940 -1.1304 -0.6597  0.7719
  132OSM   H11B14244   5.915   2.888   7.029 -0.1603 -0.4010  0.2004
  132OSM      P14245   5.703   3.065   7.071  0.4148  0.0308  0.0264
  132OSM    O1314246   5.570   3.123   7.113 -0.6292 -0.8990 -0.2655
  132OSM    O1414247   5.809   3.105   7.164  0.2811  0.1434 -0.4132
  132OSM    O1114248   5.733   3.101   6.924  0.0333 -0.1545  0.2404
  132OSM    O1214249   5.702   2.909   7.056  0.4947 -0.3831 -0.2854
  132OSM    C1S14250   5.633   3.152   6.834  0.6425 -0.3570 -0.3755
  132OSM    H1S14251   5.610   3.257   6.861  1.7023 -0.7020  2.1023
  132OSM    H1T14252   5.532   3.107   6.843  0.8079 -0.6836 -0.1739
  132OSM     NF14253   5.571   3.229   6.603  0.2369 -0.1614  0.3726
  132OSM    HNF14254   5.500   3.194   6.544  1.4971 -1.1270 -0.6159
  132OSM    C2S14255   5.662   3.138   6.678  0.0627  0.4209 -0.4040
  132OSM    H2S14256   5.764   3.176   6.659  0.5396 -0.3527  0.5264
  132OSM    C3S14257   5.665   2.986   6.636 -0.5281 -0.8932  0.4117
  132OSM    H3S14258   5.560   2.950   6.641 -0.5885 -0.5673  2.4557
  132OSM     O314259   5.733   2.901   6.730  0.1190  0.6837  0.4467
  132OSM    HO314260   5.733   2.956   6.809  2.0220 -0.2663  1.1623
  132OSM    C4S14261   5.708   2.947   6.504 -0.6109  0.1939  0.7278
  132OSM    H4S14262   5.810   2.982   6.481 -0.2941 -0.9627  0.2648
  132OSM    C5S14263   5.651   2.869   6.407  0.5544 -0.4470 -0.0463
  132OSM    H5S14264   5.555   2.824   6.437 -0.0286  0.1050 -1.0336
  132OSM    C6S14265   5.722   2.836   6.275  0.1634  0.4093  0.0620
  132OSM    H6S14266   5.697   2.735   6.238 -0.2733  1.3527 -2.4391
  132OSM    H6T14267   5.832   2.827   6.287 -0.0246 -0.0060  1.7487
  132OSM    C7S14268   5.688   2.932   6.160 -0.5135  0.2201  0.2885
  132OSM    H7S14269   5.736   3.032   6.172 -0.1333 -0.0436  1.0384
  132OSM    H7T14270   5.578   2.942   6.148 -0.5461  0.6475  0.8603
  132OSM    C8S14271   5.757   2.883   6.034  0.3379 -0.0454  0.1619
  132OSM    H8S14272   5.708   2.793   5.992  0.6269  0.4246 -1.2696
  132OSM    H8T14273   5.863   2.855   6.052  1.1035  1.3537 -1.7847
  132OSM    C9S14274   5.739   2.992   5.926 -1.0207 -0.5663 -0.5472
  132OSM    H9S14275   5.766   3.089   5.973 -1.9413 -0.5447 -0.0436
  132OSM    H9T14276   5.633   2.993   5.894 -0.9572  2.4094 -0.9117
  132OSM   C10S14277   5.847   2.959   5.816  0.4435  0.1091 -0.3802
  132OSM   H10S14278   5.947   2.939   5.860  1.3888 -1.5496 -2.9975
  132OSM   H10T14279   5.861   3.054   5.760  0.9191  1.1264  1.4054
  132OSM   C11S14280   5.796   2.847   5.722 -0.1439 -0.3244  0.0107
  132OSM   H11S14281   5.709   2.892   5.669  1.3483  0.3325 -2.0608
  132OSM   H11T14282   5.761   2.754   5.771 -3.4627  0.5738 -0.4316
  132OSM   C12S14283   5.893   2.827   5.607  0.4050  0.3797 -0.1919
  132OSM   H12S14284   5.995   2.804   5.645  0.0268 -0.8635  0.1081
  132OSM   H12T14285   5.890   2.923   5.551 -1.9926  0.1222 -0.5924
  132OSM   C13S14286   5.849   2.718   5.498  0.1789 -0.1204 -1.2636
  132OSM   H13S14287   5.747   2.746   5.465 -0.6657  0.7004  1.7685
  132OSM   H13T14288   5.840   2.625   5.557  0.3852  1.5210  1.4949
  132OSM   C14S14289   5.968   2.695   5.402  0.2998  0.3619  0.3650
  132OSM   H14S14290   6.052   2.666   5.469  0.6935 -3.8499 -1.6523
  132OSM   H14T14291   5.996   2.784   5.343 -3.5571 -0.0126 -2.4389
  132OSM   C15S14292   5.957   2.575   5.307 -0.7418  0.3984 -0.4354
  132OSM   H15S14293   5.894   2.498   5.357  0.2678 -1.1029 -1.3948
  132OSM   H15T14294   6.054   2.525   5.289 -1.9219 -2.0781 -0.3762
  132OSM   C16S14295   5.900   2.605   5.167 -0.4592 -0.2511  0.2252
  132OSM   H16S14296   5.951   2.696   5.127 -0.9340  0.4156  1.1066
  132OSM   H16T14297   5.797   2.640   5.185  0.0444  0.7892  1.2081
  132OSM   C17S14298   5.911   2.483   5.073 -0.4615 -0.2279 -0.3694
  132OSM   H17S14299   5.839   2.404   5.105 -1.6185  0.5988 -0.8630
  132OSM   H17T14300   6.013   2.442   5.091  0.0352  0.4322 -1.5413
  132OSM   C18S14301   5.879   2.522   4.928 -0.7442 -0.0000  0.3986
  132OSM   H18S14302   5.948   2.601   4.892 -1.7605  1.4274  1.4852
  132OSM   H18T14303   5.774   2.554   4.912 -0.8941 -0.5349  0.2795
  132OSM   H18U14304   5.890   2.430   4.867 -0.6728  1.1853 -1.4453
  132OSM    C1F14305   5.580   3.366   6.611  0.0777  0.4310  0.3130
  132OSM     OF14306   5.663   3.424   6.678  0.2513  0.1930  0.0203
  132OSM    C2F14307   5.494   3.440   6.519  0.4698 -0.8942  0.3544
  132OSM    H2F14308   5.421   3.506   6.572 -0.0145 -0.6861 -0.5453
  132OSM    H2G14309   5.433   3.364   6.467 -2.0878 -0.1769  2.0915
  132OSM    C3F14310   5.578   3.517   6.421  0.9396  0.5457  0.0971
  132OSM    H3F14311   5.638   3.588   6.482  0.1218  1.7993 -0.4903
  132OSM    H3G14312   5.510   3.582   6.361  0.4537 -0.6742 -0.7063
  132OSM    C4F14313   5.647   3.425   6.318 -0.8621 -0.2687  0.1407
  132OSM    H4F14314   5.648   3.319   6.353 -1.2814 -0.4483 -0.3651
  132OSM    H4G14315   5.749   3.462   6.295 -1.2102 -0.2189 -1.4001
  132OSM    C5F14316   5.585   3.435   6.183 -0.3625 -0.0557 -0.1015
  132OSM    H5F14317   5.575   3.544   6.163 -0.7317 -0.2368 -0.9592
  132OSM    H5G14318   5.483   3.391   6.193 -1.8504  2.9276 -0.9036
  132OSM    C6F14319   5.648   3.363   6.072  0.1916  0.2533 -0.1563
  132OSM    H6F14320   5.667   3.256   6.094  0.8609  0.0859 -1.4582
  132OSM    H6G14321   5.746   3.411   6.050 -1.5005  2.7994 -2.9137
  132OSM    C7F14322   5.579   3.359   5.934 -0.4238  0.3091 -0.2935
  132OSM    H7F14323   5.482   3.411   5.946  0.6859  2.0100  2.1784
  132OSM    H7G14324   5.562   3.255   5.900 -1.3433  0.8965 -1.7440
  132OSM    C8F14325   5.663   3.438   5.827  0.7029 -0.4892  0.3593
  132OSM    H8F14326   5.709   3.524   5.879 -1.3751  0.7889  0.1996
  132OSM    H8G14327   5.606   3.487   5.746  0.1779  0.3386  1.2072
  132OSM    C9F14328   5.775   3.363   5.760 -0.1743  0.8463 -0.6560
  132OSM    H9F14329   5.848   3.314   5.827  0.8289  2.4079 -0.5635
  132OSM   C10F14330   5.795   3.342   5.630  0.1281 -0.0197  0.2295
  132OSM   H10F14331   5.886   3.294   5.592  1.3052  2.0331  0.2754
  132OSM   C11F14332   5.711   3.397   5.522  0.2364 -0.2894 -0.0889
  132OSM   H11F14333   5.745   3.497   5.488 -0.8195  0.5332  1.1857
  132OSM   H11G14334   5.605   3.401   5.554  0.4961  0.0736  0.7586
  132OSM   C12F14335   5.715   3.298   5.403  0.2081 -0.3879  0.0168
  132OSM   H12F14336   5.815   3.302   5.355  0.7759 -2.3925  0.8919
  132OSM   H12G14337   5.638   3.334   5.333  0.2090 -2.7428 -1.2910
  132OSM   C13F14338   5.653   3.159   5.438  0.2800  0.3139  0.2794
  132OSM   H13F14339   5.559   3.168   5.497  0.4506 -1.0212  0.7916
  132OSM   H13G14340   5.717   3.083   5.486  1.6030  0.7820 -0.7021
  132OSM   C14F14341   5.616   3.086   5.309 -0.1106  0.0440  0.3608
  132OSM   H14F14342   5.703   3.043   5.255 -0.8916 -2.5718  1.0570
  132OSM   H14G14343   5.572   3.168   5.247  2.0502 -0.4578 -2.0304
  132OSM   C15F14344   5.527   2.971   5.340 -0.4269  0.3810 -0.3229
  132OSM   H15F14345   5.478   2.995   5.437 -0.4843  2.3075 -0.7922
  132OSM   H15G14346   5.589   2.879   5.355 -0.7758  0.1571 -0.2462
  132OSM   C16F14347   5.416   2.956   5.240  0.2341  0.4191 -0.1204
  132OSM   H16F14348   5.442   3.030   5.161  0.6378 -0.5341 -0.9012
  132OSM   H16G14349   5.324   2.988   5.293  0.5908  0.1263  0.6918
  132OSM   C17F14350   5.379   2.822   5.174 -0.0966  0.0442  0.3066
  132OSM   H17F14351   5.355   2.757   5.261 -0.2748  0.2452  0.4082
  132OSM   H17G14352   5.472   2.785   5.125 -0.0907  2.0765 -1.3561
  132OSM   C18F14353   5.266   2.824   5.067  0.7067 -0.7166  0.3086
  132OSM   H18F14354   5.173   2.870   5.106 -1.6563 -3.5643 -1.5575
  132OSM   H18G14355   5.233   2.724   5.032  0.0530 -0.4320  0.1012
  132OSM   H18H14356   5.303   2.884   4.981 -0.2789  1.0632  1.0794
  133OSM      N14357   4.196   1.807   6.808  0.4401 -0.2979 -0.1571
  133OSM    C1514358   4.095   1.702   6.830 -0.6142  0.4980  0.7451
  133OSM   H15A14359   4.000   1.751   6.813 -0.3764  2.4781  4.1162
  133OSM   H15B14360   4.090   1.666   6.932 -0.6881  1.6127  1.1575
  133OSM   H15C14361   4.102   1.617   6.764  0.0448  1.1730 -0.0707
  133OSM    C1414362   4.140   1.929   6.862 -0.0561 -0.3684 -0.0081
  133OSM   H14A14363   4.040   1.937   6.822 -1.7905 -0.9678  3.7455
  133OSM   H14B14364   4.210   2.009   6.842 -0.5230  0.2548  0.8285
  133OSM   H14C14365   4.125   1.908   6.967 -0.1966  0.2830  0.1098
  133OSM    C1314366   4.308   1.765   6.894  0.4021  0.4406 -0.4833
  133OSM   H13A14367   4.400   1.821   6.885  0.7611 -0.1832 -0.8027
  133OSM   H13B14368   4.330   1.665   6.860 -0.3505 -0.0695  0.4740
  133OSM   H13C14369   4.271   1.768   6.995 -3.3298 -0.9278 -1.6736
  133OSM    C1214370   4.241   1.820   6.666  0.1089 -0.0626  0.2261
  133OSM   H12A14371   4.257   1.722   6.624 -1.2217 -0.1550 -0.1176
  133OSM   H12B14372   4.344   1.852   6.678  0.5524 -0.9855 -0.9670
  133OSM    C1114373   4.160   1.898   6.561  1.0131 -0.1006  0.0188
  133OSM   H11A14374   4.220   1.910   6.469 -2.2727  1.5769 -2.1238
  133OSM   H11B14375   4.150   2.003   6.597  1.2123  0.4867 -1.5958
  133OSM      P14376   3.989   1.701   6.483  0.0283 -0.5650  0.0573
  133OSM    O1314377   4.111   1.622   6.477 -0.9383  0.0395 -0.7769
  133OSM    O1414378   3.864   1.649   6.553 -0.0489 -0.4525 -0.1483
  133OSM    O1114379   3.952   1.746   6.335 -0.1145 -0.2119 -0.7529
  133OSM    O1214380   4.023   1.847   6.539 -0.4647  0.4872  0.1000
  133OSM    C1S14381   4.041   1.835   6.264  0.0832  0.3854  0.5030
  133OSM    H1S14382   4.119   1.770   6.218 -0.2737  1.1593 -1.2892
  133OSM    H1T14383   4.085   1.914   6.328 -0.5367 -0.9372  2.6683
  133OSM     NF14384   4.069   1.993   6.083 -0.6033 -0.8947 -0.0085
  133OSM    HNF14385   4.083   2.083   6.124 -1.7015 -0.7901  0.1736
  133OSM    C2S14386   3.970   1.901   6.143 -0.4765 -0.3431 -0.1743
  133OSM    H2S14387   3.939   1.820   6.074 -0.1230 -1.1857  0.6352
  133OSM    C3S14388   3.837   1.978   6.179 -0.0351 -0.8523  0.2877
  133OSM    H3S14389   3.868   2.070   6.233 -2.8410 -1.1680  2.6461
  133OSM     O314390   3.753   1.911   6.273  0.0703  0.3200  0.3956
  133OSM    HO314391   3.799   1.833   6.304 -0.9206 -0.5314 -0.1838
  133OSM    C4S14392   3.756   2.018   6.052 -0.3745  0.2898 -0.5211
  133OSM    H4S14393   3.775   2.116   6.005  0.2794 -0.0303 -0.9344
  133OSM    C5S14394   3.680   1.929   5.978 -0.6683  0.0593 -0.3289
  133OSM    H5S14395   3.668   1.827   6.019 -1.2911  0.2130 -0.1215
  133OSM    C6S14396   3.611   1.960   5.853 -0.1715 -0.2698  0.9908
  133OSM    H6S14397   3.622   2.067   5.825 -0.8640  0.0296  1.8137
  133OSM    H6T14398   3.501   1.950   5.859 -0.5673  1.1048 -1.9833
  133OSM    C7S14399   3.660   1.857   5.753 -0.0428 -0.6353 -0.0552
  133OSM    H7S14400   3.616   1.889   5.656 -1.0508 -0.0176  0.5912
  133OSM    H7T14401   3.633   1.752   5.777  1.2522 -1.0293 -0.2409
  133OSM    C8S14402   3.813   1.856   5.721  0.0696  0.0199  0.2993
  133OSM    H8S14403   3.861   1.782   5.788  0.3265  1.0822  1.3380
  133OSM    H8T14404   3.858   1.957   5.734 -0.8005  0.7461 -1.7966
  133OSM    C9S14405   3.843   1.806   5.579  0.6470  0.2925  0.0802
  133OSM    H9S14406   3.951   1.781   5.568  0.7960  0.2243  1.5776
  133OSM    H9T14407   3.833   1.893   5.510 -0.3680  0.7173  0.7455
  133OSM   C10S14408   3.768   1.680   5.541  0.6316 -0.5761 -1.0822
  133OSM   H10S14409   3.659   1.704   5.537  0.9130  0.7267 -1.3897
  133OSM   H10T14410   3.779   1.620   5.634  0.9965  1.5128  0.2863
  133OSM   C11S14411   3.822   1.602   5.424  0.0015  0.6737  0.2577
  133OSM   H11S14412   3.777   1.501   5.414  1.1097  0.0057  1.6362
  133OSM   H11T14413   3.928   1.579   5.449  0.6577  1.0016 -1.9773
  133OSM   C12S14414   3.805   1.676   5.291  0.0856  0.5671  0.2702
  133OSM   H12S14415   3.848   1.776   5.313  0.9850  0.1591  0.3989
  133OSM   H12T14416   3.697   1.700   5.276  0.2136  0.2452 -1.2479
  133OSM   C13S14417   3.870   1.593   5.175 -0.4168  0.4061  0.0145
  133OSM   H13S14418   3.844   1.648   5.083 -2.0308 -1.7194 -0.9003
  133OSM   H13T14419   3.837   1.488   5.160  1.4583 -0.0300 -1.3731
  133OSM   C14S14420   4.025   1.587   5.176 -0.0629  0.1601 -0.2366
  133OSM   H14S14421   4.042   1.498   5.241 -0.2617  1.2744  1.4152
  133OSM   H14T14422   4.059   1.679   5.228 -1.0517  0.2824  0.2150
  133OSM   C15S14423   4.086   1.561   5.038 -0.5058 -0.1221 -0.1997
  133OSM   H15S14424   4.085   1.648   4.970 -0.5484 -1.0989 -1.4960
  133OSM   H15T14425   4.018   1.483   4.998 -2.5153  0.7277  1.4414
  133OSM   C16S14426   4.232   1.507   5.055 -0.5269 -0.6446 -0.0466
  133OSM   H16S14427   4.223   1.426   5.131  0.1478 -1.5821 -0.9360
  133OSM   H16T14428   4.298   1.594   5.075 -0.1817 -0.0891 -3.0592
  133OSM   C17S14429   4.272   1.438   4.930 -0.1545 -0.6842 -0.0203
  133OSM   H17S14430   4.274   1.515   4.850  2.6377  0.5984  1.1343
  133OSM   H17T14431   4.192   1.362   4.918 -2.0580  0.8191  2.2449
  133OSM   C18S14432   4.414   1.384   4.924  0.1277 -0.1016  0.4518
  133OSM   H18S14433   4.429   1.311   5.007 -2.7097 -0.0771  1.0943
  133OSM   H18T14434   4.501   1.452   4.932  0.3180 -0.1715 -0.9075
  133OSM   H18U14435   4.434   1.318   4.837 -1.2042  1.6863 -1.2903
  133OSM    C1F14436   4.150   1.944   5.986  0.0338 -0.2620 -0.1978
  133OSM     OF14437   4.143   1.829   5.940  0.1236 -0.2650  0.2489
  133OSM    C2F14438   4.254   2.039   5.936  0.1616 -0.4705 -0.7204
  133OSM    H2F14439   4.318   2.056   6.025  1.8453 -1.1185 -1.7768
  133OSM    H2G14440   4.209   2.134   5.899  2.0309  0.4670 -0.6638
  133OSM    C3F14441   4.358   1.970   5.840 -0.3400 -0.6127  0.2850
  133OSM    H3F14442   4.301   1.943   5.749  1.9232 -0.6111 -1.1974
  133OSM    H3G14443   4.389   1.874   5.887 -0.8961 -1.9862 -2.0001
  133OSM    C4F14444   4.491   2.052   5.812  0.5129  0.2924  0.1269
  133OSM    H4F14445   4.478   2.147   5.758  1.7611 -0.9809 -2.6129
  133OSM    H4G14446   4.548   1.984   5.745 -0.9953  0.4222 -1.3471
  133OSM    C5F14447   4.577   2.085   5.939 -0.2164  0.0905  1.0609
  133OSM    H5F14448   4.553   2.013   6.020 -1.4723  0.2752  0.8660
  133OSM    H5G14449   4.564   2.189   5.975  1.0839  1.3087 -1.7173
  133OSM    C6F14450   4.718   2.046   5.895  0.0064 -1.0520 -0.1070
  133OSM    H6F14451   4.739   2.124   5.818  1.0995  1.5958  2.6781
  133OSM    H6G14452   4.720   1.941   5.858  1.5919 -1.9479  2.3234
  133OSM    C7F14453   4.820   2.047   6.011 -0.1452 -0.8519  0.0563
  133OSM    H7F14454   4.779   1.991   6.097 -1.1315 -0.3599 -0.0703
  133OSM    H7G14455   4.818   2.153   6.045 -0.6794 -0.6758 -0.4918
  133OSM    C8F14456   4.963   1.996   5.974 -0.5337  0.1820 -0.3362
  133OSM    H8F14457   5.032   1.993   6.061 -1.4031  1.0654  0.4110
  133OSM    H8G14458   5.004   2.068   5.900 -0.5559 -0.4032 -0.9314
  133OSM    C9F14459   4.958   1.856   5.907 -0.3506 -0.2818  0.4181
  133OSM    H9F14460   4.923   1.780   5.978 -2.1071 -1.0057 -1.1441
  133OSM   C10F14461   4.973   1.823   5.776  0.0363  0.1838  0.2582
  133OSM   H10F14462   4.951   1.719   5.748 -3.4887  1.4552 -2.6335
  133OSM   C11F14463   4.984   1.924   5.661  0.1262 -0.8002  0.3609
  133OSM   H11F14464   5.091   1.931   5.631  0.1122 -2.4428 -0.2143
  133OSM   H11G14465   4.948   2.026   5.686 -2.1901 -1.0845 -1.5347
  133OSM   C12F14466   4.914   1.887   5.527 -0.3705  0.2075 -0.0486
  133OSM   H12F14467   4.912   1.968   5.450 -0.2911 -0.6998 -1.0347
  133OSM   H12G14468   4.807   1.870   5.551 -0.4692 -0.6906 -1.0481
  133OSM   C13F14469   4.949   1.757   5.456  0.1127  0.6522  0.3379
  133OSM   H13F14470   4.903   1.670   5.507  1.0758  0.3152  0.6687
  133OSM   H13G14471   5.059   1.745   5.465  0.0194 -0.9077 -0.3341
  133OSM   C14F14472   4.909   1.771   5.309 -0.0801 -0.3964 -0.0160
  133OSM   H14F14473   4.956   1.864   5.271 -1.3145  0.2347 -0.0426
  133OSM   H14G14474   4.799   1.788   5.312 -0.0580 -0.0555  3.2932
  133OSM   C15F14475   4.950   1.659   5.207 -0.3099  0.5460 -0.2536
  133OSM   H15F14476   4.913   1.559   5.240  0.6671  0.2652  0.0110
  133OSM   H15G14477   5.061   1.657   5.214 -0.2898  0.3058 -0.5900
  133OSM   C16F14478   4.914   1.700   5.065 -0.6071  0.4844  0.4466
  133OSM   H16F14479   4.945   1.806   5.061  0.8964  0.0619  0.3977
  133OSM   H16G14480   4.803   1.695   5.054 -0.4770 -1.5985 -0.5179
  133OSM   C17F14481   4.990   1.623   4.957 -0.6078 -0.6757 -0.6268
  133OSM   H17F14482   4.973   1.514   4.973 -0.9778 -0.6366 -0.7249
  133OSM   H17G14483   5.097   1.650   4.960 -1.3128  2.3323  1.2260
  133OSM   C18F14484   4.935   1.662   4.818  0.2947  0.4324 -0.5891
  133OSM   H18F14485   4.945   1.773   4.813 -0.6650  0.5296 -0.4310
  133OSM   H18G14486   4.828   1.634   4.816  0.6806 -1.1119 -1.3969
  133OSM   H18H14487   4.976   1.598   4.737  0.0902 -2.6235  1.5783
  134OSM      N14488   3.108   1.057   6.259  0.0328 -0.2865  0.1794
  134OSM    C1514489   3.157   0.925   6.315  0.8273 -0.0864 -0.2474
  134OSM   H15A14490   3.074   0.860   6.339  0.3337  0.5467 -0.1931
  134OSM   H15B14491   3.221   0.954   6.397 -0.4315  0.9480  0.4056
  134OSM   H15C14492   3.217   0.865   6.249 -0.2610 -1.2208 -0.2479
  134OSM    C1414493   3.038   1.133   6.367 -0.1051  0.4501  0.9377
  134OSM   H14A14494   3.109   1.171   6.440  1.9011  2.4041 -1.7940
  134OSM   H14B14495   2.961   1.082   6.423 -0.0397  0.5457  1.1155
  134OSM   H14C14496   3.006   1.228   6.327  0.5219  0.1065 -0.4275
  134OSM    C1314497   3.215   1.141   6.201  0.5947 -0.2293  0.0466
  134OSM   H13A14498   3.171   1.224   6.148 -0.9616 -0.6559  0.6435
  134OSM   H13B14499   3.279   1.093   6.128  1.2317  1.2236 -0.3910
  134OSM   H13C14500   3.287   1.174   6.275  1.8591 -0.8060 -0.8780
  134OSM    C1214501   3.008   1.016   6.151  0.0200 -1.3617 -0.2621
  134OSM   H12A14502   2.957   0.926   6.182 -0.2998 -1.6962 -1.6784
  134OSM   H12B14503   3.060   0.983   6.062  0.2221  0.8881 -1.0508
  134OSM    C1114504   2.913   1.126   6.101 -0.1397  0.3254 -0.0385
  134OSM   H11A14505   2.846   1.158   6.184  0.3284  1.1420  0.0248
  134OSM   H11B14506   2.842   1.087   6.025 -1.7856  0.8232  1.1736
  134OSM      P14507   2.939   1.379   6.102 -0.2165  0.2497  0.0814
  134OSM    O1314508   2.795   1.395   6.100 -0.2691 -0.4180 -0.6806
  134OSM    O1414509   3.004   1.413   6.233 -0.4245  0.4560  0.9618
  134OSM    O1114510   3.011   1.463   5.984 -0.3995 -0.4648  0.0636
  134OSM    O1214511   2.982   1.237   6.049 -0.4871 -0.0244  0.6510
  134OSM    C1S14512   3.019   1.417   5.852  0.3545  0.5572 -0.2052
  134OSM    H1S14513   2.932   1.351   5.832 -1.9485  3.5171 -0.6833
  134OSM    H1T14514   3.113   1.358   5.849  1.3998  2.1694 -0.4100
  134OSM     NF14515   3.017   1.467   5.624 -0.5217  0.7290  0.2954
  134OSM    HNF14516   3.099   1.447   5.571  0.0501 -0.7585  1.6627
  134OSM    C2S14517   3.037   1.529   5.757 -0.7062  0.3976  0.7092
  134OSM    H2S14518   2.956   1.604   5.772 -0.5728  0.7162 -0.0785
  134OSM    C3S14519   3.177   1.599   5.776  0.5465  0.1761 -0.5440
  134OSM    H3S14520   3.246   1.512   5.770 -0.1764 -0.7027  2.1858
  134OSM     O314521   3.192   1.645   5.908 -0.0026  0.1091  0.9778
  134OSM    HO314522   3.114   1.607   5.949 -0.5791 -0.1821 -0.3315
  134OSM    C4S14523   3.209   1.707   5.684  0.1971 -0.2243  1.3021
  134OSM    H4S14524   3.283   1.680   5.607  0.6279 -2.0521  2.3090
  134OSM    C5S14525   3.153   1.835   5.676 -0.1474  0.0404  0.1139
  134OSM    H5S14526   3.082   1.873   5.751  0.7665  1.4803  0.2674
  134OSM    C6S14527   3.188   1.950   5.582  0.3417  0.0538  0.1171
  134OSM    H6S14528   3.299   1.957   5.578  0.2394  2.9764  0.5127
  134OSM    H6T14529   3.145   2.048   5.610  1.2730  0.4193  0.2904
  134OSM    C7S14530   3.160   1.938   5.431  0.7318 -0.7016 -0.0474
  134OSM    H7S14531   3.234   1.864   5.392  2.9645  0.0146  2.5515
  134OSM    H7T14532   3.170   2.040   5.388  0.0822  0.0863  1.5843
  134OSM    C8S14533   3.017   1.895   5.404  0.2151 -0.5537  0.0214
  134OSM    H8S14534   2.949   1.967   5.454 -1.7137 -1.4351 -1.1815
  134OSM    H8T14535   2.997   1.793   5.443  1.8992 -0.4891  1.1473
  134OSM    C9S14536   2.979   1.898   5.254  0.1735  0.7711  0.2924
  134OSM    H9S14537   3.063   1.841   5.207 -1.0990 -0.4986 -0.5379
  134OSM    H9T14538   2.970   2.002   5.218 -0.8170  0.3742 -0.6299
  134OSM   C10S14539   2.853   1.817   5.222 -0.1239  0.1094  0.2805
  134OSM   H10S14540   2.763   1.874   5.256 -1.1012 -1.4626  0.4498
  134OSM   H10T14541   2.861   1.713   5.260 -1.0945 -0.2498 -0.4575
  134OSM   C11S14542   2.841   1.803   5.071 -0.7561  0.3032 -0.3385
  134OSM   H11S14543   2.834   1.911   5.047  1.2273  0.5041 -0.2185
  134OSM   H11T14544   2.742   1.759   5.048 -0.4801 -0.2867 -0.4226
  134OSM   C12S14545   2.952   1.735   4.987 -0.2544  0.0025 -0.2571
  134OSM   H12S14546   3.045   1.715   5.045 -0.6202 -2.1571 -0.3331
  134OSM   H12T14547   2.977   1.809   4.908 -0.7809 -0.5002 -0.8985
  134OSM   C13S14548   2.913   1.603   4.931  0.1449 -0.5989  0.2413
  134OSM   H13S14549   2.821   1.613   4.869 -0.0533  2.0528  0.8372
  134OSM   H13T14550   2.872   1.552   5.020 -0.0497  1.4694  1.4068
  134OSM   C14S14551   3.034   1.538   4.858 -0.1475 -0.1639 -0.4032
  134OSM   H14S14552   3.011   1.435   4.824  0.4525  0.0748 -1.6199
  134OSM   H14T14553   3.104   1.532   4.943  0.0501  0.9405 -0.4744
  134OSM   C15S14554   3.077   1.628   4.743  0.5886  0.7824  0.1966
  134OSM   H15S14555   3.126   1.718   4.786  0.3052  0.1953  1.7912
  134OSM   H15T14556   2.981   1.667   4.703  0.0673 -1.8457 -1.3278
  134OSM   C16S14557   3.156   1.557   4.624 -0.1390  0.0033 -0.1362
  134OSM   H16S14558   3.094   1.479   4.574 -1.2091  0.9478 -0.3264
  134OSM   H16T14559   3.244   1.505   4.667  1.0848  0.6267 -1.7892
  134OSM   C17S14560   3.197   1.662   4.517  0.2875 -0.4495  0.1312
  134OSM   H17S14561   3.250   1.613   4.433 -0.5338  2.6411 -2.3823
  134OSM   H17T14562   3.270   1.732   4.564  0.0914 -0.0776 -0.1165
  134OSM   C18S14563   3.071   1.736   4.463 -0.2386  0.2578  0.7100
  134OSM   H18S14564   3.103   1.794   4.374  2.7515 -1.6930  0.3638
  134OSM   H18T14565   3.025   1.812   4.530 -1.7591  0.2019 -0.2220
  134OSM   H18U14566   2.987   1.668   4.438  0.9801 -1.5447  1.2940
  134OSM    C1F14567   2.900   1.422   5.585 -0.9814 -0.4984  0.2066
  134OSM     OF14568   2.800   1.449   5.654 -0.1667 -0.0396 -0.1389
  134OSM    C2F14569   2.902   1.350   5.462  0.4311  0.2747  0.5339
  134OSM    H2F14570   2.958   1.256   5.478  0.6510  0.1940 -0.6222
  134OSM    H2G14571   2.956   1.409   5.385 -0.8183  1.8606  0.8220
  134OSM    C3F14572   2.767   1.320   5.410  0.0547 -0.6130 -0.2585
  134OSM    H3F14573   2.723   1.422   5.406 -1.6886 -1.2432  1.3770
  134OSM    H3G14574   2.709   1.262   5.485 -0.1450 -0.0160  0.0633
  134OSM    C4F14575   2.764   1.247   5.273 -0.3913 -0.4713 -0.1176
  134OSM    H4F14576   2.663   1.212   5.244  0.3457 -2.4512 -0.4138
  134OSM    H4G14577   2.820   1.152   5.286  0.6920  0.1301 -0.2314
  134OSM    C5F14578   2.834   1.311   5.148  0.1724 -0.2889  0.8465
  134OSM    H5F14579   2.938   1.339   5.175 -0.7138 -0.2030  4.8463
  134OSM    H5G14580   2.786   1.410   5.132  1.3472  0.0328 -0.8751
  134OSM    C6F14581   2.819   1.224   5.017  0.5701  0.0193  0.0459
  134OSM    H6F14582   2.810   1.117   5.047 -0.0901 -0.3002 -1.2442
  134OSM    H6G14583   2.905   1.251   4.952  0.5062 -0.2286 -0.1460
  134OSM    C7F14584   2.690   1.251   4.938  0.2140  0.4607 -0.0197
  134OSM    H7F14585   2.675   1.361   4.931 -0.3552  0.3062 -1.7475
  134OSM    H7G14586   2.595   1.215   4.985 -0.6181  0.7846 -1.3938
  134OSM    C8F14587   2.690   1.207   4.791  0.6656 -0.5479 -0.1015
  134OSM    H8F14588   2.787   1.245   4.753 -0.5283  0.7121 -2.0776
  134OSM    H8G14589   2.610   1.262   4.737  0.8245 -0.7855 -0.5848
  134OSM    C9F14590   2.677   1.058   4.780 -0.4944  0.2823 -0.0758
  134OSM    H9F14591   2.597   1.023   4.847 -1.5022  0.8212 -0.9444
  134OSM   C10F14592   2.760   0.965   4.727 -0.1629  0.4764  0.0673
  134OSM   H10F14593   2.742   0.856   4.731  2.2142 -0.0631 -1.8547
  134OSM   C11F14594   2.879   1.001   4.656 -0.1079 -0.1838  1.1612
  134OSM   H11F14595   2.969   1.006   4.720  1.0730 -1.9116 -0.2666
  134OSM   H11G14596   2.868   1.099   4.604 -1.6922 -0.3255  1.1741
  134OSM   C12F14597   2.928   0.895   4.557  0.6897  0.8938  0.1890
  134OSM   H12F14598   2.951   0.799   4.607  0.0732  0.7693  0.2404
  134OSM   H12G14599   3.024   0.929   4.513  0.7134 -0.6982 -1.0771
  134OSM   C13F14600   2.828   0.889   4.443  0.4793  0.5274  0.1188
  134OSM   H13F14601   2.771   0.985   4.436  1.6414  1.3483  1.4430
  134OSM   H13G14602   2.759   0.803   4.459  1.3445 -0.4184 -1.0990
  134OSM   C14F14603   2.898   0.876   4.312 -0.3972 -0.0854  1.0291
  134OSM   H14F14604   2.965   0.787   4.303  1.6901  1.5330 -0.5043
  134OSM   H14G14605   2.965   0.965   4.306 -0.7245  0.0950 -0.4439
  134OSM   C15F14606   2.803   0.885   4.193 -0.1250 -0.8688  0.2561
  134OSM   H15F14607   2.740   0.976   4.185 -0.1715 -0.7240  1.8516
  134OSM   H15G14608   2.736   0.798   4.208  0.4157 -1.6580 -1.6292
  134OSM   C16F14609   2.874   0.854   4.059  0.6673 -0.0435  0.2052
  134OSM   H16F14610   2.931   0.760   4.073 -1.2192 -1.3624 -0.5369
  134OSM   H16G14611   2.936   0.938   4.022 -0.5306  0.5799 -0.4545
  134OSM   C17F14612   2.781   0.815   3.944 -0.8350 -0.6440  0.2501
  134OSM   H17F14613   2.701   0.891   3.927  1.6264  2.4326  1.3750
  134OSM   H17G14614   2.734   0.716   3.962  1.6386 -2.9613 -4.3172
  134OSM   C18F14615   2.859   0.798   3.812  0.2766 -0.8547  0.1736
  134OSM   H18F14616   2.916   0.884   3.770 -1.3153 -1.0506 -2.6572
  134OSM   H18G14617   2.783   0.768   3.737 -1.8470  0.7848  1.5514
  134OSM   H18H14618   2.938   0.720   3.816  1.7227  0.4263 -1.5695
  135OSM      N14619   1.207   4.945   6.849  0.3991  0.2064 -0.4251
  135OSM    C1514620   1.081   4.867   6.841  0.5243  0.0735  1.0645
  135OSM   H15A14621   0.996   4.927   6.810 -0.3035 -1.4707  0.2429
  135OSM   H15B14622   1.061   4.818   6.935  0.8538 -0.0092  1.0921
  135OSM   H15C14623   1.092   4.782   6.776  0.7380 -0.1076  1.3401
  135OSM    C1414624   1.194   5.052   6.950  0.2315  0.5411 -0.5397
  135OSM   H14A14625   1.159   5.022   7.048  1.2873  0.4280 -0.1840
  135OSM   H14B14626   1.121   5.127   6.923 -0.8137  0.3337  1.5196
  135OSM   H14C14627   1.291   5.100   6.958  1.0516 -1.1662  0.2322
  135OSM    C1314628   1.312   4.853   6.890  0.0626  0.3926  0.2438
  135OSM   H13A14629   1.342   4.795   6.804 -1.4130 -1.8835  1.1825
  135OSM   H13B14630   1.274   4.788   6.967 -2.2078  1.4046  0.0436
  135OSM   H13C14631   1.393   4.910   6.934  2.5685 -0.7921 -2.4452
  135OSM    C1214632   1.234   5.003   6.710  0.4648  0.4477  0.0552
  135OSM   H12A14633   1.330   5.053   6.712  0.0952  1.4502 -2.6279
  135OSM   H12B14634   1.163   5.083   6.694 -1.1198 -0.6096  1.4971
  135OSM    C1114635   1.231   4.913   6.586  0.2665 -0.1966 -0.6039
  135OSM   H11A14636   1.246   4.975   6.495 -1.1379 -0.6733 -1.2007
  135OSM   H11B14637   1.126   4.877   6.586  0.7763 -1.8181 -1.9611
  135OSM      P14638   1.304   4.672   6.526 -0.1406  0.1987 -0.4096
  135OSM    O1314639   1.404   4.573   6.576  0.0019 -0.0511 -0.4064
  135OSM    O1414640   1.163   4.629   6.540 -0.2650 -0.3054  0.3061
  135OSM    O1114641   1.343   4.708   6.378  0.2698  0.4179 -0.5677
  135OSM    O1214642   1.325   4.810   6.601  0.0146  0.6898 -0.5457
  135OSM    C1S14643   1.438   4.810   6.350 -0.0739  0.5903  0.3848
  135OSM    H1S14644   1.540   4.779   6.382  0.5582  1.9151 -0.2874
  135OSM    H1T14645   1.404   4.907   6.393  0.1474 -0.3587  2.8826
  135OSM     NF14646   1.549   4.952   6.180 -0.3024 -0.5171  0.2154
  135OSM    HNF14647   1.509   5.041   6.162  2.8645  0.9160 -0.3809
  135OSM    C2S14648   1.452   4.847   6.203  0.6019 -0.1845 -0.3449
  135OSM    H2S14649   1.497   4.756   6.157 -0.6347 -0.6402 -0.6810
  135OSM    C3S14650   1.313   4.881   6.144 -0.2913 -0.3344  0.3631
  135OSM    H3S14651   1.272   4.968   6.200 -1.3592 -0.0482 -0.8245
  135OSM     O314652   1.222   4.782   6.154 -0.9099 -0.2768 -0.2378
  135OSM    HO314653   1.261   4.732   6.226  1.4493 -0.3064 -1.4328
  135OSM    C4S14654   1.329   4.916   5.993 -0.4584  0.3452  0.6543
  135OSM    H4S14655   1.287   4.833   5.933 -1.3875  0.5341  1.0289
  135OSM    C5S14656   1.347   5.029   5.927 -0.4980 -0.4122  1.2709
  135OSM    H5S14657   1.385   5.115   5.984 -1.9375  1.5526 -0.5659
  135OSM    C6S14658   1.358   5.048   5.776  0.3865  0.2808  0.0912
  135OSM    H6S14659   1.456   5.097   5.756  0.6989 -0.0317  0.8048
  135OSM    H6T14660   1.283   5.121   5.739 -1.3882  0.0239  2.8811
  135OSM    C7S14661   1.344   4.931   5.678 -0.5668  0.4680 -0.6756
  135OSM    H7S14662   1.253   4.870   5.697  0.6780 -0.9183  1.3726
  135OSM    H7T14663   1.426   4.861   5.706 -1.1808  0.3774  1.0625
  135OSM    C8S14664   1.334   4.967   5.534 -0.6170 -0.5482  0.7840
  135OSM    H8S14665   1.413   5.041   5.509 -1.2872 -0.1225 -0.1253
  135OSM    H8T14666   1.233   5.015   5.537 -0.0942  0.5167  2.7006
  135OSM    C9S14667   1.345   4.839   5.449  0.4561  0.2969  0.1728
  135OSM    H9S14668   1.260   4.771   5.467 -0.5527  2.2548  3.8064
  135OSM    H9T14669   1.441   4.790   5.475  0.4323 -0.6662 -1.4247
  135OSM   C10S14670   1.336   4.861   5.295 -0.0205  0.5208  0.1588
  135OSM   H10S14671   1.370   4.769   5.242  0.7381 -0.0524  1.5864
  135OSM   H10T14672   1.403   4.943   5.260 -0.9016  0.4452 -1.8504
  135OSM   C11S14673   1.193   4.883   5.244  0.0830 -0.3212  0.1523
  135OSM   H11S14674   1.183   4.993   5.237 -2.5591 -0.6109 -2.7314
  135OSM   H11T14675   1.121   4.833   5.313 -0.8219 -0.8957 -1.1513
  135OSM   C12S14676   1.171   4.816   5.107 -0.0932 -0.4166  0.4421
  135OSM   H12S14677   1.065   4.836   5.077  0.5435  0.9372 -1.1020
  135OSM   H12T14678   1.187   4.707   5.118 -2.6170 -0.8496  0.3582
  135OSM   C13S14679   1.271   4.865   5.000  0.3593  1.0989  0.2697
  135OSM   H13S14680   1.250   4.822   4.900 -1.6235  1.0306  0.6681
  135OSM   H13T14681   1.366   4.817   5.031 -0.7592 -0.2576  1.7456
  135OSM   C14S14682   1.298   5.014   4.981  0.1887 -0.0390 -0.3002
  135OSM   H14S14683   1.329   5.059   5.078  1.4234 -1.7764  0.1801
  135OSM   H14T14684   1.205   5.069   4.954 -1.4859 -1.5875  1.8871
  135OSM   C15S14685   1.403   5.053   4.877  0.3055 -0.2890  0.8268
  135OSM   H15S14686   1.373   5.011   4.778 -2.2319  1.3716  0.8035
  135OSM   H15T14687   1.494   4.996   4.908  1.9911  1.3897 -0.7686
  135OSM   C16S14688   1.435   5.205   4.870  0.3243 -0.0768  0.4739
  135OSM   H16S14689   1.463   5.226   4.975 -0.1390 -3.1119  1.3063
  135OSM   H16T14690   1.348   5.259   4.827  0.9751  0.4349 -0.2233
  135OSM   C17S14691   1.568   5.227   4.797 -0.0015 -0.8890  0.2957
  135OSM   H17S14692   1.653   5.174   4.845  0.9464  0.6123  0.3739
  135OSM   H17T14693   1.594   5.335   4.809 -1.1597 -0.3748 -1.4599
  135OSM   C18S14694   1.567   5.207   4.642  0.7126 -0.1596  0.3340
  135OSM   H18S14695   1.538   5.103   4.615  1.7124 -0.0061 -1.4595
  135OSM   H18T14696   1.669   5.227   4.606  0.3499  0.8761 -0.1449
  135OSM   H18U14697   1.492   5.274   4.596  0.8423 -1.0732 -1.2648
  135OSM    C1F14698   1.678   4.935   6.203 -0.0501 -0.3219 -0.8049
  135OSM     OF14699   1.725   4.833   6.255 -0.1003 -0.3151 -0.1224
  135OSM    C2F14700   1.769   5.056   6.175 -0.8767 -0.2392  0.1573
  135OSM    H2F14701   1.869   5.026   6.214 -0.4978  1.7914  0.9217
  135OSM    H2G14702   1.734   5.150   6.224 -0.7842 -0.5778  0.8918
  135OSM    C3F14703   1.790   5.077   6.026  0.3836  0.0328 -0.4303
  135OSM    H3F14704   1.864   5.159   6.016 -0.5113  0.5617 -4.1464
  135OSM    H3G14705   1.695   5.109   5.979  0.9505  1.3372 -0.7464
  135OSM    C4F14706   1.868   4.966   5.956  0.0586  0.3024 -0.2843
  135OSM    H4F14707   1.944   5.006   5.886  2.1386  0.6111  2.0152
  135OSM    H4G14708   1.932   4.912   6.028  0.0733  1.6789  0.7617
  135OSM    C5F14709   1.774   4.868   5.884 -0.7142 -0.5234  0.5296
  135OSM    H5F14710   1.735   4.917   5.792  0.8901 -0.7189 -0.3060
  135OSM    H5G14711   1.691   4.831   5.947 -0.8745 -0.6442  0.2506
  135OSM    C6F14712   1.847   4.748   5.840 -0.2428  0.0572  0.2899
  135OSM    H6F14713   1.888   4.695   5.928 -1.5261 -3.4963 -1.0537
  135OSM    H6G14714   1.930   4.784   5.775  1.1004 -1.1073  1.3109
  135OSM    C7F14715   1.755   4.641   5.778 -0.6017 -0.1122  0.0498
  135OSM    H7F14716   1.718   4.697   5.689  0.0942 -0.5706 -0.5371
  135OSM    H7G14717   1.663   4.625   5.838 -1.1723  1.1784 -0.4420
  135OSM    C8F14718   1.826   4.517   5.731 -0.2914 -0.2958 -0.3954
  135OSM    H8F14719   1.858   4.472   5.827  0.4018  3.9515  1.6059
  135OSM    H8G14720   1.921   4.538   5.678  2.5444 -1.0377  3.8549
  135OSM    C9F14721   1.729   4.428   5.654 -0.8609 -0.8159 -0.9455
  135OSM    H9F14722   1.651   4.374   5.709 -0.8478  0.2575  0.1683
  135OSM   C10F14723   1.720   4.416   5.529  0.3591  0.1394 -0.0583
  135OSM   H10F14724   1.642   4.343   5.502 -0.3492 -0.2049  2.6248
  135OSM   C11F14725   1.808   4.471   5.413  0.3139 -0.0999 -0.3250
  135OSM   H11F14726   1.859   4.389   5.358  2.3060  0.6208  0.3515
  135OSM   H11G14727   1.891   4.522   5.466  0.4090 -1.1306  0.5723
  135OSM   C12F14728   1.720   4.541   5.312  0.5059 -0.1093  0.5006
  135OSM   H12F14729   1.664   4.629   5.350  0.5932  0.6784 -1.0961
  135OSM   H12G14730   1.651   4.480   5.251  0.8722  0.4889 -0.5448
  135OSM   C13F14731   1.812   4.592   5.196 -0.0492 -1.0854  0.2664
  135OSM   H13F14732   1.869   4.516   5.140  1.2895  0.7804 -1.0244
  135OSM   H13G14733   1.888   4.662   5.239  0.7162 -0.8645 -1.3661
  135OSM   C14F14734   1.731   4.675   5.099  0.1450 -0.0512 -1.0057
  135OSM   H14F14735   1.673   4.746   5.162  0.5271 -1.0803  0.5647
  135OSM   H14G14736   1.666   4.606   5.040  0.5983  0.5809 -2.2941
  135OSM   C15F14737   1.821   4.755   4.994  0.3261 -0.1747  0.1168
  135OSM   H15F14738   1.892   4.677   4.961 -0.3246 -0.8679  0.3164
  135OSM   H15G14739   1.888   4.825   5.048  2.5027 -1.7432 -0.4423
  135OSM   C16F14740   1.740   4.814   4.871 -0.7742 -0.3573 -0.0516
  135OSM   H16F14741   1.806   4.893   4.828  0.5499 -1.2384  0.3090
  135OSM   H16G14742   1.654   4.867   4.918 -0.4349 -0.3415  0.5717
  135OSM   C17F14743   1.703   4.715   4.760 -0.0883 -0.4529 -0.2520
  135OSM   H17F14744   1.790   4.646   4.755 -0.7129 -1.2929  0.1067
  135OSM   H17G14745   1.682   4.775   4.669  0.4382 -0.8788 -0.6571
  135OSM   C18F14746   1.571   4.634   4.788  0.7742 -0.3942  0.0149
  135OSM   H18F14747   1.501   4.710   4.828  1.1081 -1.0695  1.9600
  135OSM   H18G14748   1.591   4.544   4.850  3.6877  0.4560  0.4758
  135OSM   H18H14749   1.538   4.598   4.688 -2.2568  1.4739  0.2200
  136OSM      N14750   6.534   2.300   7.366  0.2641 -0.3022  0.0751
  136OSM    C1514751   6.509   2.159   7.322  0.2206 -0.7491  0.3006
  136OSM   H15A14752   6.405   2.131   7.330 -0.0530 -0.3155 -1.4173
  136OSM   H15B14753   6.575   2.097   7.381  0.5700  1.3084  2.2385
  136OSM   H15C14754   6.533   2.153   7.217 -0.1703 -0.8846  0.2153
  136OSM    C1414755   6.473   2.317   7.507  1.3547 -0.2693 -0.6088
  136OSM   H14A14756   6.493   2.410   7.558 -1.3435  0.3793 -0.5799
  136OSM   H14B14757   6.505   2.238   7.573  0.9751 -0.9462 -1.2164
  136OSM   H14C14758   6.365   2.319   7.497  1.3229 -1.0203 -0.5056
  136OSM    C1314759   6.680   2.318   7.375 -0.5853 -0.0707 -0.4297
  136OSM   H13A14760   6.707   2.287   7.275 -0.6600  0.4408 -0.6085
  136OSM   H13B14761   6.727   2.253   7.448 -0.4201 -0.4525 -0.8743
  136OSM   H13C14762   6.712   2.420   7.389 -1.1047  0.4771 -2.8070
  136OSM    C1214763   6.464   2.402   7.277  0.0835 -0.4044 -0.2965
  136OSM   H12A14764   6.451   2.494   7.333  3.1358 -1.4654  2.5109
  136OSM   H12B14765   6.372   2.353   7.249 -0.2473 -0.9784  1.6138
  136OSM    C1114766   6.534   2.429   7.140  0.0476  0.6359 -0.4300
  136OSM   H11A14767   6.633   2.478   7.154 -0.2281  0.5849  2.2639
  136OSM   H11B14768   6.474   2.505   7.086 -2.2405  1.0235  2.4265
  136OSM      P14769   6.445   2.271   6.955  0.4429  0.2845  0.0932
  136OSM    O1314770   6.477   2.136   6.913 -0.0599  0.2415  0.2175
  136OSM    O1414771   6.302   2.295   6.996  0.1028 -0.0860 -0.5307
  136OSM    O1114772   6.477   2.371   6.838 -0.0216 -0.3760 -0.2650
  136OSM    O1214773   6.555   2.310   7.061 -0.1749 -0.0617 -0.5358
  136OSM    C1S14774   6.599   2.388   6.780 -1.1665  0.0934  0.1289
  136OSM    H1S14775   6.660   2.298   6.803 -3.3531 -1.3495  0.5014
  136OSM    H1T14776   6.637   2.486   6.817  2.0014  0.0500 -2.4767
  136OSM     NF14777   6.724   2.397   6.565 -0.0930 -0.2113 -0.4873
  136OSM    HNF14778   6.737   2.478   6.508  1.0992 -0.5392 -0.7134
  136OSM    C2S14779   6.592   2.401   6.626  0.2373  0.2494  0.5118
  136OSM    H2S14780   6.549   2.303   6.594  0.9352  0.4582 -1.1644
  136OSM    C3S14781   6.497   2.510   6.572  0.6443 -0.1338  0.2430
  136OSM    H3S14782   6.544   2.610   6.567  0.1924  0.1590  1.4234
  136OSM     O314783   6.386   2.519   6.659 -0.5330  0.2794 -0.2521
  136OSM    HO314784   6.412   2.461   6.731 -1.0852 -0.0500 -0.3101
  136OSM    C4S14785   6.454   2.486   6.428  0.5077  0.3312  0.2193
  136OSM    H4S14786   6.517   2.528   6.348  1.5438 -0.7061  0.4616
  136OSM    C5S14787   6.360   2.399   6.386 -0.2812 -0.1933 -0.3084
  136OSM    H5S14788   6.295   2.351   6.461  1.1299 -0.9069  0.4877
  136OSM    C6S14789   6.312   2.388   6.243  0.1605  0.2142  0.3897
  136OSM    H6S14790   6.384   2.442   6.177  1.4867 -0.4257  1.2772
  136OSM    H6T14791   6.217   2.444   6.234 -0.1476 -0.4138 -0.3565
  136OSM    C7S14792   6.306   2.239   6.203  0.4027  0.1992  0.9322
  136OSM    H7S14793   6.228   2.189   6.264  2.1356 -1.4549  1.8989
  136OSM    H7T14794   6.397   2.180   6.227  0.0117 -0.3057  1.1867
  136OSM    C8S14795   6.280   2.230   6.051 -0.3188 -0.2017 -0.0291
  136OSM    H8S14796   6.368   2.278   6.003  0.1597 -0.2457  0.7706
  136OSM    H8T14797   6.198   2.304   6.038 -0.5959 -0.1308  1.8061
  136OSM    C9S14798   6.243   2.088   5.995 -0.0997 -0.3712  0.2206
  136OSM    H9S14799   6.149   2.047   6.039  1.1854 -1.7422  1.8207
  136OSM    H9T14800   6.324   2.016   6.022 -0.1201 -0.3150  0.4383
  136OSM   C10S14801   6.232   2.084   5.842  0.0430 -0.4141  0.4091
  136OSM   H10S14802   6.156   2.158   5.811  0.8698  0.2593 -0.0630
  136OSM   H10T14803   6.207   1.977   5.828 -0.1574 -0.4520  1.0168
  136OSM   C11S14804   6.353   2.138   5.759 -0.0666 -0.1449 -0.2067
  136OSM   H11S14805   6.443   2.076   5.777 -1.0183 -1.2270  0.9699
  136OSM   H11T14806   6.381   2.244   5.779 -0.4379 -0.1550  0.3969
  136OSM   C12S14807   6.313   2.113   5.615 -0.9338 -0.2889  0.0351
  136OSM   H12S14808   6.228   2.175   5.580 -0.6515 -0.2158 -0.5363
  136OSM   H12T14809   6.280   2.008   5.601  1.7766 -1.1940 -0.0574
  136OSM   C13S14810   6.439   2.128   5.523  0.1703  0.0210 -0.2004
  136OSM   H13S14811   6.515   2.054   5.554  0.0260 -0.7156 -1.5397
  136OSM   H13T14812   6.484   2.230   5.523  1.4206 -0.4968  1.2484
  136OSM   C14S14813   6.413   2.084   5.375 -0.4946  0.0039 -0.2042
  136OSM   H14S14814   6.336   2.004   5.379 -0.7598  0.2429 -0.5012
  136OSM   H14T14815   6.513   2.051   5.341  0.7283  1.5056  1.7535
  136OSM   C15S14816   6.365   2.183   5.272  0.5689 -0.9147  0.1834
  136OSM   H15S14817   6.444   2.249   5.230  0.1494  1.6781  3.1002
  136OSM   H15T14818   6.296   2.252   5.326  0.6376 -1.8217  1.4477
  136OSM   C16S14819   6.290   2.113   5.155  0.3712  0.4453 -0.5372
  136OSM   H16S14820   6.216   2.039   5.192  1.4744 -0.5182 -0.2335
  136OSM   H16T14821   6.369   2.051   5.109 -0.5546 -0.8296 -0.4755
  136OSM   C17S14822   6.236   2.210   5.056  0.5569  0.6304  0.0628
  136OSM   H17S14823   6.317   2.286   5.044  1.3050  0.1104  1.5021
  136OSM   H17T14824   6.144   2.257   5.095 -0.6388 -1.2658 -0.3369
  136OSM   C18S14825   6.207   2.142   4.924  0.3704  0.6426 -0.0356
  136OSM   H18S14826   6.159   2.041   4.924 -1.1502  1.3403 -0.3521
  136OSM   H18T14827   6.303   2.106   4.880 -0.7679 -0.2321 -1.9992
  136OSM   H18U14828   6.148   2.207   4.856 -0.5375 -2.1362 -2.1454
  136OSM    C1F14829   6.817   2.306   6.569 -0.2887  0.3283 -0.9070
  136OSM     OF14830   6.794   2.198   6.622  0.5383  0.3205 -0.3085
  136OSM    C2F14831   6.955   2.339   6.515 -0.3314 -0.5436 -0.6463
  136OSM    H2F14832   7.031   2.332   6.596  0.1584 -3.3206 -1.2502
  136OSM    H2G14833   6.952   2.447   6.487 -1.6586 -0.9856 -2.3411
  136OSM    C3F14834   7.000   2.268   6.386  0.7333  0.0890  0.1960
  136OSM    H3F14835   7.003   2.159   6.407  1.1779  0.4209  1.9888
  136OSM    H3G14836   7.101   2.306   6.358  1.0954 -2.1434 -1.8098
  136OSM    C4F14837   6.907   2.290   6.273 -0.0741 -0.6986 -0.1832
  136OSM    H4F14838   6.884   2.399   6.271 -0.9698 -0.8881 -1.5541
  136OSM    H4G14839   6.810   2.237   6.283 -0.5862  0.2788  0.2332
  136OSM    C5F14840   6.976   2.270   6.139 -0.3597  0.1629 -0.8284
  136OSM    H5F14841   6.999   2.161   6.132  2.6076  0.6222  0.2278
  136OSM    H5G14842   7.064   2.335   6.159  0.7065 -2.0045  2.4900
  136OSM    C6F14843   6.894   2.315   6.026  0.0977 -0.2119 -0.3020
  136OSM    H6F14844   6.949   2.281   5.936 -0.1242  1.5584 -1.1499
  136OSM    H6G14845   6.888   2.426   6.025  2.5669 -0.0155  0.4461
  136OSM    C7F14846   6.753   2.249   6.016 -0.1164  0.1852 -0.6797
  136OSM    H7F14847   6.692   2.262   6.109  1.2412 -0.2837  0.3122
  136OSM    H7G14848   6.764   2.138   6.010  0.3047  0.0960  1.0160
  136OSM    C8F14849   6.665   2.299   5.905 -0.2724 -0.0530  0.2597
  136OSM    H8F14850   6.655   2.410   5.910 -0.3497 -0.0174 -0.5595
  136OSM    H8G14851   6.562   2.264   5.927 -0.7210  1.1715  0.1758
  136OSM    C9F14852   6.714   2.250   5.776 -0.2564  1.0155 -0.2762
  136OSM    H9F14853   6.738   2.143   5.784 -0.8008  1.0285  2.0683
  136OSM   C10F14854   6.745   2.312   5.661 -0.0304 -0.2209  0.7083
  136OSM   H10F14855   6.773   2.253   5.573  0.5283  0.5289  0.3728
  136OSM   C11F14856   6.729   2.462   5.633  0.2407 -0.4516  0.6933
  136OSM   H11F14857   6.667   2.509   5.713  1.2774  0.0048  1.2388
  136OSM   H11G14858   6.679   2.481   5.536  0.5749  1.7371  0.8919
  136OSM   C12F14859   6.869   2.533   5.616  0.6264 -0.4126  0.2266
  136OSM   H12F14860   6.933   2.490   5.697  1.8220 -0.3282 -0.6517
  136OSM   H12G14861   6.882   2.643   5.616  0.1091 -0.3512 -0.6589
  136OSM   C13F14862   6.930   2.497   5.483  0.0698  0.2783  0.8911
  136OSM   H13F14863   6.945   2.387   5.476 -0.4037  0.3064 -1.0714
  136OSM   H13G14864   7.030   2.545   5.481 -0.4162  1.7840 -4.7830
  136OSM   C14F14865   6.865   2.551   5.356  0.4079  0.5608  0.9355
  136OSM   H14F14866   6.832   2.653   5.382 -1.3230 -0.5612  3.5974
  136OSM   H14G14867   6.770   2.498   5.331  0.1614 -0.1981  3.2599
  136OSM   C15F14868   6.970   2.531   5.237  0.1070 -0.3738 -1.0028
  136OSM   H15F14869   7.012   2.428   5.238 -1.1803 -0.9549 -2.5345
  136OSM   H15G14870   7.048   2.606   5.262 -2.1201  2.0692 -0.9573
  136OSM   C16F14871   6.904   2.562   5.100  0.4852  0.3823  0.0952
  136OSM   H16F14872   6.851   2.659   5.115 -0.7461 -0.5190  1.8678
  136OSM   H16G14873   6.833   2.482   5.070 -0.7889  0.2544  3.1079
  136OSM   C17F14874   6.997   2.596   4.985  0.2462 -0.0253  0.2507
  136OSM   H17F14875   7.059   2.509   4.955 -0.0294  0.4556 -1.8594
  136OSM   H17G14876   7.082   2.667   5.000  1.8089 -2.0026  1.1978
  136OSM   C18F14877   6.918   2.637   4.860 -0.0121 -0.3515  0.4670
  136OSM   H18F14878   6.866   2.552   4.811  1.1864  0.3311 -2.1294
  136OSM   H18G14879   6.993   2.677   4.789  1.3717 -1.5391  1.2117
  136OSM   H18H14880   6.839   2.713   4.882 -2.6237 -2.2459 -1.7095
  137OSM      N14881   1.814   5.033   6.660 -0.1846 -0.7777  0.5579
  137OSM    C1514882   1.873   4.927   6.570 -0.2690  0.2639 -0.0743
  137OSM   H15A14883   1.811   4.839   6.566  1.4088 -1.2084  2.9674
  137OSM   H15B14884   1.967   4.889   6.607  0.6346  0.1279 -2.3611
  137OSM   H15C14885   1.894   4.958   6.469  1.7496 -1.7840 -0.3701
  137OSM    C1414886   1.670   5.046   6.628  0.0730 -0.3912 -0.2504
  137OSM   H14A14887   1.630   4.946   6.619 -1.8954  0.4087 -1.1166
  137OSM   H14B14888   1.665   5.105   6.537  0.1335 -0.6628 -0.4309
  137OSM   H14C14889   1.605   5.087   6.704  0.7308  1.0092 -0.4072
  137OSM    C1314890   1.817   4.982   6.799  0.4561 -0.4428 -0.4385
  137OSM   H13A14891   1.763   4.888   6.799  1.3504 -0.9708  0.1509
  137OSM   H13B14892   1.774   5.034   6.883  1.8344 -0.8858  0.5730
  137OSM   H13C14893   1.918   4.966   6.832  1.3871  0.0094 -2.8606
  137OSM    C1214894   1.896   5.161   6.653  0.4696 -0.3740  0.8769
  137OSM   H12A14895   1.995   5.143   6.693  1.4244 -0.4665 -1.3838
  137OSM   H12B14896   1.838   5.224   6.719  0.1615 -0.7779  0.9931
  137OSM    C1114897   1.902   5.236   6.518 -0.1050 -0.0850  0.7331
  137OSM   H11A14898   1.962   5.174   6.448 -0.5902 -1.1245  1.2096
  137OSM   H11B14899   1.962   5.328   6.531  1.3210 -1.2249  2.8799
  137OSM      P14900   1.695   5.390   6.484 -0.0878  0.2650  0.1059
  137OSM    O1314901   1.554   5.355   6.446 -0.6665  0.0422  0.0942
  137OSM    O1414902   1.719   5.447   6.617  0.5786  0.1048  0.7098
  137OSM    O1114903   1.758   5.475   6.371 -0.5518  0.1150  0.4041
  137OSM    O1214904   1.775   5.251   6.469  0.6033 -0.6556 -0.0303
  137OSM    C1S14905   1.787   5.420   6.246  0.0341 -0.3890 -0.0307
  137OSM    H1S14906   1.697   5.386   6.189 -0.5784  1.8556 -0.4984
  137OSM    H1T14907   1.866   5.342   6.250 -0.4064 -0.8557 -0.3340
  137OSM     NF14908   1.906   5.465   6.026  0.2855 -0.2124 -0.4187
  137OSM    HNF14909   2.001   5.446   6.002 -0.3973 -0.3566 -3.4230
  137OSM    C2S14910   1.861   5.525   6.155  0.1679 -0.0375 -0.5414
  137OSM    H2S14911   1.792   5.609   6.133 -0.6805  0.0253  2.0610
  137OSM    C3S14912   1.978   5.584   6.238 -0.6632 -0.0921 -0.0145
  137OSM    H3S14913   2.036   5.502   6.287  1.2485  1.4686  0.4745
  137OSM     O314914   1.928   5.673   6.343 -0.2265 -0.9110 -0.0182
  137OSM    HO314915   1.836   5.644   6.343 -0.0331 -1.6740 -1.9428
  137OSM    C4S14916   2.053   5.683   6.148  0.0192  0.1713 -0.0448
  137OSM    H4S14917   2.016   5.787   6.143  0.3028  0.2483 -0.6965
  137OSM    C5S14918   2.170   5.655   6.083 -0.2456  0.3441  0.4368
  137OSM    H5S14919   2.213   5.554   6.093  2.0935  1.3070  0.7810
  137OSM    C6S14920   2.249   5.749   5.994 -0.3376 -0.2639 -0.4300
  137OSM    H6S14921   2.358   5.728   5.998 -0.0334  1.0518 -1.2259
  137OSM    H6T14922   2.241   5.858   6.013  1.9493 -0.0924 -0.1403
  137OSM    C7S14923   2.199   5.730   5.847 -0.2828 -0.5320  0.4231
  137OSM    H7S14924   2.094   5.767   5.841  0.0851  0.3355 -0.9705
  137OSM    H7T14925   2.194   5.621   5.822 -1.0431 -0.2339 -0.8069
  137OSM    C8S14926   2.291   5.798   5.746  0.5222  0.0732 -0.1394
  137OSM    H8S14927   2.387   5.742   5.737  1.0983  0.8377  1.0413
  137OSM    H8T14928   2.320   5.893   5.794 -2.6227  0.9586  0.2479
  137OSM    C9S14929   2.224   5.825   5.613 -0.2817  0.5054  0.0365
  137OSM    H9S14930   2.135   5.889   5.631  0.4330  1.1073  1.6700
  137OSM    H9T14931   2.190   5.728   5.571 -0.0663  0.4209  0.0575
  137OSM   C10S14932   2.316   5.900   5.520 -0.4008  0.2939  0.4196
  137OSM   H10S14933   2.412   5.847   5.503 -0.4773  0.2336  0.1668
  137OSM   H10T14934   2.340   5.997   5.567  1.1497  0.4445 -0.6165
  137OSM   C11S14935   2.262   5.914   5.375  0.7430  0.2832  0.4441
  137OSM   H11S14936   2.339   5.881   5.302 -1.3435  0.0317 -1.7692
  137OSM   H11T14937   2.241   6.020   5.349  2.6185  0.5215 -0.2487
  137OSM   C12S14938   2.139   5.835   5.334  0.7700  0.6546 -0.6856
  137OSM   H12S14939   2.052   5.856   5.400  0.8334  0.2818 -0.4819
  137OSM   H12T14940   2.148   5.725   5.345 -0.1346  0.7345  1.2072
  137OSM   C13S14941   2.084   5.869   5.190  0.1331 -0.2845 -0.0049
  137OSM   H13S14942   2.143   5.804   5.122 -0.4103 -0.3742 -0.3946
  137OSM   H13T14943   2.109   5.976   5.177  2.2710 -0.6319  0.6950
  137OSM   C14S14944   1.929   5.855   5.185  0.2561  0.0786  0.0487
  137OSM   H14S14945   1.884   5.928   5.256 -0.9398 -1.5927  1.0925
  137OSM   H14T14946   1.895   5.753   5.214  0.2283  0.2159  0.4957
  137OSM   C15S14947   1.880   5.908   5.049 -0.2988  0.9012  0.0824
  137OSM   H15S14948   1.932   5.857   4.965  0.1292  0.9128  0.3368
  137OSM   H15T14949   1.895   6.018   5.041 -0.2716  0.7422 -3.0875
  137OSM   C16S14950   1.724   5.906   5.049 -0.9141 -0.4042  0.2043
  137OSM   H16S14951   1.704   5.806   5.093  1.5351 -1.3815 -0.7238
  137OSM   H16T14952   1.686   5.880   4.948 -0.9198 -3.5607  0.9295
  137OSM   C17S14953   1.640   6.007   5.133 -0.1205  0.3016  0.3587
  137OSM   H17S14954   1.648   6.109   5.089 -1.0309 -0.8451 -2.7657
  137OSM   H17T14955   1.669   6.008   5.240 -1.9284  1.7981  0.9093
  137OSM   C18S14956   1.496   5.969   5.136 -0.0846  0.3250 -0.0124
  137OSM   H18S14957   1.464   5.955   5.030  2.4505 -0.9006 -0.6717
  137OSM   H18T14958   1.440   6.056   5.178  2.0418  1.5766  0.3544
  137OSM   H18U14959   1.482   5.876   5.195  2.1294 -1.1251 -1.6395
  137OSM    C1F14960   1.819   5.430   5.928 -0.0839 -0.5975 -0.3856
  137OSM     OF14961   1.702   5.463   5.937  0.0082  0.0618  0.3472
  137OSM    C2F14962   1.878   5.367   5.800 -0.2270  0.0233  0.7184
  137OSM    H2F14963   1.951   5.288   5.825  0.2544  0.4970  0.8394
  137OSM    H2G14964   1.911   5.463   5.753 -0.2961 -0.2747  0.0533
  137OSM    C3F14965   1.763   5.310   5.708  0.2912  0.4480 -0.2105
  137OSM    H3F14966   1.682   5.383   5.685 -1.3683 -1.2786 -0.1667
  137OSM    H3G14967   1.720   5.217   5.751  1.8465 -0.2995 -0.2268
  137OSM    C4F14968   1.829   5.252   5.587 -0.0063  0.2082  0.3110
  137OSM    H4F14969   1.905   5.180   5.625 -0.0970 -0.5409 -0.8748
  137OSM    H4G14970   1.888   5.328   5.532  0.0632  0.3143  0.5331
  137OSM    C5F14971   1.732   5.186   5.486 -0.5029  0.1206 -0.4612
  137OSM    H5F14972   1.665   5.259   5.436 -2.2519  0.5743  2.2737
  137OSM    H5G14973   1.660   5.133   5.553 -0.0158  1.5284  1.2686
  137OSM    C6F14974   1.801   5.080   5.402 -0.5928  0.9889  0.2323
  137OSM    H6F14975   1.839   5.005   5.475 -1.3777 -0.1894 -0.5348
  137OSM    H6G14976   1.879   5.124   5.337 -1.0614  1.8109  0.2193
  137OSM    C7F14977   1.701   5.002   5.316  0.5362  0.4956  0.4426
  137OSM    H7F14978   1.618   4.949   5.368  1.3203 -0.3988  0.8169
  137OSM    H7G14979   1.757   4.925   5.258  1.9533  2.3517 -0.7692
  137OSM    C8F14980   1.625   5.094   5.216  0.5716 -0.2668 -0.2855
  137OSM    H8F14981   1.543   5.137   5.277  1.7146 -0.6376  1.5785
  137OSM    H8G14982   1.569   5.032   5.143  0.0331 -0.4192  0.2521
  137OSM    C9F14983   1.706   5.201   5.137 -0.4920  0.2228  0.2580
  137OSM    H9F14984   1.802   5.165   5.097 -1.3928 -2.0377 -0.0223
  137OSM   C10F14985   1.688   5.335   5.127  0.6916  0.1199  0.2310
  137OSM   H10F14986   1.759   5.399   5.074  0.0415 -0.1845 -1.0629
  137OSM   C11F14987   1.560   5.407   5.181 -1.2236  0.0697 -0.5218
  137OSM   H11F14988   1.501   5.349   5.255 -1.8588  0.1352 -0.9734
  137OSM   H11G14989   1.503   5.440   5.092 -0.2775 -0.1869 -1.2432
  137OSM   C12F14990   1.589   5.548   5.258 -0.3034  0.0292  0.1852
  137OSM   H12F14991   1.487   5.560   5.300 -1.0421  1.6837 -1.8821
  137OSM   H12G14992   1.621   5.623   5.183 -0.3853 -0.2323 -0.1143
  137OSM   C13F14993   1.702   5.546   5.366  0.4141 -0.2158  0.1578
  137OSM   H13F14994   1.799   5.521   5.318  1.1314  0.3607  1.2668
  137OSM   H13G14995   1.687   5.466   5.442  0.3069 -0.2431  0.1087
  137OSM   C14F14996   1.717   5.673   5.441  0.4356  0.3135 -0.7852
  137OSM   H14F14997   1.617   5.689   5.486 -0.6003 -4.3766 -0.9242
  137OSM   H14G14998   1.740   5.762   5.378 -0.1597  0.0873 -1.3302
  137OSM   C15F14999   1.828   5.670   5.553  0.5720 -0.1423  0.2458
  137OSM   H15F15000   1.924   5.650   5.500 -0.2957  1.6887 -2.2169
  137OSM   H15G15001   1.800   5.595   5.629  2.0895 -1.7388 -0.6823
  137OSM   C16F15002   1.847   5.801   5.618  0.0757  0.1634 -0.3937
  137OSM   H16F15003   1.871   5.874   5.538  0.0633 -0.9430 -1.4363
  137OSM   H16G15004   1.934   5.793   5.686 -0.0127 -0.0989 -0.3121
  137OSM   C17F15005   1.729   5.839   5.700 -0.7083 -0.0885 -0.3451
  137OSM   H17F15006   1.701   5.743   5.749 -2.4416 -0.4893 -1.9660
  137OSM   H17G15007   1.639   5.860   5.638 -0.2547 -2.2386 -1.8794
  137OSM   C18F15008   1.764   5.946   5.805 -0.1410 -0.3160  0.1928
  137OSM   H18F15009   1.847   5.898   5.861 -0.2177 -0.6584  0.0140
  137OSM   H18G15010   1.675   5.963   5.870 -1.4139 -1.1586 -1.2624
  137OSM   H18H15011   1.798   6.040   5.757  2.6677 -1.1105  0.4590
  138OSM      N15012   2.977   5.383   7.114  0.1361  0.0165  0.0341
  138OSM    C1515013   3.043   5.472   7.213  0.2078  0.5760  0.1690
  138OSM   H15A15014   2.986   5.499   7.301 -0.7373  2.7330 -1.0346
  138OSM   H15B15015   3.068   5.571   7.178  0.5355  0.0572 -1.1378
  138OSM   H15C15016   3.141   5.432   7.232 -0.3086 -1.3236 -0.9703
  138OSM    C1415017   2.904   5.263   7.180 -0.4251  0.0730 -0.0456
  138OSM   H14A15018   2.982   5.196   7.211 -0.0842  1.0456  1.2997
  138OSM   H14B15019   2.840   5.216   7.106  1.7709 -0.1919 -1.8743
  138OSM   H14C15020   2.839   5.300   7.258 -0.7331  0.6615 -0.5662
  138OSM    C1315021   2.871   5.455   7.041 -0.0461 -0.4557  0.5175
  138OSM   H13A15022   2.896   5.554   7.007  0.9791 -1.6252 -2.4910
  138OSM   H13B15023   2.785   5.474   7.103 -0.1301  1.3070 -0.0733
  138OSM   H13C15024   2.845   5.405   6.949  0.4107  1.8326 -0.9212
  138OSM    C1215025   3.073   5.343   6.999  0.1888 -0.0928  0.0848
  138OSM   H12A15026   3.026   5.259   6.949 -0.0397 -1.0198  1.7639
  138OSM   H12B15027   3.157   5.299   7.051 -1.9885 -1.3603  2.8258
  138OSM    C1115028   3.111   5.438   6.887  0.1223 -0.2783  0.1910
  138OSM   H11A15029   3.027   5.490   6.837  1.1004  1.8256  0.6141
  138OSM   H11B15030   3.164   5.387   6.804  0.3774  0.7724 -0.3128
  138OSM      P15031   3.331   5.517   6.991  0.1545  0.5965  0.3641
  138OSM    O1315032   3.384   5.644   7.050 -0.1037  0.2787  0.0913
  138OSM    O1415033   3.331   5.395   7.076 -0.2875 -0.3077 -0.0582
  138OSM    O1115034   3.400   5.481   6.860 -0.6492  0.1769  0.6825
  138OSM    O1215035   3.187   5.546   6.943  0.3842 -0.0626  0.3857
  138OSM    C1S15036   3.480   5.578   6.786 -0.3619  0.2117 -0.1005
  138OSM    H1S15037   3.570   5.604   6.845  0.8957 -1.3884 -1.2324
  138OSM    H1T15038   3.427   5.675   6.769  0.0856  0.5381  0.3379
  138OSM     NF15039   3.634   5.590   6.585  0.2937  0.1339  0.0883
  138OSM    HNF15040   3.614   5.675   6.538 -1.3656 -0.6276 -0.6728
  138OSM    C2S15041   3.525   5.519   6.646  0.5342  0.0292  0.5129
  138OSM    H2S15042   3.553   5.413   6.665  0.4429  0.2336  1.8676
  138OSM    C3S15043   3.406   5.513   6.553 -0.3622 -0.0681 -0.5732
  138OSM    H3S15044   3.386   5.619   6.524  3.9546  0.4669 -2.3387
  138OSM     O315045   3.286   5.471   6.613 -0.4321  0.3154  0.0630
  138OSM    HO315046   3.319   5.461   6.702 -1.6949  1.4031  0.6915
  138OSM    C4S15047   3.427   5.439   6.426 -0.3741  0.4345  0.2411
  138OSM    H4S15048   3.427   5.502   6.337 -3.3446  0.0387 -0.1382
  138OSM    C5S15049   3.424   5.305   6.412 -0.2763 -1.4235  0.0922
  138OSM    H5S15050   3.404   5.247   6.504  1.1449 -0.8735  0.7738
  138OSM    C6S15051   3.418   5.240   6.271 -0.4208  0.0688 -0.3640
  138OSM    H6S15052   3.356   5.148   6.271  1.7805 -1.5084 -0.6318
  138OSM    H6T15053   3.517   5.199   6.243 -0.0389  1.5151 -1.2551
  138OSM    C7S15054   3.384   5.317   6.155  0.6658 -0.0122  0.8435
  138OSM    H7S15055   3.469   5.383   6.128  1.9730 -2.0067 -0.1925
  138OSM    H7T15056   3.301   5.379   6.195  2.1846  1.0610  2.4719
  138OSM    C8S15057   3.332   5.237   6.035  0.0418  0.0842 -0.0871
  138OSM    H8S15058   3.272   5.310   5.978 -0.2692  0.9808  1.3433
  138OSM    H8T15059   3.260   5.154   6.052  0.4258 -0.4111 -0.8264
  138OSM    C9S15060   3.439   5.171   5.942 -0.0198  0.1273 -0.9911
  138OSM    H9S15061   3.488   5.103   6.015 -1.7160 -0.2980 -0.1948
  138OSM    H9T15062   3.511   5.248   5.907  0.2320 -0.3165 -1.4593
  138OSM   C10S15063   3.391   5.083   5.828 -0.4142  0.8174 -0.5731
  138OSM   H10S15064   3.352   4.990   5.874 -2.0396  2.0888  0.7315
  138OSM   H10T15065   3.494   5.069   5.787 -0.7136  2.4335 -2.0214
  138OSM   C11S15066   3.306   5.135   5.716  0.2860 -0.4992  0.3723
  138OSM   H11S15067   3.322   5.244   5.708  0.4070 -0.2603  3.0508
  138OSM   H11T15068   3.198   5.117   5.735  0.2327 -1.0604 -0.4091
  138OSM   C12S15069   3.332   5.067   5.586 -0.0137  0.5651  0.1467
  138OSM   H12S15070   3.277   4.970   5.582 -3.8608  2.5820 -1.6446
  138OSM   H12T15071   3.439   5.056   5.557  0.0527  2.2945 -0.4085
  138OSM   C13S15072   3.267   5.144   5.468 -0.3012  0.1819  0.1308
  138OSM   H13S15073   3.325   5.234   5.439 -1.1261  0.6990  0.0348
  138OSM   H13T15074   3.163   5.177   5.493  0.1373 -0.6147  3.4922
  138OSM   C14S15075   3.249   5.054   5.344 -0.2656 -0.0143  0.2485
  138OSM   H14S15076   3.195   4.960   5.372  0.2281  0.2716  2.2952
  138OSM   H14T15077   3.355   5.031   5.321  0.6745  3.6576  0.3411
  138OSM   C15S15078   3.179   5.121   5.221  0.1303  0.4037 -0.3249
  138OSM   H15S15079   3.076   5.146   5.256  0.0146 -0.9195  0.3454
  138OSM   H15T15080   3.163   5.037   5.150  1.5603 -0.0445 -0.1355
  138OSM   C16S15081   3.248   5.240   5.160 -0.7722 -0.7167  0.1361
  138OSM   H16S15082   3.356   5.217   5.145 -1.1014 -2.1750 -0.1595
  138OSM   H16T15083   3.245   5.323   5.234  2.1740  0.4599 -0.9301
  138OSM   C17S15084   3.184   5.297   5.030  0.6447  0.0994 -0.2181
  138OSM   H17S15085   3.224   5.398   5.005 -0.3458  0.8264  1.0193
  138OSM   H17T15086   3.080   5.322   5.057  0.7973  1.1123 -0.5157
  138OSM   C18S15087   3.190   5.204   4.903  0.7350  0.0391  0.5452
  138OSM   H18S15088   3.144   5.103   4.909  1.3272 -0.1534  2.8798
  138OSM   H18T15089   3.295   5.196   4.868  0.1903 -0.8085 -0.9623
  138OSM   H18U15090   3.134   5.257   4.822  1.5112 -1.1647 -0.8149
  138OSM    C1F15091   3.755   5.592   6.642 -0.8887 -0.2331 -0.5801
  138OSM     OF15092   3.777   5.524   6.743  0.5538  0.1884  0.4617
  138OSM    C2F15093   3.856   5.694   6.590  0.7294 -0.2738 -0.4422
  138OSM    H2F15094   3.894   5.743   6.683  2.0220 -2.3777  0.2083
  138OSM    H2G15095   3.813   5.762   6.514  1.5093  0.2088 -0.4576
  138OSM    C3F15096   3.976   5.629   6.525 -0.0220 -0.0328 -0.4135
  138OSM    H3F15097   4.019   5.545   6.582 -1.6021 -1.2833 -0.9892
  138OSM    H3G15098   4.051   5.711   6.514 -0.3142  0.3995  0.6819
  138OSM    C4F15099   3.936   5.570   6.390 -0.5466  0.0746  0.2856
  138OSM    H4F15100   4.027   5.576   6.328  0.8771  1.3676  2.3941
  138OSM    H4G15101   3.849   5.624   6.346  0.5685  0.8095 -1.0986
  138OSM    C5F15102   3.909   5.417   6.405 -0.4743  0.7692  0.1138
  138OSM    H5F15103   3.805   5.412   6.444 -0.4679  2.2768  0.3860
  138OSM    H5G15104   3.976   5.364   6.476 -0.3567  1.3095  0.4196
  138OSM    C6F15105   3.921   5.333   6.278  0.9859  0.9890  0.4739
  138OSM    H6F15106   3.941   5.224   6.290  1.6465  0.7778 -1.9957
  138OSM    H6G15107   4.009   5.364   6.219  0.8281 -0.4118 -0.5685
  138OSM    C7F15108   3.794   5.379   6.198 -0.1447  0.2936  0.2133
  138OSM    H7F15109   3.817   5.484   6.173  3.3206  0.4141  3.0664
  138OSM    H7G15110   3.706   5.361   6.263  0.2677 -1.9723  0.2605
  138OSM    C8F15111   3.783   5.304   6.060  0.0286 -1.1308  0.1905
  138OSM    H8F15112   3.681   5.331   6.024  0.1116 -0.0595  0.7426
  138OSM    H8G15113   3.782   5.195   6.082  0.7678 -1.1980 -0.0972
  138OSM    C9F15114   3.884   5.337   5.957  0.1702 -0.3333  0.6443
  138OSM    H9F15115   3.972   5.271   5.957 -0.3467 -1.0466  1.7505
  138OSM   C10F15116   3.862   5.411   5.849  0.8555  0.3135  1.1050
  138OSM   H10F15117   3.945   5.430   5.779 -1.1245  2.7328 -0.7894
  138OSM   C11F15118   3.737   5.494   5.809 -0.3021  0.7636 -0.0973
  138OSM   H11F15119   3.779   5.593   5.782 -0.7354  0.8462 -0.4759
  138OSM   H11G15120   3.673   5.497   5.900 -0.0630 -0.4219  0.1368
  138OSM   C12F15121   3.664   5.433   5.691  0.2924  0.7452 -0.1256
  138OSM   H12F15122   3.582   5.502   5.664  0.3718  0.6344 -0.6516
  138OSM   H12G15123   3.609   5.342   5.722  1.2656  0.5216  1.0651
  138OSM   C13F15124   3.750   5.410   5.566  0.1296  0.8677  0.9944
  138OSM   H13F15125   3.825   5.329   5.584 -2.7962 -1.7923  2.1444
  138OSM   H13G15126   3.799   5.508   5.552 -1.6416  1.8772  1.5250
  138OSM   C14F15127   3.669   5.366   5.442  0.1133  0.1862 -0.2139
  138OSM   H14F15128   3.576   5.428   5.438  0.1089  0.1648 -0.4684
  138OSM   H14G15129   3.626   5.264   5.448 -0.5495  0.4548 -0.2393
  138OSM   C15F15130   3.733   5.400   5.304  0.0500  1.0629 -0.3740
  138OSM   H15F15131   3.805   5.317   5.284  0.8942  1.6260  0.2778
  138OSM   H15G15132   3.795   5.492   5.299 -0.5532  1.4213 -1.4918
  138OSM   C16F15133   3.627   5.402   5.199 -0.1369  0.3742 -0.3766
  138OSM   H16F15134   3.551   5.476   5.230 -0.1972 -0.3289  1.2507
  138OSM   H16G15135   3.565   5.310   5.195 -1.7022  1.3607  0.3260
  138OSM   C17F15136   3.675   5.431   5.053  0.3493  0.3054 -0.0841
  138OSM   H17F15137   3.730   5.338   5.027 -0.5312  0.1599 -1.5672
  138OSM   H17G15138   3.752   5.511   5.049  2.0594 -1.3095 -2.5834
  138OSM   C18F15139   3.565   5.428   4.946  0.2402  0.2464 -0.1653
  138OSM   H18F15140   3.599   5.418   4.840  0.0806  2.1818 -0.4287
  138OSM   H18G15141   3.510   5.522   4.965  1.0112  0.6619  0.0557
  138OSM   H18H15142   3.487   5.351   4.963  1.6186 -1.0733  0.4939
  139OSM      N15143   1.590   2.655   7.008  0.6602  0.2920  0.5036
  139OSM    C1515144   1.718   2.578   7.022  0.4172 -0.2746 -0.3831
  139OSM   H15A15145   1.703   2.473   7.004 -1.7627 -0.1126  0.2802
  139OSM   H15B15146   1.755   2.589   7.123 -1.7485 -2.1188  0.7068
  139OSM   H15C15147   1.788   2.616   6.949 -0.1943  0.5726 -0.5354
  139OSM    C1415148   1.494   2.618   7.119 -0.0068  0.1937 -0.1504
  139OSM   H14A15149   1.544   2.627   7.215 -1.3028  0.9816  0.4717
  139OSM   H14B15150   1.458   2.517   7.106 -1.1530  0.0246  3.3303
  139OSM   H14C15151   1.406   2.679   7.112  0.0516  0.1231 -1.7946
  139OSM    C1315152   1.608   2.806   7.015  0.5159  0.5207  0.3469
  139OSM   H13A15153   1.516   2.854   6.985  0.4275 -0.8358 -1.7862
  139OSM   H13B15154   1.688   2.829   6.947  2.1419 -0.0711  1.9814
  139OSM   H13C15155   1.628   2.817   7.120  1.4849 -2.8252  0.6315
  139OSM    C1215156   1.527   2.615   6.874 -0.1650  0.7130  0.2938
  139OSM   H12A15157   1.594   2.652   6.797  0.2966  2.0905  1.3109
  139OSM   H12B15158   1.438   2.672   6.853  0.0663  0.1858 -2.4606
  139OSM    C1115159   1.488   2.466   6.845  0.2159  0.5084  1.2966
  139OSM   H11A15160   1.577   2.408   6.879 -0.1518 -0.5848  0.4501
  139OSM   H11B15161   1.472   2.456   6.736  1.7774 -0.1751  1.0983
  139OSM      P15162   1.233   2.465   6.870  0.0572  0.3401  0.0197
  139OSM    O1315163   1.133   2.364   6.920 -0.2385  0.0626  0.1061
  139OSM    O1415164   1.200   2.603   6.913 -0.0826  0.3261  0.3832
  139OSM    O1115165   1.249   2.460   6.710 -0.3534  0.1136 -0.0403
  139OSM    O1215166   1.378   2.433   6.926 -0.3662  0.5677 -0.1556
  139OSM    C1S15167   1.139   2.412   6.632 -0.0618 -0.2672  0.1680
  139OSM    H1S15168   1.088   2.500   6.587 -1.0727 -1.3247 -0.8467
  139OSM    H1T15169   1.054   2.363   6.685  0.1807 -0.6357  0.2179
  139OSM     NF15170   1.073   2.287   6.428  0.2638  0.3588  0.0126
  139OSM    HNF15171   1.022   2.205   6.453 -1.4406  1.7345  1.3218
  139OSM    C2S15172   1.187   2.319   6.518  0.2347  0.3499  0.4894
  139OSM    H2S15173   1.254   2.381   6.455 -1.3030  0.4703 -1.1010
  139OSM    C3S15174   1.257   2.185   6.563  0.0909 -0.8175 -1.0223
  139OSM    H3S15175   1.193   2.128   6.634  2.6196 -1.2086  1.0849
  139OSM     O315176   1.375   2.224   6.628  0.0419  0.1976  0.0379
  139OSM    HO315177   1.360   2.318   6.639 -1.5021  0.0445 -0.5961
  139OSM    C4S15178   1.296   2.099   6.447  0.1724  0.8018  0.1837
  139OSM    H4S15179   1.395   2.115   6.400 -0.9237 -0.8964 -3.0411
  139OSM    C5S15180   1.227   1.991   6.406 -0.3264 -0.4218 -0.1507
  139OSM    H5S15181   1.132   1.969   6.456  0.2420 -1.7588  0.3886
  139OSM    C6S15182   1.272   1.892   6.308  0.3916 -0.0617 -0.0329
  139OSM    H6S15183   1.254   1.789   6.347 -0.0411 -0.6679 -1.7162
  139OSM    H6T15184   1.380   1.897   6.283  0.3410  3.6249 -0.0769
  139OSM    C7S15185   1.187   1.901   6.173  0.3241 -0.5458  0.7001
  139OSM    H7S15186   1.179   1.998   6.120 -0.7733 -1.7658 -1.4915
  139OSM    H7T15187   1.084   1.872   6.201 -0.3433  2.0681  1.2166
  139OSM    C8S15188   1.263   1.814   6.074 -0.4776 -0.4161 -0.1042
  139OSM    H8S15189   1.278   1.707   6.100  0.3285  0.0899  1.6593
  139OSM    H8T15190   1.364   1.858   6.086 -0.2769 -1.4414  2.6112
  139OSM    C9S15191   1.206   1.834   5.933 -0.1692  0.0011 -0.2103
  139OSM    H9S15192   1.241   1.753   5.866 -1.6405 -1.3655  0.6249
  139OSM    H9T15193   1.255   1.920   5.882 -1.1988 -0.7384 -2.5954
  139OSM   C10S15194   1.057   1.834   5.918  1.0039 -0.2593  0.3006
  139OSM   H10S15195   1.004   1.906   5.983 -0.9196 -0.1255 -1.3377
  139OSM   H10T15196   1.019   1.735   5.952 -1.4923  0.7380  0.5766
  139OSM   C11S15197   1.022   1.864   5.770 -0.3545  0.4887  0.5329
  139OSM   H11S15198   1.077   1.952   5.730  0.4760  0.0943  0.7771
  139OSM   H11T15199   0.917   1.898   5.763 -0.7596  0.0439  3.1973
  139OSM   C12S15200   1.055   1.748   5.663 -0.6484  0.0571  0.1712
  139OSM   H12S15201   0.984   1.666   5.687  1.5327 -1.8845  0.3315
  139OSM   H12T15202   1.156   1.705   5.682 -1.3720 -2.1979 -0.8092
  139OSM   C13S15203   1.048   1.799   5.518  1.4521  0.1428  0.1573
  139OSM   H13S15204   0.955   1.856   5.496 -0.8133 -3.7974 -1.3575
  139OSM   H13T15205   1.030   1.708   5.456 -0.8896 -0.4087  1.5584
  139OSM   C14S15206   1.165   1.887   5.459 -0.2656  0.1126  0.5759
  139OSM   H14S15207   1.258   1.827   5.471 -0.3542 -0.0657  0.3662
  139OSM   H14T15208   1.151   1.975   5.526 -2.7002 -0.9227  1.5371
  139OSM   C15S15209   1.154   1.925   5.309 -0.2780  0.0961  0.6781
  139OSM   H15S15210   1.245   1.984   5.284 -0.3424 -0.1520 -0.1752
  139OSM   H15T15211   1.061   1.986   5.302 -1.8137 -2.2396 -0.5690
  139OSM   C16S15212   1.124   1.813   5.200  0.2444 -0.1205  0.2720
  139OSM   H16S15213   1.046   1.743   5.236  3.3321 -4.3039 -0.3642
  139OSM   H16T15214   1.216   1.752   5.188  1.5126  1.4802  1.3417
  139OSM   C17S15215   1.069   1.870   5.071 -0.4631  0.1455  0.1464
  139OSM   H17S15216   1.002   1.955   5.094  1.7507  1.8733  0.4951
  139OSM   H17T15217   1.004   1.792   5.026  0.5541 -1.6489  1.6497
  139OSM   C18S15218   1.175   1.906   4.962 -0.0954 -0.1299  0.3810
  139OSM   H18S15219   1.274   1.866   4.992  1.7975  1.6996 -2.8389
  139OSM   H18T15220   1.185   2.016   4.953  1.8339 -0.2091  1.0295
  139OSM   H18U15221   1.159   1.852   4.866 -0.4269 -2.1393  1.5120
  139OSM    C1F15222   1.018   2.385   6.348 -1.0003  0.3350 -0.0455
  139OSM     OF15223   1.089   2.474   6.308 -0.1060 -0.2347  0.1050
  139OSM    C2F15224   0.878   2.365   6.319  0.1370 -0.2483 -0.3256
  139OSM    H2F15225   0.818   2.450   6.358  1.0880  1.2063 -1.8704
  139OSM    H2G15226   0.849   2.273   6.375  1.0794 -0.0295  0.5473
  139OSM    C3F15227   0.852   2.335   6.166  0.4820  0.5724 -0.3524
  139OSM    H3F15228   0.746   2.302   6.157  0.2992  1.0927 -0.1700
  139OSM    H3G15229   0.915   2.248   6.137 -1.5857 -0.8992 -0.6340
  139OSM    C4F15230   0.863   2.455   6.073  0.7968  0.2287  0.0406
  139OSM    H4F15231   0.963   2.504   6.072  1.4341 -1.0299 -0.4018
  139OSM    H4G15232   0.795   2.535   6.109  0.5176 -0.1197  0.3002
  139OSM    C5F15233   0.801   2.427   5.933 -0.0772  0.1604 -0.6396
  139OSM    H5F15234   0.701   2.381   5.947  0.0763  0.7410  3.8448
  139OSM    H5G15235   0.863   2.349   5.883 -0.2923 -1.1806  1.0706
  139OSM    C6F15236   0.777   2.561   5.858 -0.8594  0.4777  0.6318
  139OSM    H6F15237   0.875   2.612   5.850 -1.1277  0.8575 -0.4558
  139OSM    H6G15238   0.716   2.627   5.922 -0.5125  0.3612  1.0870
  139OSM    C7F15239   0.709   2.545   5.722 -0.2131 -0.6933 -0.7982
  139OSM    H7F15240   0.606   2.507   5.742  0.0924 -1.6038 -0.9121
  139OSM    H7G15241   0.765   2.457   5.684  0.1287 -0.7750 -0.1220
  139OSM    C8F15242   0.705   2.668   5.635 -0.2669  0.2442 -0.3806
  139OSM    H8F15243   0.668   2.755   5.694  0.1074  1.0497 -1.3100
  139OSM    H8G15244   0.627   2.661   5.557 -2.0518 -0.8836  1.4248
  139OSM    C9F15245   0.848   2.689   5.578 -0.3477 -0.3360  0.6627
  139OSM    H9F15246   0.925   2.633   5.633  1.4768  0.4504 -1.0027
  139OSM   C10F15247   0.891   2.783   5.489  0.0022 -1.3788 -0.6427
  139OSM   H10F15248   0.997   2.787   5.460 -0.2827 -1.3230 -1.7046
  139OSM   C11F15249   0.806   2.877   5.411 -0.2253  0.6912 -0.0502
  139OSM   H11F15250   0.848   2.979   5.398  4.0580 -0.7792  0.6750
  139OSM   H11G15251   0.709   2.897   5.462  0.6057  0.9333  1.5111
  139OSM   C12F15252   0.784   2.804   5.273 -0.8282 -0.6461 -0.1764
  139OSM   H12F15253   0.725   2.877   5.214 -2.9464  0.2851  2.8202
  139OSM   H12G15254   0.743   2.701   5.267 -1.3074 -0.4067 -1.1512
  139OSM   C13F15255   0.916   2.784   5.193  0.1881  0.1874  0.0439
  139OSM   H13F15256   0.975   2.708   5.247 -1.9681  0.5891  3.2797
  139OSM   H13G15257   0.964   2.884   5.191  1.3718 -0.3828 -1.0409
  139OSM   C14F15258   0.898   2.742   5.047  0.5946 -0.0314  0.2891
  139OSM   H14F15259   0.838   2.829   5.012 -0.8478 -0.3945  1.7295
  139OSM   H14G15260   0.842   2.647   5.040  0.3545  0.1559 -0.3319
  139OSM   C15F15261   1.034   2.740   4.970  0.0895 -0.8525 -0.2716
  139OSM   H15F15262   1.112   2.677   5.017  0.4831 -0.3086 -0.1936
  139OSM   H15G15263   1.080   2.841   4.970  0.6077 -1.0819  0.1823
  139OSM   C16F15264   1.020   2.698   4.824  0.1315 -0.0842  0.3324
  139OSM   H16F15265   0.961   2.604   4.817  0.9886 -0.7442  1.5964
  139OSM   H16G15266   1.121   2.693   4.779 -0.4435 -0.0763 -0.9922
  139OSM   C17F15267   0.942   2.795   4.737  0.4982  0.1001 -0.0651
  139OSM   H17F15268   0.969   2.901   4.755 -0.7598  0.7066 -1.5252
  139OSM   H17G15269   0.833   2.784   4.755  0.6678 -1.1571  0.3131
  139OSM   C18F15270   0.971   2.774   4.589  0.1711  0.0851 -0.4678
  139OSM   H18F15271   0.946   2.674   4.548  1.0407 -1.3575  2.2542
  139OSM   H18G15272   1.079   2.789   4.566  1.9525 -1.5211  5.2305
  139OSM   H18H15273   0.912   2.840   4.523 -0.6209 -0.5367 -0.4032
  140OSM      N15274   0.164   1.162   6.820 -0.5020 -0.1573  0.3962
  140OSM    C1515275   0.080   1.266   6.888 -0.5480 -0.0897  0.3905
  140OSM   H15A15276  -0.026   1.246   6.899  0.0305 -2.1072  3.5661
  140OSM   H15B15277   0.091   1.360   6.835 -1.4205  1.4524  2.8037
  140OSM   H15C15278   0.103   1.291   6.990 -1.9494 -0.0215  0.7025
  140OSM    C1415279   0.307   1.203   6.802  0.1347  1.0372  0.3623
  140OSM   H14A15280   0.359   1.226   6.894  2.3346 -0.5027 -0.3971
  140OSM   H14B15281   0.311   1.284   6.732  0.7393 -0.0078 -0.8525
  140OSM   H14C15282   0.357   1.120   6.755  0.5938  1.5667 -0.0924
  140OSM    C1315283   0.153   1.035   6.901 -0.2869 -0.2390 -0.1231
  140OSM   H13A15284   0.234   0.971   6.871 -0.7760 -1.1744  0.5284
  140OSM   H13B15285   0.055   0.990   6.897  0.0381 -1.0769  0.9195
  140OSM   H13C15286   0.174   1.058   7.004  2.3877 -1.0630 -0.4066
  140OSM    C1215287   0.116   1.136   6.674 -0.3643 -0.4148 -0.8760
  140OSM   H12A15288   0.116   1.227   6.617  0.3227  1.1118  1.4173
  140OSM   H12B15289   0.012   1.108   6.681 -0.9714  1.6556 -0.8990
  140OSM    C1115290   0.198   1.033   6.591 -1.0073 -0.4255  0.2053
  140OSM   H11A15291   0.304   1.059   6.575 -0.2971 -3.7417 -1.5605
  140OSM   H11B15292   0.154   1.038   6.489  2.0677 -1.4642 -1.2924
  140OSM      P15293   0.031   0.833   6.607 -0.3695 -0.5063  0.2225
  140OSM    O1315294   0.036   0.704   6.678 -0.2677 -0.5523 -0.3419
  140OSM    O1415295  -0.083   0.922   6.632  0.3715 -0.2376  0.4161
  140OSM    O1115296   0.042   0.812   6.448  0.3129 -0.1004 -0.1595
  140OSM    O1215297   0.174   0.897   6.634 -0.1369 -0.5329  0.0838
  140OSM    C1S15298   0.165   0.766   6.394 -0.3630  0.1378 -0.5886
  140OSM    H1S15299   0.181   0.661   6.425  0.1183  0.1645 -0.7360
  140OSM    H1T15300   0.254   0.818   6.437 -1.8360  2.9544 -0.6824
  140OSM     NF15301   0.305   0.712   6.199  0.2459  0.1817  0.1436
  140OSM    HNF15302   0.370   0.782   6.173 -1.0099  0.6270 -2.0183
  140OSM    C2S15303   0.182   0.778   6.239  0.6856 -0.9142 -0.2332
  140OSM    H2S15304   0.096   0.724   6.194 -0.6379  1.4160 -0.6641
  140OSM    C3S15305   0.168   0.931   6.196  0.4824 -0.1804 -0.1836
  140OSM    H3S15306   0.251   0.993   6.235 -0.5151  0.3603  1.1967
  140OSM     O315307   0.062   1.001   6.260  0.1299 -0.0850 -0.4970
  140OSM    HO315308   0.027   0.939   6.324 -1.7767  2.2009  0.8247
  140OSM    C4S15309   0.147   0.944   6.051 -0.0679 -0.2885  0.0245
  140OSM    H4S15310   0.044   0.919   6.024 -0.9985  1.4643  1.7135
  140OSM    C5S15311   0.240   0.980   5.959  0.0609 -0.1823 -0.3949
  140OSM    H5S15312   0.343   0.988   5.997 -0.8279 -2.9032  3.2683
  140OSM    C6S15313   0.235   0.982   5.809 -0.3233 -0.0573 -0.3297
  140OSM    H6S15314   0.280   0.884   5.783  3.5480  1.4003  0.2767
  140OSM    H6T15315   0.302   1.062   5.772 -0.2743 -0.8013 -1.9647
  140OSM    C7S15316   0.096   1.003   5.756 -0.1471 -0.6617 -1.1137
  140OSM    H7S15317   0.042   1.089   5.802  0.4923 -1.1886  0.6962
  140OSM    H7T15318   0.033   0.913   5.774  0.8099 -1.2894 -0.8479
  140OSM    C8S15319   0.091   1.016   5.600 -0.1070  0.1874  0.3470
  140OSM    H8S15320  -0.016   1.007   5.572  0.2826 -0.4900 -1.0000
  140OSM    H8T15321   0.152   0.937   5.551 -1.9523 -0.7466 -0.5185
  140OSM    C9S15322   0.135   1.156   5.558 -0.5292 -0.7861  0.2027
  140OSM    H9S15323   0.141   1.170   5.448  1.0005 -0.2423  0.3319
  140OSM    H9T15324   0.241   1.164   5.590 -1.4501  0.1000  3.4165
  140OSM   C10S15325   0.038   1.264   5.607 -0.1337 -0.6392  0.2163
  140OSM   H10S15326   0.051   1.283   5.716  0.0150  1.6456 -0.1564
  140OSM   H10T15327  -0.066   1.225   5.604  0.3850 -1.9815 -1.5610
  140OSM   C11S15328   0.041   1.393   5.530 -0.0798 -0.1492  0.0684
  140OSM   H11S15329  -0.014   1.476   5.580  1.0465  0.9313 -0.4260
  140OSM   H11T15330  -0.000   1.372   5.429 -0.3157 -0.1773  0.1695
  140OSM   C12S15331   0.187   1.454   5.499 -0.5611  0.6929 -0.1027
  140OSM   H12S15332   0.250   1.368   5.465 -2.6044 -1.8313  2.0294
  140OSM   H12T15333   0.224   1.489   5.598  0.9882  0.7956 -0.6803
  140OSM   C13S15334   0.187   1.562   5.395  0.1968  0.1329  0.0195
  140OSM   H13S15335   0.284   1.615   5.405 -0.1684  1.2840 -1.8883
  140OSM   H13T15336   0.107   1.634   5.421 -0.1267  0.1150 -0.8940
  140OSM   C14S15337   0.177   1.521   5.244  0.2519  0.4950 -0.6842
  140OSM   H14S15338   0.094   1.450   5.229  1.6867 -1.6450  0.9317
  140OSM   H14T15339   0.263   1.461   5.208 -1.2754 -2.1973 -0.0444
  140OSM   C15S15340   0.171   1.639   5.156  0.4144  0.6864  0.1492
  140OSM   H15S15341   0.226   1.720   5.208  0.8868 -1.2015  2.7729
  140OSM   H15T15342   0.062   1.662   5.152  0.3464  0.2218 -2.1700
  140OSM   C16S15343   0.225   1.623   5.015  1.0487 -0.2127  0.5963
  140OSM   H16S15344   0.191   1.533   4.960 -2.0072  1.2022 -0.0312
  140OSM   H16T15345   0.335   1.634   5.024  1.0557  0.5493 -0.1870
  140OSM   C17S15346   0.186   1.742   4.928  0.1702  0.5827 -0.2850
  140OSM   H17S15347   0.231   1.832   4.975 -4.7203  1.9992  2.4189
  140OSM   H17T15348   0.076   1.758   4.930 -0.1184 -1.2348  1.6455
  140OSM   C18S15349   0.231   1.736   4.782 -1.4296  0.6117  0.0049
  140OSM   H18S15350   0.215   1.640   4.728  0.4612  0.3587 -0.1564
  140OSM   H18T15351   0.341   1.747   4.777 -1.2397 -1.2018 -0.5297
  140OSM   H18U15352   0.184   1.818   4.723  0.0024  1.1469 -0.4357
  140OSM    C1F15353   0.337   0.582   6.217  0.5908 -0.3971 -0.2829
  140OSM     OF15354   0.256   0.498   6.244  0.0567  0.8263 -0.0171
  140OSM    C2F15355   0.480   0.554   6.212  0.0674  0.0566 -0.6116
  140OSM    H2F15356   0.491   0.528   6.319 -1.0709  3.1895  0.3975
  140OSM    H2G15357   0.533   0.652   6.213  0.3477 -0.0788 -1.3086
  140OSM    C3F15358   0.528   0.456   6.113 -0.1793 -0.7212 -0.0053
  140OSM    H3F15359   0.458   0.370   6.114 -0.3046 -0.6200  0.3748
  140OSM    H3G15360   0.630   0.431   6.149  0.5773 -2.4235 -3.0075
  140OSM    C4F15361   0.565   0.508   5.972 -0.1174 -0.0945  0.4012
  140OSM    H4F15362   0.623   0.427   5.922  2.2873 -0.4157  3.3880
  140OSM    H4G15363   0.625   0.601   5.986  0.4964 -0.4612  0.2404
  140OSM    C5F15364   0.444   0.541   5.885  0.6371  0.3149  0.1917
  140OSM    H5F15365   0.384   0.618   5.938  0.6053  0.7348 -0.4498
  140OSM    H5G15366   0.384   0.447   5.880  2.0553 -0.7252  1.5822
  140OSM    C6F15367   0.464   0.584   5.738  0.0599 -0.5585  0.8703
  140OSM    H6F15368   0.552   0.536   5.690 -0.4322 -0.7217  0.0971
  140OSM    H6G15369   0.478   0.694   5.739 -0.2628 -0.3172 -3.0576
  140OSM    C7F15370   0.353   0.540   5.649 -0.3372 -0.1630  0.0803
  140OSM    H7F15371   0.250   0.567   5.681 -0.3403  0.1058 -0.1522
  140OSM    H7G15372   0.366   0.430   5.655 -1.1735 -0.1961  1.7093
  140OSM    C8F15373   0.371   0.582   5.499 -0.3978  0.8184  0.1172
  140OSM    H8F15374   0.298   0.522   5.440 -2.5028 -0.3872  3.6103
  140OSM    H8G15375   0.462   0.550   5.446  0.2467 -0.1947  1.7608
  140OSM    C9F15376   0.351   0.730   5.485  0.0908  0.1163  0.6966
  140OSM    H9F15377   0.401   0.804   5.549 -2.4976  2.1235  0.5688
  140OSM   C10F15378   0.272   0.785   5.383 -1.1772  0.0643 -0.3503
  140OSM   H10F15379   0.252   0.893   5.384  0.5783  0.4142 -0.1746
  140OSM   C11F15380   0.197   0.706   5.279  0.0592 -0.0064 -0.4601
  140OSM   H11F15381   0.097   0.675   5.314 -1.1486  1.7674 -2.0739
  140OSM   H11G15382   0.257   0.619   5.246  0.2130 -0.6422  1.4150
  140OSM   C12F15383   0.165   0.791   5.152 -0.0006  0.0124  0.1170
  140OSM   H12F15384   0.127   0.893   5.173 -0.7003  0.3625 -2.5172
  140OSM   H12G15385   0.091   0.739   5.087  0.3895  0.2940 -0.5614
  140OSM   C13F15386   0.295   0.812   5.072 -0.4746  0.0232  1.1197
  140OSM   H13F15387   0.330   0.708   5.059  0.1762  0.5118 -1.7031
  140OSM   H13G15388   0.370   0.862   5.138  0.4033  1.0412 -0.5668
  140OSM   C14F15389   0.284   0.892   4.935  0.6499  0.2585  0.5436
  140OSM   H14F15390   0.258   0.999   4.951  1.3116  0.1413  2.7356
  140OSM   H14G15391   0.210   0.830   4.880  2.6090 -1.0007 -0.7995
  140OSM   C15F15392   0.415   0.895   4.852  0.3655 -0.0970  0.4566
  140OSM   H15F15393   0.449   0.791   4.831 -2.1754 -1.4257  2.3435
  140OSM   H15G15394   0.496   0.942   4.913  0.2790  1.3932 -0.5386
  140OSM   C16F15395   0.397   0.978   4.715  0.2529  1.0973 -0.2133
  140OSM   H16F15396   0.404   1.084   4.746 -0.6247  1.4340 -1.1396
  140OSM   H16G15397   0.293   0.952   4.685 -0.9431  3.2154  1.8384
  140OSM   C17F15398   0.503   0.943   4.608  0.1316 -0.2867 -0.3514
  140OSM   H17F15399   0.468   0.989   4.513  1.4181  0.7402 -0.3537
  140OSM   H17G15400   0.501   0.833   4.592  1.9753 -0.2707 -0.8750
  140OSM   C18F15401   0.648   1.003   4.639  0.0438 -0.1206 -0.3406
  140OSM   H18F15402   0.641   1.106   4.680 -1.6970 -0.2360 -0.2602
  140OSM   H18G15403   0.707   1.016   4.545  0.6100  4.8065  0.4041
  140OSM   H18H15404   0.692   0.944   4.722  0.5063  1.6243  0.7031
  141OSM      N15405   6.041   6.443   6.799 -0.5531  0.9357 -0.3365
  141OSM    C1515406   6.088   6.378   6.669  0.0851 -0.2134 -0.1832
  141OSM   H15A15407   6.024   6.297   6.636 -0.7435 -0.2287  1.3609
  141OSM   H15B15408   6.186   6.337   6.690  1.2616  3.2373  1.8769
  141OSM   H15C15409   6.113   6.444   6.588  1.6212  0.6760  0.9622
  141OSM    C1415410   6.008   6.327   6.884 -0.2346 -0.4390  0.1882
  141OSM   H14A15411   5.991   6.362   6.985 -0.9895  0.9616 -0.3824
  141OSM   H14B15412   6.089   6.256   6.887 -1.1512 -1.7686 -2.9117
  141OSM   H14C15413   5.927   6.270   6.842 -0.7543 -0.5168  1.2694
  141OSM    C1315414   6.159   6.524   6.856  1.0852  0.5892  0.1585
  141OSM   H13A15415   6.177   6.598   6.779 -1.1078  1.2937  0.2396
  141OSM   H13B15416   6.250   6.468   6.854  0.4339 -0.8063  3.3649
  141OSM   H13C15417   6.156   6.567   6.955  1.6260 -0.2045  0.5216
  141OSM    C1215418   5.924   6.532   6.778  0.4436  0.0204 -0.1195
  141OSM   H12A15419   5.923   6.610   6.853 -1.3069  0.2784 -0.3754
  141OSM   H12B15420   5.833   6.476   6.794 -0.3570  1.1102 -0.7679
  141OSM    C1115421   5.906   6.602   6.638 -0.2447  0.4702 -0.8466
  141OSM   H11A15422   5.806   6.651   6.640  0.0676  1.0912 -0.1481
  141OSM   H11B15423   5.919   6.527   6.557 -1.1258 -0.0923 -0.4876
  141OSM      P15424   6.016   6.841   6.649  0.3347  0.0366 -0.0230
  141OSM    O1315425   5.946   6.864   6.780 -0.0158  0.3850  0.1058
  141OSM    O1415426   6.150   6.895   6.629  0.3102  0.2021 -0.5198
  141OSM    O1115427   5.929   6.894   6.537 -0.3037  0.3096 -0.2510
  141OSM    O1215428   6.019   6.693   6.621  0.4739 -0.0073 -0.5109
  141OSM    C1S15429   5.850   7.011   6.542 -1.2727 -0.1660 -0.0832
  141OSM    H1S15430   5.916   7.090   6.585 -1.4766  0.4781 -0.9163
  141OSM    H1T15431   5.766   7.000   6.613 -2.5593 -0.2297 -1.5599
  141OSM     NF15432   5.738   7.172   6.400  0.2589  0.0023 -0.2017
  141OSM    HNF15433   5.641   7.197   6.394  1.0127  4.4082  1.8880
  141OSM    C2S15434   5.792   7.039   6.402 -0.3523 -0.3528  0.0410
  141OSM    H2S15435   5.879   7.028   6.335 -0.0675 -0.9685  0.4999
  141OSM    C3S15436   5.686   6.932   6.356  0.9793  0.2574  0.2036
  141OSM    H3S15437   5.609   6.937   6.435  1.7804  0.5910  0.9765
  141OSM     O315438   5.739   6.802   6.383  0.5173  0.1556 -0.1008
  141OSM    HO315439   5.815   6.814   6.439  0.3546 -0.5828  0.2904
  141OSM    C4S15440   5.633   6.943   6.216  0.7373 -0.3427 -0.0352
  141OSM    H4S15441   5.537   6.995   6.205 -0.9282 -3.5818 -2.1590
  141OSM    C5S15442   5.683   6.890   6.101  0.0985 -0.9417 -0.4624
  141OSM    H5S15443   5.768   6.821   6.107  1.9873  1.2422 -0.5619
  141OSM    C6S15444   5.619   6.913   5.966  0.3927  0.1635 -0.5754
  141OSM    H6S15445   5.521   6.861   5.967  0.1499  0.5501  1.6980
  141OSM    H6T15446   5.682   6.873   5.884  0.8434 -0.8850  0.2620
  141OSM    C7S15447   5.591   7.060   5.936  0.3024  0.3774 -0.8605
  141OSM    H7S15448   5.679   7.126   5.950  0.3928  0.0599  0.1656
  141OSM    H7T15449   5.524   7.100   6.015  2.0059  4.1099 -1.0986
  141OSM    C8S15450   5.529   7.089   5.797  0.5326  0.7527  0.3175
  141OSM    H8S15451   5.423   7.057   5.800  1.3669 -2.2841  0.0874
  141OSM    H8T15452   5.578   7.031   5.716  0.2301  1.3028 -0.2717
  141OSM    C9S15453   5.542   7.233   5.751 -0.7797 -0.0380  0.6256
  141OSM    H9S15454   5.647   7.248   5.718 -0.4236  0.8302  2.0851
  141OSM    H9T15455   5.527   7.293   5.843  0.0069 -0.4697  1.0488
  141OSM   C10S15456   5.445   7.275   5.637 -0.0864 -0.1044 -0.1526
  141OSM   H10S15457   5.447   7.386   5.639 -3.1092  0.0139  1.0505
  141OSM   H10T15458   5.342   7.253   5.671 -0.5044  0.1200 -1.2311
  141OSM   C11S15459   5.483   7.220   5.498  0.1680  0.1467  0.0059
  141OSM   H11S15460   5.543   7.130   5.523 -0.3226 -0.6454 -1.5344
  141OSM   H11T15461   5.551   7.295   5.452  1.3150  0.7910  2.5570
  141OSM   C12S15462   5.360   7.195   5.403 -0.3026  0.2473 -0.0696
  141OSM   H12S15463   5.286   7.274   5.426 -0.2458  0.6993 -1.3244
  141OSM   H12T15464   5.315   7.098   5.432  0.5607 -0.6126 -1.4768
  141OSM   C13S15465   5.393   7.177   5.250 -0.4560  0.0754  0.8198
  141OSM   H13S15466   5.295   7.139   5.211  0.1444  0.1708 -0.8350
  141OSM   H13T15467   5.474   7.101   5.248 -0.6680 -0.1452  0.1815
  141OSM   C14S15468   5.435   7.304   5.172  1.0094  0.5449 -0.1000
  141OSM   H14S15469   5.540   7.325   5.200  0.6676  1.2378  0.6781
  141OSM   H14T15470   5.376   7.384   5.221  2.2625  0.2291  2.0149
  141OSM   C15S15471   5.410   7.303   5.022  0.0200  0.3244 -0.1312
  141OSM   H15S15472   5.443   7.400   4.980 -0.6883  0.2620 -0.8674
  141OSM   H15T15473   5.302   7.289   4.997 -0.5027  1.5091  1.3659
  141OSM   C16S15474   5.480   7.187   4.950  0.2133  0.0782 -0.5120
  141OSM   H16S15475   5.424   7.096   4.979 -1.3708  1.3250  0.5685
  141OSM   H16T15476   5.588   7.183   4.976  0.5315  2.1657 -1.3117
  141OSM   C17S15477   5.469   7.208   4.797  0.4109  0.0967 -0.6655
  141OSM   H17S15478   5.526   7.120   4.759  1.2186 -0.9916  2.6830
  141OSM   H17T15479   5.530   7.299   4.781 -0.5711  1.0752  0.9205
  141OSM   C18S15480   5.327   7.218   4.745 -0.3346 -0.0705  0.6137
  141OSM   H18S15481   5.298   7.323   4.763 -1.5932 -0.4319  0.7830
  141OSM   H18T15482   5.252   7.152   4.794  0.2996 -1.1298  0.1972
  141OSM   H18U15483   5.321   7.195   4.637 -0.8366  3.7978 -0.3276
  141OSM    C1F15484   5.829   7.280   6.395  0.4120 -0.2905 -0.4701
  141OSM     OF15485   5.951   7.268   6.429  0.3044 -0.7185  0.0380
  141OSM    C2F15486   5.773   7.412   6.351  0.0059  0.1820 -0.7545
  141OSM    H2F15487   5.784   7.487   6.431 -0.7723  0.8547 -1.2549
  141OSM    H2G15488   5.663   7.413   6.332 -0.0844  1.8389 -0.2361
  141OSM    C3F15489   5.836   7.469   6.228 -1.0542  0.7195  0.0710
  141OSM    H3F15490   5.945   7.482   6.247 -1.2423  3.3360 -0.2408
  141OSM    H3G15491   5.804   7.570   6.196 -1.7024 -0.2765 -2.6402
  141OSM    C4F15492   5.831   7.385   6.099 -0.3823  0.6595 -0.3353
  141OSM    H4F15493   5.721   7.388   6.081 -0.5899  0.3291  0.7651
  141OSM    H4G15494   5.854   7.280   6.130 -0.9775  0.5914 -0.1064
  141OSM    C5F15495   5.929   7.431   5.994  0.6527  0.0858  0.0023
  141OSM    H5F15496   6.024   7.445   6.049  0.4428 -2.2462  1.0366
  141OSM    H5G15497   5.891   7.531   5.962  0.9644  0.0715 -0.4197
  141OSM    C6F15498   5.955   7.332   5.878 -0.6009 -0.0540  0.1347
  141OSM    H6F15499   5.862   7.292   5.831  1.0291 -1.3224 -2.1795
  141OSM    H6G15500   6.013   7.243   5.909  1.9472  1.9894  1.5946
  141OSM    C7F15501   6.047   7.393   5.767  0.5451  0.0328 -0.5400
  141OSM    H7F15502   6.149   7.404   5.809  0.6957 -1.7839 -0.3618
  141OSM    H7G15503   6.015   7.497   5.747 -0.0461  0.4516  2.1379
  141OSM    C8F15504   6.059   7.302   5.638 -0.4280  0.0703 -0.6271
  141OSM    H8F15505   6.126   7.214   5.650  0.0703  0.5208 -0.0015
  141OSM    H8G15506   6.105   7.354   5.551  0.8662 -1.0850 -0.6624
  141OSM    C9F15507   5.920   7.265   5.587  0.1487  0.0434  0.8287
  141OSM    H9F15508   5.856   7.205   5.653 -1.3351  1.1015  0.4159
  141OSM   C10F15509   5.866   7.296   5.460  0.3750  0.1797 -0.2368
  141OSM   H10F15510   5.766   7.263   5.427  1.2268  0.3886 -3.3265
  141OSM   C11F15511   5.935   7.365   5.350 -1.2498  0.5811  0.1396
  141OSM   H11F15512   6.007   7.439   5.390 -0.0129  0.3802 -1.6038
  141OSM   H11G15513   5.862   7.423   5.289 -3.0947  0.7829  2.4053
  141OSM   C12F15514   6.022   7.276   5.253 -0.1398  0.0538  0.0182
  141OSM   H12F15515   6.073   7.189   5.300  1.5771  0.3448 -1.2005
  141OSM   H12G15516   6.100   7.339   5.204  0.4289 -0.7404 -0.1275
  141OSM   C13F15517   5.924   7.214   5.150 -0.7477 -0.7928  0.2288
  141OSM   H13F15518   5.872   7.296   5.096 -1.4331 -1.4618 -0.1440
  141OSM   H13G15519   5.847   7.152   5.200 -0.0841 -0.0755  2.2482
  141OSM   C14F15520   6.004   7.137   5.046  0.5550 -0.0804  0.0571
  141OSM   H14F15521   6.050   7.051   5.099 -0.9257  0.0121  1.5839
  141OSM   H14G15522   6.087   7.197   5.003 -0.0704  0.1306 -0.8847
  141OSM   C15F15523   5.921   7.077   4.936  0.0978  0.4896  0.3976
  141OSM   H15F15524   5.873   7.166   4.890  1.1650  1.7619  1.6834
  141OSM   H15G15525   5.847   7.006   4.979  1.1978 -1.8717 -1.3517
  141OSM   C16F15526   5.999   6.992   4.834  0.2379  0.3004  0.1311
  141OSM   H16F15527   6.069   6.927   4.891  0.4908  1.1355  0.8013
  141OSM   H16G15528   6.061   7.065   4.777 -1.2751  2.0915  0.6480
  141OSM   C17F15529   5.910   6.907   4.742  0.2683 -0.1819 -0.0659
  141OSM   H17F15530   5.844   6.842   4.802  1.6562  0.3747  2.1742
  141OSM   H17G15531   5.974   6.841   4.680 -0.0112 -0.2359 -0.2980
  141OSM   C18F15532   5.835   6.993   4.641  0.6368 -0.3594 -0.2592
  141OSM   H18F15533   5.911   7.057   4.591  0.5828 -1.5172 -1.9361
  141OSM   H18G15534   5.761   7.065   4.681  1.0062 -0.8373  1.3298
  141OSM   H18H15535   5.796   6.929   4.559  0.0373  0.5629 -0.7061
  142OSM      N15536   6.715   0.304   6.768  0.3316 -1.0422  0.1181
  142OSM    C1515537   6.730   0.373   6.635  0.0277  0.5310  0.0577
  142OSM   H15A15538   6.738   0.295   6.560  2.3735 -0.2486  1.0407
  142OSM   H15B15539   6.809   0.445   6.624 -0.6270  1.1002 -1.1311
  142OSM   H15C15540   6.636   0.423   6.614 -1.2976 -1.8873 -0.1631
  142OSM    C1415541   6.683   0.397   6.877  0.0546 -0.0537 -0.0018
  142OSM   H14A15542   6.588   0.448   6.870 -0.0358 -0.3178 -0.7584
  142OSM   H14B15543   6.765   0.466   6.893  1.8699 -1.6575 -1.8648
  142OSM   H14C15544   6.666   0.340   6.967  3.0719 -1.2755 -0.0650
  142OSM    C1315545   6.608   0.199   6.743 -0.3155  0.6566 -0.7969
  142OSM   H13A15546   6.507   0.235   6.735 -0.2534  1.6053  1.7585
  142OSM   H13B15547   6.620   0.133   6.827  1.5616 -0.0737 -1.5734
  142OSM   H13C15548   6.645   0.150   6.654  2.0921  1.1905 -0.1640
  142OSM    C1215549   6.850   0.238   6.801  0.2363  0.0988  0.4615
  142OSM   H12A15550   6.929   0.310   6.820  0.8664 -1.0104  2.3501
  142OSM   H12B15551   6.886   0.165   6.730  0.6267 -0.0529  0.8094
  142OSM    C1115552   6.859   0.160   6.934 -0.3679  0.1762 -0.9553
  142OSM   H11A15553   6.817   0.229   7.009 -4.2860 -2.6294 -0.2495
  142OSM   H11B15554   6.965   0.137   6.957 -0.6531 -0.7737 -0.5473
  142OSM      P15555   6.810  -0.093   6.874 -0.2295 -0.2291 -0.4029
  142OSM    O1315556   6.926  -0.148   6.938 -0.8738  0.5776 -1.0186
  142OSM    O1415557   6.691  -0.183   6.871  0.6418  0.4785 -0.7076
  142OSM    O1115558   6.850  -0.057   6.728  0.5318  0.5842 -0.3938
  142OSM    O1215559   6.767   0.049   6.939  0.2037 -0.0140 -1.1203
  142OSM    C1S15560   6.833  -0.162   6.630  0.3546 -0.3633 -0.1778
  142OSM    H1S15561   6.726  -0.188   6.618  0.5695 -0.3301 -2.5541
  142OSM    H1T15562   6.898  -0.250   6.651  1.9459  0.5298 -1.1550
  142OSM     NF15563   6.853  -0.170   6.376 -0.2188  0.3426 -0.3018
  142OSM    HNF15564   6.937  -0.200   6.332  0.3877  2.8220 -0.9567
  142OSM    C2S15565   6.878  -0.090   6.495 -0.2650 -0.9849 -0.3283
  142OSM    H2S15566   6.812  -0.002   6.482  0.3640 -0.0508  2.2914
  142OSM    C3S15567   7.023  -0.033   6.498 -0.4745 -0.1295  0.0641
  142OSM    H3S15568   7.095  -0.116   6.511  1.2723  1.2339 -0.3711
  142OSM     O315569   7.053   0.055   6.604  0.1318 -0.3705 -0.2756
  142OSM    HO315570   6.981   0.038   6.666  0.7074 -1.4421  0.1204
  142OSM    C4S15571   7.047   0.048   6.371 -0.1854 -0.3144 -0.2890
  142OSM    H4S15572   6.961   0.109   6.339  0.8600  1.2256 -0.2738
  142OSM    C5S15573   7.154   0.040   6.292  0.1580  0.2236 -0.2153
  142OSM    H5S15574   7.220  -0.045   6.316 -2.2728 -0.8891  3.2059
  142OSM    C6S15575   7.193   0.113   6.169  0.1736 -0.1110 -0.1881
  142OSM    H6S15576   7.293   0.161   6.176  0.3538 -0.5514  0.2807
  142OSM    H6T15577   7.114   0.190   6.158 -2.2033 -2.2825  0.5260
  142OSM    C7S15578   7.172   0.029   6.036 -0.1798  0.4041 -0.0624
  142OSM    H7S15579   7.090  -0.046   6.046  0.1379 -0.0769 -0.9131
  142OSM    H7T15580   7.261  -0.029   6.004  0.4135  1.4568 -0.3465
  142OSM    C8S15581   7.138   0.126   5.919 -0.3213 -0.3323  0.0035
  142OSM    H8S15582   7.214   0.207   5.914 -1.1838  0.4079 -2.4008
  142OSM    H8T15583   7.050   0.189   5.945  0.6783  1.3535 -0.5611
  142OSM    C9S15584   7.111   0.057   5.791  1.1829 -0.3481  0.2715
  142OSM    H9S15585   7.015   0.004   5.813  1.1311 -0.0581  0.7575
  142OSM    H9T15586   7.189  -0.022   5.784  0.1045 -1.5537  1.2604
  142OSM   C10S15587   7.118   0.163   5.682 -0.1142  0.5502 -0.1055
  142OSM   H10S15588   7.209   0.221   5.709  0.5077  1.2227 -3.2260
  142OSM   H10T15589   7.031   0.231   5.680  1.0031  2.1379  1.8607
  142OSM   C11S15590   7.131   0.106   5.538  0.1151  0.6530 -0.7382
  142OSM   H11S15591   7.057   0.024   5.522  2.3018 -1.7439  0.6377
  142OSM   H11T15592   7.233   0.063   5.545  0.0832  0.3469 -1.9415
  142OSM   C12S15593   7.132   0.213   5.437  0.3084 -0.5933  0.1474
  142OSM   H12S15594   7.221   0.273   5.464  1.7028 -2.6261  0.3262
  142OSM   H12T15595   7.041   0.274   5.453  0.0041 -0.9491 -0.2027
  142OSM   C13S15596   7.133   0.154   5.302  0.1757  0.5153  0.0521
  142OSM   H13S15597   7.038   0.106   5.270 -0.2241  1.3734 -0.0683
  142OSM   H13T15598   7.206   0.070   5.299 -0.0076  0.2524  1.6827
  142OSM   C14S15599   7.156   0.272   5.205  0.4192 -0.6598 -0.0571
  142OSM   H14S15600   7.229   0.341   5.253  0.5432 -0.9734  0.2040
  142OSM   H14T15601   7.060   0.325   5.185  0.8431  1.2142  2.4147
  142OSM   C15S15602   7.228   0.231   5.071  0.2602  0.2041  0.1223
  142OSM   H15S15603   7.167   0.155   5.017 -0.2810  0.6783  0.0605
  142OSM   H15T15604   7.319   0.173   5.098  0.8101  1.4647  1.0743
  142OSM   C16S15605   7.271   0.349   4.983  0.1301  0.7671 -0.6085
  142OSM   H16S15606   7.338   0.414   5.043 -0.3537 -1.0836  2.1203
  142OSM   H16T15607   7.185   0.410   4.949  1.2037  4.2420  2.3287
  142OSM   C17S15608   7.337   0.297   4.853  0.0791  0.6362 -1.1571
  142OSM   H17S15609   7.282   0.205   4.823 -0.3724 -0.0050  1.3731
  142OSM   H17T15610   7.438   0.261   4.882 -0.8878 -0.3989  1.2879
  142OSM   C18S15611   7.358   0.397   4.732  0.3926 -0.6196  0.1542
  142OSM   H18S15612   7.423   0.486   4.751  0.2097 -0.2358 -0.9658
  142OSM   H18T15613   7.257   0.436   4.706  0.8181  0.2920 -0.1644
  142OSM   H18U15614   7.396   0.347   4.641  1.3294  0.3946 -0.0284
  142OSM    C1F15615   6.742  -0.215   6.333  0.2528 -1.1083  0.3240
  142OSM     OF15616   6.633  -0.191   6.384 -0.0357  0.0190  0.0001
  142OSM    C2F15617   6.757  -0.284   6.200  0.2363 -0.3358  0.3045
  142OSM    H2F15618   6.854  -0.337   6.203  0.1906 -0.4345  0.0751
  142OSM    H2G15619   6.763  -0.201   6.126  0.5199  1.4267  2.1950
  142OSM    C3F15620   6.645  -0.388   6.182  0.8226 -0.0142  0.6650
  142OSM    H3F15621   6.555  -0.338   6.139  1.3091  1.7188  1.5599
  142OSM    H3G15622   6.612  -0.423   6.282 -0.1059  0.3217  0.4920
  142OSM    C4F15623   6.683  -0.505   6.081 -0.2778 -0.1409 -0.3009
  142OSM    H4F15624   6.770  -0.568   6.109  1.1174  2.2851  1.1521
  142OSM    H4G15625   6.705  -0.466   5.979 -1.5061 -0.1576 -0.5859
  142OSM    C5F15626   6.571  -0.613   6.061  0.1882  0.5745 -0.5112
  142OSM    H5F15627   6.488  -0.543   6.043  0.1934  0.8267  0.3781
  142OSM    H5G15628   6.557  -0.668   6.157  3.1251 -0.4439 -0.5380
  142OSM    C6F15629   6.581  -0.713   5.948 -0.5584 -0.2573 -0.4047
  142OSM    H6F15630   6.480  -0.760   5.942 -1.3278  1.2273  0.2301
  142OSM    H6G15631   6.668  -0.781   5.960  0.0614  0.5575 -0.1779
  142OSM    C7F15632   6.613  -0.641   5.805  0.8087  0.1252  0.4869
  142OSM    H7F15633   6.643  -0.713   5.726  1.7703  1.3320 -0.2921
  142OSM    H7G15634   6.696  -0.567   5.810 -1.6784  3.0168  2.5172
  142OSM    C8F15635   6.487  -0.561   5.747  0.7179 -0.7364 -1.0628
  142OSM    H8F15636   6.444  -0.491   5.821  1.2270 -1.1654 -0.3447
  142OSM    H8G15637   6.402  -0.627   5.720  0.0124 -0.2111 -0.1742
  142OSM    C9F15638   6.538  -0.467   5.639 -0.0942 -0.6271  1.0448
  142OSM    H9F15639   6.578  -0.370   5.671  0.3238  0.2150 -1.7735
  142OSM   C10F15640   6.524  -0.484   5.507  0.3104 -0.0510 -0.3834
  142OSM   H10F15641   6.542  -0.394   5.446 -1.5505  0.5677 -0.0636
  142OSM   C11F15642   6.470  -0.603   5.442  0.7190  0.0824  0.2416
  142OSM   H11F15643   6.421  -0.669   5.517  0.0452  0.2616 -0.0370
  142OSM   H11G15644   6.560  -0.659   5.406  0.5284 -0.2879  0.3370
  142OSM   C12F15645   6.370  -0.581   5.326 -0.8271  0.0813 -0.3672
  142OSM   H12F15646   6.302  -0.501   5.362 -0.4513  0.1227  0.2598
  142OSM   H12G15647   6.311  -0.672   5.302  3.7630 -2.7331 -2.3961
  142OSM   C13F15648   6.432  -0.522   5.201 -0.0979  0.8591 -0.0727
  142OSM   H13F15649   6.481  -0.598   5.136 -1.0321  0.2339 -0.0635
  142OSM   H13G15650   6.502  -0.440   5.229 -1.8444  2.1491  0.6233
  142OSM   C14F15651   6.325  -0.465   5.103  0.1814  0.6581 -0.1972
  142OSM   H14F15652   6.232  -0.443   5.161 -0.0836  2.0267 -1.0993
  142OSM   H14G15653   6.300  -0.539   5.025 -2.9481  0.1126  1.1582
  142OSM   C15F15654   6.370  -0.332   5.036  0.1365  0.0300  0.3007
  142OSM   H15F15655   6.460  -0.363   4.978  0.9457 -1.4926  2.2506
  142OSM   H15G15656   6.389  -0.244   5.101 -1.0012  1.7117 -1.5177
  142OSM   C16F15657   6.273  -0.279   4.931  0.1781  0.0723  0.1574
  142OSM   H16F15658   6.327  -0.201   4.873  2.4754 -1.7044 -0.2692
  142OSM   H16G15659   6.181  -0.241   4.979  0.5303  2.7388 -1.0795
  142OSM   C17F15660   6.231  -0.382   4.828  0.6239 -0.4973  0.0813
  142OSM   H17F15661   6.180  -0.462   4.887  0.6525  0.0284  0.8237
  142OSM   H17G15662   6.320  -0.426   4.778 -1.5422 -2.6275 -2.2694
  142OSM   C18F15663   6.130  -0.313   4.733  0.0537  0.3458 -0.6103
  142OSM   H18F15664   6.109  -0.385   4.651 -1.2249 -2.3923  1.8849
  142OSM   H18G15665   6.177  -0.219   4.700  1.3578  0.0172  0.2479
  142OSM   H18H15666   6.036  -0.292   4.788  1.1124 -0.1098  1.4664
  143OSM      N15667   2.214   2.008   6.881 -0.3279 -0.2026  0.2669
  143OSM    C1515668   2.107   2.009   6.988 -0.3702 -0.2367  0.0477
  143OSM   H15A15669   2.023   1.944   6.970 -0.1644 -0.2175 -1.0391
  143OSM   H15B15670   2.067   2.109   6.997  0.3152  0.1490 -0.9530
  143OSM   H15C15671   2.148   1.978   7.084 -0.9700 -1.3157 -0.0358
  143OSM    C1415672   2.296   2.131   6.886  0.3678 -0.6221  0.1441
  143OSM   H14A15673   2.370   2.150   6.811 -1.1199  1.1713 -0.9689
  143OSM   H14B15674   2.336   2.144   6.986 -0.8117  0.6375  0.4866
  143OSM   H14C15675   2.233   2.217   6.868  0.0393 -0.9986 -0.5250
  143OSM    C1315676   2.303   1.891   6.906  0.0336  0.6139  0.6143
  143OSM   H13A15677   2.345   1.893   7.006 -1.5568  1.4347  1.3187
  143OSM   H13B15678   2.374   1.872   6.828 -0.0170 -1.5426  1.0387
  143OSM   H13C15679   2.243   1.802   6.897  0.3552  0.3084  1.3953
  143OSM    C1215680   2.154   1.990   6.743  0.2486 -0.2331 -0.5482
  143OSM   H12A15681   2.111   1.891   6.735 -0.9280 -0.0508  2.2518
  143OSM   H12B15682   2.234   2.009   6.673  1.7471  0.3173  1.2348
  143OSM    C1115683   2.046   2.096   6.707 -0.6072 -0.0959 -0.0590
  143OSM   H11A15684   2.047   2.101   6.596  1.6843 -2.3319 -0.2325
  143OSM   H11B15685   2.083   2.196   6.738  1.7026 -0.5291 -1.1654
  143OSM      P15686   1.834   1.954   6.711 -0.3760  0.2273 -0.4041
  143OSM    O1315687   1.915   1.832   6.724  0.1885  0.1690 -0.0616
  143OSM    O1415688   1.702   1.956   6.771 -0.1083  0.9107 -0.1445
  143OSM    O1115689   1.821   1.984   6.556  0.2363 -0.2351 -0.4229
  143OSM    O1215690   1.920   2.074   6.768  0.5566  0.5148 -0.0416
  143OSM    C1S15691   1.757   2.109   6.507 -0.0097  0.2601  0.3398
  143OSM    H1S15692   1.783   2.193   6.576  1.3355  1.1379 -1.1765
  143OSM    H1T15693   1.648   2.099   6.526 -0.1191 -0.7284 -0.7182
  143OSM     NF15694   1.734   2.272   6.334  0.3450  0.5674  0.2610
  143OSM    HNF15695   1.658   2.267   6.270  0.4068  0.3180  0.2047
  143OSM    C2S15696   1.780   2.136   6.356  0.2890 -0.8275  0.7791
  143OSM    H2S15697   1.887   2.132   6.328 -0.0299 -1.4442 -0.4274
  143OSM    C3S15698   1.715   2.026   6.270  0.0184  0.3622 -0.0157
  143OSM    H3S15699   1.605   2.041   6.266 -0.1037  0.1595  1.7183
  143OSM     O315700   1.728   1.896   6.325  0.0479 -0.5637 -0.2181
  143OSM    HO315701   1.761   1.907   6.414 -1.2745  1.1786  0.1104
  143OSM    C4S15702   1.768   2.024   6.122  0.9091 -0.4490  0.5393
  143OSM    H4S15703   1.685   2.049   6.055  0.6186  1.8668  1.6548
  143OSM    C5S15704   1.885   1.994   6.075  0.1379 -0.1560 -0.2230
  143OSM    H5S15705   1.959   1.964   6.150 -2.9668 -0.9140  2.7627
  143OSM    C6S15706   1.926   1.999   5.925  0.3147  0.3403 -0.0659
  143OSM    H6S15707   1.943   1.903   5.872 -0.4374  1.3147 -2.1795
  143OSM    H6T15708   2.019   2.059   5.916 -0.7522  1.8544 -1.6395
  143OSM    C7S15709   1.833   2.068   5.830 -0.2608 -0.1854 -0.0258
  143OSM    H7S15710   1.795   2.167   5.861 -1.2366 -0.9573  1.3814
  143OSM    H7T15711   1.747   1.997   5.830 -0.2108 -0.2815  1.7562
  143OSM    C8S15712   1.889   2.076   5.690 -0.1683  0.2803 -0.2817
  143OSM    H8S15713   1.918   1.977   5.649 -1.0508  0.4921 -1.4563
  143OSM    H8T15714   1.968   2.155   5.696 -1.0244  1.2241 -0.9673
  143OSM    C9S15715   1.798   2.146   5.584 -0.5996 -0.0061  0.3296
  143OSM    H9S15716   1.796   2.255   5.607  1.5333 -0.0377  0.9562
  143OSM    H9T15717   1.702   2.091   5.585  0.1916 -1.6098 -2.2239
  143OSM   C10S15718   1.853   2.127   5.438  0.6694  0.2062  0.3100
  143OSM   H10S15719   1.861   2.020   5.409  0.1269 -0.0530  1.0740
  143OSM   H10T15720   1.956   2.167   5.443  1.3931 -1.6894  2.3418
  143OSM   C11S15721   1.757   2.182   5.339  0.1554 -0.6370 -0.7263
  143OSM   H11S15722   1.704   2.270   5.382  2.1151  0.0204  0.4809
  143OSM   H11T15723   1.678   2.109   5.310  0.3217 -0.7536 -0.8859
  143OSM   C12S15724   1.831   2.199   5.207  0.2782 -0.4646 -0.5185
  143OSM   H12S15725   1.862   2.100   5.168 -1.4888 -1.8842  1.4851
  143OSM   H12T15726   1.925   2.258   5.213  1.4624 -2.4191  2.5937
  143OSM   C13S15727   1.735   2.274   5.115 -0.1484 -0.8865 -0.1502
  143OSM   H13S15728   1.676   2.354   5.163 -1.4390 -0.9179 -1.6061
  143OSM   H13T15729   1.661   2.203   5.072  1.4204 -1.7766 -1.5077
  143OSM   C14S15730   1.801   2.344   5.006 -0.1245 -0.0469  0.5248
  143OSM   H14S15731   1.884   2.284   4.962 -1.7990 -1.0704 -1.4207
  143OSM   H14T15732   1.845   2.437   5.047  1.4683 -1.6150  2.5735
  143OSM   C15S15733   1.710   2.353   4.884 -0.4201  0.0123  0.0671
  143OSM   H15S15734   1.683   2.255   4.840 -0.1948  0.4046 -0.9845
  143OSM   H15T15735   1.764   2.408   4.803  2.4718 -1.4117  0.8867
  143OSM   C16S15736   1.582   2.427   4.909  0.0466 -0.5437 -0.5705
  143OSM   H16S15737   1.608   2.528   4.946  0.8166 -0.5100 -1.1699
  143OSM   H16T15738   1.522   2.367   4.981 -0.8669 -0.5619 -1.3124
  143OSM   C17S15739   1.485   2.425   4.787 -0.4179 -0.1772 -0.0241
  143OSM   H17S15740   1.474   2.317   4.763  3.3113 -1.2107  2.1924
  143OSM   H17T15741   1.531   2.469   4.696 -0.9813 -0.9160 -0.6861
  143OSM   C18S15742   1.352   2.502   4.802 -0.4076 -0.6636 -0.4653
  143OSM   H18S15743   1.288   2.506   4.712  0.0706  0.4497 -0.7733
  143OSM   H18T15744   1.363   2.607   4.838 -2.9725  0.1930 -1.9458
  143OSM   H18U15745   1.280   2.453   4.872 -3.7274  2.4270 -1.3984
  143OSM    C1F15746   1.788   2.383   6.382  0.2581 -0.3144  0.1005
  143OSM     OF15747   1.884   2.377   6.455 -0.1077 -0.0291 -0.2638
  143OSM    C2F15748   1.730   2.516   6.341 -0.1121  0.0203 -0.2804
  143OSM    H2F15749   1.669   2.560   6.423  0.3352 -1.0917  0.6833
  143OSM    H2G15750   1.664   2.490   6.255 -0.3684 -1.5070  0.3330
  143OSM    C3F15751   1.823   2.626   6.283 -0.1707  0.2273  0.1085
  143OSM    H3F15752   1.888   2.670   6.362 -0.9876  1.2251  0.2380
  143OSM    H3G15753   1.762   2.710   6.243  1.3497  1.1600 -0.3445
  143OSM    C4F15754   1.913   2.577   6.168 -0.0270  0.7494 -0.1307
  143OSM    H4F15755   1.963   2.487   6.211  0.4410  1.7286  1.4720
  143OSM    H4G15756   2.001   2.642   6.151 -0.9937  2.2169  0.2989
  143OSM    C5F15757   1.838   2.538   6.033  0.7293 -0.2824 -0.5752
  143OSM    H5F15758   1.735   2.499   6.044 -0.2414  2.5108  1.2864
  143OSM    H5G15759   1.898   2.466   5.973  1.7287 -1.4375  1.6619
  143OSM    C6F15760   1.835   2.668   5.952 -0.3437 -0.8324  0.0197
  143OSM    H6F15761   1.933   2.704   5.915 -0.3063 -0.1967  0.7124
  143OSM    H6G15762   1.801   2.751   6.017 -0.2344  0.9782 -2.1158
  143OSM    C7F15763   1.725   2.673   5.834  0.0914 -0.1463 -0.4526
  143OSM    H7F15764   1.700   2.780   5.819 -2.0364 -0.4743  0.4777
  143OSM    H7G15765   1.632   2.624   5.870  0.5069 -0.8593 -0.3255
  143OSM    C8F15766   1.766   2.603   5.699 -0.3894  0.3635  0.0943
  143OSM    H8F15767   1.777   2.495   5.724  0.7712  0.9512  2.2814
  143OSM    H8G15768   1.858   2.651   5.660 -0.6561  2.5273  1.9485
  143OSM    C9F15769   1.660   2.614   5.591 -0.2731  0.2356 -0.2158
  143OSM    H9F15770   1.559   2.596   5.630 -0.8850  2.2642 -0.7753
  143OSM   C10F15771   1.673   2.639   5.459  0.4388 -0.4337  0.0967
  143OSM   H10F15772   1.576   2.657   5.410 -0.6877  2.4887  3.0360
  143OSM   C11F15773   1.805   2.667   5.392 -0.3105 -0.0897  0.4825
  143OSM   H11F15774   1.880   2.597   5.436  1.9233  2.5955  1.2654
  143OSM   H11G15775   1.847   2.767   5.415 -0.8727 -0.3701  3.0099
  143OSM   C12F15776   1.803   2.649   5.238  0.0245  0.8450 -0.5256
  143OSM   H12F15777   1.728   2.723   5.201  0.4657  1.7778  0.4141
  143OSM   H12G15778   1.764   2.547   5.219 -0.7812  1.2240 -1.0025
  143OSM   C13F15779   1.936   2.680   5.182  0.4405 -0.5329 -0.1562
  143OSM   H13F15780   1.986   2.772   5.218 -0.5316 -0.7391  1.8219
  143OSM   H13G15781   1.915   2.682   5.073  0.2182 -3.0549 -0.2185
  143OSM   C14F15782   2.040   2.565   5.187 -0.2163  0.1437 -0.3961
  143OSM   H14F15783   1.997   2.463   5.178  0.5640 -0.0481 -2.7286
  143OSM   H14G15784   2.088   2.571   5.287 -0.1513 -1.5870 -0.3019
  143OSM   C15F15785   2.157   2.561   5.082 -0.1974  0.0149 -0.6435
  143OSM   H15F15786   2.118   2.527   4.984  0.5616 -0.1239 -0.9089
  143OSM   H15G15787   2.228   2.483   5.119 -0.2795 -0.0510 -0.6249
  143OSM   C16F15788   2.235   2.698   5.067  0.1908  0.9984  0.0957
  143OSM   H16F15789   2.289   2.722   5.161  0.7521  1.0114 -0.2296
  143OSM   H16G15790   2.158   2.777   5.052 -1.0839 -0.2674 -0.3488
  143OSM   C17F15791   2.345   2.700   4.951 -0.3588  0.3697  0.2426
  143OSM   H17F15792   2.301   2.675   4.853  1.6572 -0.1490 -0.5819
  143OSM   H17G15793   2.401   2.608   4.979 -2.6479 -1.4175 -0.7448
  143OSM   C18F15794   2.424   2.832   4.938 -0.0157  0.0199  0.0580
  143OSM   H18F15795   2.508   2.805   4.871 -2.2684  1.6495 -3.7278
  143OSM   H18G15796   2.456   2.865   5.040  2.1921 -0.6154 -0.3714
  143OSM   H18H15797   2.361   2.906   4.885  0.6946 -0.3689 -1.3592
  144OSM      N15798   1.426   1.707   6.753  0.5022 -0.1095 -0.6769
  144OSM    C1515799   1.345   1.589   6.708  0.1972  0.9139 -0.2463
  144OSM   H15A15800   1.342   1.511   6.783 -1.5186  2.7522  1.7451
  144OSM   H15B15801   1.385   1.549   6.616  2.3969  3.5656 -0.5575
  144OSM   H15C15802   1.245   1.616   6.676 -0.0722 -0.2332 -0.4216
  144OSM    C1415803   1.426   1.819   6.656 -0.5473  0.3581  0.6980
  144OSM   H14A15804   1.477   1.903   6.701  0.1832 -0.3096  1.1524
  144OSM   H14B15805   1.329   1.864   6.646 -0.4869  1.2607  3.4630
  144OSM   H14C15806   1.471   1.801   6.559 -1.2764 -1.8142  0.6950
  144OSM    C1315807   1.355   1.762   6.881  0.4431  0.6363  0.3450
  144OSM   H13A15808   1.398   1.858   6.907 -0.0698  1.8792 -2.9875
  144OSM   H13B15809   1.361   1.698   6.968  1.2875  0.7809  0.3981
  144OSM   H13C15810   1.248   1.776   6.872  0.4558  2.3473  2.1357
  144OSM    C1215811   1.571   1.672   6.795  0.2424 -0.2399 -0.2135
  144OSM   H12A15812   1.612   1.765   6.831 -2.5092  0.9532  0.1377
  144OSM   H12B15813   1.626   1.649   6.705 -0.1650 -0.2278 -0.4708
  144OSM    C1115814   1.589   1.559   6.900 -0.5395  0.7902 -0.5258
  144OSM   H11A15815   1.506   1.567   6.973 -0.8971 -0.8953 -0.6987
  144OSM   H11B15816   1.684   1.564   6.958 -0.3799  0.5213 -0.7616
  144OSM      P15817   1.696   1.387   6.735  0.6946 -0.1854  0.0792
  144OSM    O1315818   1.823   1.425   6.804 -0.1940 -0.0820  0.0228
  144OSM    O1415819   1.681   1.246   6.704  0.4306  0.5171 -0.4932
  144OSM    O1115820   1.667   1.472   6.603 -0.2088  0.2388 -0.6067
  144OSM    O1215821   1.577   1.433   6.830  0.1850  0.4233 -0.2086
  144OSM    C1S15822   1.762   1.542   6.528 -0.2432  0.2858 -0.5211
  144OSM    H1S15823   1.867   1.508   6.543 -1.1195 -1.6411  2.0290
  144OSM    H1T15824   1.774   1.648   6.556  0.2925  0.0823  0.0295
  144OSM     NF15825   1.833   1.601   6.297 -0.5160 -0.2888 -0.4424
  144OSM    HNF15826   1.843   1.700   6.302  2.6187 -0.5396  2.6637
  144OSM    C2S15827   1.721   1.543   6.370  0.1566  0.0061 -0.1675
  144OSM    H2S15828   1.706   1.436   6.341  1.5571 -0.2571  0.0005
  144OSM    C3S15829   1.579   1.609   6.350  0.3922 -1.0409  0.7925
  144OSM    H3S15830   1.586   1.713   6.389 -4.7769  1.6063 -3.8684
  144OSM     O315831   1.474   1.552   6.430  0.2155  0.1863  0.2578
  144OSM    HO315832   1.526   1.501   6.493 -0.0983  0.7171  0.9620
  144OSM    C4S15833   1.545   1.610   6.206 -1.1637 -0.1582  0.3444
  144OSM    H4S15834   1.598   1.690   6.153 -2.6464 -0.2108 -1.3236
  144OSM    C5S15835   1.502   1.506   6.127  0.1614 -0.6016  0.1442
  144OSM    H5S15836   1.467   1.416   6.179  0.4093  0.0656  1.4908
  144OSM    C6S15837   1.514   1.506   5.978  1.0965 -0.3022 -0.2799
  144OSM    H6S15838   1.419   1.470   5.931  0.6100  0.6924 -0.0876
  144OSM    H6T15839   1.596   1.433   5.960  0.2198 -0.7782 -2.8575
  144OSM    C7S15840   1.566   1.631   5.903  0.1669  0.2889 -0.2277
  144OSM    H7S15841   1.667   1.663   5.938 -1.2976  2.8119  2.0258
  144OSM    H7T15842   1.506   1.721   5.928  1.7626  1.2850  0.2091
  144OSM    C8S15843   1.554   1.608   5.760 -0.2340 -0.1645  0.1160
  144OSM    H8S15844   1.449   1.581   5.737  0.0618 -0.6763 -0.6906
  144OSM    H8T15845   1.611   1.515   5.740  2.1872  1.3980 -0.6547
  144OSM    C9S15846   1.594   1.730   5.678  0.1354  0.2916 -0.1141
  144OSM    H9S15847   1.702   1.751   5.696  0.3920 -1.7140  0.9246
  144OSM    H9T15848   1.531   1.819   5.697  1.3089  0.7733  1.8297
  144OSM   C10S15849   1.566   1.690   5.530 -0.7786  0.1897 -0.0754
  144OSM   H10S15850   1.460   1.654   5.528 -0.5763 -0.4659  0.8133
  144OSM   H10T15851   1.623   1.601   5.496 -0.0493  1.5674 -2.6882
  144OSM   C11S15852   1.589   1.808   5.436 -0.6491 -0.6725 -0.0450
  144OSM   H11S15853   1.700   1.813   5.434 -0.6038 -0.1260  2.0696
  144OSM   H11T15854   1.534   1.897   5.473  0.1129 -0.4056  0.4700
  144OSM   C12S15855   1.554   1.775   5.287 -0.2433  0.7566 -0.7084
  144OSM   H12S15856   1.444   1.771   5.274 -0.4352 -1.7827  0.9663
  144OSM   H12T15857   1.596   1.673   5.275  0.6597  1.0887 -0.4261
  144OSM   C13S15858   1.606   1.874   5.178 -0.3670 -0.4825 -0.5453
  144OSM   H13S15859   1.713   1.900   5.193 -0.9536  1.1679  1.1999
  144OSM   H13T15860   1.552   1.970   5.194  1.1304  0.1024  1.3162
  144OSM   C14S15861   1.572   1.840   5.037 -0.2912 -0.4290  0.2261
  144OSM   H14S15862   1.475   1.786   5.031 -0.8589  0.6528 -0.8819
  144OSM   H14T15863   1.632   1.754   5.001  0.8929  1.0557 -1.5507
  144OSM   C15S15864   1.573   1.953   4.935  0.7305 -0.2964 -0.1597
  144OSM   H15S15865   1.675   1.997   4.948  1.7471 -1.6782 -2.7071
  144OSM   H15T15866   1.500   2.032   4.963  4.1331  3.2851 -0.4648
  144OSM   C16S15867   1.550   1.920   4.787  0.2891 -0.1088  0.3296
  144OSM   H16S15868   1.463   1.852   4.775 -0.0050  0.3082  0.0534
  144OSM   H16T15869   1.641   1.864   4.755  2.3727  2.7447  0.8315
  144OSM   C17S15870   1.510   2.041   4.698  0.8807  0.0691 -0.6246
  144OSM   H17S15871   1.604   2.099   4.687  1.5692 -1.1911 -1.6008
  144OSM   H17T15872   1.437   2.102   4.757 -0.1188 -0.6949 -1.0354
  144OSM   C18S15873   1.451   2.002   4.561 -0.3114  0.1763  0.0577
  144OSM   H18S15874   1.355   1.946   4.566 -1.2634  1.4450 -2.1686
  144OSM   H18T15875   1.533   1.944   4.514 -2.3854 -3.4082  0.5249
  144OSM   H18U15876   1.436   2.093   4.498  3.9373  1.2620  0.3506
  144OSM    C1F15877   1.936   1.525   6.261  0.1256  0.0920 -0.4167
  144OSM     OF15878   1.917   1.403   6.274 -0.2650 -0.1124 -0.0028
  144OSM    C2F15879   2.062   1.582   6.213  0.1702 -0.7138 -0.2194
  144OSM    H2F15880   2.142   1.559   6.286  0.9084  0.3760 -0.6622
  144OSM    H2G15881   2.052   1.693   6.208  0.2098 -0.6317  1.0748
  144OSM    C3F15882   2.104   1.527   6.077 -0.6350 -0.4687 -0.3755
  144OSM    H3F15883   2.115   1.417   6.074 -2.2866 -0.6335 -1.5647
  144OSM    H3G15884   2.206   1.563   6.050 -0.3373  2.4820  3.6952
  144OSM    C4F15885   2.011   1.567   5.959  0.0643  0.0724 -0.3498
  144OSM    H4F15886   1.985   1.675   5.963 -0.8760 -0.0589 -2.0035
  144OSM    H4G15887   1.919   1.504   5.967  0.3081 -0.5930 -2.2167
  144OSM    C5F15888   2.067   1.538   5.822 -0.0627 -0.2540 -0.5280
  144OSM    H5F15889   2.098   1.431   5.823  2.4508  0.4108  0.8025
  144OSM    H5G15890   2.151   1.606   5.800  0.5127 -0.9797 -0.6152
  144OSM    C6F15891   1.958   1.549   5.717 -0.0027 -0.4516 -0.4185
  144OSM    H6F15892   1.940   1.658   5.707  1.2161 -0.2078 -0.1853
  144OSM    H6G15893   1.860   1.508   5.747 -0.3584 -0.1826 -1.1794
  144OSM    C7F15894   1.989   1.470   5.586  0.1659 -0.4080  0.2539
  144OSM    H7F15895   1.974   1.364   5.614 -0.4833 -0.7086 -1.1158
  144OSM    H7G15896   2.090   1.497   5.548  0.7396 -2.4274  0.2717
  144OSM    C8F15897   1.882   1.500   5.475 -0.2158 -0.3013  0.2142
  144OSM    H8F15898   1.867   1.610   5.471 -3.9221 -0.6485  0.7012
  144OSM    H8G15899   1.780   1.459   5.492 -0.5002 -1.1732 -2.9696
  144OSM    C9F15900   1.943   1.467   5.341  0.1190  0.2199  0.2762
  144OSM    H9F15901   2.040   1.514   5.319  0.5344 -1.5185 -1.9114
  144OSM   C10F15902   1.899   1.389   5.247 -0.0551  0.1600 -0.6258
  144OSM   H10F15903   1.951   1.385   5.151  1.1001 -2.0936  0.0221
  144OSM   C11F15904   1.785   1.296   5.268  1.1222  0.4080 -0.3823
  144OSM   H11F15905   1.722   1.315   5.357  0.0109 -0.5748 -0.9201
  144OSM   H11G15906   1.824   1.198   5.303 -0.5918  0.7971  3.0628
  144OSM   C12F15907   1.684   1.266   5.158  0.4508  0.4289 -0.4316
  144OSM   H12F15908   1.661   1.157   5.165  0.9280  0.3629  0.2378
  144OSM   H12G15909   1.733   1.277   5.059  3.6767 -0.7833  0.8797
  144OSM   C13F15910   1.557   1.353   5.166  0.3527  0.2697  0.0937
  144OSM   H13F15911   1.581   1.461   5.157  0.3698  0.2358 -0.3055
  144OSM   H13G15912   1.500   1.336   5.260 -0.1750  1.4550  0.0116
  144OSM   C14F15913   1.471   1.327   5.035 -0.6530 -0.1057 -0.7341
  144OSM   H14F15914   1.457   1.217   5.033 -1.0684 -0.0423 -2.0521
  144OSM   H14G15915   1.526   1.371   4.949 -0.4349 -0.5236 -0.8082
  144OSM   C15F15916   1.342   1.408   5.046  0.3251 -0.5332  0.0460
  144OSM   H15F15917   1.330   1.457   4.947  2.2311  0.9519  0.5081
  144OSM   H15G15918   1.361   1.497   5.108 -1.7506 -0.5326  0.7476
  144OSM   C16F15919   1.234   1.319   5.110  0.7677 -0.4808 -0.1161
  144OSM   H16F15920   1.273   1.280   5.207  0.7915  1.9019  0.8921
  144OSM   H16G15921   1.199   1.230   5.053  2.3998  0.5716 -2.9411
  144OSM   C17F15922   1.108   1.401   5.153 -0.4228  0.0944  0.1570
  144OSM   H17F15923   1.065   1.457   5.068 -0.6289 -0.6519 -0.2379
  144OSM   H17G15924   1.157   1.474   5.220 -0.9407  0.1438  0.4846
  144OSM   C18F15925   1.005   1.322   5.234 -0.1219 -0.3560  0.5418
  144OSM   H18F15926   0.945   1.400   5.286  0.4561 -0.2265  1.0366
  144OSM   H18G15927   1.050   1.251   5.307  0.0401 -2.2124 -1.2857
  144OSM   H18H15928   0.936   1.272   5.164 -0.4530  0.9466 -0.1077
  145OSM      N15929   2.954   4.178   6.795 -0.0789 -0.4376  0.2849
  145OSM    C1515930   2.895   4.309   6.832  0.2245 -0.5697  0.0380
  145OSM   H15A15931   2.962   4.391   6.810 -1.5131  0.7972 -0.4889
  145OSM   H15B15932   2.867   4.307   6.936  0.0950 -0.6040  0.0029
  145OSM   H15C15933   2.806   4.322   6.771 -0.2380 -1.5924  0.4778
  145OSM    C1415934   2.965   4.148   6.648 -0.5904  0.3141  0.4183
  145OSM   H14A15935   2.866   4.159   6.607 -1.0093 -1.4448  0.8656
  145OSM   H14B15936   2.993   4.044   6.634  0.6252  0.8545 -1.4320
  145OSM   H14C15937   3.045   4.206   6.603  0.3187  1.2406  3.0273
  145OSM    C1315938   3.092   4.158   6.859 -0.0846  0.6522  0.4192
  145OSM   H13A15939   3.125   4.056   6.849  1.9265  1.4218 -1.3315
  145OSM   H13B15940   3.091   4.198   6.960 -0.4388  0.1972  0.6026
  145OSM   H13C15941   3.157   4.217   6.797  0.6642 -1.0088 -0.4459
  145OSM    C1215942   2.869   4.067   6.859 -0.8163 -0.4729 -0.1992
  145OSM   H12A15943   2.868   4.098   6.963  1.1652 -3.3116  0.7658
  145OSM   H12B15944   2.923   3.974   6.861 -0.9961 -0.5814 -0.2980
  145OSM    C1115945   2.719   4.052   6.814 -0.2253  0.1933 -0.2654
  145OSM   H11A15946   2.662   4.143   6.844 -2.8157 -1.3079 -0.3246
  145OSM   H11B15947   2.676   3.962   6.863  1.7086 -1.2534 -1.1194
  145OSM      P15948   2.572   4.013   6.602  0.0082  0.1784  0.3769
  145OSM    O1315949   2.561   3.871   6.561  0.5075 -0.1315 -0.1088
  145OSM    O1415950   2.473   4.064   6.701  0.4705  0.1335  0.3116
  145OSM    O1115951   2.569   4.091   6.473  0.1598 -0.3646 -0.1440
  145OSM    O1215952   2.709   4.032   6.671 -0.0457  0.1089  0.2654
  145OSM    C1S15953   2.684   4.109   6.391 -0.4216 -0.8157  0.2718
  145OSM    H1S15954   2.766   4.038   6.416 -0.0925 -0.8579 -0.8410
  145OSM    H1T15955   2.730   4.209   6.402 -0.8864 -0.5854  0.1773
  145OSM     NF15956   2.770   4.039   6.163  0.0781 -0.4624  0.2508
  145OSM    HNF15957   2.781   4.095   6.081 -1.5813 -0.6254 -0.1331
  145OSM    C2S15958   2.649   4.072   6.245 -0.4462  0.4041  0.5640
  145OSM    H2S15959   2.601   3.973   6.261  2.2554 -0.8815  1.3673
  145OSM    C3S15960   2.545   4.164   6.175  0.1009  0.4635  0.2833
  145OSM    H3S15961   2.600   4.254   6.141 -0.3404 -0.4635 -3.3086
  145OSM     O315962   2.433   4.199   6.256  0.3055 -0.1460  0.0624
  145OSM    HO315963   2.452   4.155   6.339 -1.7435 -1.7303 -0.2241
  145OSM    C4S15964   2.496   4.104   6.043  0.0238 -0.5420 -0.3768
  145OSM    H4S15965   2.557   4.135   5.956  0.0167 -0.9981 -0.5467
  145OSM    C5S15966   2.409   4.003   6.024 -0.2258 -0.2653  0.0957
  145OSM    H5S15967   2.381   3.944   6.112  1.5193  0.0878  0.9112
  145OSM    C6S15968   2.379   3.935   5.888  0.4052 -0.3335 -0.0532
  145OSM    H6S15969   2.270   3.950   5.872 -0.0524  2.2400  3.9951
  145OSM    H6T15970   2.389   3.824   5.900 -1.4425 -0.6644 -1.1942
  145OSM    C7S15971   2.459   3.981   5.760  0.6199  0.1164  0.2859
  145OSM    H7S15972   2.567   3.959   5.774  0.2562 -1.5290  0.7129
  145OSM    H7T15973   2.445   4.092   5.758  0.5357  0.1443  1.3611
  145OSM    C8S15974   2.405   3.919   5.632  1.0471 -0.6774 -0.1476
  145OSM    H8S15975   2.300   3.954   5.623  1.5022  0.8167 -0.0743
  145OSM    H8T15976   2.401   3.809   5.646  1.9320 -0.3430  3.7961
  145OSM    C9S15977   2.478   3.959   5.509  0.4051 -0.4207 -0.1898
  145OSM    H9S15978   2.585   3.936   5.528 -0.0114 -1.6347  0.8520
  145OSM    H9T15979   2.468   4.067   5.487  0.6738 -0.3492  0.0415
  145OSM   C10S15980   2.436   3.884   5.382  0.1696 -0.2944 -0.0062
  145OSM   H10S15981   2.334   3.922   5.358  1.4838  4.1404  0.6641
  145OSM   H10T15982   2.432   3.776   5.411  1.3180 -0.0747  1.0303
  145OSM   C11S15983   2.523   3.915   5.258 -0.1617  0.0464  0.3939
  145OSM   H11S15984   2.623   3.867   5.269 -0.0199 -0.3219 -2.0562
  145OSM   H11T15985   2.542   4.025   5.255 -2.0091  0.3945  0.3537
  145OSM   C12S15986   2.456   3.870   5.132 -0.5235 -0.3463 -1.2402
  145OSM   H12S15987   2.358   3.918   5.113 -0.0042  0.7686 -1.1835
  145OSM   H12T15988   2.444   3.759   5.137 -0.4647 -0.4695 -3.2942
  145OSM   C13S15989   2.538   3.883   5.010  0.1933  0.1180  0.8027
  145OSM   H13S15990   2.563   3.990   4.992  4.7089 -0.5915  1.6451
  145OSM   H13T15991   2.489   3.850   4.915  0.6403  2.2667 -0.2373
  145OSM   C14S15992   2.679   3.801   5.012 -0.2377 -0.6391 -0.2456
  145OSM   H14S15993   2.670   3.694   5.042  2.0496 -0.6254  0.6797
  145OSM   H14T15994   2.747   3.853   5.083  0.3518 -1.6933 -0.0113
  145OSM   C15S15995   2.742   3.810   4.871  0.1198  0.6997 -0.4632
  145OSM   H15S15996   2.776   3.915   4.859 -1.0710  0.9321 -2.4141
  145OSM   H15T15997   2.669   3.797   4.787  0.4746 -0.9198 -0.5544
  145OSM   C16S15998   2.862   3.715   4.867 -0.6310  0.1187 -0.0396
  145OSM   H16S15999   2.828   3.615   4.902  1.7493 -1.0411 -0.8340
  145OSM   H16T16000   2.940   3.745   4.940  0.1428 -0.3528 -0.6601
  145OSM   C17S16001   2.915   3.703   4.730 -0.3893  0.8269 -0.6311
  145OSM   H17S16002   2.964   3.798   4.701  0.6719 -0.0788 -1.8759
  145OSM   H17T16003   2.841   3.678   4.651 -0.7502 -1.9356  0.4650
  145OSM   C18S16004   3.033   3.604   4.717  0.0502 -0.4929 -0.3008
  145OSM   H18S16005   3.049   3.572   4.611 -1.0828 -2.3811  0.0376
  145OSM   H18T16006   3.009   3.513   4.776 -0.7176 -0.6365 -0.8177
  145OSM   H18U16007   3.131   3.644   4.751 -0.1205  0.3388 -0.7597
  145OSM    C1F16008   2.844   3.933   6.189 -0.3686 -0.2155 -0.1683
  145OSM     OF16009   2.836   3.864   6.290 -0.0790 -0.1188 -0.1080
  145OSM    C2F16010   2.944   3.903   6.079 -0.6047  0.1839  0.3435
  145OSM    H2F16011   3.002   3.816   6.117  0.9802  1.2610  0.4733
  145OSM    H2G16012   3.005   3.994   6.068 -3.5298  2.1213 -1.1485
  145OSM    C3F16013   2.872   3.873   5.947 -0.2148 -0.4156  0.3447
  145OSM    H3F16014   2.960   3.887   5.881 -0.3331  2.3462  0.6928
  145OSM    H3G16015   2.779   3.931   5.929  0.2667 -0.5530 -3.3265
  145OSM    C4F16016   2.819   3.727   5.947 -0.2278  0.0129  0.2241
  145OSM    H4F16017   2.714   3.732   5.980 -0.6673  0.5331 -1.1629
  145OSM    H4G16018   2.858   3.658   6.025 -1.7799 -1.4798 -0.2561
  145OSM    C5F16019   2.836   3.662   5.807  0.8190 -0.4374  0.1663
  145OSM    H5F16020   2.797   3.559   5.819  0.5076 -0.1583  1.6975
  145OSM    H5G16021   2.942   3.669   5.774  0.2714  0.8897 -1.4959
  145OSM    C6F16022   2.744   3.732   5.701  0.1630  0.1155 -0.5391
  145OSM    H6F16023   2.769   3.840   5.709  2.5903 -0.4639  0.7778
  145OSM    H6G16024   2.639   3.719   5.734  0.4726 -0.5496  0.2313
  145OSM    C7F16025   2.767   3.691   5.557 -0.3222  0.0674 -0.3538
  145OSM    H7F16026   2.676   3.724   5.502  0.1788  0.5719 -0.9061
  145OSM    H7G16027   2.783   3.581   5.556  0.2487  0.1259 -2.5048
  145OSM    C8F16028   2.895   3.757   5.493  0.1258  0.0081 -0.2891
  145OSM    H8F16029   2.984   3.721   5.550 -0.5116  0.5885  1.1225
  145OSM    H8G16030   2.903   3.866   5.513  0.6186 -0.1727  0.5590
  145OSM    C9F16031   2.901   3.731   5.350 -0.1270 -0.3115  0.2419
  145OSM    H9F16032   2.804   3.765   5.311 -0.3932 -1.3318 -0.0258
  145OSM   C10F16033   2.997   3.700   5.264  0.1167 -0.0917 -0.7283
  145OSM   H10F16034   2.967   3.680   5.160  0.4411  0.1711 -0.8732
  145OSM   C11F16035   3.140   3.664   5.304  0.3970  0.1427  0.3123
  145OSM   H11F16036   3.138   3.641   5.413 -0.9967  1.1439  0.5201
  145OSM   H11G16037   3.221   3.733   5.275 -1.0910  1.3906 -1.0859
  145OSM   C12F16038   3.179   3.526   5.240 -0.6712 -0.4246 -0.4567
  145OSM   H12F16039   3.101   3.448   5.253  0.1706 -1.1599  0.3285
  145OSM   H12G16040   3.263   3.479   5.296  0.8861 -0.4434 -2.7063
  145OSM   C13F16041   3.220   3.526   5.086 -0.4133  0.5455 -0.6619
  145OSM   H13F16042   3.300   3.598   5.058 -1.3160  1.8602  0.0382
  145OSM   H13G16043   3.132   3.563   5.030  0.0312  0.4044 -1.4821
  145OSM   C14F16044   3.249   3.390   5.035 -0.0685 -0.3210 -0.1995
  145OSM   H14F16045   3.231   3.394   4.925  0.8136 -0.8403 -0.3769
  145OSM   H14G16046   3.177   3.318   5.079 -0.7748  0.7393  0.4015
  145OSM   C15F16047   3.397   3.337   5.054  0.1851 -0.2011 -0.0394
  145OSM   H15F16048   3.396   3.235   5.009  0.1110 -0.6483  0.9520
  145OSM   H15G16049   3.413   3.329   5.163  0.7878  0.1579 -0.0999
  145OSM   C16F16050   3.512   3.399   4.976 -0.1947  0.5547  0.2255
  145OSM   H16F16051   3.562   3.483   5.027  0.6650  2.5177 -3.4882
  145OSM   H16G16052   3.467   3.432   4.880 -0.3107 -1.3853 -0.4361
  145OSM   C17F16053   3.638   3.319   4.951 -0.0739  1.1290 -0.4907
  145OSM   H17F16054   3.609   3.232   4.889 -0.8770  2.1842 -1.6628
  145OSM   H17G16055   3.678   3.284   5.049  1.2279  1.1338 -0.9984
  145OSM   C18F16056   3.754   3.394   4.874  1.0613  0.2271 -0.2663
  145OSM   H18F16057   3.791   3.483   4.929 -0.5932  0.1841  0.9811
  145OSM   H18G16058   3.722   3.440   4.778  2.3879  1.4245 -0.1708
  145OSM   H18H16059   3.841   3.326   4.863 -0.5280 -1.6963 -1.5916
  146OSM      N16060   5.762   3.965   7.116 -0.0602  0.1154  0.6744
  146OSM    C1516061   5.860   3.856   7.141  0.6351  0.1890  0.5090
  146OSM   H15A16062   5.925   3.845   7.056  0.0180 -1.4145  0.1905
  146OSM   H15B16063   5.801   3.765   7.144  0.7077  0.0704 -1.1246
  146OSM   H15C16064   5.922   3.868   7.229  2.9573 -1.2810 -0.8455
  146OSM    C1416065   5.665   3.983   7.236 -0.2227 -0.5976 -0.2441
  146OSM   H14A16066   5.705   4.043   7.316  0.6577 -1.2623 -0.1656
  146OSM   H14B16067   5.640   3.887   7.280  1.1627 -0.0167  1.9546
  146OSM   H14C16068   5.580   4.041   7.203  1.1859  1.1006 -1.0454
  146OSM    C1316069   5.832   4.092   7.110 -0.0471 -0.7493  0.6912
  146OSM   H13A16070   5.893   4.113   7.023 -0.4993  0.0492  0.5572
  146OSM   H13B16071   5.891   4.104   7.200  0.6788 -0.4963  0.1934
  146OSM   H13C16072   5.766   4.177   7.116  1.0020  0.4138 -2.3775
  146OSM    C1216073   5.686   3.938   6.988  0.2449  0.0489  0.2050
  146OSM   H12A16074   5.641   3.840   6.988  1.0284 -0.3307 -0.3606
  146OSM   H12B16075   5.746   3.946   6.898 -0.3853  2.1423 -0.0889
  146OSM    C1116076   5.567   4.028   6.944  0.1005 -0.1285 -0.2759
  146OSM   H11A16077   5.535   3.993   6.844  1.2797  0.6183 -0.9380
  146OSM   H11B16078   5.605   4.131   6.929  0.4537 -0.2513 -0.2340
  146OSM      P16079   5.329   4.110   7.042 -0.2243 -0.2007  0.1933
  146OSM    O1316080   5.215   4.022   7.087 -0.0054  0.5217 -0.2376
  146OSM    O1416081   5.333   4.233   7.119  0.3720  0.0731  0.0261
  146OSM    O1116082   5.301   4.136   6.892  1.0242  0.0682  0.8262
  146OSM    O1216083   5.459   4.027   7.044  0.3226  0.6774 -0.0889
  146OSM    C1S16084   5.348   4.262   6.832  0.0945  0.1302  0.2790
  146OSM    H1S16085   5.435   4.308   6.882  2.2372 -2.3586 -0.9446
  146OSM    H1T16086   5.268   4.338   6.847  1.6325  1.6565  1.0539
  146OSM     NF16087   5.454   4.364   6.635 -0.2528 -0.5513 -0.4067
  146OSM    HNF16088   5.410   4.433   6.579  0.1195  0.1955  0.1946
  146OSM    C2S16089   5.383   4.252   6.683  0.0628  0.4542  0.3470
  146OSM    H2S16090   5.448   4.163   6.669 -0.7044 -0.0747  0.0665
  146OSM    C3S16091   5.257   4.221   6.604 -0.0946 -0.2231  0.3877
  146OSM    H3S16092   5.196   4.313   6.613 -1.2661 -0.9341 -0.1076
  146OSM     O316093   5.179   4.116   6.660 -0.1278 -0.2040 -0.1015
  146OSM    HO316094   5.227   4.094   6.741  0.3573  1.0147 -0.0288
  146OSM    C4S16095   5.288   4.187   6.461  0.2005 -0.5956 -0.2445
  146OSM    H4S16096   5.303   4.283   6.408 -1.4066  0.5587  1.2526
  146OSM    C5S16097   5.315   4.068   6.404  0.1773  0.1939  0.2422
  146OSM    H5S16098   5.326   3.979   6.467 -0.0495  0.1730  0.2523
  146OSM    C6S16099   5.350   4.048   6.260 -0.1611  0.1104  0.6782
  146OSM    H6S16100   5.284   3.970   6.216  2.0390 -1.0343 -0.7650
  146OSM    H6T16101   5.452   4.005   6.266  0.0894 -0.0377 -2.6467
  146OSM    C7S16102   5.357   4.179   6.171  0.3246 -0.1572 -0.5764
  146OSM    H7S16103   5.449   4.235   6.198  1.0152 -1.5454  0.1081
  146OSM    H7T16104   5.262   4.233   6.188  0.4232  0.2159 -1.1829
  146OSM    C8S16105   5.374   4.135   6.020  0.5546  0.3313 -0.2645
  146OSM    H8S16106   5.306   4.050   5.999  1.4641 -1.2247  2.6021
  146OSM    H8T16107   5.475   4.092   6.009  0.1520 -0.3464 -1.5373
  146OSM    C9S16108   5.344   4.257   5.926 -0.1596  0.5657  0.3418
  146OSM    H9S16109   5.410   4.345   5.945 -1.1277  1.3302  0.2240
  146OSM    H9T16110   5.238   4.289   5.936  0.2508  1.9094  0.6450
  146OSM   C10S16111   5.347   4.217   5.775 -0.1903  0.1315 -0.0473
  146OSM   H10S16112   5.269   4.142   5.753  0.8557 -0.8780 -0.4101
  146OSM   H10T16113   5.444   4.166   5.753 -1.0721 -1.0949 -1.2517
  146OSM   C11S16114   5.315   4.342   5.683  0.3911 -0.2475 -0.6044
  146OSM   H11S16115   5.378   4.431   5.704 -0.0858  0.3112 -1.4603
  146OSM   H11T16116   5.211   4.380   5.693  0.7422  0.3595  0.9783
  146OSM   C12S16117   5.318   4.300   5.533 -0.0126 -0.4865  0.6570
  146OSM   H12S16118   5.240   4.225   5.507 -0.7401 -0.1213  1.7118
  146OSM   H12T16119   5.415   4.246   5.522 -0.2554 -0.6173 -1.0698
  146OSM   C13S16120   5.299   4.413   5.434  0.1563  0.5945  0.2416
  146OSM   H13S16121   5.387   4.480   5.425 -1.5087  2.8290 -0.2792
  146OSM   H13T16122   5.209   4.477   5.449 -1.2874 -1.1434 -0.6636
  146OSM   C14S16123   5.291   4.366   5.287 -0.4693  0.1893  0.4020
  146OSM   H14S16124   5.205   4.298   5.271 -2.0242  1.8851  1.0908
  146OSM   H14T16125   5.382   4.308   5.264 -1.2058 -0.7139 -0.2895
  146OSM   C15S16126   5.294   4.489   5.204  0.3741 -1.0869  0.2640
  146OSM   H15S16127   5.373   4.564   5.227 -0.4876 -0.1549  0.2384
  146OSM   H15T16128   5.198   4.539   5.227 -0.6493 -1.8429 -2.0181
  146OSM   C16S16129   5.279   4.461   5.053  0.4430 -0.2268 -0.4578
  146OSM   H16S16130   5.202   4.385   5.030 -1.8648  0.9304  2.7152
  146OSM   H16T16131   5.374   4.421   5.011 -0.4322 -1.5563 -1.2351
  146OSM   C17S16132   5.252   4.579   4.966 -0.4408 -0.3733  0.4287
  146OSM   H17S16133   5.321   4.663   4.985 -1.4930  1.5437 -3.2421
  146OSM   H17T16134   5.152   4.620   4.990  0.0520  0.5008  1.0250
  146OSM   C18S16135   5.246   4.535   4.819 -0.0274  0.0254 -0.0460
  146OSM   H18S16136   5.250   4.623   4.751  0.4872  1.1750  1.4023
  146OSM   H18T16137   5.147   4.491   4.794 -0.6448  0.4573  1.4718
  146OSM   H18U16138   5.328   4.469   4.785  0.8876  2.2721 -2.5545
  146OSM    C1F16139   5.572   4.390   6.679  0.0198  0.8282 -0.5636
  146OSM     OF16140   5.637   4.310   6.743  0.2695  0.3281  0.3430
  146OSM    C2F16141   5.623   4.524   6.651  0.2974  0.0714  0.4166
  146OSM    H2F16142   5.636   4.587   6.741  2.8014  2.1980 -1.2670
  146OSM    H2G16143   5.545   4.577   6.592 -0.5080 -1.3492  0.1672
  146OSM    C3F16144   5.746   4.512   6.568  0.5519 -0.1710  0.1318
  146OSM    H3F16145   5.822   4.451   6.621  1.3968  0.4807 -0.3170
  146OSM    H3G16146   5.777   4.617   6.550 -0.1667  0.0830  0.3338
  146OSM    C4F16147   5.721   4.463   6.423 -0.0696 -0.6065  0.4639
  146OSM    H4F16148   5.692   4.552   6.362  2.2503  0.8763  1.3991
  146OSM    H4G16149   5.632   4.396   6.426 -2.0342  1.8601  0.6589
  146OSM    C5F16150   5.849   4.392   6.379  0.0488  0.1902 -0.1602
  146OSM    H5F16151   5.887   4.333   6.465 -1.2182 -0.4079  0.0194
  146OSM    H5G16152   5.925   4.466   6.346  2.5923 -1.5742  1.3763
  146OSM    C6F16153   5.828   4.274   6.278  0.0384  0.0771 -0.5890
  146OSM    H6F16154   5.765   4.195   6.323  0.4513 -0.7996 -1.5344
  146OSM    H6G16155   5.931   4.235   6.264  0.8342  1.2090  1.5564
  146OSM    C7F16156   5.755   4.304   6.154 -0.0883 -0.1395 -0.4992
  146OSM    H7F16157   5.655   4.343   6.181  0.5042  0.8186  0.3526
  146OSM    H7G16158   5.726   4.211   6.101 -0.8515  0.6689 -1.5278
  146OSM    C8F16159   5.819   4.413   6.066 -0.4639 -0.2149  0.8542
  146OSM    H8F16160   5.828   4.509   6.122 -0.4187 -1.3965  2.9864
  146OSM    H8G16161   5.741   4.423   5.988  1.3577 -0.0820 -1.0249
  146OSM    C9F16162   5.952   4.377   6.012 -0.3644  0.0524  0.4651
  146OSM    H9F16163   6.028   4.341   6.082  0.9140  0.0139 -0.8812
  146OSM   C10F16164   5.985   4.394   5.883 -0.2215 -0.6173 -0.0111
  146OSM   H10F16165   6.085   4.359   5.854  0.2234 -0.2656  1.0406
  146OSM   C11F16166   5.896   4.446   5.773 -0.1088 -0.4103  0.6035
  146OSM   H11F16167   5.949   4.506   5.695  0.8037 -1.8897  0.0421
  146OSM   H11G16168   5.819   4.511   5.819 -1.1451 -1.3778  0.2854
  146OSM   C12F16169   5.838   4.330   5.698  0.1786 -0.0230  0.3001
  146OSM   H12F16170   5.781   4.270   5.773 -0.7413  0.9366  0.3859
  146OSM   H12G16171   5.912   4.254   5.663  0.0282  0.7690 -1.8224
  146OSM   C13F16172   5.740   4.359   5.587 -0.3283  0.5021 -0.6210
  146OSM   H13F16173   5.659   4.427   5.622 -1.5898 -0.8588 -0.7999
  146OSM   H13G16174   5.702   4.256   5.569 -0.2247  0.6597 -1.8300
  146OSM   C14F16175   5.800   4.426   5.461 -0.3511  0.4190  0.3245
  146OSM   H14F16176   5.823   4.531   5.490 -0.1864  0.6645 -0.6762
  146OSM   H14G16177   5.891   4.363   5.446 -0.7334 -0.3570  1.1480
  146OSM   C15F16178   5.721   4.405   5.330  0.4736 -0.5019 -0.1244
  146OSM   H15F16179   5.619   4.450   5.338  0.9447  1.2822 -2.7678
  146OSM   H15G16180   5.723   4.296   5.307  1.3553 -0.4190 -0.4846
  146OSM   C16F16181   5.784   4.489   5.213  0.1420  0.0654 -0.2938
  146OSM   H16F16182   5.893   4.473   5.221  0.4073  2.1806  1.0998
  146OSM   H16G16183   5.758   4.596   5.208  0.8155  0.1963 -1.1920
  146OSM   C17F16184   5.744   4.410   5.087  0.0329  0.3087 -0.6245
  146OSM   H17F16185   5.636   4.433   5.079 -0.0099  0.6313  0.6154
  146OSM   H17G16186   5.751   4.300   5.095 -0.6708  0.0590 -2.7261
  146OSM   C18F16187   5.818   4.451   4.962  0.1544  0.6242 -0.5102
  146OSM   H18F16188   5.833   4.561   4.955 -0.5606  0.6542 -1.8056
  146OSM   H18G16189   5.762   4.421   4.871 -2.7414 -1.8716  1.8673
  146OSM   H18H16190   5.915   4.398   4.955 -0.3114 -0.1350 -1.3142
  147OSM      N16191   0.908   3.940   2.590  0.7254 -0.2952  0.0020
  147OSM    C1516192   0.938   3.802   2.635 -0.6454 -0.2733  0.3253
  147OSM   H15A16193   0.879   3.770   2.720  0.1008 -2.9891 -0.0804
  147OSM   H15B16194   1.044   3.783   2.644 -0.9019 -2.3482 -0.4573
  147OSM   H15C16195   0.911   3.733   2.557 -1.3099 -0.2046  0.4899
  147OSM    C1416196   0.979   3.965   2.470  0.1102 -0.1761  1.1655
  147OSM   H14A16197   1.083   3.935   2.480 -0.1960 -1.1643  1.4296
  147OSM   H14B16198   0.968   4.065   2.432  0.5069 -0.3956  0.4305
  147OSM   H14C16199   0.936   3.897   2.397  2.2807  0.8946 -1.2941
  147OSM    C1316200   0.756   3.942   2.559 -0.4952 -0.4360 -0.3075
  147OSM   H13A16201   0.735   3.882   2.472 -0.7725 -1.2038  0.2755
  147OSM   H13B16202   0.732   4.047   2.545  3.3120  0.5322 -0.7073
  147OSM   H13C16203   0.703   3.905   2.645 -1.7029 -0.1350 -0.9028
  147OSM    C1216204   0.947   4.037   2.700  0.1040  0.1259  0.1633
  147OSM   H12A16205   1.041   4.016   2.748  1.8250  4.8321 -0.6271
  147OSM   H12B16206   0.881   4.027   2.785  0.2725 -0.9332  0.1848
  147OSM    C1116207   0.948   4.186   2.661 -0.3255  0.3824 -0.2896
  147OSM   H11A16208   0.948   4.252   2.751  0.8784  1.0867 -0.7734
  147OSM   H11B16209   0.861   4.205   2.595  0.0716  0.7323 -0.7151
  147OSM      P16210   1.204   4.246   2.638  0.4640  0.1079 -0.1911
  147OSM    O1316211   1.305   4.169   2.570 -0.0187  0.1529 -0.6358
  147OSM    O1416212   1.232   4.387   2.642 -0.3528 -0.2181  0.9192
  147OSM    O1116213   1.191   4.176   2.782 -0.1838 -0.7931 -0.3156
  147OSM    O1216214   1.060   4.220   2.577 -0.7249  0.4852 -0.5490
  147OSM    C1S16215   1.271   4.061   2.810 -0.1363 -0.3491 -0.5920
  147OSM    H1S16216   1.373   4.086   2.775 -0.5862  2.0404 -0.3961
  147OSM    H1T16217   1.235   3.970   2.759  0.0810 -0.4345 -0.5929
  147OSM     NF16218   1.387   3.944   3.009  0.1290 -0.3357 -0.2256
  147OSM    HNF16219   1.361   3.859   3.053  0.4242 -0.3429 -0.0574
  147OSM    C2S16220   1.278   4.038   2.962 -0.1481  0.2293  0.0949
  147OSM    H2S16221   1.304   4.137   3.004  1.3614 -1.0880  2.4639
  147OSM    C3S16222   1.139   4.006   3.019  0.1323 -0.1569  1.1079
  147OSM    H3S16223   1.112   3.907   2.976  0.3989  0.3804 -0.3819
  147OSM     O316224   1.027   4.090   2.968 -0.2101  0.6047  0.1844
  147OSM    HO316225   1.070   4.147   2.903  2.3140 -0.7436  0.5413
  147OSM    C4S16226   1.145   3.998   3.173  0.1677 -0.6862 -0.2534
  147OSM    H4S16227   1.142   3.895   3.212  2.0363 -0.1943  1.3692
  147OSM    C5S16228   1.132   4.100   3.258  1.0748 -0.6108 -0.7125
  147OSM    H5S16229   1.116   4.199   3.213 -2.4867 -0.4090  0.6465
  147OSM    C6S16230   1.115   4.094   3.410  0.2467 -0.5867  0.5751
  147OSM    H6S16231   1.181   4.164   3.466 -2.1743  0.1450  2.7181
  147OSM    H6T16232   1.132   3.990   3.444 -1.7468 -1.6558 -1.4541
  147OSM    C7S16233   0.962   4.139   3.430 -0.2367 -0.1704  0.1249
  147OSM    H7S16234   0.897   4.067   3.376 -1.8478  0.5506  1.0405
  147OSM    H7T16235   0.941   4.242   3.394 -1.6468  0.1327  1.6899
  147OSM    C8S16236   0.914   4.121   3.575 -0.0153  0.0540 -0.1620
  147OSM    H8S16237   0.968   4.201   3.630 -0.4564  0.3004 -0.0893
  147OSM    H8T16238   0.948   4.023   3.615  0.5694 -0.0973 -1.0042
  147OSM    C9S16239   0.764   4.152   3.592  0.2704  1.1234 -0.3291
  147OSM    H9S16240   0.707   4.073   3.539  1.2191  1.4797 -1.9173
  147OSM    H9T16241   0.740   4.254   3.557 -0.8332  0.8693 -0.3668
  147OSM   C10S16242   0.728   4.144   3.741  0.1506 -0.1320 -0.0899
  147OSM   H10S16243   0.812   4.180   3.804  0.6252  0.4802 -1.0415
  147OSM   H10T16244   0.714   4.038   3.769  1.1080 -0.4556 -0.7610
  147OSM   C11S16245   0.609   4.232   3.772 -0.5438 -1.1224 -0.3666
  147OSM   H11S16246   0.512   4.193   3.733 -1.3450  0.5462 -0.1154
  147OSM   H11T16247   0.637   4.332   3.734  0.9081 -0.1192  2.9749
  147OSM   C12S16248   0.585   4.238   3.919 -0.4124  0.3273 -0.9378
  147OSM   H12S16249   0.677   4.253   3.979 -1.1887 -0.5677  0.5409
  147OSM   H12T16250   0.548   4.136   3.944  0.7977  0.2346  0.6280
  147OSM   C13S16251   0.472   4.334   3.970 -0.8518 -0.4037 -0.2258
  147OSM   H13S16252   0.498   4.439   3.946  0.7050 -0.3479  1.4137
  147OSM   H13T16253   0.466   4.333   4.081 -1.0279 -0.1054 -0.2313
  147OSM   C14S16254   0.332   4.300   3.920  0.0606  0.2144  0.2647
  147OSM   H14S16255   0.305   4.193   3.937 -0.3992  0.1513 -0.7498
  147OSM   H14T16256   0.340   4.309   3.810  2.6014 -2.7552  0.0873
  147OSM   C15S16257   0.232   4.407   3.978  0.2825 -1.0114  0.1111
  147OSM   H15S16258   0.240   4.439   4.084 -1.6789  0.6700 -0.1940
  147OSM   H15T16259   0.129   4.372   3.955 -0.6634  0.9410  1.1163
  147OSM   C16S16260   0.234   4.547   3.908  0.1744  0.1845 -0.1882
  147OSM   H16S16261   0.242   4.520   3.800  1.1011  1.9478 -0.5982
  147OSM   H16T16262   0.318   4.618   3.925  0.5082 -0.4652  0.9612
  147OSM   C17S16263   0.111   4.628   3.947  0.1296 -0.1393 -0.2425
  147OSM   H17S16264   0.106   4.646   4.057 -2.6710 -0.5576 -0.2141
  147OSM   H17T16265   0.016   4.574   3.924 -0.7459  0.4022  1.7818
  147OSM   C18S16266   0.098   4.769   3.875 -0.4967 -0.6712 -0.2435
  147OSM   H18S16267   0.202   4.808   3.866 -0.1321 -1.4240  0.5658
  147OSM   H18T16268   0.040   4.854   3.918  1.2388  1.7238 -2.3380
  147OSM   H18U16269   0.059   4.753   3.772  1.3003 -1.8684 -0.7886
  147OSM    C1F16270   1.509   3.980   2.985  0.3295  0.1253  0.2104
  147OSM     OF16271   1.537   4.089   2.943 -0.1040 -0.5843  0.9746
  147OSM    C2F16272   1.614   3.871   3.027 -0.3312  0.2120 -0.3695
  147OSM    H2F16273   1.712   3.906   2.988 -0.0537  0.0571  0.1744
  147OSM    H2G16274   1.579   3.776   2.980  0.2357 -0.2271  0.0814
  147OSM    C3F16275   1.626   3.857   3.183 -0.3213  0.5289 -0.1791
  147OSM    H3F16276   1.526   3.816   3.210 -0.2439  0.4141 -0.0674
  147OSM    H3G16277   1.658   3.948   3.238  2.9362  0.5077 -1.8054
  147OSM    C4F16278   1.742   3.765   3.216  0.2441  0.0279  0.1027
  147OSM    H4F16279   1.834   3.827   3.202  0.3963 -0.2897 -0.3373
  147OSM    H4G16280   1.762   3.687   3.139  2.8862  0.7251 -0.0187
  147OSM    C5F16281   1.722   3.709   3.358  0.5197  0.2164  0.2400
  147OSM    H5F16282   1.731   3.599   3.357  1.3600  0.2390  1.6615
  147OSM    H5G16283   1.620   3.733   3.395  0.9569  0.8735  1.0664
  147OSM    C6F16284   1.830   3.760   3.452 -0.8165 -1.1494  0.0823
  147OSM    H6F16285   1.857   3.862   3.417 -0.5511 -1.5986 -1.0583
  147OSM    H6G16286   1.928   3.709   3.441  1.0844  1.3073  3.6273
  147OSM    C7F16287   1.789   3.759   3.600 -1.2239  0.3629 -0.9573
  147OSM    H7F16288   1.879   3.774   3.663 -0.4817 -0.1642 -1.8559
  147OSM    H7G16289   1.757   3.656   3.629  0.1839  0.5986  1.6605
  147OSM    C8F16290   1.674   3.856   3.649 -0.6581  0.0492  0.2610
  147OSM    H8F16291   1.581   3.813   3.604 -1.8818  1.3662  1.4243
  147OSM    H8G16292   1.695   3.953   3.599 -0.0942 -0.4791 -0.5532
  147OSM    C9F16293   1.646   3.858   3.796  0.2811  0.0944  0.0339
  147OSM    H9F16294   1.697   3.779   3.853 -0.5437  1.2300  2.5055
  147OSM   C10F16295   1.586   3.960   3.863  0.3833  0.3405 -0.7764
  147OSM   H10F16296   1.568   3.961   3.972 -0.1813  2.8746 -0.8443
  147OSM   C11F16297   1.518   4.076   3.797 -0.2329 -0.1895  0.1251
  147OSM   H11F16298   1.516   4.050   3.690  0.6718  0.2807 -0.0138
  147OSM   H11G16299   1.574   4.171   3.813  2.9302 -1.6420 -1.6087
  147OSM   C12F16300   1.369   4.085   3.840 -0.1738  0.0913  0.3497
  147OSM   H12F16301   1.315   3.991   3.861  2.2787 -2.1295 -2.4147
  147OSM   H12G16302   1.319   4.138   3.756  1.3436 -1.8558 -1.8961
  147OSM   C13F16303   1.351   4.176   3.962  0.1826  0.1425  0.4115
  147OSM   H13F16304   1.402   4.273   3.950  2.2118 -0.7834  1.0872
  147OSM   H13G16305   1.401   4.137   4.054  0.2017 -2.2219 -0.5231
  147OSM   C14F16306   1.194   4.197   3.992  0.1552 -0.4793  0.4041
  147OSM   H14F16307   1.144   4.103   4.023  1.3929 -0.2886  3.2504
  147OSM   H14G16308   1.146   4.231   3.898 -0.6712 -1.9809  0.2474
  147OSM   C15F16309   1.165   4.307   4.093  0.0941 -0.8117  0.0505
  147OSM   H15F16310   1.230   4.393   4.069 -1.3539  0.0725 -0.8678
  147OSM   H15G16311   1.184   4.272   4.197  0.1928 -1.2782 -0.1225
  147OSM   C16F16312   1.017   4.358   4.086 -1.0922 -0.0037  0.1078
  147OSM   H16F16313   0.945   4.274   4.096 -0.4966 -0.3072  2.5671
  147OSM   H16G16314   1.006   4.398   3.983  1.5113 -0.7503 -0.5517
  147OSM   C17F16315   0.982   4.462   4.193  0.1015  0.0993 -0.0159
  147OSM   H17F16316   1.026   4.559   4.162  1.6655 -0.2544  0.9387
  147OSM   H17G16317   1.030   4.423   4.286  1.1336 -0.4053 -0.7354
  147OSM   C18F16318   0.831   4.476   4.212 -0.4836 -0.1301 -0.6933
  147OSM   H18F16319   0.774   4.531   4.134 -1.2628  2.8694  1.7678
  147OSM   H18G16320   0.814   4.552   4.291  0.5089  2.8133 -3.1042
  147OSM   H18H16321   0.778   4.383   4.240  1.0613 -0.4245  1.5700
  148OSM      N16322   6.745   6.241   1.791 -0.2788  1.0867  0.5218
  148OSM    C1516323   6.829   6.117   1.811 -0.0359  0.3209  1.0569
  148OSM   H15A16324   6.841   6.064   1.717 -1.6695  1.2198  0.3077
  148OSM   H15B16325   6.773   6.050   1.874 -0.9421  2.2435  2.3630
  148OSM   H15C16326   6.921   6.144   1.862  1.0175  2.2113 -1.5920
  148OSM    C1416327   6.826   6.342   1.720 -0.4904  0.8753  0.5529
  148OSM   H14A16328   6.760   6.426   1.706 -1.8289 -0.4459 -1.6060
  148OSM   H14B16329   6.863   6.305   1.626 -0.2299  0.3769  0.8431
  148OSM   H14C16330   6.911   6.372   1.779 -0.1360 -0.0903  0.5579
  148OSM    C1316331   6.631   6.196   1.698 -0.3084  0.1984 -0.5190
  148OSM   H13A16332   6.582   6.289   1.671 -0.0393  0.3746 -0.4058
  148OSM   H13B16333   6.564   6.120   1.734 -0.5218 -0.6412 -2.5487
  148OSM   H13C16334   6.676   6.169   1.603  1.5315  2.9788 -0.5554
  148OSM    C1216335   6.705   6.296   1.921 -0.0930 -0.7095 -0.2441
  148OSM   H12A16336   6.666   6.227   1.994  2.2711  0.1496  1.9826
  148OSM   H12B16337   6.624   6.366   1.907 -0.4671 -1.0551  0.1845
  148OSM    C1116338   6.814   6.364   2.004  0.1246 -0.0251 -0.7182
  148OSM   H11A16339   6.914   6.315   2.006 -0.3489 -1.0005 -0.2708
  148OSM   H11B16340   6.785   6.363   2.111  1.3949  2.3806 -0.2808
  148OSM      P16341   6.972   6.575   1.973 -0.2373  0.0504 -0.5169
  148OSM    O1316342   7.075   6.515   1.887  0.8235 -0.4166  0.0231
  148OSM    O1416343   6.948   6.719   1.961 -0.4249  0.0602  0.2187
  148OSM    O1116344   7.023   6.547   2.117 -0.1308  0.6268  0.5470
  148OSM    O1216345   6.836   6.498   1.962 -0.5153  0.0903 -0.0524
  148OSM    C1S16346   6.967   6.591   2.244  0.2820  0.3109  0.8630
  148OSM    H1S16347   6.861   6.620   2.232 -0.5037 -2.2783  0.8695
  148OSM    H1T16348   7.030   6.677   2.276  2.4303 -1.0292  0.4394
  148OSM     NF16349   6.921   6.520   2.475  0.1008 -0.3118  0.0987
  148OSM    HNF16350   6.975   6.582   2.531  2.9850 -1.3935 -1.2956
  148OSM    C2S16351   6.989   6.485   2.351  0.3703 -0.0307 -0.6922
  148OSM    H2S16352   6.951   6.384   2.328 -0.1619 -0.1713  0.7015
  148OSM    C3S16353   7.138   6.466   2.383  0.4763 -0.3319  0.5409
  148OSM    H3S16354   7.179   6.565   2.413  0.9341 -0.0178 -1.0194
  148OSM     O316355   7.217   6.447   2.266 -0.0406  0.3602  0.6573
  148OSM    HO316356   7.149   6.443   2.199  0.3092 -0.0164  0.3185
  148OSM    C4S16357   7.172   6.372   2.492  0.4276 -0.1155  0.2708
  148OSM    H4S16358   7.166   6.422   2.590 -0.6503 -0.3430  0.3266
  148OSM    C5S16359   7.187   6.240   2.474 -0.3991  0.5418 -0.2336
  148OSM    H5S16360   7.163   6.200   2.374 -1.0491  0.0976  0.0977
  148OSM    C6S16361   7.241   6.143   2.572  0.3631  0.2857 -0.2500
  148OSM    H6S16362   7.281   6.196   2.661 -1.7963  1.1031  0.3033
  148OSM    H6T16363   7.331   6.096   2.527  1.9325  1.1440  1.7955
  148OSM    C7S16364   7.142   6.039   2.619 -0.2395 -0.1789 -0.3609
  148OSM    H7S16365   7.120   5.971   2.534  1.0147 -1.1978  0.0998
  148OSM    H7T16366   7.048   6.083   2.660  0.1493 -1.8389  2.6140
  148OSM    C8S16367   7.212   5.941   2.727  0.0890 -0.5591  0.1730
  148OSM    H8S16368   7.290   5.990   2.789 -0.0988 -0.1193  0.0734
  148OSM    H8T16369   7.254   5.859   2.665  1.5883  0.1068  0.2711
  148OSM    C9S16370   7.112   5.884   2.827  0.2269 -0.0852  0.2791
  148OSM    H9S16371   7.145   5.782   2.857  1.9672  0.4382  0.2730
  148OSM    H9T16372   7.017   5.885   2.770  1.5442  3.3589 -2.2595
  148OSM   C10S16373   7.090   5.975   2.944 -0.3281  0.3080 -0.1781
  148OSM   H10S16374   6.993   5.955   2.995 -0.3056  1.2631  0.2492
  148OSM   H10T16375   7.093   6.078   2.904  0.6800  0.1188 -0.6254
  148OSM   C11S16376   7.209   5.959   3.043  0.5413 -0.0406  0.3310
  148OSM   H11S16377   7.316   5.969   3.014  0.9603 -2.3941  0.8311
  148OSM   H11T16378   7.199   5.858   3.088 -1.8348 -0.1664 -0.3544
  148OSM   C12S16379   7.199   6.051   3.163 -0.0447  0.0644 -0.8626
  148OSM   H12S16380   7.095   6.048   3.204 -0.2729 -0.1591 -1.4502
  148OSM   H12T16381   7.216   6.157   3.136  0.4301  0.3987  0.6144
  148OSM   C13S16382   7.299   6.017   3.275 -0.0103  0.1679  0.2532
  148OSM   H13S16383   7.404   6.022   3.241 -0.1880 -0.5862 -0.4471
  148OSM   H13T16384   7.280   5.911   3.305  0.8819  0.1373  0.7408
  148OSM   C14S16385   7.277   6.106   3.399  0.1179  0.4590 -0.1233
  148OSM   H14S16386   7.181   6.088   3.451  1.3066 -1.9614  1.4845
  148OSM   H14T16387   7.286   6.213   3.371  1.3996  0.6395  0.8482
  148OSM   C15S16388   7.371   6.094   3.518  0.5075  0.4358  0.1516
  148OSM   H15S16389   7.476   6.101   3.484  0.4716 -1.0850 -0.3217
  148OSM   H15T16390   7.370   5.991   3.560 -0.8413  0.1593 -0.5092
  148OSM   C16S16391   7.319   6.178   3.640 -0.0609  0.1179  0.1061
  148OSM   H16S16392   7.217   6.142   3.666 -0.7174  2.6727  1.5439
  148OSM   H16T16393   7.317   6.283   3.604  1.0655 -0.8398 -3.0496
  148OSM   C17S16394   7.406   6.152   3.765 -0.4268 -0.0742 -0.0065
  148OSM   H17S16395   7.510   6.188   3.746 -0.3512 -0.1356  0.2860
  148OSM   H17T16396   7.414   6.043   3.783  0.2453 -0.1824 -0.9008
  148OSM   C18S16397   7.357   6.220   3.895 -0.0703 -0.2364  0.2877
  148OSM   H18S16398   7.379   6.327   3.913 -1.1353 -0.2916  2.1140
  148OSM   H18T16399   7.396   6.153   3.975 -0.4856 -2.2879 -1.1301
  148OSM   H18U16400   7.246   6.219   3.894 -0.1095  0.8463  1.5779
  148OSM    C1F16401   6.792   6.523   2.486  0.8587  0.7529  0.5957
  148OSM     OF16402   6.719   6.480   2.396 -0.3423 -0.0901  0.2959
  148OSM    C2F16403   6.728   6.579   2.608 -0.4042 -0.3357  0.2537
  148OSM    H2F16404   6.809   6.593   2.682  2.1366  2.4007 -2.7645
  148OSM    H2G16405   6.673   6.492   2.649  0.7330 -0.8863  0.6319
  148OSM    C3F16406   6.635   6.698   2.586  0.3349 -1.0303 -0.2197
  148OSM    H3F16407   6.568   6.674   2.501  2.0808 -2.0278 -1.3660
  148OSM    H3G16408   6.679   6.796   2.559 -0.9713  0.2147  1.8531
  148OSM    C4F16409   6.556   6.742   2.714  0.4259 -0.2314 -0.4029
  148OSM    H4F16410   6.482   6.663   2.738  0.8142 -0.5891 -0.3625
  148OSM    H4G16411   6.496   6.830   2.683 -1.6961 -1.7114 -0.7184
  148OSM    C5F16412   6.653   6.782   2.827 -0.2400 -0.3546  0.4925
  148OSM    H5F16413   6.717   6.863   2.785  0.8888 -0.7976  1.3020
  148OSM    H5G16414   6.716   6.695   2.857  0.0232 -0.3621 -0.0850
  148OSM    C6F16415   6.585   6.844   2.950 -0.3519  0.2787 -0.5866
  148OSM    H6F16416   6.517   6.763   2.983 -0.5702  0.1210 -1.3843
  148OSM    H6G16417   6.525   6.927   2.908  0.7560  0.3735 -2.0739
  148OSM    C7F16418   6.686   6.899   3.058  0.5240 -0.3956  0.0211
  148OSM    H7F16419   6.741   6.977   3.002 -0.5373 -0.6775 -1.4606
  148OSM    H7G16420   6.754   6.815   3.085 -1.9950 -2.7374 -0.4472
  148OSM    C8F16421   6.607   6.958   3.176  0.1575 -0.0801  0.0938
  148OSM    H8F16422   6.541   7.034   3.129 -1.5839 -1.2978  0.4634
  148OSM    H8G16423   6.680   7.002   3.247 -1.2120  2.6944 -0.0974
  148OSM    C9F16424   6.515   6.863   3.242 -0.1224  0.3900  0.3428
  148OSM    H9F16425   6.409   6.856   3.214  0.0527 -1.6691  0.0245
  148OSM   C10F16426   6.543   6.785   3.348  0.0801 -0.2665  0.0689
  148OSM   H10F16427   6.462   6.726   3.393  0.7603 -0.7549  0.6762
  148OSM   C11F16428   6.669   6.777   3.434 -0.0304 -0.3474 -0.1978
  148OSM   H11F16429   6.730   6.868   3.414  0.5766 -0.9407 -1.0892
  148OSM   H11G16430   6.737   6.690   3.427  0.0527 -0.6545  3.0293
  148OSM   C12F16431   6.649   6.789   3.584  0.1449 -0.0241  0.0363
  148OSM   H12F16432   6.753   6.793   3.623  0.9515  2.7812 -2.0663
  148OSM   H12G16433   6.599   6.700   3.627 -0.8386  1.3556  1.9114
  148OSM   C13F16434   6.564   6.903   3.631  0.3734 -0.6414  0.2712
  148OSM   H13F16435   6.462   6.882   3.592  0.3143 -0.5486  0.3741
  148OSM   H13G16436   6.612   6.995   3.589  0.6238 -0.8730  0.0481
  148OSM   C14F16437   6.563   6.922   3.788  0.2024  0.0370  0.6226
  148OSM   H14F16438   6.655   6.875   3.829 -0.6304 -0.5916  1.8389
  148OSM   H14G16439   6.481   6.859   3.829  0.1948 -0.2670  0.1410
  148OSM   C15F16440   6.544   7.063   3.844 -0.0318 -0.2419  0.5995
  148OSM   H15F16441   6.453   7.103   3.796 -0.4149 -1.5760  0.1574
  148OSM   H15G16442   6.636   7.115   3.809  0.2346 -1.4953 -0.6574
  148OSM   C16F16443   6.539   7.074   3.996 -0.3449  0.2926  0.7654
  148OSM   H16F16444   6.569   7.181   4.006 -0.7765  0.8126 -2.2648
  148OSM   H16G16445   6.614   7.013   4.049 -1.1066 -1.9012 -0.5604
  148OSM   C17F16446   6.406   7.043   4.057  0.6412  0.5324  0.7164
  148OSM   H17F16447   6.379   6.936   4.041  1.1018  0.5224 -0.0230
  148OSM   H17G16448   6.329   7.106   4.008 -0.4050 -0.6402  0.7957
  148OSM   C18F16449   6.397   7.065   4.206 -0.2929 -0.0704 -0.3058
  148OSM   H18F16450   6.299   7.036   4.251 -0.0864 -0.8739 -0.3666
  148OSM   H18G16451   6.432   7.171   4.210  0.7022 -0.3782 -0.6438
  148OSM   H18H16452   6.474   7.000   4.252  1.0022  1.0912 -0.7859
  149OSM      N16453   1.613   3.898   2.424 -0.1517  0.1438  0.7256
  149OSM    C1516454   1.744   3.932   2.487  0.0268 -0.1375 -0.1561
  149OSM   H15A16455   1.746   4.012   2.559 -0.6414  0.3273 -0.6461
  149OSM   H15B16456   1.824   3.958   2.419  0.6064 -0.8064  0.2575
  149OSM   H15C16457   1.772   3.844   2.543 -1.2485 -0.7911 -0.4969
  149OSM    C1416458   1.598   3.992   2.311 -0.2462 -0.1138  0.7725
  149OSM   H14A16459   1.504   3.977   2.260  0.4770  1.0665 -0.9885
  149OSM   H14B16460   1.675   3.969   2.238  0.3133  2.9554  0.2779
  149OSM   H14C16461   1.602   4.096   2.339 -0.7298 -0.4255  2.0815
  149OSM    C1316462   1.600   3.765   2.374  0.6909  0.3355 -0.1622
  149OSM   H13A16463   1.511   3.745   2.316  1.2925 -0.1205 -0.9442
  149OSM   H13B16464   1.592   3.695   2.456  2.4004 -0.5268 -0.6930
  149OSM   H13C16465   1.686   3.744   2.312  1.8679 -0.7875  1.7571
  149OSM    C1216466   1.493   3.920   2.516 -0.8189 -0.0025 -0.8943
  149OSM   H12A16467   1.400   3.898   2.467 -0.3217 -2.7325 -0.7719
  149OSM   H12B16468   1.490   4.024   2.544 -2.0442  0.2171 -1.7902
  149OSM    C1116469   1.494   3.832   2.645 -0.2374  0.3890 -0.6181
  149OSM   H11A16470   1.418   3.877   2.713  0.7241  0.2824  0.5641
  149OSM   H11B16471   1.593   3.843   2.693 -0.0117  0.2081 -1.0382
  149OSM      P16472   1.302   3.667   2.571  0.2669  0.1818 -0.3035
  149OSM    O1316473   1.249   3.776   2.483  0.1618  0.4127 -0.0472
  149OSM    O1416474   1.308   3.530   2.503  0.2023 -0.7627  0.2339
  149OSM    O1116475   1.216   3.656   2.704  0.0157  0.3474 -0.6196
  149OSM    O1216476   1.452   3.700   2.624  0.9321  0.4912 -0.1220
  149OSM    C1S16477   1.265   3.580   2.815  0.4196 -0.1954  0.7209
  149OSM    H1S16478   1.342   3.648   2.856  1.3564  0.5924 -2.0995
  149OSM    H1T16479   1.316   3.486   2.783 -1.3700 -1.3559  1.0821
  149OSM     NF16480   1.209   3.495   3.039 -0.0277 -0.6627 -0.9997
  149OSM    HNF16481   1.207   3.396   3.048 -2.8103 -0.8462 -2.6079
  149OSM    C2S16482   1.156   3.552   2.917 -0.1060 -0.6092 -0.2201
  149OSM    H2S16483   1.109   3.650   2.941  1.1025  0.5479 -2.2478
  149OSM    C3S16484   1.055   3.456   2.847 -0.3970  0.1201 -0.8196
  149OSM    H3S16485   1.111   3.363   2.824 -0.2341  0.0670 -0.2006
  149OSM     O316486   1.003   3.507   2.729  0.5705  0.1459 -0.0139
  149OSM    HO316487   1.067   3.574   2.708 -0.3190  0.5535 -1.6229
  149OSM    C4S16488   0.948   3.431   2.949  0.2408 -0.2194 -0.5175
  149OSM    H4S16489   0.874   3.512   2.953 -1.0167 -1.1794 -2.6824
  149OSM    C5S16490   0.929   3.315   3.016 -0.3166  0.4184  0.6229
  149OSM    H5S16491   0.997   3.230   3.001 -0.0761  1.0286 -2.1382
  149OSM    C6S16492   0.815   3.292   3.105 -0.3034  0.2506 -0.7591
  149OSM    H6S16493   0.751   3.209   3.068  0.5493 -1.0416  0.5690
  149OSM    H6T16494   0.751   3.381   3.123  2.3374  2.5624 -2.1210
  149OSM    C7S16495   0.877   3.238   3.237  0.5299 -0.1452 -0.1673
  149OSM    H7S16496   0.942   3.151   3.215 -0.5619 -0.9961 -0.1724
  149OSM    H7T16497   0.800   3.205   3.311 -1.4173  1.6981 -1.2724
  149OSM    C8S16498   0.954   3.348   3.317  0.2914 -0.3416  0.4242
  149OSM    H8S16499   0.899   3.444   3.307  1.1626  0.0243 -1.2001
  149OSM    H8T16500   1.047   3.359   3.258 -0.0903  0.1640 -0.0905
  149OSM    C9S16501   0.993   3.310   3.456  0.4507  0.4185 -1.4577
  149OSM    H9S16502   1.059   3.377   3.515  1.3829 -0.4996 -1.4378
  149OSM    H9T16503   1.049   3.214   3.452  0.6219  0.4203  0.1640
  149OSM   C10S16504   0.873   3.297   3.552  0.0722  0.2584  0.4880
  149OSM   H10S16505   0.785   3.258   3.497  1.4592 -0.7126 -1.1642
  149OSM   H10T16506   0.843   3.401   3.581 -0.9152  0.2312 -0.3711
  149OSM   C11S16507   0.912   3.219   3.670  0.4682 -0.2478 -0.7327
  149OSM   H11S16508   0.998   3.273   3.716  1.2009  0.8646 -3.2441
  149OSM   H11T16509   0.953   3.117   3.655 -0.7308 -0.7650 -0.5952
  149OSM   C12S16510   0.800   3.217   3.774  0.1522 -0.2086 -1.0168
  149OSM   H12S16511   0.712   3.152   3.755  0.0713 -0.5679  0.4880
  149OSM   H12T16512   0.743   3.312   3.772 -0.5261 -0.5973 -0.4778
  149OSM   C13S16513   0.856   3.187   3.915  0.5700  0.2707  0.1649
  149OSM   H13S16514   0.959   3.227   3.931  0.6345  0.2043 -0.0678
  149OSM   H13T16515   0.870   3.077   3.922 -0.4943  0.0245 -1.0911
  149OSM   C14S16516   0.767   3.225   4.030  0.3095  0.1559  0.1923
  149OSM   H14S16517   0.781   3.154   4.114  2.3342 -0.4397 -0.5786
  149OSM   H14T16518   0.662   3.212   3.996  0.7832  1.9305 -2.2864
  149OSM   C15S16519   0.760   3.376   4.074 -0.1233 -0.3640  0.8660
  149OSM   H15S16520   0.668   3.424   4.034  0.0653  0.3556  1.2794
  149OSM   H15T16521   0.848   3.435   4.041 -0.3350 -0.5486 -0.0480
  149OSM   C16S16522   0.754   3.387   4.224  0.3052 -0.1280 -0.4723
  149OSM   H16S16523   0.778   3.490   4.257 -0.2006 -0.2943  0.4318
  149OSM   H16T16524   0.824   3.310   4.263  1.1176  0.9395  0.1949
  149OSM   C17S16525   0.606   3.366   4.260  0.1342  0.2280 -0.2642
  149OSM   H17S16526   0.563   3.275   4.213  2.3858 -0.9615 -0.1862
  149OSM   H17T16527   0.554   3.449   4.209  1.2571  1.6827  0.8557
  149OSM   C18S16528   0.558   3.374   4.407  0.5694 -0.2880  0.2936
  149OSM   H18S16529   0.615   3.318   4.484  0.6619 -0.5520  0.0341
  149OSM   H18T16530   0.452   3.342   4.407  0.5279 -0.1728  1.1259
  149OSM   H18U16531   0.567   3.480   4.440 -1.8932  0.2064 -0.3806
  149OSM    C1F16532   1.276   3.573   3.129 -0.1778  0.1612  0.1361
  149OSM     OF16533   1.292   3.696   3.112  0.6503  0.3008  0.1271
  149OSM    C2F16534   1.333   3.521   3.252  0.2364  0.3552 -0.1269
  149OSM    H2F16535   1.444   3.523   3.243  0.4694  0.7839  2.2094
  149OSM    H2G16536   1.306   3.414   3.270 -1.2342  0.9801  1.6907
  149OSM    C3F16537   1.297   3.604   3.382  0.1245  0.3326  0.1120
  149OSM    H3F16538   1.188   3.618   3.397  0.0347 -0.5880  0.3949
  149OSM    H3G16539   1.346   3.703   3.376 -0.5609  0.6807  0.1281
  149OSM    C4F16540   1.364   3.542   3.506 -0.4110 -0.5469  0.7551
  149OSM    H4F16541   1.473   3.529   3.486 -0.4554 -0.2512  0.3151
  149OSM    H4G16542   1.323   3.441   3.526  1.5730 -1.4583  0.4959
  149OSM    C5F16543   1.353   3.629   3.631  0.1384  0.0972  0.4753
  149OSM    H5F16544   1.357   3.735   3.596  0.6428  0.3236  1.1864
  149OSM    H5G16545   1.442   3.613   3.696 -0.9192 -1.3489  1.6426
  149OSM    C6F16546   1.225   3.599   3.701 -0.1429  0.4079  0.1619
  149OSM    H6F16547   1.222   3.503   3.757  1.0777 -0.3383 -1.0006
  149OSM    H6G16548   1.140   3.602   3.630 -0.1354  0.3610  0.1505
  149OSM    C7F16549   1.193   3.719   3.795 -0.1441  0.2952  0.5592
  149OSM    H7F16550   1.213   3.807   3.730 -2.9523  0.8370  0.2613
  149OSM    H7G16551   1.272   3.723   3.872  1.3559 -1.4676 -0.7882
  149OSM    C8F16552   1.045   3.725   3.834 -0.8399  0.4194  0.1523
  149OSM    H8F16553   0.983   3.687   3.750 -0.0528 -0.0035 -0.2593
  149OSM    H8G16554   1.030   3.834   3.849  0.0231  0.3391  1.8485
  149OSM    C9F16555   1.023   3.639   3.958 -0.3605  0.3978  0.2826
  149OSM    H9F16556   0.966   3.549   3.932  0.0621  0.3320 -0.4289
  149OSM   C10F16557   1.052   3.673   4.086 -0.1820  0.1308 -0.0413
  149OSM   H10F16558   1.030   3.588   4.153  0.4643 -2.4158 -2.8341
  149OSM   C11F16559   1.119   3.792   4.148  0.2704 -0.6132 -0.0369
  149OSM   H11F16560   1.064   3.821   4.240 -1.6756 -2.4556 -0.5263
  149OSM   H11G16561   1.121   3.880   4.081  2.4548  0.0570  0.8287
  149OSM   C12F16562   1.266   3.758   4.189 -0.0368  0.0513 -0.6134
  149OSM   H12F16563   1.308   3.728   4.091 -0.0946 -2.3382  0.0447
  149OSM   H12G16564   1.283   3.669   4.252 -1.4731 -0.1364 -0.4422
  149OSM   C13F16565   1.342   3.876   4.241 -0.2718  1.1082  0.5869
  149OSM   H13F16566   1.292   3.919   4.331 -1.1088  2.6544 -0.5621
  149OSM   H13G16567   1.345   3.948   4.156  3.7591 -0.3250 -0.7030
  149OSM   C14F16568   1.484   3.854   4.275 -0.3392  0.6724 -0.5605
  149OSM   H14F16569   1.540   3.950   4.269  0.5964  0.1112 -1.0139
  149OSM   H14G16570   1.538   3.784   4.207  0.8032  1.3626 -0.4044
  149OSM   C15F16571   1.501   3.794   4.419 -0.0618  0.0525 -0.4039
  149OSM   H15F16572   1.462   3.691   4.403 -1.6363  0.7335 -1.1998
  149OSM   H15G16573   1.431   3.842   4.491 -1.4432 -0.7493 -1.1658
  149OSM   C16F16574   1.646   3.797   4.473 -0.3053 -0.6785 -0.2066
  149OSM   H16F16575   1.650   3.761   4.578 -1.6809 -0.1282  0.0593
  149OSM   H16G16576   1.684   3.902   4.473  1.2085 -1.1953  0.8655
  149OSM   C17F16577   1.748   3.724   4.382  0.1285 -0.8025  0.1953
  149OSM   H17F16578   1.729   3.767   4.282 -0.4643 -1.5312 -0.0106
  149OSM   H17G16579   1.736   3.614   4.388 -2.1624 -0.5586  1.1233
  149OSM   C18F16580   1.889   3.756   4.431  0.1639  0.5440 -0.6744
  149OSM   H18F16581   1.889   3.717   4.535  1.5922  0.6548 -0.6050
  149OSM   H18G16582   1.922   3.862   4.434  0.5141  0.4430 -0.8732
  149OSM   H18H16583   1.966   3.694   4.380 -0.5374 -1.8851  1.0408
  150OSM      N16584   5.998   0.522   2.067  0.3935  0.0970 -0.1072
  150OSM    C1516585   6.117   0.605   2.079 -0.5161 -0.6769  0.0627
  150OSM   H15A16586   6.092   0.706   2.107  0.2538 -0.5073  0.1582
  150OSM   H15B16587   6.168   0.615   1.985  0.9685 -0.4469  0.8639
  150OSM   H15C16588   6.189   0.563   2.147  0.6431  0.4790 -0.4227
  150OSM    C1416589   5.898   0.590   1.977  0.3080  0.4334 -0.3225
  150OSM   H14A16590   5.848   0.672   2.026 -0.1938  2.0094 -3.2229
  150OSM   H14B16591   5.814   0.528   1.949 -0.1547  1.7127 -1.9733
  150OSM   H14C16592   5.934   0.634   1.885 -0.6781 -1.0962 -1.4945
  150OSM    C1316593   6.046   0.390   2.017 -0.0394  0.5833 -0.0465
  150OSM   H13A16594   5.980   0.304   2.014 -0.2670  0.6676  1.4806
  150OSM   H13B16595   6.121   0.346   2.083 -0.3676 -1.4991 -0.9655
  150OSM   H13C16596   6.090   0.410   1.921  0.6672  3.7003  0.8043
  150OSM    C1216597   5.943   0.503   2.207 -0.5335  0.2157 -0.4563
  150OSM   H12A16598   5.855   0.440   2.200 -0.5983  0.2191  0.1857
  150OSM   H12B16599   5.899   0.595   2.242  1.1198  0.4049  1.2796
  150OSM    C1116600   6.035   0.438   2.325 -0.2714 -0.3823 -0.0348
  150OSM   H11A16601   5.990   0.472   2.420  1.8061  0.8310  0.5756
  150OSM   H11B16602   6.136   0.486   2.328 -0.8387  0.9693 -1.2865
  150OSM      P16603   5.940   0.188   2.336  0.4608  0.0008 -0.0535
  150OSM    O1316604   5.818   0.234   2.268 -0.1559  0.2843  0.0203
  150OSM    O1416605   5.997   0.062   2.284  0.2584 -0.5525 -0.3031
  150OSM    O1116606   5.922   0.180   2.497  0.1380  0.3290 -0.1364
  150OSM    O1216607   6.047   0.302   2.306  0.2451 -0.1833 -0.2128
  150OSM    C1S16608   6.035   0.212   2.576  0.4990 -0.6342  0.5471
  150OSM    H1S16609   6.025   0.321   2.599 -0.6236 -0.9188  1.5626
  150OSM    H1T16610   6.132   0.174   2.538  1.7331  1.7893  1.0697
  150OSM     NF16611   6.098   0.231   2.812  0.3148 -0.3331 -0.8099
  150OSM    HNF16612   6.194   0.205   2.817  0.2330 -0.6073 -0.6384
  150OSM    C2S16613   6.022   0.150   2.718  0.0913 -0.0378 -0.3246
  150OSM    H2S16614   5.918   0.155   2.756  0.6942 -2.5392  1.9964
  150OSM    C3S16615   6.053   0.002   2.717  0.1902  0.2832  0.2672
  150OSM    H3S16616   6.162  -0.016   2.707 -0.0961 -1.8723  0.6141
  150OSM     O316617   6.006  -0.064   2.595  0.2494 -0.1321  0.3251
  150OSM    HO316618   5.972   0.011   2.545  1.3614  0.5637  0.5759
  150OSM    C4S16619   6.024  -0.068   2.844 -0.4399  0.4632 -0.4843
  150OSM    H4S16620   5.919  -0.081   2.873 -0.7686  2.7406 -0.4651
  150OSM    C5S16621   6.122  -0.102   2.931  0.3934  1.1275  0.0358
  150OSM    H5S16622   6.228  -0.107   2.900  0.5428 -2.3422  0.6932
  150OSM    C6S16623   6.093  -0.163   3.069  0.3877  0.3806  0.2497
  150OSM    H6S16624   6.190  -0.182   3.119  1.0489 -2.0966 -1.7984
  150OSM    H6T16625   6.038  -0.260   3.072  0.9149  0.0754  0.2752
  150OSM    C7S16626   6.022  -0.059   3.151  0.5757 -0.2799 -0.5206
  150OSM    H7S16627   6.003  -0.104   3.251  0.5440  0.5224 -0.1628
  150OSM    H7T16628   5.923  -0.027   3.113 -1.1309 -3.4039  0.8623
  150OSM    C8S16629   6.096   0.069   3.183 -0.1604 -0.4245  0.2915
  150OSM    H8S16630   6.097   0.144   3.101 -0.7691  1.4157  1.9005
  150OSM    H8T16631   6.205   0.045   3.182 -0.2408 -0.7748 -0.1045
  150OSM    C9S16632   6.043   0.128   3.318 -0.6153  0.2461  0.0807
  150OSM    H9S16633   6.074   0.045   3.386 -0.7275 -3.8321 -4.3353
  150OSM    H9T16634   5.932   0.133   3.312 -0.5506  0.3565 -1.3472
  150OSM   C10S16635   6.112   0.255   3.357  0.0331 -0.3580  0.1706
  150OSM   H10S16636   6.091   0.325   3.273  2.2205 -1.5783 -1.5245
  150OSM   H10T16637   6.221   0.236   3.367  0.7034  2.6570 -0.5788
  150OSM   C11S16638   6.067   0.310   3.494 -0.3262 -0.8807  0.6318
  150OSM   H11S16639   5.966   0.354   3.481  0.6772  1.1633 -0.8471
  150OSM   H11T16640   6.139   0.381   3.540  1.0323 -1.4940 -0.4768
  150OSM   C12S16641   6.047   0.201   3.603 -0.2276 -0.6437  0.2820
  150OSM   H12S16642   6.138   0.140   3.587 -1.9133 -2.5876 -2.9100
  150OSM   H12T16643   5.959   0.144   3.566  0.5543 -0.8546 -1.3239
  150OSM   C13S16644   6.032   0.232   3.752 -0.2463 -0.4929 -0.3593
  150OSM   H13S16645   6.115   0.299   3.785  0.8401 -1.0273 -1.8885
  150OSM   H13T16646   6.052   0.131   3.791 -2.3613 -1.7461 -2.2639
  150OSM   C14S16647   5.891   0.285   3.785 -0.6619  1.1179  0.0331
  150OSM   H14S16648   5.816   0.203   3.783  2.8647 -2.4288  0.7399
  150OSM   H14T16649   5.886   0.362   3.705  0.7028 -0.3066 -1.5043
  150OSM   C15S16650   5.881   0.353   3.920  0.1584  0.1871 -0.4770
  150OSM   H15S16651   5.786   0.410   3.928  0.3537  0.2679  2.0413
  150OSM   H15T16652   5.968   0.419   3.940 -2.0949  3.4278 -0.7069
  150OSM   C16S16653   5.864   0.249   4.041 -0.6012  0.4074  0.5631
  150OSM   H16S16654   5.917   0.155   4.014 -0.2428  1.7591 -4.5178
  150OSM   H16T16655   5.757   0.229   4.062 -0.5456  0.7953  1.2437
  150OSM   C17S16656   5.923   0.309   4.174  0.0821 -0.0343 -0.5954
  150OSM   H17S16657   5.895   0.417   4.174  0.9532  0.2215  0.7984
  150OSM   H17T16658   6.030   0.283   4.185  0.4951  0.9024 -2.1541
  150OSM   C18S16659   5.851   0.251   4.295 -0.2489 -0.4543 -0.0716
  150OSM   H18S16660   5.838   0.141   4.296 -0.0204 -0.5429  2.8507
  150OSM   H18T16661   5.746   0.288   4.300  0.2993  2.2368 -4.0783
  150OSM   H18U16662   5.901   0.278   4.391  0.5051 -1.9534 -0.0291
  150OSM    C1F16663   6.052   0.342   2.868 -0.0559 -0.3405  0.2882
  150OSM     OF16664   5.934   0.387   2.852 -1.6302  0.0680 -0.3058
  150OSM    C2F16665   6.158   0.419   2.941  0.4049 -0.2827 -0.7616
  150OSM    H2F16666   6.231   0.475   2.879 -0.3393 -1.4849 -2.8055
  150OSM    H2G16667   6.212   0.339   2.996  2.2984  1.1003 -0.5075
  150OSM    C3F16668   6.089   0.527   3.041  0.1423  0.5529 -0.1385
  150OSM    H3F16669   6.020   0.477   3.112 -0.5468  1.2714 -0.2781
  150OSM    H3G16670   6.028   0.598   2.982 -1.6277  0.7371  1.7932
  150OSM    C4F16671   6.191   0.615   3.104 -0.5045  0.4569 -1.1635
  150OSM    H4F16672   6.259   0.675   3.039  1.3734  0.4892  0.7286
  150OSM    H4G16673   6.258   0.556   3.171 -0.6184  1.2441 -0.3344
  150OSM    C5F16674   6.128   0.705   3.217 -0.6855  1.3747 -0.3682
  150OSM    H5F16675   6.032   0.746   3.178 -0.2810  1.4124 -1.3547
  150OSM    H5G16676   6.207   0.784   3.217  1.2443 -0.4666 -0.4458
  150OSM    C6F16677   6.116   0.639   3.358 -0.2155  0.6206 -0.4094
  150OSM    H6F16678   6.199   0.571   3.385 -0.4534  0.4533 -0.0990
  150OSM    H6G16679   6.024   0.578   3.360  0.8065 -1.0130  3.0323
  150OSM    C7F16680   6.107   0.741   3.472  0.2673 -0.0874  0.3699
  150OSM    H7F16681   6.014   0.798   3.456  1.4164  1.2673 -1.9585
  150OSM    H7G16682   6.194   0.809   3.460  0.3571  0.2304  2.4369
  150OSM    C8F16683   6.108   0.678   3.611  0.1843  0.1777  0.2284
  150OSM    H8F16684   6.042   0.593   3.636 -0.6605  0.1378 -2.0105
  150OSM    H8G16685   6.089   0.764   3.679  0.5412  0.5973 -0.1937
  150OSM    C9F16686   6.244   0.629   3.657 -0.3581 -0.2123  0.0895
  150OSM    H9F16687   6.311   0.593   3.578 -1.7968 -0.8453 -0.8895
  150OSM   C10F16688   6.292   0.630   3.782  0.5069  0.2286  0.2717
  150OSM   H10F16689   6.389   0.584   3.806  0.1905  0.7396  2.7617
  150OSM   C11F16690   6.215   0.672   3.903  1.1106 -0.0987  1.7278
  150OSM   H11F16691   6.107   0.671   3.877  1.3529  0.1554  0.6485
  150OSM   H11G16692   6.244   0.771   3.943  0.0529  1.7158 -1.5994
  150OSM   C12F16693   6.242   0.588   4.026  0.6610  1.0068  0.4461
  150OSM   H12F16694   6.353   0.584   4.027  0.7563  0.3827 -2.7420
  150OSM   H12G16695   6.199   0.486   4.012 -1.0820  1.8932 -1.1810
  150OSM   C13F16696   6.191   0.660   4.152 -0.1987  0.4695 -0.3749
  150OSM   H13F16697   6.082   0.679   4.136 -0.5026  0.8909  1.8765
  150OSM   H13G16698   6.252   0.751   4.167  1.1286 -0.0548 -2.2677
  150OSM   C14F16699   6.210   0.567   4.277 -0.6671 -0.4560  0.6026
  150OSM   H14F16700   6.320   0.553   4.283 -0.3874 -0.0163 -2.2033
  150OSM   H14G16701   6.165   0.469   4.253 -0.9448 -0.0271 -0.7680
  150OSM   C15F16702   6.149   0.618   4.402 -0.7346 -0.5453 -0.0667
  150OSM   H15F16703   6.163   0.728   4.395 -1.3532 -0.3666  1.3399
  150OSM   H15G16704   6.204   0.583   4.492 -0.2994  1.9374  0.6995
  150OSM   C16F16705   6.000   0.594   4.420 -0.6112 -1.1306  0.1609
  150OSM   H16F16706   5.977   0.486   4.407 -2.7629 -0.6652 -0.3975
  150OSM   H16G16707   5.947   0.647   4.338  0.7902  0.0887  0.0115
  150OSM   C17F16708   5.951   0.661   4.550  0.0578 -0.6306  0.3469
  150OSM   H17F16709   5.968   0.769   4.531 -0.6072 -0.7802 -1.2213
  150OSM   H17G16710   6.011   0.628   4.638  0.5501 -1.0556 -0.1409
  150OSM   C18F16711   5.800   0.632   4.583 -0.4742  0.7148  0.0797
  150OSM   H18F16712   5.766   0.679   4.678 -4.3019 -1.3978 -0.0528
  150OSM   H18G16713   5.766   0.527   4.592 -0.2191  0.2575 -3.2012
  150OSM   H18H16714   5.744   0.685   4.503  3.4059  4.9563 -0.2756
  151OSM      N16715   5.826   3.237   2.139  0.4688  0.3075  0.2622
  151OSM    C1516716   5.794   3.206   1.995 -0.0168  0.3308  0.2447
  151OSM   H15A16717   5.710   3.138   1.992  0.5088 -0.3854  1.1877
  151OSM   H15B16718   5.871   3.148   1.946  0.6620 -1.9408  3.6129
  151OSM   H15C16719   5.763   3.298   1.947 -0.4422 -0.9391 -2.0715
  151OSM    C1416720   5.702   3.292   2.192 -0.6802 -0.4782 -0.2177
  151OSM   H14A16721   5.700   3.290   2.299 -1.0153 -1.9458 -0.2339
  151OSM   H14B16722   5.618   3.230   2.164 -1.0615 -0.2089  0.3261
  151OSM   H14C16723   5.665   3.383   2.147 -1.3074 -0.9889 -0.7626
  151OSM    C1316724   5.862   3.113   2.207  0.0741  0.9064 -0.8683
  151OSM   H13A16725   5.880   3.134   2.312  0.1951  0.9430 -0.8962
  151OSM   H13B16726   5.947   3.060   2.166 -0.0104 -0.3585  0.4890
  151OSM   H13C16727   5.776   3.048   2.209  0.8323 -0.1140  1.1122
  151OSM    C1216728   5.941   3.338   2.138 -0.2001 -0.6237  1.2761
  151OSM   H12A16729   5.926   3.405   2.054 -0.4148 -0.1382  1.6967
  151OSM   H12B16730   6.031   3.279   2.128  0.3537 -0.0586  2.7210
  151OSM    C1116731   5.952   3.423   2.268  0.4442 -0.3599  0.0250
  151OSM   H11A16732   5.959   3.349   2.350 -3.3300  0.0737  0.9251
  151OSM   H11B16733   5.859   3.473   2.301  0.8254  0.8653 -0.6785
  151OSM      P16734   6.204   3.471   2.299  0.0087 -0.1207  0.1266
  151OSM    O1316735   6.244   3.354   2.223  0.1447  0.0569 -0.0995
  151OSM    O1416736   6.295   3.589   2.298 -0.1442  0.3363 -0.4790
  151OSM    O1116737   6.182   3.427   2.445 -0.3411  0.3330  0.2257
  151OSM    O1216738   6.059   3.520   2.261  0.4531  0.6505 -0.3480
  151OSM    C1S16739   6.106   3.493   2.541  0.6633  0.1118 -0.2078
  151OSM    H1S16740   5.998   3.466   2.544  0.5793  0.5113  0.7952
  151OSM    H1T16741   6.097   3.603   2.527 -2.8670 -0.2164 -1.5116
  151OSM     NF16742   6.067   3.512   2.784  0.2326 -0.4059 -0.0354
  151OSM    HNF16743   6.090   3.604   2.814 -0.1450 -0.1386 -0.5565
  151OSM    C2S16744   6.156   3.456   2.683 -1.5314 -0.3971 -0.1314
  151OSM    H2S16745   6.155   3.347   2.707 -1.1861 -0.9599 -2.4494
  151OSM    C3S16746   6.302   3.502   2.700  0.1357  0.0825  0.4650
  151OSM    H3S16747   6.303   3.609   2.669  0.8243  0.3735  1.4316
  151OSM     O316748   6.386   3.437   2.608 -0.2468  0.2106 -0.3458
  151OSM    HO316749   6.321   3.406   2.544 -1.0332  3.8179 -1.5115
  151OSM    C4S16750   6.351   3.495   2.836  0.7684 -0.1716 -0.8326
  151OSM    H4S16751   6.333   3.402   2.892  0.1719 -0.2494 -1.1409
  151OSM    C5S16752   6.395   3.601   2.907 -0.5986 -0.2298  0.1135
  151OSM    H5S16753   6.415   3.691   2.846  2.9787  0.3770  1.9089
  151OSM    C6S16754   6.442   3.604   3.052 -0.0906  0.2195 -0.2208
  151OSM    H6S16755   6.388   3.682   3.110  1.6838  2.3788 -1.3334
  151OSM    H6T16756   6.548   3.634   3.063 -0.7173  1.8171  2.3556
  151OSM    C7S16757   6.419   3.462   3.117 -0.2105 -0.6118  0.2086
  151OSM    H7S16758   6.464   3.377   3.062  0.6453  0.2568 -0.4803
  151OSM    H7T16759   6.311   3.435   3.117 -0.0845 -1.1551  1.1633
  151OSM    C8S16760   6.462   3.472   3.267  0.0674  0.4652 -0.4862
  151OSM    H8S16761   6.572   3.477   3.286 -0.1667  0.8726  0.8553
  151OSM    H8T16762   6.426   3.376   3.311  0.6637 -0.6319 -2.3054
  151OSM    C9S16763   6.395   3.584   3.355  0.0648 -1.1058  0.5017
  151OSM    H9S16764   6.285   3.582   3.340  0.0157  1.7441 -0.1250
  151OSM    H9T16765   6.433   3.680   3.313 -3.2008 -0.9389 -2.5420
  151OSM   C10S16766   6.419   3.577   3.505  0.6351  0.6702  0.1618
  151OSM   H10S16767   6.526   3.563   3.532 -0.2213 -0.4959  3.3961
  151OSM   H10T16768   6.376   3.483   3.545  1.7582 -0.3143 -0.8933
  151OSM   C11S16769   6.348   3.693   3.581 -0.3777  0.2739  0.0798
  151OSM   H11S16770   6.240   3.695   3.558 -0.9549 -0.0914  2.5522
  151OSM   H11T16771   6.398   3.785   3.543 -3.6976  1.6874 -1.2216
  151OSM   C12S16772   6.373   3.686   3.729 -0.8235 -0.1703 -0.6964
  151OSM   H12S16773   6.350   3.786   3.773 -2.4016 -1.1425  0.8504
  151OSM   H12T16774   6.480   3.666   3.748 -0.8004  0.8010  0.3257
  151OSM   C13S16775   6.283   3.591   3.809  0.2756 -0.2579  0.7990
  151OSM   H13S16776   6.313   3.488   3.782  0.4926  0.8415 -4.1741
  151OSM   H13T16777   6.174   3.610   3.794  0.2936 -0.0369  0.9365
  151OSM   C14S16778   6.297   3.616   3.960 -0.2361 -0.3092 -0.0195
  151OSM   H14S16779   6.292   3.725   3.978 -1.8345 -0.4417  0.4904
  151OSM   H14T16780   6.396   3.584   3.999 -1.2560 -2.6125  0.9134
  151OSM   C15S16781   6.173   3.555   4.034 -0.4762 -0.7970  0.0741
  151OSM   H15S16782   6.155   3.447   4.015 -3.5027 -0.6341  1.4921
  151OSM   H15T16783   6.082   3.616   4.014 -1.0490 -2.0657 -1.3461
  151OSM   C16S16784   6.204   3.558   4.189 -0.1502  0.1926  0.5301
  151OSM   H16S16785   6.216   3.666   4.213  0.0410  0.2588  0.1439
  151OSM   H16T16786   6.304   3.513   4.207 -0.4612  0.6729  4.0356
  151OSM   C17S16787   6.109   3.494   4.285  0.5321  0.2473  0.6340
  151OSM   H17S16788   6.111   3.383   4.276 -2.4049  0.2432 -1.5920
  151OSM   H17T16789   6.003   3.521   4.268  0.0049 -1.5037  0.9374
  151OSM   C18S16790   6.130   3.545   4.424 -0.0287 -0.6283 -0.1777
  151OSM   H18S16791   6.059   3.495   4.493 -1.4763  0.0694 -1.1058
  151OSM   H18T16792   6.123   3.656   4.421 -2.0817 -0.5856  2.3704
  151OSM   H18U16793   6.227   3.517   4.470 -0.7892 -2.6834  0.2741
  151OSM    C1F16794   5.950   3.452   2.808  0.1701 -0.2475  0.2943
  151OSM     OF16795   5.905   3.367   2.732 -0.5829  0.1868 -0.4324
  151OSM    C2F16796   5.868   3.492   2.922 -0.2175  0.0076 -1.0731
  151OSM    H2F16797   5.800   3.408   2.949  2.1129 -1.0301  2.1577
  151OSM    H2G16798   5.813   3.584   2.893 -1.1123 -0.3396 -0.5413
  151OSM    C3F16799   5.952   3.502   3.053  0.1391 -0.4166 -0.5509
  151OSM    H3F16800   6.033   3.568   3.016  0.8636 -0.9789 -0.0012
  151OSM    H3G16801   6.002   3.406   3.080  1.3752  0.4251  0.2443
  151OSM    C4F16802   5.890   3.553   3.185 -0.3139 -0.5793  0.2623
  151OSM    H4F16803   5.807   3.480   3.199  0.6921 -2.1812 -1.6702
  151OSM    H4G16804   5.850   3.656   3.175  2.2814  0.3232 -2.0484
  151OSM    C5F16805   5.973   3.543   3.314 -0.0033 -0.3370 -0.0618
  151OSM    H5F16806   5.914   3.595   3.392 -1.0617  0.7319 -1.5200
  151OSM    H5G16807   6.061   3.609   3.300  0.2824 -0.8527 -0.7799
  151OSM    C6F16808   6.013   3.397   3.352  0.5179 -0.2015 -0.5859
  151OSM    H6F16809   6.097   3.368   3.285  1.2916 -0.6357  0.5463
  151OSM    H6G16810   5.924   3.331   3.341 -0.3486  0.3856  2.0994
  151OSM    C7F16811   6.047   3.399   3.502  0.1648  0.0217 -0.0069
  151OSM    H7F16812   5.957   3.428   3.561  1.0067 -2.3444  2.6764
  151OSM    H7G16813   6.133   3.467   3.522 -0.9339  1.4918 -0.0949
  151OSM    C8F16814   6.070   3.254   3.554  0.0774 -0.4118  0.2715
  151OSM    H8F16815   5.986   3.183   3.539 -2.1234  1.6913  1.9440
  151OSM    H8G16816   6.070   3.272   3.663 -1.0189  2.4028 -0.0826
  151OSM    C9F16817   6.205   3.214   3.500  0.0752 -0.1827 -0.2308
  151OSM    H9F16818   6.212   3.224   3.390  1.2351  1.0348 -0.0807
  151OSM   C10F16819   6.305   3.162   3.572 -0.4093 -0.0931 -0.0718
  151OSM   H10F16820   6.400   3.153   3.517 -0.7047 -0.6490 -0.4922
  151OSM   C11F16821   6.298   3.110   3.713  0.1814 -0.5054 -0.2533
  151OSM   H11F16822   6.291   2.999   3.711  0.4656 -0.5177 -1.1783
  151OSM   H11G16823   6.215   3.152   3.773  1.3482  0.3168  0.8574
  151OSM   C12F16824   6.426   3.142   3.798  0.8483  0.3822 -0.1275
  151OSM   H12F16825   6.429   3.249   3.828 -0.2630  0.2403  0.5477
  151OSM   H12G16826   6.511   3.113   3.733 -0.5682  0.1091 -1.9470
  151OSM   C13F16827   6.432   3.059   3.929  0.0506  0.1090 -0.4311
  151OSM   H13F16828   6.535   3.078   3.966 -0.4749  1.9290  0.2239
  151OSM   H13G16829   6.424   2.949   3.929  0.7971  0.0131  1.3884
  151OSM   C14F16830   6.327   3.095   4.036  0.6686  0.2594  0.1982
  151OSM   H14F16831   6.222   3.058   4.026  0.3549  0.4594  2.2446
  151OSM   H14G16832   6.309   3.204   4.032  0.9766  0.2943 -0.3191
  151OSM   C15F16833   6.371   3.059   4.183  0.0517 -0.1519  0.3797
  151OSM   H15F16834   6.478   3.090   4.184 -0.6268  2.3831  1.2167
  151OSM   H15G16835   6.380   2.950   4.204  0.2908 -0.1065  0.5147
  151OSM   C16F16836   6.285   3.119   4.298  0.3819 -0.2162 -0.2118
  151OSM   H16F16837   6.185   3.075   4.279  0.4075  0.0525 -1.0332
  151OSM   H16G16838   6.268   3.227   4.281  0.6815 -0.3727 -1.6724
  151OSM   C17F16839   6.333   3.086   4.443  0.0710 -0.3225 -0.0995
  151OSM   H17F16840   6.419   3.155   4.457 -0.2383 -0.1762  1.2694
  151OSM   H17G16841   6.365   2.980   4.453  1.9618 -0.0355 -2.2800
  151OSM   C18F16842   6.223   3.123   4.547  0.3800  0.4474 -0.2053
  151OSM   H18F16843   6.263   3.115   4.650 -0.5751  0.3219  0.1641
  151OSM   H18G16844   6.127   3.068   4.544  1.0825 -0.7515 -1.8841
  151OSM   H18H16845   6.198   3.229   4.523 -1.4607  0.0475 -0.1636
  152OSM      N16846   0.092   5.690   2.183  0.6032  0.5271 -0.2021
  152OSM    C1516847   0.085   5.550   2.229 -0.1539 -0.0822  0.4215
  152OSM   H15A16848   0.102   5.480   2.148  2.5482 -1.6463  2.1864
  152OSM   H15B16849   0.001   5.519   2.290  0.9361 -0.6813  1.6801
  152OSM   H15C16850   0.169   5.534   2.296 -0.0242  0.8346  0.4888
  152OSM    C1416851   0.113   5.782   2.306 -0.3058 -0.1458 -1.1446
  152OSM   H14A16852   0.063   5.748   2.396  0.0756  2.3335  0.1105
  152OSM   H14B16853   0.085   5.886   2.291  0.7756  0.8237  2.4087
  152OSM   H14C16854   0.220   5.775   2.320 -0.2630  0.2749 -1.2568
  152OSM    C1316855   0.215   5.693   2.094 -0.1134 -0.0581  0.2807
  152OSM   H13A16856   0.201   5.629   2.008  0.9316  0.6318 -0.4200
  152OSM   H13B16857   0.300   5.665   2.155 -2.5160 -1.5519  3.2134
  152OSM   H13C16858   0.226   5.791   2.051 -0.6020  1.3808  3.2082
  152OSM    C1216859  -0.037   5.720   2.107 -0.0734  0.0242  0.2593
  152OSM   H12A16860  -0.124   5.742   2.166  0.0648  1.7460 -0.1236
  152OSM   H12B16861  -0.077   5.639   2.048 -1.9042  0.1389  1.2703
  152OSM    C1116862  -0.038   5.845   2.014 -0.3542  0.5631 -0.3553
  152OSM   H11A16863   0.029   5.836   1.925 -0.6414  1.1039 -0.6298
  152OSM   H11B16864   0.013   5.924   2.072  1.2154 -0.9777  0.4712
  152OSM      P16865  -0.281   5.937   2.053 -0.5391  0.0236  0.0793
  152OSM    O1316866  -0.240   6.071   2.108 -0.2086  1.1223  0.5011
  152OSM    O1416867  -0.406   5.940   1.980  0.1405 -0.1564 -0.4466
  152OSM    O1116868  -0.295   5.833   2.167  0.5136 -0.1268 -0.2404
  152OSM    O1216869  -0.162   5.877   1.963 -0.8514  0.3076 -0.2420
  152OSM    C1S16870  -0.405   5.796   2.245 -0.0797  0.1991 -1.1823
  152OSM    H1S16871  -0.403   5.687   2.267 -0.0856  0.4756  0.2519
  152OSM    H1T16872  -0.504   5.816   2.198 -1.8170 -1.0260  1.7262
  152OSM     NF16873  -0.461   5.994   2.390  0.3667  0.5534 -1.0497
  152OSM    HNF16874  -0.409   6.077   2.409 -2.0122  2.4123 -2.1137
  152OSM    C2S16875  -0.407   5.858   2.393  1.1071 -0.3936  0.2216
  152OSM    H2S16876  -0.489   5.806   2.447 -1.1771  3.8618  1.3537
  152OSM    C3S16877  -0.273   5.857   2.458  0.1163 -0.1557 -0.9264
  152OSM    H3S16878  -0.217   5.944   2.417 -0.6668 -0.4313 -2.6648
  152OSM     O316879  -0.197   5.746   2.429  0.5147  0.7008  0.3719
  152OSM    HO316880  -0.225   5.718   2.341  0.3432  0.9168  0.3570
  152OSM    C4S16881  -0.277   5.890   2.609 -0.1373 -0.2578 -0.3010
  152OSM    H4S16882  -0.360   5.839   2.660  0.4628 -0.6520  0.2934
  152OSM    C5S16883  -0.218   6.000   2.668  0.1952 -1.3163 -0.0047
  152OSM    H5S16884  -0.147   6.059   2.609  4.1124 -2.8168  2.7919
  152OSM    C6S16885  -0.240   6.055   2.812 -0.4156  0.4026  0.0997
  152OSM    H6S16886  -0.342   6.097   2.825 -0.6818 -0.2350  0.1150
  152OSM    H6T16887  -0.174   6.138   2.843  2.2391 -0.7708 -1.9399
  152OSM    C7S16888  -0.231   5.937   2.910 -0.7076  0.2677  0.3859
  152OSM    H7S16889  -0.158   5.857   2.887 -2.6742 -1.6604  0.5893
  152OSM    H7T16890  -0.322   5.874   2.916 -0.3456 -0.1236  4.2198
  152OSM    C8S16891  -0.195   5.979   3.051  0.1823 -0.3099 -0.1910
  152OSM    H8S16892  -0.111   6.051   3.060 -0.5462  0.3630  1.5929
  152OSM    H8T16893  -0.140   5.896   3.101  1.9251 -0.5401 -2.2914
  152OSM    C9S16894  -0.314   6.045   3.126  0.2420 -0.3950  0.0517
  152OSM    H9S16895  -0.408   6.019   3.073  0.5364  1.2660 -1.4046
  152OSM    H9T16896  -0.313   6.156   3.113 -0.9961 -0.2658  0.8533
  152OSM   C10S16897  -0.339   6.018   3.273  0.0711  0.6084  0.1187
  152OSM   H10S16898  -0.348   5.908   3.287 -2.0107  0.9689  2.2763
  152OSM   H10T16899  -0.436   6.063   3.304  0.3289  2.3325 -1.4066
  152OSM   C11S16900  -0.237   6.066   3.387 -0.3642 -0.7456  0.9316
  152OSM   H11S16901  -0.237   6.176   3.374  3.3478 -0.6824  0.3553
  152OSM   H11T16902  -0.134   6.034   3.359 -0.4847 -1.1809  0.9774
  152OSM   C12S16903  -0.282   6.012   3.519  0.3313 -0.1800  0.3582
  152OSM   H12S16904  -0.277   5.902   3.508 -0.5555 -0.0938 -1.1167
  152OSM   H12T16905  -0.386   6.037   3.549  1.0585 -0.7975  3.9001
  152OSM   C13S16906  -0.210   6.047   3.649 -0.2394 -0.1293 -0.4809
  152OSM   H13S16907  -0.256   5.992   3.734  0.9953 -0.8413 -0.2588
  152OSM   H13T16908  -0.218   6.154   3.679  0.7500  0.0242 -0.7387
  152OSM   C14S16909  -0.062   6.013   3.652 -0.8551  0.5419 -0.2148
  152OSM   H14S16910  -0.005   6.060   3.570 -1.3869  1.4103 -0.0951
  152OSM   H14T16911  -0.054   5.904   3.632  0.6565  0.4506  0.7832
  152OSM   C15S16912   0.000   6.032   3.794  0.0760 -0.3909 -0.2357
  152OSM   H15S16913  -0.035   6.120   3.851  3.6996  1.7381 -0.9965
  152OSM   H15T16914   0.110   6.039   3.781 -0.2681  1.7364 -2.9747
  152OSM   C16S16915   0.001   5.911   3.883  0.1803  0.7201 -0.3792
  152OSM   H16S16916   0.075   5.840   3.839  1.5569  1.4842  0.6232
  152OSM   H16T16917  -0.097   5.860   3.895  0.5927 -0.2474 -0.9681
  152OSM   C17S16918   0.053   5.935   4.026 -0.6779  0.0929 -0.2925
  152OSM   H17S16919   0.090   5.833   4.048 -1.5829 -0.1945 -0.0860
  152OSM   H17T16920  -0.034   5.953   4.092  0.0699  1.6124  0.3567
  152OSM   C18S16921   0.159   6.036   4.065 -0.1123 -0.3943 -0.5050
  152OSM   H18S16922   0.139   6.143   4.043  1.6595  0.6112  2.2358
  152OSM   H18T16923   0.242   6.013   3.996 -0.2930 -1.6892 -0.3201
  152OSM   H18U16924   0.190   6.025   4.172  1.7651 -2.6779 -1.2071
  152OSM    C1F16925  -0.584   6.029   2.364  0.1895  0.0982  0.0828
  152OSM     OF16926  -0.666   5.945   2.336 -0.1397  0.1624  0.5453
  152OSM    C2F16927  -0.625   6.174   2.389  0.4566  0.0102 -0.0298
  152OSM    H2F16928  -0.736   6.173   2.392  0.4334  1.7425  1.3014
  152OSM    H2G16929  -0.598   6.229   2.296 -0.2601 -0.8292 -0.7539
  152OSM    C3F16930  -0.564   6.240   2.513 -0.7784 -0.5514 -0.7713
  152OSM    H3F16931  -0.460   6.276   2.498 -0.6788  0.7111  2.2028
  152OSM    H3G16932  -0.558   6.172   2.601  2.3796 -0.6672 -0.9675
  152OSM    C4F16933  -0.645   6.364   2.548  0.2685  0.6420  0.5406
  152OSM    H4F16934  -0.747   6.337   2.581  0.0711  2.0562  1.1649
  152OSM    H4G16935  -0.668   6.415   2.452 -1.6619 -0.5158  0.3328
  152OSM    C5F16936  -0.579   6.448   2.658 -0.3483 -0.3407  0.4412
  152OSM    H5F16937  -0.627   6.548   2.669  1.4578  0.5385  0.8482
  152OSM    H5G16938  -0.475   6.475   2.630 -0.2263  1.9366  2.7004
  152OSM    C6F16939  -0.574   6.377   2.795  0.3897 -0.8957  0.3499
  152OSM    H6F16940  -0.531   6.274   2.796  0.5020 -0.8859 -1.0339
  152OSM    H6G16941  -0.681   6.368   2.824  0.2608  0.9377  0.5601
  152OSM    C7F16942  -0.507   6.470   2.895 -0.3253  0.5431  0.4468
  152OSM    H7F16943  -0.566   6.564   2.900 -3.4385 -1.1756 -0.8443
  152OSM    H7G16944  -0.398   6.478   2.876 -0.2639  2.6268  1.3482
  152OSM    C8F16945  -0.526   6.403   3.031  0.3233 -0.0049 -0.5246
  152OSM    H8F16946  -0.452   6.321   3.044  0.1734  0.2501  2.9584
  152OSM    H8G16947  -0.625   6.355   3.046  0.6810 -0.7409 -0.4735
  152OSM    C9F16948  -0.497   6.488   3.151  0.4321 -0.7456 -0.1630
  152OSM    H9F16949  -0.446   6.585   3.137 -2.0066  0.5406 -0.7265
  152OSM   C10F16950  -0.525   6.470   3.277 -0.1185 -0.1625  0.6370
  152OSM   H10F16951  -0.498   6.552   3.345  1.4697 -1.8240  2.1056
  152OSM   C11F16952  -0.589   6.354   3.352 -0.4219  0.5278  0.0125
  152OSM   H11F16953  -0.520   6.269   3.331 -1.3827 -0.7924  1.9005
  152OSM   H11G16954  -0.691   6.325   3.317 -0.5969  2.0973 -0.8759
  152OSM   C12F16955  -0.591   6.376   3.503 -0.4743 -0.0534 -0.1429
  152OSM   H12F16956  -0.616   6.282   3.556 -0.6992 -0.1229 -0.3753
  152OSM   H12G16957  -0.669   6.455   3.514  0.2776  1.4120 -3.8316
  152OSM   C13F16958  -0.460   6.426   3.566  0.8352 -0.9824 -0.2243
  152OSM   H13F16959  -0.449   6.535   3.549  0.9384 -0.7269  1.3063
  152OSM   H13G16960  -0.370   6.383   3.517 -0.1370  0.6018 -3.6891
  152OSM   C14F16961  -0.462   6.405   3.712  0.3401  0.0061 -1.1761
  152OSM   H14F16962  -0.463   6.294   3.725 -0.5734  0.3214  2.8693
  152OSM   H14G16963  -0.565   6.426   3.749 -0.7434 -0.7301 -3.5488
  152OSM   C15F16964  -0.355   6.469   3.791  0.1998  0.6784 -0.0797
  152OSM   H15F16965  -0.371   6.578   3.786 -0.0082  0.7416  1.5528
  152OSM   H15G16966  -0.254   6.450   3.748  0.1324 -1.4249  0.5830
  152OSM   C16F16967  -0.372   6.419   3.931  0.2140 -0.1654 -0.0561
  152OSM   H16F16968  -0.477   6.420   3.968 -0.6426 -2.0673 -2.2389
  152OSM   H16G16969  -0.318   6.484   4.003  1.3806 -1.6892  0.5164
  152OSM   C17F16970  -0.310   6.286   3.962  0.3554 -0.2461 -0.0298
  152OSM   H17F16971  -0.204   6.316   3.946 -0.2101  0.4298 -2.9700
  152OSM   H17G16972  -0.340   6.211   3.886 -1.7096  1.1343 -0.6311
  152OSM   C18F16973  -0.333   6.230   4.105  0.0842 -0.4174  0.0126
  152OSM   H18F16974  -0.329   6.306   4.185  1.2449 -1.6184  1.1554
  152OSM   H18G16975  -0.257   6.152   4.129 -2.7816 -3.5135 -0.1494
  152OSM   H18H16976  -0.434   6.184   4.111 -0.0738 -0.0255  0.4470
  153OSM      N16977   0.940   2.138   2.157  0.8953  0.0003 -0.3621
  153OSM    C1516978   1.052   2.243   2.135 -0.3218 -0.0334 -0.3109
  153OSM   H15A16979   1.132   2.181   2.098 -0.0565  0.5712 -0.7665
  153OSM   H15B16980   1.091   2.285   2.227  0.0342 -1.2314  0.1112
  153OSM   H15C16981   1.020   2.327   2.075 -1.1238  0.3425  0.6004
  153OSM    C1416982   0.817   2.210   2.178 -0.2031  0.0987  0.6862
  153OSM   H14A16983   0.800   2.272   2.091  0.2184 -1.5191 -0.6045
  153OSM   H14B16984   0.821   2.271   2.266  1.4230 -1.5554  1.8147
  153OSM   H14C16985   0.724   2.157   2.193 -0.7855  0.6856 -0.6388
  153OSM    C1316986   0.935   2.064   2.028  0.1751  0.9732  0.2907
  153OSM   H13A16987   0.903   2.140   1.958  0.4809 -0.4207 -1.4203
  153OSM   H13B16988   0.863   1.984   2.025  2.2044 -1.0304 -4.0153
  153OSM   H13C16989   1.029   2.016   2.005 -0.2120  0.9171 -1.2938
  153OSM    C1216990   0.978   2.055   2.274 -0.2210  0.5074 -0.3827
  153OSM   H12A16991   0.999   2.112   2.364  2.7864 -0.8824 -0.0770
  153OSM   H12B16992   1.072   2.005   2.257 -0.0762  0.2621  1.0083
  153OSM    C1116993   0.885   1.932   2.327  0.1931  0.1919  1.2606
  153OSM   H11A16994   0.776   1.949   2.329 -0.0709 -1.1816  0.3221
  153OSM   H11B16995   0.912   1.923   2.434  0.9838 -0.6300  1.0072
  153OSM      P16996   0.830   1.689   2.246  0.3580  0.4160 -0.0193
  153OSM    O1316997   0.725   1.701   2.137  0.0127 -0.2129 -0.3002
  153OSM    O1416998   0.908   1.565   2.241  0.4057  0.0477 -0.3769
  153OSM    O1116999   0.769   1.697   2.388  0.3203  0.4913 -0.4257
  153OSM    O1217000   0.922   1.816   2.256  0.3491 -0.2296  0.3810
  153OSM    C1S17001   0.834   1.634   2.500 -0.0672  0.1374 -0.2432
  153OSM    H1S17002   0.942   1.657   2.504 -0.3133  1.1521  0.7272
  153OSM    H1T17003   0.824   1.523   2.493 -0.0434  0.0440  0.9599
  153OSM     NF17004   0.859   1.571   2.732  0.2470  0.6047 -0.1532
  153OSM    HNF17005   0.827   1.476   2.732  0.1007  0.6521 -0.4728
  153OSM    C2S17006   0.777   1.660   2.643  0.0947  0.3677  0.1128
  153OSM    H2S17007   0.809   1.764   2.663 -0.3676  0.3822  0.8218
  153OSM    C3S17008   0.627   1.633   2.661 -0.6023  0.3660 -0.3534
  153OSM    H3S17009   0.611   1.523   2.663 -2.1193  0.5681  0.0227
  153OSM     O317010   0.551   1.668   2.545 -0.3087  0.2479 -0.7451
  153OSM    HO317011   0.604   1.716   2.481 -0.8687  2.1465  0.1488
  153OSM    C4S17012   0.581   1.687   2.791 -0.5968  0.1919 -0.2981
  153OSM    H4S17013   0.563   1.795   2.794  1.4925  0.7691 -3.5160
  153OSM    C5S17014   0.576   1.619   2.908  0.2476 -0.5093  0.0534
  153OSM    H5S17015   0.603   1.512   2.911 -1.7964 -1.0495  1.7523
  153OSM    C6S17016   0.541   1.686   3.041  0.0326  0.4590 -0.1378
  153OSM    H6S17017   0.637   1.714   3.088  0.5590  0.2007 -1.0332
  153OSM    H6T17018   0.503   1.613   3.116 -0.6319  1.8899  0.9483
  153OSM    C7S17019   0.451   1.817   3.051 -0.3133  0.3577  0.7307
  153OSM    H7S17020   0.360   1.793   2.991  0.2230  0.4091 -0.1137
  153OSM    H7T17021   0.510   1.901   3.009  1.1419  1.4703  4.5950
  153OSM    C8S17022   0.421   1.858   3.190  0.3489  0.5841 -0.1814
  153OSM    H8S17023   0.511   1.896   3.243 -0.7458  1.3924  1.1478
  153OSM    H8T17024   0.379   1.765   3.234  0.9367  0.8262  0.9304
  153OSM    C9S17025   0.304   1.955   3.200 -0.8422  0.1213  0.0570
  153OSM    H9S17026   0.214   1.929   3.141 -0.0328  2.2218 -2.3017
  153OSM    H9T17027   0.335   2.052   3.154  1.4477 -0.7988 -0.4866
  153OSM   C10S17028   0.272   1.980   3.352  0.5713  0.0013 -0.0750
  153OSM   H10S17029   0.361   1.979   3.418 -2.8486  2.6490  5.2088
  153OSM   H10T17030   0.192   1.910   3.385 -0.4059  1.2957  0.3455
  153OSM   C11S17031   0.216   2.120   3.379 -0.6614  0.2172 -0.2184
  153OSM   H11S17032   0.116   2.145   3.338 -1.3144  1.1154  1.7620
  153OSM   H11T17033   0.294   2.192   3.347 -0.5785  0.3822  0.3329
  153OSM   C12S17034   0.201   2.139   3.529 -0.0139  0.0597  0.0358
  153OSM   H12S17035   0.300   2.113   3.571 -0.5485 -1.5322  0.3668
  153OSM   H12T17036   0.131   2.066   3.576  2.5683 -1.3717  1.9174
  153OSM   C13S17037   0.170   2.285   3.565  0.9408 -0.8380 -0.2759
  153OSM   H13S17038   0.088   2.326   3.503  1.1426  1.7275  0.9898
  153OSM   H13T17039   0.262   2.347   3.552  1.0945 -1.2518 -1.1798
  153OSM   C14S17040   0.113   2.305   3.712 -0.3775  0.0372  0.1021
  153OSM   H14S17041   0.026   2.236   3.714 -0.0147 -0.6743 -2.9261
  153OSM   H14T17042   0.079   2.408   3.732 -1.5640 -0.4953  0.9236
  153OSM   C15S17043   0.217   2.269   3.813  0.4047  0.4205 -0.0976
  153OSM   H15S17044   0.318   2.308   3.789  0.2615  1.9699  1.6295
  153OSM   H15T17045   0.223   2.158   3.816 -0.0071  0.3795 -0.7069
  153OSM   C16S17046   0.160   2.316   3.952  0.5855 -0.0683 -0.1257
  153OSM   H16S17047   0.061   2.268   3.970 -0.0658  1.1601 -0.3184
  153OSM   H16T17048   0.158   2.427   3.963  3.8552  0.0306  0.6323
  153OSM   C17S17049   0.243   2.277   4.081 -0.1127 -0.0449  0.6157
  153OSM   H17S17050   0.333   2.342   4.081  1.6256 -1.9497 -4.0908
  153OSM   H17T17051   0.275   2.172   4.065 -1.1675  0.0341 -3.3036
  153OSM   C18S17052   0.157   2.274   4.205 -0.0490  0.6702  0.3764
  153OSM   H18S17053   0.223   2.261   4.293 -0.3840  1.2943  0.7254
  153OSM   H18T17054   0.087   2.188   4.205  0.3202  0.3231 -1.3120
  153OSM   H18U17055   0.088   2.360   4.215 -2.2548 -1.0062  0.4036
  153OSM    C1F17056   0.995   1.595   2.750  0.1995  0.2646  0.1166
  153OSM     OF17057   1.048   1.697   2.708 -0.0195  0.4623 -0.2860
  153OSM    C2F17058   1.077   1.492   2.808  0.8725 -0.5976  0.3501
  153OSM    H2F17059   1.167   1.465   2.748 -0.1631 -0.5694 -1.2660
  153OSM    H2G17060   1.021   1.397   2.820  0.8323 -0.4958  1.0515
  153OSM    C3F17061   1.122   1.528   2.949  0.1373  0.2873 -0.7304
  153OSM    H3F17062   1.190   1.615   2.938 -1.1744  1.2883 -1.1484
  153OSM    H3G17063   1.183   1.444   2.990 -0.7237  0.6491  1.4502
  153OSM    C4F17064   1.011   1.557   3.058 -0.5285  0.5075  0.2951
  153OSM    H4F17065   0.923   1.495   3.030  0.5138 -0.3247 -1.2615
  153OSM    H4G17066   0.968   1.659   3.062  1.4077  1.3351  3.0037
  153OSM    C5F17067   1.057   1.520   3.200  0.1053 -0.2599 -0.4768
  153OSM    H5F17068   1.153   1.572   3.221  0.8945 -2.1438  0.8336
  153OSM    H5G17069   1.071   1.410   3.209  0.4072 -0.2208 -0.4654
  153OSM    C6F17070   0.971   1.582   3.316  0.2823 -0.1116  0.5162
  153OSM    H6F17071   0.974   1.693   3.324  0.0503 -0.1994  2.4709
  153OSM    H6G17072   1.014   1.539   3.410  1.9616 -2.7043 -1.2978
  153OSM    C7F17073   0.821   1.543   3.314 -0.2111  0.1623 -0.1597
  153OSM    H7F17074   0.802   1.436   3.292 -1.6716  0.4236 -0.2800
  153OSM    H7G17075   0.782   1.593   3.223  1.4496 -1.4782 -1.8531
  153OSM    C8F17076   0.747   1.563   3.447  0.3966 -0.2657  0.1237
  153OSM    H8F17077   0.731   1.461   3.489  3.4022 -0.7272  0.3950
  153OSM    H8G17078   0.644   1.601   3.430 -0.2164 -0.9264  2.0578
  153OSM    C9F17079   0.801   1.645   3.561 -0.0288 -0.1972  0.5544
  153OSM    H9F17080   0.895   1.605   3.603 -0.3470 -1.5483  0.0336
  153OSM   C10F17081   0.757   1.758   3.611 -0.8156 -0.0482 -0.3724
  153OSM   H10F17082   0.820   1.791   3.696 -0.3341 -0.5520 -0.5294
  153OSM   C11F17083   0.642   1.850   3.573 -0.1495  0.6461 -1.2803
  153OSM   H11F17084   0.586   1.826   3.480 -5.3355  1.5158  1.2597
  153OSM   H11G17085   0.675   1.956   3.562  0.0764  0.4625 -2.4843
  153OSM   C12F17086   0.537   1.839   3.678 -0.5349 -0.2586 -0.0868
  153OSM   H12F17087   0.501   1.737   3.702 -0.4910 -0.6648 -1.6666
  153OSM   H12G17088   0.441   1.870   3.633  0.2561 -0.3607 -1.9213
  153OSM   C13F17089   0.572   1.911   3.813  0.5802 -0.1470 -0.1012
  153OSM   H13F17090   0.587   2.019   3.793  2.9464 -0.4551 -0.2663
  153OSM   H13G17091   0.667   1.869   3.851  1.6919  0.9350 -1.5853
  153OSM   C14F17092   0.455   1.884   3.913 -0.0815  0.0223  0.9968
  153OSM   H14F17093   0.444   1.775   3.928  1.4976 -0.1813  0.7908
  153OSM   H14G17094   0.360   1.909   3.860 -0.5821 -0.1697  1.7879
  153OSM   C15F17095   0.469   1.943   4.052 -0.7631 -0.5361 -1.3220
  153OSM   H15F17096   0.369   1.937   4.099  0.4927  0.7981  1.8669
  153OSM   H15G17097   0.498   2.050   4.036  0.3975 -0.3435  1.4123
  153OSM   C16F17098   0.572   1.873   4.144  0.0105 -0.0502 -0.1764
  153OSM   H16F17099   0.665   1.858   4.084  0.9629  2.5226  0.5066
  153OSM   H16G17100   0.547   1.767   4.166 -0.5136  0.0511 -0.2679
  153OSM   C17F17101   0.598   1.947   4.270  0.1526  0.0648  0.2604
  153OSM   H17F17102   0.503   1.955   4.328  1.0554 -0.3223  1.8570
  153OSM   H17G17103   0.632   2.052   4.253 -1.0777  0.4672  0.1894
  153OSM   C18F17104   0.694   1.868   4.360  0.1894  0.2748  0.3909
  153OSM   H18F17105   0.645   1.770   4.376 -0.5950  0.4109 -1.0229
  153OSM   H18G17106   0.705   1.912   4.461 -0.9096 -0.9200  1.0594
  153OSM   H18H17107   0.794   1.855   4.313  0.1611  2.8480 -0.4866
  154OSM      N17108   5.001   3.781   2.235 -0.0957 -0.0269  1.0394
  154OSM    C1517109   5.070   3.886   2.145 -0.8362  0.0055 -0.3105
  154OSM   H15A17110   5.087   3.979   2.196 -2.9111 -0.1946  0.8426
  154OSM   H15B17111   5.004   3.911   2.064  0.4048 -0.7527 -1.6087
  154OSM   H15C17112   5.158   3.840   2.101 -0.1970  0.8393  0.0703
  154OSM    C1417113   4.865   3.829   2.267 -0.0214 -0.1294  0.9200
  154OSM   H14A17114   4.796   3.759   2.312 -3.2752  2.2137 -0.0184
  154OSM   H14B17115   4.813   3.861   2.178  1.4126  1.8925  0.7405
  154OSM   H14C17116   4.868   3.909   2.340 -1.4143  0.3301  0.5122
  154OSM    C1317117   4.991   3.652   2.155 -0.1051 -0.0113  0.2261
  154OSM   H13A17118   4.966   3.673   2.052  0.2779 -0.0401  0.1280
  154OSM   H13B17119   4.920   3.580   2.194  0.8134 -0.6793  0.7035
  154OSM   H13C17120   5.085   3.600   2.147 -0.0026  0.1070  0.6584
  154OSM    C1217121   5.081   3.742   2.361  0.2108 -0.0183 -0.6847
  154OSM   H12A17122   5.044   3.650   2.405  0.6128 -0.1467 -0.6140
  154OSM   H12B17123   5.049   3.814   2.434  1.3082  0.3971 -0.5896
  154OSM    C1117124   5.237   3.736   2.344 -0.8909  0.5666 -0.3036
  154OSM   H11A17125   5.287   3.713   2.441 -1.6016 -0.4036 -0.1556
  154OSM   H11B17126   5.274   3.841   2.336 -0.2367  0.5864  2.1713
  154OSM      P17127   5.299   3.501   2.242 -0.2275 -0.3567  0.0594
  154OSM    O1317128   5.183   3.432   2.180  0.6284 -0.3624  0.1359
  154OSM    O1417129   5.429   3.477   2.178 -0.1524 -0.4314 -0.3405
  154OSM    O1117130   5.302   3.472   2.395 -0.5270  0.1279 -0.4496
  154OSM    O1217131   5.281   3.660   2.234  0.1425  0.1945 -0.3867
  154OSM    C1S17132   5.307   3.331   2.437 -0.1047 -0.2327  0.3911
  154OSM    H1S17133   5.409   3.289   2.420 -0.4573 -1.4851  1.2259
  154OSM    H1T17134   5.228   3.271   2.386 -1.4824 -0.2464  2.4375
  154OSM     NF17135   5.301   3.192   2.645 -0.2632  0.2372  0.2351
  154OSM    HNF17136   5.231   3.130   2.680 -0.7557  1.9448  2.5574
  154OSM    C2S17137   5.283   3.320   2.590  1.0134  0.0569  0.1645
  154OSM    H2S17138   5.355   3.384   2.645  0.5706 -0.0504  0.8818
  154OSM    C3S17139   5.140   3.385   2.617 -0.3322 -0.4019  0.2464
  154OSM    H3S17140   5.064   3.324   2.565  1.8933 -1.0336 -2.4679
  154OSM     O317141   5.124   3.520   2.569  0.0919 -0.2063 -0.1551
  154OSM    HO317142   5.202   3.530   2.513 -1.8471 -1.2639 -3.2979
  154OSM    C4S17143   5.120   3.381   2.765 -0.0566 -0.2409 -0.3869
  154OSM    H4S17144   5.197   3.423   2.831 -0.6446 -1.5569  1.2215
  154OSM    C5S17145   5.014   3.313   2.814 -0.1598  0.0933  0.4996
  154OSM    H5S17146   4.946   3.269   2.740 -0.8710  1.7998  0.0993
  154OSM    C6S17147   4.996   3.281   2.961  0.2566 -0.4767 -0.4223
  154OSM    H6S17148   4.956   3.178   2.961 -2.6440  0.5097 -1.7987
  154OSM    H6T17149   4.915   3.352   2.989  0.4359  1.4313 -4.0663
  154OSM    C7S17150   5.120   3.295   3.053  0.3185  0.1756 -0.0787
  154OSM    H7S17151   5.177   3.390   3.040  0.7349 -0.0348  0.2149
  154OSM    H7T17152   5.184   3.208   3.028  0.5277 -0.2762  1.9318
  154OSM    C8S17153   5.088   3.280   3.199 -0.1118  0.2855  0.6302
  154OSM    H8S17154   5.038   3.182   3.219  1.5965 -0.1317  3.3734
  154OSM    H8T17155   5.026   3.367   3.229 -1.4206 -0.3901 -0.0262
  154OSM    C9S17156   5.219   3.278   3.275 -0.0839  0.1512  0.0764
  154OSM    H9S17157   5.304   3.341   3.240  1.5083 -2.0658 -0.2632
  154OSM    H9T17158   5.269   3.180   3.260  3.0472  1.7766 -1.2545
  154OSM   C10S17159   5.198   3.293   3.436 -0.6568  0.0162  0.0811
  154OSM   H10S17160   5.288   3.254   3.488  0.8133 -0.4132 -2.6160
  154OSM   H10T17161   5.114   3.225   3.462 -1.1451  0.1172 -1.1611
  154OSM   C11S17162   5.173   3.437   3.471 -0.2682  0.0352 -0.1914
  154OSM   H11S17163   5.075   3.464   3.427  0.8113  2.0629 -1.5142
  154OSM   H11T17164   5.251   3.503   3.428  0.2215 -1.0137 -0.9720
  154OSM   C12S17165   5.156   3.453   3.619  0.4420  0.1045 -0.0125
  154OSM   H12S17166   5.109   3.363   3.662 -0.7102  0.7123  0.0264
  154OSM   H12T17167   5.101   3.547   3.644 -0.0307 -0.4877  1.2538
  154OSM   C13S17168   5.284   3.473   3.691  0.4520  0.2288  0.1635
  154OSM   H13S17169   5.343   3.551   3.639  1.6142  1.5727  3.2185
  154OSM   H13T17170   5.339   3.377   3.700  2.3905  1.3358  0.6604
  154OSM   C14S17171   5.254   3.520   3.834  0.2378  0.0855 -0.2026
  154OSM   H14S17172   5.235   3.433   3.901  3.0846 -1.1443 -0.8522
  154OSM   H14T17173   5.164   3.586   3.832 -1.1780 -1.7566 -0.9750
  154OSM   C15S17174   5.375   3.580   3.908  0.6137 -0.1559 -0.7469
  154OSM   H15S17175   5.394   3.682   3.867  3.4371  0.1327  1.0296
  154OSM   H15T17176   5.454   3.505   3.889  1.1769 -0.1275  1.3231
  154OSM   C16S17177   5.343   3.593   4.058  0.3268  0.2613  0.8399
  154OSM   H16S17178   5.352   3.491   4.103  3.5597 -1.2751 -2.7120
  154OSM   H16T17179   5.247   3.638   4.093 -1.2998 -1.9790 -0.3955
  154OSM   C17S17180   5.452   3.667   4.127 -0.0544 -0.1181  0.1201
  154OSM   H17S17181   5.431   3.643   4.234  1.6370 -1.1019  0.2687
  154OSM   H17T17182   5.445   3.778   4.117  0.7094 -0.1488 -0.9148
  154OSM   C18S17183   5.595   3.621   4.092 -0.0952  0.3816  0.3607
  154OSM   H18S17184   5.655   3.651   4.180  2.7635 -0.1347 -1.2741
  154OSM   H18T17185   5.634   3.667   3.999 -0.0678  0.3285  0.3457
  154OSM   H18U17186   5.603   3.510   4.090  0.5070  0.3293  2.7686
  154OSM    C1F17187   5.426   3.139   2.644  0.6498 -0.1296 -0.7899
  154OSM     OF17188   5.527   3.202   2.622  0.1873 -0.6174  0.6138
  154OSM    C2F17189   5.439   2.992   2.678 -0.2749 -0.2940  0.3870
  154OSM    H2F17190   5.450   2.928   2.588 -0.8097  1.5119 -1.0122
  154OSM    H2G17191   5.344   2.949   2.717  0.6243 -3.3863 -0.5337
  154OSM    C3F17192   5.563   2.955   2.777  0.0491 -0.2205 -0.9023
  154OSM    H3F17193   5.645   3.024   2.748  1.2767 -1.6779 -1.0499
  154OSM    H3G17194   5.592   2.849   2.764 -0.4290 -0.4976  0.1787
  154OSM    C4F17195   5.506   2.980   2.916  0.2314 -0.3557  0.0151
  154OSM    H4F17196   5.458   2.886   2.950 -0.0065 -0.7330 -1.2992
  154OSM    H4G17197   5.419   3.049   2.916 -1.1402 -2.0016 -0.8557
  154OSM    C5F17198   5.609   2.999   3.029 -0.7654  0.2598 -0.2915
  154OSM    H5F17199   5.687   2.919   3.023 -1.8047 -0.8364  0.3433
  154OSM    H5G17200   5.559   2.974   3.125 -2.5496  0.6743 -1.0914
  154OSM    C6F17201   5.660   3.135   3.030 -0.0335 -0.7055  0.2430
  154OSM    H6F17202   5.570   3.198   3.048  0.2816 -0.6326  1.6512
  154OSM    H6G17203   5.722   3.158   2.941  1.8993  0.5084  1.8067
  154OSM    C7F17204   5.755   3.158   3.152 -0.8154 -0.3959  0.0138
  154OSM    H7F17205   5.810   3.253   3.137  2.9308 -1.6768  3.7339
  154OSM    H7G17206   5.838   3.085   3.137  0.6061  1.3023 -0.8244
  154OSM    C8F17207   5.688   3.145   3.288 -0.3142  0.4420 -0.1418
  154OSM    H8F17208   5.773   3.147   3.359  1.6188 -0.3239 -2.3397
  154OSM    H8G17209   5.629   3.050   3.284 -1.1883  1.0034 -0.8806
  154OSM    C9F17210   5.604   3.260   3.335  0.6551 -0.2664  0.3091
  154OSM    H9F17211   5.571   3.327   3.254  2.1839  1.0462  0.7270
  154OSM   C10F17212   5.575   3.288   3.463 -0.1593  0.8312  0.0731
  154OSM   H10F17213   5.522   3.382   3.486  0.4327  2.0986 -3.1112
  154OSM   C11F17214   5.609   3.204   3.586 -0.0425  0.0823 -0.1178
  154OSM   H11F17215   5.666   3.110   3.566  0.6612  0.0686  1.7612
  154OSM   H11G17216   5.514   3.166   3.628 -0.6629 -0.2220 -1.7156
  154OSM   C12F17217   5.682   3.287   3.699  0.2520  1.1656 -0.4447
  154OSM   H12F17218   5.645   3.391   3.691  0.3067  1.0521 -2.9312
  154OSM   H12G17219   5.792   3.294   3.684  0.3571  1.2166  0.3023
  154OSM   C13F17220   5.654   3.222   3.836 -0.4074 -0.1012  0.1979
  154OSM   H13F17221   5.690   3.118   3.823  1.7028  0.6323 -0.2157
  154OSM   H13G17222   5.549   3.235   3.869 -0.6416  2.2664 -1.2366
  154OSM   C14F17223   5.745   3.302   3.941  0.5964 -0.0573 -0.6600
  154OSM   H14F17224   5.706   3.403   3.965  0.2523 -0.4630  0.5778
  154OSM   H14G17225   5.852   3.309   3.911  0.9022 -0.7490  0.2204
  154OSM   C15F17226   5.732   3.214   4.070 -0.4014  0.1595 -0.5015
  154OSM   H15F17227   5.752   3.108   4.041 -0.9570 -1.2109  3.5153
  154OSM   H15G17228   5.625   3.212   4.099 -0.6137  2.8499 -0.8776
  154OSM   C16F17229   5.813   3.256   4.188 -0.3265  0.1313  0.2099
  154OSM   H16F17230   5.783   3.362   4.204 -1.8886 -0.3459  0.5829
  154OSM   H16G17231   5.922   3.251   4.167 -0.2112  2.7845 -0.2195
  154OSM   C17F17232   5.767   3.186   4.318  0.7972  0.3774  0.0119
  154OSM   H17F17233   5.778   3.077   4.301  0.7752  0.2916  0.5514
  154OSM   H17G17234   5.660   3.210   4.334  1.2565  0.7419  3.1557
  154OSM   C18F17235   5.836   3.224   4.447 -0.0228 -0.2245 -0.2946
  154OSM   H18F17236   5.945   3.211   4.435 -0.0835 -0.2250 -0.8799
  154OSM   H18G17237   5.802   3.170   4.538  0.0378  1.9801  1.1265
  154OSM   H18H17238   5.828   3.335   4.455 -1.2929 -0.2868 -0.4693
  155OSM      N17239   0.967   3.245   2.430 -0.1065 -0.4414 -0.4078
  155OSM    C1517240   1.097   3.185   2.370  0.2653  0.0379 -0.6911
  155OSM   H15A17241   1.167   3.182   2.453 -1.3179 -0.2375  0.6861
  155OSM   H15B17242   1.141   3.242   2.290  1.4088  0.7712  0.4149
  155OSM   H15C17243   1.087   3.081   2.340  3.0641 -0.4276 -0.3113
  155OSM    C1417244   0.857   3.219   2.334 -0.4506  0.5179  0.5238
  155OSM   H14A17245   0.767   3.254   2.381 -0.3035  0.1438  1.0936
  155OSM   H14B17246   0.859   3.114   2.308  0.5376  0.0539  2.3191
  155OSM   H14C17247   0.879   3.285   2.251  3.9273  0.6337  1.5074
  155OSM    C1317248   0.947   3.162   2.548 -0.2134 -0.1564 -0.0103
  155OSM   H13A17249   1.004   3.190   2.636 -1.3678 -4.0606  2.2295
  155OSM   H13B17250   0.988   3.064   2.523 -0.0249 -0.2844  0.7822
  155OSM   H13C17251   0.847   3.148   2.585  0.5995  0.9458  2.8297
  155OSM    C1217252   0.979   3.391   2.461 -0.1576  0.2039  0.5166
  155OSM   H12A17253   1.063   3.402   2.528  0.7956  1.3401 -0.8184
  155OSM   H12B17254   0.892   3.433   2.509  0.2088  0.2581  1.1515
  155OSM    C1117255   0.997   3.481   2.340 -0.7240  0.5353 -0.2332
  155OSM   H11A17256   1.084   3.451   2.278 -2.1965  2.2782 -3.3602
  155OSM   H11B17257   1.035   3.578   2.379  0.2402  0.6634 -1.4453
  155OSM      P17258   0.780   3.601   2.306  0.1010  0.4732 -0.3728
  155OSM    O1317259   0.856   3.725   2.323 -0.7960 -0.5381  0.5794
  155OSM    O1417260   0.662   3.598   2.217 -0.3190 -0.5124 -0.2492
  155OSM    O1117261   0.728   3.554   2.448 -0.1161 -0.2778 -0.1268
  155OSM    O1217262   0.881   3.490   2.255  0.4064  0.4601 -0.1737
  155OSM    C1S17263   0.608   3.479   2.469 -1.3065 -0.4482  0.0991
  155OSM    H1S17264   0.627   3.376   2.430  3.4225 -0.6834  2.4080
  155OSM    H1T17265   0.521   3.528   2.419  0.0437  0.1416 -1.7820
  155OSM     NF17266   0.490   3.351   2.647 -0.8040  1.6695 -0.0376
  155OSM    HNF17267   0.400   3.370   2.685 -0.1516  2.6774  1.0643
  155OSM    C2S17268   0.575   3.465   2.621 -0.4989  0.1004 -0.0215
  155OSM    H2S17269   0.670   3.444   2.674 -1.4819 -3.4379  0.5889
  155OSM    C3S17270   0.527   3.595   2.673 -0.7242  0.7996  0.1597
  155OSM    H3S17271   0.447   3.628   2.604 -0.9953 -0.6163 -0.2359
  155OSM     O317272   0.627   3.702   2.658 -0.6405 -0.0415  0.0218
  155OSM    HO317273   0.694   3.672   2.596  1.6346  0.4757  2.1124
  155OSM    C4S17274   0.464   3.588   2.812  0.2649 -0.5058 -0.5300
  155OSM    H4S17275   0.355   3.577   2.808  0.1123  0.6257  0.0994
  155OSM    C5S17276   0.539   3.577   2.930  0.2374 -1.1309 -0.2809
  155OSM    H5S17277   0.648   3.592   2.933  0.1475 -0.5777  0.8617
  155OSM    C6S17278   0.497   3.571   3.071  0.6340  0.3228  0.1858
  155OSM    H6S17279   0.537   3.657   3.129 -1.3779 -0.4987  3.0245
  155OSM    H6T17280   0.540   3.476   3.110 -2.7127 -1.0903  0.7954
  155OSM    C7S17281   0.338   3.581   3.099 -0.4627 -0.4585  0.1188
  155OSM    H7S17282   0.280   3.491   3.070 -0.9674  0.1212 -0.7122
  155OSM    H7T17283   0.303   3.665   3.035 -0.8103 -1.5776 -1.2037
  155OSM    C8S17284   0.315   3.612   3.255  0.5211  0.8714  0.0587
  155OSM    H8S17285   0.413   3.602   3.307  0.4403  0.4702  0.1434
  155OSM    H8T17286   0.239   3.541   3.293  0.7936  0.9810  0.8311
  155OSM    C9S17287   0.258   3.755   3.275  0.1106  0.4059 -0.7436
  155OSM    H9S17288   0.214   3.769   3.376  0.6289  1.8482 -0.6957
  155OSM    H9T17289   0.179   3.771   3.199 -1.7358  3.3594  1.5359
  155OSM   C10S17290   0.361   3.872   3.269 -0.2269  0.5341  0.1041
  155OSM   H10S17291   0.307   3.954   3.216 -1.0266 -0.7940 -1.2245
  155OSM   H10T17292   0.438   3.833   3.199  0.2365  2.4946 -0.5415
  155OSM   C11S17293   0.412   3.913   3.414 -0.1229 -0.9849  0.3213
  155OSM   H11S17294   0.493   3.988   3.402  0.6618 -1.7318  0.8080
  155OSM   H11T17295   0.445   3.823   3.470  0.1687 -1.7054 -0.9550
  155OSM   C12S17296   0.305   3.980   3.497  0.4720 -0.3664 -0.1481
  155OSM   H12S17297   0.333   3.975   3.605  0.6568 -1.7616 -0.2523
  155OSM   H12T17298   0.209   3.926   3.491 -0.1400  0.5699  0.7926
  155OSM   C13S17299   0.271   4.125   3.458  0.6784  0.5342  0.2408
  155OSM   H13S17300   0.230   4.122   3.355 -0.1136  1.3812  0.5178
  155OSM   H13T17301   0.360   4.191   3.446  0.4422  0.8885  0.4006
  155OSM   C14S17302   0.170   4.184   3.556 -0.0058 -0.2711 -0.2544
  155OSM   H14S17303   0.200   4.169   3.662  0.2226  0.4153 -0.2182
  155OSM   H14T17304   0.079   4.123   3.538  0.9704 -1.9752  0.2846
  155OSM   C15S17305   0.161   4.340   3.542 -0.6159  0.2498  1.1685
  155OSM   H15S17306   0.265   4.378   3.550 -0.4793  0.1394  0.0984
  155OSM   H15T17307   0.101   4.375   3.629 -1.1371 -0.9725  1.3094
  155OSM   C16S17308   0.101   4.396   3.417  0.6112  0.5278 -0.3809
  155OSM   H16S17309   0.001   4.364   3.381  0.0909  2.1845 -0.4929
  155OSM   H16T17310   0.172   4.371   3.335  0.7373  2.5856 -0.9485
  155OSM   C17S17311   0.080   4.546   3.428 -0.4364  0.0543 -0.0668
  155OSM   H17S17312   0.053   4.590   3.329 -0.5977  2.4751  0.9766
  155OSM   H17T17313   0.176   4.596   3.453 -1.1748  1.6993 -0.3274
  155OSM   C18S17314  -0.036   4.585   3.519 -0.6449  1.0089  0.0518
  155OSM   H18S17315  -0.059   4.693   3.507 -2.1879  0.5947 -0.9898
  155OSM   H18T17316  -0.014   4.567   3.626 -1.4855 -1.3441 -0.1110
  155OSM   H18U17317  -0.128   4.528   3.492 -0.2076  1.5852 -3.1262
  155OSM    C1F17318   0.518   3.219   2.622  0.2233 -0.3912 -0.0348
  155OSM     OF17319   0.630   3.179   2.595 -0.0357 -0.8154 -0.2618
  155OSM    C2F17320   0.400   3.130   2.608 -0.1037 -0.3169 -0.0644
  155OSM    H2F17321   0.385   3.091   2.505 -1.3962 -2.4871  0.8628
  155OSM    H2G17322   0.321   3.199   2.645  0.3178  0.3873 -0.4494
  155OSM    C3F17323   0.402   3.003   2.694  0.3960 -0.2177 -0.1570
  155OSM    H3F17324   0.501   2.955   2.677  0.3296  0.7428 -4.0055
  155OSM    H3G17325   0.321   2.934   2.663  0.4497 -0.3001 -0.1146
  155OSM    C4F17326   0.379   3.027   2.838 -0.5338 -0.4626  0.2242
  155OSM    H4F17327   0.280   3.075   2.849  0.5971  1.9472  0.4940
  155OSM    H4G17328   0.461   3.096   2.869 -0.5726 -0.1061 -0.4574
  155OSM    C5F17329   0.374   2.904   2.927 -1.7099 -0.2093 -1.0041
  155OSM    H5F17330   0.461   2.847   2.889 -2.2858 -1.0462 -1.0903
  155OSM    H5G17331   0.292   2.833   2.902  1.0719 -4.2204  0.2403
  155OSM    C6F17332   0.387   2.931   3.079 -0.2382  0.5425  0.2772
  155OSM    H6F17333   0.450   2.863   3.140 -0.2952  2.2183  2.3299
  155OSM    H6G17334   0.283   2.928   3.120 -1.6520  3.7695 -2.5505
  155OSM    C7F17335   0.458   3.066   3.122 -0.1238 -0.5213  0.4778
  155OSM    H7F17336   0.417   3.150   3.061  1.7657  0.4842  0.5408
  155OSM    H7G17337   0.567   3.072   3.102 -0.4908  1.9336 -1.2014
  155OSM    C8F17338   0.422   3.095   3.267 -0.1792 -0.0341 -0.0459
  155OSM    H8F17339   0.468   3.016   3.329  0.3989  1.3269  1.3462
  155OSM    H8G17340   0.311   3.088   3.269 -0.1337 -0.4922  1.8297
  155OSM    C9F17341   0.473   3.226   3.320 -0.6335  0.2435 -0.1299
  155OSM    H9F17342   0.563   3.274   3.279 -0.5055  0.2602  0.1724
  155OSM   C10F17343   0.435   3.269   3.439 -0.0845  0.8819 -0.5651
  155OSM   H10F17344   0.482   3.363   3.472  2.5588  0.2680 -2.2745
  155OSM   C11F17345   0.341   3.203   3.536  0.0735 -0.1418  0.3789
  155OSM   H11F17346   0.280   3.125   3.486  2.1121 -1.0739 -0.7769
  155OSM   H11G17347   0.277   3.286   3.574  1.2591  2.1284 -2.1785
  155OSM   C12F17348   0.415   3.132   3.647  0.2323  0.0637  0.1625
  155OSM   H12F17349   0.507   3.086   3.605  0.1745  0.7773 -0.7818
  155OSM   H12G17350   0.346   3.050   3.678 -0.1704 -0.8803 -2.8972
  155OSM   C13F17351   0.430   3.208   3.784 -0.3361 -0.3170  0.7011
  155OSM   H13F17352   0.483   3.305   3.777 -0.6049 -0.1527  0.9195
  155OSM   H13G17353   0.485   3.135   3.848 -0.2062  0.4813  1.5272
  155OSM   C14F17354   0.289   3.232   3.853  0.0060 -0.2549  0.2290
  155OSM   H14F17355   0.248   3.129   3.859 -2.2491  0.6642  1.2314
  155OSM   H14G17356   0.227   3.299   3.790 -0.0869 -1.4099 -0.9576
  155OSM   C15F17357   0.297   3.286   3.997  0.3407 -0.0663  0.5124
  155OSM   H15F17358   0.338   3.389   3.997 -0.7951  0.4724 -2.0408
  155OSM   H15G17359   0.359   3.217   4.058  1.7398  1.5395  0.9808
  155OSM   C16F17360   0.170   3.288   4.077 -0.2076  0.0118  0.5769
  155OSM   H16F17361   0.120   3.195   4.045 -0.2392  0.6620 -1.3674
  155OSM   H16G17362   0.103   3.370   4.043  0.6845  0.1331 -1.0102
  155OSM   C17F17363   0.183   3.294   4.227  0.0096  0.2212  0.6032
  155OSM   H17F17364   0.081   3.289   4.270  0.4576  0.2258  1.6968
  155OSM   H17G17365   0.232   3.391   4.249  0.7885  0.4716 -1.9552
  155OSM   C18F17366   0.263   3.192   4.303 -0.4974  0.7434  0.2409
  155OSM   H18F17367   0.219   3.090   4.301  2.3973 -0.5848  0.2673
  155OSM   H18G17368   0.249   3.214   4.411  0.8550 -2.4008  1.1642
  155OSM   H18H17369   0.371   3.184   4.282 -0.7167 -0.6967 -0.4687
  156OSM      N17370   3.421   6.697   2.108 -0.0824  0.0314 -0.4067
  156OSM    C1517371   3.383   6.771   2.232  0.1523  0.1756  0.3439
  156OSM   H15A17372   3.445   6.859   2.239  0.5081 -0.0991  0.6800
  156OSM   H15B17373   3.397   6.709   2.320  0.6647 -0.8282 -0.4155
  156OSM   H15C17374   3.279   6.801   2.226  0.2248  0.6750  1.2983
  156OSM    C1417375   3.343   6.574   2.098  0.0788  0.5722  0.4201
  156OSM   H14A17376   3.337   6.551   1.992 -1.2143 -0.5257  0.7035
  156OSM   H14B17377   3.240   6.596   2.123 -0.2040  1.0929 -1.0616
  156OSM   H14C17378   3.374   6.497   2.166 -3.2731 -0.9576  0.4457
  156OSM    C1317379   3.394   6.788   1.995 -0.5234  0.3439 -0.7181
  156OSM   H13A17380   3.434   6.887   2.012  1.5180  0.0908 -3.3869
  156OSM   H13B17381   3.291   6.804   1.968 -0.9755 -1.8020 -0.4362
  156OSM   H13C17382   3.426   6.746   1.901  0.2832 -0.1871 -0.2223
  156OSM    C1217383   3.570   6.656   2.122 -0.3014  0.0332 -0.1599
  156OSM   H12A17384   3.611   6.609   2.034  1.5839 -1.1850  1.3028
  156OSM   H12B17385   3.573   6.576   2.194  0.3401 -0.5943 -0.8611
  156OSM    C1117386   3.665   6.775   2.169 -0.0287  0.1388  0.3560
  156OSM   H11A17387   3.764   6.728   2.188  0.0984 -0.7731 -2.2115
  156OSM   H11B17388   3.628   6.813   2.267  2.0694  0.8640  0.9296
  156OSM      P17389   3.806   6.923   1.997 -0.1079  0.3498 -0.3486
  156OSM    O1317390   3.877   6.798   1.965 -0.7562  0.4141 -0.3178
  156OSM    O1417391   3.770   7.012   1.891 -0.5463 -0.7342  0.6313
  156OSM    O1117392   3.900   6.999   2.096  0.2419  0.0626 -0.0779
  156OSM    O1217393   3.671   6.886   2.070 -0.7787 -0.4483 -0.1977
  156OSM    C1S17394   3.844   7.083   2.198 -0.4737 -0.1861  0.1257
  156OSM    H1S17395   3.734   7.094   2.193 -0.5403  0.3646  2.1210
  156OSM    H1T17396   3.887   7.183   2.176  0.0951 -0.9911 -2.9754
  156OSM     NF17397   3.820   7.147   2.437  0.3777  0.0529  0.4144
  156OSM    HNF17398   3.883   7.211   2.479 -0.3069  1.2220 -0.2902
  156OSM    C2S17399   3.876   7.042   2.349 -0.1723  1.0129 -0.6082
  156OSM    H2S17400   3.819   6.950   2.374  0.9363  0.9355  1.9145
  156OSM    C3S17401   4.024   7.003   2.366  0.6351 -0.3905  0.0270
  156OSM    H3S17402   4.091   7.091   2.348 -0.4550  0.5038  0.2412
  156OSM     O317403   4.068   6.906   2.274 -0.3199 -0.0244  0.7825
  156OSM    HO317404   4.013   6.928   2.198  0.9804 -0.6445 -0.4058
  156OSM    C4S17405   4.045   6.955   2.506 -0.1397  0.5248  0.4709
  156OSM    H4S17406   4.076   7.042   2.565  1.3516 -0.2724  0.9003
  156OSM    C5S17407   4.039   6.832   2.555 -0.4951  0.0258  0.1821
  156OSM    H5S17408   4.014   6.747   2.489 -0.1802  0.2306 -0.2104
  156OSM    C6S17409   4.089   6.797   2.687 -0.2724  0.0835  0.2873
  156OSM    H6S17410   4.195   6.765   2.692 -0.7837 -1.5046  3.3700
  156OSM    H6T17411   4.049   6.696   2.713  0.1809 -0.0264  0.5753
  156OSM    C7S17412   4.066   6.890   2.807  0.0248 -0.6886 -0.5114
  156OSM    H7S17413   3.974   6.951   2.791  0.2647 -0.4986 -1.2213
  156OSM    H7T17414   4.150   6.961   2.823  0.8623 -1.4755 -1.3123
  156OSM    C8S17415   4.056   6.820   2.938 -0.3861 -0.6965 -0.6368
  156OSM    H8S17416   4.130   6.737   2.939 -1.0300 -1.2989 -1.4736
  156OSM    H8T17417   3.955   6.772   2.940  0.1453 -1.8338 -0.0555
  156OSM    C9S17418   4.094   6.897   3.064 -0.3476 -0.4455  0.7012
  156OSM    H9S17419   4.030   6.987   3.068  1.0083  0.5342  1.7960
  156OSM    H9T17420   4.200   6.930   3.053  0.0198 -1.5522  0.7512
  156OSM   C10S17421   4.081   6.819   3.192  0.0671 -0.6488  0.6686
  156OSM   H10S17422   4.182   6.799   3.233  0.1376  0.1082  0.8892
  156OSM   H10T17423   4.028   6.724   3.167  1.6511 -0.4926 -4.5554
  156OSM   C11S17424   4.011   6.904   3.303 -0.3056  0.0075  1.0879
  156OSM   H11S17425   3.901   6.892   3.289  0.0485 -1.6189 -0.7974
  156OSM   H11T17426   4.036   7.012   3.298 -2.2449  0.5461  2.1085
  156OSM   C12S17427   4.030   6.837   3.439 -0.5659 -0.7366  1.1570
  156OSM   H12S17428   4.136   6.803   3.445 -0.3597 -0.6814 -1.2026
  156OSM   H12T17429   3.963   6.749   3.449  0.6795 -1.7690  0.6711
  156OSM   C13S17430   3.999   6.935   3.557 -0.3486  0.4305  0.1048
  156OSM   H13S17431   3.893   6.966   3.557 -0.0017  1.7313  0.9708
  156OSM   H13T17432   4.054   7.031   3.547 -0.3427  0.3079 -1.1700
  156OSM   C14S17433   4.023   6.863   3.691 -0.4141 -0.2833  0.0945
  156OSM   H14S17434   4.132   6.845   3.693 -0.2694 -0.6683 -3.8645
  156OSM   H14T17435   3.981   6.760   3.686 -1.6572  0.2598 -2.0601
  156OSM   C15S17436   3.973   6.946   3.811  0.2034  0.2612  0.0809
  156OSM   H15S17437   3.863   6.962   3.804  0.0458 -0.1627  1.2861
  156OSM   H15T17438   4.022   7.042   3.786  2.5367 -1.4902 -2.6249
  156OSM   C16S17439   4.020   6.899   3.945  0.2725  0.1508 -0.1391
  156OSM   H16S17440   4.131   6.905   3.951  0.3089 -1.0994  0.9894
  156OSM   H16T17441   3.981   6.795   3.952  0.8405 -0.0496  0.0572
  156OSM   C17S17442   3.946   6.973   4.061  0.0978  0.3440  0.8483
  156OSM   H17S17443   3.953   6.906   4.150 -0.5043 -1.2187 -0.2306
  156OSM   H17T17444   3.839   6.984   4.032 -0.6880 -1.3557  2.7751
  156OSM   C18S17445   4.009   7.105   4.108 -0.5179  0.2230 -0.7724
  156OSM   H18S17446   3.955   7.163   4.186 -1.6282 -3.0221  1.0658
  156OSM   H18T17447   4.032   7.159   4.014  1.6402 -1.7231 -1.4468
  156OSM   H18U17448   4.102   7.079   4.162 -1.6825  0.7648  1.5839
  156OSM    C1F17449   3.695   7.162   2.476  0.6773  0.5700  0.3450
  156OSM     OF17450   3.613   7.069   2.456 -0.2110  0.3754 -0.6371
  156OSM    C2F17451   3.657   7.298   2.526  0.3591 -0.4586  0.0408
  156OSM    H2F17452   3.699   7.377   2.460 -1.9686  0.8437  0.0140
  156OSM    H2G17453   3.705   7.317   2.624 -1.6792  2.3643  0.6288
  156OSM    C3F17454   3.508   7.328   2.511 -0.0239 -0.0728  0.0685
  156OSM    H3F17455   3.446   7.240   2.540 -0.8014 -0.5983 -2.8382
  156OSM    H3G17456   3.496   7.349   2.402 -0.0427  2.0116  0.4501
  156OSM    C4F17457   3.483   7.461   2.588 -0.3683  0.4507 -0.5484
  156OSM    H4F17458   3.399   7.513   2.537 -2.0126 -1.7934 -0.3228
  156OSM    H4G17459   3.562   7.537   2.571  0.0797  0.1945  0.3364
  156OSM    C5F17460   3.444   7.442   2.739  0.1494 -0.3163  0.7123
  156OSM    H5F17461   3.380   7.353   2.759  0.2561 -1.0685 -1.9618
  156OSM    H5G17462   3.371   7.522   2.763  1.2942  1.6290 -1.8408
  156OSM    C6F17463   3.554   7.482   2.846  0.4592 -0.1495 -0.0670
  156OSM    H6F17464   3.598   7.577   2.810 -0.4199 -0.1978 -1.3175
  156OSM    H6G17465   3.633   7.408   2.873  0.7987  0.7793  1.6596
  156OSM    C7F17466   3.483   7.505   2.984  0.7213 -0.5870  0.3925
  156OSM    H7F17467   3.404   7.429   3.000  0.5121 -0.5804 -0.5424
  156OSM    H7G17468   3.430   7.603   2.982  1.7038 -0.0437  0.4397
  156OSM    C8F17469   3.579   7.514   3.103  0.0142 -0.0015  0.3368
  156OSM    H8F17470   3.655   7.435   3.089  2.4198  2.4235 -1.3707
  156OSM    H8G17471   3.512   7.499   3.191  1.3731 -1.7892  1.1343
  156OSM    C9F17472   3.653   7.648   3.117  0.1027 -0.3125  0.4032
  156OSM    H9F17473   3.704   7.693   3.030  1.1652 -1.6411  0.3003
  156OSM   C10F17474   3.654   7.713   3.237  0.1059  0.2474  0.0337
  156OSM   H10F17475   3.680   7.819   3.221  1.6681 -0.2156 -0.7029
  156OSM   C11F17476   3.603   7.677   3.368  0.0950  0.6076 -0.2941
  156OSM   H11F17477   3.656   7.588   3.406  0.3112  0.5666 -0.6853
  156OSM   H11G17478   3.496   7.651   3.355  0.1430  0.1059  0.3061
  156OSM   C12F17479   3.632   7.793   3.465 -0.4926 -0.1262  0.4066
  156OSM   H12F17480   3.578   7.885   3.434  1.1065  0.8816  0.4821
  156OSM   H12G17481   3.741   7.815   3.456 -0.6581  0.2782 -0.8032
  156OSM   C13F17482   3.595   7.756   3.607 -0.1004 -0.1309 -0.4102
  156OSM   H13F17483   3.668   7.681   3.646  0.9652  0.8060 -0.5670
  156OSM   H13G17484   3.487   7.730   3.610 -0.5338  1.5806 -0.2029
  156OSM   C14F17485   3.613   7.887   3.696  0.2885 -0.5209 -0.4051
  156OSM   H14F17486   3.540   7.876   3.778 -0.0825  2.3439 -0.2381
  156OSM   H14G17487   3.573   7.977   3.644 -0.3532  0.0215  0.9834
  156OSM   C15F17488   3.758   7.911   3.743  0.2731  0.6855 -0.2892
  156OSM   H15F17489   3.823   7.909   3.653  1.1853 -3.4750  0.2522
  156OSM   H15G17490   3.788   7.818   3.796 -1.7839  1.1881  1.9198
  156OSM   C16F17491   3.773   8.024   3.839  0.6184  0.1420 -0.2886
  156OSM   H16F17492   3.697   8.025   3.921  1.8217  0.1325  0.8658
  156OSM   H16G17493   3.757   8.118   3.783  0.4042  1.1930  1.4589
  156OSM   C17F17494   3.910   8.034   3.906 -0.7514 -0.2687 -0.5732
  156OSM   H17F17495   3.985   8.033   3.824 -0.8521  0.5504 -0.6904
  156OSM   H17G17496   3.922   7.935   3.954 -0.9467 -0.0231 -0.0030
  156OSM   C18F17497   3.938   8.145   4.012  0.4706 -0.3962  0.5490
  156OSM   H18F17498   3.914   8.241   3.961  0.2714 -0.7652 -0.0663
  156OSM   H18G17499   4.041   8.136   4.054  1.6050 -0.6603 -2.0594
  156OSM   H18H17500   3.859   8.133   4.089 -2.5861 -0.1663 -2.3376
  157OSM      N17501   4.228   1.227   1.724  0.9969  0.6139 -0.1940
  157OSM    C1517502   4.106   1.270   1.644  0.0120 -0.2683  0.2258
  157OSM   H15A17503   4.058   1.179   1.610 -0.5936  1.0245 -2.7334
  157OSM   H15B17504   4.139   1.326   1.558  0.0458 -1.2218 -0.3994
  157OSM   H15C17505   4.039   1.331   1.702  1.0639  2.6109 -1.4072
  157OSM    C1417506   4.327   1.162   1.634 -0.7632 -0.3066  0.1717
  157OSM   H14A17507   4.292   1.063   1.609 -1.7131  0.2983 -1.0352
  157OSM   H14B17508   4.427   1.161   1.675 -0.1905  0.7814 -1.1099
  157OSM   H14C17509   4.336   1.229   1.549  1.0107  0.1523  0.6622
  157OSM    C1317510   4.284   1.354   1.783  0.4043  0.2908  0.3973
  157OSM   H13A17511   4.273   1.436   1.714  0.0900  0.4098  0.5869
  157OSM   H13B17512   4.388   1.336   1.808  0.4657  1.2187  0.8611
  157OSM   H13C17513   4.220   1.388   1.862 -0.3253  2.5380 -1.0575
  157OSM    C1217514   4.175   1.134   1.833  0.0322  0.4454 -0.1561
  157OSM   H12A17515   4.252   1.116   1.906 -1.4876 -0.5783  1.2958
  157OSM   H12B17516   4.144   1.039   1.792 -0.0713  1.3192 -2.2162
  157OSM    C1117517   4.061   1.185   1.921 -0.5343 -0.3248  0.3081
  157OSM   H11A17518   4.018   1.108   1.988 -0.0659 -0.0174  0.9658
  157OSM   H11B17519   3.972   1.205   1.857  0.4240  1.4160 -0.5542
  157OSM      P17520   4.199   1.279   2.127 -0.3156 -0.2137 -0.3278
  157OSM    O1317521   4.180   1.137   2.175 -0.6534 -0.1295  0.2092
  157OSM    O1417522   4.337   1.321   2.101 -0.2816 -0.1968  0.2010
  157OSM    O1117523   4.140   1.378   2.235 -0.0455  0.0938 -0.0683
  157OSM    O1217524   4.104   1.302   1.997 -0.7912 -0.0382 -0.2590
  157OSM    C1S17525   3.999   1.412   2.246  0.6351  0.1189 -0.5362
  157OSM    H1S17526   3.936   1.333   2.201  1.2639  0.0975 -1.4043
  157OSM    H1T17527   3.973   1.506   2.192  0.1152 -0.1877 -0.8242
  157OSM     NF17528   3.815   1.456   2.408  0.4874 -0.1649 -0.9253
  157OSM    HNF17529   3.785   1.545   2.441 -0.1285  0.2405 -2.4849
  157OSM    C2S17530   3.953   1.431   2.396 -0.4037  0.3350 -0.3737
  157OSM    H2S17531   3.973   1.334   2.446 -1.0201  0.9708  1.1573
  157OSM    C3S17532   4.045   1.540   2.465  0.4006  0.6462  0.0863
  157OSM    H3S17533   4.018   1.640   2.425 -0.5957 -0.1129 -1.1989
  157OSM     O317534   4.182   1.527   2.438 -0.1163 -0.1319  0.3200
  157OSM    HO317535   4.194   1.457   2.374 -0.6881  0.9083 -0.9750
  157OSM    C4S17536   4.018   1.540   2.615  0.2955  0.4200 -0.0175
  157OSM    H4S17537   4.056   1.448   2.661 -1.2551 -0.0961  0.3139
  157OSM    C5S17538   3.952   1.640   2.686  0.4900  0.2135  0.4135
  157OSM    H5S17539   3.923   1.726   2.623 -1.0828 -0.2676  0.4383
  157OSM    C6S17540   3.916   1.648   2.832  0.3209  0.7404  0.0584
  157OSM    H6S17541   3.852   1.561   2.855  1.5901 -0.3087 -0.2435
  157OSM    H6T17542   3.858   1.735   2.870 -1.2765  0.3150 -1.2651
  157OSM    C7S17543   4.047   1.625   2.905  0.2583  0.1706 -0.3439
  157OSM    H7S17544   4.096   1.720   2.875 -0.7241  1.2769  1.3815
  157OSM    H7T17545   4.106   1.542   2.861 -0.3392 -0.2062 -0.4454
  157OSM    C8S17546   4.033   1.593   3.055 -0.3420 -0.8268  0.1572
  157OSM    H8S17547   4.119   1.545   3.105 -0.8802  1.5986  3.7824
  157OSM    H8T17548   3.955   1.518   3.077 -1.3371  0.7758  2.4517
  157OSM    C9S17549   3.995   1.709   3.147  0.4382 -0.7620 -0.4299
  157OSM    H9S17550   3.888   1.740   3.148  0.2794 -1.1971 -1.9050
  157OSM    H9T17551   4.064   1.795   3.137 -0.3372  0.1271  1.2654
  157OSM   C10S17552   4.015   1.674   3.297  0.3690  0.0294  0.1987
  157OSM   H10S17553   4.118   1.632   3.295  0.7669  0.9629 -2.0821
  157OSM   H10T17554   3.942   1.594   3.321 -1.2491  0.9272 -1.4547
  157OSM   C11S17555   4.011   1.792   3.403  0.4419  0.1879 -0.1537
  157OSM   H11S17556   4.067   1.754   3.491 -0.2865  0.1821  0.3082
  157OSM   H11T17557   3.908   1.817   3.434  0.0331 -2.0890  0.5135
  157OSM   C12S17558   4.077   1.917   3.348  0.1429 -0.0731 -0.5146
  157OSM   H12S17559   4.050   1.998   3.419 -1.6792 -0.6128 -0.5481
  157OSM   H12T17560   4.032   1.956   3.254 -1.4953  0.6085  0.5041
  157OSM   C13S17561   4.225   1.913   3.326  0.5026 -0.1804  0.8220
  157OSM   H13S17562   4.254   1.861   3.232  0.1178 -2.6437  1.9623
  157OSM   H13T17563   4.282   1.870   3.412  0.4376 -2.3268 -0.1389
  157OSM   C14S17564   4.280   2.054   3.290  0.2472  0.4465 -0.1169
  157OSM   H14S17565   4.236   2.114   3.372 -0.6542  0.3512 -0.5159
  157OSM   H14T17566   4.241   2.091   3.193  0.4220 -0.5777 -0.5899
  157OSM   C15S17567   4.425   2.069   3.316 -0.1448 -0.2054  0.5989
  157OSM   H15S17568   4.477   2.029   3.226 -1.1583  0.1146 -0.1526
  157OSM   H15T17569   4.457   2.008   3.402 -0.3607  0.9001  1.4847
  157OSM   C16S17570   4.471   2.214   3.345 -0.1792 -0.6422  0.1980
  157OSM   H16S17571   4.576   2.221   3.383  0.0005  0.9713 -0.5159
  157OSM   H16T17572   4.410   2.257   3.427  1.8060  0.7001  1.0581
  157OSM   C17S17573   4.437   2.306   3.221  0.3940 -0.2227 -0.0225
  157OSM   H17S17574   4.471   2.408   3.246  1.4624 -0.3160 -1.0575
  157OSM   H17T17575   4.327   2.318   3.212  0.5484  1.3232 -0.0287
  157OSM   C18S17576   4.495   2.265   3.088  0.0285 -0.6083 -0.3333
  157OSM   H18S17577   4.606   2.266   3.091  0.0751  1.7180 -0.3802
  157OSM   H18T17578   4.461   2.337   3.011  2.1076 -0.2253 -0.9687
  157OSM   H18U17579   4.458   2.164   3.060 -0.0299 -0.8118  0.4524
  157OSM    C1F17580   3.725   1.366   2.376  0.4514 -0.2087  0.3606
  157OSM     OF17581   3.744   1.260   2.321 -0.1636 -0.9318 -0.2455
  157OSM    C2F17582   3.585   1.400   2.405  0.7024 -0.0458  0.4769
  157OSM    H2F17583   3.517   1.374   2.321 -1.0075  2.1556  1.0814
  157OSM    H2G17584   3.561   1.509   2.411 -0.9589 -0.1335 -2.5383
  157OSM    C3F17585   3.526   1.323   2.522  0.3769  0.4216  0.5293
  157OSM    H3F17586   3.569   1.221   2.511 -1.9825 -0.4833 -1.1689
  157OSM    H3G17587   3.416   1.313   2.509  0.3000 -0.0628  1.4396
  157OSM    C4F17588   3.560   1.372   2.664 -0.2350  0.3444 -0.2711
  157OSM    H4F17589   3.649   1.433   2.637  0.4003  0.1703  1.3648
  157OSM    H4G17590   3.587   1.286   2.728  1.9316  0.7108 -0.6070
  157OSM    C5F17591   3.463   1.466   2.736  0.8829  0.5894  0.2373
  157OSM    H5F17592   3.369   1.424   2.779  0.2285  2.1623  0.3907
  157OSM    H5G17593   3.434   1.534   2.653  2.2857 -0.2605 -1.0188
  157OSM    C6F17594   3.520   1.559   2.841  0.2720  0.3675  0.1206
  157OSM    H6F17595   3.441   1.631   2.872  0.7388  0.0144  2.2969
  157OSM    H6G17596   3.610   1.613   2.803  0.9259 -0.7763 -0.0064
  157OSM    C7F17597   3.560   1.484   2.964  0.3671 -0.4738  0.5428
  157OSM    H7F17598   3.646   1.417   2.945  2.1084  1.7180  0.2130
  157OSM    H7G17599   3.470   1.440   3.013  0.3059  0.0217  0.8852
  157OSM    C8F17600   3.609   1.596   3.065 -0.3982  0.7372 -0.1584
  157OSM    H8F17601   3.525   1.668   3.060 -1.6082 -0.5509  0.8779
  157OSM    H8G17602   3.701   1.644   3.025  0.7261 -2.5778 -1.9156
  157OSM    C9F17603   3.640   1.529   3.201 -0.3662  0.3193 -0.3984
  157OSM    H9F17604   3.704   1.440   3.193 -2.0357 -0.7736 -2.7197
  157OSM   C10F17605   3.611   1.576   3.325 -0.3945  0.2369 -0.3520
  157OSM   H10F17606   3.635   1.504   3.405  1.6813 -2.2681 -2.9777
  157OSM   C11F17607   3.531   1.697   3.363  0.4731  0.4488  0.1819
  157OSM   H11F17608   3.436   1.665   3.410  0.4971 -2.2733 -1.4046
  157OSM   H11G17609   3.515   1.753   3.269  1.3212  1.4524  0.6195
  157OSM   C12F17610   3.586   1.803   3.461  0.4912 -0.1636  0.2629
  157OSM   H12F17611   3.525   1.895   3.469  0.1091 -0.5198  1.6734
  157OSM   H12G17612   3.684   1.833   3.418 -0.7622  0.9866 -1.9384
  157OSM   C13F17613   3.610   1.746   3.598 -0.0246  0.0805  0.7384
  157OSM   H13F17614   3.664   1.649   3.588  0.1669  0.3907 -2.1066
  157OSM   H13G17615   3.514   1.707   3.640  0.3323 -1.7908 -0.0721
  157OSM   C14F17616   3.678   1.822   3.711  0.0611 -0.0372  0.1329
  157OSM   H14F17617   3.788   1.822   3.697  0.2308  1.1900  1.2630
  157OSM   H14G17618   3.678   1.773   3.811 -0.2767  1.6168  0.9881
  157OSM   C15F17619   3.621   1.958   3.757  0.1508 -0.3454 -0.2188
  157OSM   H15F17620   3.589   2.007   3.662 -0.9400  0.9075  0.7540
  157OSM   H15G17621   3.696   2.021   3.809 -2.0984  0.4310  2.3226
  157OSM   C16F17622   3.490   1.957   3.847 -0.0898  0.8885 -0.2900
  157OSM   H16F17623   3.519   1.902   3.939  0.8534 -2.4693 -2.4280
  157OSM   H16G17624   3.414   1.884   3.811  1.1265 -0.9444  0.7214
  157OSM   C17F17625   3.422   2.102   3.871 -0.4688 -0.0874 -0.1970
  157OSM   H17F17626   3.343   2.082   3.947 -1.5150 -0.7931 -1.4255
  157OSM   H17G17627   3.368   2.140   3.782 -0.1133  0.9101  0.0073
  157OSM   C18F17628   3.521   2.211   3.903  0.6817 -0.2160  0.5371
  157OSM   H18F17629   3.591   2.230   3.818  0.0811 -0.0488  0.0718
  157OSM   H18G17630   3.584   2.186   3.991  2.3278  3.5607  0.6536
  157OSM   H18H17631   3.474   2.309   3.924 -1.2355 -1.3776  1.9619
  158OSM      N17632   1.599   2.651   2.200  0.7278 -0.1254 -1.1407
  158OSM    C1517633   1.720   2.593   2.262 -0.5561  0.2683 -0.2064
  158OSM   H15A17634   1.768   2.668   2.323 -1.4156  2.0534 -1.6400
  158OSM   H15B17635   1.793   2.574   2.185  1.5822  0.0716  1.7847
  158OSM   H15C17636   1.703   2.509   2.327  1.1613 -0.2601 -0.3972
  158OSM    C1417637   1.641   2.780   2.136  0.3796  0.6310  0.2120
  158OSM   H14A17638   1.554   2.817   2.083  1.1982  3.0502  0.4369
  158OSM   H14B17639   1.714   2.763   2.058 -0.4851  2.1229 -0.9886
  158OSM   H14C17640   1.674   2.854   2.208 -1.6652 -1.0557  3.1031
  158OSM    C1317641   1.537   2.555   2.105  0.1604  0.1123 -0.8640
  158OSM   H13A17642   1.436   2.582   2.079 -0.4277  0.4648  1.5400
  158OSM   H13B17643   1.519   2.461   2.156 -1.7777  0.8620 -0.0730
  158OSM   H13C17644   1.599   2.531   2.019 -1.4917  1.0057 -2.3672
  158OSM    C1217645   1.506   2.681   2.319  0.1473  0.2249 -1.1206
  158OSM   H12A17646   1.419   2.731   2.276  0.0989  0.4096 -0.8121
  158OSM   H12B17647   1.551   2.759   2.379 -0.8688  0.3546 -0.5134
  158OSM    C1117648   1.453   2.574   2.417 -0.3772  0.0436 -0.3416
  158OSM   H11A17649   1.425   2.621   2.513 -0.5762 -0.2889 -0.2354
  158OSM   H11B17650   1.536   2.508   2.449  1.6205  1.6530 -1.8974
  158OSM      P17651   1.202   2.545   2.355 -0.2070  0.0495  0.2054
  158OSM    O1317652   1.191   2.690   2.393  0.9259 -1.0591  0.4300
  158OSM    O1417653   1.153   2.506   2.221  0.2961 -0.1119  0.0706
  158OSM    O1117654   1.131   2.452   2.462 -0.4065 -0.0600 -0.1296
  158OSM    O1217655   1.351   2.494   2.365  0.2164 -0.1456  0.0230
  158OSM    C1S17656   1.211   2.387   2.552 -0.2743 -0.3027  0.2244
  158OSM    H1S17657   1.276   2.461   2.602 -0.0516 -0.9216  0.8685
  158OSM    H1T17658   1.281   2.318   2.501 -0.2860 -1.2502  1.4441
  158OSM     NF17659   1.197   2.251   2.776 -1.5039  0.1934  0.2741
  158OSM    HNF17660   1.178   2.154   2.788 -1.1062 -0.2488 -2.1094
  158OSM    C2S17661   1.129   2.320   2.668  0.2054 -0.4175  0.1885
  158OSM    H2S17662   1.076   2.404   2.718  0.3858 -0.8594  1.1359
  158OSM    C3S17663   1.003   2.234   2.614 -0.9545  0.4604 -0.2992
  158OSM    H3S17664   1.033   2.136   2.571  0.3316  0.3129  0.8952
  158OSM     O317665   0.929   2.291   2.507 -0.4452 -0.1073 -0.5771
  158OSM    HO317666   0.996   2.352   2.478  0.5847 -0.1516  1.5302
  158OSM    C4S17667   0.903   2.198   2.725  0.1008  0.3622 -0.1309
  158OSM    H4S17668   0.858   2.285   2.777  1.0012  1.8171 -1.6916
  158OSM    C5S17669   0.870   2.070   2.760 -0.4464  0.1294 -0.5644
  158OSM    H5S17670   0.919   1.983   2.714 -0.6256  0.5302 -1.5522
  158OSM    C6S17671   0.788   2.032   2.882 -0.1102 -0.0373 -0.3043
  158OSM    H6S17672   0.821   1.932   2.918  0.2081 -0.2648 -1.1952
  158OSM    H6T17673   0.682   2.013   2.856 -0.5132 -1.1404  1.9645
  158OSM    C7S17674   0.784   2.140   3.004 -0.8008  0.6080  0.3512
  158OSM    H7S17675   0.760   2.235   2.953  2.9027  2.4389  1.6538
  158OSM    H7T17676   0.887   2.147   3.045  0.0618 -1.9168 -1.1207
  158OSM    C8S17677   0.691   2.106   3.126 -0.1949 -0.0295  0.3237
  158OSM    H8S17678   0.712   2.010   3.177 -0.8839 -0.3448  0.0256
  158OSM    H8T17679   0.590   2.090   3.083  0.9451 -0.6963 -2.2509
  158OSM    C9S17680   0.683   2.223   3.230 -0.0023  0.1128  0.9640
  158OSM    H9S17681   0.608   2.296   3.193  0.7491 -0.2592 -1.4646
  158OSM    H9T17682   0.777   2.283   3.228 -1.2206  2.2781  2.8827
  158OSM   C10S17683   0.649   2.181   3.374  0.2750  0.2311  1.0496
  158OSM   H10S17684   0.742   2.127   3.401 -0.0666 -0.1456  1.4743
  158OSM   H10T17685   0.561   2.113   3.376  1.0881 -0.8739  0.4633
  158OSM   C11S17686   0.617   2.296   3.468 -0.5564  0.3584  0.1218
  158OSM   H11S17687   0.518   2.342   3.448 -0.0742  1.6482  0.5659
  158OSM   H11T17688   0.691   2.374   3.441 -1.3239  0.9782 -0.2081
  158OSM   C12S17689   0.632   2.261   3.618 -0.1967 -0.4122  0.5602
  158OSM   H12S17690   0.738   2.228   3.629 -0.2334 -1.2795 -1.3635
  158OSM   H12T17691   0.562   2.181   3.651 -2.5284  1.4699  0.4235
  158OSM   C13S17692   0.615   2.378   3.720  0.1706  0.3041  0.1522
  158OSM   H13S17693   0.519   2.426   3.693  1.3384  2.7282 -0.0350
  158OSM   H13T17694   0.698   2.452   3.711 -0.1236  0.8344  1.4882
  158OSM   C14S17695   0.617   2.315   3.867 -0.0240  0.2925  0.6587
  158OSM   H14S17696   0.696   2.239   3.883  0.0345 -0.2708 -1.8484
  158OSM   H14T17697   0.516   2.269   3.881 -0.4437  1.2558  0.8992
  158OSM   C15S17698   0.636   2.428   3.969 -0.5183 -0.2128  0.2576
  158OSM   H15S17699   0.552   2.500   3.961  0.4985  1.3128  2.3756
  158OSM   H15T17700   0.731   2.482   3.945  0.0515 -1.8069 -1.3040
  158OSM   C16S17701   0.637   2.365   4.103 -0.1257  0.2965  0.8488
  158OSM   H16S17702   0.729   2.303   4.116 -0.6825 -1.2334 -1.8630
  158OSM   H16T17703   0.551   2.295   4.106  0.6936 -0.7674  0.3845
  158OSM   C17S17704   0.617   2.452   4.223  0.4433  0.3720 -0.2249
  158OSM   H17S17705   0.531   2.521   4.211 -0.0036  0.6301  3.4089
  158OSM   H17T17706   0.708   2.512   4.240  2.7068 -2.8784  0.0337
  158OSM   C18S17707   0.592   2.366   4.344  0.3996  0.1064  0.9734
  158OSM   H18S17708   0.685   2.312   4.370 -0.2231 -0.9658  1.0131
  158OSM   H18T17709   0.514   2.296   4.306 -0.0115  0.2634  1.4988
  158OSM   H18U17710   0.539   2.409   4.432 -1.3284  0.9714 -0.4049
  158OSM    C1F17711   1.300   2.313   2.838  0.0815  0.0175  0.4510
  158OSM     OF17712   1.322   2.434   2.829  0.2226  0.4036  0.5600
  158OSM    C2F17713   1.395   2.226   2.913 -0.0590 -0.0219  0.4803
  158OSM    H2F17714   1.481   2.207   2.845 -1.4304 -0.8566 -1.1021
  158OSM    H2G17715   1.356   2.126   2.940  0.9926  0.1122  2.6699
  158OSM    C3F17716   1.443   2.290   3.044  0.1426 -0.1381  0.0861
  158OSM    H3F17717   1.509   2.375   3.016  0.2280  0.7010  2.5225
  158OSM    H3G17718   1.502   2.216   3.102  1.3139  0.7675  0.0978
  158OSM    C4F17719   1.329   2.345   3.140 -0.9266  0.0973  0.2774
  158OSM    H4F17720   1.280   2.432   3.092 -0.4244  0.0956 -0.2512
  158OSM    H4G17721   1.380   2.368   3.236 -0.2782  0.0369 -0.0479
  158OSM    C5F17722   1.223   2.236   3.176  0.8959 -0.2449 -0.2459
  158OSM    H5F17723   1.290   2.155   3.214  2.1489  1.3796  1.1817
  158OSM    H5G17724   1.167   2.204   3.086 -0.1159  2.3905 -0.6245
  158OSM    C6F17725   1.128   2.263   3.305 -0.2603 -0.4571  0.3353
  158OSM    H6F17726   1.070   2.356   3.286  0.2741  0.2518  1.9778
  158OSM    H6G17727   1.200   2.286   3.387 -0.7688  2.8890  0.0215
  158OSM    C7F17728   1.047   2.138   3.345  0.1615  0.5979 -0.2328
  158OSM    H7F17729   1.116   2.051   3.336 -1.1355 -0.6208  1.1418
  158OSM    H7G17730   0.961   2.135   3.275  0.2603 -0.0640 -0.3278
  158OSM    C8F17731   1.001   2.138   3.497 -0.4609  0.3551 -0.1737
  158OSM    H8F17732   0.933   2.052   3.511 -0.2375  0.4911  2.0453
  158OSM    H8G17733   0.941   2.231   3.501 -0.2378  0.4588  0.7823
  158OSM    C9F17734   1.112   2.156   3.600  0.6592  0.3429  0.0610
  158OSM    H9F17735   1.170   2.249   3.590  0.0658  1.0231  2.3519
  158OSM   C10F17736   1.124   2.086   3.714  0.8840 -0.3025 -0.0920
  158OSM   H10F17737   1.205   2.111   3.783 -1.0072 -0.9013  2.5208
  158OSM   C11F17738   1.040   1.975   3.767  0.1869  0.6432 -0.0452
  158OSM   H11F17739   1.083   1.875   3.745  0.4340  0.3677  1.5904
  158OSM   H11G17740   0.942   1.967   3.715  0.4999 -0.2405 -0.5169
  158OSM   C12F17741   1.000   2.002   3.913 -0.1525 -0.6861 -0.9146
  158OSM   H12F17742   0.910   1.941   3.939  0.5631 -1.6741 -0.7077
  158OSM   H12G17743   0.965   2.106   3.926  0.1594 -0.7156  0.2948
  158OSM   C13F17744   1.111   1.977   4.010  0.1721 -0.0392  0.1559
  158OSM   H13F17745   1.166   2.071   4.034  1.4015 -0.7905  0.3789
  158OSM   H13G17746   1.181   1.903   3.966  1.3818  0.8078  0.6078
  158OSM   C14F17747   1.064   1.918   4.145  0.5921 -0.4019  0.3072
  158OSM   H14F17748   1.015   1.819   4.128 -2.2925  0.8141  0.9102
  158OSM   H14G17749   0.989   1.984   4.193  0.8812  0.9479 -1.0072
  158OSM   C15F17750   1.173   1.894   4.248 -0.0057  0.2226  0.3287
  158OSM   H15F17751   1.128   1.886   4.349  0.3934  1.5968  0.6237
  158OSM   H15G17752   1.235   1.985   4.253 -2.3349  1.9785 -0.7085
  158OSM   C16F17753   1.256   1.764   4.219 -0.3459  0.4284  0.1795
  158OSM   H16F17754   1.312   1.782   4.125 -2.8183  2.5022 -1.0046
  158OSM   H16G17755   1.198   1.669   4.212  0.7107 -0.2577  0.3669
  158OSM   C17F17756   1.352   1.742   4.333  0.5490  0.1327  0.2656
  158OSM   H17F17757   1.305   1.731   4.434  0.8784 -1.8403  0.2391
  158OSM   H17G17758   1.415   1.833   4.337  1.5021 -0.5176  0.4180
  158OSM   C18F17759   1.443   1.618   4.299 -0.0661 -0.0456 -0.1938
  158OSM   H18F17760   1.535   1.613   4.360 -0.9506 -3.8894  1.1189
  158OSM   H18G17761   1.486   1.625   4.197  3.1714 -1.6054  0.9304
  158OSM   H18H17762   1.386   1.524   4.317 -1.4587  1.0476  1.4903
  159OSM      N17763   3.390   1.495   1.905  0.8749 -0.0033  0.2471
  159OSM    C1517764   3.480   1.489   1.789 -0.0270 -1.0467  0.0298
  159OSM   H15A17765   3.418   1.495   1.701  1.0961  1.1476 -0.6965
  159OSM   H15B17766   3.546   1.403   1.784  1.2826 -0.1511  1.1264
  159OSM   H15C17767   3.547   1.574   1.783 -0.6324 -0.6210 -5.2241
  159OSM    C1417768   3.327   1.632   1.906 -0.2483  0.2465 -0.2689
  159OSM   H14A17769   3.406   1.704   1.919  2.0232 -2.1859  0.0589
  159OSM   H14B17770   3.254   1.648   1.984 -1.9891  0.1144 -1.7968
  159OSM   H14C17771   3.277   1.643   1.810 -0.9812 -1.4082 -0.1174
  159OSM    C1317772   3.273   1.397   1.881 -0.4374 -0.3145 -0.5137
  159OSM   H13A17773   3.298   1.292   1.882  0.2115 -0.1691 -0.8984
  159OSM   H13B17774   3.235   1.417   1.782  2.4601 -0.3033 -1.7393
  159OSM   H13C17775   3.201   1.406   1.961 -0.8706 -2.5837 -0.5764
  159OSM    C1217776   3.469   1.474   2.034 -0.0402 -0.0891 -0.1125
  159OSM   H12A17777   3.550   1.408   2.007  0.5998 -0.1273  1.7471
  159OSM   H12B17778   3.404   1.428   2.107 -0.7243  1.6578  0.4163
  159OSM    C1117779   3.522   1.606   2.106 -0.4749 -0.0227  0.5429
  159OSM   H11A17780   3.595   1.568   2.181  0.2545  1.4306  0.5934
  159OSM   H11B17781   3.439   1.652   2.164 -0.4182 -0.1574  0.7344
  159OSM      P17782   3.732   1.692   1.977 -0.5368 -0.2906  0.0526
  159OSM    O1317783   3.766   1.556   1.945  0.2122 -0.3158 -0.2224
  159OSM    O1417784   3.764   1.795   1.876 -0.3188  0.1739 -0.3995
  159OSM    O1117785   3.808   1.735   2.114  0.0813  0.3588  0.0661
  159OSM    O1217786   3.578   1.704   2.015  0.3414  0.7748  0.1366
  159OSM    C1S17787   3.752   1.838   2.197  0.0165 -0.0515 -0.1490
  159OSM    H1S17788   3.659   1.800   2.245 -0.3440  0.2817 -0.5686
  159OSM    H1T17789   3.734   1.925   2.130  1.8511  0.8389  0.4450
  159OSM     NF17790   3.770   1.935   2.434  0.5824  0.5309 -0.2440
  159OSM    HNF17791   3.778   2.033   2.450  0.4097  0.4780  0.1899
  159OSM    C2S17792   3.845   1.878   2.325  0.1543  0.4483 -0.0745
  159OSM    H2S17793   3.885   1.779   2.357  0.0912  0.0871 -1.0846
  159OSM    C3S17794   3.978   1.949   2.281 -0.0470  0.2352 -0.5158
  159OSM    H3S17795   3.950   2.051   2.246 -1.4507  0.2166  0.4558
  159OSM     O317796   4.043   1.891   2.167  0.6368 -0.4295 -0.3393
  159OSM    HO317797   3.991   1.816   2.137 -0.2225  0.6009 -1.5471
  159OSM    C4S17798   4.071   1.954   2.401 -0.3871 -0.0292  0.2066
  159OSM    H4S17799   4.064   1.857   2.452 -1.7745 -1.6443 -2.7623
  159OSM    C5S17800   4.139   2.060   2.441  0.6090 -0.0526 -0.4767
  159OSM    H5S17801   4.139   2.157   2.389 -0.9000 -0.0693 -0.5403
  159OSM    C6S17802   4.215   2.066   2.574  0.0738  0.5813 -0.5692
  159OSM    H6S17803   4.199   2.167   2.617 -2.2775 -0.0350  0.1724
  159OSM    H6T17804   4.325   2.064   2.557  0.5833 -0.3314  2.3185
  159OSM    C7S17805   4.173   1.965   2.680  0.0422  0.4250 -0.6331
  159OSM    H7S17806   4.247   1.978   2.762 -0.3634  2.8096 -0.5904
  159OSM    H7T17807   4.179   1.863   2.635 -0.9922  1.0377 -2.2675
  159OSM    C8S17808   4.034   1.985   2.738  0.2019 -0.5707 -0.1130
  159OSM    H8S17809   4.015   1.892   2.795  0.8747 -0.7805 -0.2208
  159OSM    H8T17810   3.957   1.998   2.659  0.3381  1.7100  0.0561
  159OSM    C9S17811   4.021   2.101   2.839  0.5117 -0.1649  0.0715
  159OSM    H9S17812   4.049   2.187   2.774  3.6579 -0.1199  1.3333
  159OSM    H9T17813   4.099   2.093   2.917  0.9898  0.6722 -0.3212
  159OSM   C10S17814   3.880   2.115   2.892 -0.7480  0.3104 -0.1481
  159OSM   H10S17815   3.868   2.028   2.959  0.3872 -1.5317 -2.2072
  159OSM   H10T17816   3.820   2.107   2.799 -0.0795  1.3326 -0.6911
  159OSM   C11S17817   3.856   2.240   2.967 -0.0793 -0.1445  0.6070
  159OSM   H11S17818   3.750   2.247   3.001 -1.0300 -0.9758 -1.9503
  159OSM   H11T17819   3.876   2.325   2.898 -0.1862 -0.3149  0.3620
  159OSM   C12S17820   3.945   2.242   3.095  0.3906  0.4411 -0.9748
  159OSM   H12S17821   4.050   2.270   3.072  0.6880 -1.4944 -2.1799
  159OSM   H12T17822   3.955   2.136   3.125 -0.0865  0.5915 -0.2599
  159OSM   C13S17823   3.881   2.333   3.205  0.2298  0.4735 -0.5757
  159OSM   H13S17824   3.777   2.294   3.211  1.0413 -2.0957 -1.6093
  159OSM   H13T17825   3.876   2.440   3.176  0.8318  0.2448 -1.5724
  159OSM   C14S17826   3.957   2.311   3.341 -0.1203 -0.3622 -0.1038
  159OSM   H14S17827   4.060   2.278   3.318 -0.3925 -1.2105 -0.1629
  159OSM   H14T17828   3.906   2.219   3.377 -2.5626  0.9700  0.1165
  159OSM   C15S17829   3.954   2.427   3.439 -0.1029 -0.3252  0.2442
  159OSM   H15S17830   3.857   2.480   3.430  0.9798  1.3945 -2.6713
  159OSM   H15T17831   4.027   2.500   3.398 -1.4008  0.3818 -0.9341
  159OSM   C16S17832   3.976   2.386   3.585 -0.1297 -0.6741  0.3345
  159OSM   H16S17833   4.073   2.338   3.562 -0.5666 -1.5751  0.3519
  159OSM   H16T17834   3.899   2.322   3.633 -1.8107  2.2408  1.8694
  159OSM   C17S17835   3.980   2.520   3.663 -0.0688  0.4491  0.1954
  159OSM   H17S17836   3.896   2.590   3.647  0.2263  0.8789  0.5204
  159OSM   H17T17837   4.063   2.583   3.624 -1.4294  1.9315 -0.4092
  159OSM   C18S17838   4.014   2.504   3.812  0.8017  0.2154 -0.5068
  159OSM   H18S17839   3.925   2.490   3.877  1.4799 -0.4631  0.3013
  159OSM   H18T17840   4.071   2.591   3.851  2.4578 -0.8925 -0.3065
  159OSM   H18U17841   4.076   2.415   3.838  0.5297  0.3107  0.4837
  159OSM    C1F17842   3.675   1.862   2.497  0.4483 -0.9341  0.2874
  159OSM     OF17843   3.664   1.744   2.486 -0.2787 -0.7891  0.7508
  159OSM    C2F17844   3.581   1.939   2.577 -0.1075  0.2364  0.7632
  159OSM    H2F17845   3.481   1.950   2.529  0.7248 -0.9561 -1.3772
  159OSM    H2G17846   3.620   2.040   2.600 -0.4739  0.6612 -0.3776
  159OSM    C3F17847   3.578   1.878   2.723 -0.0318  0.7927 -0.8162
  159OSM    H3F17848   3.678   1.850   2.762  0.2300  0.5754 -1.6287
  159OSM    H3G17849   3.516   1.786   2.719 -0.9292  1.2692  1.1152
  159OSM    C4F17850   3.498   1.970   2.823 -0.3030  0.0052  0.1896
  159OSM    H4F17851   3.395   1.980   2.782  0.8126  0.4125 -2.7627
  159OSM    H4G17852   3.549   2.068   2.811 -1.6738  0.6287 -0.7801
  159OSM    C5F17853   3.504   1.933   2.971  0.0097  0.2283  0.0754
  159OSM    H5F17854   3.603   1.893   2.999 -0.6945 -0.1028  2.3260
  159OSM    H5G17855   3.435   1.847   2.982  2.2792 -1.6141  0.5782
  159OSM    C6F17856   3.455   2.049   3.054 -0.0549  0.5481  0.2639
  159OSM    H6F17857   3.344   2.060   3.056  0.0530  1.5535  1.5564
  159OSM    H6G17858   3.491   2.144   3.011 -1.3932  1.6838  1.5405
  159OSM    C7F17859   3.492   2.036   3.198 -0.1720  0.5157 -0.4219
  159OSM    H7F17860   3.592   1.987   3.197  0.0050  0.8752 -0.4265
  159OSM    H7G17861   3.431   1.968   3.260  0.2487  2.2280  2.0080
  159OSM    C8F17862   3.508   2.174   3.266  0.0089  0.0284  0.2109
  159OSM    H8F17863   3.560   2.242   3.197 -0.8730 -0.3465 -0.8661
  159OSM    H8G17864   3.582   2.166   3.348 -0.5381 -0.9701  0.6400
  159OSM    C9F17865   3.376   2.229   3.319  0.0641 -0.1950 -0.2422
  159OSM    H9F17866   3.286   2.210   3.260  0.2273  0.9120 -0.8822
  159OSM   C10F17867   3.355   2.291   3.436  0.7763 -0.1336 -0.4701
  159OSM   H10F17868   3.253   2.329   3.451 -0.2805 -3.1370  0.6851
  159OSM   C11F17869   3.454   2.311   3.548  0.0840  0.4385 -0.2532
  159OSM   H11F17870   3.541   2.242   3.534 -0.9263 -0.3727 -3.1458
  159OSM   H11G17871   3.399   2.284   3.641  0.2634  0.6416 -0.0867
  159OSM   C12F17872   3.504   2.451   3.590  0.9320  0.3597  1.0340
  159OSM   H12F17873   3.547   2.493   3.497 -1.1680 -0.7987 -0.5361
  159OSM   H12G17874   3.575   2.429   3.673  0.3150 -1.6150  1.1019
  159OSM   C13F17875   3.388   2.537   3.643  0.1401  0.3946  0.5578
  159OSM   H13F17876   3.328   2.486   3.722  0.3206  0.9622  1.0738
  159OSM   H13G17877   3.321   2.559   3.558  0.8964 -1.7583 -0.6743
  159OSM   C14F17878   3.436   2.674   3.694  0.2219 -0.2621 -0.6413
  159OSM   H14F17879   3.342   2.732   3.708  0.4838 -0.5834  3.7670
  159OSM   H14G17880   3.492   2.723   3.612 -0.1811  0.0413 -0.7391
  159OSM   C15F17881   3.501   2.643   3.830  0.1118 -0.6679 -0.1802
  159OSM   H15F17882   3.602   2.689   3.837 -0.2019 -0.2305  3.0848
  159OSM   H15G17883   3.510   2.532   3.837  0.0917 -0.7013 -0.6689
  159OSM   C16F17884   3.419   2.702   3.945  0.1456 -0.2519 -0.7794
  159OSM   H16F17885   3.308   2.695   3.946  0.1366 -1.8661  2.8020
  159OSM   H16G17886   3.436   2.812   3.947  0.4282 -0.1964 -3.0867
  159OSM   C17F17887   3.481   2.644   4.075  0.4058 -0.9293  0.9874
  159OSM   H17F17888   3.441   2.542   4.092 -1.0321 -0.6719 -0.5969
  159OSM   H17G17889   3.438   2.717   4.147 -0.8013  2.3544 -2.6916
  159OSM   C18F17890   3.636   2.646   4.085  0.1253 -0.2045  0.2027
  159OSM   H18F17891   3.679   2.599   3.994 -2.0569  1.7158 -1.9642
  159OSM   H18G17892   3.666   2.585   4.172  4.5626  3.3271  1.5119
  159OSM   H18H17893   3.669   2.749   4.108 -1.6524  0.2685  0.7856
  160OSM      N17894   6.427   1.350   1.847 -0.4288  0.3619 -0.1621
  160OSM    C1517895   6.306   1.439   1.839  0.2070  0.1042 -0.1984
  160OSM   H15A17896   6.230   1.399   1.774 -1.1414 -1.1436  2.0041
  160OSM   H15B17897   6.341   1.528   1.789 -0.0520  1.0888  1.2991
  160OSM   H15C17898   6.272   1.459   1.940  1.4763  1.1186  0.0632
  160OSM    C1417899   6.369   1.221   1.900  0.3915 -0.7066  0.3690
  160OSM   H14A17900   6.300   1.179   1.828 -0.7367 -0.5527  1.3311
  160OSM   H14B17901   6.318   1.239   1.993 -1.4870 -3.3204 -0.0290
  160OSM   H14C17902   6.452   1.154   1.920 -0.0732 -0.7306  2.3474
  160OSM    C1317903   6.479   1.328   1.711  0.1100  0.4933  0.0205
  160OSM   H13A17904   6.492   1.420   1.655  0.6121  0.5027  0.1462
  160OSM   H13B17905   6.399   1.287   1.651  0.3861  0.6860 -0.4880
  160OSM   H13C17906   6.557   1.254   1.706 -0.6775 -0.2675 -2.6865
  160OSM    C1217907   6.535   1.399   1.940  0.0651 -0.3744 -0.3046
  160OSM   H12A17908   6.567   1.498   1.909 -0.2688  0.1093  0.8549
  160OSM   H12B17909   6.628   1.345   1.932  1.1576  1.1114  1.3967
  160OSM    C1117910   6.498   1.427   2.088 -0.1573  0.3936  0.1852
  160OSM   H11A17911   6.591   1.476   2.126  0.3171 -0.2227 -0.1604
  160OSM   H11B17912   6.504   1.330   2.143 -0.3473  0.3882  0.1954
  160OSM      P17913   6.356   1.654   2.142  0.4849 -0.2675  0.0357
  160OSM    O1317914   6.429   1.727   2.039  0.2786 -0.3370  0.2458
  160OSM    O1417915   6.211   1.685   2.147 -0.2807 -0.0597  0.0063
  160OSM    O1117916   6.422   1.667   2.281 -0.0788 -0.2840  0.1432
  160OSM    O1217917   6.379   1.502   2.121 -0.4727  0.6500  0.0134
  160OSM    C1S17918   6.421   1.792   2.345  0.6912  0.2523 -0.3453
  160OSM    H1S17919   6.316   1.819   2.372  1.0332  0.1955  1.1175
  160OSM    H1T17920   6.452   1.883   2.289 -1.6610  1.6539  0.4703
  160OSM     NF17921   6.480   1.917   2.551  0.2880 -0.2049 -0.2438
  160OSM    HNF17922   6.560   1.975   2.562  1.5376 -1.7928 -0.4806
  160OSM    C2S17923   6.494   1.786   2.483 -0.3085 -0.1216  0.6079
  160OSM    H2S17924   6.444   1.709   2.546  0.3587 -1.4995 -0.4880
  160OSM    C3S17925   6.642   1.731   2.451 -0.5357 -0.2883 -0.8587
  160OSM    H3S17926   6.694   1.814   2.399 -0.6325  0.1189 -0.3182
  160OSM     O317927   6.665   1.613   2.371 -0.7735 -0.3036 -0.4552
  160OSM    HO317928   6.586   1.603   2.318 -0.9399 -0.5471 -0.1643
  160OSM    C4S17929   6.715   1.718   2.592  0.8349  0.5300  0.6326
  160OSM    H4S17930   6.774   1.809   2.604 -0.2691  1.9114 -3.1124
  160OSM    C5S17931   6.729   1.606   2.676 -0.3378 -0.5634  0.2112
  160OSM    H5S17932   6.682   1.512   2.643  2.5133 -2.4515  1.1479
  160OSM    C6S17933   6.822   1.603   2.801  0.1493 -0.0951  0.2444
  160OSM    H6S17934   6.837   1.703   2.847 -0.8316  0.6435 -0.9606
  160OSM    H6T17935   6.925   1.578   2.769  0.9656  0.7928  2.0040
  160OSM    C7S17936   6.771   1.494   2.903 -0.3795 -0.4360  0.4160
  160OSM    H7S17937   6.835   1.404   2.895 -0.2792 -0.4027  0.8189
  160OSM    H7T17938   6.663   1.467   2.892 -0.7714  0.7793  1.1277
  160OSM    C8S17939   6.795   1.543   3.049  0.7617 -0.5682 -0.2873
  160OSM    H8S17940   6.719   1.619   3.076  1.4215  0.4902 -1.3034
  160OSM    H8T17941   6.890   1.600   3.059  0.8284 -0.6429 -0.4728
  160OSM    C9S17942   6.781   1.430   3.150  0.1256 -0.2075 -0.0732
  160OSM    H9S17943   6.826   1.459   3.248 -0.7843 -1.5023  0.7702
  160OSM    H9T17944   6.848   1.347   3.119 -1.7659 -2.4361  1.4104
  160OSM   C10S17945   6.641   1.381   3.182 -0.0732  0.4953 -0.2390
  160OSM   H10S17946   6.644   1.272   3.203  2.0341  0.5636  0.0907
  160OSM   H10T17947   6.593   1.385   3.082  0.6082 -0.9949 -0.6634
  160OSM   C11S17948   6.567   1.450   3.293  0.5907 -0.2209  0.2260
  160OSM   H11S17949   6.461   1.421   3.276  0.4444  0.8340 -0.7841
  160OSM   H11T17950   6.567   1.561   3.285 -0.5869  0.0714  2.9955
  160OSM   C12S17951   6.614   1.411   3.437 -0.7489  0.1057 -0.1659
  160OSM   H12S17952   6.724   1.429   3.444 -0.7642  1.5323 -2.4067
  160OSM   H12T17953   6.595   1.302   3.441 -0.2203 -0.0247 -0.8869
  160OSM   C13S17954   6.524   1.470   3.542  0.3136  0.0102 -0.4449
  160OSM   H13S17955   6.419   1.439   3.523  0.4001 -1.3653  1.1157
  160OSM   H13T17956   6.525   1.581   3.546 -0.8755  0.0300 -0.2512
  160OSM   C14S17957   6.559   1.410   3.675  0.2119 -0.1811 -0.4325
  160OSM   H14S17958   6.663   1.445   3.687  0.4406 -0.7935 -0.5800
  160OSM   H14T17959   6.580   1.301   3.679 -0.1081 -0.2093  0.8840
  160OSM   C15S17960   6.467   1.464   3.785  0.4469  0.0391  0.3048
  160OSM   H15S17961   6.365   1.421   3.770  0.3550  0.0578  0.8645
  160OSM   H15T17962   6.464   1.575   3.786  1.6093  0.1602 -2.1470
  160OSM   C16S17963   6.523   1.417   3.919 -0.2601 -0.4403 -0.0033
  160OSM   H16S17964   6.626   1.457   3.929  0.4001 -1.8500 -0.9271
  160OSM   H16T17965   6.532   1.307   3.927 -0.7749 -0.4328  0.8248
  160OSM   C17S17966   6.450   1.474   4.037 -0.0726 -0.3586 -0.7637
  160OSM   H17S17967   6.339   1.464   4.034 -0.0762 -0.3625 -0.6327
  160OSM   H17T17968   6.468   1.583   4.047 -1.6012 -0.2243  1.5496
  160OSM   C18S17969   6.509   1.415   4.166 -0.1430 -0.0271  0.6170
  160OSM   H18S17970   6.493   1.307   4.182 -0.0013 -0.2335 -0.5833
  160OSM   H18T17971   6.469   1.461   4.259 -1.8443  0.9177 -0.5302
  160OSM   H18U17972   6.616   1.446   4.166  0.2187 -1.1303  2.3117
  160OSM    C1F17973   6.364   1.962   2.605  0.0318  0.2746  0.1130
  160OSM     OF17974   6.265   1.891   2.606  1.1945 -0.4088 -0.4191
  160OSM    C2F17975   6.366   2.107   2.659 -0.0360  0.2974  0.2949
  160OSM    H2F17976   6.360   2.175   2.571 -1.6148 -0.3545 -0.1385
  160OSM    H2G17977   6.464   2.126   2.708  0.4972 -4.0979  1.3661
  160OSM    C3F17978   6.260   2.145   2.764 -0.1084 -0.4026  0.6844
  160OSM    H3F17979   6.162   2.121   2.718  1.1543 -0.6338 -2.1124
  160OSM    H3G17980   6.259   2.254   2.783  0.4895 -0.3949  0.6900
  160OSM    C4F17981   6.276   2.069   2.895 -0.0946  0.0605 -0.0621
  160OSM    H4F17982   6.300   1.963   2.873 -2.3750 -0.5753  0.3013
  160OSM    H4G17983   6.174   2.075   2.938 -1.4962  0.2936 -3.1162
  160OSM    C5F17984   6.383   2.121   2.997 -0.5098 -0.4949  0.4166
  160OSM    H5F17985   6.479   2.104   2.943 -1.6999  0.1549 -2.0800
  160OSM    H5G17986   6.374   2.055   3.085 -2.5649 -0.7557  0.0779
  160OSM    C6F17987   6.358   2.265   3.046  0.4752 -0.1387 -0.1449
  160OSM    H6F17988   6.366   2.325   2.953 -1.6052 -0.8192 -0.8115
  160OSM    H6G17989   6.445   2.290   3.111 -1.1720  0.3477  2.0097
  160OSM    C7F17990   6.221   2.297   3.115 -0.2021 -0.6434 -0.0150
  160OSM    H7F17991   6.146   2.277   3.036 -0.1683 -1.7976  0.2315
  160OSM    H7G17992   6.221   2.408   3.127  0.5613 -0.5848 -0.4816
  160OSM    C8F17993   6.204   2.226   3.245  0.2545  0.1414  0.1030
  160OSM    H8F17994   6.196   2.117   3.226 -1.0979 -0.0497  1.5731
  160OSM    H8G17995   6.103   2.246   3.287  0.3007 -0.5477  0.5621
  160OSM    C9F17996   6.308   2.256   3.355 -0.5563  0.6571 -0.6227
  160OSM    H9F17997   6.409   2.216   3.338 -0.2145  2.0616 -2.1797
  160OSM   C10F17998   6.283   2.329   3.464  0.1642  1.2708  0.1906
  160OSM   H10F17999   6.369   2.338   3.533  0.2399 -3.2675  1.0130
  160OSM   C11F18000   6.149   2.387   3.514  0.0456  0.0803 -0.1213
  160OSM   H11F18001   6.067   2.375   3.441 -2.3071 -1.7417  2.5900
  160OSM   H11G18002   6.150   2.493   3.544 -0.3899  0.2866 -0.8124
  160OSM   C12F18003   6.094   2.305   3.636  0.1338 -0.0320 -0.3555
  160OSM   H12F18004   6.097   2.196   3.615 -0.5381  0.1712 -1.5869
  160OSM   H12G18005   5.989   2.330   3.662  0.8763 -0.6781  4.1142
  160OSM   C13F18006   6.156   2.320   3.781  0.5959 -0.1334  0.7886
  160OSM   H13F18007   6.170   2.428   3.801 -1.3257  0.0556  1.3071
  160OSM   H13G18008   6.252   2.263   3.785 -0.0946 -1.6077 -1.8598
  160OSM   C14F18009   6.067   2.266   3.891 -0.1669  0.4367 -0.3913
  160OSM   H14F18010   5.973   2.325   3.889 -1.2391 -1.1701  0.2575
  160OSM   H14G18011   6.120   2.287   3.986  0.2238 -0.9117 -0.2805
  160OSM   C15F18012   6.036   2.113   3.892 -0.5443 -0.0724  1.0956
  160OSM   H15F18013   6.132   2.066   3.860 -0.4560  0.6388  0.2616
  160OSM   H15G18014   5.966   2.106   3.806  1.1645  0.6770 -0.4399
  160OSM   C16F18015   5.977   2.059   4.023  0.1796  0.2358 -0.1192
  160OSM   H16F18016   5.945   1.952   4.027  1.0830 -0.0051  2.1186
  160OSM   H16G18017   5.887   2.123   4.038  0.5537  0.5460  0.8212
  160OSM   C17F18018   6.072   2.080   4.136 -0.4820  0.0127  0.0371
  160OSM   H17F18019   6.094   2.186   4.159  0.2212  0.3489 -1.9512
  160OSM   H17G18020   6.170   2.030   4.118 -0.3604  0.9071 -1.9866
  160OSM   C18F18021   6.018   2.013   4.266 -0.1932 -0.1296 -0.3767
  160OSM   H18F18022   5.946   2.083   4.314  0.7861  0.3296  0.4615
  160OSM   H18G18023   6.103   1.978   4.328  1.2112  0.5385 -1.8664
  160OSM   H18H18024   5.942   1.935   4.241 -4.8846  4.4262 -2.3069
  161OSM      N18025   5.275   6.714   2.058  0.4440  0.0623 -0.0833
  161OSM    C1518026   5.368   6.703   2.177 -0.2400  0.6211 -0.3268
  161OSM   H15A18027   5.332   6.638   2.254  1.0726 -0.6576 -0.7432
  161OSM   H15B18028   5.383   6.797   2.229  0.2386  0.1947  0.3247
  161OSM   H15C18029   5.466   6.668   2.146 -0.0239  1.9090 -1.1864
  161OSM    C1418030   5.334   6.810   1.953 -0.3862  0.1828 -0.9757
  161OSM   H14A18031   5.337   6.911   1.989  0.5208 -0.2736  0.2999
  161OSM   H14B18032   5.269   6.803   1.867 -1.5481  1.0399 -0.1967
  161OSM   H14C18033   5.432   6.781   1.917 -0.4120  2.4951 -3.1511
  161OSM    C1318034   5.263   6.575   2.000 -1.0343  0.3219  0.2091
  161OSM   H13A18035   5.187   6.581   1.923  0.3487  0.1139 -1.2252
  161OSM   H13B18036   5.238   6.504   2.077 -0.1937  0.0700  0.2653
  161OSM   H13C18037   5.356   6.540   1.957 -0.9476  2.2846 -1.3481
  161OSM    C1218038   5.136   6.757   2.101 -0.2340 -0.7688 -0.3120
  161OSM   H12A18039   5.140   6.853   2.150 -1.7006  0.7957 -2.9695
  161OSM   H12B18040   5.102   6.683   2.172  1.1017 -3.8712 -2.6289
  161OSM    C1118041   5.027   6.759   1.991  0.4261  0.2232 -0.0010
  161OSM   H11A18042   5.057   6.817   1.901 -1.8462  1.9240  0.2614
  161OSM   H11B18043   4.941   6.822   2.022  0.2305  0.8670 -1.7290
  161OSM      P18044   4.850   6.563   2.025  0.3411 -0.4636 -0.0705
  161OSM    O1318045   4.748   6.568   1.921  0.7320  0.0825  0.4196
  161OSM    O1418046   4.875   6.433   2.093  0.0409  0.2183 -0.4109
  161OSM    O1118047   4.814   6.671   2.132  0.5872  0.1052 -0.2370
  161OSM    O1218048   4.986   6.627   1.956  0.4837  0.0663 -0.2651
  161OSM    C1S18049   4.671   6.705   2.154  0.5835  0.0499 -0.0449
  161OSM    H1S18050   4.606   6.615   2.151  0.4321  0.0646  1.8644
  161OSM    H1T18051   4.626   6.774   2.079 -1.5004 -1.1418  0.0289
  161OSM     NF18052   4.523   6.746   2.356 -0.4914 -0.5028 -0.3398
  161OSM    HNF18053   4.466   6.827   2.348  2.2699  1.5588 -0.6044
  161OSM    C2S18054   4.653   6.772   2.302  0.3026  0.2933  0.4153
  161OSM    H2S18055   4.733   6.723   2.360  2.8053  1.6190 -1.6979
  161OSM    C3S18056   4.687   6.919   2.308 -0.1308  0.0031  0.0926
  161OSM    H3S18057   4.616   6.982   2.251  0.9799  0.7149 -0.5519
  161OSM     O318058   4.812   6.935   2.240  0.2370 -0.6673  0.0037
  161OSM    HO318059   4.833   6.849   2.202  0.5490 -1.3454  1.6467
  161OSM    C4S18060   4.722   6.961   2.442  0.0435 -0.0408 -0.6739
  161OSM    H4S18061   4.820   6.924   2.477  1.1339  4.0275  1.1781
  161OSM    C5S18062   4.652   7.044   2.527  1.0794  0.0965 -0.0994
  161OSM    H5S18063   4.555   7.083   2.492  0.7410 -1.1458 -0.6097
  161OSM    C6S18064   4.689   7.079   2.671 -0.0171  0.3477 -0.1592
  161OSM    H6S18065   4.697   7.188   2.691  1.6459  0.0968  0.7298
  161OSM    H6T18066   4.787   7.030   2.688  0.3321  1.7116  2.1371
  161OSM    C7S18067   4.577   7.025   2.762 -0.6301  0.3179 -0.6919
  161OSM    H7S18068   4.575   6.915   2.774  0.7113  0.3465 -0.0850
  161OSM    H7T18069   4.471   7.047   2.734 -1.5796 -1.2569  1.3989
  161OSM    C8S18070   4.599   7.090   2.900  0.8407  0.3924  0.0471
  161OSM    H8S18071   4.592   7.200   2.913 -1.3063  0.2065  0.8371
  161OSM    H8T18072   4.696   7.071   2.951  0.6061  1.7025  1.0259
  161OSM    C9S18073   4.493   7.042   3.003  0.0802 -0.0980  0.1360
  161OSM    H9S18074   4.507   6.932   3.018 -0.0612  0.0534  1.5098
  161OSM    H9T18075   4.388   7.058   2.969 -0.5006  1.1520  2.3504
  161OSM   C10S18076   4.521   7.105   3.138 -0.0923  0.2584  0.7015
  161OSM   H10S18077   4.531   7.214   3.117 -1.8920  0.5067  0.9838
  161OSM   H10T18078   4.621   7.071   3.173 -1.5352 -4.0982  1.0672
  161OSM   C11S18079   4.403   7.087   3.238 -0.3071 -0.1380 -0.3195
  161OSM   H11S18080   4.390   6.979   3.259 -2.6652  0.1493  0.0783
  161OSM   H11T18081   4.300   7.110   3.201 -1.2431 -1.6785  1.1693
  161OSM   C12S18082   4.408   7.169   3.370 -0.0083  0.3114  0.4392
  161OSM   H12S18083   4.309   7.153   3.416  0.2529 -0.7936  0.6576
  161OSM   H12T18084   4.427   7.276   3.349 -3.6798  1.7099  3.2421
  161OSM   C13S18085   4.520   7.130   3.465  0.7755  0.0555 -0.1137
  161OSM   H13S18086   4.608   7.178   3.417  0.6932 -1.2565 -1.6539
  161OSM   H13T18087   4.512   7.019   3.472  1.6031 -0.0110 -0.0994
  161OSM   C14S18088   4.503   7.190   3.606  0.1995 -0.9784  0.3845
  161OSM   H14S18089   4.472   7.297   3.600 -2.0902 -1.4599  2.0725
  161OSM   H14T18090   4.605   7.187   3.648  0.5774  1.9350 -0.0845
  161OSM   C15S18091   4.394   7.119   3.686 -0.2985 -0.4654 -0.5702
  161OSM   H15S18092   4.419   7.013   3.708 -2.5206 -0.3036  4.0226
  161OSM   H15T18093   4.300   7.134   3.627  0.1208  0.4120 -1.0348
  161OSM   C16S18094   4.383   7.181   3.828  0.1158 -0.1477  0.3963
  161OSM   H16S18095   4.490   7.198   3.856  0.7052 -0.9412 -1.2554
  161OSM   H16T18096   4.342   7.104   3.897  0.4597 -1.7218 -1.0917
  161OSM   C17S18097   4.308   7.315   3.842 -0.2496  0.1397  0.2631
  161OSM   H17S18098   4.210   7.288   3.799  0.9278  0.2136 -2.6929
  161OSM   H17T18099   4.355   7.398   3.785 -2.4672  1.3382  0.0817
  161OSM   C18S18100   4.281   7.354   3.985  0.0300  0.5450 -0.5384
  161OSM   H18S18101   4.247   7.268   4.047  2.4381 -0.7823 -0.9610
  161OSM   H18T18102   4.190   7.417   3.991 -0.8378 -0.8117  3.5923
  161OSM   H18U18103   4.369   7.402   4.033 -0.8375 -0.7645  2.6293
  161OSM    C1F18104   4.478   6.629   2.383  0.5657  0.0446  0.0229
  161OSM     OF18105   4.547   6.526   2.374 -0.2637 -0.2068  0.1624
  161OSM    C2F18106   4.329   6.618   2.415 -0.4506 -0.0782  0.0706
  161OSM    H2F18107   4.267   6.638   2.324 -1.3364  1.3259  0.9375
  161OSM    H2G18108   4.302   6.701   2.484 -0.0613 -0.7046  0.9834
  161OSM    C3F18109   4.300   6.484   2.496 -0.7906 -0.3939  0.0897
  161OSM    H3F18110   4.319   6.386   2.448 -0.8103  0.0178 -0.7887
  161OSM    H3G18111   4.191   6.499   2.511 -0.6203  2.8614 -1.0234
  161OSM    C4F18112   4.367   6.482   2.636  0.9074 -0.5211 -0.0751
  161OSM    H4F18113   4.376   6.585   2.677 -1.9432  0.3080 -1.2520
  161OSM    H4G18114   4.468   6.436   2.628  1.1490 -0.6595  2.9207
  161OSM    C5F18115   4.273   6.401   2.726 -0.0582 -0.0469  0.1097
  161OSM    H5F18116   4.271   6.295   2.693 -1.9768 -1.0047  2.9439
  161OSM    H5G18117   4.169   6.440   2.726 -0.5033 -0.9846  3.0385
  161OSM    C6F18118   4.317   6.407   2.877 -0.4237 -0.0306 -0.1292
  161OSM    H6F18119   4.323   6.513   2.910 -0.4864  0.1245 -0.5999
  161OSM    H6G18120   4.417   6.359   2.882  0.9179  2.3431 -1.9296
  161OSM    C7F18121   4.221   6.336   2.971  0.2824 -0.2867 -0.3220
  161OSM    H7F18122   4.223   6.229   2.944 -0.6680 -0.1533 -0.9542
  161OSM    H7G18123   4.119   6.379   2.962  0.8432  0.9792 -0.9114
  161OSM    C8F18124   4.268   6.352   3.117 -0.4145  0.0046 -0.7808
  161OSM    H8F18125   4.275   6.458   3.147 -1.8471 -0.1695  0.2720
  161OSM    H8G18126   4.371   6.313   3.134 -0.5828  0.2203  0.9325
  161OSM    C9F18127   4.176   6.281   3.214 -0.4114  1.0300  0.6838
  161OSM    H9F18128   4.174   6.171   3.201 -1.8081  1.3022 -1.9429
  161OSM   C10F18129   4.124   6.323   3.327  0.5819 -0.5615 -0.2934
  161OSM   H10F18130   4.073   6.244   3.384  1.5517 -0.9845  0.0135
  161OSM   C11F18131   4.118   6.458   3.387  0.1374  0.5515 -0.0565
  161OSM   H11F18132   4.019   6.506   3.379 -2.5153 -4.0418  1.6852
  161OSM   H11G18133   4.183   6.512   3.314  2.8860 -0.9623  1.1082
  161OSM   C12F18134   4.174   6.480   3.535  0.1786  0.5010 -0.0940
  161OSM   H12F18135   4.173   6.586   3.567 -0.2754  0.0748  1.3867
  161OSM   H12G18136   4.282   6.453   3.532 -0.5167 -3.0598  1.2192
  161OSM   C13F18137   4.102   6.398   3.638 -0.1400  0.2992 -0.2692
  161OSM   H13F18138   4.119   6.292   3.608 -1.3930  0.1929 -0.6755
  161OSM   H13G18139   3.992   6.413   3.638 -0.1655  0.1177 -0.4766
  161OSM   C14F18140   4.151   6.414   3.780 -0.3257 -0.1287  0.1158
  161OSM   H14F18141   4.117   6.516   3.809 -2.0430 -0.7511  0.3833
  161OSM   H14G18142   4.261   6.428   3.786 -0.2565 -1.0832  3.7059
  161OSM   C15F18143   4.109   6.304   3.880  0.1820  0.3425  0.0236
  161OSM   H15F18144   4.170   6.213   3.867 -2.2553 -1.2609 -1.0324
  161OSM   H15G18145   4.009   6.266   3.849  0.0845  0.9134 -0.3730
  161OSM   C16F18146   4.085   6.358   4.026 -0.2134 -0.3578  0.3840
  161OSM   H16F18147   4.032   6.455   4.037 -0.3117 -0.2902 -0.5901
  161OSM   H16G18148   4.188   6.384   4.061  0.7036 -0.5051 -1.9890
  161OSM   C17F18149   4.012   6.271   4.130 -0.3477  0.2335 -0.1276
  161OSM   H17F18150   4.080   6.184   4.143 -0.8028 -0.6474 -2.9663
  161OSM   H17G18151   3.911   6.240   4.095 -0.6668 -0.2867  1.2271
  161OSM   C18F18152   4.004   6.337   4.265 -0.2093  0.2524 -0.2106
  161OSM   H18F18153   4.023   6.254   4.336  0.1188 -1.1576 -1.8821
  161OSM   H18G18154   3.907   6.390   4.280  0.4949  0.9772  2.4033
  161OSM   H18H18155   4.089   6.408   4.280  0.9100 -0.4227 -2.8215
  162OSM      N18156   5.192   0.699   2.227  0.3185  0.4469 -0.1697
  162OSM    C1518157   5.218   0.766   2.098 -0.0475 -0.2860  1.0301
  162OSM   H15A18158   5.137   0.828   2.062 -1.3927 -2.2323  0.5285
  162OSM   H15B18159   5.223   0.700   2.013 -2.3226  1.6580 -0.7593
  162OSM   H15C18160   5.311   0.822   2.096  1.0384 -2.0082 -0.8734
  162OSM    C1418161   5.187   0.803   2.337 -0.4749  0.4621  0.7885
  162OSM   H14A18162   5.179   0.755   2.433  1.7144 -0.9537  0.3348
  162OSM   H14B18163   5.096   0.860   2.326 -1.1788 -0.8789 -1.0650
  162OSM   H14C18164   5.279   0.858   2.338  0.9594 -1.7965  0.7007
  162OSM    C1318165   5.050   0.645   2.224 -0.7537 -0.1249  1.2377
  162OSM   H13A18166   5.058   0.563   2.153  0.5727  1.2734 -0.3368
  162OSM   H13B18167   4.973   0.711   2.187 -2.9917 -2.0461  2.1469
  162OSM   H13C18168   5.021   0.608   2.321 -3.2419  0.2760  0.7122
  162OSM    C1218169   5.297   0.592   2.253  0.0579 -0.2820 -0.1469
  162OSM   H12A18170   5.270   0.501   2.201  1.7192 -0.6172 -0.4854
  162OSM   H12B18171   5.289   0.568   2.358 -1.2157  0.9653  0.0641
  162OSM    C1118172   5.446   0.619   2.220  0.1664  0.4966 -0.2601
  162OSM   H11A18173   5.452   0.605   2.110  0.8680  0.4389 -0.2232
  162OSM   H11B18174   5.515   0.544   2.265 -2.3707 -0.8922  1.5175
  162OSM      P18175   5.545   0.803   2.384 -0.2219  0.3786  0.1031
  162OSM    O1318176   5.668   0.874   2.360 -0.1645  0.1051  0.3267
  162OSM    O1418177   5.446   0.879   2.466 -0.5730  0.1141  0.1954
  162OSM    O1118178   5.580   0.667   2.464 -0.0549 -0.4770 -0.7799
  162OSM    O1218179   5.481   0.758   2.246 -0.0156 -0.0823 -0.2018
  162OSM    C1S18180   5.712   0.618   2.496  0.1834 -0.2048 -0.3008
  162OSM    H1S18181   5.795   0.651   2.429 -1.7887  1.3307 -2.1089
  162OSM    H1T18182   5.710   0.507   2.493  1.4520 -0.2825  0.8663
  162OSM     NF18183   5.880   0.597   2.671 -0.0059  0.3776 -0.0001
  162OSM    HNF18184   5.894   0.506   2.711  0.0403  0.9191  1.2865
  162OSM    C2S18185   5.747   0.639   2.643  0.3199  0.7008 -0.3368
  162OSM    H2S18186   5.747   0.746   2.672  1.9139  0.0102  2.5872
  162OSM    C3S18187   5.644   0.546   2.735 -0.4001 -0.3682 -0.2461
  162OSM    H3S18188   5.669   0.440   2.716  0.6500 -0.1679 -0.0391
  162OSM     O318189   5.505   0.562   2.698  0.0982  0.4603 -0.1798
  162OSM    HO318190   5.498   0.611   2.616 -2.1288 -1.0185 -0.9688
  162OSM    C4S18191   5.656   0.566   2.888  0.6794 -0.1389  0.3911
  162OSM    H4S18192   5.722   0.489   2.931  0.6151 -2.4267 -3.1341
  162OSM    C5S18193   5.594   0.649   2.965  0.1064  0.1297 -0.0864
  162OSM    H5S18194   5.527   0.729   2.929 -2.9128 -2.4494 -0.6776
  162OSM    C6S18195   5.605   0.650   3.115 -0.1592  0.7102  0.1204
  162OSM    H6S18196   5.504   0.625   3.151  0.4211 -0.9592  0.6788
  162OSM    H6T18197   5.600   0.755   3.152  0.0817 -0.0374  2.4265
  162OSM    C7S18198   5.721   0.579   3.183  0.3509 -0.2735  0.0202
  162OSM    H7S18199   5.816   0.637   3.174  0.9301 -1.0056  1.1482
  162OSM    H7T18200   5.746   0.488   3.125 -1.3812 -0.0856 -1.0961
  162OSM    C8S18201   5.696   0.550   3.328  0.4706 -0.5806 -0.0077
  162OSM    H8S18202   5.771   0.471   3.350 -0.9150 -1.7970  0.5139
  162OSM    H8T18203   5.595   0.518   3.360 -0.5114  2.3405  0.0924
  162OSM    C9S18204   5.711   0.675   3.420  0.2084 -0.3390 -0.3937
  162OSM    H9S18205   5.637   0.756   3.406  2.5643  2.1551  0.6489
  162OSM    H9T18206   5.806   0.727   3.395 -1.9226  2.4575 -3.3793
  162OSM   C10S18207   5.710   0.630   3.568 -0.8213  0.2858  0.5441
  162OSM   H10S18208   5.791   0.554   3.567 -0.2929  0.8126 -1.5774
  162OSM   H10T18209   5.615   0.578   3.593 -0.1040 -0.5718  1.5898
  162OSM   C11S18210   5.733   0.738   3.673  0.1287 -0.4259 -0.4615
  162OSM   H11S18211   5.657   0.819   3.677  0.7855  0.1572  1.1753
  162OSM   H11T18212   5.823   0.800   3.654 -2.6004  3.3139 -2.3821
  162OSM   C12S18213   5.736   0.689   3.816  0.4083  0.3210  0.7838
  162OSM   H12S18214   5.822   0.618   3.815 -0.6296 -1.0041  1.6326
  162OSM   H12T18215   5.640   0.636   3.834  1.7906 -2.1253  1.5646
  162OSM   C13S18216   5.762   0.796   3.919  0.2174  0.1078 -0.1239
  162OSM   H13S18217   5.690   0.878   3.898 -0.4450 -0.9206 -2.1302
  162OSM   H13T18218   5.861   0.838   3.890 -1.5059  3.6663 -1.4666
  162OSM   C14S18219   5.767   0.745   4.062  0.1151 -0.6663  0.1384
  162OSM   H14S18220   5.777   0.830   4.134 -1.3827 -0.6227  0.3331
  162OSM   H14T18221   5.855   0.683   4.088 -1.1674 -0.8464  5.0654
  162OSM   C15S18222   5.644   0.667   4.095 -0.1912  0.1580  0.1309
  162OSM   H15S18223   5.639   0.587   4.018  0.4824  1.1583 -1.0050
  162OSM   H15T18224   5.552   0.714   4.055 -0.6566  0.1021  1.1060
  162OSM   C16S18225   5.638   0.628   4.244  0.8711  0.1922  0.4713
  162OSM   H16S18226   5.645   0.721   4.303  2.3329  0.0318  0.5650
  162OSM   H16T18227   5.719   0.554   4.260  0.1367 -1.3604 -2.2297
  162OSM   C17S18228   5.507   0.557   4.266  0.2366  0.2935 -0.2628
  162OSM   H17S18229   5.484   0.503   4.172 -3.0022 -0.0860  0.6098
  162OSM   H17T18230   5.428   0.634   4.256  0.5542  0.7038  0.3300
  162OSM   C18S18231   5.498   0.469   4.390  0.6011  0.0889 -0.0879
  162OSM   H18S18232   5.395   0.468   4.432  0.0304 -1.6971 -1.3641
  162OSM   H18T18233   5.569   0.499   4.470 -1.3147  1.1222  1.2919
  162OSM   H18U18234   5.529   0.364   4.366  0.2542  0.2950 -1.5442
  162OSM    C1F18235   5.976   0.674   2.626  0.3803  0.6725 -0.0396
  162OSM     OF18236   5.955   0.779   2.574  0.1469 -0.1311 -0.2254
  162OSM    C2F18237   6.124   0.629   2.631 -0.0353  0.1113 -0.4771
  162OSM    H2F18238   6.125   0.552   2.551 -0.7462 -1.6391  1.1480
  162OSM    H2G18239   6.144   0.585   2.730  0.8634 -0.8137 -1.0592
  162OSM    C3F18240   6.241   0.727   2.618  0.3712  0.0997  0.9667
  162OSM    H3F18241   6.235   0.786   2.523 -0.1954 -0.3400  0.7216
  162OSM    H3G18242   6.334   0.667   2.626 -1.2200 -2.5675  0.7828
  162OSM    C4F18243   6.243   0.825   2.736  0.0091  0.0280  0.4076
  162OSM    H4F18244   6.263   0.763   2.826  1.6872  1.3374  0.9922
  162OSM    H4G18245   6.152   0.888   2.744  0.6853  1.1129 -0.2705
  162OSM    C5F18246   6.362   0.924   2.725 -0.3757  0.0153 -0.0230
  162OSM    H5F18247   6.345   0.976   2.628 -1.7668  0.2486  0.3253
  162OSM    H5G18248   6.455   0.867   2.706 -0.4077  0.5344 -2.0016
  162OSM    C6F18249   6.369   1.013   2.840 -0.3782 -0.0851  0.2250
  162OSM    H6F18250   6.293   1.093   2.849  1.1296  1.3422  0.9585
  162OSM    H6G18251   6.460   1.073   2.820 -1.6283  1.3671 -1.4269
  162OSM    C7F18252   6.410   0.946   2.970 -0.6853 -0.4685 -0.2333
  162OSM    H7F18253   6.482   0.869   2.934 -2.3307 -2.0840 -0.1994
  162OSM    H7G18254   6.322   0.888   3.004 -1.5177  0.7683 -0.2126
  162OSM    C8F18255   6.459   1.048   3.071 -1.3219  0.3185 -0.2663
  162OSM    H8F18256   6.540   1.110   3.028 -0.6583 -0.0992  0.3496
  162OSM    H8G18257   6.511   0.984   3.146  1.3469 -0.4338 -2.5730
  162OSM    C9F18258   6.349   1.128   3.143 -0.2468 -0.4482  0.1984
  162OSM    H9F18259   6.286   1.185   3.073  2.2218 -0.3445 -2.1015
  162OSM   C10F18260   6.323   1.128   3.275  0.4430 -0.2662  0.2526
  162OSM   H10F18261   6.248   1.201   3.309  0.8278  1.0173 -1.4814
  162OSM   C11F18262   6.401   1.047   3.376 -0.0888  0.3046  0.3269
  162OSM   H11F18263   6.509   1.031   3.355 -0.0734  2.3326 -1.5577
  162OSM   H11G18264   6.352   0.947   3.370 -1.6933  1.1475 -2.2892
  162OSM   C12F18265   6.377   1.094   3.519  0.2549 -0.3574 -0.0146
  162OSM   H12F18266   6.272   1.090   3.553  1.1460 -0.6488  2.9246
  162OSM   H12G18267   6.407   1.200   3.534  0.3231 -0.4872  0.8206
  162OSM   C13F18268   6.444   1.002   3.620 -0.1478 -0.0736 -1.1989
  162OSM   H13F18269   6.554   1.003   3.602 -0.3589  0.7415 -2.6553
  162OSM   H13G18270   6.421   0.894   3.606  1.1013 -1.0260  2.9030
  162OSM   C14F18271   6.416   1.040   3.766 -0.0129  0.0282 -0.0231
  162OSM   H14F18272   6.308   1.016   3.777  0.1538 -0.9065 -0.3099
  162OSM   H14G18273   6.422   1.150   3.767 -1.0988  0.1190 -0.9196
  162OSM   C15F18274   6.499   0.973   3.875  0.3977 -0.3150 -0.8843
  162OSM   H15F18275   6.605   1.006   3.869  0.2363  1.2849  2.7051
  162OSM   H15G18276   6.490   0.864   3.855  1.8814 -0.7782  0.7247
  162OSM   C16F18277   6.443   1.019   4.012 -0.0240  0.6227 -0.4446
  162OSM   H16F18278   6.334   0.998   4.015 -0.2825  1.9350 -0.3237
  162OSM   H16G18279   6.447   1.130   4.013 -1.9943  0.7316  0.1203
  162OSM   C17F18280   6.507   0.950   4.131 -0.0483  0.3356  0.6879
  162OSM   H17F18281   6.616   0.971   4.127 -0.1382  0.8640  0.8951
  162OSM   H17G18282   6.497   0.839   4.130  0.5502  0.1233  4.5305
  162OSM   C18F18283   6.442   0.986   4.267 -0.2994 -0.1268  0.4165
  162OSM   H18F18284   6.344   0.935   4.257  0.5638 -1.7652 -0.0548
  162OSM   H18G18285   6.434   1.096   4.282 -2.1335  0.0264 -1.2487
  162OSM   H18H18286   6.507   0.944   4.346  0.6645  0.4535 -0.0475
  163OSM      N18287   4.004   0.366   1.794  0.6016  0.3447  0.0879
  163OSM    C1518288   3.918   0.486   1.807 -1.0118 -0.2586  0.5003
  163OSM   H15A18289   3.974   0.551   1.872  2.0022 -3.8023  1.8067
  163OSM   H15B18290   3.823   0.475   1.858 -0.3701 -1.1917  1.5344
  163OSM   H15C18291   3.908   0.537   1.712 -1.2956  0.4939  0.9300
  163OSM    C1418292   3.938   0.270   1.696  0.1178 -0.5599  0.4453
  163OSM   H14A18293   3.845   0.237   1.740 -2.8576 -0.8960 -5.1484
  163OSM   H14B18294   3.997   0.183   1.670 -0.9851 -0.9148 -1.0171
  163OSM   H14C18295   3.914   0.323   1.606 -1.0657  2.5314  2.4282
  163OSM    C1318296   4.132   0.405   1.736 -0.1283 -0.5150  0.2825
  163OSM   H13A18297   4.179   0.309   1.715 -0.2195 -0.4512 -0.2232
  163OSM   H13B18298   4.187   0.465   1.807 -1.0530  0.5922  0.0833
  163OSM   H13C18299   4.114   0.456   1.643 -2.5096  0.0057  0.9698
  163OSM    C1218300   4.027   0.292   1.923  0.7740  0.7023  0.1107
  163OSM   H12A18301   4.092   0.205   1.919 -0.3977 -0.5089  3.7807
  163OSM   H12B18302   3.933   0.243   1.947 -0.6076  0.4169 -4.6821
  163OSM    C1118303   4.088   0.373   2.046 -0.7339  0.2469  0.2887
  163OSM   H11A18304   4.094   0.297   2.126 -0.5455 -1.0296 -0.9106
  163OSM   H11B18305   4.018   0.451   2.082  0.5114  1.3238  0.4805
  163OSM      P18306   4.350   0.401   2.100  0.4890  0.4571  0.3412
  163OSM    O1318307   4.385   0.258   2.084  0.3292 -0.8652  0.0728
  163OSM    O1418308   4.455   0.492   2.053 -0.5757  0.4645  0.5660
  163OSM    O1118309   4.315   0.437   2.247  0.1118  0.3982  0.0886
  163OSM    O1218310   4.218   0.422   2.010 -0.0609  0.1981 -0.2255
  163OSM    C1S18311   4.267   0.572   2.269 -0.2361  0.6847 -0.2474
  163OSM    H1S18312   4.158   0.582   2.248 -0.5510  0.3926  1.1608
  163OSM    H1T18313   4.331   0.646   2.217  0.6966 -0.8823 -1.4188
  163OSM     NF18314   4.189   0.728   2.463  0.1255  0.8536 -0.5827
  163OSM    HNF18315   4.249   0.800   2.498 -0.4135 -0.4733  3.6363
  163OSM    C2S18316   4.268   0.608   2.425  0.4971 -0.1063  0.0481
  163OSM    H2S18317   4.217   0.522   2.474 -0.8286  0.9277  0.5717
  163OSM    C3S18318   4.411   0.607   2.476 -0.5738 -0.6166  0.1529
  163OSM    H3S18319   4.462   0.687   2.417 -0.2924 -1.2051 -0.4080
  163OSM     O318320   4.485   0.496   2.445 -0.0886  0.6475  0.5280
  163OSM    HO318321   4.435   0.461   2.370  0.3437 -1.7875  1.2813
  163OSM    C4S18322   4.417   0.641   2.626  0.6071  0.2935 -0.6131
  163OSM    H4S18323   4.394   0.748   2.644  0.0535 -0.0985  1.2387
  163OSM    C5S18324   4.438   0.551   2.725  0.1347  0.1445 -0.2680
  163OSM    H5S18325   4.448   0.444   2.702 -0.3606  0.1641 -0.5910
  163OSM    C6S18326   4.455   0.574   2.874 -0.0900  0.8228  0.1153
  163OSM    H6S18327   4.559   0.541   2.894 -0.4827 -0.6319 -0.1693
  163OSM    H6T18328   4.407   0.489   2.925  1.1003 -1.1776 -1.9192
  163OSM    C7S18329   4.423   0.718   2.915 -0.2086  1.2276 -0.1038
  163OSM    H7S18330   4.333   0.761   2.866  0.0313  1.2745 -0.5061
  163OSM    H7T18331   4.510   0.784   2.892 -0.0639  1.4341  0.9664
  163OSM    C8S18332   4.400   0.729   3.065 -0.1576  0.3492 -0.2298
  163OSM    H8S18333   4.348   0.637   3.100  0.3242  0.0396 -0.3104
  163OSM    H8T18334   4.340   0.813   3.106 -0.7885 -0.4461  0.5262
  163OSM    C9S18335   4.532   0.728   3.145 -0.2292 -0.2017  0.3026
  163OSM    H9S18336   4.596   0.819   3.149 -1.3679  0.5831  1.5417
  163OSM    H9T18337   4.590   0.648   3.094  0.2168  0.5637 -0.4130
  163OSM   C10S18338   4.524   0.687   3.292  0.0742 -0.2836  0.4810
  163OSM   H10S18339   4.465   0.593   3.294  0.2916 -0.4924 -1.4958
  163OSM   H10T18340   4.460   0.763   3.343  0.9299  0.6159  0.2365
  163OSM   C11S18341   4.656   0.667   3.352 -0.0987  0.6740  1.1202
  163OSM   H11S18342   4.701   0.768   3.352  0.3612  0.5463 -1.4437
  163OSM   H11T18343   4.707   0.590   3.290 -0.9957  0.4993  0.5802
  163OSM   C12S18344   4.658   0.613   3.494 -0.5861 -0.6812 -0.2064
  163OSM   H12S18345   4.762   0.584   3.518 -0.9426 -1.1509  0.8814
  163OSM   H12T18346   4.603   0.516   3.498 -1.3674 -0.2274  0.3308
  163OSM   C13S18347   4.628   0.702   3.613  0.1522 -0.1926 -0.1737
  163OSM   H13S18348   4.517   0.715   3.617  0.3244  2.6112 -1.9632
  163OSM   H13T18349   4.674   0.799   3.584  0.7704 -0.8419 -1.4191
  163OSM   C14S18350   4.681   0.632   3.747  0.1494 -0.3323 -0.3696
  163OSM   H14S18351   4.792   0.634   3.744  0.1548  1.2905 -0.0695
  163OSM   H14T18352   4.651   0.525   3.749 -1.3302  0.0619  2.0358
  163OSM   C15S18353   4.633   0.721   3.863 -0.2006  0.4010 -0.4980
  163OSM   H15S18354   4.522   0.731   3.855 -0.1682 -0.0791 -1.6971
  163OSM   H15T18355   4.675   0.823   3.846  1.0698 -0.2168 -1.1166
  163OSM   C16S18356   4.650   0.676   4.010 -0.5872 -0.0575 -0.7921
  163OSM   H16S18357   4.625   0.568   4.021  0.0006 -0.2602 -1.3763
  163OSM   H16T18358   4.589   0.742   4.076 -0.1597 -1.0927  0.6862
  163OSM   C17S18359   4.797   0.677   4.061 -0.2727 -0.0677 -0.4734
  163OSM   H17S18360   4.825   0.785   4.057 -0.2745 -0.1024 -1.6560
  163OSM   H17T18361   4.861   0.614   3.996 -0.5677 -0.5727 -0.2836
  163OSM   C18S18362   4.812   0.631   4.203  0.7834  0.0379 -0.4742
  163OSM   H18S18363   4.914   0.612   4.242 -0.0871  2.3320  3.3051
  163OSM   H18T18364   4.763   0.531   4.209 -0.0376  0.5142  1.2266
  163OSM   H18U18365   4.770   0.694   4.283 -1.9140 -2.0110 -0.1255
  163OSM    C1F18366   4.057   0.745   2.449 -0.5305  0.0664  0.6939
  163OSM     OF18367   3.988   0.657   2.400  0.3027  0.0411 -0.1509
  163OSM    C2F18368   3.998   0.876   2.507 -0.2296  0.2209 -0.0655
  163OSM    H2F18369   4.033   0.965   2.451  1.2619  1.8253  3.2033
  163OSM    H2G18370   4.043   0.887   2.607 -0.6602 -1.2105  0.3187
  163OSM    C3F18371   3.840   0.862   2.529  0.5026  1.0127  0.2504
  163OSM    H3F18372   3.814   0.771   2.588 -0.4352  0.9352 -0.2703
  163OSM    H3G18373   3.797   0.835   2.431  2.9756  0.1573 -0.6763
  163OSM    C4F18374   3.775   0.992   2.578 -0.4193 -0.0679 -0.7542
  163OSM    H4F18375   3.672   0.968   2.611 -0.0369  0.0422  0.5535
  163OSM    H4G18376   3.760   1.046   2.482 -1.6440 -1.4826 -1.4051
  163OSM    C5F18377   3.857   1.088   2.675  0.4392 -0.1269  0.2221
  163OSM    H5F18378   3.784   1.162   2.714  0.5159  0.1053 -0.0715
  163OSM    H5G18379   3.947   1.138   2.634 -0.5638  2.1875  0.6825
  163OSM    C6F18380   3.894   1.012   2.809 -0.2788  0.2796 -0.3281
  163OSM    H6F18381   3.978   0.946   2.781  1.1508  2.1623 -0.6893
  163OSM    H6G18382   3.805   0.960   2.852  0.4495 -0.5490  0.2068
  163OSM    C7F18383   3.968   1.104   2.913  0.3338  0.5988 -0.2764
  163OSM    H7F18384   4.060   1.143   2.866  2.4335 -2.9488  0.5506
  163OSM    H7G18385   3.999   1.038   2.997 -0.4430  2.1992  1.3516
  163OSM    C8F18386   3.876   1.216   2.972  0.0108 -0.0031  0.7251
  163OSM    H8F18387   3.833   1.278   2.891 -1.4895 -0.4611  1.1509
  163OSM    H8G18388   3.957   1.265   3.030  0.0439 -0.3893  1.0169
  163OSM    C9F18389   3.774   1.172   3.071  0.2200  0.0545 -0.4430
  163OSM    H9F18390   3.673   1.159   3.030  0.1072 -0.0537 -0.1316
  163OSM   C10F18391   3.797   1.143   3.202  0.4329  0.7314 -0.3895
  163OSM   H10F18392   3.717   1.111   3.270  1.4677 -1.9478 -0.3211
  163OSM   C11F18393   3.931   1.157   3.270 -0.0486  0.0348 -0.7833
  163OSM   H11F18394   4.015   1.173   3.199  2.7782  0.8369  2.4506
  163OSM   H11G18395   3.949   1.068   3.333 -0.3441  1.3646  1.2652
  163OSM   C12F18396   3.933   1.275   3.367  0.2888  0.1536  0.0794
  163OSM   H12F18397   3.899   1.365   3.312 -1.3558 -0.3497  0.2423
  163OSM   H12G18398   4.039   1.288   3.398 -0.8666  1.6267  4.1177
  163OSM   C13F18399   3.851   1.264   3.498 -0.0513  0.2743 -0.5146
  163OSM   H13F18400   3.903   1.183   3.553  0.8373  0.7922 -0.5751
  163OSM   H13G18401   3.746   1.236   3.473 -1.1817  2.2750  1.5562
  163OSM   C14F18402   3.853   1.391   3.582  0.4402  0.2275 -0.5063
  163OSM   H14F18403   3.777   1.422   3.657  0.0110  0.8247 -1.1737
  163OSM   H14G18404   3.832   1.465   3.502  0.3916  0.2485 -0.4740
  163OSM   C15F18405   3.990   1.443   3.629  0.3879  0.5661  0.2608
  163OSM   H15F18406   4.059   1.462   3.545  0.3980 -1.8603 -0.3610
  163OSM   H15G18407   4.042   1.362   3.685 -0.6783 -0.9712 -0.8928
  163OSM   C16F18408   3.979   1.564   3.714 -0.0312 -0.6221 -0.4977
  163OSM   H16F18409   3.907   1.548   3.798  2.5823 -1.5201  1.7149
  163OSM   H16G18410   3.946   1.651   3.653 -0.4029 -1.1552 -1.0702
  163OSM   C17F18411   4.109   1.611   3.789  0.0049  0.7365 -0.4775
  163OSM   H17F18412   4.092   1.700   3.854 -0.7258  0.8733 -0.8459
  163OSM   H17G18413   4.188   1.637   3.714  3.4075 -0.1165  2.5167
  163OSM   C18F18414   4.179   1.509   3.882  0.1778 -0.2367 -0.6832
  163OSM   H18F18415   4.164   1.403   3.852  0.2993 -1.5570  3.3768
  163OSM   H18G18416   4.138   1.521   3.984 -0.1721 -2.5639 -0.5009
  163OSM   H18H18417   4.289   1.525   3.881  0.1836 -0.2707 -1.1416
  164OSM      N18418   5.368   1.462   2.127  0.3587 -0.0304  0.2041
  164OSM    C1518419   5.345   1.312   2.157  0.2721  0.2708 -0.2154
  164OSM   H15A18420   5.266   1.271   2.095  1.2387 -0.3985 -1.0535
  164OSM   H15B18421   5.318   1.299   2.260 -0.3580  1.1153 -0.2653
  164OSM   H15C18422   5.434   1.255   2.132  0.4076 -0.0158  0.8698
  164OSM    C1418423   5.436   1.490   2.006 -0.1036  0.2182  0.0136
  164OSM   H14A18424   5.446   1.595   1.983 -1.3262  0.6050  1.1416
  164OSM   H14B18425   5.381   1.452   1.921  2.7049  0.1165 -1.9025
  164OSM   H14C18426   5.536   1.449   1.998 -0.4426 -0.2643 -3.3536
  164OSM    C1318427   5.241   1.540   2.133  0.2815  0.0959  0.1359
  164OSM   H13A18428   5.175   1.498   2.058  0.7272 -0.3443 -0.0196
  164OSM   H13B18429   5.261   1.644   2.113 -0.5095  0.1593 -0.3791
  164OSM   H13C18430   5.190   1.526   2.227 -0.8238  0.9346 -0.3041
  164OSM    C1218431   5.456   1.511   2.237 -0.3165  0.1720 -1.0081
  164OSM   H12A18432   5.412   1.483   2.332  0.6053  0.8558 -0.3658
  164OSM   H12B18433   5.468   1.618   2.237 -0.3491  0.2230  1.0620
  164OSM    C1118434   5.605   1.454   2.242  0.1226 -0.5121  0.2091
  164OSM   H11A18435   5.599   1.345   2.226  0.6188 -0.4268 -0.6170
  164OSM   H11B18436   5.643   1.471   2.344  0.4430  2.1945 -0.2737
  164OSM      P18437   5.766   1.650   2.178  0.0380  0.2096 -0.1610
  164OSM    O1318438   5.844   1.701   2.061  0.3637 -0.1664  0.0088
  164OSM    O1418439   5.679   1.751   2.240  0.3105  0.4703 -0.0210
  164OSM    O1118440   5.867   1.596   2.286  0.2578 -0.4059 -0.3959
  164OSM    O1218441   5.682   1.524   2.142 -0.2947 -0.0008  0.2330
  164OSM    C1S18442   5.922   1.687   2.391  0.1523 -0.0263 -0.0510
  164OSM    H1S18443   5.845   1.748   2.443 -0.0184 -1.8207  1.9480
  164OSM    H1T18444   5.988   1.765   2.348 -0.4804 -0.1346 -1.2715
  164OSM     NF18445   6.030   1.695   2.625 -1.1246  0.3492  0.2182
  164OSM    HNF18446   6.122   1.734   2.627 -0.7669 -0.5133  1.2429
  164OSM    C2S18447   5.995   1.606   2.509  0.4877 -0.4550  0.1567
  164OSM    H2S18448   5.918   1.537   2.549 -1.8045  1.5170 -0.6553
  164OSM    C3S18449   6.111   1.521   2.453  0.2714  0.0121 -0.7647
  164OSM    H3S18450   6.188   1.588   2.408  1.2738 -1.2066 -0.9052
  164OSM     O318451   6.065   1.418   2.362  0.2342  0.1431  0.5336
  164OSM    HO318452   5.987   1.463   2.329 -0.3562 -2.1413 -1.4369
  164OSM    C4S18453   6.177   1.445   2.558 -0.7538 -0.3464  0.2808
  164OSM    H4S18454   6.109   1.410   2.637 -1.4411 -1.0189 -0.5949
  164OSM    C5S18455   6.308   1.425   2.564  0.4249  0.3378  0.3536
  164OSM    H5S18456   6.372   1.450   2.479 -0.3259  1.0110 -0.0300
  164OSM    C6S18457   6.387   1.367   2.681  0.6028 -0.1436  0.2480
  164OSM    H6S18458   6.488   1.413   2.689  0.8894 -0.7545  0.2246
  164OSM    H6T18459   6.405   1.258   2.670  0.8348 -0.1293  0.4779
  164OSM    C7S18460   6.329   1.371   2.827 -0.2611 -1.1811 -0.0284
  164OSM    H7S18461   6.412   1.329   2.889  0.2684 -3.1137 -1.9232
  164OSM    H7T18462   6.248   1.297   2.840 -0.5671 -0.6226  1.5129
  164OSM    C8S18463   6.303   1.516   2.879 -0.0508  0.6697  0.3424
  164OSM    H8S18464   6.217   1.556   2.822 -1.2971 -0.1250  1.5999
  164OSM    H8T18465   6.388   1.585   2.855 -0.6167  1.7402  1.3436
  164OSM    C9S18466   6.305   1.524   3.033  0.1477 -0.1789  0.0746
  164OSM    H9S18467   6.408   1.531   3.073  0.4985 -0.8531 -0.6881
  164OSM    H9T18468   6.249   1.434   3.068  0.6755 -0.3702  0.4477
  164OSM   C10S18469   6.251   1.658   3.081  0.3477  0.3042 -0.1455
  164OSM   H10S18470   6.147   1.676   3.046  0.5421 -0.8135 -1.3799
  164OSM   H10T18471   6.303   1.750   3.045  1.6733  0.1112  1.1916
  164OSM   C11S18472   6.243   1.664   3.238  0.1409  0.0730 -0.4611
  164OSM   H11S18473   6.346   1.640   3.272 -0.9894 -3.0038  1.1989
  164OSM   H11T18474   6.180   1.578   3.270  1.8529 -0.4495  1.8042
  164OSM   C12S18475   6.208   1.808   3.297 -0.7700 -0.1134  0.2515
  164OSM   H12S18476   6.108   1.846   3.266 -1.6431 -1.1037  1.7027
  164OSM   H12T18477   6.278   1.874   3.242  0.1576 -2.1192 -1.1321
  164OSM   C13S18478   6.227   1.810   3.449  1.1452 -0.1131  0.3417
  164OSM   H13S18479   6.260   1.912   3.479 -0.0472  0.7899 -1.2778
  164OSM   H13T18480   6.298   1.734   3.488  1.1129  1.3812  3.6488
  164OSM   C14S18481   6.094   1.808   3.521 -0.2489 -0.4658  0.3533
  164OSM   H14S18482   6.038   1.712   3.517 -2.2838  0.3117  4.3986
  164OSM   H14T18483   6.025   1.877   3.467 -0.3353 -1.1484 -0.4365
  164OSM   C15S18484   6.110   1.840   3.672  0.3774 -0.3100 -0.3047
  164OSM   H15S18485   6.017   1.873   3.723  0.7952  0.0328  0.2428
  164OSM   H15T18486   6.174   1.928   3.694 -1.9277  0.7974  2.6429
  164OSM   C16S18487   6.158   1.712   3.750 -0.0549 -0.5747  0.1563
  164OSM   H16S18488   6.188   1.747   3.851  1.5231 -3.4473  0.8178
  164OSM   H16T18489   6.254   1.683   3.702  0.6691 -0.9358  1.7380
  164OSM   C17S18490   6.057   1.598   3.772 -0.2709 -0.7084  0.1998
  164OSM   H17S18491   6.067   1.536   3.680  2.0991  0.0248 -0.0844
  164OSM   H17T18492   5.953   1.638   3.779 -0.2430 -0.8403  1.7843
  164OSM   C18S18493   6.072   1.525   3.904 -0.0197 -0.4421 -0.2079
  164OSM   H18S18494   5.994   1.447   3.923  1.5999 -1.7242  1.6156
  164OSM   H18T18495   6.067   1.599   3.986 -3.2838 -1.2745  0.5000
  164OSM   H18U18496   6.167   1.468   3.904 -1.0995 -2.4099  1.1673
  164OSM    C1F18497   5.945   1.741   2.716 -0.1892  0.6983 -0.0938
  164OSM     OF18498   5.836   1.688   2.732  0.8872  0.4924  0.3292
  164OSM    C2F18499   5.986   1.851   2.807 -0.4618  0.4804  0.3317
  164OSM    H2F18500   6.003   1.941   2.745  0.0020 -0.9103 -1.6452
  164OSM    H2G18501   6.079   1.809   2.853 -1.6413 -2.0635  0.5849
  164OSM    C3F18502   5.887   1.869   2.920 -0.4234  0.3160 -0.0527
  164OSM    H3F18503   5.865   1.773   2.973  0.2365 -0.6176 -1.4162
  164OSM    H3G18504   5.793   1.909   2.876  0.0377  2.1453  0.5517
  164OSM    C4F18505   5.922   1.979   3.036 -0.1683  0.2109  0.6303
  164OSM    H4F18506   5.869   2.068   2.995  0.0144  0.2972  0.5802
  164OSM    H4G18507   6.033   1.979   3.035 -0.1497  1.5714  0.3512
  164OSM    C5F18508   5.848   1.941   3.164 -0.8375 -0.3009  0.4565
  164OSM    H5F18509   5.883   1.846   3.209 -1.0519  0.4242  2.2473
  164OSM    H5G18510   5.741   1.928   3.137 -1.0395 -1.0059  1.5401
  164OSM    C6F18511   5.864   2.051   3.273  0.1685  0.3173  0.4833
  164OSM    H6F18512   5.876   2.148   3.220  1.0939  1.1143  2.0607
  164OSM    H6G18513   5.956   2.039   3.335 -0.8698 -2.2061  1.6955
  164OSM    C7F18514   5.738   2.072   3.361  0.1219 -0.4344  0.0266
  164OSM    H7F18515   5.655   2.086   3.288 -0.3470  1.6122  0.8705
  164OSM    H7G18516   5.747   2.169   3.414  1.1104 -0.0345 -0.8506
  164OSM    C8F18517   5.696   1.944   3.435  0.5316  0.3254 -0.3915
  164OSM    H8F18518   5.788   1.906   3.486  1.2155  1.5395 -0.6875
  164OSM    H8G18519   5.675   1.865   3.359  1.2211  1.2200 -1.5515
  164OSM    C9F18520   5.582   1.973   3.525 -0.3715 -0.2230 -0.1642
  164OSM    H9F18521   5.500   2.011   3.463  0.5497 -0.2923 -1.4672
  164OSM   C10F18522   5.565   1.974   3.658  0.2217 -0.0983 -0.1882
  164OSM   H10F18523   5.478   2.011   3.714  1.9355 -2.1158  4.3022
  164OSM   C11F18524   5.668   1.923   3.762  0.4144  0.0767  0.5106
  164OSM   H11F18525   5.703   2.008   3.825 -1.9794  0.6227  1.2219
  164OSM   H11G18526   5.759   1.884   3.712 -0.1564 -0.2544 -0.2876
  164OSM   C12F18527   5.607   1.820   3.853  0.1931  0.3946  0.3798
  164OSM   H12F18528   5.562   1.739   3.791  0.4455  0.6440 -0.1265
  164OSM   H12G18529   5.525   1.862   3.916 -0.0412  2.9274 -1.4854
  164OSM   C13F18530   5.708   1.752   3.941  0.3962 -0.1593 -0.7012
  164OSM   H13F18531   5.756   1.817   4.016 -0.6849  0.9765 -0.9644
  164OSM   H13G18532   5.800   1.720   3.887  0.5226 -1.1383  0.0605
  164OSM   C14F18533   5.663   1.621   4.010  0.0662 -0.5519 -0.5130
  164OSM   H14F18534   5.746   1.576   4.070 -1.5133 -1.2759  1.2201
  164OSM   H14G18535   5.636   1.540   3.940  0.7986 -0.2388 -1.1745
  164OSM   C15F18536   5.536   1.644   4.095  0.1748  0.7742 -0.2952
  164OSM   H15F18537   5.504   1.546   4.136  1.3997 -0.3940 -1.9965
  164OSM   H15G18538   5.452   1.670   4.026 -0.5667 -1.9359 -0.5215
  164OSM   C16F18539   5.553   1.733   4.220  0.0112  0.0518  0.7979
  164OSM   H16F18540   5.573   1.840   4.196 -1.2894  0.6320  2.1078
  164OSM   H16G18541   5.644   1.704   4.278  2.1653  1.6246 -1.5785
  164OSM   C17F18542   5.432   1.732   4.316 -0.3696  0.0391  0.0166
  164OSM   H17F18543   5.343   1.756   4.255  0.0698  3.7103  0.5713
  164OSM   H17G18544   5.448   1.814   4.389  1.4393 -0.3663  0.1343
  164OSM   C18F18545   5.418   1.598   4.393 -0.2882  0.1817 -0.5152
  164OSM   H18F18546   5.336   1.602   4.467  1.8170 -1.4514  2.1065
  164OSM   H18G18547   5.515   1.579   4.445  0.2840 -1.5441 -2.0722
  164OSM   H18H18548   5.404   1.516   4.319 -0.9280  0.6700 -0.9402
  165SAPS     N18549   4.842   0.805   7.064 -0.0495 -0.2713  0.2397
  165SAPS   HN118550   4.924   0.869   7.062 -0.4190  0.1886 -1.6124
  165SAPS   HN218551   4.764   0.861   7.105  1.6400  2.0138  0.5762
  165SAPS   HN318552   4.858   0.721   7.123 -2.7316  1.0297  3.1221
  165SAPS   C1218553   4.804   0.761   6.922  0.1086  0.1679  0.3643
  165SAPS  H12A18554   4.893   0.785   6.865 -0.4003  0.7020 -0.2318
  165SAPS   C1318555   4.770   0.611   6.899  0.9128  0.7311 -0.7279
  165SAPS  O13A18556   4.795   0.523   6.985  0.4762 -0.0273 -0.2184
  165SAPS  O13B18557   4.726   0.571   6.786 -0.3280  0.2918 -0.0814
  165SAPS   C1118558   4.686   0.853   6.870 -0.4272  0.6101 -0.3977
  165SAPS  H11A18559   4.595   0.843   6.932 -0.2222 -1.1628 -0.3363
  165SAPS  H11B18560   4.651   0.815   6.772 -0.2809  1.4046 -0.7661
  165SAPS     P18561   4.810   1.071   6.762 -0.0289  0.4680  0.2299
  165SAPS   O1318562   4.739   1.191   6.729 -0.0474  0.1452 -0.3270
  165SAPS   O1418563   4.948   1.081   6.811 -0.1504  0.3579 -0.3199
  165SAPS   O1218564   4.716   0.992   6.865 -0.2616 -0.1396 -0.0964
  165SAPS   O1118565   4.810   0.978   6.629 -0.4809  0.0413  0.3206
  165SAPS    C118566   4.684   0.957   6.560 -0.3217 -0.3346 -0.2513
  165SAPS    HA18567   4.671   0.848   6.547  0.6215 -0.4330 -0.4011
  165SAPS    HB18568   4.586   0.986   6.603  0.1536 -0.0194  0.6274
  165SAPS    C218569   4.688   1.014   6.420 -0.2144  0.0695  0.2504
  165SAPS    HS18570   4.591   1.000   6.368 -0.2501 -0.2530  0.4039
  165SAPS   O2118571   4.793   0.948   6.343 -0.1796  0.4608 -0.0413
  165SAPS   C2118572   4.794   0.949   6.212  0.0945 -0.6568  0.1196
  165SAPS   O2218573   4.707   0.994   6.141 -0.1745 -0.1066 -0.4240
  165SAPS   C2218574   4.920   0.878   6.166  0.0689  0.0770 -0.5686
  165SAPS   H2R18575   5.006   0.913   6.226 -1.1448 -0.1072  1.3568
  165SAPS   H2S18576   4.908   0.772   6.196 -1.2966  0.8423  1.8844
  165SAPS    C318577   4.716   1.168   6.425 -0.0480  0.2202 -0.6439
  165SAPS    HX18578   4.816   1.179   6.472 -1.2375  0.0699  2.1250
  165SAPS    HY18579   4.647   1.217   6.496  0.0223 -2.1837  1.2129
  165SAPS   O3118580   4.727   1.225   6.300 -0.4063 -0.3156 -0.3915
  165SAPS   C3118581   4.615   1.245   6.234  0.3014 -0.2160 -0.0076
  165SAPS   O3218582   4.505   1.250   6.283  0.1191  0.6859  0.4198
  165SAPS   C3218583   4.642   1.268   6.086 -0.0572  0.3198 -0.0623
  165SAPS   H2X18584   4.569   1.206   6.031  0.5143 -0.1264 -0.3278
  165SAPS   H2Y18585   4.742   1.231   6.055 -0.2908  0.1870 -0.6477
  165SAPS   C2318586   4.942   0.896   6.012  0.3105 -0.6106  0.1288
  165SAPS   H3R18587   4.930   1.004   5.988 -1.0010 -1.0385 -1.3239
  165SAPS   H3S18588   4.864   0.839   5.956  1.1772 -1.7850  0.0862
  165SAPS   C2418589   5.083   0.854   5.969 -0.1444 -0.2918 -0.3292
  165SAPS   H4R18590   5.161   0.932   5.985 -1.5045  1.8224 -3.0762
  165SAPS   H4S18591   5.091   0.849   5.858 -1.1727  1.8585 -0.5586
  165SAPS   C2518592   5.115   0.723   6.028  0.8389  0.1957 -0.0954
  165SAPS   H5R18593   5.144   0.730   6.134 -0.7919  0.7590  0.3527
  165SAPS   C2618594   5.135   0.604   5.970  0.2383 -0.3045  0.1528
  165SAPS   H6R18595   5.157   0.516   6.033  1.9002 -0.3989 -0.5038
  165SAPS   C2718596   5.122   0.581   5.821  1.0015  0.2291  0.4438
  165SAPS   H7R18597   5.221   0.584   5.772  0.4948  1.2710 -0.5519
  165SAPS   H7S18598   5.048   0.650   5.776 -0.3547 -0.7853  1.0235
  165SAPS   C2818599   5.074   0.443   5.795  0.3068  0.2112  0.1602
  165SAPS   H8R18600   5.076   0.369   5.876  2.0728  1.6772  1.5340
  165SAPS   C2918601   5.023   0.404   5.671  0.2519  0.8371 -1.1485
  165SAPS   H9R18602   4.979   0.304   5.661 -0.0834  0.9828 -1.1509
  165SAPS  C21018603   5.006   0.483   5.545 -0.1014 -0.0657 -0.1184
  165SAPS  H10R18604   5.072   0.573   5.548  2.4451 -1.8452  1.0128
  165SAPS  H10S18605   4.902   0.521   5.538 -1.0780 -2.3099  1.2734
  165SAPS  C21118606   5.025   0.395   5.426 -0.0220  0.1204 -0.0823
  165SAPS  H11R18607   5.100   0.435   5.356  0.8382 -0.5065  0.4673
  165SAPS  C21218608   4.934   0.302   5.385  0.4859 -0.6247  0.5003
  165SAPS  H12R18609   4.946   0.246   5.292  2.9516  0.3469  0.1600
  165SAPS  C21318610   4.801   0.264   5.445  0.0903 -0.2247 -0.7535
  165SAPS  H13R18611   4.714   0.319   5.404 -0.2470  0.0905  0.3419
  165SAPS  H13S18612   4.802   0.306   5.548  0.5225  0.4233 -1.0090
  165SAPS  C21418613   4.782   0.117   5.452  0.3119  1.2065  0.0603
  165SAPS  H14R18614   4.828   0.060   5.535 -0.8445  0.1467 -0.0004
  165SAPS  C21518615   4.703   0.036   5.368 -0.1810 -0.6402  0.8397
  165SAPS  H15R18616   4.703  -0.073   5.386 -0.5396 -0.6071  1.0636
  165SAPS  C21618617   4.610   0.082   5.256 -0.8367 -0.6543  0.2265
  165SAPS  H16R18618   4.597   0.192   5.264  1.5122 -0.4279  2.2044
  165SAPS  H16S18619   4.507   0.042   5.269 -0.9365 -0.1688  1.0058
  165SAPS  C21718620   4.644   0.052   5.109  0.1090 -0.1189  0.8353
  165SAPS  H17R18621   4.748   0.077   5.080  0.4187 -0.7470  1.3821
  165SAPS  H17S18622   4.577   0.114   5.045  1.1290 -1.4020 -1.6234
  165SAPS  C21818623   4.639  -0.104   5.077  0.1685 -0.0089 -0.3453
  165SAPS  H18R18624   4.571  -0.147   5.153 -1.2586  3.2226  0.4004
  165SAPS  H18S18625   4.734  -0.157   5.100 -1.1820 -2.2609  0.3272
  165SAPS  C21918626   4.592  -0.152   4.939 -0.0496 -0.2172 -0.5111
  165SAPS  H19R18627   4.643  -0.084   4.867 -0.1261 -0.5149 -0.8536
  165SAPS  H19S18628   4.483  -0.127   4.936 -0.8584 -2.9474  2.0393
  165SAPS  C22018629   4.605  -0.308   4.929  0.5499 -0.1993 -0.4401
  165SAPS  H20R18630   4.521  -0.346   4.868  1.6831 -2.0732 -0.9056
  165SAPS  H20S18631   4.599  -0.350   5.032  0.1198  0.0830 -0.3457
  165SAPS  H20T18632   4.694  -0.343   4.873 -1.4291 -2.6005 -2.2782
  165SAPS   C3318633   4.630   1.421   6.042 -0.1053  0.6177  0.5930
  165SAPS   H3X18634   4.728   1.472   6.051 -0.1232  0.7485  0.1015
  165SAPS   H3Y18635   4.560   1.467   6.114 -0.8918  1.1188 -0.4665
  165SAPS   C3418636   4.559   1.451   5.908  0.5687 -0.2067 -0.2997
  165SAPS   H4X18637   4.451   1.428   5.908  0.5335 -0.1915 -2.1298
  165SAPS   H4Y18638   4.584   1.378   5.828 -1.3156  0.0062 -1.1331
  165SAPS   C3518639   4.577   1.598   5.861 -0.1282  0.5292 -0.0607
  165SAPS   H5X18640   4.682   1.631   5.848  1.3196 -2.9679  1.4198
  165SAPS   H5Y18641   4.529   1.668   5.932 -1.1042 -1.8816  1.8149
  165SAPS   C3618642   4.506   1.625   5.721  0.1922  0.0279  0.6366
  165SAPS   H6X18643   4.501   1.732   5.692 -0.4934 -0.3246 -0.6413
  165SAPS   H6Y18644   4.398   1.605   5.738 -0.7453  2.4403 -1.7554
  165SAPS   C3718645   4.555   1.543   5.603  0.0129 -0.8994 -0.1486
  165SAPS   H7X18646   4.562   1.436   5.630 -0.5545 -1.1809 -1.0514
  165SAPS   H7Y18647   4.659   1.576   5.586  1.1580 -2.5368  2.9682
  165SAPS   C3818648   4.475   1.556   5.475 -0.1933 -0.1948 -0.1638
  165SAPS   H8X18649   4.473   1.664   5.447  0.8736 -0.5019 -1.5469
  165SAPS   H8Y18650   4.368   1.524   5.470  0.2306 -1.5202 -1.1912
  165SAPS   C3918651   4.550   1.507   5.344 -0.8909  0.4739  0.4187
  165SAPS   H9X18652   4.651   1.553   5.342 -0.3349 -0.7226  0.0010
  165SAPS   H9Y18653   4.493   1.533   5.252 -1.3181 -0.7372  0.3166
  165SAPS  C31018654   4.566   1.352   5.348 -0.1816 -0.4134  0.7060
  165SAPS  H10X18655   4.470   1.302   5.322 -1.2921  1.4260  1.0677
  165SAPS  H10Y18656   4.605   1.319   5.446  1.7543 -0.5985 -0.0666
  165SAPS  C31118657   4.669   1.308   5.241 -0.7820 -1.1079  0.1173
  165SAPS  H11X18658   4.767   1.353   5.266 -1.5340  1.5587 -1.3072
  165SAPS  H11Y18659   4.639   1.356   5.145  0.4335  0.8917  0.6800
  165SAPS  C31218660   4.685   1.160   5.215 -0.0434 -0.0622 -0.1590
  165SAPS  H12X18661   4.590   1.127   5.167  0.6414 -0.3146 -1.3764
  165SAPS  H12Y18662   4.691   1.106   5.311 -1.6355 -1.3230 -0.7175
  165SAPS  C31318663   4.793   1.130   5.111 -0.1931  0.2417 -0.0326
  165SAPS  H13X18664   4.874   1.201   5.136 -0.8470  0.5519  1.2641
  165SAPS  H13Y18665   4.760   1.171   5.013 -0.6752  1.8903  0.7885
  165SAPS  C31418666   4.823   0.979   5.099  0.6451 -0.5295  0.5947
  165SAPS  H14X18667   4.751   0.919   5.039  0.2470  0.5539 -0.0294
  165SAPS  H14Y18668   4.833   0.929   5.198  0.1338  0.3076  1.0756
  165SAPS  C31518669   4.942   0.952   5.016 -0.2770 -0.1094  0.1426
  165SAPS  H15X18670   5.033   1.011   5.041  2.0316 -3.3472  0.0131
  165SAPS  H15Y18671   4.913   0.976   4.912 -0.4234 -0.8497  0.0047
  165SAPS  C31618672   4.994   0.807   5.018 -0.0873 -0.1850  0.0354
  165SAPS  H16X18673   5.078   0.796   4.946  0.2543 -0.0370  0.4069
  165SAPS  H16Y18674   4.921   0.735   4.975 -0.1641 -0.1254  0.0652
  165SAPS  C31718675   5.052   0.766   5.155  0.0178 -0.3511  0.0586
  165SAPS  H17X18676   4.975   0.772   5.234  1.1765  3.1633  1.1134
  165SAPS  H17Y18677   5.126   0.843   5.186 -0.5640  0.3057 -0.1714
  165SAPS  C31818678   5.113   0.626   5.143  0.2632 -0.8090  0.2310
  165SAPS  H18X18679   5.173   0.598   5.232  0.9847  0.9865  0.3606
  165SAPS  H18Y18680   5.180   0.612   5.056  0.8839 -3.1336  1.0310
  165SAPS  H18Z18681   5.032   0.551   5.140 -0.6335  0.1351  0.0144
  166SAPS     N18682   3.697   2.871   6.430  0.0520 -0.0864 -0.7108
  166SAPS   HN118683   3.667   2.929   6.349  0.8358  0.1887 -0.8103
  166SAPS   HN218684   3.800   2.879   6.437  0.0180 -0.8426  1.3803
  166SAPS   HN318685   3.663   2.773   6.421 -0.2660  0.1615 -2.6950
  166SAPS   C1218686   3.633   2.928   6.549 -0.0995  0.7589  0.5320
  166SAPS  H12A18687   3.545   2.871   6.575 -0.1136  0.7256  0.4133
  166SAPS   C1318688   3.716   2.943   6.685  0.2153  1.1404  0.6046
  166SAPS  O13A18689   3.831   2.884   6.688 -0.4140  0.4222 -0.0589
  166SAPS  O13B18690   3.648   2.951   6.792  0.2989 -0.4843 -0.2973
  166SAPS   C1118691   3.567   3.065   6.513  0.3564  0.2098 -0.1749
  166SAPS  H11A18692   3.644   3.145   6.505  1.7205 -0.4336  3.9881
  166SAPS  H11B18693   3.510   3.084   6.607 -0.2619 -0.4961 -0.4008
  166SAPS     P18694   3.379   3.171   6.360 -0.1704 -0.1991 -0.1162
  166SAPS   O1318695   3.308   3.129   6.241 -0.2858  0.2306  0.0700
  166SAPS   O1418696   3.297   3.196   6.481 -1.1620  0.2155  0.1460
  166SAPS   O1218697   3.491   3.060   6.392  1.0210  0.0561  0.2839
  166SAPS   O1118698   3.464   3.302   6.324 -0.0997  0.3438  0.6249
  166SAPS    C118699   3.584   3.289   6.240 -0.0159  0.0929  0.0711
  166SAPS    HA18700   3.663   3.359   6.276 -1.5190  0.9951  1.8006
  166SAPS    HB18701   3.626   3.186   6.239  0.3443  0.1391 -3.6310
  166SAPS    C218702   3.557   3.334   6.085 -0.1228 -0.4682 -0.5929
  166SAPS    HS18703   3.540   3.444   6.088  0.7198 -0.3687  1.3344
  166SAPS   O2118704   3.439   3.278   6.019 -0.0737 -0.5733 -0.0166
  166SAPS   C2118705   3.318   3.338   6.041 -0.3342  1.1619  0.5708
  166SAPS   O2218706   3.297   3.434   6.113 -0.2902 -0.2963  0.2570
  166SAPS   C2218707   3.209   3.272   5.953 -0.3369  0.3914 -0.0840
  166SAPS   H2R18708   3.183   3.172   5.993  0.2515 -0.8599 -2.6203
  166SAPS   H2S18709   3.126   3.346   5.959 -0.5508  0.0207  2.1103
  166SAPS    C318710   3.684   3.300   6.000 -0.9130 -0.1204  0.1844
  166SAPS    HX18711   3.713   3.196   6.024  1.9812  0.5123 -0.1708
  166SAPS    HY18712   3.760   3.371   6.038  1.0936 -0.4306 -2.8758
  166SAPS   O3118713   3.658   3.319   5.853 -0.6230  0.4745 -0.1277
  166SAPS   C3118714   3.635   3.203   5.794 -0.5090 -0.3054 -0.2178
  166SAPS   O3218715   3.621   3.094   5.844  0.1579  0.2645  0.1085
  166SAPS   C3218716   3.617   3.233   5.640  0.1404  0.1353  0.4738
  166SAPS   H2X18717   3.716   3.264   5.600  0.7536 -2.3866 -0.1354
  166SAPS   H2Y18718   3.551   3.320   5.621 -1.6765 -1.1743  0.5832
  166SAPS   C2318719   3.267   3.247   5.815  0.6201  0.3747  0.3740
  166SAPS   H3R18720   3.203   3.171   5.763 -0.9129  0.4107  2.1098
  166SAPS   H3S18721   3.369   3.203   5.807  1.9040  2.9923  1.1905
  166SAPS   C2418722   3.277   3.373   5.731 -0.0205 -0.4912 -0.2275
  166SAPS   H4R18723   3.324   3.338   5.637 -1.6166 -1.5997 -0.6595
  166SAPS   H4S18724   3.346   3.445   5.780  1.4530 -1.5221 -0.7292
  166SAPS   C2518725   3.141   3.429   5.698 -0.0366  0.6525  0.6094
  166SAPS   H5R18726   3.102   3.511   5.759  1.3223  3.1083 -1.6226
  166SAPS   C2618727   3.056   3.392   5.597 -0.0741 -0.2418 -0.1578
  166SAPS   H6R18728   2.955   3.436   5.591  1.1952  3.2920  1.6541
  166SAPS   C2718729   3.099   3.291   5.496 -0.2403 -0.0227  0.2102
  166SAPS   H7R18730   3.119   3.192   5.542 -1.0954  0.0093  0.6937
  166SAPS   H7S18731   3.192   3.333   5.453  0.6009 -0.8842  1.1254
  166SAPS   C2818732   2.983   3.268   5.399 -0.8136  0.4317  0.0877
  166SAPS   H8R18733   2.894   3.332   5.398 -2.2376 -1.4608  0.5466
  166SAPS   C2918734   2.997   3.182   5.299 -0.0389  0.2541 -0.1875
  166SAPS   H9R18735   2.922   3.180   5.217  1.9256  1.5295 -2.1119
  166SAPS  C21018736   3.118   3.090   5.283  1.4222  0.0256  0.7099
  166SAPS  H10R18737   3.213   3.135   5.318  0.4134  2.3844  0.5654
  166SAPS  H10S18738   3.124   3.088   5.172  1.0851  0.2241  0.6869
  166SAPS  C21118739   3.111   2.944   5.333  0.3808 -0.0569  0.6962
  166SAPS  H11R18740   3.084   2.921   5.437  0.2539 -0.8783  0.4888
  166SAPS  C21218741   3.128   2.837   5.256 -0.2017 -0.3227 -0.0069
  166SAPS  H12R18742   3.114   2.741   5.307 -1.4397 -0.8233 -1.2307
  166SAPS  C21318743   3.177   2.823   5.112 -0.1331 -0.0965  0.8035
  166SAPS  H13R18744   3.253   2.901   5.087 -1.5108  0.9155 -0.4849
  166SAPS  H13S18745   3.096   2.835   5.036  0.7812  0.8259 -0.0632
  166SAPS  C21418746   3.237   2.685   5.094 -0.7366 -0.1153  0.8576
  166SAPS  H14R18747   3.255   2.628   5.186  0.7668  1.1105  1.3590
  166SAPS  C21518748   3.255   2.633   4.973  0.2231 -0.3674 -0.3068
  166SAPS  H15R18749   3.286   2.528   4.971  0.5395 -0.4220  2.6604
  166SAPS  C21618750   3.240   2.699   4.841  0.0578  0.5180 -0.2168
  166SAPS  H16R18751   3.229   2.808   4.860 -2.0453  0.3949 -0.4470
  166SAPS  H16S18752   3.151   2.664   4.784  0.9554 -0.1522 -1.2391
  166SAPS  C21718753   3.363   2.687   4.750 -0.1089  0.1607  0.2406
  166SAPS  H17R18754   3.449   2.738   4.798 -0.4703  1.6995 -0.6929
  166SAPS  H17S18755   3.341   2.737   4.653 -3.6569  0.4502  1.0703
  166SAPS  C21818756   3.389   2.540   4.703 -0.3734 -0.2960  0.2992
  166SAPS  H18R18757   3.303   2.500   4.646 -0.8449  1.8238 -0.5397
  166SAPS  H18S18758   3.412   2.472   4.788  0.9365 -2.3893 -1.5911
  166SAPS  C21918759   3.514   2.532   4.609  0.0456 -0.2533 -0.4192
  166SAPS  H19R18760   3.569   2.436   4.620  1.0558  0.3113 -0.4144
  166SAPS  H19S18761   3.578   2.613   4.651 -2.7377  0.7504  2.2956
  166SAPS  C22018762   3.488   2.561   4.456 -0.4995  0.7214 -1.0708
  166SAPS  H20R18763   3.456   2.667   4.445  1.8767  2.0775  2.7962
  166SAPS  H20S18764   3.403   2.504   4.414  0.0397 -1.7948  1.0313
  166SAPS  H20T18765   3.581   2.553   4.396  1.5702  0.0973  2.0092
  166SAPS   C3318766   3.554   3.110   5.573 -0.0998  0.5084  0.0130
  166SAPS   H3X18767   3.458   3.094   5.627 -0.1469  2.5515  0.6441
  166SAPS   H3Y18768   3.622   3.025   5.592  0.7646  1.3750  0.9051
  166SAPS   C3418769   3.529   3.141   5.420 -0.8229  0.0117  0.8562
  166SAPS   H4X18770   3.627   3.187   5.394 -0.9282  0.8510  1.8589
  166SAPS   H4Y18771   3.465   3.230   5.402 -1.7948 -0.9380 -0.6992
  166SAPS   C3518772   3.494   3.024   5.326 -0.2448  0.2410 -0.8716
  166SAPS   H5X18773   3.460   3.058   5.225 -2.1396 -0.4288 -0.5137
  166SAPS   H5Y18774   3.409   2.963   5.363 -1.0686  0.2484 -2.6396
  166SAPS   C3618775   3.602   2.923   5.294 -0.2292  0.5538  0.1476
  166SAPS   H6X18776   3.551   2.830   5.262 -2.2752  0.1352  3.9159
  166SAPS   H6Y18777   3.654   2.888   5.386  0.3577 -1.0452 -0.7752
  166SAPS   C3718778   3.695   2.965   5.188 -0.0665  0.6596  0.7887
  166SAPS   H7X18779   3.749   3.060   5.209  0.4286  0.4789  0.3423
  166SAPS   H7Y18780   3.636   2.986   5.096 -0.3964  0.2046  0.8903
  166SAPS   C3818781   3.794   2.853   5.144  0.3339 -0.2910 -0.3835
  166SAPS   H8X18782   3.830   2.787   5.226  1.0868  0.4214 -0.1235
  166SAPS   H8Y18783   3.885   2.905   5.105 -0.6862  0.6233 -1.6335
  166SAPS   C3918784   3.742   2.781   5.026 -0.0531 -0.0836 -0.9628
  166SAPS   H9X18785   3.730   2.853   4.942  1.5824 -0.5694 -1.6423
  166SAPS   H9Y18786   3.642   2.733   5.039  0.9420 -2.0372 -0.0418
  166SAPS  C31018787   3.833   2.674   4.988 -0.0562  0.4655 -0.5746
  166SAPS  H10X18788   3.836   2.592   5.062  0.1240 -1.5802 -2.7288
  166SAPS  H10Y18789   3.937   2.711   4.971 -0.6942  1.8288 -1.7002
  166SAPS  C31118790   3.798   2.588   4.867  0.0381  0.9425 -0.1151
  166SAPS  H11X18791   3.793   2.663   4.786  1.1704 -0.0825 -1.1768
  166SAPS  H11Y18792   3.698   2.547   4.891 -0.2603  1.3219 -0.6933
  166SAPS  C31218793   3.895   2.477   4.827  0.7716  0.7635 -0.8626
  166SAPS  H12X18794   3.899   2.406   4.913  0.1590 -1.7744 -2.7834
  166SAPS  H12Y18795   3.995   2.517   4.802  0.8084 -0.1911 -2.3913
  166SAPS  C31318796   3.852   2.392   4.701 -0.2065  0.5636 -0.0825
  166SAPS  H13X18797   3.749   2.356   4.723 -0.9599  1.8992 -1.2281
  166SAPS  H13Y18798   3.917   2.303   4.691 -1.4698 -0.1831 -2.4604
  166SAPS  C31418799   3.865   2.463   4.569 -0.2567 -0.0319 -0.5692
  166SAPS  H14X18800   3.954   2.529   4.565 -0.7705  0.6961 -0.4398
  166SAPS  H14Y18801   3.776   2.529   4.553 -0.4193  0.0535  0.5492
  166SAPS  C31518802   3.876   2.377   4.449  0.0561 -0.0077 -0.0562
  166SAPS  H15X18803   3.799   2.297   4.441  0.8340 -0.7847  0.1517
  166SAPS  H15Y18804   3.971   2.320   4.454  1.1005  1.7796  2.3607
  166SAPS  C31618805   3.879   2.455   4.323  0.3633 -0.2597  0.6240
  166SAPS  H16X18806   3.781   2.502   4.299  0.1310 -1.2435 -0.4708
  166SAPS  H16Y18807   3.897   2.382   4.242 -0.1353 -0.6442  0.8540
  166SAPS  C31718808   3.992   2.558   4.315  0.3264  1.0488 -0.1617
  166SAPS  H17X18809   4.075   2.486   4.327 -0.3782  0.2149 -0.1724
  166SAPS  H17Y18810   3.982   2.629   4.400 -1.2517 -0.0946  0.6560
  166SAPS  C31818811   4.004   2.630   4.179  0.1861  0.2389  0.2902
  166SAPS  H18X18812   4.016   2.559   4.095 -2.1315  0.0527  0.0488
  166SAPS  H18Y18813   4.088   2.703   4.183 -0.1553  0.6006  1.0475
  166SAPS  H18Z18814   3.915   2.693   4.158  0.8572  1.0197 -0.2931
  167SAPS     N18815   4.890   4.190   6.750  0.2477  0.3541  0.1620
  167SAPS   HN118816   4.931   4.285   6.761  0.2487  0.2264  1.3132
  167SAPS   HN218817   4.939   4.110   6.794  1.2413  0.6535 -0.3680
  167SAPS   HN318818   4.889   4.174   6.647  0.4525  3.3994 -0.4064
  167SAPS   C1218819   4.755   4.210   6.816  0.2704 -0.1603 -0.1153
  167SAPS  H12A18820   4.773   4.252   6.914  2.2406  0.6193 -0.7603
  167SAPS   C1318821   4.665   4.312   6.729 -0.4122  0.2472 -0.2967
  167SAPS  O13A18822   4.709   4.346   6.621  0.4340 -0.5923 -0.0082
  167SAPS  O13B18823   4.556   4.354   6.771  0.2106  0.0934 -0.6217
  167SAPS   C1118824   4.691   4.078   6.842 -0.0453 -0.0255 -0.4277
  167SAPS  H11A18825   4.591   4.103   6.886 -0.0860 -1.7416  0.5598
  167SAPS  H11B18826   4.752   4.011   6.906 -1.9367 -1.8496 -0.4230
  167SAPS     P18827   4.577   3.885   6.706  0.3747 -0.0670  0.2204
  167SAPS   O1318828   4.526   3.835   6.835 -0.0310 -0.6337  0.7361
  167SAPS   O1418829   4.481   3.928   6.599  0.9065  0.0812 -0.3318
  167SAPS   O1218830   4.669   4.007   6.726  0.2518  0.1182 -0.4905
  167SAPS   O1118831   4.667   3.782   6.645  0.7147  0.6108  0.1737
  167SAPS    C118832   4.798   3.796   6.594  0.4085 -0.8976  0.0779
  167SAPS    HA18833   4.876   3.826   6.667  1.3666  0.2862 -1.3877
  167SAPS    HB18834   4.840   3.699   6.562  2.3328  0.1994 -0.8695
  167SAPS    C218835   4.794   3.891   6.469  0.6558  0.7127 -0.6994
  167SAPS    HS18836   4.746   3.988   6.494  1.0823  0.7107  0.1950
  167SAPS   O2118837   4.714   3.826   6.372  0.3235 -0.7026  0.0441
  167SAPS   C2118838   4.667   3.904   6.284 -0.2094 -0.5662 -0.0932
  167SAPS   O2218839   4.679   4.026   6.280  0.4183 -0.1974  0.2780
  167SAPS   C2218840   4.612   3.827   6.165 -0.2727  0.6070  0.1117
  167SAPS   H2R18841   4.622   3.716   6.173 -0.4665  0.5204 -0.7459
  167SAPS   H2S18842   4.501   3.832   6.160 -0.3488 -1.2904 -1.5691
  167SAPS    C318843   4.949   3.913   6.423 -0.0305 -0.5924 -0.2838
  167SAPS    HX18844   4.975   3.811   6.386  1.1011 -0.3344 -0.2362
  167SAPS    HY18845   5.020   3.938   6.505 -0.3238  0.8478 -0.4448
  167SAPS   O3118846   4.964   4.013   6.315  0.2374 -0.0061 -0.3602
  167SAPS   C3118847   4.945   4.131   6.363  0.1981  0.3682  0.3463
  167SAPS   O3218848   4.929   4.161   6.479  0.2332  0.5391  0.5774
  167SAPS   C3218849   4.946   4.230   6.238  0.1407 -1.1807 -0.4656
  167SAPS   H2X18850   5.012   4.318   6.253 -2.5502  0.6311  1.6910
  167SAPS   H2Y18851   4.850   4.282   6.253  1.6044  0.9990  2.2011
  167SAPS   C2318852   4.679   3.879   6.042  0.6651  0.6389 -1.3227
  167SAPS   H3R18853   4.788   3.868   6.058  0.1417 -4.7767  0.3925
  167SAPS   H3S18854   4.652   3.986   6.029  1.7788  1.1332  0.2314
  167SAPS   C2418855   4.642   3.810   5.914 -0.6850 -0.1629  0.4534
  167SAPS   H4R18856   4.533   3.824   5.900 -0.6754  1.0136  1.3706
  167SAPS   H4S18857   4.672   3.704   5.906  0.8517  0.3559 -1.2588
  167SAPS   C2518858   4.711   3.883   5.807 -0.3902  0.0536 -0.4756
  167SAPS   H5R18859   4.807   3.933   5.828 -1.1911  1.7884 -0.8037
  167SAPS   C2618860   4.673   3.902   5.679 -0.0604  0.1144  0.5556
  167SAPS   H6R18861   4.738   3.952   5.606 -0.5185 -1.0249 -0.6750
  167SAPS   C2718862   4.550   3.839   5.609 -0.6176 -0.2697  0.2048
  167SAPS   H7R18863   4.470   3.914   5.593 -0.9424 -0.5800  0.3578
  167SAPS   H7S18864   4.500   3.757   5.665  2.1801 -1.3083  1.4089
  167SAPS   C2818865   4.587   3.780   5.477 -0.6906  0.1140 -0.7421
  167SAPS   H8R18866   4.644   3.686   5.492 -1.2388 -0.5877 -2.6447
  167SAPS   C2918867   4.570   3.825   5.352 -0.0209  0.6928 -0.2637
  167SAPS   H9R18868   4.598   3.752   5.274 -1.0326 -0.7072  0.6420
  167SAPS  C21018869   4.503   3.947   5.297 -1.0240  0.7111 -0.7140
  167SAPS  H10R18870   4.452   4.000   5.380  1.5295  1.2298  0.6276
  167SAPS  H10S18871   4.422   3.902   5.235 -0.5303 -0.1353 -0.7617
  167SAPS  C21118872   4.596   4.050   5.233 -0.3820 -0.5451 -0.5414
  167SAPS  H11R18873   4.643   4.103   5.317 -1.4208  0.0696 -0.3272
  167SAPS  C21218874   4.641   4.070   5.107  0.1555  1.1856  0.2712
  167SAPS  H12R18875   4.701   4.161   5.096 -2.1980  2.5807 -2.1581
  167SAPS  C21318876   4.610   4.011   4.972  0.4993  0.1700 -0.3678
  167SAPS  H13R18877   4.591   3.903   4.989  0.5174 -0.2042 -2.4787
  167SAPS  H13S18878   4.701   4.016   4.908  2.2380  1.9188  2.0757
  167SAPS  C21418879   4.486   4.064   4.902  0.0339  0.2754 -0.3013
  167SAPS  H14R18880   4.407   4.103   4.968 -1.2087  0.1346 -1.6558
  167SAPS  C21518881   4.462   4.060   4.774  0.3419  0.9108 -0.3693
  167SAPS  H15R18882   4.378   4.117   4.732  1.7552  0.4135 -4.3065
  167SAPS  C21618883   4.543   3.997   4.665 -1.0325  0.5479  0.5339
  167SAPS  H16R18884   4.646   3.981   4.703 -1.8239 -0.1405  2.5923
  167SAPS  H16S18885   4.549   4.054   4.571  0.7392 -0.5188 -0.0422
  167SAPS  C21718886   4.492   3.862   4.631 -0.5517 -0.3165  0.4190
  167SAPS  H17R18887   4.390   3.866   4.586  0.7790 -2.4520 -3.2875
  167SAPS  H17S18888   4.497   3.789   4.715  1.1964 -0.2452  0.4061
  167SAPS  C21818889   4.581   3.782   4.533 -0.4007 -1.1438 -0.3308
  167SAPS  H18R18890   4.683   3.778   4.577  0.0646 -0.1492 -1.2540
  167SAPS  H18S18891   4.580   3.837   4.436  0.9275  0.5840  0.5744
  167SAPS  C21918892   4.521   3.653   4.490  0.1565  0.2152  0.3143
  167SAPS  H19R18893   4.429   3.682   4.435 -0.0790 -2.9897 -1.2370
  167SAPS  H19S18894   4.489   3.588   4.574 -0.4247  0.0719 -0.0138
  167SAPS  C22018895   4.620   3.581   4.401 -0.4514  0.1403  0.3838
  167SAPS  H20R18896   4.641   3.641   4.310  2.7412 -1.4292 -0.0522
  167SAPS  H20S18897   4.577   3.482   4.371  0.5524 -0.8640  2.0961
  167SAPS  H20T18898   4.711   3.564   4.463 -1.4685 -1.3395  1.5406
  167SAPS   C3318899   4.961   4.171   6.093  0.4085  0.0427 -0.1467
  167SAPS   H3X18900   4.889   4.087   6.081 -0.1193  0.4286  0.2527
  167SAPS   H3Y18901   5.064   4.130   6.090  0.6968  0.7883 -2.6973
  167SAPS   C3418902   4.943   4.285   5.996 -0.0361  0.1735 -0.4103
  167SAPS   H4X18903   5.023   4.360   6.011  2.2795 -2.4169  1.1763
  167SAPS   H4Y18904   4.843   4.326   6.021  0.5524  0.0776  2.3153
  167SAPS   C3518905   4.931   4.231   5.851  0.3185  0.5536 -0.3280
  167SAPS   H5X18906   4.851   4.156   5.832  1.0390  0.2799 -2.6124
  167SAPS   H5Y18907   5.020   4.169   5.824 -0.7116 -1.4786  0.6929
  167SAPS   C3618908   4.915   4.357   5.760 -0.3791 -0.0692  0.1207
  167SAPS   H6X18909   4.985   4.438   5.789 -0.1080 -0.9998  2.2100
  167SAPS   H6Y18910   4.810   4.392   5.770 -0.1332  1.4211 -1.7724
  167SAPS   C3718911   4.931   4.312   5.611  0.5640  0.2490  0.0543
  167SAPS   H7X18912   4.862   4.225   5.603  0.0181  0.3744  2.6441
  167SAPS   H7Y18913   5.035   4.287   5.583  0.4307 -0.6651  0.3436
  167SAPS   C3818914   4.888   4.421   5.515 -0.2531 -0.1600 -0.8766
  167SAPS   H8X18915   4.949   4.511   5.537  1.9886 -2.0100  1.1103
  167SAPS   H8Y18916   4.782   4.443   5.537 -0.2067 -1.7102  1.2326
  167SAPS   C3918917   4.889   4.383   5.370  0.3448 -0.8237 -0.6691
  167SAPS   H9X18918   4.820   4.297   5.358 -0.9411  0.1627 -0.5157
  167SAPS   H9Y18919   4.995   4.355   5.348  0.9148  0.5922  0.1403
  167SAPS  C31018920   4.849   4.506   5.284 -1.0354  0.2883  1.0436
  167SAPS  H10X18921   4.926   4.579   5.318 -0.6805  0.1485  0.5492
  167SAPS  H10Y18922   4.753   4.534   5.334 -0.1560  0.9833  2.4041
  167SAPS  C31118923   4.845   4.484   5.135  0.3027  0.3280  0.1406
  167SAPS  H11X18924   4.780   4.399   5.109  0.6269  0.3820 -0.8821
  167SAPS  H11Y18925   4.950   4.473   5.099  0.1519 -0.3525 -0.0995
  167SAPS  C31218926   4.784   4.614   5.071 -0.3219 -0.1987 -0.0847
  167SAPS  H12X18927   4.854   4.701   5.070 -0.0462 -0.3186 -3.7512
  167SAPS  H12Y18928   4.689   4.645   5.118  0.5438  0.5518  1.2349
  167SAPS  C31318929   4.745   4.596   4.924 -0.6320  0.2213 -0.3481
  167SAPS  H13X18930   4.691   4.499   4.912 -0.8108  0.3866 -0.9067
  167SAPS  H13Y18931   4.836   4.587   4.862  0.1702  0.4520  0.7755
  167SAPS  C31418932   4.656   4.705   4.872  0.8322  0.3672 -0.5155
  167SAPS  H14X18933   4.704   4.806   4.878 -0.4447  0.9558  0.2247
  167SAPS  H14Y18934   4.559   4.701   4.927  0.0391  1.2890 -1.7907
  167SAPS  C31518935   4.620   4.682   4.723 -0.4869 -0.4998  0.3650
  167SAPS  H15X18936   4.558   4.593   4.704  1.3057 -1.7124 -0.0882
  167SAPS  H15Y18937   4.718   4.655   4.679 -0.5012  1.4349 -1.0069
  167SAPS  C31618938   4.571   4.812   4.653  0.5474  0.1222  0.3563
  167SAPS  H16X18939   4.640   4.896   4.676  1.2344 -0.6977  1.4112
  167SAPS  H16Y18940   4.470   4.840   4.690  1.3370  3.6432  0.2302
  167SAPS  C31718941   4.559   4.796   4.503  0.0183 -0.0423 -0.0493
  167SAPS  H17X18942   4.514   4.700   4.471 -0.0821  1.0252 -3.5497
  167SAPS  H17Y18943   4.663   4.808   4.465  0.7974 -0.9418  1.6621
  167SAPS  C31818944   4.473   4.908   4.431  0.2801  0.4050 -0.0770
  167SAPS  H18X18945   4.443   4.865   4.333  0.2588 -0.6366  0.3656
  167SAPS  H18Y18946   4.524   5.006   4.427  0.4300  0.2977 -0.8475
  167SAPS  H18Z18947   4.376   4.918   4.485  1.0413 -0.7103  1.5926
  168SAPS     N18948   4.745   1.454   6.807  0.0800  0.2773  0.3233
  168SAPS   HN118949   4.847   1.467   6.788  0.1149  1.5564  1.2897
  168SAPS   HN218950   4.724   1.485   6.904 -0.5885 -0.8903  0.5763
  168SAPS   HN318951   4.737   1.350   6.803  0.7068  0.0731  2.6864
  168SAPS   C1218952   4.661   1.517   6.703 -0.5359 -0.1653 -0.9605
  168SAPS  H12A18953   4.695   1.479   6.607 -0.0010  0.9666 -1.2322
  168SAPS   C1318954   4.510   1.483   6.724 -0.1972 -0.3588  0.6336
  168SAPS  O13A18955   4.462   1.409   6.815 -0.5934  0.0734  0.1951
  168SAPS  O13B18956   4.441   1.528   6.630 -0.4275 -0.2193  0.2487
  168SAPS   C1118957   4.702   1.667   6.682  0.2237 -0.5140  0.0898
  168SAPS  H11A18958   4.668   1.687   6.579 -1.3100 -3.9722 -0.2313
  168SAPS  H11B18959   4.812   1.680   6.680  0.4030 -1.0793  2.7312
  168SAPS     P18960   4.636   1.915   6.758  0.1889  0.3439  0.3724
  168SAPS   O1318961   4.496   1.951   6.710 -0.2418 -0.2077  0.0735
  168SAPS   O1418962   4.675   1.972   6.887 -0.1962 -0.3665  0.4902
  168SAPS   O1218963   4.646   1.760   6.782  0.7671 -0.0450  0.3503
  168SAPS   O1118964   4.750   1.937   6.649 -0.3232 -0.2133 -0.5340
  168SAPS    C118965   4.707   1.960   6.509  0.5949  0.2116 -0.1484
  168SAPS    HA18966   4.644   1.875   6.474  0.0698  0.0809  1.0721
  168SAPS    HB18967   4.651   2.056   6.510 -0.0340 -0.1430  0.8349
  168SAPS    C218968   4.829   1.996   6.418 -0.1693 -0.0683  0.2918
  168SAPS    HS18969   4.792   2.012   6.315 -0.7618 -0.2976  0.4662
  168SAPS   O2118970   4.937   1.896   6.419 -0.4754 -0.4004  0.2787
  168SAPS   C2118971   4.904   1.785   6.357  0.3775 -0.0379 -0.1816
  168SAPS   O2218972   4.795   1.770   6.305  0.0146  0.5457 -0.2169
  168SAPS   C2218973   5.031   1.709   6.333 -0.8857  0.9064  0.5913
  168SAPS   H2R18974   5.111   1.781   6.304  1.0672 -1.8966 -1.5484
  168SAPS   H2S18975   5.060   1.663   6.429 -1.8350  0.6111  0.7499
  168SAPS    C318976   4.881   2.139   6.447 -0.0667  0.0130  1.1449
  168SAPS    HX18977   4.904   2.142   6.556 -1.3003  0.9661  1.4048
  168SAPS    HY18978   4.794   2.208   6.451 -0.6685 -0.4074 -2.1930
  168SAPS   O3118979   4.984   2.176   6.349  0.2592  0.1052  0.5094
  168SAPS   C3118980   5.107   2.199   6.401 -0.3495 -0.2411  0.2440
  168SAPS   O3218981   5.127   2.189   6.521  0.9565  0.3162 -0.4315
  168SAPS   C3218982   5.207   2.238   6.287 -0.1300 -0.2377 -0.4463
  168SAPS   H2X18983   5.258   2.329   6.325 -1.1887  0.0825  0.2562
  168SAPS   H2Y18984   5.152   2.267   6.195 -0.7342  2.0837  0.5638
  168SAPS   C2318985   5.005   1.615   6.218 -0.7242  0.0206 -0.2934
  168SAPS   H3R18986   5.102   1.606   6.164  0.0357 -3.6990  1.4036
  168SAPS   H3S18987   4.931   1.663   6.150  0.7920 -1.5709 -3.2778
  168SAPS   C2418988   4.970   1.469   6.246  0.1316  0.0415  0.2531
  168SAPS   H4R18989   4.961   1.413   6.151  0.8095 -0.4974  0.4898
  168SAPS   H4S18990   4.877   1.458   6.306  0.1254 -1.4458 -0.0006
  168SAPS   C2518991   5.079   1.402   6.326  0.0034 -0.8418 -0.3914
  168SAPS   H5R18992   5.063   1.403   6.434  1.5776 -1.2403 -0.1359
  168SAPS   C2618993   5.194   1.357   6.278 -0.8702 -0.1155 -0.2286
  168SAPS   H6R18994   5.267   1.328   6.355 -2.3100 -0.9806  0.8744
  168SAPS   C2718995   5.246   1.346   6.133  0.1536  0.6014  0.0445
  168SAPS   H7R18996   5.353   1.317   6.132 -0.1580 -0.6512 -1.2327
  168SAPS   H7S18997   5.233   1.444   6.083 -1.2826 -0.9519 -2.8653
  168SAPS   C2818998   5.160   1.244   6.065 -0.0921  0.3169  0.1621
  168SAPS   H8R18999   5.146   1.153   6.126 -0.2954  0.6115  0.5567
  168SAPS   C2919000   5.118   1.248   5.932  0.7832 -0.6605 -0.2443
  168SAPS   H9R19001   5.046   1.175   5.890  0.5330 -0.1005 -0.7993
  168SAPS  C21019002   5.129   1.371   5.841  0.3344 -0.1198  0.3632
  168SAPS  H10R19003   5.159   1.341   5.738  1.3094  0.3233  0.5088
  168SAPS  H10S19004   5.211   1.438   5.875  0.3498  0.3316 -0.5212
  168SAPS  C21119005   5.000   1.447   5.814 -0.4606  0.4369  0.9640
  168SAPS  H11R19006   4.992   1.543   5.867  2.6209  0.3386  1.7862
  168SAPS  C21219007   4.908   1.422   5.711  0.1312 -0.1952  0.0269
  168SAPS  H12R19008   4.810   1.473   5.716  0.6676  0.9954 -1.0030
  168SAPS  C21319009   4.908   1.310   5.615  0.6390 -0.0513  0.0277
  168SAPS  H13R19010   5.012   1.279   5.590 -0.7409 -3.6542 -2.0063
  168SAPS  H13S19011   4.847   1.338   5.526 -1.0499  2.7187  1.8917
  168SAPS  C21419012   4.821   1.205   5.675 -0.0344  0.2390  0.4659
  168SAPS  H14R19013   4.775   1.237   5.770 -0.2333 -0.3414  0.5767
  168SAPS  C21519014   4.812   1.075   5.643 -0.6390  0.0490 -0.5051
  168SAPS  H15R19015   4.748   1.007   5.702 -0.7566  0.7927  0.2428
  168SAPS  C21619016   4.893   1.011   5.538  0.5380 -0.7498 -0.1463
  168SAPS  H16R19017   4.939   1.087   5.471 -1.2139  1.6009  1.1313
  168SAPS  H16S19018   4.824   0.949   5.478 -0.3636 -1.4084  1.4987
  168SAPS  C21719019   5.007   0.921   5.607  1.3350  0.4819  0.1869
  168SAPS  H17R19020   4.962   0.844   5.673  0.8195 -0.5018 -1.2777
  168SAPS  H17S19021   5.066   0.980   5.680 -0.8815 -1.6962  4.0610
  168SAPS  C21819022   5.100   0.850   5.511 -0.2796  0.7457 -0.2637
  168SAPS  H18R19023   5.134   0.924   5.436  1.0470  0.3919 -0.0319
  168SAPS  H18S19024   5.053   0.772   5.447  3.5587 -0.6521 -1.7013
  168SAPS  C21919025   5.233   0.804   5.584  0.7529  0.0240  0.1355
  168SAPS  H19R19026   5.222   0.698   5.617 -0.3330  0.4854  1.3380
  168SAPS  H19S19027   5.229   0.870   5.673 -1.2743  0.3357 -0.1245
  168SAPS  C22019028   5.361   0.823   5.505 -0.4968  0.1295  0.0494
  168SAPS  H20R19029   5.375   0.923   5.457 -1.9369 -0.6701 -2.1748
  168SAPS  H20S19030   5.366   0.753   5.419  0.3141  0.7498 -0.4242
  168SAPS  H20T19031   5.451   0.803   5.566 -0.7590 -1.6147 -0.0994
  168SAPS   C3319032   5.294   2.120   6.264 -0.6247  0.1139  0.4163
  168SAPS   H3X19033   5.242   2.022   6.260  0.4367 -0.4629  0.4073
  168SAPS   H3Y19034   5.367   2.111   6.347  0.0387 -3.7493 -0.4231
  168SAPS   C3419035   5.378   2.141   6.138 -0.6537 -0.0752  0.8990
  168SAPS   H4X19036   5.446   2.053   6.143 -1.3224 -0.7546 -1.0369
  168SAPS   H4Y19037   5.438   2.234   6.145 -1.1537  0.2446  0.9664
  168SAPS   C3519038   5.305   2.129   6.010  0.6744  0.3496 -0.5746
  168SAPS   H5X19039   5.209   2.184   6.000  1.3193  1.3016 -1.8838
  168SAPS   H5Y19040   5.267   2.025   5.998 -3.2708  1.3786  1.2636
  168SAPS   C3619041   5.389   2.165   5.886  0.0848 -0.2234  0.6299
  168SAPS   H6X19042   5.474   2.093   5.891  1.3268  1.1853  0.7282
  168SAPS   H6Y19043   5.426   2.269   5.897 -0.8561  0.2276 -0.3515
  168SAPS   C3719044   5.304   2.151   5.760  0.2247  0.4979  0.3579
  168SAPS   H7X19045   5.233   2.234   5.742 -0.3584  0.6663  3.0994
  168SAPS   H7Y19046   5.238   2.065   5.782 -1.1128  1.0619 -1.2467
  168SAPS   C3819047   5.388   2.132   5.630 -0.4289  0.1238  0.3955
  168SAPS   H8X19048   5.468   2.060   5.654  0.7974  1.3747  0.1838
  168SAPS   H8Y19049   5.437   2.230   5.611 -1.8888  0.8094 -0.0125
  168SAPS   C3919050   5.311   2.087   5.500  0.1316  0.3719 -0.6113
  168SAPS   H9X19051   5.243   2.171   5.475  1.5969  1.1558 -2.1467
  168SAPS   H9Y19052   5.260   1.992   5.529  3.1761 -1.0337  0.5773
  168SAPS  C31019053   5.411   2.053   5.386  0.0277  0.0060 -0.4812
  168SAPS  H10X19054   5.463   1.958   5.410 -0.2508  0.0727  0.4240
  168SAPS  H10Y19055   5.482   2.138   5.374 -0.2681  0.0678 -2.0810
  168SAPS  C31119056   5.340   2.049   5.246  0.5491  0.0332  0.1687
  168SAPS  H11X19057   5.417   2.068   5.168 -0.3710  2.6550 -0.1827
  168SAPS  H11Y19058   5.261   2.126   5.237 -3.2038 -3.4677  0.0577
  168SAPS  C31219059   5.266   1.916   5.231 -0.4190  0.1250 -0.2825
  168SAPS  H12X19060   5.204   1.897   5.321 -0.2446  1.0390  0.0412
  168SAPS  H12Y19061   5.324   1.821   5.237 -3.5773 -1.9435  0.1564
  168SAPS  C31319062   5.186   1.919   5.097  0.4004 -0.4733  0.2780
  168SAPS  H13X19063   5.124   2.011   5.097  2.0198  0.6805  1.8456
  168SAPS  H13Y19064   5.135   1.821   5.083 -1.9686  0.6833  0.3598
  168SAPS  C31419065   5.263   1.951   4.970  0.2413 -0.4591 -0.1614
  168SAPS  H14X19066   5.342   1.877   4.946 -0.3123 -0.4451 -2.2865
  168SAPS  H14Y19067   5.304   2.055   4.973  1.7346 -0.9659 -1.4980
  168SAPS  C31519068   5.172   1.944   4.837 -0.0216  0.4391  0.0284
  168SAPS  H15X19069   5.168   2.054   4.820 -1.0483  0.3249 -0.5224
  168SAPS  H15Y19070   5.072   1.914   4.874  0.5731 -0.3527  1.0442
  168SAPS  C31619071   5.230   1.859   4.725  0.1762 -0.6199 -0.3326
  168SAPS  H16X19072   5.233   1.755   4.766 -0.1376 -0.9492 -1.1099
  168SAPS  H16Y19073   5.337   1.888   4.717 -0.2025  0.8361 -0.3729
  168SAPS  C31719074   5.155   1.873   4.594 -0.3526  0.5661  0.1542
  168SAPS  H17X19075   5.051   1.844   4.621 -0.2435  0.3812  0.3842
  168SAPS  H17Y19076   5.184   1.799   4.516 -3.6176 -0.1401 -0.5340
  168SAPS  C31819077   5.166   2.014   4.533 -0.4202 -0.0644 -0.0458
  168SAPS  H18X19078   5.271   2.041   4.508  0.2094 -4.9880 -4.5112
  168SAPS  H18Y19079   5.137   2.086   4.613  0.0872  2.1026 -1.6965
  168SAPS  H18Z19080   5.107   2.029   4.440  0.9645  0.5343 -0.8529
  169SAPS     N19081   5.530   5.610   7.041 -0.0957  0.2378  0.1770
  169SAPS   HN119082   5.452   5.602   6.973  2.2117  2.2515 -2.9336
  169SAPS   HN219083   5.522   5.543   7.121 -0.9963  1.3770  1.0880
  169SAPS   HN319084   5.533   5.709   7.074 -0.8797  1.5350 -3.2466
  169SAPS   C1219085   5.649   5.557   6.957  0.4937 -0.0009  0.3302
  169SAPS  H12A19086   5.661   5.621   6.871  0.2473 -0.2122  0.1346
  169SAPS   C1319087   5.772   5.558   7.035  0.5217  0.0467 -0.5063
  169SAPS  O13A19088   5.778   5.581   7.159 -0.1819  0.5754 -0.4014
  169SAPS  O13B19089   5.880   5.522   6.977  0.0254 -0.1334 -0.1218
  169SAPS   C1119090   5.604   5.424   6.897  0.1239 -0.6019 -0.6381
  169SAPS  H11A19091   5.597   5.345   6.975  2.9105 -0.3685 -0.0815
  169SAPS  H11B19092   5.690   5.404   6.830  0.6110  0.5616 -0.3609
  169SAPS     P19093   5.428   5.285   6.760  0.1831 -0.1064 -0.4670
  169SAPS   O1319094   5.440   5.182   6.861 -0.0441  0.4705 -0.7341
  169SAPS   O1419095   5.291   5.317   6.714 -0.2527 -0.6084  0.5930
  169SAPS   O1219096   5.478   5.426   6.822 -0.6828 -0.4699  0.1263
  169SAPS   O1119097   5.527   5.255   6.641  0.1381 -0.2457 -0.1844
  169SAPS    C119098   5.544   5.347   6.533  0.4735 -0.0079 -0.7361
  169SAPS    HA19099   5.534   5.280   6.445 -0.7829  1.1935 -1.5459
  169SAPS    HB19100   5.469   5.428   6.529  1.5589  0.9715 -2.4430
  169SAPS    C219101   5.681   5.408   6.524  0.8079 -0.9435 -0.4722
  169SAPS    HS19102   5.685   5.487   6.602  0.0287 -2.0322  0.7106
  169SAPS   O2119103   5.707   5.453   6.391 -0.1961  0.3458  0.1127
  169SAPS   C2119104   5.809   5.542   6.374  0.3386 -0.3377  0.1147
  169SAPS   O2219105   5.872   5.593   6.459 -0.2842 -0.8560  0.1264
  169SAPS   C2219106   5.825   5.567   6.226  1.0601  0.8369 -0.4867
  169SAPS   H2R19107   5.868   5.480   6.173  1.9407  1.6894 -1.1998
  169SAPS   H2S19108   5.724   5.581   6.181  1.2653 -1.3825 -1.7479
  169SAPS    C319109   5.780   5.294   6.552 -0.8838  0.0817  0.5733
  169SAPS    HX19110   5.753   5.203   6.495  2.3530 -0.8631  0.3623
  169SAPS    HY19111   5.768   5.269   6.659 -0.0875  0.5695  0.7794
  169SAPS   O3119112   5.918   5.314   6.523 -0.4202 -0.4209 -0.1226
  169SAPS   C3119113   5.993   5.204   6.574  0.1297 -0.3053 -0.0508
  169SAPS   O3219114   5.943   5.116   6.640  0.2571  0.0557  0.1268
  169SAPS   C3219115   6.138   5.210   6.512 -0.3219  0.8378 -0.5774
  169SAPS   H2X19116   6.176   5.111   6.477  2.9980  2.2075 -1.3058
  169SAPS   H2Y19117   6.208   5.216   6.598  1.9082  0.7794 -2.2994
  169SAPS   C2319118   5.917   5.685   6.205 -0.2503  0.4297 -0.1230
  169SAPS   H3R19119   6.013   5.644   6.241 -1.1375 -0.7473  1.0066
  169SAPS   H3S19120   5.903   5.781   6.260 -2.8230  0.6072 -0.9135
  169SAPS   C2419121   5.916   5.721   6.055 -0.2561  0.2437  0.5365
  169SAPS   H4R19122   5.815   5.763   6.034  0.3163  0.5826 -1.7125
  169SAPS   H4S19123   5.915   5.631   5.990 -0.5910  0.2802  0.4897
  169SAPS   C2519124   6.031   5.803   6.007 -0.6501  0.4357  0.5620
  169SAPS   H5R19125   6.126   5.786   6.060 -0.7020 -1.6692  0.0575
  169SAPS   C2619126   6.033   5.885   5.900  0.2061 -0.4885 -0.7295
  169SAPS   H6R19127   6.122   5.943   5.872 -0.2633  0.2516 -0.7225
  169SAPS   C2719128   5.915   5.908   5.807  0.1247 -0.8349  0.0176
  169SAPS   H7R19129   5.911   6.007   5.756  1.0612 -0.8511 -0.0990
  169SAPS   H7S19130   5.833   5.901   5.882 -0.0650  0.6267 -0.0257
  169SAPS   C2819131   5.912   5.804   5.701  0.7328  0.3243 -0.1199
  169SAPS   H8R19132   5.983   5.721   5.713  0.5564  0.0778 -0.7381
  169SAPS   C2919133   5.852   5.809   5.578 -0.2623 -0.3085 -0.5164
  169SAPS   H9R19134   5.862   5.732   5.501  0.4897  1.7103 -2.5833
  169SAPS  C21019135   5.768   5.918   5.526  0.6314 -0.1039 -0.2425
  169SAPS  H10R19136   5.772   6.008   5.591 -2.6248  0.0028 -0.0086
  169SAPS  H10S19137   5.660   5.893   5.530  0.7835 -0.9334 -1.0378
  169SAPS  C21119138   5.802   5.958   5.389 -0.2764  0.3968  0.1817
  169SAPS  H11R19139   5.910   5.970   5.376 -0.2997  1.2406  0.6667
  169SAPS  C21219140   5.719   5.963   5.284  0.1065  0.3481 -0.2209
  169SAPS  H12R19141   5.760   5.987   5.184  0.7135 -1.8432 -0.5510
  169SAPS  C21319142   5.570   5.941   5.289  0.1271 -0.2632  0.0830
  169SAPS  H13R19143   5.532   5.959   5.392 -0.9262 -1.2566 -0.1175
  169SAPS  H13S19144   5.549   5.833   5.276  0.4329 -0.1090 -2.1088
  169SAPS  C21419145   5.483   6.016   5.182 -0.4337  0.5457 -0.1459
  169SAPS  H14R19146   5.447   6.111   5.224  1.1883  0.8959  0.5550
  169SAPS  C21519147   5.473   5.976   5.055  1.0222 -0.3310 -0.7463
  169SAPS  H15R19148   5.417   6.034   4.981 -0.5007 -0.3641  0.3409
  169SAPS  C21619149   5.517   5.841   5.011 -0.3866  0.2582 -0.5296
  169SAPS  H16R19150   5.427   5.788   4.976  0.3681 -1.1694 -0.3778
  169SAPS  H16S19151   5.562   5.775   5.089  0.5013 -1.2579 -2.2723
  169SAPS  C21719152   5.621   5.853   4.895  0.5569  0.0347 -0.0021
  169SAPS  H17R19153   5.659   5.754   4.860  2.4439  0.3875  0.9059
  169SAPS  H17S19154   5.709   5.913   4.927  1.3754 -1.3948  0.4962
  169SAPS  C21819155   5.560   5.914   4.769  0.0010  0.0476  0.1886
  169SAPS  H18R19156   5.509   6.009   4.797  2.9464  1.9816 -0.6202
  169SAPS  H18S19157   5.479   5.849   4.729 -1.4347  0.7332  1.8700
  169SAPS  C21919158   5.650   5.958   4.651 -0.4332  0.6202 -0.3040
  169SAPS  H19R19159   5.723   6.023   4.703 -2.8511  2.4215  1.0357
  169SAPS  H19S19160   5.590   6.031   4.592 -1.2216 -0.6731 -1.1643
  169SAPS  C22019161   5.704   5.838   4.567  0.3780  0.7379 -0.1464
  169SAPS  H20R19162   5.782   5.869   4.494 -0.9031 -0.8812 -2.3192
  169SAPS  H20S19163   5.615   5.796   4.517 -1.4762  3.7443  0.3858
  169SAPS  H20T19164   5.743   5.761   4.638  1.8816  1.5956  0.0049
  169SAPS   C3319165   6.175   5.309   6.401 -0.0607 -0.0356 -0.2477
  169SAPS   H3X19166   6.286   5.309   6.392 -0.1147 -1.2972 -1.2346
  169SAPS   H3Y19167   6.146   5.412   6.430  1.8951  0.9539 -1.5594
  169SAPS   C3419168   6.115   5.260   6.263  0.3729 -0.0801 -0.4147
  169SAPS   H4X19169   6.004   5.254   6.264  0.3794 -0.1222  0.1194
  169SAPS   H4Y19170   6.158   5.160   6.244 -1.3894 -0.8770 -0.3626
  169SAPS   C3519171   6.158   5.354   6.151 -0.5945  0.1944 -1.0585
  169SAPS   H5X19172   6.267   5.347   6.132 -0.3518  0.9114 -0.0187
  169SAPS   H5Y19173   6.140   5.457   6.189  0.5441  0.2303 -0.5848
  169SAPS   C3619174   6.082   5.330   6.022  0.5401 -0.0184 -0.6193
  169SAPS   H6X19175   5.974   5.347   6.040  0.7213 -0.0028  0.5350
  169SAPS   H6Y19176   6.102   5.225   5.992  0.7318 -1.1631  3.0073
  169SAPS   C3719177   6.137   5.408   5.907  0.1460 -0.6377 -0.3178
  169SAPS   H7X19178   6.238   5.372   5.879 -0.4826  0.0540 -3.8557
  169SAPS   H7Y19179   6.139   5.515   5.938  1.0192  0.3314 -3.3853
  169SAPS   C3819180   6.062   5.416   5.772 -0.4041 -0.0543  0.0040
  169SAPS   H8X19181   5.966   5.471   5.787  0.3952  1.1972  0.7544
  169SAPS   H8Y19182   6.034   5.313   5.741  0.2284  0.3201 -1.9177
  169SAPS   C3919183   6.142   5.470   5.653  0.4352 -0.2878  0.2773
  169SAPS   H9X19184   6.236   5.412   5.646  0.6653  0.0269  0.7565
  169SAPS   H9Y19185   6.171   5.577   5.666  1.5764 -0.6061  0.4575
  169SAPS  C31019186   6.051   5.461   5.526 -0.0789 -0.5247  0.1028
  169SAPS  H10X19187   5.954   5.510   5.550  0.5790  0.7961  0.1215
  169SAPS  H10Y19188   6.021   5.358   5.496 -1.4408  0.3265 -1.7002
  169SAPS  C31119189   6.112   5.528   5.406  0.5320  0.0844  0.4796
  169SAPS  H11X19190   6.211   5.487   5.378  0.7981  0.1974  1.2259
  169SAPS  H11Y19191   6.118   5.635   5.434 -0.3368  0.9401 -2.3063
  169SAPS  C31219192   6.011   5.528   5.288  0.5723 -0.0096  0.2723
  169SAPS  H12X19193   5.904   5.531   5.319  0.8154 -1.2312  1.2954
  169SAPS  H12Y19194   6.017   5.435   5.227  2.5251  1.5724 -2.1289
  169SAPS  C31319195   6.033   5.648   5.192  0.6370 -0.1805  0.4863
  169SAPS  H13X19196   6.139   5.683   5.198  0.0523  1.5286  1.8299
  169SAPS  H13Y19197   5.970   5.737   5.212  1.7361  0.0815  3.1652
  169SAPS  C31419198   5.995   5.604   5.055  0.1194 -0.3491 -0.5146
  169SAPS  H14X19199   5.887   5.581   5.065 -0.6745  3.5185  1.9976
  169SAPS  H14Y19200   6.060   5.518   5.028  0.5615  0.1156 -0.9466
  169SAPS  C31519201   6.017   5.713   4.938  0.1701 -0.4569 -0.4863
  169SAPS  H15X19202   6.124   5.740   4.952  0.3421 -0.1252 -2.2563
  169SAPS  H15Y19203   5.946   5.789   4.977  0.6468 -0.4361  0.3794
  169SAPS  C31619204   6.006   5.660   4.791  0.7651 -0.0629 -0.5508
  169SAPS  H16X19205   5.952   5.738   4.733 -0.9198 -1.5933 -1.1366
  169SAPS  H16Y19206   5.931   5.579   4.794 -0.8633  1.4170  0.0138
  169SAPS  C31719207   6.137   5.608   4.731  0.0276 -0.0227  0.1448
  169SAPS  H17X19208   6.157   5.501   4.754  4.5832  0.8562  1.3488
  169SAPS  H17Y19209   6.220   5.667   4.777  0.6007 -0.0906 -0.7619
  169SAPS  C31819210   6.143   5.638   4.581  0.5647  1.0217 -0.2971
  169SAPS  H18X19211   6.241   5.606   4.541  0.4434 -0.4515  0.5026
  169SAPS  H18Y19212   6.122   5.746   4.568 -0.0504  0.6997 -2.3933
  169SAPS  H18Z19213   6.055   5.588   4.534  2.0463 -0.5009 -1.5843
  170SAPS     N19214   6.854   4.622   6.789 -0.3627 -0.6380 -0.1491
  170SAPS   HN119215   6.759   4.605   6.750 -0.0857  0.1624 -1.2267
  170SAPS   HN219216   6.915   4.654   6.712 -1.9458  2.2884 -0.3172
  170SAPS   HN319217   6.882   4.529   6.826 -0.8208 -0.0262  1.8921
  170SAPS   C1219218   6.850   4.717   6.903 -0.3848 -0.3664  0.2868
  170SAPS  H12A19219   6.781   4.687   6.981  0.0124  2.4428  1.8348
  170SAPS   C1319220   6.983   4.728   6.976 -0.4801 -0.2217 -0.8659
  170SAPS  O13A19221   7.079   4.651   6.950 -0.5434  0.1990 -0.2009
  170SAPS  O13B19222   6.981   4.779   7.090  0.3363  0.2888  0.2244
  170SAPS   C1119223   6.800   4.857   6.848  0.2478  0.0277 -0.0165
  170SAPS  H11A19224   6.796   4.928   6.934 -1.5568  3.1307 -2.4306
  170SAPS  H11B19225   6.696   4.865   6.809  0.5747 -0.7559 -1.0838
  170SAPS     P19226   6.969   5.027   6.744 -0.2358 -0.0088  0.2611
  170SAPS   O1319227   6.918   5.131   6.839  0.0242 -0.1396 -0.4861
  170SAPS   O1419228   7.108   4.978   6.761 -0.5595 -0.1292 -0.5472
  170SAPS   O1219229   6.876   4.908   6.733 -0.5206  0.0856  0.3807
  170SAPS   O1119230   6.957   5.088   6.599  0.2393  0.2730 -0.2689
  170SAPS    C119231   7.020   5.015   6.495  0.0251 -0.0193 -0.3809
  170SAPS    HA19232   7.129   5.020   6.514  0.0217 -0.4015 -0.2587
  170SAPS    HB19233   6.983   4.910   6.490 -0.5330  0.1265  0.4842
  170SAPS    C219234   6.997   5.078   6.355 -1.0622  0.1349 -0.1951
  170SAPS    HS19235   7.083   5.041   6.295  0.9818 -0.7069  3.0034
  170SAPS   O2119236   6.993   5.219   6.365  0.2716 -0.6942  0.3923
  170SAPS   C2119237   7.106   5.294   6.378 -0.0181 -0.0722 -0.5089
  170SAPS   O2219238   7.217   5.253   6.398  0.4951  0.3368  0.0615
  170SAPS   C2219239   7.061   5.435   6.359  0.3808  0.0430  0.2530
  170SAPS   H2R19240   6.956   5.433   6.322  0.9661  0.8570 -1.5615
  170SAPS   H2S19241   7.054   5.500   6.449 -2.0646 -0.6475  0.6515
  170SAPS    C319242   6.865   5.034   6.290  0.2029 -0.1294 -0.6372
  170SAPS    HX19243   6.780   5.073   6.350  0.3365 -2.5100  1.2689
  170SAPS    HY19244   6.852   4.924   6.296 -3.9021  0.0724 -2.5958
  170SAPS   O3119245   6.856   5.072   6.152 -0.7002 -0.5175  0.4203
  170SAPS   C3119246   6.812   5.194   6.115  0.4819  0.6524 -0.0330
  170SAPS   O3219247   6.750   5.276   6.187  0.1616  0.1407  0.0581
  170SAPS   C3219248   6.836   5.195   5.964  0.3983 -0.4211  0.6436
  170SAPS   H2X19249   6.795   5.106   5.914 -1.5968  1.9498 -2.2895
  170SAPS   H2Y19250   6.945   5.181   5.944  0.2528 -3.2481  1.5340
  170SAPS   C2319251   7.158   5.502   6.256 -0.4565  0.0165  0.1500
  170SAPS   H3R19252   7.256   5.497   6.308 -1.3489 -1.7385  1.7543
  170SAPS   H3S19253   7.125   5.608   6.260 -0.5172  0.1084 -1.8475
  170SAPS   C2419254   7.144   5.450   6.115 -0.0613 -0.1053 -0.2416
  170SAPS   H4R19255   7.036   5.455   6.089  0.1760  1.1091 -1.0485
  170SAPS   H4S19256   7.157   5.339   6.115 -1.4599 -0.3844  2.6702
  170SAPS   C2519257   7.221   5.530   6.020  0.5252  0.3079  0.4770
  170SAPS   H5R19258   7.199   5.637   6.031  0.3948  0.3595 -0.2011
  170SAPS   C2619259   7.293   5.486   5.915  0.4100 -0.2168  0.4621
  170SAPS   H6R19260   7.359   5.552   5.857  0.9088 -0.5578  0.6263
  170SAPS   C2719261   7.321   5.342   5.870 -0.3354 -0.1958 -0.1412
  170SAPS   H7R19262   7.266   5.324   5.775  1.7464  0.5239 -1.5697
  170SAPS   H7S19263   7.283   5.264   5.940  1.2128 -0.7793  0.0905
  170SAPS   C2819264   7.467   5.304   5.851 -0.4768 -0.1617 -0.0119
  170SAPS   H8R19265   7.526   5.298   5.944 -3.0657  1.8850  1.9034
  170SAPS   C2919266   7.533   5.261   5.736 -1.0380 -0.2808 -0.5311
  170SAPS   H9R19267   7.642   5.245   5.734 -0.9759  0.0902 -0.1521
  170SAPS  C21019268   7.469   5.264   5.602  0.5195  0.8189  0.3437
  170SAPS  H10R19269   7.362   5.235   5.606  0.5280  0.5072 -1.1300
  170SAPS  H10S19270   7.514   5.180   5.544 -0.6826  1.8761 -2.3163
  170SAPS  C21119271   7.498   5.400   5.535  0.2158  0.3932 -0.1344
  170SAPS  H11R19272   7.597   5.447   5.537 -0.0102  0.9082  1.9900
  170SAPS  C21219273   7.406   5.481   5.475  0.2030  0.1817 -0.8594
  170SAPS  H12R19274   7.438   5.580   5.440 -1.1470  0.8518 -0.2863
  170SAPS  C21319275   7.257   5.453   5.466 -0.3558  0.3742  0.2004
  170SAPS  H13R19276   7.238   5.368   5.535  0.7786 -0.5560 -0.5805
  170SAPS  H13S19277   7.246   5.412   5.363  1.4155  1.5417 -0.5159
  170SAPS  C21419278   7.164   5.567   5.485 -0.3802  0.6126 -0.1008
  170SAPS  H14R19279   7.125   5.570   5.588  0.9450 -2.7962  0.6392
  170SAPS  C21519280   7.121   5.647   5.391 -0.1358 -0.4103  0.5321
  170SAPS  H15R19281   7.063   5.734   5.425 -0.8480 -0.2991 -0.9010
  170SAPS  C21619282   7.149   5.647   5.237 -0.7769 -0.0094 -0.2563
  170SAPS  H16R19283   7.232   5.578   5.211  0.2926  1.7313 -1.7716
  170SAPS  H16S19284   7.190   5.744   5.201 -0.3351  0.8457  2.3974
  170SAPS  C21719285   7.021   5.604   5.155 -0.3551  0.3158  0.2281
  170SAPS  H17R19286   6.944   5.667   5.206  0.0784 -1.4454  3.3213
  170SAPS  H17S19287   7.006   5.496   5.176 -0.2319  0.1200 -0.6570
  170SAPS  C21819288   7.028   5.621   5.004  0.4862  0.2612  0.0508
  170SAPS  H18R19289   6.946   5.568   4.951  0.9933  0.4674 -0.9568
  170SAPS  H18S19290   7.121   5.581   4.958  0.4681  1.6008 -1.2116
  170SAPS  C21919291   7.016   5.768   4.955  0.1479  0.4642 -0.3128
  170SAPS  H19R19292   7.104   5.819   5.000  0.4334 -0.3162  0.0354
  170SAPS  H19S19293   6.916   5.812   4.975 -1.2388 -2.2694 -0.7840
  170SAPS  C22019294   7.029   5.775   4.802  0.4696  0.1553 -0.1061
  170SAPS  H20R19295   6.940   5.725   4.758 -0.5187 -0.2529  2.1626
  170SAPS  H20S19296   7.117   5.722   4.761 -0.2012  1.5898 -3.7677
  170SAPS  H20T19297   7.030   5.878   4.761  2.7425  0.0971 -0.3404
  170SAPS   C3319298   6.781   5.324   5.901 -0.4369  0.0178 -0.0333
  170SAPS   H3X19299   6.847   5.411   5.922  0.5037  0.1075 -2.9322
  170SAPS   H3Y19300   6.676   5.340   5.934 -0.7729 -2.0393  0.0673
  170SAPS   C3419301   6.780   5.311   5.748  0.2073  0.2829  0.4128
  170SAPS   H4X19302   6.741   5.215   5.711  1.4180  0.8848 -2.7141
  170SAPS   H4Y19303   6.887   5.324   5.722  0.6047 -1.2387  1.1838
  170SAPS   C3519304   6.702   5.432   5.682 -0.5724 -0.0090  0.3213
  170SAPS   H5X19305   6.733   5.525   5.734 -2.8428  0.2830  1.2357
  170SAPS   H5Y19306   6.592   5.428   5.697 -0.5686 -1.0970  0.1408
  170SAPS   C3619307   6.740   5.441   5.536  0.4291  0.4280 -0.3139
  170SAPS   H6X19308   6.717   5.342   5.491 -1.4778  0.5292  0.3554
  170SAPS   H6Y19309   6.849   5.458   5.522  0.4079 -0.0652 -1.1357
  170SAPS   C3719310   6.638   5.532   5.463 -0.4356 -0.4145 -0.2253
  170SAPS   H7X19311   6.647   5.635   5.502 -1.4308 -0.7673  1.0082
  170SAPS   H7Y19312   6.534   5.498   5.484 -0.9828  0.7350 -0.9825
  170SAPS   C3819313   6.663   5.539   5.311 -0.5000  0.6995  0.2301
  170SAPS   H8X19314   6.646   5.433   5.284 -1.3666  0.7042  0.7202
  170SAPS   H8Y19315   6.771   5.554   5.288 -0.8502  0.9811 -1.3779
  170SAPS   C3919316   6.587   5.644   5.213 -0.2478 -0.0579 -0.3593
  170SAPS   H9X19317   6.618   5.748   5.238 -0.8226  0.0389 -0.0376
  170SAPS   H9Y19318   6.480   5.634   5.239  0.6475 -2.8469  2.8823
  170SAPS  C31019319   6.624   5.616   5.068  0.3111  0.1690 -1.0605
  170SAPS  H10X19320   6.619   5.506   5.052 -2.4132  0.0551  0.1379
  170SAPS  H10Y19321   6.730   5.651   5.063  0.4147 -0.1398 -1.0539
  170SAPS  C31119322   6.543   5.704   4.968  0.1424  0.0510 -0.4667
  170SAPS  H11X19323   6.565   5.810   4.995 -0.6055  0.0411  0.2323
  170SAPS  H11Y19324   6.434   5.687   4.977 -0.0229  1.6717  1.2953
  170SAPS  C31219325   6.578   5.670   4.826 -0.0789 -0.2945  0.3153
  170SAPS  H12X19326   6.562   5.561   4.808 -2.8339 -0.0953  1.0685
  170SAPS  H12Y19327   6.685   5.688   4.803  0.5139 -3.1164  0.5164
  170SAPS  C31319328   6.503   5.754   4.722  0.1631  0.2057 -0.3248
  170SAPS  H13X19329   6.531   5.860   4.737 -2.1552  0.7560  0.6215
  170SAPS  H13Y19330   6.394   5.735   4.729 -0.1278  1.6614 -0.6012
  170SAPS  C31419331   6.538   5.722   4.579 -0.3558  0.5743 -0.0612
  170SAPS  H14X19332   6.513   5.615   4.565 -2.4555  0.9827  0.2950
  170SAPS  H14Y19333   6.647   5.744   4.568 -0.0660 -1.3975 -1.8212
  170SAPS  C31519334   6.468   5.824   4.477  0.0881 -0.5197 -0.2046
  170SAPS  H15X19335   6.452   5.916   4.537 -2.0315 -0.5390 -0.6564
  170SAPS  H15Y19336   6.379   5.769   4.439 -1.0133  0.5847  0.7043
  170SAPS  C31619337   6.552   5.858   4.352 -0.1569  0.7086  0.1881
  170SAPS  H16X19338   6.650   5.907   4.370 -0.0640  0.3155  0.7744
  170SAPS  H16Y19339   6.488   5.914   4.280  2.7603  1.6659 -1.8597
  170SAPS  C31719340   6.606   5.727   4.279  0.8601 -0.4522 -0.2025
  170SAPS  H17X19341   6.522   5.662   4.248 -0.2921 -0.7066  3.0868
  170SAPS  H17Y19342   6.650   5.657   4.353  0.6224 -1.6262 -1.1365
  170SAPS  C31819343   6.699   5.742   4.157  0.1003  0.1413 -0.1189
  170SAPS  H18X19344   6.805   5.740   4.191  0.4733 -0.0252 -1.2458
  170SAPS  H18Y19345   6.677   5.832   4.095 -0.0367  0.2695  0.1150
  170SAPS  H18Z19346   6.680   5.651   4.097  0.1343 -0.2958  0.5311
  171SAPS     N19347   1.344   3.113   7.122 -0.2766 -0.1891 -0.0289
  171SAPS   HN119348   1.437   3.094   7.164 -0.0318  1.4287  0.2231
  171SAPS   HN219349   1.287   3.156   7.198 -0.8905  0.9289 -1.0851
  171SAPS   HN319350   1.301   3.033   7.073  2.4857  0.5431 -4.1381
  171SAPS   C1219351   1.369   3.207   7.013 -0.2004  0.5322  0.3342
  171SAPS  H12A19352   1.276   3.220   6.959  0.8956  1.1108 -1.5186
  171SAPS   C1319353   1.424   3.352   7.061  0.1722  0.1844 -0.4479
  171SAPS  O13A19354   1.442   3.371   7.180  0.0789  0.1608 -0.5282
  171SAPS  O13B19355   1.438   3.439   6.975 -0.0611 -0.1083  0.3478
  171SAPS   C1119356   1.480   3.147   6.920  0.6339  0.8039 -0.2010
  171SAPS  H11A19357   1.566   3.141   6.989 -1.4287  0.6316  2.5191
  171SAPS  H11B19358   1.486   3.215   6.832  0.3278  0.7616 -0.2574
  171SAPS     P19359   1.356   2.971   6.762 -0.0893 -0.0365 -0.3460
  171SAPS   O1319360   1.386   2.830   6.719  0.1675  0.0878 -0.0132
  171SAPS   O1419361   1.216   2.999   6.808 -0.1683 -0.0787  0.2149
  171SAPS   O1219362   1.449   3.009   6.881  0.2974 -0.1808  0.0920
  171SAPS   O1119363   1.403   3.078   6.658 -0.3903  0.4668  0.2824
  171SAPS    C119364   1.314   3.149   6.576  0.3841 -0.1882  0.2390
  171SAPS    HA19365   1.227   3.177   6.638  0.9376  3.0308 -0.2513
  171SAPS    HB19366   1.362   3.247   6.550  0.3721 -0.0745  0.6408
  171SAPS    C219367   1.286   3.088   6.434  0.8891 -0.0712  0.2475
  171SAPS    HS19368   1.205   3.149   6.387  1.7869 -0.0776 -1.4090
  171SAPS   O2119369   1.239   2.945   6.431  0.2850 -0.6638 -0.3466
  171SAPS   C2119370   1.118   2.923   6.489 -0.0881 -0.5406 -0.7876
  171SAPS   O2219371   1.059   3.005   6.557 -0.1484  0.4648  0.1422
  171SAPS   C2219372   1.073   2.781   6.475 -0.0443  0.1443 -0.2688
  171SAPS   H2R19373   1.130   2.740   6.389  0.8093  0.2955  0.2187
  171SAPS   H2S19374   1.107   2.739   6.572 -1.8663  4.1048  2.3348
  171SAPS    C319375   1.414   3.091   6.353 -0.6446 -0.7145  0.0312
  171SAPS    HX19376   1.487   3.029   6.409  1.1633  1.5247  0.3193
  171SAPS    HY19377   1.458   3.193   6.350  0.9375 -1.3893 -0.9086
  171SAPS   O3119378   1.389   3.049   6.216 -0.6793  0.0151 -0.0542
  171SAPS   C3119379   1.456   2.944   6.176  0.0235  0.0519 -0.9488
  171SAPS   O3219380   1.544   2.884   6.234 -0.2629  0.0953 -0.4970
  171SAPS   C3219381   1.409   2.911   6.039  0.0495 -0.3273  0.2049
  171SAPS   H2X19382   1.399   2.800   6.041  3.3884 -0.6999  1.1266
  171SAPS   H2Y19383   1.495   2.934   5.973  0.8715 -2.6879  0.3842
  171SAPS   C2319384   0.919   2.751   6.453  0.6980 -0.0071  0.0198
  171SAPS   H3R19385   0.856   2.800   6.529  0.9995 -1.7974  1.5059
  171SAPS   H3S19386   0.915   2.645   6.485 -0.4191 -0.7591 -2.3554
  171SAPS   C2419387   0.870   2.769   6.310 -0.5257  0.0790  0.0767
  171SAPS   H4R19388   0.773   2.717   6.297 -0.0866 -1.2780  1.9372
  171SAPS   H4S19389   0.941   2.708   6.250 -1.3484 -0.7041 -0.1103
  171SAPS   C2519390   0.858   2.910   6.253  0.4943  0.2968 -0.8204
  171SAPS   H5R19391   0.921   2.984   6.305  2.5274 -1.0350 -1.2765
  171SAPS   C2619392   0.789   2.951   6.145  0.1813  0.6152 -0.5149
  171SAPS   H6R19393   0.808   3.057   6.119  1.1200  0.4352 -0.5859
  171SAPS   C2719394   0.716   2.856   6.050  0.1005 -0.1619  0.1264
  171SAPS   H7R19395   0.667   2.772   6.103  1.0236 -1.2744 -0.7534
  171SAPS   H7S19396   0.790   2.826   5.972 -0.2392  1.7747 -1.0063
  171SAPS   C2819397   0.612   2.936   5.975  0.4224  0.1772  0.3662
  171SAPS   H8R19398   0.504   2.930   5.997 -0.7281  0.8889 -4.1012
  171SAPS   C2919399   0.637   3.006   5.858  0.3260 -0.2766  0.3463
  171SAPS   H9R19400   0.554   3.061   5.810 -0.4156 -1.7102 -0.0656
  171SAPS  C21019401   0.769   3.027   5.784  0.0734  0.8622  0.4036
  171SAPS  H10R19402   0.744   3.054   5.680 -1.1976 -4.9213 -1.1646
  171SAPS  H10S19403   0.810   2.925   5.767 -0.8140  0.9522 -3.0490
  171SAPS  C21119404   0.876   3.117   5.842 -0.3223  1.5977  0.6711
  171SAPS  H11R19405   0.871   3.122   5.952 -0.6276 -1.0606  0.8313
  171SAPS  C21219406   0.962   3.200   5.777  0.2896 -0.2531 -0.4427
  171SAPS  H12R19407   1.029   3.260   5.841 -1.2766  0.4380  0.6065
  171SAPS  C21319408   0.967   3.230   5.633 -0.2208  0.2486  0.5985
  171SAPS  H13R19409   0.967   3.340   5.621  1.6437  0.0980 -1.3684
  171SAPS  H13S19410   0.871   3.197   5.587  0.5191 -0.0077 -0.8038
  171SAPS  C21419411   1.084   3.179   5.542  0.2144  0.4434  0.0940
  171SAPS  H14R19412   1.156   3.112   5.590  1.0000  0.1590 -1.4173
  171SAPS  C21519413   1.097   3.202   5.412 -0.0047 -0.4255 -0.0274
  171SAPS  H15R19414   1.180   3.145   5.369 -0.3116 -0.7691 -0.1621
  171SAPS  C21619415   0.999   3.276   5.332  0.0482 -0.8868  0.0030
  171SAPS  H16R19416   1.041   3.376   5.307  0.8168 -0.7455  1.6852
  171SAPS  H16S19417   0.903   3.303   5.380  0.7681  1.4120  0.2934
  171SAPS  C21719418   0.971   3.196   5.206 -0.6757 -1.1329 -0.1192
  171SAPS  H17R19419   0.887   3.242   5.150 -1.8711 -1.8105  1.0847
  171SAPS  H17S19420   0.932   3.095   5.231 -2.2834 -0.7299 -0.8828
  171SAPS  C21819421   1.090   3.169   5.109 -0.2045 -0.5158 -0.3125
  171SAPS  H18R19422   1.061   3.076   5.058 -1.3811  0.3870 -1.3437
  171SAPS  H18S19423   1.188   3.151   5.159  0.2120  0.2174 -0.8554
  171SAPS  C21919424   1.111   3.275   4.996 -0.6026  0.4809 -0.7656
  171SAPS  H19R19425   1.147   3.372   5.037  2.9151  0.0319 -2.4549
  171SAPS  H19S19426   1.011   3.275   4.948 -1.2234 -3.9789  0.1126
  171SAPS  C22019427   1.203   3.224   4.894  0.2552  0.3108 -0.1787
  171SAPS  H20R19428   1.185   3.118   4.867 -1.4759  0.6480 -0.4168
  171SAPS  H20S19429   1.307   3.227   4.934 -0.1554 -0.0922  0.9558
  171SAPS  H20T19430   1.208   3.287   4.803 -2.5094 -0.8547 -1.2130
  171SAPS   C3319431   1.276   2.974   5.991 -0.5336  0.0312  0.2560
  171SAPS   H3X19432   1.282   3.084   5.985 -0.5650 -0.0244 -3.6456
  171SAPS   H3Y19433   1.194   2.954   6.064  0.7934 -2.1911  1.2678
  171SAPS   C3419434   1.238   2.911   5.853  0.1889  0.2413  0.1196
  171SAPS   H4X19435   1.134   2.936   5.821 -0.3017 -0.6112  0.9984
  171SAPS   H4Y19436   1.232   2.801   5.861 -0.4104  0.1977 -0.8120
  171SAPS   C3519437   1.337   2.944   5.743 -0.4359 -0.2701 -0.2655
  171SAPS   H5X19438   1.438   2.911   5.773 -0.7138  0.6591  1.8790
  171SAPS   H5Y19439   1.345   3.055   5.746  2.1068 -0.4231  1.7748
  171SAPS   C3619440   1.299   2.883   5.610 -0.2850  0.2771 -0.2421
  171SAPS   H6X19441   1.190   2.899   5.600 -0.7168 -1.2362  1.5366
  171SAPS   H6Y19442   1.329   2.776   5.604  2.2926  0.6896  2.4985
  171SAPS   C3719443   1.379   2.940   5.494  0.4874 -0.7477  0.0994
  171SAPS   H7X19444   1.484   2.908   5.504  0.3205 -1.7861 -1.2133
  171SAPS   H7Y19445   1.375   3.052   5.493 -0.0814 -0.7641 -0.9420
  171SAPS   C3819446   1.335   2.880   5.360 -0.0043  0.4006  0.5597
  171SAPS   H8X19447   1.226   2.895   5.339  0.1156 -0.4256 -0.7876
  171SAPS   H8Y19448   1.364   2.773   5.362  1.7790  0.7892 -1.5049
  171SAPS   C3919449   1.426   2.924   5.247 -0.6353 -0.4040 -0.0259
  171SAPS   H9X19450   1.534   2.899   5.256 -0.5903 -0.3291 -0.3364
  171SAPS   H9Y19451   1.427   3.035   5.254  0.6233 -0.4250  0.4054
  171SAPS  C31019452   1.389   2.876   5.106  0.3154  0.1090 -0.4037
  171SAPS  H10X19453   1.291   2.926   5.097 -0.0151 -0.3800  0.3398
  171SAPS  H10Y19454   1.379   2.765   5.105 -0.0963  0.0760  1.8458
  171SAPS  C31119455   1.472   2.937   4.993 -0.1220 -0.1960 -0.4815
  171SAPS  H11X19456   1.550   2.860   4.985  0.2647  0.2692 -1.3704
  171SAPS  H11Y19457   1.516   3.032   5.031  0.1676 -0.5175 -0.0108
  171SAPS  C31219458   1.402   2.948   4.858  0.0051  0.3195 -0.8832
  171SAPS  H12X19459   1.371   3.054   4.846 -3.4220 -0.5877 -0.9721
  171SAPS  H12Y19460   1.315   2.879   4.858 -1.4894  2.0879 -2.9040
  171SAPS  C31319461   1.505   2.921   4.747 -0.2064 -0.3334 -0.2171
  171SAPS  H13X19462   1.538   2.816   4.755  0.1722 -0.4554 -2.5793
  171SAPS  H13Y19463   1.597   2.983   4.747 -0.2563 -0.2201  1.5941
  171SAPS  C31419464   1.445   2.937   4.602  0.0769 -0.0918 -0.6550
  171SAPS  H14X19465   1.421   3.042   4.574  0.5207  0.5496  1.2343
  171SAPS  H14Y19466   1.357   2.871   4.604 -0.3853  0.4434  2.5170
  171SAPS  C31519467   1.554   2.898   4.503 -0.3185 -0.8690  0.5356
  171SAPS  H15X19468   1.580   2.792   4.524 -0.2330 -1.0546 -0.4619
  171SAPS  H15Y19469   1.651   2.949   4.524  1.4928 -3.4505 -0.9205
  171SAPS  C31619470   1.525   2.921   4.357  0.4894 -0.3890 -0.6689
  171SAPS  H16X19471   1.517   3.032   4.348  0.2980  0.1057  3.6062
  171SAPS  H16Y19472   1.424   2.885   4.331  0.1029  1.0458 -1.2920
  171SAPS  C31719473   1.620   2.856   4.261  0.2965 -0.1227  0.8160
  171SAPS  H17X19474   1.627   2.745   4.268 -0.9403 -0.3923 -1.2882
  171SAPS  H17Y19475   1.712   2.912   4.288  0.9994 -1.2426  0.8360
  171SAPS  C31819476   1.593   2.883   4.114 -0.1433  0.0344  0.1714
  171SAPS  H18X19477   1.487   2.863   4.085 -0.3222 -0.8302  1.3570
  171SAPS  H18Y19478   1.661   2.829   4.046 -0.4963  1.4971 -1.4096
  171SAPS  H18Z19479   1.602   2.991   4.088  2.8771 -0.3088 -0.5105
  172SAPS     N19480   0.316   4.927   6.997  0.1600  0.4485  0.0931
  172SAPS   HN119481   0.257   4.853   7.040 -1.5345  1.2374 -0.8117
  172SAPS   HN219482   0.293   4.946   6.897 -0.8445 -0.3252  0.1632
  172SAPS   HN319483   0.414   4.891   7.003 -0.3311 -0.7921  1.2168
  172SAPS   C1219484   0.308   5.052   7.080 -0.4768 -0.1373 -0.2469
  172SAPS  H12A19485   0.205   5.081   7.096 -0.1661  0.4779  0.7087
  172SAPS   C1319486   0.362   5.041   7.225  0.8831  0.8802  0.2196
  172SAPS  O13A19487   0.413   4.934   7.270  0.1118  0.4054 -0.1491
  172SAPS  O13B19488   0.373   5.144   7.294  0.2047  0.1369  0.5561
  172SAPS   C1119489   0.364   5.172   7.007 -0.2159 -0.5602 -0.7155
  172SAPS  H11A19490   0.347   5.262   7.069 -1.3903 -2.0612  1.2483
  172SAPS  H11B19491   0.311   5.183   6.909  0.1896  1.0747 -0.7779
  172SAPS     P19492   0.583   5.253   6.888  0.2569  0.1498 -0.1743
  172SAPS   O1319493   0.540   5.393   6.918 -0.2741  0.1625  0.2032
  172SAPS   O1419494   0.730   5.224   6.895  0.4719  0.3405  0.3715
  172SAPS   O1219495   0.501   5.151   6.981  0.0151  0.1490  0.5875
  172SAPS   O1119496   0.526   5.222   6.745 -0.0056 -0.0976  0.3536
  172SAPS    C119497   0.511   5.089   6.696 -0.1419 -0.2135  0.6747
  172SAPS    HA19498   0.461   5.021   6.769  1.6236 -1.9790  0.3439
  172SAPS    HB19499   0.427   5.095   6.624  1.2897  1.1963 -0.9792
  172SAPS    C219500   0.630   5.020   6.645  0.2799 -0.0731  0.6270
  172SAPS    HS19501   0.707   5.015   6.725  1.8005 -2.6682 -0.8548
  172SAPS   O2119502   0.675   5.087   6.527 -0.6088 -0.2424 -0.0116
  172SAPS   C2119503   0.804   5.059   6.499  0.7028 -1.0740  0.9435
  172SAPS   O2219504   0.878   4.989   6.567  0.4584  0.1973  0.0627
  172SAPS   C2219505   0.837   5.129   6.363 -0.1150  0.3676 -0.1977
  172SAPS   H2R19506   0.754   5.117   6.290  0.4365  1.9959 -1.1381
  172SAPS   H2S19507   0.849   5.233   6.399 -2.3755  0.3405  0.8177
  172SAPS    C319508   0.579   4.875   6.609 -0.7136 -0.5450 -0.5606
  172SAPS    HX19509   0.531   4.836   6.701 -1.5800 -2.6268 -1.8427
  172SAPS    HY19510   0.669   4.812   6.599  1.2842  1.8157  1.1441
  172SAPS   O3119511   0.480   4.879   6.506 -0.0487  0.4739  0.0595
  172SAPS   C3119512   0.519   4.848   6.384 -0.0394 -0.3332  0.5389
  172SAPS   O3219513   0.635   4.805   6.361  0.1335 -0.0152 -0.2511
  172SAPS   C3219514   0.412   4.873   6.281  0.1647  0.9094  0.4150
  172SAPS   H2X19515   0.392   4.982   6.278 -1.9095  0.5876  0.5661
  172SAPS   H2Y19516   0.318   4.825   6.316  0.7378 -2.0659 -1.7384
  172SAPS   C2319517   0.969   5.070   6.306  0.6984 -0.5043 -0.1692
  172SAPS   H3R19518   0.959   4.960   6.292 -1.0556 -0.2661 -1.1209
  172SAPS   H3S19519   1.039   5.085   6.390  0.5437  0.6910 -0.2314
  172SAPS   C2419520   1.027   5.143   6.187 -0.4926 -0.8530  0.9442
  172SAPS   H4R19521   0.945   5.174   6.119  1.3467 -0.2906 -1.1498
  172SAPS   H4S19522   1.095   5.087   6.119 -0.5128 -0.6956  0.7937
  172SAPS   C2519523   1.115   5.262   6.217 -0.0885  0.1679  0.0279
  172SAPS   H5R19524   1.213   5.240   6.262 -1.3758 -2.0531  2.0132
  172SAPS   C2619525   1.090   5.393   6.180 -0.4749 -0.5097 -0.0474
  172SAPS   H6R19526   1.169   5.469   6.191  1.2470 -2.0199 -1.4905
  172SAPS   C2719527   0.966   5.453   6.107 -0.3963 -0.0258 -0.2192
  172SAPS   H7R19528   0.884   5.415   6.172 -0.0432  0.0481  0.2779
  172SAPS   H7S19529   0.950   5.410   6.006 -0.6543 -0.1890 -0.1104
  172SAPS   C2819530   0.973   5.608   6.107  0.3591  0.4089 -0.5965
  172SAPS   H8R19531   1.012   5.654   6.199  1.5578 -1.5916 -0.0335
  172SAPS   C2919532   0.931   5.687   6.009 -0.4758 -0.0538  1.0270
  172SAPS   H9R19533   0.942   5.794   6.033  0.1281 -0.5474  3.2090
  172SAPS  C21019534   0.897   5.658   5.866 -0.7721  0.2942  0.2612
  172SAPS  H10R19535   0.951   5.566   5.834  0.6949  1.3714 -0.4777
  172SAPS  H10S19536   0.945   5.730   5.796 -1.1146 -0.8664 -1.2136
  172SAPS  C21119537   0.756   5.648   5.829  0.2163 -0.2041 -0.3714
  172SAPS  H11R19538   0.691   5.613   5.910 -1.2461 -0.3943 -1.5973
  172SAPS  C21219539   0.695   5.678   5.708  0.7198  0.2690  0.1776
  172SAPS  H12R19540   0.587   5.657   5.709  1.2477 -2.8776 -0.5658
  172SAPS  C21319541   0.756   5.721   5.579 -0.2360  0.7005 -0.1952
  172SAPS  H13R19542   0.724   5.649   5.501  2.7905 -0.3176 -0.6150
  172SAPS  H13S19543   0.862   5.693   5.594 -1.1461 -1.6536  2.7872
  172SAPS  C21419544   0.741   5.862   5.525  0.5138 -0.0485 -0.6886
  172SAPS  H14R19545   0.740   5.937   5.606 -1.9048 -2.5313  1.8268
  172SAPS  C21519546   0.748   5.897   5.395  0.2506  0.5789 -0.4239
  172SAPS  H15R19547   0.745   6.002   5.361 -1.1433  1.6151  2.5448
  172SAPS  C21619548   0.760   5.796   5.279  0.2971 -0.6602 -0.3548
  172SAPS  H16R19549   0.748   5.689   5.307  0.3675 -0.9040 -1.2480
  172SAPS  H16S19550   0.859   5.813   5.231  0.3397 -1.2579 -0.4848
  172SAPS  C21719551   0.652   5.823   5.171 -0.2863 -0.3197 -0.2261
  172SAPS  H17R19552   0.634   5.932   5.164 -0.9265 -0.4469 -0.6647
  172SAPS  H17S19553   0.556   5.772   5.196 -0.3508 -0.7543 -1.3175
  172SAPS  C21819554   0.711   5.789   5.034  0.8984  0.2244 -0.3502
  172SAPS  H18R19555   0.768   5.694   5.042  2.8940  1.4896  1.4914
  172SAPS  H18S19556   0.792   5.864   5.023  0.4087  1.5466  3.5487
  172SAPS  C21919557   0.603   5.802   4.929 -0.6914  0.1379  0.2833
  172SAPS  H19R19558   0.535   5.721   4.962 -0.9606  0.4369  0.4710
  172SAPS  H19S19559   0.634   5.755   4.834 -0.5561  0.4877  0.1524
  172SAPS  C22019560   0.543   5.947   4.892 -0.3737  0.2746  0.0067
  172SAPS  H20R19561   0.462   5.972   4.964 -0.5087  0.1744 -0.1099
  172SAPS  H20S19562   0.512   5.952   4.786 -0.6863  2.1726  0.1517
  172SAPS  H20T19563   0.627   6.019   4.903 -1.7389  2.1895 -1.4833
  172SAPS   C3319564   0.435   4.836   6.127 -0.2519  0.0053 -0.0167
  172SAPS   H3X19565   0.370   4.750   6.098 -2.0037  0.6802  1.6359
  172SAPS   H3Y19566   0.543   4.815   6.114  0.1569  0.9582  1.5360
  172SAPS   C3419567   0.396   4.958   6.030 -0.2400 -0.2627  0.9087
  172SAPS   H4X19568   0.465   5.043   6.049  0.9393 -1.0657  0.3413
  172SAPS   H4Y19569   0.293   4.990   6.054  0.3080  2.3490  0.1075
  172SAPS   C3519570   0.407   4.913   5.880 -0.7196  0.0673  0.2984
  172SAPS   H5X19571   0.399   4.803   5.869  1.1545 -0.1911  1.1127
  172SAPS   H5Y19572   0.510   4.949   5.857 -0.1781 -0.4451  1.8547
  172SAPS   C3619573   0.306   4.979   5.788 -0.5877 -0.5993 -0.0885
  172SAPS   H6X19574   0.289   5.087   5.811  2.3284 -0.1622  0.3384
  172SAPS   H6Y19575   0.205   4.934   5.799 -0.8149  0.1475  1.0930
  172SAPS   C3719576   0.336   4.973   5.636  0.6614  0.7630 -0.0937
  172SAPS   H7X19577   0.324   4.869   5.598  1.3390  0.7678 -0.3520
  172SAPS   H7Y19578   0.439   5.013   5.624  1.4610 -1.0184  0.4938
  172SAPS   C3819579   0.223   5.055   5.564  0.8978 -0.8606  0.6206
  172SAPS   H8X19580   0.205   5.151   5.617 -0.6259 -0.4964 -0.4692
  172SAPS   H8Y19581   0.131   4.994   5.577 -1.1031  1.8795  0.2423
  172SAPS   C3919582   0.255   5.095   5.418 -0.1627 -0.1989 -0.9617
  172SAPS   H9X19583   0.274   5.006   5.355 -0.3368 -1.0853  0.1958
  172SAPS   H9Y19584   0.348   5.155   5.407  0.0076 -0.4675 -0.9951
  172SAPS  C31019585   0.146   5.187   5.358  0.1571  0.3740  0.2610
  172SAPS  H10X19586   0.186   5.243   5.271  1.2322 -1.2247 -0.3136
  172SAPS  H10Y19587   0.095   5.256   5.428 -3.0649 -1.5493  0.0015
  172SAPS  C31119588   0.032   5.099   5.307  0.2097 -0.1409  0.5843
  172SAPS  H11X19589  -0.025   5.063   5.395  1.2524  1.8762  2.1546
  172SAPS  H11Y19590   0.074   5.014   5.250  0.7898 -0.2615  1.1934
  172SAPS  C31219591  -0.059   5.168   5.204 -0.8306  0.0940 -0.6175
  172SAPS  H12X19592  -0.072   5.271   5.244 -0.0999 -0.5258  1.3020
  172SAPS  H12Y19593  -0.157   5.117   5.190 -0.7759  0.0865 -0.9845
  172SAPS  C31319594   0.015   5.166   5.070  0.5052 -0.1192  0.1133
  172SAPS  H13X19595   0.029   5.065   5.024 -0.8367  0.8536 -2.7033
  172SAPS  H13Y19596   0.118   5.205   5.074  0.3853  0.4235 -1.4975
  172SAPS  C31419597  -0.064   5.244   4.960 -0.2177 -0.4113 -0.1832
  172SAPS  H14X19598  -0.093   5.346   4.993 -1.1378  0.2365 -2.7878
  172SAPS  H14Y19599  -0.153   5.179   4.951 -1.0471  0.6227  0.3753
  172SAPS  C31519600   0.007   5.244   4.832 -0.5164  0.2896 -0.1387
  172SAPS  H15X19601   0.044   5.141   4.814  2.6602  1.5338 -1.5184
  172SAPS  H15Y19602   0.100   5.305   4.834  0.1833 -0.7269 -0.8808
  172SAPS  C31619603  -0.072   5.285   4.712  0.1857 -0.4382 -0.2872
  172SAPS  H16X19604  -0.125   5.378   4.742 -1.0431 -1.1777 -0.0771
  172SAPS  H16Y19605   0.003   5.310   4.634 -0.0980  1.2181 -0.0609
  172SAPS  C31719606  -0.176   5.186   4.658 -0.3667 -0.4110  0.5599
  172SAPS  H17X19607  -0.269   5.191   4.719 -2.1628  2.1529 -2.1116
  172SAPS  H17Y19608  -0.142   5.080   4.659  0.8754 -0.1819 -2.9123
  172SAPS  C31819609  -0.227   5.225   4.519  0.8485 -0.0180  0.0406
  172SAPS  H18X19610  -0.283   5.143   4.471 -1.8178  1.7518 -0.0884
  172SAPS  H18Y19611  -0.142   5.253   4.454  1.0951  0.1990  0.4472
  172SAPS  H18Z19612  -0.304   5.306   4.516 -0.0435 -0.8679 -2.0197
  173SAPS     N19613   1.988   6.273   1.952 -0.3328  0.0818 -0.0164
  173SAPS   HN119614   1.970   6.368   1.991 -0.1485  0.6776 -1.3364
  173SAPS   HN219615   2.049   6.282   1.868  0.9116  1.2012  0.9637
  173SAPS   HN319616   1.904   6.218   1.925 -0.0310 -0.4938  0.1904
  173SAPS   C1219617   2.067   6.194   2.054 -0.6191 -0.2949  0.1219
  173SAPS  H12A19618   2.048   6.088   2.043 -2.6464  0.2365 -2.7143
  173SAPS   C1319619   2.221   6.213   2.044  0.0945 -0.3690 -0.0189
  173SAPS  O13A19620   2.265   6.282   1.948 -0.2205  1.2937  0.1738
  173SAPS  O13B19621   2.294   6.136   2.107 -0.0210  0.5824  0.3081
  173SAPS   C1119622   2.006   6.236   2.196  0.4958  0.2045 -0.1393
  173SAPS  H11A19623   2.008   6.347   2.188  0.3816  0.1542 -0.9736
  173SAPS  H11B19624   2.076   6.195   2.272  2.0207 -0.3138 -1.7360
  173SAPS     P19625   1.760   6.295   2.256 -0.0595 -0.1424 -0.1207
  173SAPS   O1319626   1.773   6.421   2.177 -0.4154  0.1770 -0.1195
  173SAPS   O1419627   1.628   6.231   2.266  0.0440 -0.6836  0.2908
  173SAPS   O1219628   1.873   6.192   2.215  0.0776  0.4003  0.0180
  173SAPS   O1119629   1.798   6.329   2.405  0.4050  0.2308 -0.2793
  173SAPS    C119630   1.810   6.229   2.510  0.8110 -0.1432  0.6961
  173SAPS    HA19631   1.712   6.180   2.527  0.3541  0.6777  0.4641
  173SAPS    HB19632   1.887   6.157   2.474 -0.2877  0.0968 -2.4215
  173SAPS    C219633   1.866   6.305   2.637 -0.1639  0.0779  0.6919
  173SAPS    HS19634   1.881   6.223   2.711 -0.7824 -0.5789  0.1101
  173SAPS   O2119635   1.771   6.405   2.679  0.9264 -0.2259 -0.1969
  173SAPS   C2119636   1.661   6.362   2.726  0.4372  0.2428 -0.6585
  173SAPS   O2219637   1.628   6.247   2.763 -0.5411 -0.3922  0.0346
  173SAPS   C2219638   1.570   6.476   2.739 -0.3874  0.8025 -0.4178
  173SAPS   H2R19639   1.614   6.577   2.723 -2.3335  1.0350 -8.0287
  173SAPS   H2S19640   1.498   6.469   2.655 -1.5828 -2.8006  0.7457
  173SAPS    C319641   2.005   6.366   2.609  0.3928 -0.0782  0.5359
  173SAPS    HX19642   1.985   6.457   2.548  1.2005  0.0475  0.4406
  173SAPS    HY19643   2.068   6.294   2.552 -0.7362 -0.9208  0.3110
  173SAPS   O3119644   2.065   6.408   2.722  0.0112  0.4702  0.2495
  173SAPS   C3119645   2.132   6.307   2.788  0.2551 -0.1648  0.2322
  173SAPS   O3219646   2.151   6.194   2.745 -0.4905  0.6229  0.0954
  173SAPS   C3219647   2.180   6.364   2.922  0.0586 -0.4636  0.0781
  173SAPS   H2X19648   2.154   6.472   2.930  3.0222  0.3446 -0.0662
  173SAPS   H2Y19649   2.291   6.358   2.932  0.4267  1.3464 -2.1044
  173SAPS   C2319650   1.486   6.479   2.865 -0.3637 -0.2808  0.0656
  173SAPS   H3R19651   1.556   6.468   2.951 -1.0694 -2.7621  0.3975
  173SAPS   H3S19652   1.418   6.391   2.868 -0.7764 -0.0973 -2.3110
  173SAPS   C2419653   1.405   6.605   2.892  0.1253  0.1597  0.8265
  173SAPS   H4R19654   1.473   6.692   2.878  0.3361 -0.0812  0.3320
  173SAPS   H4S19655   1.365   6.600   2.996 -2.8183 -2.0555 -0.2846
  173SAPS   C2519656   1.290   6.617   2.792  0.3983 -0.1975 -0.2859
  173SAPS   H5R19657   1.324   6.666   2.700 -2.3371  0.0411 -1.2529
  173SAPS   C2619658   1.165   6.578   2.810 -0.0476  0.3299 -0.0037
  173SAPS   H6R19659   1.091   6.593   2.729 -0.8441  1.5833  0.9333
  173SAPS   C2719660   1.106   6.501   2.924  0.4408 -0.4382 -0.9472
  173SAPS   H7R19661   1.132   6.557   3.016 -0.9067  1.0514 -1.4368
  173SAPS   H7S19662   1.153   6.402   2.947 -2.1548 -1.0747  2.3339
  173SAPS   C2819663   0.960   6.465   2.929  0.7845 -0.1814  0.5228
  173SAPS   H8R19664   0.937   6.361   2.900  1.9232 -0.2067 -0.3413
  173SAPS   C2919665   0.855   6.545   2.958 -0.0927 -0.0956 -0.5567
  173SAPS   H9R19666   0.760   6.503   2.993 -0.9372  0.7411 -1.7713
  173SAPS  C21019667   0.870   6.690   2.991 -0.1968  0.6918  0.1010
  173SAPS  H10R19668   0.971   6.721   2.956 -0.1573 -1.8744 -2.4323
  173SAPS  H10S19669   0.870   6.698   3.101 -1.2864 -1.3607  0.3030
  173SAPS  C21119670   0.770   6.774   2.922  0.1359  0.5679  0.6975
  173SAPS  H11R19671   0.777   6.799   2.816  0.1794  0.0477  0.5744
  173SAPS  C21219672   0.669   6.834   2.989  0.4000 -0.0236 -0.5716
  173SAPS  H12R19673   0.602   6.899   2.932  0.6534  0.5808 -0.1921
  173SAPS  C21319674   0.643   6.821   3.137  0.4443  0.7651 -0.3221
  173SAPS  H13R19675   0.660   6.714   3.162 -1.2851  0.6936  0.6813
  173SAPS  H13S19676   0.533   6.834   3.149  0.3710  0.6395 -0.8254
  173SAPS  C21419677   0.732   6.910   3.220 -0.3793 -0.2714 -0.2152
  173SAPS  H14R19678   0.838   6.878   3.226  0.4744  2.1921 -1.0820
  173SAPS  C21519679   0.690   7.029   3.265 -0.1822  0.3852  0.1789
  173SAPS  H15R19680   0.745   7.091   3.337 -1.2367  2.9334 -1.0935
  173SAPS  C21619681   0.556   7.096   3.246 -0.0868  0.1659 -0.1006
  173SAPS  H16R19682   0.492   7.042   3.172 -0.9847  1.7220 -0.5180
  173SAPS  H16S19683   0.571   7.204   3.226  0.7874 -0.4639 -3.5262
  173SAPS  C21719684   0.491   7.085   3.385 -0.5716  0.6150 -0.2591
  173SAPS  H17R19685   0.462   6.980   3.402 -0.2113  0.2770 -1.6572
  173SAPS  H17S19686   0.403   7.153   3.380  0.8387  2.4644 -3.0020
  173SAPS  C21819687   0.565   7.139   3.509 -0.3265 -0.1377  0.3028
  173SAPS  H18R19688   0.580   7.248   3.497 -2.2478  0.3492  1.8633
  173SAPS  H18S19689   0.666   7.093   3.520 -0.5845 -1.5765 -2.3277
  173SAPS  C21919690   0.489   7.119   3.637 -0.3372 -0.5760  0.7097
  173SAPS  H19R19691   0.443   7.020   3.657  0.1882 -0.7687  0.9986
  173SAPS  H19S19692   0.400   7.185   3.629  0.1972  0.0683 -0.1388
  173SAPS  C22019693   0.571   7.158   3.755 -0.8460 -0.1200 -0.7263
  173SAPS  H20R19694   0.620   7.257   3.738  1.3576 -0.5563  2.2062
  173SAPS  H20S19695   0.645   7.077   3.770 -0.2861  0.9120  3.5214
  173SAPS  H20T19696   0.499   7.162   3.839  0.0796  2.4788  0.0572
  173SAPS   C3319697   2.109   6.302   3.051  0.1273 -0.0342  0.1810
  173SAPS   H3X19698   2.130   6.193   3.044  0.0280  0.0151 -0.9924
  173SAPS   H3Y19699   2.001   6.328   3.048  0.4739  1.3594 -2.2009
  173SAPS   C3419700   2.172   6.364   3.181 -0.4430 -0.3273  0.1899
  173SAPS   H4X19701   2.139   6.470   3.176  0.0452 -0.2264 -1.8365
  173SAPS   H4Y19702   2.282   6.365   3.196 -0.4739  0.0570  0.3961
  173SAPS   C3519703   2.108   6.308   3.310  0.0348 -0.4044  0.0741
  173SAPS   H5X19704   2.150   6.206   3.325 -0.0826 -0.6907 -1.4310
  173SAPS   H5Y19705   2.000   6.293   3.288  0.0924  0.6980 -1.0406
  173SAPS   C3619706   2.131   6.409   3.429 -0.4945 -0.2886 -0.2065
  173SAPS   H6X19707   2.069   6.501   3.421 -1.5345 -0.8271  1.2408
  173SAPS   H6Y19708   2.235   6.446   3.425 -0.3728 -0.6693 -0.5891
  173SAPS   C3719709   2.099   6.340   3.557 -0.1728  0.5167 -0.3508
  173SAPS   H7X19710   2.193   6.284   3.575 -1.9114 -2.8678 -0.8623
  173SAPS   H7Y19711   2.023   6.259   3.552 -0.6504  0.9152  0.2023
  173SAPS   C3819712   2.067   6.430   3.678  0.0961  0.1317 -0.1011
  173SAPS   H8X19713   1.987   6.504   3.656  0.2893  0.3899  0.0638
  173SAPS   H8Y19714   2.163   6.473   3.712  0.8611 -1.4169 -0.2193
  173SAPS   C3919715   2.004   6.339   3.795  0.4116 -0.7623  0.6208
  173SAPS   H9X19716   2.075   6.255   3.810 -0.6898 -1.6339  1.1205
  173SAPS   H9Y19717   1.911   6.287   3.764  0.9641 -0.6351 -1.3352
  173SAPS  C31019718   1.976   6.414   3.925 -0.5384 -0.0050  0.6294
  173SAPS  H10X19719   1.872   6.452   3.929 -0.1609  0.9662  3.3236
  173SAPS  H10Y19720   2.043   6.502   3.928  0.9249 -1.1059  1.4179
  173SAPS  C31119721   1.999   6.322   4.045  0.2178  0.0473 -0.3924
  173SAPS  H11X19722   2.106   6.305   4.068  0.0126  0.8052  1.2656
  173SAPS  H11Y19723   1.950   6.226   4.018  0.7228 -0.7507  1.3856
  173SAPS  C31219724   1.925   6.388   4.162  0.4037 -0.0548  0.2452
  173SAPS  H12X19725   1.833   6.440   4.130  1.0163  1.3681  0.7224
  173SAPS  H12Y19726   1.991   6.463   4.210 -0.0412 -0.0169  0.8151
  173SAPS  C31319727   1.872   6.286   4.267  0.0394 -0.6871  0.6816
  173SAPS  H13X19728   1.960   6.229   4.305  2.6231  0.2951 -3.1882
  173SAPS  H13Y19729   1.812   6.213   4.208  0.6309  0.7642 -1.8334
  173SAPS  C31419730   1.776   6.348   4.371  0.3220 -0.1858  0.1299
  173SAPS  H14X19731   1.705   6.420   4.325  0.5949 -0.4558 -0.7458
  173SAPS  H14Y19732   1.837   6.406   4.444  0.9373  0.8118 -1.1266
  173SAPS  C31519733   1.690   6.239   4.442 -0.4111  0.2331 -0.3356
  173SAPS  H15X19734   1.630   6.293   4.518 -0.9409  0.7680 -1.1154
  173SAPS  H15Y19735   1.749   6.156   4.485  0.8932  0.8345 -0.8964
  173SAPS  C31619736   1.590   6.181   4.350  0.5829 -0.1203  0.3313
  173SAPS  H16X19737   1.627   6.095   4.290  0.7055 -0.4996  0.9469
  173SAPS  H16Y19738   1.558   6.263   4.283 -0.8759 -0.2075  0.8958
  173SAPS  C31719739   1.468   6.133   4.423 -0.1567  0.8870 -0.1972
  173SAPS  H17X19740   1.429   6.199   4.503 -3.2825 -3.1930  2.0469
  173SAPS  H17Y19741   1.505   6.049   4.485 -0.6220 -1.5706 -2.9848
  173SAPS  C31819742   1.363   6.063   4.334  0.6156 -0.3616  0.3444
  173SAPS  H18X19743   1.270   6.046   4.393  0.5749 -1.2575  0.0314
  173SAPS  H18Y19744   1.397   5.967   4.289 -2.2291 -0.0475 -2.8637
  173SAPS  H18Z19745   1.343   6.120   4.241  0.1042 -0.5001  0.3632
  174SAPS     N19746   5.746   4.912   2.250 -0.0788 -0.2302  0.1413
  174SAPS   HN119747   5.681   4.982   2.291 -2.5828 -0.1383 -3.5010
  174SAPS   HN219748   5.778   4.844   2.322  1.2421  0.9524  0.7168
  174SAPS   HN319749   5.829   4.959   2.208 -0.6392  0.3077 -0.3829
  174SAPS   C1219750   5.689   4.844   2.131 -0.0556  0.3692  0.2291
  174SAPS  H12A19751   5.591   4.816   2.167  0.0864  0.6818  0.8792
  174SAPS   C1319752   5.664   4.935   2.006 -0.4128 -0.4450  0.1985
  174SAPS  O13A19753   5.686   5.058   2.012  0.3949 -0.3562 -0.1841
  174SAPS  O13B19754   5.591   4.884   1.912 -0.0436  0.1137 -0.3902
  174SAPS   C1119755   5.775   4.719   2.089  1.1056  0.2212  0.3396
  174SAPS  H11A19756   5.862   4.754   2.030  0.6048  1.3265  0.2390
  174SAPS  H11B19757   5.714   4.654   2.024  0.2456  0.5870  0.7700
  174SAPS     P19758   5.894   4.520   2.199  0.1425  0.0323 -0.2602
  174SAPS   O1319759   5.807   4.406   2.235 -0.1056  0.0644  0.6142
  174SAPS   O1419760   5.961   4.510   2.067  0.0843  0.6376 -0.3916
  174SAPS   O1219761   5.811   4.647   2.206  0.0343  0.7855 -0.0672
  174SAPS   O1119762   6.000   4.539   2.317 -0.2717  0.5807 -0.2860
  174SAPS    C119763   6.083   4.655   2.318  0.0882  0.3244 -0.3291
  174SAPS    HA19764   6.162   4.637   2.242 -0.8752  1.7842 -1.7499
  174SAPS    HB19765   6.024   4.748   2.301  0.3613  0.9157  1.6418
  174SAPS    C219766   6.148   4.666   2.455  0.2396 -0.3977 -0.4051
  174SAPS    HS19767   6.214   4.577   2.458  0.2476 -0.4447 -1.4165
  174SAPS   O2119768   6.052   4.665   2.562  0.3619  0.6437  0.0572
  174SAPS   C2119769   6.021   4.550   2.612  0.3232 -0.1917 -0.3048
  174SAPS   O2219770   6.092   4.449   2.598  0.4683  0.4350 -0.1641
  174SAPS   C2219771   5.885   4.561   2.688 -0.4380 -1.0420 -0.4036
  174SAPS   H2R19772   5.878   4.663   2.731 -0.0782 -1.0523 -0.3206
  174SAPS   H2S19773   5.809   4.527   2.614  0.9138 -0.5622 -2.0907
  174SAPS    C319774   6.241   4.787   2.463  0.5719  0.2080 -0.5394
  174SAPS    HX19775   6.165   4.868   2.470  0.2904  0.0011 -1.1757
  174SAPS    HY19776   6.303   4.788   2.371  2.5037  2.9622  0.6337
  174SAPS   O3119777   6.310   4.783   2.587  0.1812 -0.6168  0.3424
  174SAPS   C3119778   6.414   4.701   2.599  0.4026  0.4888  0.2820
  174SAPS   O3219779   6.467   4.633   2.512 -0.2066 -0.2777  0.2404
  174SAPS   C3219780   6.456   4.700   2.745 -0.7975  0.9175 -0.5147
  174SAPS   H2X19781   6.453   4.800   2.792 -0.3065  0.1408  1.2624
  174SAPS   H2Y19782   6.559   4.659   2.757 -1.5596 -0.7960  0.6149
  174SAPS   C2319783   5.883   4.455   2.804  0.1909  0.1936 -0.3788
  174SAPS   H3R19784   5.921   4.361   2.760 -0.4912 -0.8997  1.2767
  174SAPS   H3S19785   5.778   4.442   2.838 -0.1106  2.1092 -0.4672
  174SAPS   C2419786   5.964   4.474   2.932 -0.1774 -0.1698  0.7044
  174SAPS   H4R19787   6.072   4.474   2.906  0.4024 -1.2857  2.8610
  174SAPS   H4S19788   5.953   4.386   2.999 -0.0871 -0.7149  0.0134
  174SAPS   C2519789   5.942   4.599   3.012  0.2759 -0.0223  0.8425
  174SAPS   H5R19790   5.992   4.688   2.972  0.1615 -1.3705 -2.6390
  174SAPS   C2619791   5.890   4.612   3.138  0.5386  0.3858 -0.0699
  174SAPS   H6R19792   5.906   4.705   3.194 -1.4643 -0.7233  2.5445
  174SAPS   C2719793   5.823   4.500   3.215 -0.0228 -0.6839  0.7124
  174SAPS   H7R19794   5.766   4.430   3.150 -1.2319 -2.2508  3.3067
  174SAPS   H7S19795   5.740   4.543   3.275  0.1764  0.1342  0.4124
  174SAPS   C2819796   5.912   4.417   3.306 -0.6901 -0.0683 -0.2797
  174SAPS   H8R19797   5.939   4.321   3.260  3.1938  1.2104 -1.0408
  174SAPS   C2919798   5.958   4.453   3.426 -0.2565  1.0249  0.2185
  174SAPS   H9R19799   6.015   4.377   3.482 -1.4400  0.7266  1.0587
  174SAPS  C21019800   5.934   4.586   3.492 -0.4866  0.2930 -0.0948
  174SAPS  H10R19801   5.824   4.595   3.507 -0.6447  0.0818 -1.0468
  174SAPS  H10S19802   5.960   4.670   3.425 -2.6551  2.4753  1.6166
  174SAPS  C21119803   6.006   4.619   3.622  0.2126  0.5923 -0.2393
  174SAPS  H11R19804   6.085   4.695   3.609  0.3506  0.3886 -0.5760
  174SAPS  C21219805   5.990   4.564   3.743 -1.0785  0.6757 -0.5537
  174SAPS  H12R19806   6.046   4.603   3.830 -2.3770  1.5805 -0.0999
  174SAPS  C21319807   5.885   4.464   3.778  0.2016  0.3303  0.3127
  174SAPS  H13R19808   5.826   4.446   3.685  2.8055 -0.3741 -1.2902
  174SAPS  H13S19809   5.808   4.512   3.843 -0.3708  1.5321 -1.1717
  174SAPS  C21419810   5.912   4.329   3.821 -0.0440  0.0817  0.3423
  174SAPS  H14R19811   5.935   4.258   3.740 -1.6468 -1.8272  1.4803
  174SAPS  C21519812   5.906   4.274   3.945 -0.2358  0.3529 -0.0126
  174SAPS  H15R19813   5.932   4.168   3.964  1.6748  0.5279 -1.2849
  174SAPS  C21619814   5.882   4.349   4.072 -0.0845  0.6412  0.5674
  174SAPS  H16R19815   5.785   4.327   4.122 -0.1184  0.3411  0.3691
  174SAPS  H16S19816   5.882   4.456   4.040 -0.7028  0.3914 -0.3122
  174SAPS  C21719817   5.993   4.318   4.163 -0.2920  0.1161 -0.2927
  174SAPS  H17R19818   6.091   4.346   4.119  1.4895 -1.9151  2.0825
  174SAPS  H17S19819   5.991   4.208   4.177 -0.2480  0.1274 -0.1947
  174SAPS  C21819820   5.991   4.385   4.303  0.4589  0.5376 -0.2928
  174SAPS  H18R19821   5.981   4.495   4.300 -2.8601  0.3072 -1.1500
  174SAPS  H18S19822   6.082   4.341   4.351  0.5054 -0.3668 -1.1718
  174SAPS  C21919823   5.868   4.341   4.388  0.1537 -0.6505  0.2501
  174SAPS  H19R19824   5.878   4.230   4.397  1.8438 -0.3862  2.7798
  174SAPS  H19S19825   5.771   4.364   4.340  1.6833  0.8487 -2.3548
  174SAPS  C22019826   5.874   4.402   4.523 -0.7663  0.1883 -0.0523
  174SAPS  H20R19827   5.779   4.400   4.581 -0.1060  0.4714  1.0739
  174SAPS  H20S19828   5.903   4.509   4.522 -0.0529  0.0102  0.6892
  174SAPS  H20T19829   5.953   4.348   4.579 -0.4272 -0.6910 -1.3360
  174SAPS   C3319830   6.356   4.612   2.829 -0.2531  0.8106  0.0686
  174SAPS   H3X19831   6.354   4.508   2.791  2.3402  0.2689  1.1981
  174SAPS   H3Y19832   6.256   4.656   2.807 -1.2616 -1.0464  0.6875
  174SAPS   C3419833   6.388   4.621   2.983 -0.1283 -0.1235  0.3650
  174SAPS   H4X19834   6.380   4.723   3.027 -1.2099  0.1769 -0.4732
  174SAPS   H4Y19835   6.495   4.595   2.996 -0.2011 -0.9499 -0.6349
  174SAPS   C3519836   6.317   4.519   3.070 -0.7695  0.0322 -0.7107
  174SAPS   H5X19837   6.346   4.418   3.035  0.0339  0.1479 -0.3986
  174SAPS   H5Y19838   6.206   4.529   3.070 -0.7055  1.5970  1.9083
  174SAPS   C3619839   6.375   4.542   3.209 -0.1601  0.6313 -0.5436
  174SAPS   H6X19840   6.343   4.641   3.249  0.5953 -0.4254  3.0379
  174SAPS   H6Y19841   6.484   4.519   3.215 -0.4289 -1.2805 -2.1864
  174SAPS   C3719842   6.321   4.449   3.317 -0.4849  0.2311 -0.1216
  174SAPS   H7X19843   6.351   4.344   3.296 -0.8085 -0.3792  2.1933
  174SAPS   H7Y19844   6.210   4.440   3.327 -0.3041 -1.6937  0.6094
  174SAPS   C3819845   6.382   4.485   3.449  0.0400  0.1253 -0.5531
  174SAPS   H8X19846   6.348   4.583   3.490 -2.3394  0.3426 -2.7851
  174SAPS   H8Y19847   6.493   4.486   3.444  0.3826 -0.8720  3.4854
  174SAPS   C3919848   6.364   4.387   3.567 -0.1402  0.6355 -0.3153
  174SAPS   H9X19849   6.419   4.292   3.546 -1.3323 -0.2715  0.5353
  174SAPS   H9Y19850   6.263   4.375   3.610  1.1772 -0.3984  2.7561
  174SAPS  C31019851   6.438   4.448   3.688  0.6817  0.0807 -0.0870
  174SAPS  H10X19852   6.431   4.558   3.677  2.7941  0.0813 -2.5589
  174SAPS  H10Y19853   6.549   4.436   3.690  0.9905  2.4722  1.3251
  174SAPS  C31119854   6.377   4.418   3.832 -0.5222  0.7837 -0.6029
  174SAPS  H11X19855   6.274   4.460   3.842 -0.8561 -0.1655  0.0560
  174SAPS  H11Y19856   6.437   4.459   3.916 -0.9802  2.2657 -0.9601
  174SAPS  C31219857   6.374   4.267   3.859  0.0974 -0.2722  0.3826
  174SAPS  H12X19858   6.481   4.237   3.858 -0.0301 -0.7214  0.1899
  174SAPS  H12Y19859   6.324   4.206   3.781 -1.3145  1.1607  0.1184
  174SAPS  C31319860   6.320   4.228   4.000 -0.4772  0.4081 -0.1410
  174SAPS  H13X19861   6.209   4.239   3.996 -0.4823  0.4565 -3.7501
  174SAPS  H13Y19862   6.360   4.293   4.080  0.6246  0.5357 -0.7712
  174SAPS  C31419863   6.359   4.083   4.033 -0.1145 -0.7456  1.0335
  174SAPS  H14X19864   6.463   4.065   3.999 -0.8400 -0.3001 -1.6753
  174SAPS  H14Y19865   6.289   4.024   3.970 -1.4522  1.7531  0.0387
  174SAPS  C31519866   6.351   4.042   4.181  0.8423  0.0468  0.4477
  174SAPS  H15X19867   6.315   3.937   4.176  0.7059  0.0625  0.9803
  174SAPS  H15Y19868   6.273   4.109   4.224 -0.1528 -0.6646 -0.2032
  174SAPS  C31619869   6.483   4.059   4.253  0.3773  0.0805  0.0494
  174SAPS  H16X19870   6.454   4.064   4.360 -0.8723  0.9992 -0.2997
  174SAPS  H16Y19871   6.529   4.156   4.222 -1.2986  1.1624  0.7647
  174SAPS  C31719872   6.567   3.936   4.222 -0.2719 -0.4760  0.7197
  174SAPS  H17X19873   6.664   3.959   4.271  0.5065 -0.7883 -0.6121
  174SAPS  H17Y19874   6.592   3.923   4.114 -1.3937  2.0624  0.0717
  174SAPS  C31819875   6.521   3.800   4.280 -0.6284  0.3172  0.6792
  174SAPS  H18X19876   6.498   3.816   4.388  0.2360 -1.1434  1.1233
  174SAPS  H18Y19877   6.599   3.721   4.276 -0.1801  0.7805  0.1788
  174SAPS  H18Z19878   6.436   3.763   4.219  0.9006 -0.2438 -1.2020
  175SAPS     N19879   3.639   3.153   1.978  0.2705 -0.1419 -0.6888
  175SAPS   HN119880   3.741   3.164   1.962  0.9474 -0.7678  2.5814
  175SAPS   HN219881   3.628   3.209   2.065 -0.2779  0.8966 -1.4129
  175SAPS   HN319882   3.618   3.053   1.996  0.5565  0.0504  0.8642
  175SAPS   C1219883   3.552   3.225   1.876  0.2836  0.1900 -0.0665
  175SAPS  H12A19884   3.595   3.323   1.862  2.2663 -0.7597 -1.0455
  175SAPS   C1319885   3.548   3.150   1.735  0.5032 -0.4780 -0.2259
  175SAPS  O13A19886   3.643   3.078   1.702  0.1057  0.0687 -0.2270
  175SAPS  O13B19887   3.463   3.201   1.652  0.1154 -0.4650  0.2662
  175SAPS   C1119888   3.405   3.242   1.931 -0.2767  0.1785 -0.3784
  175SAPS  H11A19889   3.347   3.297   1.854  0.8746 -0.0307 -1.4428
  175SAPS  H11B19890   3.409   3.300   2.026 -0.2497  0.6271 -0.6486
  175SAPS     P19891   3.185   3.106   1.974 -0.4475  0.0027 -0.0549
  175SAPS   O1319892   3.137   3.244   1.992 -0.5684  0.0561 -0.6639
  175SAPS   O1419893   3.131   3.030   1.861 -0.5865  0.5703  0.1811
  175SAPS   O1219894   3.349   3.117   1.968  0.0253  0.3199  0.5644
  175SAPS   O1119895   3.164   3.038   2.111 -0.5362 -0.1853  0.2749
  175SAPS    C119896   3.270   3.013   2.205  0.7438 -0.2054 -0.2071
  175SAPS    HA19897   3.237   2.920   2.257 -0.6395 -0.2236 -1.0613
  175SAPS    HB19898   3.372   2.992   2.166  1.7099 -0.1864  2.1203
  175SAPS    C219899   3.281   3.126   2.315  0.1385  0.6225  0.6023
  175SAPS    HS19900   3.334   3.211   2.267 -0.7395 -0.0038 -1.5639
  175SAPS   O2119901   3.338   3.071   2.431  0.1767 -0.0951  0.3880
  175SAPS   C2119902   3.467   3.073   2.429  0.5462  0.4380  0.0194
  175SAPS   O2219903   3.535   3.099   2.334 -0.3092 -0.6244  0.0006
  175SAPS   C2219904   3.517   3.033   2.565 -0.0665  0.0869  0.0552
  175SAPS   H2R19905   3.625   3.058   2.565  0.1645 -0.8227 -1.0531
  175SAPS   H2S19906   3.468   3.102   2.636  1.6293  3.1839 -1.5919
  175SAPS    C319907   3.150   3.202   2.354  0.1384 -0.1400 -0.1299
  175SAPS    HX19908   3.075   3.123   2.377  1.5566 -1.3716  0.4938
  175SAPS    HY19909   3.113   3.262   2.269  1.9273  0.7458 -0.3132
  175SAPS   O3119910   3.180   3.282   2.472  0.0089  0.1412  0.0840
  175SAPS   C3119911   3.152   3.226   2.592 -0.3259  0.1197  0.3653
  175SAPS   O3219912   3.083   3.129   2.608 -0.4365 -0.1212 -0.1551
  175SAPS   C3219913   3.196   3.316   2.705  0.3395 -0.3126 -0.3037
  175SAPS   H2X19914   3.190   3.419   2.665  0.0136  0.0072  0.5562
  175SAPS   H2Y19915   3.299   3.290   2.737 -0.0056 -2.6933 -0.9337
  175SAPS   C2319916   3.483   2.887   2.609 -0.3540 -0.4999  0.1617
  175SAPS   H3R19917   3.551   2.817   2.556 -1.3760 -0.6306 -1.0242
  175SAPS   H3S19918   3.378   2.852   2.599 -0.5883 -0.4922  2.1757
  175SAPS   C2419919   3.496   2.881   2.763 -0.0789  0.0834  0.8464
  175SAPS   H4R19920   3.585   2.932   2.805 -0.5868  1.5374  0.2040
  175SAPS   H4S19921   3.517   2.773   2.778 -1.2363  0.0983  2.8204
  175SAPS   C2519922   3.377   2.920   2.844  0.4103  0.4178  0.2894
  175SAPS   H5R19923   3.303   2.840   2.855  0.4180  0.3543 -0.1235
  175SAPS   C2619924   3.358   3.035   2.912 -0.0018 -0.0886  0.0015
  175SAPS   H6R19925   3.255   3.047   2.950 -0.3361  1.1399 -1.2227
  175SAPS   C2719926   3.451   3.152   2.932  0.2945  0.5782 -0.5516
  175SAPS   H7R19927   3.389   3.233   2.977 -0.5910 -0.1961 -0.3427
  175SAPS   H7S19928   3.494   3.170   2.831  1.9179 -2.6427 -0.5486
  175SAPS   C2819929   3.568   3.117   3.027 -0.4781  0.3479  0.6676
  175SAPS   H8R19930   3.590   3.014   3.058  0.0294  0.0129 -0.7212
  175SAPS   C2919931   3.651   3.208   3.082  0.5164  0.3911 -0.7256
  175SAPS   H9R19932   3.746   3.185   3.133  0.4356  1.9837  0.2085
  175SAPS  C21019933   3.641   3.362   3.073  0.1623  0.3119  0.6218
  175SAPS  H10R19934   3.564   3.396   3.146 -3.0238 -1.0503 -1.8344
  175SAPS  H10S19935   3.609   3.394   2.971 -1.3006  3.0694  1.8469
  175SAPS  C21119936   3.768   3.433   3.103  0.3042 -0.7833  0.1081
  175SAPS  H11R19937   3.823   3.480   3.020  0.7999 -0.7589  0.4498
  175SAPS  C21219938   3.807   3.463   3.228 -0.7300  1.1325 -0.5120
  175SAPS  H12R19939   3.894   3.526   3.250 -1.3593  1.6925  0.5144
  175SAPS  C21319940   3.740   3.419   3.358  0.6590  0.2835 -0.3227
  175SAPS  H13R19941   3.632   3.399   3.339  0.2427 -0.1274  2.1390
  175SAPS  H13S19942   3.730   3.505   3.426 -0.4812 -0.2479  0.2114
  175SAPS  C21419943   3.813   3.302   3.421 -0.0400 -0.2706 -0.3267
  175SAPS  H14R19944   3.845   3.224   3.350 -3.8101 -2.2288 -0.1429
  175SAPS  C21519945   3.851   3.288   3.549 -0.4391 -0.1573 -0.1424
  175SAPS  H15R19946   3.913   3.203   3.583  2.3484  1.1841 -1.5781
  175SAPS  C21619947   3.812   3.379   3.659  0.5576 -0.4178 -0.1212
  175SAPS  H16R19948   3.715   3.344   3.700  0.7281 -1.8244 -0.8830
  175SAPS  H16S19949   3.800   3.487   3.634  0.3917 -0.3331  0.3168
  175SAPS  C21719950   3.903   3.377   3.785 -0.6591 -0.5618  1.0315
  175SAPS  H17R19951   3.885   3.284   3.843  0.3384 -1.9472 -0.7879
  175SAPS  H17S19952   3.867   3.457   3.854 -0.3109  0.3313  0.2015
  175SAPS  C21819953   4.056   3.398   3.755 -0.0839  0.2412 -0.1247
  175SAPS  H18R19954   4.084   3.323   3.678  0.6783 -0.7384  1.0557
  175SAPS  H18S19955   4.112   3.388   3.851  0.8409  0.2730 -0.6483
  175SAPS  C21919956   4.089   3.545   3.715  0.3266  0.2460 -0.3379
  175SAPS  H19R19957   4.068   3.617   3.797  0.4225  1.9360 -1.7399
  175SAPS  H19S19958   4.010   3.559   3.638  1.2569  0.6643 -1.2339
  175SAPS  C22019959   4.232   3.567   3.674 -0.5434 -0.2459 -0.0949
  175SAPS  H20R19960   4.292   3.524   3.757 -0.7220  1.0011  0.7138
  175SAPS  H20S19961   4.257   3.675   3.660 -1.6863  0.0090 -0.2451
  175SAPS  H20T19962   4.253   3.516   3.577  0.1269  2.1766 -1.3210
  175SAPS   C3319963   3.104   3.302   2.829 -0.1569 -0.1027 -0.1435
  175SAPS   H3X19964   3.101   3.201   2.875 -0.9328  0.3352  0.8157
  175SAPS   H3Y19965   2.997   3.319   2.805 -0.0204 -0.0192 -0.6990
  175SAPS   C3419966   3.140   3.406   2.930 -0.0110 -0.3943  0.1362
  175SAPS   H4X19967   3.086   3.500   2.904  0.8157 -0.5340 -2.3418
  175SAPS   H4Y19968   3.248   3.432   2.936 -0.0179 -0.5850  1.2521
  175SAPS   C3519969   3.080   3.359   3.065 -0.0456  0.0983  0.3782
  175SAPS   H5X19970   3.137   3.267   3.092  1.8008  0.2001 -2.6060
  175SAPS   H5Y19971   2.971   3.348   3.051  0.0775  0.1264 -0.7168
  175SAPS   C3619972   3.100   3.457   3.180  0.0121 -0.1662 -1.0511
  175SAPS   H6X19973   3.055   3.555   3.153  0.1222  0.5694  1.2381
  175SAPS   H6Y19974   3.208   3.482   3.179  0.0314 -0.1587  0.0371
  175SAPS   C3719975   3.051   3.397   3.313  0.1864 -0.5099 -0.2022
  175SAPS   H7X19976   3.076   3.474   3.389 -2.0012  0.4844 -0.4319
  175SAPS   H7Y19977   3.113   3.306   3.330 -0.2410 -0.6160  0.8254
  175SAPS   C3819978   2.901   3.353   3.306 -0.5082 -0.0281  0.3238
  175SAPS   H8X19979   2.884   3.268   3.236  0.2264  0.2145 -0.1721
  175SAPS   H8Y19980   2.834   3.430   3.264 -0.8964 -1.2028 -1.3194
  175SAPS   C3919981   2.838   3.314   3.438 -0.0059 -0.1043 -0.5372
  175SAPS   H9X19982   2.727   3.314   3.434 -0.3655  4.6534  1.8701
  175SAPS   H9Y19983   2.859   3.393   3.514 -2.7842 -1.3601  1.7547
  175SAPS  C31019984   2.890   3.178   3.482 -0.5967  0.6622 -0.2369
  175SAPS  H10X19985   3.000   3.196   3.485 -0.1955 -1.5558  0.6494
  175SAPS  H10Y19986   2.854   3.110   3.402  1.2404 -1.3155  0.5147
  175SAPS  C31119987   2.836   3.137   3.622 -0.2865  0.7335  0.2585
  175SAPS  H11X19988   2.760   3.058   3.604  0.9123 -0.7198  1.3494
  175SAPS  H11Y19989   2.786   3.226   3.666 -1.0846  0.7706 -0.6863
  175SAPS  C31219990   2.940   3.075   3.705 -0.2017  0.2314 -0.1907
  175SAPS  H12X19991   3.040   3.098   3.662  0.3763  0.3304  1.1743
  175SAPS  H12Y19992   2.927   2.964   3.701 -1.0309  0.2153  1.8009
  175SAPS  C31319993   2.950   3.127   3.847 -0.1434  0.0159 -0.4402
  175SAPS  H13X19994   2.859   3.093   3.901  0.3114  1.7624  1.5921
  175SAPS  H13Y19995   2.967   3.237   3.852 -0.8816  0.0807  1.4208
  175SAPS  C31419996   3.062   3.061   3.930  0.0567 -0.0968 -0.4001
  175SAPS  H14X19997   3.158   3.103   3.895 -0.2635  0.5893 -0.4780
  175SAPS  H14Y19998   3.051   2.951   3.914 -3.0983  0.2388 -1.3397
  175SAPS  C31519999   3.061   3.105   4.078 -0.1504  0.3960  0.1139
  175SAPS  H15X20000   2.964   3.086   4.129  0.0142  1.8928  1.0287
  175SAPS  H15Y20001   3.081   3.213   4.091 -2.6248  0.7152  1.9830
  175SAPS  C31620002   3.177   3.032   4.150  0.4027  0.4037 -0.9156
  175SAPS  H16X20003   3.277   3.042   4.102  1.1086 -0.6890  0.2476
  175SAPS  H16Y20004   3.157   2.924   4.134  1.1919 -0.0052  0.6285
  175SAPS  C31720005   3.185   3.059   4.294 -0.8499  0.0874  0.2822
  175SAPS  H17X20006   3.086   3.057   4.344 -1.5302 -0.4319 -1.0275
  175SAPS  H17Y20007   3.239   3.155   4.311  1.9889 -1.0033 -1.7259
  175SAPS  C31820008   3.269   2.947   4.364  0.3883 -0.4338  0.4657
  175SAPS  H18X20009   3.287   2.985   4.467  0.6815  0.3356  0.1443
  175SAPS  H18Y20010   3.366   2.945   4.311  0.2196 -1.1948  0.1879
  175SAPS  H18Z20011   3.221   2.847   4.371 -0.2800 -0.3372 -1.9343
  176SAPS     N20012   2.152   1.494   2.414 -0.2922 -1.0982 -0.1094
  176SAPS   HN120013   2.243   1.544   2.418 -1.1267  0.6358 -1.5361
  176SAPS   HN220014   2.070   1.542   2.456  0.3449 -0.3728  0.3349
  176SAPS   HN320015   2.161   1.401   2.461 -0.0194 -2.0315 -1.9281
  176SAPS   C1220016   2.116   1.451   2.278 -0.5505 -0.0669  0.1566
  176SAPS  H12A20017   2.014   1.415   2.282 -1.2533  1.7057 -0.7153
  176SAPS   C1320018   2.099   1.570   2.184 -0.1375  0.6879  0.1431
  176SAPS  O13A20019   2.137   1.685   2.214  0.4853  0.3081  0.1016
  176SAPS  O13B20020   2.060   1.543   2.067  0.1881  0.3523 -0.1273
  176SAPS   C1120021   2.234   1.361   2.219  0.0559  0.3691  0.3154
  176SAPS  H11A20022   2.318   1.432   2.201 -0.0587 -0.0287 -2.1000
  176SAPS  H11B20023   2.215   1.328   2.115  0.8128  0.3536  0.1753
  176SAPS     P20024   2.174   1.141   2.357 -0.5659 -0.2399 -0.4252
  176SAPS   O1320025   2.063   1.120   2.261 -0.4861  0.6153  0.0260
  176SAPS   O1420026   2.244   1.026   2.416 -0.0756  0.6393 -0.4001
  176SAPS   O1220027   2.282   1.253   2.301  0.6621 -0.1863  0.5500
  176SAPS   O1120028   2.120   1.229   2.472  0.4645 -0.5134  0.4039
  176SAPS    C120029   2.003   1.181   2.540 -0.2954  0.6122 -0.0573
  176SAPS    HA20030   1.922   1.255   2.520  0.1432  0.6863 -1.6670
  176SAPS    HB20031   1.978   1.077   2.512 -0.5441  0.8598 -0.8022
  176SAPS    C220032   2.023   1.177   2.693  0.7455 -0.4796 -0.8747
  176SAPS    HS20033   2.056   1.274   2.737  2.3792 -1.8443  1.1038
  176SAPS   O2120034   2.111   1.070   2.737 -0.5210 -0.3761 -0.5736
  176SAPS   C2120035   2.241   1.098   2.774 -0.2078  0.3783  0.1419
  176SAPS   O2220036   2.289   1.213   2.762  0.5442 -0.2118  0.4989
  176SAPS   C2220037   2.307   0.987   2.843  0.1818 -0.1336  0.4803
  176SAPS   H2R20038   2.238   0.900   2.840 -1.1703  0.9171 -1.9232
  176SAPS   H2S20039   2.405   0.959   2.798 -0.4418  1.0663 -1.7882
  176SAPS    C320040   1.888   1.145   2.755 -0.4056  0.3891 -0.2888
  176SAPS    HX20041   1.864   1.042   2.723  1.2181  0.4405 -1.7948
  176SAPS    HY20042   1.813   1.216   2.715  0.2883  0.5164 -1.4028
  176SAPS   O3120043   1.890   1.161   2.904  1.0496  0.1767 -0.4319
  176SAPS   C3120044   1.913   1.059   2.984  0.2590  0.4044  0.3471
  176SAPS   O3220045   1.946   0.945   2.947  0.1898  0.1833 -0.5290
  176SAPS   C3220046   1.888   1.100   3.128 -0.3081 -0.1134  0.0706
  176SAPS   H2X20047   1.781   1.127   3.142 -0.5598 -0.6180 -0.8106
  176SAPS   H2Y20048   1.944   1.192   3.155 -2.1880  0.3957  2.6692
  176SAPS   C2320049   2.323   1.024   2.994  0.1021  0.1085 -0.2559
  176SAPS   H3R20050   2.231   1.067   3.038  0.1329 -0.3498  0.2715
  176SAPS   H3S20051   2.405   1.099   3.007  0.2242 -0.1166  0.2743
  176SAPS   C2420052   2.358   0.900   3.082 -0.2379  0.1041 -0.5183
  176SAPS   H4R20053   2.403   0.927   3.179 -0.7679  1.3401 -0.5889
  176SAPS   H4S20054   2.442   0.851   3.029  2.0266  2.9732  0.1135
  176SAPS   C2520055   2.243   0.808   3.101 -0.1791 -0.5921 -0.2683
  176SAPS   H5R20056   2.180   0.806   3.011 -0.4072  1.2593 -0.2044
  176SAPS   C2620057   2.211   0.744   3.222  0.0773 -0.2763 -0.3041
  176SAPS   H6R20058   2.113   0.696   3.235 -0.0364  0.1713  0.6059
  176SAPS   C2720059   2.294   0.746   3.352 -0.8742  0.6276 -0.8658
  176SAPS   H7R20060   2.379   0.818   3.347  0.2274 -0.0505  3.5285
  176SAPS   H7S20061   2.347   0.651   3.373 -0.6190  1.2463  1.6390
  176SAPS   C2820062   2.197   0.766   3.473 -0.2621 -0.5000 -0.0136
  176SAPS   H8R20063   2.105   0.706   3.466  0.5796 -1.9449  0.8036
  176SAPS   C2920064   2.215   0.833   3.585 -0.8208 -0.7168  0.2713
  176SAPS   H9R20065   2.150   0.831   3.674  0.0203 -1.1662  0.8963
  176SAPS  C21020066   2.346   0.907   3.624 -0.1616  0.1661  0.8271
  176SAPS  H10R20067   2.331   1.013   3.653  2.7990  0.9287 -0.0782
  176SAPS  H10S20068   2.422   0.916   3.544  0.5788  1.1226  1.6118
  176SAPS  C21120069   2.423   0.824   3.721 -0.1781  0.3099 -0.2231
  176SAPS  H11R20070   2.482   0.744   3.675 -0.5476 -0.1666  0.1292
  176SAPS  C21220071   2.426   0.842   3.855 -0.2861 -0.1390 -0.5373
  176SAPS  H12R20072   2.492   0.771   3.906 -2.4537 -1.7876  0.1493
  176SAPS  C21320073   2.358   0.943   3.946 -0.2618 -0.4507 -0.5493
  176SAPS  H13R20074   2.308   0.916   4.042 -1.3707 -0.5460 -1.1424
  176SAPS  H13S20075   2.269   0.981   3.891  1.2182  1.3403 -1.8241
  176SAPS  C21420076   2.445   1.065   3.955 -0.0823 -0.7919 -0.3423
  176SAPS  H14R20077   2.481   1.113   3.863  0.7748  2.1005  1.3687
  176SAPS  C21520078   2.489   1.137   4.070 -0.0818  0.4655  0.0659
  176SAPS  H15R20079   2.535   1.235   4.054  0.2930  0.5621  1.5960
  176SAPS  C21620080   2.453   1.106   4.217 -0.1072  0.6583 -0.4590
  176SAPS  H16R20081   2.530   1.052   4.276  1.5124  1.7414 -1.4875
  176SAPS  H16S20082   2.372   1.030   4.212  0.3349 -0.4929  4.5720
  176SAPS  C21720083   2.407   1.236   4.283 -0.3013  0.2375 -0.2693
  176SAPS  H17R20084   2.321   1.274   4.224 -1.4635  1.5242  2.0842
  176SAPS  H17S20085   2.483   1.312   4.308 -0.7894  0.6241  0.0757
  176SAPS  C21820086   2.362   1.220   4.432  0.1063 -0.4934 -0.2662
  176SAPS  H18R20087   2.441   1.168   4.491 -0.5200  1.3119  2.3361
  176SAPS  H18S20088   2.261   1.172   4.439 -0.8837  1.6854  1.4546
  176SAPS  C21920089   2.340   1.356   4.511 -0.1885  0.2780  0.6621
  176SAPS  H19R20090   2.247   1.406   4.476 -1.1065 -1.3966  0.6082
  176SAPS  H19S20091   2.426   1.423   4.490 -0.9965  1.1095 -0.1291
  176SAPS  C22020092   2.324   1.344   4.662  0.4689  0.6052  0.4480
  176SAPS  H20R20093   2.319   1.448   4.700  0.7644  0.9568 -0.4362
  176SAPS  H20S20094   2.411   1.294   4.710  0.3337  0.2929  0.3708
  176SAPS  H20T20095   2.225   1.299   4.683 -0.6129  2.2184 -0.8983
  176SAPS   C3320096   1.926   1.000   3.236 -0.4474 -0.1250 -0.2731
  176SAPS   H3X20097   2.032   1.009   3.268 -0.9325 -0.2272  1.4338
  176SAPS   H3Y20098   1.911   0.900   3.189  1.9623 -1.2425  1.1085
  176SAPS   C3420099   1.830   1.013   3.354 -0.3974  0.1992 -0.2875
  176SAPS   H4X20100   1.729   0.976   3.323  0.0736  1.0118 -3.0627
  176SAPS   H4Y20101   1.822   1.116   3.394  0.6827 -0.2110  1.0748
  176SAPS   C3520102   1.878   0.927   3.478 -0.0746 -0.1849  0.2905
  176SAPS   H5X20103   1.966   0.982   3.517  0.1510  1.5236 -2.3482
  176SAPS   H5Y20104   1.902   0.824   3.443  0.2865 -0.5037  1.4536
  176SAPS   C3620105   1.777   0.914   3.596 -0.1185 -0.1530  1.0487
  176SAPS   H6X20106   1.712   0.825   3.580 -0.7308  0.3996  0.3853
  176SAPS   H6Y20107   1.710   1.003   3.597  1.4028  1.1604 -1.8625
  176SAPS   C3720108   1.854   0.891   3.732  0.8195  0.0082 -0.5788
  176SAPS   H7X20109   1.920   0.802   3.719  0.6159  0.0713 -2.2461
  176SAPS   H7Y20110   1.769   0.862   3.798  0.1277 -1.5057 -2.0182
  176SAPS   C3820111   1.927   1.014   3.792  0.1090  1.6242  0.0354
  176SAPS   H8X20112   1.855   1.095   3.819  0.8218  1.9038  1.1583
  176SAPS   H8Y20113   2.000   1.057   3.721  1.0845  0.7904  0.5064
  176SAPS   C3920114   2.004   0.959   3.918 -0.1876 -0.0561  0.7505
  176SAPS   H9X20115   2.066   1.041   3.959 -1.4578  1.5873 -0.4975
  176SAPS   H9Y20116   2.072   0.881   3.878  1.3816  1.4766  0.2962
  176SAPS  C31020117   1.913   0.898   4.022  0.3703  0.6279 -0.0210
  176SAPS  H10X20118   1.863   0.805   3.988  4.2039 -1.5372 -0.3674
  176SAPS  H10Y20119   1.846   0.977   4.062 -0.0424  0.3925 -0.2385
  176SAPS  C31120120   1.996   0.848   4.134 -0.5848 -0.3228 -0.9272
  176SAPS  H11X20121   2.033   0.932   4.198  2.4171 -1.9129 -0.3773
  176SAPS  H11Y20122   2.086   0.797   4.093 -0.4388  0.0881 -1.1323
  176SAPS  C31220123   1.922   0.750   4.225  0.3152  0.6561 -1.0322
  176SAPS  H12X20124   1.904   0.660   4.163  0.8344 -1.4107  1.6655
  176SAPS  H12Y20125   1.819   0.788   4.242  0.0459  0.3001 -1.8346
  176SAPS  C31320126   1.995   0.723   4.357  0.4547 -0.4026  0.0692
  176SAPS  H13X20127   2.014   0.823   4.401  0.7754 -0.9949  1.3484
  176SAPS  H13Y20128   2.098   0.683   4.344  0.8399  0.0921  1.4162
  176SAPS  C31420129   1.913   0.644   4.463  0.2154 -0.2755  0.2919
  176SAPS  H14X20130   1.820   0.704   4.474  1.2204  1.3317  0.3283
  176SAPS  H14Y20131   1.978   0.638   4.553 -0.0203 -2.3103  0.3694
  176SAPS  C31520132   1.874   0.510   4.413 -0.1831 -0.1893  0.2632
  176SAPS  H15X20133   1.966   0.453   4.392  1.0779  2.4005 -1.7603
  176SAPS  H15Y20134   1.796   0.528   4.336  0.1607  1.0218  0.1747
  176SAPS  C31620135   1.799   0.421   4.508 -0.7576 -0.3398  0.4582
  176SAPS  H16X20136   1.854   0.416   4.604 -0.1781 -0.4906  0.1240
  176SAPS  H16Y20137   1.796   0.323   4.456  1.0002  0.5747 -1.5048
  176SAPS  C31720138   1.657   0.457   4.533  0.3677 -0.2355 -0.1337
  176SAPS  H17X20139   1.649   0.567   4.526  0.5890 -0.0508  1.9080
  176SAPS  H17Y20140   1.638   0.441   4.642  2.0931 -0.2959  0.1750
  176SAPS  C31820141   1.558   0.369   4.456  0.4147 -0.6303 -0.0058
  176SAPS  H18X20142   1.565   0.384   4.346  2.5942 -0.2486  0.1533
  176SAPS  H18Y20143   1.455   0.390   4.494  0.3795 -2.3590  0.8977
  176SAPS  H18Z20144   1.580   0.261   4.469  1.8153 -0.4212 -0.4423
  177SAPS     N20145   4.311   5.186   2.124  0.3178 -0.3527  0.4667
  177SAPS   HN120146   4.295   5.224   2.028 -2.2492 -2.0979  0.0883
  177SAPS   HN220147   4.389   5.225   2.179  0.3109 -0.2606  0.4111
  177SAPS   HN320148   4.334   5.085   2.111  0.7446 -0.0319 -1.6583
  177SAPS   C1220149   4.189   5.203   2.210  0.8771  0.4203 -0.7874
  177SAPS  H12A20150   4.179   5.311   2.206 -0.1738  0.3397 -0.6204
  177SAPS   C1320151   4.061   5.148   2.143 -0.1224  0.2314 -0.2825
  177SAPS  O13A20152   4.064   5.077   2.039 -0.7179  0.6034 -0.2644
  177SAPS  O13B20153   3.953   5.165   2.204 -0.1267 -0.3493 -0.0409
  177SAPS   C1120154   4.209   5.133   2.343 -0.4076 -0.2576 -0.0735
  177SAPS  H11A20155   4.218   5.024   2.322  0.7637  0.1119 -1.7770
  177SAPS  H11B20156   4.127   5.146   2.416  0.0928  1.0720  0.2828
  177SAPS     P20157   4.342   5.300   2.506  0.2356 -0.0658  0.0137
  177SAPS   O1320158   4.475   5.289   2.560 -0.3303 -0.7419  0.3050
  177SAPS   O1420159   4.293   5.434   2.458  0.3306  0.7020 -0.0676
  177SAPS   O1220160   4.333   5.189   2.391 -0.2415  0.2523 -0.2294
  177SAPS   O1120161   4.240   5.245   2.612 -0.2741 -0.3213  0.0664
  177SAPS    C120162   4.260   5.124   2.684  0.5666  0.1597  1.4841
  177SAPS    HA20163   4.174   5.057   2.663  2.9949 -2.4567 -1.2093
  177SAPS    HB20164   4.346   5.061   2.654  1.1078  0.5135  2.2505
  177SAPS    C220165   4.272   5.141   2.840 -0.2941 -0.0061  0.5900
  177SAPS    HS20166   4.296   5.044   2.888  0.5257  1.7091  3.9218
  177SAPS   O2120167   4.145   5.187   2.894 -0.5308  0.2042  0.1816
  177SAPS   C2120168   4.065   5.090   2.933 -0.3821  0.0197  0.6932
  177SAPS   O2220169   4.096   4.972   2.950 -0.4029  0.0561 -0.1697
  177SAPS   C2220170   3.921   5.139   2.951 -0.2089  0.5033  0.1152
  177SAPS   H2R20171   3.924   5.249   2.931 -0.0907  0.3864 -0.5483
  177SAPS   H2S20172   3.860   5.101   2.866 -0.6797 -0.6472  0.9450
  177SAPS    C320173   4.393   5.236   2.876 -0.4562  0.5352 -0.6626
  177SAPS    HX20174   4.382   5.326   2.813 -0.0272  2.1060  1.3821
  177SAPS    HY20175   4.493   5.189   2.858 -0.3943  0.6258 -0.5564
  177SAPS   O3120176   4.402   5.266   3.017  0.5414  0.8079  0.5057
  177SAPS   C3120177   4.317   5.354   3.064 -0.7072 -0.3422 -0.1745
  177SAPS   O3220178   4.262   5.436   2.993  0.1812 -0.0095  0.7516
  177SAPS   C3220179   4.311   5.350   3.215  0.1445  0.1791 -0.1104
  177SAPS   H2X20180   4.238   5.271   3.244 -1.0340  1.5749  0.8580
  177SAPS   H2Y20181   4.259   5.445   3.238  0.1537  0.7434 -2.2282
  177SAPS   C2320182   3.860   5.103   3.085 -0.5403 -0.1216 -0.3322
  177SAPS   H3R20183   3.836   4.997   3.107  1.9105 -0.7197 -0.2264
  177SAPS   H3S20184   3.758   5.145   3.073  0.1658  1.6229 -0.6831
  177SAPS   C2420185   3.940   5.154   3.200 -0.1646 -0.4145 -0.3268
  177SAPS   H4R20186   3.979   5.257   3.182  2.1244 -0.9271  1.2616
  177SAPS   H4S20187   4.033   5.093   3.210 -1.3239 -2.2614 -0.4522
  177SAPS   C2520188   3.857   5.147   3.326  0.6344  0.4777 -0.0425
  177SAPS   H5R20189   3.768   5.082   3.327 -0.5304  2.0247  0.4818
  177SAPS   C2620190   3.889   5.213   3.439 -0.1298 -0.9289 -0.1399
  177SAPS   H6R20191   3.808   5.206   3.514 -2.6731  2.1477 -2.3295
  177SAPS   C2720192   4.002   5.317   3.457  0.6015  0.0008 -0.1175
  177SAPS   H7R20193   3.955   5.415   3.479 -1.7890 -1.1490  0.2180
  177SAPS   H7S20194   4.058   5.326   3.361  0.4735  0.3782 -0.1579
  177SAPS   C2820195   4.093   5.265   3.562  0.0448 -0.3083 -0.1281
  177SAPS   H8R20196   4.173   5.201   3.523 -2.5068 -3.1697 -1.0515
  177SAPS   C2920197   4.084   5.296   3.691  0.1411 -0.1586 -0.3257
  177SAPS   H9R20198   4.158   5.268   3.767  0.4798  2.3959  0.4032
  177SAPS  C21020199   3.970   5.380   3.739  0.2952 -0.6648 -0.2038
  177SAPS  H10R20200   3.873   5.326   3.742 -0.2782  0.3702  0.8748
  177SAPS  H10S20201   3.954   5.459   3.663  0.7277 -2.0530 -1.7976
  177SAPS  C21120202   4.010   5.455   3.866  0.7414 -0.8212 -0.1365
  177SAPS  H11R20203   4.107   5.505   3.862 -0.3163  1.2947 -0.5770
  177SAPS  C21220204   3.943   5.461   3.982  0.0079 -0.2265 -0.2511
  177SAPS  H12R20205   3.991   5.513   4.066  1.3833  0.4372 -1.4118
  177SAPS  C21320206   3.807   5.404   4.025 -0.0485 -0.5879  0.0656
  177SAPS  H13R20207   3.736   5.366   3.948 -2.6984  2.7458  0.6670
  177SAPS  H13S20208   3.745   5.480   4.077  0.1858 -0.5241  0.2527
  177SAPS  C21420209   3.836   5.285   4.110  0.4440 -0.1076  0.8088
  177SAPS  H14R20210   3.891   5.202   4.062 -0.6241 -0.1513 -0.3920
  177SAPS  C21520211   3.779   5.262   4.232 -0.3264 -0.5097 -0.5514
  177SAPS  H15R20212   3.808   5.168   4.282  0.8275 -0.4541 -1.1039
  177SAPS  C21620213   3.683   5.352   4.312 -0.5866 -0.3555  0.3015
  177SAPS  H16R20214   3.578   5.319   4.303 -0.3099 -1.6376  1.4525
  177SAPS  H16S20215   3.669   5.454   4.272 -1.9500 -0.7878 -0.3708
  177SAPS  C21720216   3.717   5.362   4.465  0.2251 -0.2148  0.5931
  177SAPS  H17R20217   3.663   5.446   4.512  2.0941  0.5894  1.4203
  177SAPS  H17S20218   3.824   5.389   4.477  0.2214 -0.4986  1.2892
  177SAPS  C21820219   3.701   5.228   4.541 -0.2601  0.2022 -0.4365
  177SAPS  H18R20220   3.747   5.233   4.642  3.5278 -2.5749 -1.7888
  177SAPS  H18S20221   3.762   5.150   4.490 -0.0315  0.3633 -0.4076
  177SAPS  C21920222   3.557   5.176   4.550  0.0325 -0.3967 -0.4987
  177SAPS  H19R20223   3.526   5.112   4.465  2.7156 -2.4368 -0.0979
  177SAPS  H19S20224   3.484   5.259   4.563 -1.3351 -1.2146 -2.5626
  177SAPS  C22020225   3.548   5.087   4.680  0.4156  0.3455 -0.8732
  177SAPS  H20R20226   3.631   5.013   4.676 -0.9816 -1.4532  1.3257
  177SAPS  H20S20227   3.456   5.026   4.665  0.8012 -0.8462  1.2214
  177SAPS  H20T20228   3.550   5.143   4.776  0.7124 -1.0297 -0.0570
  177SAPS   C3320229   4.445   5.351   3.294 -0.5955 -0.0999 -0.2583
  177SAPS   H3X20230   4.514   5.424   3.245  1.5064 -1.2764  0.8033
  177SAPS   H3Y20231   4.500   5.259   3.265 -0.9468 -0.8402  1.3091
  177SAPS   C3420232   4.444   5.390   3.446  0.4623 -0.2514 -0.4072
  177SAPS   H4X20233   4.548   5.421   3.467  1.3853 -3.4758  0.2864
  177SAPS   H4Y20234   4.421   5.306   3.515  1.6088  0.9832  1.5841
  177SAPS   C3520235   4.360   5.510   3.486  0.3922  0.8167 -0.4183
  177SAPS   H5X20236   4.255   5.479   3.468  0.4392  1.4415 -1.8801
  177SAPS   H5Y20237   4.378   5.598   3.420  0.9490 -0.0880 -1.5120
  177SAPS   C3620238   4.367   5.546   3.639  0.2563 -0.1359 -0.4612
  177SAPS   H6X20239   4.476   5.551   3.661  0.1839 -0.8037  0.0859
  177SAPS   H6Y20240   4.319   5.465   3.698  2.5741 -1.7175 -0.6427
  177SAPS   C3720241   4.297   5.680   3.672 -0.4698  0.6250 -0.7706
  177SAPS   H7X20242   4.187   5.684   3.657 -0.6843  1.1062  0.7268
  177SAPS   H7Y20243   4.347   5.752   3.603  0.5722 -1.8238 -2.7348
  177SAPS   C3820244   4.333   5.731   3.811 -0.1830  0.3870 -0.1498
  177SAPS   H8X20245   4.444   5.735   3.812 -0.1864  1.0363 -1.2262
  177SAPS   H8Y20246   4.303   5.661   3.892  3.4616  1.5888  2.4830
  177SAPS   C3920247   4.263   5.863   3.847 -0.3699 -0.0476 -0.2243
  177SAPS   H9X20248   4.168   5.873   3.790 -0.0647  0.3529 -0.6728
  177SAPS   H9Y20249   4.321   5.954   3.819 -0.9936  0.9377  1.5296
  177SAPS  C31020250   4.239   5.880   4.001 -0.0578  0.3319 -0.2901
  177SAPS  H10X20251   4.214   5.775   4.027 -1.5407  0.4257 -1.1880
  177SAPS  H10Y20252   4.151   5.945   4.021 -1.0238 -0.3484 -2.0793
  177SAPS  C31120253   4.363   5.938   4.079 -0.2041  0.1593  0.1770
  177SAPS  H11X20254   4.328   5.976   4.177 -1.1104  1.6754 -0.7086
  177SAPS  H11Y20255   4.404   6.017   4.012 -0.6905  1.1156  0.9786
  177SAPS  C31220256   4.463   5.829   4.099  0.7144  0.3487  0.0311
  177SAPS  H12X20257   4.513   5.812   4.001  1.8572 -0.4000  0.7165
  177SAPS  H12Y20258   4.402   5.738   4.116 -1.5928  1.4381 -1.7348
  177SAPS  C31320259   4.558   5.854   4.218 -0.4886 -0.0585 -0.3387
  177SAPS  H13X20260   4.515   5.843   4.320  0.5304  1.1652  0.2418
  177SAPS  H13Y20261   4.585   5.961   4.214 -0.0318 -0.1735 -0.3662
  177SAPS  C31420262   4.679   5.760   4.214  0.1601  0.3606  0.3944
  177SAPS  H14X20263   4.763   5.796   4.150  0.7167 -2.4874 -0.6272
  177SAPS  H14Y20264   4.668   5.656   4.178  0.7265  0.1494  0.7957
  177SAPS  C31520265   4.744   5.756   4.355 -0.6369 -0.3284 -0.4877
  177SAPS  H15X20266   4.753   5.857   4.400  1.5166 -0.6990  0.0528
  177SAPS  H15Y20267   4.852   5.728   4.350 -0.1412  1.1115  1.0486
  177SAPS  C31620268   4.665   5.664   4.447  1.2429 -0.0896 -0.7132
  177SAPS  H16X20269   4.650   5.563   4.405 -0.1535 -0.6754  1.0602
  177SAPS  H16Y20270   4.560   5.701   4.459  0.9621 -0.5709 -1.6332
  177SAPS  C31720271   4.737   5.655   4.585  0.2973 -0.6062 -0.3601
  177SAPS  H17X20272   4.659   5.616   4.655  0.5423 -0.0911  0.2119
  177SAPS  H17Y20273   4.755   5.761   4.611  0.4046 -0.2911 -1.6631
  177SAPS  C31820274   4.864   5.573   4.581  0.3580 -0.1598  0.0900
  177SAPS  H18X20275   4.894   5.551   4.686  1.5942 -0.7854 -0.3784
  177SAPS  H18Y20276   4.942   5.632   4.528 -1.1091  0.9808 -0.8648
  177SAPS  H18Z20277   4.845   5.482   4.521  0.0053 -0.6314  0.8935
  178SAPS     N20278   3.541   6.264   1.625 -0.3809  0.4585 -0.2064
  178SAPS   HN120279   3.464   6.198   1.604 -0.7765 -0.0876  2.5995
  178SAPS   HN220280   3.599   6.280   1.540  0.8236 -0.9111  0.3149
  178SAPS   HN320281   3.613   6.222   1.687 -1.4101 -0.5815  0.3161
  178SAPS   C1220282   3.478   6.384   1.682  0.2645  0.4522 -0.4875
  178SAPS  H12A20283   3.545   6.468   1.669 -0.2691  0.6942 -1.9008
  178SAPS   C1320284   3.339   6.428   1.615 -0.2096  0.2183 -0.5069
  178SAPS  O13A20285   3.313   6.388   1.505  0.3828 -0.5134 -0.4129
  178SAPS  O13B20286   3.307   6.544   1.648  0.3098 -0.4981  0.2552
  178SAPS   C1120287   3.473   6.363   1.839  0.4126  0.4813  0.6325
  178SAPS  H11A20288   3.388   6.293   1.857 -0.3812  0.6184 -2.0882
  178SAPS  H11B20289   3.450   6.463   1.882  1.8068  0.2494  2.0028
  178SAPS     P20290   3.617   6.276   2.035 -0.1132 -0.2954 -0.3708
  178SAPS   O1320291   3.660   6.136   2.034 -0.4470  0.8191  0.4858
  178SAPS   O1420292   3.709   6.373   2.100  0.8240 -0.1587  0.0453
  178SAPS   O1220293   3.602   6.310   1.882  1.1576  0.4235 -0.2899
  178SAPS   O1120294   3.469   6.293   2.084 -0.0265 -0.0650 -0.3581
  178SAPS    C120295   3.380   6.194   2.129 -0.4853 -0.4828 -0.1710
  178SAPS    HA20296   3.277   6.205   2.088 -0.3989 -1.5707 -0.7287
  178SAPS    HB20297   3.423   6.094   2.108  3.8619  0.9218  1.0153
  178SAPS    C220298   3.372   6.187   2.284  0.9783 -0.5249  0.6682
  178SAPS    HS20299   3.300   6.265   2.316  0.5177 -1.3826  1.8016
  178SAPS   O2120300   3.505   6.198   2.341 -0.0553 -0.8288  0.4487
  178SAPS   C2120301   3.538   6.331   2.361  0.3531  0.5998  0.6341
  178SAPS   O2220302   3.465   6.428   2.340 -0.2789 -0.2791  0.1441
  178SAPS   C2220303   3.676   6.331   2.432 -0.6913  0.3771  0.3658
  178SAPS   H2R20304   3.679   6.258   2.516 -1.5880 -0.2828 -0.1463
  178SAPS   H2S20305   3.750   6.307   2.353 -1.2663  0.7697 -0.3100
  178SAPS    C320306   3.320   6.053   2.329 -0.4740  0.2733  0.2574
  178SAPS    HX20307   3.406   5.986   2.311 -1.2025 -0.4161 -0.7827
  178SAPS    HY20308   3.239   6.009   2.266  0.8731 -0.9781 -0.6686
  178SAPS   O3120309   3.275   6.058   2.466  0.4520 -0.3620  0.3750
  178SAPS   C3120310   3.153   6.091   2.484  0.1848 -0.0470  0.1189
  178SAPS   O3220311   3.068   6.110   2.397 -0.3193  0.1341 -0.2230
  178SAPS   C3220312   3.136   6.092   2.635  0.1427  0.0618 -0.1594
  178SAPS   H2X20313   3.178   6.182   2.684  2.0043 -2.0817  2.4820
  178SAPS   H2Y20314   3.201   6.009   2.670 -1.0819  0.3230  3.0188
  178SAPS   C2320315   3.730   6.462   2.498 -0.2324 -0.3712 -0.5796
  178SAPS   H3R20316   3.668   6.506   2.579 -0.8307 -2.4640  0.1602
  178SAPS   H3S20317   3.721   6.543   2.422 -0.7074  0.9449  0.8168
  178SAPS   C2420318   3.880   6.453   2.543  0.0787 -0.4890  0.1909
  178SAPS   H4R20319   3.909   6.553   2.581  1.9139 -0.4301 -1.1972
  178SAPS   H4S20320   3.946   6.440   2.454  1.8580  1.8788  1.0634
  178SAPS   C2520321   3.909   6.349   2.653  0.2273 -0.1527 -0.2646
  178SAPS   H5R20322   3.966   6.261   2.620 -0.9501 -1.5163  1.1892
  178SAPS   C2620323   3.873   6.373   2.783 -0.7422 -0.2073  0.5105
  178SAPS   H6R20324   3.901   6.297   2.858  1.9776 -2.1665 -2.2396
  178SAPS   C2720325   3.803   6.495   2.843 -0.3514 -0.1279  0.6693
  178SAPS   H7R20326   3.802   6.583   2.774  0.3932  0.8080  1.8144
  178SAPS   H7S20327   3.868   6.527   2.927  0.1087 -0.9251  0.6313
  178SAPS   C2820328   3.657   6.465   2.873  0.6599  0.0870  0.2739
  178SAPS   H8R20329   3.601   6.427   2.787 -0.5753  0.1237  1.0475
  178SAPS   C2920330   3.601   6.473   2.995  0.2842 -0.3784  0.6461
  178SAPS   H9R20331   3.493   6.452   3.003  0.5940 -1.3943  2.9366
  178SAPS  C21020332   3.667   6.542   3.113 -0.5756 -0.3130 -0.2182
  178SAPS  H10R20333   3.743   6.621   3.093 -1.5824  0.8591  0.4304
  178SAPS  H10S20334   3.719   6.461   3.169 -1.2565 -1.4822 -1.2191
  178SAPS  C21120335   3.569   6.601   3.214  0.0680 -0.2997 -0.0707
  178SAPS  H11R20336   3.480   6.652   3.175 -0.3977 -0.6280  0.5361
  178SAPS  C21220337   3.582   6.611   3.347  0.4201  0.2727 -0.7072
  178SAPS  H12R20338   3.499   6.658   3.403 -0.0352 -0.4731 -0.7380
  178SAPS  C21320339   3.691   6.556   3.434 -0.5480  0.4357 -0.1358
  178SAPS  H13R20340   3.746   6.634   3.491  2.1554 -0.8786 -0.7991
  178SAPS  H13S20341   3.770   6.516   3.368 -0.4810  1.4363 -0.6753
  178SAPS  C21420342   3.663   6.445   3.533  0.0344 -0.3377 -0.0140
  178SAPS  H14R20343   3.589   6.370   3.503 -0.5068 -0.8115  2.3171
  178SAPS  C21520344   3.684   6.445   3.670 -0.7726 -0.3303  0.1748
  178SAPS  H15R20345   3.642   6.364   3.731 -2.6852  1.5779  1.5318
  178SAPS  C21620346   3.771   6.540   3.751  0.2547  0.1134  0.5703
  178SAPS  H16R20347   3.854   6.587   3.694 -0.0588  1.2616  1.0368
  178SAPS  H16S20348   3.816   6.478   3.832 -1.3931 -3.0024 -0.7007
  178SAPS  C21720349   3.699   6.669   3.813 -0.0573 -0.3359  0.0913
  178SAPS  H17R20350   3.636   6.725   3.741 -0.3816 -0.2403  0.4459
  178SAPS  H17S20351   3.783   6.736   3.841 -1.4428  2.2986 -1.7538
  178SAPS  C21820352   3.620   6.634   3.934  0.7483 -0.0327 -0.3935
  178SAPS  H18R20353   3.601   6.525   3.926  0.0551 -0.0571  1.1991
  178SAPS  H18S20354   3.521   6.682   3.948  0.7868 -0.3970  1.2773
  178SAPS  C21920355   3.686   6.670   4.067 -0.3323  0.0513 -0.1110
  178SAPS  H19R20356   3.693   6.781   4.070 -1.0672  0.1097  3.2501
  178SAPS  H19S20357   3.791   6.636   4.061 -0.6692 -0.9780 -0.2342
  178SAPS  C22020358   3.620   6.620   4.197  0.4693 -0.1611 -0.5836
  178SAPS  H20R20359   3.511   6.642   4.199  0.3768 -0.4891  2.4080
  178SAPS  H20S20360   3.663   6.676   4.283  1.1821 -0.0980 -0.9776
  178SAPS  H20T20361   3.633   6.511   4.214  1.1680 -0.2965 -1.9135
  178SAPS   C3320362   2.989   6.073   2.678  0.2017 -0.3472  0.1445
  178SAPS   H3X20363   2.939   6.008   2.604  0.7626  0.4664 -0.9735
  178SAPS   H3Y20364   2.941   6.173   2.669 -1.5137 -1.0433  1.0627
  178SAPS   C3420365   2.974   6.010   2.811 -0.5036 -0.4628 -0.6497
  178SAPS   H4X20366   2.988   5.900   2.798  0.8011 -0.5342  1.0029
  178SAPS   H4Y20367   2.869   6.028   2.842 -0.2369 -0.4850  0.3048
  178SAPS   C3520368   3.059   6.071   2.922  0.2641 -0.2228 -0.1314
  178SAPS   H5X20369   3.033   6.179   2.924 -2.2839 -0.7836  1.7666
  178SAPS   H5Y20370   3.169   6.067   2.912  0.6645  3.2109  1.4180
  178SAPS   C3620371   3.009   6.018   3.059  0.4352 -0.5881  0.0444
  178SAPS   H6X20372   3.030   5.911   3.081  0.0535 -0.4365  1.2306
  178SAPS   H6Y20373   2.898   6.024   3.060  0.4873  0.5723  0.8641
  178SAPS   C3720374   3.040   6.101   3.188  0.3779 -0.3760 -0.4496
  178SAPS   H7X20375   3.032   6.211   3.175  0.4024 -0.3638 -0.3682
  178SAPS   H7Y20376   3.143   6.073   3.219  0.1419 -1.2205 -0.3845
  178SAPS   C3820377   2.948   6.064   3.305  0.0512  0.4761  0.0410
  178SAPS   H8X20378   2.926   5.955   3.302  1.0918  0.2370  0.8606
  178SAPS   H8Y20379   2.855   6.125   3.295 -1.0610 -0.5797  2.9457
  178SAPS   C3920380   2.991   6.099   3.445  0.5048 -0.0824 -0.2790
  178SAPS   H9X20381   2.999   6.209   3.442 -0.9890  0.0321 -0.5150
  178SAPS   H9Y20382   3.094   6.063   3.469  1.0475  1.1335 -0.7063
  178SAPS  C31020383   2.906   6.054   3.561 -0.1938 -0.0573 -0.4172
  178SAPS  H10X20384   2.924   5.947   3.584 -2.0103 -0.0660  1.3001
  178SAPS  H10Y20385   2.797   6.048   3.541 -0.6188  3.0407  0.4182
  178SAPS  C31120386   2.928   6.129   3.696 -0.4712  0.3902  0.0678
  178SAPS  H11X20387   2.891   6.234   3.697 -0.1223  0.5166 -0.4772
  178SAPS  H11Y20388   3.037   6.142   3.712  0.1113 -1.3598 -2.0229
  178SAPS  C31220389   2.870   6.058   3.811  0.2989  0.4820  0.1931
  178SAPS  H12X20390   2.896   5.950   3.809 -3.2160 -0.6206  3.0182
  178SAPS  H12Y20391   2.759   6.051   3.810  0.2923  0.4128 -1.4822
  178SAPS  C31320392   2.909   6.115   3.949 -1.0874 -0.3228  1.0273
  178SAPS  H13X20393   2.888   6.223   3.938  0.4836 -0.1634 -0.9264
  178SAPS  H13Y20394   3.020   6.108   3.953 -0.7784 -0.8659 -3.3979
  178SAPS  C31420395   2.841   6.062   4.079 -0.2978 -0.0954 -0.3135
  178SAPS  H14X20396   2.735   6.093   4.068 -0.4976 -1.1950 -1.7481
  178SAPS  H14Y20397   2.887   6.118   4.163 -0.2592  0.3975 -0.6627
  178SAPS  C31520398   2.853   5.913   4.113 -0.1845  0.3299 -0.5361
  178SAPS  H15X20399   2.961   5.890   4.120 -0.2381  0.4628  1.0052
  178SAPS  H15Y20400   2.822   5.850   4.027 -1.2717 -1.0877  0.8289
  178SAPS  C31620401   2.775   5.876   4.242 -0.8830  0.3862  0.3026
  178SAPS  H16X20402   2.666   5.895   4.231 -0.6098  1.0849 -1.5406
  178SAPS  H16Y20403   2.814   5.948   4.318  0.4033  1.3427 -1.1903
  178SAPS  C31720404   2.808   5.738   4.301  0.4992  0.0632 -0.7965
  178SAPS  H17X20405   2.761   5.742   4.402 -1.5357  1.4967 -1.7416
  178SAPS  H17Y20406   2.917   5.718   4.317  0.8506  2.4594  0.1284
  178SAPS  C31820407   2.754   5.622   4.223  1.4579 -0.1988 -0.0246
  178SAPS  H18X20408   2.800   5.624   4.122 -0.3261 -2.0118 -0.9409
  178SAPS  H18Y20409   2.645   5.640   4.234  1.5383  1.7903 -1.8952
  178SAPS  H18Z20410   2.775   5.519   4.259  0.1349 -0.3325  0.4058
  179SAPS     N20411   4.725   0.519   2.025 -0.8554 -0.1054 -0.4005
  179SAPS   HN120412   4.741   0.555   2.122  0.3017  1.5872 -1.1574
  179SAPS   HN220413   4.627   0.506   1.995 -0.6313  0.7251 -1.5890
  179SAPS   HN320414   4.760   0.422   2.024 -1.4594 -0.3540  0.9985
  179SAPS   C1220415   4.799   0.616   1.932 -0.3655  0.0606 -0.2192
  179SAPS  H12A20416   4.902   0.632   1.960  0.2135 -1.8691 -1.0677
  179SAPS   C1320417   4.789   0.567   1.787 -0.1512 -0.2010  0.0627
  179SAPS  O13A20418   4.737   0.458   1.757  0.0163 -0.0717  0.0859
  179SAPS  O13B20419   4.855   0.632   1.700 -0.0686 -0.1559  0.4737
  179SAPS   C1120420   4.727   0.753   1.945 -0.2104  1.5742 -0.1628
  179SAPS  H11A20421   4.619   0.738   1.924  0.3170 -0.6262 -1.7465
  179SAPS  H11B20422   4.775   0.813   1.865  1.3563  0.9999  0.3166
  179SAPS     P20423   4.769   0.958   2.102  0.4083  0.0820  0.0423
  179SAPS   O1320424   4.911   0.998   2.084 -0.3861  0.0543  0.0344
  179SAPS   O1420425   4.674   1.024   2.013  0.7655  0.3304  0.4843
  179SAPS   O1220426   4.755   0.801   2.078 -0.0715 -0.0935 -0.5175
  179SAPS   O1120427   4.721   0.991   2.249 -0.0575  0.6775 -0.0060
  179SAPS    C120428   4.641   0.903   2.325 -0.0589  0.2601  0.2049
  179SAPS    HA20429   4.541   0.919   2.281  0.9810  2.5976 -1.5219
  179SAPS    HB20430   4.677   0.798   2.320  2.7089  1.1497 -0.3486
  179SAPS    C220431   4.627   0.953   2.470  0.4411  0.3512  0.3931
  179SAPS    HS20432   4.568   0.880   2.529  1.5527 -0.1985  0.8619
  179SAPS   O2120433   4.561   1.080   2.469  0.4709 -0.8612 -0.2170
  179SAPS   C2120434   4.431   1.077   2.483  0.1938 -0.4459 -0.8069
  179SAPS   O2220435   4.368   0.974   2.510  0.3092  0.1670 -0.4609
  179SAPS   C2220436   4.369   1.212   2.481  0.0191  0.4857  0.0110
  179SAPS   H2R20437   4.423   1.257   2.395  1.7114 -4.8639 -2.0887
  179SAPS   H2S20438   4.258   1.205   2.474 -0.1220 -1.7420  2.7209
  179SAPS    C320439   4.764   0.965   2.544  0.1248 -0.0763  0.6111
  179SAPS    HX20440   4.828   1.026   2.476  1.7795  1.3632  3.2742
  179SAPS    HY20441   4.819   0.870   2.556 -0.7244 -1.0620 -2.3790
  179SAPS   O3120442   4.740   1.030   2.670 -0.1556 -0.3720  0.1305
  179SAPS   C3120443   4.773   1.158   2.679 -0.4648  0.0882 -0.4011
  179SAPS   O3220444   4.816   1.229   2.592 -0.3892  0.7767  0.3925
  179SAPS   C3220445   4.755   1.211   2.817  0.0140  0.2355  0.0936
  179SAPS   H2X20446   4.767   1.134   2.896 -1.4462  1.2208  1.3346
  179SAPS   H2Y20447   4.649   1.238   2.838 -0.2723 -0.4635 -0.4343
  179SAPS   C2320448   4.398   1.299   2.603 -0.3754  0.1072  0.0411
  179SAPS   H3R20449   4.346   1.397   2.598 -1.7143 -0.6335 -1.9259
  179SAPS   H3S20450   4.507   1.317   2.619  0.3292 -1.6046 -2.2101
  179SAPS   C2420451   4.325   1.228   2.723 -0.6377 -0.1330  0.4390
  179SAPS   H4R20452   4.364   1.125   2.736  0.0840  0.0703 -0.0238
  179SAPS   H4S20453   4.217   1.220   2.699 -0.4887  1.2477 -0.8431
  179SAPS   C2520454   4.354   1.318   2.839  0.1901 -0.3561 -0.2962
  179SAPS   H5R20455   4.345   1.423   2.810  1.1533 -0.0645  0.4416
  179SAPS   C2620456   4.379   1.287   2.964  0.1271 -0.9602  0.3842
  179SAPS   H6R20457   4.384   1.368   3.039 -0.5806 -1.4744  1.0010
  179SAPS   C2720458   4.380   1.145   3.020 -0.3413 -0.3782  0.6217
  179SAPS   H7R20459   4.399   1.076   2.935 -1.5724 -0.9065  0.7556
  179SAPS   H7S20460   4.276   1.124   3.052 -0.8476  3.3624  2.0212
  179SAPS   C2820461   4.478   1.118   3.133  0.4406  0.3184  0.0339
  179SAPS   H8R20462   4.576   1.084   3.095  0.2461 -0.5074  0.2400
  179SAPS   C2920463   4.450   1.129   3.265  0.2393 -0.5195 -0.3245
  179SAPS   H9R20464   4.529   1.117   3.341 -0.8594 -1.6035  0.6931
  179SAPS  C21020465   4.315   1.161   3.323 -0.1289 -0.7879  0.5255
  179SAPS  H10R20466   4.266   1.066   3.351 -0.8349  0.0508  2.3109
  179SAPS  H10S20467   4.247   1.197   3.243 -0.0330  1.1763  1.2654
  179SAPS  C21120468   4.319   1.268   3.429 -0.9929 -0.3317  0.1118
  179SAPS  H11R20469   4.362   1.362   3.392 -0.6928 -0.7255 -0.5475
  179SAPS  C21220470   4.273   1.259   3.553  0.2963  0.2171 -0.6230
  179SAPS  H12R20471   4.281   1.351   3.614 -1.2833  0.3599 -0.5961
  179SAPS  C21320472   4.206   1.138   3.624 -0.5093 -0.3699 -0.1214
  179SAPS  H13R20473   4.107   1.123   3.575 -0.2914  0.8456 -0.9852
  179SAPS  H13S20474   4.189   1.173   3.728 -1.4294  1.1089 -0.7349
  179SAPS  C21420475   4.300   1.022   3.629 -0.7537 -0.1328  0.1754
  179SAPS  H14R20476   4.344   0.994   3.532  0.6719 -0.2522  0.8243
  179SAPS  C21520477   4.333   0.946   3.730 -0.0390 -0.7864 -0.7246
  179SAPS  H15R20478   4.397   0.858   3.716  0.1009 -1.3033  2.4190
  179SAPS  C21620479   4.285   0.961   3.879 -0.3238 -0.0533 -0.6804
  179SAPS  H16R20480   4.212   1.045   3.888 -0.0045  0.2366 -0.7884
  179SAPS  H16S20481   4.374   0.996   3.936 -1.5796  3.8540 -0.8225
  179SAPS  C21720482   4.234   0.827   3.932  0.1283 -0.2075 -0.1646
  179SAPS  H17R20483   4.312   0.750   3.951  0.9073  0.0944 -2.0021
  179SAPS  H17S20484   4.157   0.793   3.859  0.1634 -0.1620 -0.2223
  179SAPS  C21820485   4.160   0.835   4.063  0.1063 -0.4369 -0.4582
  179SAPS  H18R20486   4.128   0.734   4.098  0.1649 -0.9019 -1.6870
  179SAPS  H18S20487   4.071   0.895   4.037 -0.2495  0.0267  1.5945
  179SAPS  C21920488   4.218   0.925   4.169  1.2649  0.7096  0.2938
  179SAPS  H19R20489   4.143   0.938   4.250 -0.3699  1.8666 -1.3224
  179SAPS  H19S20490   4.237   1.024   4.123 -0.9212  0.4270 -1.3487
  179SAPS  C22020491   4.349   0.866   4.228  0.0702 -1.1937 -0.0900
  179SAPS  H20R20492   4.388   0.942   4.300 -3.3507  2.3575 -1.6101
  179SAPS  H20S20493   4.428   0.862   4.150 -0.2996  1.0370 -0.6661
  179SAPS  H20T20494   4.335   0.770   4.282 -2.4522 -1.2744 -0.7932
  179SAPS   C3320495   4.854   1.332   2.841 -0.1707 -0.1992 -0.1878
  179SAPS   H3X20496   4.826   1.406   2.763 -3.7570 -0.2077  0.8956
  179SAPS   H3Y20497   4.957   1.293   2.828 -0.4436 -1.2291  0.5871
  179SAPS   C3420498   4.835   1.403   2.976 -0.8090  0.4606 -0.5292
  179SAPS   H4X20499   4.729   1.436   2.979  0.0236  3.3728 -0.0683
  179SAPS   H4Y20500   4.887   1.501   2.976 -1.5313  0.8590 -0.0665
  179SAPS   C3520501   4.869   1.320   3.104 -0.8314 -0.2384 -0.3661
  179SAPS   H5X20502   4.975   1.286   3.100 -1.0017 -0.7212 -1.0751
  179SAPS   H5Y20503   4.806   1.228   3.106 -0.0481 -0.7833 -0.3928
  179SAPS   C3620504   4.848   1.385   3.242 -0.1107  0.5031 -0.3304
  179SAPS   H6X20505   4.742   1.420   3.246 -0.4148  0.5653 -4.5329
  179SAPS   H6Y20506   4.914   1.474   3.249  0.5838 -0.1062  1.1702
  179SAPS   C3720507   4.868   1.289   3.359  0.0230  0.1769 -0.5469
  179SAPS   H7X20508   4.976   1.290   3.386 -0.5935  0.3509  2.2226
  179SAPS   H7Y20509   4.827   1.187   3.339 -0.9618  0.4757 -0.1372
  179SAPS   C3820510   4.812   1.343   3.492  0.0394  0.1412 -0.3985
  179SAPS   H8X20511   4.705   1.350   3.464  0.2055  0.6111 -0.9491
  179SAPS   H8Y20512   4.843   1.449   3.506  1.3033 -0.2920  0.1651
  179SAPS   C3920513   4.828   1.257   3.620  0.7687 -0.5598 -0.0329
  179SAPS   H9X20514   4.935   1.269   3.647  0.5945 -1.6478  1.2457
  179SAPS   H9Y20515   4.823   1.153   3.582  0.2561  0.1482 -2.0327
  179SAPS  C31020516   4.734   1.289   3.742 -0.3229  1.1255  0.4437
  179SAPS  H10X20517   4.634   1.302   3.696  0.0643 -0.1243 -0.8546
  179SAPS  H10Y20518   4.755   1.386   3.790  0.5115  1.3293 -0.3069
  179SAPS  C31120519   4.748   1.172   3.846 -0.0315  0.5450 -0.0799
  179SAPS  H11X20520   4.848   1.150   3.889  0.4401  2.5352 -0.0596
  179SAPS  H11Y20521   4.706   1.083   3.796 -1.2411 -0.1289  1.9820
  179SAPS  C31220522   4.650   1.203   3.956  1.1100  0.9676 -0.1927
  179SAPS  H12X20523   4.550   1.194   3.910  1.3367 -0.6608 -0.4357
  179SAPS  H12Y20524   4.675   1.303   3.997  1.9563  1.1538 -1.1076
  179SAPS  C31320525   4.650   1.105   4.072 -0.9460  0.0605  0.1209
  179SAPS  H13X20526   4.621   1.000   4.052 -0.0288 -0.3884  1.0796
  179SAPS  H13Y20527   4.563   1.129   4.137 -0.4352 -0.8247  1.1643
  179SAPS  C31420528   4.775   1.110   4.161 -0.0082  0.9419  0.1629
  179SAPS  H14X20529   4.814   1.210   4.193 -0.3289  1.3171 -0.6011
  179SAPS  H14Y20530   4.848   1.069   4.089  0.9145  2.0213  0.4461
  179SAPS  C31520531   4.775   1.014   4.284 -0.1176  0.1873 -0.0150
  179SAPS  H15X20532   4.881   0.996   4.311  0.0009  1.4157  0.4125
  179SAPS  H15Y20533   4.711   0.927   4.256  2.2210 -1.8288  0.5613
  179SAPS  C31620534   4.743   1.077   4.423  1.2004  0.0494  0.3059
  179SAPS  H16X20535   4.635   1.100   4.420  0.2130 -3.8273 -2.0946
  179SAPS  H16Y20536   4.801   1.172   4.426  1.7245 -0.2280 -0.5434
  179SAPS  C31720537   4.773   0.999   4.543 -0.3952 -0.4940 -0.3941
  179SAPS  H17X20538   4.757   1.062   4.633  3.4196 -0.1554  0.2129
  179SAPS  H17Y20539   4.880   0.969   4.549 -0.5349 -0.9762 -0.2951
  179SAPS  C31820540   4.701   0.860   4.570  0.0989  0.3006 -0.1744
  179SAPS  H18X20541   4.729   0.816   4.669 -0.4676 -0.9327 -0.5386
  179SAPS  H18Y20542   4.721   0.782   4.494 -2.0198 -0.5290  0.0249
  179SAPS  H18Z20543   4.590   0.869   4.567 -0.2813 -3.2269 -1.6805
  180SAPS     N20544   5.728   0.075   2.064  0.1542 -0.0330 -0.9342
  180SAPS   HN120545   5.803   0.021   2.017  2.2287  1.3835  0.5998
  180SAPS   HN220546   5.762   0.131   2.144  0.5067 -1.9947  0.3593
  180SAPS   HN320547   5.662   0.005   2.104  0.3566 -0.2957 -1.0613
  180SAPS   C1220548   5.655   0.168   1.976 -0.4660  0.0958 -0.1146
  180SAPS  H12A20549   5.724   0.244   1.944 -0.4049 -0.9920 -2.7965
  180SAPS   C1320550   5.587   0.113   1.842  0.1828 -0.0175  0.9593
  180SAPS  O13A20551   5.596  -0.007   1.828 -0.5567 -0.1719  0.0867
  180SAPS  O13B20552   5.526   0.186   1.761 -0.4534  0.1143  0.3075
  180SAPS   C1120553   5.548   0.250   2.059  0.1796 -0.1062 -0.0740
  180SAPS  H11A20554   5.505   0.334   2.001 -0.6702  1.1774  2.2830
  180SAPS  H11B20555   5.609   0.290   2.143  1.3840 -4.6766  1.5696
  180SAPS     P20556   5.329   0.203   2.206  0.4737 -0.3668  0.6787
  180SAPS   O1320557   5.245   0.310   2.143 -0.0266 -0.5371 -0.1240
  180SAPS   O1420558   5.262   0.087   2.259  0.2448  0.2305 -0.5828
  180SAPS   O1220559   5.444   0.153   2.106  0.3273 -0.8730  0.2877
  180SAPS   O1120560   5.417   0.254   2.327  0.2864 -0.3234 -0.6394
  180SAPS    C120561   5.533   0.181   2.370  0.1723 -0.1825 -0.7149
  180SAPS    HA20562   5.572   0.119   2.287 -1.8926 -1.3655 -0.8669
  180SAPS    HB20563   5.595   0.257   2.422 -1.6326  0.3469  0.7902
  180SAPS    C220564   5.512   0.091   2.497  0.4273 -0.0242 -0.6135
  180SAPS    HS20565   5.456   0.002   2.463 -1.0080  1.2441 -1.7056
  180SAPS   O2120566   5.443   0.167   2.597 -0.4644  0.6402  0.9624
  180SAPS   C2120567   5.361   0.092   2.674 -0.7379  0.2528 -0.1191
  180SAPS   O2220568   5.325  -0.021   2.651 -0.2792  0.1032  0.3731
  180SAPS   C2220569   5.325   0.171   2.797  0.4609 -0.5709 -0.6993
  180SAPS   H2R20570   5.257   0.254   2.767  2.4092  0.9791 -0.9918
  180SAPS   H2S20571   5.279   0.101   2.869  0.7461  2.2832  2.4954
  180SAPS    C320572   5.654   0.049   2.553  0.0283  0.3102  0.0668
  180SAPS    HX20573   5.709   0.141   2.583  0.7126  0.3311 -1.2001
  180SAPS    HY20574   5.715   0.010   2.469 -2.6015  1.3077 -2.4878
  180SAPS   O3120575   5.643  -0.048   2.665 -0.4068 -0.2778  0.5181
  180SAPS   C3120576   5.613  -0.170   2.630 -0.2081  0.0172 -0.6418
  180SAPS   O3220577   5.587  -0.210   2.516 -0.8172 -0.2895 -0.5909
  180SAPS   C3220578   5.624  -0.260   2.747 -0.4654 -0.6407 -0.2633
  180SAPS   H2X20579   5.722  -0.242   2.796 -0.1092 -0.0377 -1.1774
  180SAPS   H2Y20580   5.630  -0.361   2.701 -0.5149 -0.7806  0.0370
  180SAPS   C2320581   5.448   0.238   2.862  0.0772 -0.3458  0.5093
  180SAPS   H3R20582   5.410   0.301   2.945 -0.1130 -1.7536  1.5285
  180SAPS   H3S20583   5.484   0.318   2.794  1.1935  1.9843  3.6079
  180SAPS   C2420584   5.551   0.140   2.918 -0.2960 -0.4343  0.4164
  180SAPS   H4R20585   5.598   0.081   2.836 -0.4844  1.5860 -1.2258
  180SAPS   H4S20586   5.497   0.075   2.989 -1.2846 -0.2601 -0.1538
  180SAPS   C2520587   5.663   0.218   2.989 -0.0761  0.5087 -0.4671
  180SAPS   H5R20588   5.734   0.267   2.921  0.0476  1.5362  0.3766
  180SAPS   C2620589   5.699   0.211   3.120 -0.2229  0.7770  0.4692
  180SAPS   H6R20590   5.782   0.274   3.153  0.6299 -0.6801  1.2062
  180SAPS   C2720591   5.640   0.117   3.217 -0.1966 -0.1722  0.5303
  180SAPS   H7R20592   5.712   0.035   3.238 -1.1545 -1.0572  0.3941
  180SAPS   H7S20593   5.549   0.060   3.189 -0.1103 -0.7381  1.3573
  180SAPS   C2820594   5.612   0.192   3.349  0.1243 -0.5933 -0.0956
  180SAPS   H8R20595   5.553   0.284   3.350 -0.1525 -0.7383  1.8727
  180SAPS   C2920596   5.628   0.141   3.478  0.6343 -0.2898  0.2931
  180SAPS   H9R20597   5.583   0.199   3.559 -2.0112 -0.9504 -0.6267
  180SAPS  C21020598   5.693   0.013   3.513  0.2928 -0.1520 -0.4759
  180SAPS  H10R20599   5.787   0.023   3.572  1.2989  1.1362 -2.1856
  180SAPS  H10S20600   5.712  -0.046   3.421 -1.1677  1.8037 -2.1125
  180SAPS  C21120601   5.591  -0.068   3.586 -0.1513  0.1869 -0.3034
  180SAPS  H11R20602   5.509  -0.109   3.525 -2.2123  1.9097  1.1590
  180SAPS  C21220603   5.604  -0.131   3.706 -0.6607 -0.5651  0.0869
  180SAPS  H12R20604   5.525  -0.202   3.734  1.8289 -3.1591  1.1410
  180SAPS  C21320605   5.709  -0.114   3.812  0.0095  0.2073  0.5748
  180SAPS  H13R20606   5.793  -0.050   3.775  1.1366 -1.4336  0.1500
  180SAPS  H13S20607   5.762  -0.211   3.819  0.4227  0.3284 -0.6264
  180SAPS  C21420608   5.644  -0.078   3.944  0.2202 -0.3308  0.3884
  180SAPS  H14R20609   5.678   0.023   3.973  2.6062 -0.7416 -0.7457
  180SAPS  C21520610   5.584  -0.156   4.035  0.0503  0.4661  0.0564
  180SAPS  H15R20611   5.549  -0.107   4.127 -0.8404  2.3619 -1.2319
  180SAPS  C21620612   5.551  -0.303   4.016  0.2111 -0.2683 -0.0566
  180SAPS  H16R20613   5.614  -0.357   3.942 -0.5761 -0.3325 -0.6942
  180SAPS  H16S20614   5.445  -0.309   3.981  0.0218 -0.9963  0.6013
  180SAPS  C21720615   5.560  -0.375   4.154 -0.5306 -0.0462  0.3074
  180SAPS  H17R20616   5.666  -0.379   4.186 -1.2818  1.9397  3.4166
  180SAPS  H17S20617   5.532  -0.480   4.130  1.3569 -0.4315 -0.3182
  180SAPS  C21820618   5.475  -0.316   4.264 -0.3576  0.3706  1.1064
  180SAPS  H18R20619   5.392  -0.258   4.218  1.4760 -0.2133 -3.5081
  180SAPS  H18S20620   5.531  -0.238   4.320 -0.5118  1.9153 -0.7785
  180SAPS  C21920621   5.411  -0.417   4.360 -0.2036  0.5309 -0.5925
  180SAPS  H19R20622   5.399  -0.375   4.462  3.0422 -2.6825  1.3852
  180SAPS  H19S20623   5.481  -0.503   4.374 -0.6340  0.3667  0.7320
  180SAPS  C22020624   5.279  -0.480   4.315  0.0787  0.2169 -0.3572
  180SAPS  H20R20625   5.199  -0.404   4.312  0.5861  0.9507  2.0682
  180SAPS  H20S20626   5.303  -0.521   4.215 -0.0465  0.7453 -0.6059
  180SAPS  H20T20627   5.231  -0.554   4.383 -1.7563  0.8619 -0.9230
  180SAPS   C3320628   5.505  -0.254   2.852 -0.5346  0.2074  0.0263
  180SAPS   H3X20629   5.410  -0.295   2.812 -0.7404  0.9334 -0.2528
  180SAPS   H3Y20630   5.481  -0.147   2.869 -0.8608 -0.0273  1.1883
  180SAPS   C3420631   5.540  -0.320   2.988 -0.3728  0.3958 -0.4767
  180SAPS   H4X20632   5.614  -0.249   3.030 -1.9126  0.6221  2.0632
  180SAPS   H4Y20633   5.579  -0.423   2.975 -1.0949  0.3819 -3.1846
  180SAPS   C3520634   5.426  -0.318   3.093 -0.4507  0.1216  0.9616
  180SAPS   H5X20635   5.351  -0.382   3.041 -2.0493  2.4912  0.1752
  180SAPS   H5Y20636   5.389  -0.213   3.100  0.2702  0.5870 -1.2191
  180SAPS   C3620637   5.466  -0.372   3.231 -0.8478 -0.6498  0.2629
  180SAPS   H6X20638   5.546  -0.305   3.268 -0.0258 -2.7410  2.5317
  180SAPS   H6Y20639   5.508  -0.475   3.227 -2.8144 -1.5938  2.1974
  180SAPS   C3720640   5.357  -0.384   3.328  0.3868  0.3895  0.3530
  180SAPS   H7X20641   5.387  -0.426   3.427 -0.4586 -2.2727 -0.4195
  180SAPS   H7Y20642   5.273  -0.448   3.293 -0.2333  0.5456  1.4718
  180SAPS   C3820643   5.276  -0.252   3.353  1.3063  0.9113  0.3604
  180SAPS   H8X20644   5.220  -0.239   3.257 -0.7808  0.0636  1.3989
  180SAPS   H8Y20645   5.348  -0.168   3.352  2.7164 -0.2521 -1.3527
  180SAPS   C3920646   5.173  -0.247   3.469 -0.3462  0.1287 -0.0454
  180SAPS   H9X20647   5.105  -0.333   3.451 -0.2922 -0.2976  1.6347
  180SAPS   H9Y20648   5.122  -0.150   3.454 -1.5632 -0.3881  0.6373
  180SAPS  C31020649   5.227  -0.228   3.602  0.1177  0.4467 -0.1042
  180SAPS  H10X20650   5.272  -0.126   3.600  0.5640  0.2601 -2.5982
  180SAPS  H10Y20651   5.300  -0.306   3.632  0.4581  0.4764 -0.8301
  180SAPS  C31120652   5.120  -0.224   3.722 -1.1471 -0.5445 -0.0161
  180SAPS  H11X20653   5.050  -0.309   3.711 -0.0358 -1.8462  2.1898
  180SAPS  H11Y20654   5.063  -0.129   3.713  0.8325  0.5700 -1.6192
  180SAPS  C31220655   5.180  -0.226   3.866 -0.1135  0.4523 -0.1811
  180SAPS  H12X20656   5.249  -0.139   3.877  1.2853 -0.4411 -1.4190
  180SAPS  H12Y20657   5.233  -0.323   3.878 -0.1069  0.6645  1.7332
  180SAPS  C31320658   5.076  -0.229   3.977  0.3044 -0.1462 -0.2896
  180SAPS  H13X20659   5.123  -0.285   4.060  1.5509  1.5777  0.2385
  180SAPS  H13Y20660   4.994  -0.296   3.945  0.3678 -0.1298 -0.4889
  180SAPS  C31420661   5.015  -0.094   4.012 -0.0790 -0.5732  0.0753
  180SAPS  H14X20662   4.961  -0.060   3.921 -0.8549 -0.4801  0.5672
  180SAPS  H14Y20663   5.099  -0.023   4.026 -1.7495  1.0091  2.7042
  180SAPS  C31520664   4.910  -0.098   4.118  0.0799  0.3321  0.4155
  180SAPS  H15X20665   4.937  -0.182   4.186 -0.4073 -0.4283 -0.3099
  180SAPS  H15Y20666   4.820  -0.141   4.070  0.6559  0.1839 -0.5518
  180SAPS  C31620667   4.876   0.026   4.198  0.3044 -0.8684 -0.3397
  180SAPS  H16X20668   4.967   0.038   4.260  0.9847 -1.5929 -1.1690
  180SAPS  H16Y20669   4.792   0.001   4.266  1.0671  2.2009  1.9307
  180SAPS  C31720670   4.844   0.155   4.116 -0.5862 -0.3236  0.0910
  180SAPS  H17X20671   4.924   0.185   4.046  0.4006  1.4813  1.8732
  180SAPS  H17Y20672   4.811   0.234   4.187 -1.1378 -0.1468 -0.3499
  180SAPS  C31820673   4.715   0.130   4.035 -0.0473  0.5747 -0.1111
  180SAPS  H18X20674   4.693   0.227   3.985  0.8333  0.3792 -0.9195
  180SAPS  H18Y20675   4.635   0.085   4.098  1.6392 -1.9803  0.3937
  180SAPS  H18Z20676   4.730   0.057   3.952  0.7264  1.1466 -0.4907
  181POPC     N20677   5.382   6.715   6.591  0.2919 -0.4641 -0.1235
  181POPC   C1220678   5.344   6.745   6.450  0.6788 -0.2773  0.0021
  181POPC  H12A20679   5.263   6.683   6.414  1.2927  0.5300 -3.0031
  181POPC  H12B20680   5.423   6.710   6.385  1.2463  3.9726 -1.9117
  181POPC   C1320681   5.434   6.578   6.608 -0.4191  0.4204  0.4867
  181POPC  H13A20682   5.516   6.560   6.541 -2.3892  0.4685 -2.0749
  181POPC  H13B20683   5.457   6.555   6.711  3.1216  0.1995 -0.2213
  181POPC  H13C20684   5.352   6.516   6.575  0.7226 -0.8704 -0.0378
  181POPC   C1420685   5.491   6.810   6.628  0.0198 -0.2766  0.0138
  181POPC  H14A20686   5.577   6.797   6.564 -1.0359  0.0234 -1.5118
  181POPC  H14B20687   5.467   6.915   6.623  0.8164  0.0245  1.6043
  181POPC  H14C20688   5.523   6.799   6.731  3.2621  0.9725 -0.7307
  181POPC   C1520689   5.259   6.739   6.678 -0.0226  0.3944 -0.2839
  181POPC  H15A20690   5.183   6.670   6.647  0.5047 -1.0084  1.3876
  181POPC  H15B20691   5.226   6.839   6.654 -0.0876  0.6787  0.9016
  181POPC  H15C20692   5.281   6.742   6.784  3.6460 -0.6113 -0.8998
  181POPC   C1120693   5.298   6.886   6.414  0.6875  0.5959  0.4829
  181POPC  H11A20694   5.291   6.885   6.304  0.1321 -0.3404  0.5156
  181POPC  H11B20695   5.382   6.954   6.442  0.6802  0.7888  0.0374
  181POPC     P20696   5.117   7.068   6.493  0.4523  0.2330  0.2056
  181POPC   O1320697   5.236   7.130   6.541  0.0878  0.2849 -0.4859
  181POPC   O1420698   4.992   7.075   6.569  0.0419 -0.7444  0.1988
  181POPC   O1220699   5.161   6.913   6.471  0.3593  0.1642  0.6670
  181POPC   O1120700   5.089   7.101   6.344 -0.1428  0.0742 -0.5937
  181POPC    C120701   4.994   7.193   6.301  0.4218 -0.2937  0.0066
  181POPC    HA20702   5.037   7.295   6.301 -0.4656  0.0834  0.1391
  181POPC    HB20703   4.904   7.197   6.367  1.3201 -0.8129  1.3182
  181POPC    C220704   4.948   7.158   6.161 -0.1347  0.0520 -0.1318
  181POPC    HS20705   4.870   7.081   6.177  0.2795 -0.2838  0.3008
  181POPC   O2120706   5.049   7.106   6.074  0.0335  0.4606  0.2014
  181POPC   C2120707   5.077   6.982   6.094 -0.0903  0.1932  0.0578
  181POPC   O2220708   5.014   6.895   6.149  0.2804 -0.1661 -0.2157
  181POPC   C2220709   5.208   6.955   6.024  0.9267  0.9312  0.4927
  181POPC   H2R20710   5.286   6.989   6.097 -0.6137  0.1743  2.5950
  181POPC   H2S20711   5.208   7.008   5.927 -1.8223 -1.4473 -0.9411
  181POPC    C320712   4.892   7.289   6.100  0.1775 -0.4982 -0.1204
  181POPC    HX20713   4.964   7.372   6.103 -1.3397  0.8462  0.8970
  181POPC    HY20714   4.816   7.331   6.169  0.3512  1.0072 -0.8090
  181POPC   O3120715   4.841   7.281   5.967 -0.5928  0.3268  0.0128
  181POPC   C3120716   4.716   7.229   5.970  0.0150  0.0951 -0.5719
  181POPC   O3220717   4.651   7.210   6.066 -0.1852  0.4134 -0.0616
  181POPC   C3220718   4.666   7.180   5.829 -0.4372  1.0013  0.3220
  181POPC   H2X20719   4.699   7.075   5.809 -1.9931  0.6193 -0.3813
  181POPC   H2Y20720   4.713   7.248   5.755  2.1815 -1.0589 -0.1015
  181POPC   C2320721   5.221   6.803   5.989  0.0067  0.7445  0.6443
  181POPC   H3R20722   5.157   6.741   6.056 -0.2272  2.1505  1.7769
  181POPC   H3S20723   5.324   6.775   6.020  0.4198  0.7785 -0.6667
  181POPC   C2420724   5.209   6.773   5.842 -0.1466  0.6708  0.1507
  181POPC   H4R20725   5.222   6.662   5.841  0.7196  0.7677 -0.1385
  181POPC   H4S20726   5.295   6.818   5.789  1.8792 -2.5069  0.4370
  181POPC   C2520727   5.069   6.809   5.792 -0.6378  0.1184  0.0374
  181POPC   H5R20728   5.067   6.919   5.780 -2.2202 -0.0467 -1.6225
  181POPC   H5S20729   4.988   6.791   5.866  0.7562  0.6044  1.7735
  181POPC   C2620730   5.034   6.739   5.652 -0.3480  0.9414  0.0930
  181POPC   H6R20731   4.938   6.778   5.611 -0.9817  0.0568  0.6916
  181POPC   H6S20732   5.018   6.629   5.652 -0.0415  0.8701 -1.4577
  181POPC   C2720733   5.146   6.768   5.549 -0.2397 -0.5113 -0.2078
  181POPC   H7R20734   5.236   6.703   5.561  1.1249  0.8891 -2.1936
  181POPC   H7S20735   5.175   6.874   5.567 -0.1705 -0.3565 -1.1943
  181POPC   C2820736   5.097   6.739   5.408 -0.2427  0.0503  1.2721
  181POPC   H8R20737   4.999   6.790   5.392 -1.4476 -1.6696  2.7760
  181POPC   H8S20738   5.068   6.632   5.398 -0.7981  0.2826  0.2553
  181POPC   C2920739   5.209   6.781   5.312 -0.7408 -0.3051  0.4084
  181POPC   H9120740   5.305   6.750   5.355 -0.5978 -0.4078  0.0227
  181POPC  C21020741   5.196   6.847   5.191 -0.5848 -0.3344 -0.1979
  181POPC  H10120742   5.292   6.855   5.137 -0.0549 -1.3939  0.5456
  181POPC  C21120743   5.072   6.909   5.131  0.7044  0.3560  1.0015
  181POPC  H11R20744   5.093   7.011   5.092 -0.1822  0.0215 -0.4082
  181POPC  H11S20745   4.976   6.916   5.187  0.7094 -0.6290  1.1558
  181POPC  C21220746   5.049   6.816   5.009 -0.2632 -0.6343 -0.5476
  181POPC  H12R20747   5.011   6.719   5.046 -0.1620 -1.2212 -1.9154
  181POPC  H12S20748   5.143   6.791   4.956 -0.0636 -0.9603 -0.0409
  181POPC  C21320749   4.949   6.867   4.900  0.2217  0.1738 -0.4494
  181POPC  H13R20750   4.988   6.962   4.859  1.6919  0.8751  2.3434
  181POPC  H13S20751   4.855   6.908   4.943  0.2110 -1.1147  0.8668
  181POPC  C21420752   4.931   6.756   4.799 -0.3677 -0.0640  0.6988
  181POPC  H14R20753   4.870   6.670   4.835 -0.8822 -1.3228 -2.8563
  181POPC  H14S20754   5.035   6.723   4.776 -0.6584 -0.8849  0.5327
  181POPC  C21520755   4.873   6.785   4.663 -0.0896 -0.2936  0.2591
  181POPC  H15R20756   4.917   6.887   4.651 -0.0601 -0.4475 -1.2090
  181POPC  H15S20757   4.762   6.797   4.665  0.0222  1.4729 -0.9139
  181POPC  C21620758   4.922   6.688   4.555 -0.4514  0.3767  0.4757
  181POPC  H16R20759   5.027   6.663   4.582  0.1708  0.6756 -1.5457
  181POPC  H16S20760   4.920   6.748   4.462 -0.7344 -1.7222 -0.9344
  181POPC  C21720761   4.842   6.559   4.541  0.6129 -0.4762 -0.0537
  181POPC  H17R20762   4.733   6.579   4.530 -0.0078 -3.2180  0.1638
  181POPC  H17S20763   4.847   6.490   4.629 -2.1661 -1.0627 -0.2468
  181POPC  C21820764   4.879   6.477   4.409  0.0523 -0.2226  0.2042
  181POPC  H18R20765   4.819   6.386   4.391 -0.8312 -0.0174  1.9432
  181POPC  H18S20766   4.983   6.438   4.414  0.1548 -0.4335 -2.1359
  181POPC  H18T20767   4.873   6.533   4.313 -2.6034 -0.6632  0.0507
  181POPC   C3320768   4.512   7.167   5.818 -0.1816  0.0407 -0.8086
  181POPC   H3X20769   4.465   7.267   5.830  0.1527  0.0749  0.3144
  181POPC   H3Y20770   4.487   7.107   5.908  5.4269  3.0283  3.3848
  181POPC   C3420771   4.471   7.098   5.685  0.7148  0.1619 -0.1845
  181POPC   H4X20772   4.514   6.996   5.677  0.3744  0.0745 -0.9568
  181POPC   H4Y20773   4.513   7.157   5.601 -0.0295  0.2085 -0.5312
  181POPC   C3520774   4.321   7.109   5.672 -0.0510 -0.2729 -0.0943
  181POPC   H5X20775   4.292   7.215   5.684 -1.2711 -0.4294 -1.3292
  181POPC   H5Y20776   4.286   7.055   5.763  1.6701 -1.9635 -0.3557
  181POPC   C3620777   4.266   7.038   5.547 -0.5202 -0.2369  0.8414
  181POPC   H6X20778   4.156   7.030   5.543 -0.4375 -0.8150 -0.8237
  181POPC   H6Y20779   4.308   6.935   5.538 -0.1284  0.0455 -0.9724
  181POPC   C3720780   4.302   7.108   5.412 -0.7790 -0.1558 -0.1796
  181POPC   H7X20781   4.410   7.112   5.387 -0.8275  1.5141 -0.2177
  181POPC   H7Y20782   4.269   7.213   5.426  1.7096  0.3698  2.4514
  181POPC   C3820783   4.224   7.059   5.289  0.0281 -0.4765 -0.1624
  181POPC   H8X20784   4.115   7.070   5.307 -0.2479 -1.5971 -1.0295
  181POPC   H8Y20785   4.250   6.951   5.277 -1.3220 -0.5251 -3.9664
  181POPC   C3920786   4.258   7.130   5.162  0.5224 -0.3370 -0.7628
  181POPC   H9X20787   4.364   7.108   5.134  1.2556  1.0737  0.7236
  181POPC   H9Y20788   4.230   7.235   5.182 -3.6731 -1.3723 -0.2294
  181POPC  C31020789   4.174   7.091   5.040  0.1322  0.3694  0.1262
  181POPC  H10X20790   4.069   7.124   5.052 -0.3758 -1.3433  0.6544
  181POPC  H10Y20791   4.172   6.980   5.034  0.8373  0.3393  0.3232
  181POPC  C31120792   4.243   7.138   4.915  0.2843  0.5972 -0.3199
  181POPC  H11X20793   4.351   7.116   4.921  0.0128 -0.5461  0.7954
  181POPC  H11Y20794   4.236   7.249   4.904  1.4967  0.8749  1.4692
  181POPC  C31220795   4.196   7.070   4.787  0.1748  0.2981  0.6378
  181POPC  H12X20796   4.101   7.108   4.742  0.2300  0.3670  0.5793
  181POPC  H12Y20797   4.167   6.963   4.798 -2.4402  0.6449 -1.7243
  181POPC  C31320798   4.307   7.077   4.684 -0.4102  0.0006 -0.0742
  181POPC  H13X20799   4.407   7.047   4.722  1.0373  1.4241 -2.4965
  181POPC  H13Y20800   4.329   7.180   4.649  2.4291 -1.5196 -3.4218
  181POPC  C31420801   4.291   7.004   4.553 -0.1430 -0.2468 -0.5025
  181POPC  H14X20802   4.190   7.032   4.516 -0.1589 -0.1215 -0.3668
  181POPC  H14Y20803   4.296   6.894   4.569  0.6871 -0.0008  1.1580
  181POPC  C31520804   4.397   7.027   4.446 -0.5441  0.3772 -0.5235
  181POPC  H15X20805   4.498   7.014   4.490 -0.2659 -0.0895 -1.2826
  181POPC  H15Y20806   4.397   7.130   4.405 -0.3850  0.2421 -0.8639
  181POPC  C31620807   4.394   6.917   4.342  0.5876  0.8092  0.1486
  181POPC  H16X20808   4.298   6.920   4.287  0.2011  3.0239  0.8513
  181POPC  H16Y20809   4.418   6.814   4.377 -1.2142 -0.2227 -1.4874
  181POPC  H16Z20810   4.477   6.924   4.268  1.7921  2.4179  1.5708
  182POPC     N20811   0.706   6.333   6.913  0.4692 -0.1958  0.0514
  182POPC   C1220812   0.571   6.280   6.963 -0.6191 -0.0947  0.0457
  182POPC  H12A20813   0.499   6.319   6.892  2.0526  2.5770 -1.4424
  182POPC  H12B20814   0.543   6.322   7.058  2.1586  0.1163  0.8747
  182POPC   C1320815   0.717   6.480   6.927  0.0486  0.4987 -0.1920
  182POPC  H13A20816   0.701   6.503   7.031 -2.8855 -1.1717 -0.1757
  182POPC  H13B20817   0.809   6.519   6.886  0.8536  1.5396  2.3723
  182POPC  H13C20818   0.630   6.523   6.880  1.0036  0.3191 -2.2208
  182POPC   C1420819   0.821   6.270   6.987 -0.8641 -0.6421 -0.3349
  182POPC  H14A20820   0.822   6.321   7.082 -0.3021 -0.1191 -0.6110
  182POPC  H14B20821   0.803   6.165   7.000 -0.8857 -0.6510 -0.4386
  182POPC  H14C20822   0.916   6.292   6.941  0.0024 -0.8974  1.2623
  182POPC   C1520823   0.722   6.306   6.768 -0.4205 -0.7558  0.1792
  182POPC  H15A20824   0.672   6.377   6.703  0.5433 -0.5379 -0.3517
  182POPC  H15B20825   0.699   6.205   6.740  0.3469 -1.0248  0.4871
  182POPC  H15C20826   0.825   6.331   6.747 -0.7242 -1.2177 -2.1674
  182POPC   C1120827   0.561   6.126   6.968  0.6941 -0.0191 -0.2603
  182POPC  H11A20828   0.460   6.103   7.008  0.3717 -0.7427 -1.4347
  182POPC  H11B20829   0.630   6.081   7.043  0.3567 -0.5683 -0.2788
  182POPC     P20830   0.464   6.069   6.727  0.1429 -0.2557 -0.1014
  182POPC   O1320831   0.528   6.078   6.596 -0.2402 -0.3610 -0.2449
  182POPC   O1420832   0.361   6.170   6.762 -0.5365  0.5899 -0.1342
  182POPC   O1220833   0.577   6.068   6.843 -0.4694 -0.2417  0.3838
  182POPC   O1120834   0.407   5.922   6.738  0.0406 -0.1026 -0.4940
  182POPC    C120835   0.446   5.810   6.661  0.6367 -0.5301 -0.0469
  182POPC    HA20836   0.439   5.719   6.724  0.6900  0.4891  1.4850
  182POPC    HB20837   0.550   5.819   6.623  0.5955 -2.6244 -0.8120
  182POPC    C220838   0.353   5.769   6.543  0.3361 -0.3056 -0.5362
  182POPC    HS20839   0.362   5.659   6.535  0.4145 -0.3374 -0.0900
  182POPC   O2120840   0.373   5.842   6.419 -0.0305 -0.0684 -0.3719
  182POPC   C2120841   0.478   5.802   6.354  0.4230  0.3795  0.0842
  182POPC   O2220842   0.544   5.704   6.381  0.4363  0.1766 -0.1751
  182POPC   C2220843   0.494   5.903   6.237 -0.1872  0.0051  0.8419
  182POPC   H2R20844   0.545   5.992   6.280  0.1425  0.4994 -0.5222
  182POPC   H2S20845   0.389   5.924   6.208  0.2452 -0.8580 -1.5191
  182POPC    C320846   0.205   5.802   6.577  0.3088 -0.5373  0.2124
  182POPC    HX20847   0.171   5.900   6.616 -1.3470  0.7168 -3.7615
  182POPC    HY20848   0.166   5.739   6.660 -3.2210 -0.5873 -1.2671
  182POPC   O3120849   0.117   5.777   6.470  0.0940  0.1715 -0.2201
  182POPC   C3120850   0.093   5.885   6.384 -0.3153 -0.0497  0.2787
  182POPC   O3220851   0.125   5.999   6.404  0.2288 -0.4611  0.8521
  182POPC   C3220852   0.027   5.837   6.261 -0.0165  1.2249  0.0266
  182POPC   H2X20853  -0.077   5.876   6.267 -1.3057 -1.9481  0.1019
  182POPC   H2Y20854   0.015   5.727   6.268  2.2365  0.8219 -1.3715
  182POPC   C2320855   0.579   5.844   6.115 -0.7808  0.0091  0.3690
  182POPC   H3R20856   0.533   5.745   6.097 -2.4492  1.1020 -1.8831
  182POPC   H3S20857   0.686   5.819   6.132 -0.7388 -0.2791 -0.2799
  182POPC   C2420858   0.575   5.936   5.995 -0.1280  0.1936  0.1749
  182POPC   H4R20859   0.666   5.927   5.932 -0.2877  2.8950 -0.5804
  182POPC   H4S20860   0.592   6.042   6.024 -2.5673  0.5993  0.3072
  182POPC   C2520861   0.448   5.939   5.909 -0.3051  0.6895  0.2023
  182POPC   H5R20862   0.361   5.960   5.976  0.9576 -0.2217  2.2220
  182POPC   H5S20863   0.426   5.835   5.877  0.3393  0.5082  0.3410
  182POPC   C2620864   0.460   6.036   5.790 -0.2661 -0.0554 -0.4052
  182POPC   H6R20865   0.565   6.070   5.777 -0.2628  0.8964  1.6917
  182POPC   H6S20866   0.404   6.128   5.819  0.6092  1.4641 -3.1899
  182POPC   C2720867   0.428   5.964   5.656 -0.0325  0.4631  0.0179
  182POPC   H7R20868   0.327   5.919   5.664  0.1413  0.2588  1.2088
  182POPC   H7S20869   0.506   5.886   5.642 -1.3417 -0.7453 -0.8866
  182POPC   C2820870   0.422   6.065   5.546 -0.7373  0.0936  0.2222
  182POPC   H8R20871   0.522   6.108   5.525 -0.8261 -0.0223 -0.4819
  182POPC   H8S20872   0.362   6.153   5.579 -1.2118 -0.1095 -0.0834
  182POPC   C2920873   0.376   5.986   5.424  0.4570 -0.0131 -0.5783
  182POPC   H9120874   0.402   5.879   5.427  0.2780 -0.0262  1.3489
  182POPC  C21020875   0.305   6.030   5.316 -0.2663  0.0878  0.3172
  182POPC  H10120876   0.293   5.955   5.237  1.5262 -0.5907  0.6623
  182POPC  C21120877   0.262   6.174   5.290  1.7478 -0.2619  0.0178
  182POPC  H11R20878   0.295   6.233   5.378  0.0397  0.0214  0.4923
  182POPC  H11S20879   0.152   6.186   5.287  1.6715 -0.8949  0.0631
  182POPC  C21220880   0.325   6.235   5.162  0.3925 -0.0743 -0.1479
  182POPC  H12R20881   0.432   6.207   5.167  0.0952 -1.0035  1.9184
  182POPC  H12S20882   0.312   6.343   5.183 -1.4100 -0.6496  2.1293
  182POPC  C21320883   0.264   6.186   5.029  0.4995  0.2684 -1.0211
  182POPC  H13R20884   0.154   6.206   5.031 -0.0115 -2.1086  2.3740
  182POPC  H13S20885   0.270   6.075   5.038  2.1637  0.4848  1.7224
  182POPC  C21420886   0.327   6.238   4.896 -0.2637  0.7409 -0.3372
  182POPC  H14R20887   0.436   6.219   4.889 -0.4966 -0.2157 -1.8668
  182POPC  H14S20888   0.312   6.348   4.895  1.3768  0.9951 -1.7482
  182POPC  C21520889   0.251   6.189   4.769  0.0347 -0.9521 -0.5281
  182POPC  H15R20890   0.155   6.245   4.771  0.4450 -0.2295  1.3806
  182POPC  H15S20891   0.235   6.080   4.782  0.8845 -0.8264  2.3160
  182POPC  C21620892   0.331   6.223   4.648 -0.0267 -0.0484  0.2685
  182POPC  H16R20893   0.432   6.178   4.638  0.2154  0.9786 -4.2072
  182POPC  H16S20894   0.347   6.333   4.647  0.0537 -0.0485 -1.1875
  182POPC  C21720895   0.257   6.189   4.518 -0.0587 -0.1643  0.2593
  182POPC  H17R20896   0.314   6.217   4.427  0.2674 -1.2430  0.1191
  182POPC  H17S20897   0.173   6.262   4.515 -3.1615 -3.3539  2.3674
  182POPC  C21820898   0.204   6.052   4.496 -0.2504 -0.0820  0.8425
  182POPC  H18R20899   0.164   6.043   4.393  1.2074 -1.0431  0.3372
  182POPC  H18S20900   0.134   6.038   4.581  1.3848 -0.0351  2.2388
  182POPC  H18T20901   0.282   5.976   4.518 -1.9863 -2.2056  0.0290
  182POPC   C3320902   0.095   5.879   6.130  0.0058 -0.5386 -0.0394
  182POPC   H3X20903   0.201   5.850   6.145 -0.0293 -0.2864  0.7645
  182POPC   H3Y20904   0.089   5.988   6.112 -1.0620 -0.5486  0.1544
  182POPC   C3420905   0.053   5.795   6.007 -0.4850 -0.0889 -0.3318
  182POPC   H4X20906  -0.039   5.742   6.040 -1.1214  0.4846 -1.0990
  182POPC   H4Y20907   0.127   5.717   5.981  1.1979  1.6849 -1.0962
  182POPC   C3520908   0.020   5.881   5.884  0.3237 -0.5664 -0.3094
  182POPC   H5X20909   0.113   5.923   5.840 -0.8649  1.0448 -1.3778
  182POPC   H5Y20910  -0.041   5.969   5.915  0.8057 -0.0627 -0.7682
  182POPC   C3620911  -0.051   5.795   5.783  1.2165  0.3406 -0.5546
  182POPC   H6X20912  -0.160   5.798   5.809  1.4106 -0.1646  0.3856
  182POPC   H6Y20913  -0.027   5.687   5.792  1.4520  0.4633  0.3931
  182POPC   C3720914  -0.022   5.845   5.643 -0.2055  0.3583 -0.1377
  182POPC   H7X20915  -0.090   5.792   5.573 -0.2722 -1.9655  1.5591
  182POPC   H7Y20916   0.073   5.807   5.599 -0.7130 -0.6661 -0.4022
  182POPC   C3820917  -0.034   5.996   5.627  0.0752 -0.6105  0.5172
  182POPC   H8X20918   0.062   6.047   5.606  0.1661 -1.3428 -1.0537
  182POPC   H8Y20919  -0.086   6.050   5.709  2.9491 -1.1072  2.8288
  182POPC   C3920920  -0.125   6.035   5.507 -0.0013  0.7113 -0.3413
  182POPC   H9X20921  -0.126   6.146   5.505 -1.6685  0.8080  1.8278
  182POPC   H9Y20922  -0.234   6.017   5.522  0.2127 -0.7855 -0.3535
  182POPC  C31020923  -0.087   5.990   5.359  0.1361 -0.3783 -0.5721
  182POPC  H10X20924  -0.123   5.889   5.331 -2.0604  0.0991  0.3551
  182POPC  H10Y20925   0.022   6.006   5.347 -0.2267  1.3749 -2.0239
  182POPC  C31120926  -0.149   6.087   5.254  0.8200 -0.4551  0.4882
  182POPC  H11X20927  -0.110   6.190   5.272  0.4579 -0.5046  1.6981
  182POPC  H11Y20928  -0.260   6.090   5.265  0.7592 -0.2530 -0.1418
  182POPC  C31220929  -0.111   6.038   5.112  0.6612  0.0113 -0.7630
  182POPC  H12X20930  -0.133   5.930   5.097 -0.0542  0.4547 -3.2518
  182POPC  H12Y20931  -0.001   6.055   5.104  1.2395 -2.7979 -0.0812
  182POPC  C31320932  -0.186   6.111   5.005  0.6638  0.1273  0.2441
  182POPC  H13X20933  -0.176   6.222   5.015  0.5277  0.2187 -0.5741
  182POPC  H13Y20934  -0.296   6.097   5.015  0.7683  0.1756  1.6975
  182POPC  C31420935  -0.150   6.064   4.861 -1.0594  0.0833 -0.2417
  182POPC  H14X20936  -0.163   5.954   4.855  3.0231 -0.9549  3.8112
  182POPC  H14Y20937  -0.042   6.087   4.846 -1.2651  0.7027 -0.8613
  182POPC  C31520938  -0.236   6.131   4.751 -0.0780 -0.3830 -0.0285
  182POPC  H15X20939  -0.249   6.234   4.791  1.2815 -0.4420  0.6355
  182POPC  H15Y20940  -0.331   6.075   4.754  0.5219 -1.4023  2.1693
  182POPC  C31620941  -0.170   6.120   4.612 -0.0911 -0.1321  0.3133
  182POPC  H16X20942  -0.246   6.146   4.536  0.3527  0.0912 -0.0621
  182POPC  H16Y20943  -0.157   6.012   4.593 -2.3680 -0.9047  2.6780
  182POPC  H16Z20944  -0.078   6.179   4.587 -0.8474  2.4064  2.8962
  183POPC     N20945   3.214   3.612   6.421 -0.1772  0.0623 -0.0333
  183POPC   C1220946   3.360   3.594   6.391  0.3939 -0.3825 -0.5521
  183POPC  H12A20947   3.385   3.493   6.363  0.4988 -0.3703 -0.5043
  183POPC  H12B20948   3.417   3.598   6.483 -1.1945  0.2677  0.4379
  183POPC   C1320949   3.142   3.610   6.295  0.1069  0.5772 -0.4006
  183POPC  H13A20950   3.036   3.619   6.313 -0.1380 -1.1671 -0.7963
  183POPC  H13B20951   3.181   3.692   6.237  2.5391 -0.3103 -0.1419
  183POPC  H13C20952   3.159   3.519   6.239 -1.5092 -1.5571  2.2772
  183POPC   C1420953   3.174   3.503   6.517  0.0278 -0.3381 -0.0067
  183POPC  H14A20954   3.172   3.404   6.474 -1.3178 -0.2862 -0.1071
  183POPC  H14B20955   3.235   3.506   6.606 -1.1841  1.4529  0.8499
  183POPC  H14C20956   3.074   3.516   6.555 -0.0377 -0.2523 -0.2055
  183POPC   C1520957   3.186   3.744   6.491 -0.0780  0.1712  0.6954
  183POPC  H15A20958   3.251   3.760   6.575 -0.0962 -0.6028  0.8624
  183POPC  H15B20959   3.083   3.739   6.525  0.4001  1.5930  2.4900
  183POPC  H15C20960   3.199   3.827   6.423  1.2430 -1.2997 -0.9356
  183POPC   C1120961   3.440   3.689   6.297 -0.2954  0.2798  0.1299
  183POPC  H11A20962   3.401   3.699   6.194  1.0347  2.0586 -0.2449
  183POPC  H11B20963   3.542   3.648   6.284  0.1758  1.2403  0.6883
  183POPC     P20964   3.541   3.861   6.458 -0.2145 -0.3134 -0.3613
  183POPC   O1320965   3.558   3.759   6.561 -0.5127  0.0229  0.4624
  183POPC   O1420966   3.519   3.998   6.513 -0.1467 -0.0623 -0.3996
  183POPC   O1220967   3.438   3.824   6.349 -0.6234  0.3067  0.8430
  183POPC   O1120968   3.679   3.861   6.375  0.0988 -0.3536  0.8039
  183POPC    C120969   3.713   3.986   6.307  0.4581 -0.3958 -0.1546
  183POPC    HA20970   3.822   4.005   6.300  0.3534  0.1857 -0.2046
  183POPC    HB20971   3.685   4.081   6.358 -3.4237 -1.9278  0.9608
  183POPC    C220972   3.646   3.996   6.167  0.3345  0.7577 -0.4803
  183POPC    HS20973   3.540   4.022   6.188 -0.3168 -0.5308 -1.9270
  183POPC   O2120974   3.656   3.875   6.090 -0.2953  0.4049  0.2328
  183POPC   C2120975   3.567   3.861   5.995  0.4787 -0.2330  0.0423
  183POPC   O2220976   3.477   3.940   5.963 -0.0116 -0.0032  0.2527
  183POPC   C2220977   3.598   3.720   5.932  0.0962 -0.4419  0.2077
  183POPC   H2R20978   3.568   3.645   6.009 -0.8638  0.3437  0.6158
  183POPC   H2S20979   3.708   3.722   5.915 -0.1756 -0.2188 -1.8075
  183POPC    C320980   3.699   4.127   6.103  0.2250  0.2007  0.6840
  183POPC    HX20981   3.806   4.113   6.078 -0.7067 -1.3769 -3.0155
  183POPC    HY20982   3.689   4.204   6.183  0.5156  1.8516 -0.8065
  183POPC   O3120983   3.621   4.178   5.995 -0.3344 -0.7001 -0.3251
  183POPC   C3120984   3.682   4.161   5.875  0.1560  0.6993 -0.0196
  183POPC   O3220985   3.778   4.085   5.853  0.4809  0.5336 -0.2029
  183POPC   C3220986   3.621   4.249   5.769  0.0845 -0.2144 -0.2158
  183POPC   H2X20987   3.703   4.306   5.720 -1.4609  0.7795 -1.7371
  183POPC   H2Y20988   3.558   4.330   5.813 -0.2007  0.1663 -1.3094
  183POPC   C2320989   3.519   3.694   5.802  0.3448 -0.4436  0.6865
  183POPC   H3R20990   3.415   3.728   5.820 -0.2128 -0.6126 -1.8799
  183POPC   H3S20991   3.506   3.585   5.786  0.6289 -0.4121  0.2246
  183POPC   C2420992   3.576   3.760   5.681 -0.8548 -0.4843  0.3352
  183POPC   H4R20993   3.684   3.740   5.667 -0.9603 -0.4179 -0.6134
  183POPC   H4S20994   3.553   3.869   5.686 -1.3329 -0.3690 -2.6707
  183POPC   C2520995   3.512   3.713   5.555 -0.2828  0.6787  0.5367
  183POPC   H5R20996   3.404   3.736   5.555 -0.5203 -0.1957 -1.7273
  183POPC   H5S20997   3.520   3.603   5.545 -1.7887  0.7891 -3.0849
  183POPC   C2620998   3.583   3.777   5.435  0.0973  0.7845  0.0720
  183POPC   H6R20999   3.692   3.765   5.451  0.0558  0.9766  0.5010
  183POPC   H6S21000   3.552   3.881   5.411 -0.6867  0.6354  0.4022
  183POPC   C2721001   3.556   3.687   5.309 -0.0279  0.2636  0.3709
  183POPC   H7R21002   3.445   3.682   5.297 -0.0525  0.5542  0.4710
  183POPC   H7S21003   3.600   3.586   5.323  0.2658  0.6418  2.4847
  183POPC   C2821004   3.618   3.750   5.180  0.4448  0.1671  0.7352
  183POPC   H8R21005   3.601   3.677   5.098  0.1909 -0.5897  1.4493
  183POPC   H8S21006   3.726   3.756   5.202  0.5126 -2.4876  1.4465
  183POPC   C2921007   3.560   3.880   5.140 -0.6207 -1.1497 -0.5956
  183POPC   H9121008   3.528   3.953   5.216  3.1957  1.4087 -1.1520
  183POPC  C21021009   3.527   3.911   5.006  0.8668 -0.5512 -0.0249
  183POPC  H10121010   3.475   4.006   4.985  0.8949 -0.8684 -1.7174
  183POPC  C21121011   3.561   3.827   4.888 -0.3456 -0.4817  0.3834
  183POPC  H11R21012   3.639   3.751   4.913 -0.7753 -1.3459 -0.8245
  183POPC  H11S21013   3.604   3.888   4.806  0.9807 -2.5784 -0.5809
  183POPC  C21221014   3.446   3.756   4.818 -0.3012 -0.2885  0.1472
  183POPC  H12R21015   3.373   3.819   4.762 -0.5301 -0.2835  0.4502
  183POPC  H12S21016   3.391   3.702   4.898 -1.3596  2.2445  1.2303
  183POPC  C21321017   3.504   3.658   4.718 -0.0707 -0.1343 -0.3285
  183POPC  H13R21018   3.584   3.598   4.766 -1.1184 -0.8690  0.5198
  183POPC  H13S21019   3.560   3.714   4.639  0.1246  0.2494  0.0752
  183POPC  C21421020   3.387   3.584   4.655 -0.2851  0.0819  0.4235
  183POPC  H14R21021   3.316   3.660   4.615 -0.5909  0.5589  1.8362
  183POPC  H14S21022   3.339   3.521   4.732 -0.0999 -0.1065  0.3870
  183POPC  C21521023   3.422   3.489   4.539 -0.0440 -0.2822  0.8216
  183POPC  H15R21024   3.326   3.437   4.517  0.3329 -0.7335  0.2090
  183POPC  H15S21025   3.489   3.410   4.579  0.3900  1.5025  4.0018
  183POPC  C21621026   3.476   3.563   4.414 -0.4906 -0.3754  0.0645
  183POPC  H16R21027   3.544   3.647   4.438 -1.5462 -0.2202  2.9017
  183POPC  H16S21028   3.391   3.627   4.380  0.2801  1.8566  2.0706
  183POPC  C21721029   3.538   3.479   4.300 -0.2525 -0.1640 -0.7993
  183POPC  H17R21030   3.457   3.407   4.272 -1.5314  0.7018  0.5079
  183POPC  H17S21031   3.629   3.426   4.333  0.5672  0.0821 -2.5443
  183POPC  C21821032   3.570   3.573   4.175  0.2756  0.3807  0.2319
  183POPC  H18R21033   3.608   3.505   4.095  0.6162 -0.3723  1.0138
  183POPC  H18S21034   3.649   3.644   4.207  2.4023 -1.5262 -0.4817
  183POPC  H18T21035   3.474   3.612   4.137 -0.7812  1.1501  3.3976
  183POPC   C3321036   3.553   4.171   5.659 -0.1018  0.0924 -0.0137
  183POPC   H3X21037   3.606   4.076   5.636 -0.6632 -0.4654  0.9481
  183POPC   H3Y21038   3.552   4.233   5.567 -3.5263  3.1675  1.8315
  183POPC   C3421039   3.410   4.135   5.682 -0.0753  0.7561  0.0760
  183POPC   H4X21040   3.351   4.223   5.716 -0.2750 -0.1873  2.3411
  183POPC   H4Y21041   3.400   4.063   5.766  0.2144 -0.9144 -1.2674
  183POPC   C3521042   3.334   4.067   5.571  0.3304 -0.0967 -0.5498
  183POPC   H5X21043   3.247   4.008   5.608  0.4087 -0.2161 -0.5576
  183POPC   H5Y21044   3.395   3.980   5.539  2.7166  1.3957 -0.3445
  183POPC   C3621045   3.302   4.137   5.445 -0.4641 -0.4085 -0.0485
  183POPC   H6X21046   3.389   4.174   5.388 -0.0664  0.3150  1.0035
  183POPC   H6Y21047   3.234   4.217   5.481  0.7086  0.7262 -0.3270
  183POPC   C3721048   3.220   4.042   5.347 -0.3643  0.6238 -0.7617
  183POPC   H7X21049   3.149   3.974   5.399  0.9065  0.3544  0.7146
  183POPC   H7Y21050   3.294   3.990   5.283  0.6250 -1.1046  1.6387
  183POPC   C3821051   3.127   4.124   5.256  0.1023  0.5341 -0.0260
  183POPC   H8X21052   3.185   4.207   5.210  0.0602 -0.1462 -1.3538
  183POPC   H8Y21053   3.042   4.172   5.310  0.7619  0.8700  0.7288
  183POPC   C3921054   3.054   4.033   5.152  0.4681 -0.2134 -0.1654
  183POPC   H9X21055   2.982   3.971   5.209 -0.5150  1.9532  1.0844
  183POPC   H9Y21056   3.123   3.962   5.101  0.9318  0.4681 -0.5105
  183POPC  C31021057   3.000   4.123   5.040  0.5838 -0.2578 -0.1803
  183POPC  H10X21058   2.948   4.054   4.970  0.3275 -1.8476  1.4774
  183POPC  H10Y21059   3.090   4.181   5.011  0.2042  1.2037  1.4057
  183POPC  C31121060   2.897   4.220   5.091  0.2626 -0.2331 -0.1914
  183POPC  H11X21061   2.953   4.295   5.152 -1.6630  1.0153  0.1417
  183POPC  H11Y21062   2.812   4.177   5.149 -0.4496  0.5047 -0.6711
  183POPC  C31221063   2.838   4.309   4.978  0.3227  0.2050 -0.5001
  183POPC  H12X21064   2.917   4.341   4.907  0.2438 -1.7554 -1.5376
  183POPC  H12Y21065   2.773   4.389   5.021 -1.0091 -1.1965  0.1782
  183POPC  C31321066   2.749   4.225   4.883 -0.2394 -0.2816 -0.9377
  183POPC  H13X21067   2.658   4.189   4.936 -0.6273 -0.8505 -1.9754
  183POPC  H13Y21068   2.807   4.139   4.845  1.2733 -0.2930  1.1836
  183POPC  C31421069   2.709   4.321   4.772 -0.2849  0.2443  0.4284
  183POPC  H14X21070   2.801   4.355   4.720 -0.4503  0.8826  0.5514
  183POPC  H14Y21071   2.649   4.410   4.801  0.4452  0.2278  2.1338
  183POPC  C31521072   2.631   4.243   4.664 -0.0892  0.6004  0.1993
  183POPC  H15X21073   2.614   4.318   4.584 -0.1766 -0.0221 -0.3708
  183POPC  H15Y21074   2.535   4.208   4.708  0.1012  0.2757  0.3568
  183POPC  C31621075   2.701   4.119   4.600  0.7926 -0.0338 -0.3419
  183POPC  H16X21076   2.812   4.127   4.603  0.9629 -1.9428 -0.1947
  183POPC  H16Y21077   2.661   4.093   4.500  1.2389 -0.5673 -0.3899
  183POPC  H16Z21078   2.676   4.036   4.670 -0.2534 -0.3974 -1.1310
  184POPC     N21079   5.250   2.483   6.778  0.3692  0.1458  0.4844
  184POPC   C1221080   5.355   2.567   6.701  0.6119 -0.1481  0.4657
  184POPC  H12A21081   5.347   2.539   6.597  0.3309 -1.2927  0.7728
  184POPC  H12B21082   5.449   2.527   6.737  0.1407 -2.0715 -0.2695
  184POPC   C1321083   5.118   2.504   6.705 -0.2551 -1.0083 -0.2246
  184POPC  H13A21084   5.105   2.611   6.710  0.2070 -1.0158  1.8422
  184POPC  H13B21085   5.128   2.471   6.602  1.3649 -0.4941 -0.2524
  184POPC  H13C21086   5.033   2.451   6.745 -0.1105 -1.0265  0.0664
  184POPC   C1421087   5.278   2.335   6.756 -0.1317  0.1216 -0.1469
  184POPC  H14A21088   5.189   2.280   6.783  1.0837 -1.5477  0.5977
  184POPC  H14B21089   5.308   2.316   6.654  1.7788 -0.1462  0.4215
  184POPC  H14C21090   5.353   2.301   6.826  0.4069  2.6265  0.5964
  184POPC   C1521091   5.239   2.510   6.923  0.3638 -0.4202 -0.4764
  184POPC  H15A21092   5.330   2.503   6.980  0.6269  0.7022 -0.7422
  184POPC  H15B21093   5.162   2.446   6.964 -0.4121  1.3212  0.9039
  184POPC  H15C21094   5.205   2.612   6.935  0.2367 -0.7032  2.0976
  184POPC   C1121095   5.355   2.722   6.711 -0.0030 -0.8255 -0.3863
  184POPC  H11A21096   5.435   2.774   6.653  0.2047 -1.7985 -0.9896
  184POPC  H11B21097   5.371   2.748   6.817  2.2768  0.2699 -0.9379
  184POPC     P21098   5.148   2.885   6.723 -0.3589 -0.1185  0.1606
  184POPC   O1321099   5.233   3.002   6.757  0.4365  0.5271  0.0700
  184POPC   O1421100   5.081   2.819   6.836 -0.0405 -0.0103 -0.4106
  184POPC   O1221101   5.237   2.779   6.655  0.0515  0.1220  0.1166
  184POPC   O1121102   5.029   2.924   6.621 -0.0370 -0.6693 -0.0414
  184POPC    C121103   4.943   2.833   6.551  0.5433  0.5430 -0.4656
  184POPC    HA21104   4.839   2.868   6.573  1.2086  1.3080  1.7287
  184POPC    HB21105   4.947   2.731   6.595 -1.6940 -0.2514 -1.9247
  184POPC    C221106   4.976   2.830   6.403 -0.0398 -0.0838  0.8334
  184POPC    HS21107   4.919   2.748   6.354 -1.0974  0.4372  1.1650
  184POPC   O2121108   5.117   2.822   6.384 -0.1144  0.3761  0.1535
  184POPC   C2121109   5.168   2.701   6.373  0.4010  0.1262 -0.8744
  184POPC   O2221110   5.107   2.598   6.386 -0.1175 -0.3201 -0.4855
  184POPC   C2221111   5.313   2.723   6.333 -0.7303  0.3788 -0.1014
  184POPC   H2R21112   5.362   2.756   6.427 -0.0369 -1.2820  0.1422
  184POPC   H2S21113   5.320   2.808   6.261 -2.1269 -0.5241 -1.3732
  184POPC    C321114   4.927   2.956   6.331 -0.3147  0.1197  0.6574
  184POPC    HX21115   4.920   3.051   6.390 -3.2730  1.4968 -1.6396
  184POPC    HY21116   4.819   2.934   6.316 -0.6728  1.0421  1.6817
  184POPC   O3121117   4.984   2.988   6.208 -0.4433  0.0735 -0.2763
  184POPC   C3121118   5.107   3.050   6.196 -0.0770  0.0013 -0.3287
  184POPC   O3221119   5.154   3.112   6.290 -0.6349 -0.1499  0.5435
  184POPC   C3221120   5.163   3.028   6.053  0.4167  0.0095  0.9419
  184POPC   H2X21121   5.122   2.942   5.996  2.5494  0.7171 -1.8567
  184POPC   H2Y21122   5.269   3.001   6.074  0.3607 -1.7946 -0.8144
  184POPC   C2321123   5.380   2.595   6.273  0.4619  0.0468 -0.5586
  184POPC   H3R21124   5.382   2.515   6.351 -0.7209 -0.3741 -0.9401
  184POPC   H3S21125   5.487   2.618   6.252 -0.1055  0.7025 -2.9755
  184POPC   C2421126   5.329   2.561   6.137 -0.2912  0.7427  0.0273
  184POPC   H4R21127   5.222   2.529   6.139 -0.6081  1.7890  0.8407
  184POPC   H4S21128   5.379   2.477   6.084 -2.6378  0.5604 -2.1171
  184POPC   C2521129   5.343   2.680   6.033  0.5932 -0.1539 -0.2088
  184POPC   H5R21130   5.439   2.734   6.045  0.6606  0.7949 -3.8154
  184POPC   H5S21131   5.268   2.761   6.046 -0.1041 -0.7206 -0.6338
  184POPC   C2621132   5.346   2.648   5.879 -0.1606 -0.5749  0.3422
  184POPC   H6R21133   5.260   2.587   5.844  0.7482 -0.5637 -2.1643
  184POPC   H6S21134   5.438   2.588   5.860  0.5491  1.1605 -2.2957
  184POPC   C2721135   5.348   2.781   5.800  0.5132  0.3962 -0.2669
  184POPC   H7R21136   5.407   2.848   5.866  0.7473 -1.1568  1.1610
  184POPC   H7S21137   5.247   2.827   5.797  0.3345  0.0208 -2.5963
  184POPC   C2821138   5.415   2.776   5.654  0.7531 -0.1500  0.3182
  184POPC   H8R21139   5.521   2.743   5.660  0.7976 -0.2865 -1.0123
  184POPC   H8S21140   5.413   2.881   5.617  0.0233 -0.8961 -1.8695
  184POPC   C2921141   5.325   2.697   5.566  0.0520  0.1665  0.3519
  184POPC   H9121142   5.220   2.729   5.563  0.1101  0.3262 -0.0537
  184POPC  C21021143   5.353   2.596   5.485 -0.3433  0.5158  0.5742
  184POPC  H10121144   5.268   2.564   5.422  0.1589  2.9833 -1.5305
  184POPC  C21121145   5.478   2.518   5.480  0.4766 -0.2803 -0.2023
  184POPC  H11R21146   5.459   2.411   5.505 -0.9933 -0.2699 -1.1826
  184POPC  H11S21147   5.551   2.556   5.555 -0.4711  1.4001 -0.0915
  184POPC  C21221148   5.538   2.532   5.339 -0.1202  0.3854  0.3105
  184POPC  H12R21149   5.637   2.484   5.354 -1.2332 -1.3149  2.8286
  184POPC  H12S21150   5.556   2.637   5.306  1.6936  0.7274  2.2137
  184POPC  C21321151   5.462   2.451   5.229  0.4141 -0.5042 -0.4495
  184POPC  H13R21152   5.358   2.489   5.227  0.9089  0.9027 -1.4010
  184POPC  H13S21153   5.446   2.345   5.258 -1.3825 -0.3587 -0.8235
  184POPC  C21421154   5.515   2.464   5.091  0.0219  0.2790  0.0030
  184POPC  H14R21155   5.619   2.425   5.091 -0.0871 -0.0565 -1.1486
  184POPC  H14S21156   5.512   2.569   5.055 -0.4596  0.1619 -0.3201
  184POPC  C21521157   5.438   2.389   4.973 -0.4950 -0.2710  0.2693
  184POPC  H15R21158   5.414   2.283   4.993  0.5720 -0.3482  1.1911
  184POPC  H15S21159   5.499   2.395   4.880  0.3042  0.3075  0.8210
  184POPC  C21621160   5.313   2.469   4.938 -0.1112  0.0584 -0.4232
  184POPC  H16R21161   5.338   2.567   4.892 -0.1051  0.4806  0.4657
  184POPC  H16S21162   5.257   2.488   5.032 -0.6574  0.7867 -0.8849
  184POPC  C21721163   5.214   2.418   4.830 -0.0413 -0.3407 -0.5522
  184POPC  H17R21164   5.145   2.503   4.815  0.1570  0.1544  1.1247
  184POPC  H17S21165   5.162   2.333   4.880  1.8914 -1.5563 -0.5004
  184POPC  C21821166   5.273   2.360   4.700  0.8321 -0.4106 -0.5038
  184POPC  H18R21167   5.187   2.353   4.631 -0.3742 -0.8712  0.9801
  184POPC  H18S21168   5.323   2.262   4.718  0.0374 -1.1039 -1.9053
  184POPC  H18T21169   5.348   2.428   4.655  0.7193  0.5792  0.7365
  184POPC   C3321170   5.150   3.157   5.964 -0.0038  0.5888  0.3748
  184POPC   H3X21171   5.190   3.242   6.023 -0.4167  1.0337  0.0242
  184POPC   H3Y21172   5.041   3.175   5.955 -0.2144 -0.1163  1.3415
  184POPC   C3421173   5.205   3.133   5.822  0.6855 -0.1170 -0.1645
  184POPC   H4X21174   5.140   3.052   5.783  0.1219  0.7550 -1.0762
  184POPC   H4Y21175   5.311   3.102   5.833  1.3010  2.1797  1.1617
  184POPC   C3521176   5.202   3.249   5.728 -0.2433  0.5186  0.2228
  184POPC   H5X21177   5.268   3.332   5.761 -1.7722  0.9533  2.3758
  184POPC   H5Y21178   5.104   3.301   5.731 -0.1705  0.7801 -1.1350
  184POPC   C3621179   5.232   3.212   5.581 -0.2335  0.8463 -0.3974
  184POPC   H6X21180   5.145   3.159   5.537  0.7600 -2.0546  0.8716
  184POPC   H6Y21181   5.330   3.161   5.582 -1.6377 -2.0426 -0.8960
  184POPC   C3721182   5.255   3.342   5.505  0.3354 -0.4840 -0.8210
  184POPC   H7X21183   5.346   3.392   5.544 -1.5190  1.5679  1.1891
  184POPC   H7Y21184   5.176   3.420   5.515  0.6231 -0.3201  0.3127
  184POPC   C3821185   5.280   3.318   5.362  0.3129  0.5323 -0.1729
  184POPC   H8X21186   5.202   3.251   5.319 -1.0313  1.2671  1.0255
  184POPC   H8Y21187   5.376   3.264   5.357  0.1831  0.3043 -0.2380
  184POPC   C3921188   5.296   3.450   5.292 -0.4978 -0.3794 -0.3981
  184POPC   H9X21189   5.385   3.498   5.339 -1.6948  0.0317  1.5462
  184POPC   H9Y21190   5.215   3.519   5.325  1.1893  2.1690 -1.2441
  184POPC  C31021191   5.307   3.429   5.142  0.2188 -0.0859  0.0413
  184POPC  H10X21192   5.205   3.402   5.105 -0.2816 -0.5624  1.6796
  184POPC  H10Y21193   5.372   3.344   5.113  1.7752  1.0089  0.2285
  184POPC  C31121194   5.341   3.569   5.075 -0.0955  0.1779  0.0125
  184POPC  H11X21195   5.443   3.598   5.111  0.3284  0.1079 -1.1086
  184POPC  H11Y21196   5.269   3.638   5.125 -1.5404 -0.2224 -1.4326
  184POPC  C31221197   5.315   3.575   4.921  0.0369 -0.2420 -0.1951
  184POPC  H12X21198   5.306   3.677   4.880 -0.1132  0.4053  1.3795
  184POPC  H12Y21199   5.221   3.517   4.915  0.2046 -0.6181  0.6201
  184POPC  C31321200   5.411   3.491   4.827  0.3426  0.5004  0.1676
  184POPC  H13X21201   5.404   3.384   4.857 -0.9496 -0.2697 -2.5365
  184POPC  H13Y21202   5.516   3.525   4.835  0.5542  0.0255 -0.5451
  184POPC  C31421203   5.370   3.481   4.683 -0.6626  0.1323  0.6642
  184POPC  H14X21204   5.328   3.577   4.646  0.3550  0.2476 -0.2328
  184POPC  H14Y21205   5.287   3.409   4.668 -1.4486  1.5231 -2.4644
  184POPC  C31521206   5.494   3.447   4.594 -0.8151 -0.4393 -0.0517
  184POPC  H15X21207   5.543   3.355   4.634  0.0895  0.3951  0.7925
  184POPC  H15Y21208   5.571   3.523   4.618 -0.7789 -0.5783  0.2709
  184POPC  C31621209   5.453   3.454   4.453 -0.4264 -0.4660  0.8068
  184POPC  H16X21210   5.526   3.426   4.374 -1.2017  0.3719 -0.2268
  184POPC  H16Y21211   5.414   3.556   4.434  1.3269  0.4197  1.7691
  184POPC  H16Z21212   5.369   3.383   4.436 -1.7993  1.1289  0.6343
  185POPC     N21213   2.209   4.130   1.930 -0.6394 -0.3942  0.0717
  185POPC   C1221214   2.058   4.141   1.927  0.3677  0.8575 -0.8253
  185POPC  H12A21215   2.015   4.047   1.959  0.7244  0.7717 -0.5945
  185POPC  H12B21216   2.034   4.156   1.823  0.8233  1.9172 -0.7816
  185POPC   C1321217   2.258   4.103   2.069 -0.9570  0.2784 -0.1368
  185POPC  H13A21218   2.205   4.016   2.106 -0.1136  0.0568  0.5754
  185POPC  H13B21219   2.364   4.083   2.071 -0.8806  0.6035 -0.8656
  185POPC  H13C21220   2.241   4.196   2.123 -2.2363 -0.8070  1.4297
  185POPC   C1421221   2.272   4.020   1.846 -0.2772  0.5562 -0.3602
  185POPC  H14A21222   2.379   4.025   1.846 -0.2819  0.7498  0.4917
  185POPC  H14B21223   2.239   3.925   1.885 -0.0443  1.3556  1.9239
  185POPC  H14C21224   2.238   4.016   1.743 -1.7325 -2.5611  0.1067
  185POPC   C1521225   2.270   4.257   1.874  0.0155  0.0142 -0.6413
  185POPC  H15A21226   2.377   4.253   1.865 -0.0160  0.1225 -1.0606
  185POPC  H15B21227   2.256   4.343   1.938  0.9096 -0.5136  0.3037
  185POPC  H15C21228   2.230   4.279   1.777 -0.9145  1.5793  0.0613
  185POPC   C1121229   1.989   4.250   2.009 -0.4215 -0.2403  0.0801
  185POPC  H11A21230   1.882   4.249   1.978 -0.3895 -0.9268 -0.0160
  185POPC  H11B21231   2.026   4.343   1.960  0.0303 -0.6706 -0.4066
  185POPC     P21232   1.905   4.172   2.234  0.1774 -0.0352 -0.0374
  185POPC   O1321233   1.859   4.050   2.159 -0.1840 -0.2742 -0.0094
  185POPC   O1421234   1.804   4.268   2.284 -0.0103 -0.2783  0.3469
  185POPC   O1221235   2.012   4.249   2.151 -0.0838  0.0742 -0.4318
  185POPC   O1121236   1.992   4.113   2.353 -0.5439 -0.0595  0.2923
  185POPC    C121237   1.986   4.160   2.485  0.2450  1.1450 -0.3905
  185POPC    HA21238   1.886   4.167   2.531  0.0228  0.6561 -0.7901
  185POPC    HB21239   2.025   4.264   2.494 -0.0481  1.2014  0.2700
  185POPC    C221240   2.080   4.076   2.581  0.0315  0.4654 -0.3195
  185POPC    HS21241   2.042   3.971   2.585  1.6985 -0.1434  1.2619
  185POPC   O2121242   2.093   4.137   2.712  0.9918 -0.7926 -0.6897
  185POPC   C2121243   1.994   4.115   2.783  0.0187 -0.1263 -0.8846
  185POPC   O2221244   1.903   4.037   2.756 -0.2024 -0.1511 -0.7358
  185POPC   C2221245   1.999   4.213   2.905 -0.3341  0.0715  0.4166
  185POPC   H2R21246   1.928   4.298   2.891 -0.9206 -0.6272 -1.1264
  185POPC   H2S21247   2.102   4.254   2.916 -0.8493  2.1807 -1.6038
  185POPC    C321248   2.222   4.068   2.512 -0.1676  0.3103 -0.4387
  185POPC    HX21249   2.255   4.172   2.495 -2.0997  1.0528  0.1440
  185POPC    HY21250   2.218   4.008   2.418  1.4816 -1.8349  0.7705
  185POPC   O3121251   2.312   4.007   2.603  0.4434  0.2894 -0.0394
  185POPC   C3121252   2.339   3.877   2.593 -0.8411 -0.7355  0.1001
  185POPC   O3221253   2.297   3.798   2.512  0.3138  0.5340 -0.8741
  185POPC   C3221254   2.417   3.845   2.719 -0.0203 -0.4685 -0.2474
  185POPC   H2X21255   2.463   3.941   2.753 -0.3225 -0.3579 -0.1367
  185POPC   H2Y21256   2.497   3.776   2.687  1.1504  0.4573  0.5649
  185POPC   C2321257   1.987   4.146   3.047  0.1834  0.6515 -0.0677
  185POPC   H3R21258   2.080   4.086   3.060  0.5317  1.2916  0.4350
  185POPC   H3S21259   1.904   4.072   3.051  0.6117 -0.0953 -3.0896
  185POPC   C2421260   1.967   4.249   3.163 -0.0751  0.5529  0.4701
  185POPC   H4R21261   1.868   4.295   3.140 -0.3469 -1.2929 -2.7632
  185POPC   H4S21262   2.057   4.313   3.157 -1.4168  2.4657 -0.3802
  185POPC   C2521263   1.953   4.181   3.303 -0.2418 -0.1537 -0.4374
  185POPC   H5R21264   2.054   4.140   3.326  0.9096  2.2688 -0.9068
  185POPC   H5S21265   1.878   4.099   3.298  0.4123 -0.7474 -0.7200
  185POPC   C2621266   1.918   4.278   3.411 -0.0386  0.0665 -0.0637
  185POPC   H6R21267   1.828   4.332   3.374  1.0258  0.5146 -2.1403
  185POPC   H6S21268   1.995   4.358   3.408  0.0633 -0.0503 -0.7834
  185POPC   C2721269   1.895   4.224   3.553 -0.1968 -0.2983 -0.3913
  185POPC   H7R21270   1.998   4.204   3.589 -0.3861  0.5169  0.6437
  185POPC   H7S21271   1.840   4.128   3.540  0.4337 -0.4476 -2.2742
  185POPC   C2821272   1.811   4.314   3.644  0.4003 -0.0162  0.3804
  185POPC   H8R21273   1.808   4.256   3.738 -2.0474 -1.1311 -0.2956
  185POPC   H8S21274   1.709   4.318   3.601  1.3002  0.1834 -1.8917
  185POPC   C2921275   1.867   4.453   3.663 -0.1513  0.0370 -0.1437
  185POPC   H9121276   1.827   4.527   3.591  2.6401  1.9287  0.1151
  185POPC  C21021277   1.961   4.497   3.751  0.2303 -0.6722  0.7481
  185POPC  H10121278   1.979   4.606   3.753 -2.3496 -0.1154 -1.2577
  185POPC  C21121279   2.038   4.423   3.856  0.2814  0.9181  0.0262
  185POPC  H11R21280   2.148   4.430   3.845  0.1565 -0.4879 -3.3563
  185POPC  H11S21281   2.025   4.313   3.856  0.6781  0.7800  2.8758
  185POPC  C21221282   1.991   4.483   3.994  0.0722  0.2139  0.1222
  185POPC  H12R21283   2.018   4.591   3.996 -0.3876  0.3826 -1.4958
  185POPC  H12S21284   2.033   4.425   4.079 -1.9578 -2.5852 -0.6499
  185POPC  C21321285   1.839   4.477   4.027 -0.1894  0.0023  0.3518
  185POPC  H13R21286   1.788   4.379   4.034 -0.4927  0.1726  0.5641
  185POPC  H13S21287   1.793   4.521   3.936  0.7920 -3.1006 -1.8070
  185POPC  C21421288   1.798   4.575   4.141 -0.2078  0.2155 -0.2104
  185POPC  H14R21289   1.861   4.666   4.130 -1.2380  1.4623  3.0521
  185POPC  H14S21290   1.819   4.536   4.243  0.4255 -0.4823 -0.5993
  185POPC  C21521291   1.652   4.626   4.130 -0.0343 -0.5018  0.4736
  185POPC  H15R21292   1.573   4.548   4.121  1.1370 -1.5373 -1.3278
  185POPC  H15S21293   1.643   4.679   4.033  1.4135 -0.0329  0.5766
  185POPC  C21621294   1.623   4.730   4.236 -0.3617 -0.0720 -0.6183
  185POPC  H16R21295   1.669   4.828   4.211 -0.8119  0.7930  1.7340
  185POPC  H16S21296   1.688   4.706   4.323 -0.6598  4.6583  1.2162
  185POPC  C21721297   1.474   4.744   4.271 -0.2008 -0.0188  0.2724
  185POPC  H17R21298   1.422   4.787   4.183 -0.5439 -0.6528  0.1555
  185POPC  H17S21299   1.463   4.817   4.354  0.6527  0.3432  0.0744
  185POPC  C21821300   1.397   4.616   4.310 -0.0151 -0.0813  0.4656
  185POPC  H18R21301   1.439   4.571   4.403  1.5095  0.4140  0.0401
  185POPC  H18S21302   1.398   4.542   4.228 -1.8712  1.8239 -1.4143
  185POPC  H18T21303   1.291   4.644   4.330 -0.5748  0.1616 -2.4128
  185POPC   C3321304   2.335   3.798   2.841 -0.2357  0.0595  0.1294
  185POPC   H3X21305   2.282   3.710   2.798  0.5413 -0.1423 -0.4301
  185POPC   H3Y21306   2.256   3.870   2.874 -0.2048 -0.4765  1.4518
  185POPC   C3421307   2.415   3.778   2.966  0.0133  0.4250 -0.6482
  185POPC   H4X21308   2.469   3.872   2.990 -2.1918  1.4878  0.4141
  185POPC   H4Y21309   2.486   3.695   2.947 -0.1437 -0.1060  0.9074
  185POPC   C3521310   2.334   3.744   3.096  0.0103 -0.2277  0.7033
  185POPC   H5X21311   2.410   3.734   3.176  0.2863  0.8589  0.5789
  185POPC   H5Y21312   2.292   3.643   3.072  0.6344 -0.5449  0.9289
  185POPC   C3621313   2.229   3.852   3.117 -0.1847  0.1121  0.2214
  185POPC   H6X21314   2.156   3.835   3.035  0.5062 -0.9624 -0.1945
  185POPC   H6Y21315   2.274   3.951   3.093 -1.6724  0.1475 -2.8896
  185POPC   C3721316   2.154   3.845   3.256  0.6844 -0.2105  1.1306
  185POPC   H7X21317   2.102   3.747   3.266 -0.4632  0.5457  3.3362
  185POPC   H7Y21318   2.067   3.915   3.256  1.4280  0.8146 -1.6857
  185POPC   C3821319   2.244   3.877   3.377 -0.0420 -0.3040 -0.1947
  185POPC   H8X21320   2.265   3.986   3.380  0.5906 -0.3845 -1.2565
  185POPC   H8Y21321   2.338   3.822   3.353 -0.0455 -0.4337  0.0840
  185POPC   C3921322   2.177   3.835   3.505 -0.2699 -0.5067  0.2314
  185POPC   H9X21323   2.147   3.730   3.486 -0.0590 -0.6383  0.6025
  185POPC   H9Y21324   2.082   3.889   3.525  0.1252 -1.0377  4.4361
  185POPC  C31021325   2.273   3.848   3.626  0.5238  0.4126  0.3567
  185POPC  H10X21326   2.370   3.807   3.591  0.3723  1.3085 -1.2227
  185POPC  H10Y21327   2.229   3.799   3.715  0.9201 -3.0373 -1.2126
  185POPC  C31121328   2.294   3.997   3.664 -0.3559 -0.1910  0.4270
  185POPC  H11X21329   2.197   4.051   3.669  0.6110  1.5736  0.7173
  185POPC  H11Y21330   2.366   4.031   3.586 -0.2689  0.2813  0.7144
  185POPC  C31221331   2.363   4.018   3.802  0.0232  0.0218 -0.2397
  185POPC  H12X21332   2.466   3.980   3.788 -0.4382 -1.5360  0.4265
  185POPC  H12Y21333   2.306   3.948   3.866  1.8583 -1.5550 -0.2702
  185POPC  C31321334   2.351   4.164   3.848 -0.5460 -0.1071 -0.0333
  185POPC  H13X21335   2.254   4.209   3.818 -1.4193 -0.7551  1.7352
  185POPC  H13Y21336   2.433   4.217   3.793 -0.5761 -1.4223 -1.4143
  185POPC  C31421337   2.376   4.176   3.997  0.2606 -0.6153 -0.1356
  185POPC  H14X21338   2.473   4.123   4.007  0.3701 -0.4745 -0.4546
  185POPC  H14Y21339   2.298   4.137   4.066  2.0778 -1.2127  1.6926
  185POPC  C31521340   2.393   4.320   4.040 -0.6287  0.0813  0.2911
  185POPC  H15X21341   2.296   4.373   4.036 -1.7390 -1.8632  0.0659
  185POPC  H15Y21342   2.458   4.366   3.963 -2.2553 -2.8411 -3.0950
  185POPC  C31621343   2.443   4.334   4.181 -0.0566 -0.0524 -0.4840
  185POPC  H16X21344   2.474   4.439   4.201  2.4874 -0.5533 -1.3014
  185POPC  H16Y21345   2.534   4.273   4.203  0.2326  0.6288  0.2770
  185POPC  H16Z21346   2.360   4.314   4.251 -0.5830  0.5719 -0.9221
  186POPC     N21347   3.565   5.351   2.069  0.2791 -0.4771 -0.5519
  186POPC   C1221348   3.628   5.383   2.213  0.8446  0.2235  0.9305
  186POPC  H12A21349   3.736   5.380   2.205  0.6781 -1.0670 -2.2238
  186POPC  H12B21350   3.596   5.301   2.276 -2.2630  0.7041  0.1322
  186POPC   C1321351   3.417   5.356   2.073  0.1873 -0.0534  0.3612
  186POPC  H13A21352   3.375   5.374   1.976 -0.6897  0.3571  0.8053
  186POPC  H13B21353   3.367   5.267   2.106  1.8854 -0.6790  1.3949
  186POPC  H13C21354   3.395   5.437   2.141  3.0016  0.0949  1.2524
  186POPC   C1421355   3.607   5.448   1.964 -0.2305  0.4298 -0.8480
  186POPC  H14A21356   3.715   5.446   1.959 -0.2657 -0.9487 -1.6130
  186POPC  H14B21357   3.580   5.421   1.863 -0.8296 -0.5585 -0.4347
  186POPC  H14C21358   3.574   5.548   1.990  1.2316  0.7864 -0.2493
  186POPC   C1521359   3.605   5.210   2.031 -0.9413  0.1332  0.2698
  186POPC  H15A21360   3.712   5.205   2.017 -1.1106  0.9826 -1.6455
  186POPC  H15B21361   3.561   5.181   1.936 -2.1411  1.4560  0.3939
  186POPC  H15C21362   3.577   5.133   2.101 -0.8063 -0.8952 -0.7732
  186POPC   C1121363   3.585   5.513   2.282  0.5443 -0.3438  0.1436
  186POPC  H11A21364   3.618   5.512   2.388  1.9261 -1.3866 -0.2640
  186POPC  H11B21365   3.475   5.501   2.297  0.5319 -1.6905 -0.8887
  186POPC     P21366   3.775   5.680   2.227 -0.5092  0.5608  0.0751
  186POPC   O1321367   3.788   5.787   2.130  0.4565 -0.1738  0.4580
  186POPC   O1421368   3.872   5.567   2.205  0.1681 -0.1121 -0.2410
  186POPC   O1221369   3.629   5.628   2.214 -0.1589  0.2081 -0.0010
  186POPC   O1121370   3.794   5.742   2.368 -0.3479  0.2809 -0.0018
  186POPC    C121371   3.702   5.843   2.416 -0.2318 -0.3393 -0.2874
  186POPC    HA21372   3.596   5.808   2.408 -0.3891  0.5075 -3.4832
  186POPC    HB21373   3.713   5.947   2.379 -3.4731  1.1086  2.3214
  186POPC    C221374   3.716   5.863   2.575 -0.4244 -0.0792  0.4305
  186POPC    HS21375   3.819   5.894   2.606 -0.2892 -1.7385  1.7778
  186POPC   O2121376   3.692   5.734   2.634 -0.7571 -0.0710  0.6374
  186POPC   C2121377   3.793   5.651   2.653 -0.0748 -0.2577  0.7212
  186POPC   O2221378   3.908   5.672   2.613  0.3195  0.1202  0.4604
  186POPC   C2221379   3.746   5.520   2.723 -0.2808 -0.7021 -0.2085
  186POPC   H2R21380   3.789   5.444   2.655 -0.5663 -1.2232  0.1822
  186POPC   H2S21381   3.636   5.513   2.714 -0.4775  0.5374  0.8513
  186POPC    C321382   3.611   5.963   2.628  0.6976 -0.4826  0.3977
  186POPC    HX21383   3.510   5.923   2.605  1.3973 -1.8860 -0.3502
  186POPC    HY21384   3.624   6.057   2.571  0.2584 -1.7169 -1.8456
  186POPC   O3121385   3.639   5.991   2.769  0.1185 -0.3365 -0.2238
  186POPC   C3121386   3.534   5.996   2.851  0.6713 -0.0678  0.7812
  186POPC   O3221387   3.419   5.981   2.820  0.1596  0.0431  0.1388
  186POPC   C3221388   3.589   6.013   2.994 -0.1916  1.0248  0.9257
  186POPC   H2X21389   3.655   6.102   2.984  1.3050 -0.2672 -2.0899
  186POPC   H2Y21390   3.652   5.925   3.019  2.2683  1.2038 -3.5680
  186POPC   C2321391   3.786   5.509   2.867  0.0146  0.2443 -0.0377
  186POPC   H3R21392   3.890   5.541   2.888 -0.2397 -0.0385  1.8051
  186POPC   H3S21393   3.778   5.407   2.910  1.8770  1.4330  3.4762
  186POPC   C2421394   3.696   5.590   2.959  0.3678  0.2442  0.1395
  186POPC   H4R21395   3.589   5.562   2.941  0.4071 -0.0928  0.4268
  186POPC   H4S21396   3.714   5.700   2.960  0.1368  0.2846  0.1447
  186POPC   C2521397   3.727   5.526   3.095  0.3006 -0.2917 -0.2980
  186POPC   H5R21398   3.835   5.539   3.119  0.6238  0.0814 -1.8392
  186POPC   H5S21399   3.711   5.416   3.098 -2.0006  0.0087  0.0879
  186POPC   C2621400   3.633   5.576   3.202  0.5200  0.2621 -0.4848
  186POPC   H6R21401   3.530   5.536   3.186  0.5641 -0.0353 -0.0481
  186POPC   H6S21402   3.622   5.687   3.198  1.2537  0.3381 -0.5826
  186POPC   C2721403   3.686   5.533   3.339 -0.3749 -0.8639  0.0717
  186POPC   H7R21404   3.785   5.583   3.349 -0.6366 -0.7029  2.3026
  186POPC   H7S21405   3.707   5.425   3.349 -1.3325 -1.0352  0.2896
  186POPC   C2821406   3.597   5.589   3.453  0.5949 -0.1305 -0.5623
  186POPC   H8R21407   3.502   5.533   3.451  1.1009 -1.0185 -0.2391
  186POPC   H8S21408   3.565   5.695   3.443 -1.6155 -0.2091  3.4831
  186POPC   C2921409   3.664   5.576   3.587 -0.2870 -0.7897  0.0323
  186POPC   H9121410   3.756   5.635   3.599 -0.2825 -0.9142  0.6293
  186POPC  C21021411   3.633   5.484   3.686  0.0111 -0.1358  0.3861
  186POPC  H10121412   3.697   5.480   3.776  1.8516 -0.5468 -0.8844
  186POPC  C21121413   3.532   5.380   3.699 -0.9470 -0.1955 -0.6803
  186POPC  H11R21414   3.581   5.289   3.742  2.0612  0.2685 -2.8112
  186POPC  H11S21415   3.501   5.341   3.600  0.0456 -0.3581 -0.9413
  186POPC  C21221416   3.406   5.417   3.778 -0.0363 -0.1330  0.4877
  186POPC  H12R21417   3.331   5.478   3.723 -1.3242 -0.3034  2.0076
  186POPC  H12S21418   3.434   5.472   3.870 -0.0090 -0.9177  0.9595
  186POPC  C21321419   3.323   5.299   3.829  0.1502  0.1621 -0.5736
  186POPC  H13R21420   3.380   5.241   3.905 -3.0074  0.3280  2.1646
  186POPC  H13S21421   3.295   5.231   3.746 -0.7010 -0.2609  0.0499
  186POPC  C21421422   3.201   5.372   3.896 -0.1094 -0.0817  0.2431
  186POPC  H14R21423   3.146   5.427   3.817  0.6005 -0.0232 -0.2076
  186POPC  H14S21424   3.228   5.443   3.978  0.6695 -2.4350  2.1497
  186POPC  C21521425   3.101   5.269   3.957  0.1847 -0.0214 -0.2052
  186POPC  H15R21426   3.115   5.174   3.901  2.4971  0.0949  0.0947
  186POPC  H15S21427   2.997   5.304   3.939 -0.0468 -1.4928 -2.0048
  186POPC  C21621428   3.132   5.235   4.102  0.5187  0.1711  0.1368
  186POPC  H16R21429   3.230   5.183   4.091  0.9498  0.6204  1.6341
  186POPC  H16S21430   3.058   5.161   4.141 -2.1744  0.8207 -3.3393
  186POPC  C21721431   3.156   5.344   4.205  0.4472  0.2148  0.3093
  186POPC  H17R21432   3.075   5.332   4.280 -0.3814 -0.5395 -0.6798
  186POPC  H17S21433   3.151   5.444   4.157  1.9420 -0.0273 -0.3895
  186POPC  C21821434   3.294   5.336   4.267 -0.0608 -0.2428  0.2256
  186POPC  H18R21435   3.366   5.378   4.193  0.8027 -1.0926  0.5657
  186POPC  H18S21436   3.297   5.386   4.366 -3.4023 -1.8494  1.2900
  186POPC  H18T21437   3.328   5.232   4.285 -0.3988 -0.5210 -0.6565
  186POPC   C3321438   3.490   6.060   3.101 -1.0215 -0.2111  0.2563
  186POPC   H3X21439   3.420   5.981   3.133  0.5996 -1.4902  0.7735
  186POPC   H3Y21440   3.432   6.146   3.062 -0.2931 -0.2092 -0.8823
  186POPC   C3421441   3.573   6.104   3.231 -0.3100 -0.1513  0.2320
  186POPC   H4X21442   3.634   6.191   3.199  3.0091 -1.5951  2.1272
  186POPC   H4Y21443   3.637   6.017   3.257 -1.0377 -0.1568  2.2068
  186POPC   C3521444   3.483   6.137   3.346  0.2094 -0.2548  0.4424
  186POPC   H5X21445   3.397   6.201   3.317  0.4325  0.1196  0.6006
  186POPC   H5Y21446   3.534   6.193   3.427 -0.3292 -0.6020  1.0254
  186POPC   C3621447   3.425   6.006   3.410  0.4425 -0.6032 -0.0650
  186POPC   H6X21448   3.497   5.924   3.394 -0.7136 -1.4614 -1.0638
  186POPC   H6Y21449   3.334   5.984   3.350  1.2094 -2.1494 -0.7271
  186POPC   C3721450   3.396   6.021   3.557  0.5671 -0.7230 -0.4140
  186POPC   H7X21451   3.316   6.094   3.580  0.8542  0.0833 -1.8438
  186POPC   H7Y21452   3.482   6.079   3.597  1.1476 -0.2435 -2.2766
  186POPC   C3821453   3.379   5.893   3.638 -0.0737 -0.6886  0.8229
  186POPC   H8X21454   3.480   5.845   3.643 -1.2869 -3.5201  0.1414
  186POPC   H8Y21455   3.321   5.817   3.581 -1.4848 -0.5826  2.0645
  186POPC   C3921456   3.323   5.914   3.780  0.2578  0.2355 -0.3539
  186POPC   H9X21457   3.221   5.957   3.783 -0.3466 -1.1217 -0.2586
  186POPC   H9Y21458   3.390   5.976   3.843 -1.2571  2.3252 -0.7223
  186POPC  C31021459   3.325   5.785   3.865 -0.5524  0.3237 -0.2135
  186POPC  H10X21460   3.427   5.741   3.868 -1.1350 -1.0469  2.7145
  186POPC  H10Y21461   3.253   5.708   3.829  0.0175 -0.2723 -0.0918
  186POPC  C31121462   3.285   5.824   4.006 -0.0502  0.8969 -0.1589
  186POPC  H11X21463   3.174   5.828   3.999 -0.2597 -0.7473  1.4604
  186POPC  H11Y21464   3.332   5.923   4.020  1.1050  0.9989 -3.5988
  186POPC  C31221465   3.329   5.721   4.110  0.0679 -0.8651 -0.2848
  186POPC  H12X21466   3.434   5.693   4.086 -0.0651 -0.0270 -1.9963
  186POPC  H12Y21467   3.264   5.631   4.109  0.9401 -1.5438  0.9800
  186POPC  C31321468   3.325   5.777   4.252 -0.3482  0.4464  0.2986
  186POPC  H13X21469   3.416   5.841   4.251 -0.1302  0.1357 -0.1806
  186POPC  H13Y21470   3.347   5.702   4.331  0.6038 -0.1043 -0.4554
  186POPC  C31421471   3.209   5.866   4.292 -0.3891  0.5625 -0.4073
  186POPC  H14X21472   3.119   5.812   4.328  2.1500 -3.4786  0.4422
  186POPC  H14Y21473   3.186   5.937   4.209  1.9961  1.9672  0.0348
  186POPC  C31521474   3.248   5.946   4.413  0.0641 -0.3545 -0.0344
  186POPC  H15X21475   3.356   5.971   4.406  0.2485 -1.6120 -3.1329
  186POPC  H15Y21476   3.245   5.883   4.504 -1.0617 -0.2088  0.0444
  186POPC  C31621477   3.156   6.075   4.434  0.3985  0.0405  0.0193
  186POPC  H16X21478   3.218   6.159   4.396  0.0815  0.6881  0.8999
  186POPC  H16Y21479   3.135   6.096   4.541  0.3746  1.6891 -0.2774
  186POPC  H16Z21480   3.062   6.082   4.375  0.8509  0.9291 -0.6126
  187POPC     N21481   2.440   2.205   2.447  0.1775  0.3072 -0.3227
  187POPC   C1221482   2.587   2.239   2.438 -0.1442  0.4290 -0.6088
  187POPC  H12A21483   2.647   2.159   2.478 -0.0411 -0.2441 -2.0298
  187POPC  H12B21484   2.609   2.314   2.513 -0.2511 -2.3733  2.4085
  187POPC   C1321485   2.350   2.317   2.406 -0.9409 -0.2332  0.1032
  187POPC  H13A21486   2.354   2.390   2.485 -2.1360 -1.8573  1.7743
  187POPC  H13B21487   2.387   2.362   2.315 -2.8750 -0.6287 -0.9482
  187POPC  H13C21488   2.248   2.297   2.374 -1.2266  0.3019  0.6721
  187POPC   C1421489   2.419   2.085   2.354 -0.0823 -0.1558 -0.1822
  187POPC  H14A21490   2.318   2.047   2.354  0.0537 -0.5328 -0.8583
  187POPC  H14B21491   2.436   2.112   2.251  2.8105 -2.0669 -0.3350
  187POPC  H14C21492   2.497   2.015   2.379  0.8962  0.8388 -0.3585
  187POPC   C1521493   2.413   2.161   2.592  0.3483 -0.1686  0.8404
  187POPC  H15A21494   2.450   2.227   2.669 -0.7794 -0.5657  1.7434
  187POPC  H15B21495   2.456   2.063   2.602  0.6896 -0.0217  0.8357
  187POPC  H15C21496   2.306   2.146   2.598  0.0897  0.7627 -0.7938
  187POPC   C1121497   2.644   2.291   2.305  0.4482 -0.0457 -0.0792
  187POPC  H11A21498   2.739   2.349   2.307  1.0134 -0.8056 -2.1674
  187POPC  H11B21499   2.567   2.361   2.269 -0.0582 -0.8222 -0.5415
  187POPC     P21500   2.776   2.096   2.201 -0.0760 -0.3432  0.0847
  187POPC   O1321501   2.880   2.142   2.108 -0.6110  0.1784 -0.0073
  187POPC   O1421502   2.732   1.957   2.189 -0.2346 -0.0912  0.0096
  187POPC   O1221503   2.655   2.198   2.200  0.8203  0.3553 -0.2869
  187POPC   O1121504   2.840   2.110   2.341 -0.7502  0.1685 -0.3837
  187POPC    C121505   2.882   2.004   2.423  0.4816 -0.1396  0.3760
  187POPC    HA21506   2.987   2.025   2.454  0.3060 -1.5732  2.0847
  187POPC    HB21507   2.884   1.905   2.373 -1.0265 -1.4098  2.6636
  187POPC    C221508   2.794   1.978   2.553 -0.6222 -0.2766 -0.0024
  187POPC    HS21509   2.692   1.954   2.514 -0.1593 -0.1074 -1.3575
  187POPC   O2121510   2.763   2.087   2.643 -0.1126 -0.4739  0.2454
  187POPC   C2121511   2.861   2.139   2.724 -0.0227  0.1367  0.5763
  187POPC   O2221512   2.977   2.100   2.712  0.5372 -0.2640 -0.0170
  187POPC   C2221513   2.810   2.252   2.812 -0.0672 -0.0228  0.8717
  187POPC   H2R21514   2.722   2.216   2.869  0.4833  1.8770  3.0501
  187POPC   H2S21515   2.773   2.329   2.741 -3.3342 -1.5773  0.6541
  187POPC    C321516   2.838   1.848   2.619 -0.2679  0.5672  0.3527
  187POPC    HX21517   2.944   1.849   2.651 -0.4526 -0.3132  0.9971
  187POPC    HY21518   2.828   1.752   2.564 -0.9033 -0.2641  1.8817
  187POPC   O3121519   2.769   1.830   2.745 -0.0172  0.7426  0.5061
  187POPC   C3121520   2.651   1.790   2.744 -0.3309 -0.0397 -0.3287
  187POPC   O3221521   2.592   1.762   2.641  0.7046 -0.0110 -0.5335
  187POPC   C3221522   2.598   1.784   2.891  0.1956 -0.1089 -0.3089
  187POPC   H2X21523   2.497   1.826   2.875  0.3408  0.1657 -0.5280
  187POPC   H2Y21524   2.657   1.850   2.959 -2.4295  3.3512 -1.1080
  187POPC   C2321525   2.918   2.317   2.899 -0.4240  0.0803 -0.0561
  187POPC   H3R21526   3.000   2.362   2.839  0.8358 -2.0383 -0.0308
  187POPC   H3S21527   2.964   2.240   2.965  3.1349  0.1862 -2.1861
  187POPC   C2421528   2.860   2.418   2.996  0.3562 -0.2273  0.6978
  187POPC   H4R21529   2.782   2.475   2.941  3.2184  0.2142 -3.4038
  187POPC   H4S21530   2.941   2.489   3.027 -0.2386 -0.3205  2.5768
  187POPC   C2521531   2.796   2.352   3.125 -0.0281 -0.0189  0.2600
  187POPC   H5R21532   2.883   2.294   3.161 -0.4359 -1.1438 -0.5247
  187POPC   H5S21533   2.717   2.280   3.094  0.4321 -0.3444 -0.1779
  187POPC   C2621534   2.741   2.460   3.214 -0.0653 -0.2757 -0.2302
  187POPC   H6R21535   2.632   2.470   3.193 -0.2562 -0.7132  0.4962
  187POPC   H6S21536   2.802   2.552   3.202 -0.3886  0.0003  0.1750
  187POPC   C2721537   2.753   2.413   3.369 -0.0430  0.5998 -0.1714
  187POPC   H7R21538   2.758   2.504   3.432 -0.9295  0.2028  0.4975
  187POPC   H7S21539   2.856   2.371   3.373 -0.1904  0.0008 -1.7512
  187POPC   C2821540   2.631   2.327   3.410 -0.4355 -0.0416 -0.4365
  187POPC   H8R21541   2.590   2.260   3.332 -1.8369  0.4043 -0.1127
  187POPC   H8S21542   2.558   2.406   3.440  1.4248  0.6917  2.5910
  187POPC   C2921543   2.650   2.237   3.526 -0.3319  0.0183 -0.2679
  187POPC   H9121544   2.710   2.152   3.490  1.6793  1.2516  0.0169
  187POPC  C21021545   2.598   2.245   3.645  0.7478 -0.6338 -0.2864
  187POPC  H10121546   2.621   2.157   3.706  1.2152 -0.9180 -0.8627
  187POPC  C21121547   2.512   2.357   3.709 -0.3695  0.4505  0.0983
  187POPC  H11R21548   2.422   2.295   3.731  1.9944 -2.7073  1.5959
  187POPC  H11S21549   2.487   2.439   3.637 -0.0355 -1.8401 -2.8163
  187POPC  C21221550   2.560   2.409   3.849  0.2030  0.1464  0.0115
  187POPC  H12R21551   2.575   2.518   3.842 -1.2530  0.3547 -0.1710
  187POPC  H12S21552   2.650   2.355   3.886  0.7437  2.2337  1.9349
  187POPC  C21321553   2.457   2.394   3.956 -0.4158 -0.1840  0.1275
  187POPC  H13R21554   2.397   2.302   3.937  0.1231 -1.0430  2.3495
  187POPC  H13S21555   2.374   2.469   3.953 -1.1029 -0.7509  2.5325
  187POPC  C21421556   2.522   2.394   4.099  0.2998  0.0793  0.0699
  187POPC  H14R21557   2.609   2.463   4.094 -1.3267  2.1245 -1.2910
  187POPC  H14S21558   2.566   2.297   4.132  1.0971  0.3339 -0.2203
  187POPC  C21521559   2.432   2.453   4.208 -0.4036 -0.8965 -0.0643
  187POPC  H15R21560   2.491   2.432   4.300  2.1862  0.5432 -1.2880
  187POPC  H15S21561   2.338   2.394   4.209 -1.9434  1.3806  2.0637
  187POPC  C21621562   2.402   2.606   4.207 -0.0307  1.0933 -0.6030
  187POPC  H16R21563   2.327   2.620   4.127 -1.4042 -1.9328 -0.0053
  187POPC  H16S21564   2.496   2.665   4.203  2.5319 -2.6454 -0.2996
  187POPC  C21721565   2.337   2.641   4.342  0.1820 -0.2011 -0.2051
  187POPC  H17R21566   2.249   2.581   4.373 -1.1931  2.8346  2.3817
  187POPC  H17S21567   2.303   2.744   4.318 -1.2346 -0.6586 -0.2573
  187POPC  C21821568   2.433   2.655   4.457 -0.4937 -0.3138 -0.2454
  187POPC  H18R21569   2.471   2.551   4.468 -0.7438 -0.2899  0.9032
  187POPC  H18S21570   2.390   2.696   4.551  3.2649  1.2541  0.9614
  187POPC  H18T21571   2.519   2.719   4.430 -0.5856 -0.3336 -0.6014
  187POPC   C3321572   2.598   1.643   2.950 -0.1876  0.3944  0.3628
  187POPC   H3X21573   2.700   1.608   2.977  1.0256  3.3205  0.0090
  187POPC   H3Y21574   2.543   1.571   2.886 -0.8357 -0.5423  1.9105
  187POPC   C3421575   2.522   1.634   3.088 -0.1279  0.9362  0.0271
  187POPC   H4X21576   2.515   1.528   3.123 -3.9762  1.6065  1.8272
  187POPC   H4Y21577   2.417   1.664   3.064  0.3250  0.8961 -2.1957
  187POPC   C3521578   2.574   1.737   3.194 -0.1769  0.1145  0.6253
  187POPC   H5X21579   2.566   1.842   3.159 -0.2693 -0.7350 -2.2024
  187POPC   H5Y21580   2.677   1.697   3.206 -0.6535 -0.5884  2.7601
  187POPC   C3621581   2.494   1.718   3.326  0.0583 -0.2896 -0.4263
  187POPC   H6X21582   2.457   1.613   3.321  1.3162 -0.8249  0.7707
  187POPC   H6Y21583   2.408   1.786   3.311 -1.2223 -1.7644 -0.0622
  187POPC   C3721584   2.582   1.751   3.448 -0.3006  0.2319 -0.5716
  187POPC   H7X21585   2.602   1.860   3.458 -1.7838  0.3733  1.4147
  187POPC   H7Y21586   2.677   1.697   3.429 -1.3845 -1.8994 -0.1929
  187POPC   C3821587   2.519   1.714   3.589  0.2976 -0.2405  0.0675
  187POPC   H8X21588   2.503   1.605   3.585 -0.4041 -0.2497  2.2652
  187POPC   H8Y21589   2.422   1.766   3.601  0.5697  0.0774  0.9268
  187POPC   C3921590   2.598   1.758   3.712  0.1778  0.6063 -0.9305
  187POPC   H9X21591   2.613   1.868   3.707  0.7138  0.6856  1.4522
  187POPC   H9Y21592   2.690   1.697   3.725 -1.1681 -0.8415  6.0908
  187POPC  C31021593   2.533   1.719   3.840 -0.0207 -0.0582  0.1310
  187POPC  H10X21594   2.506   1.611   3.839  1.5279 -0.4667  0.1391
  187POPC  H10Y21595   2.429   1.756   3.857  0.3524  0.7723  0.6879
  187POPC  C31121596   2.641   1.731   3.949 -0.0602 -0.1932  0.2335
  187POPC  H11X21597   2.665   1.837   3.974  0.9239 -0.2765 -0.3022
  187POPC  H11Y21598   2.741   1.694   3.918  0.2902 -1.2236  2.4080
  187POPC  C31221599   2.610   1.676   4.086  0.0397  0.5845 -0.1005
  187POPC  H12X21600   2.605   1.565   4.080 -0.4079  0.6591 -1.3939
  187POPC  H12Y21601   2.511   1.715   4.119  1.0258  2.3995  0.9017
  187POPC  C31321602   2.718   1.723   4.185 -0.2871  0.1490  0.3018
  187POPC  H13X21603   2.731   1.833   4.175  2.8335  0.0389  1.9176
  187POPC  H13Y21604   2.817   1.685   4.151 -0.9090 -0.9425 -0.3467
  187POPC  C31421605   2.689   1.678   4.332 -0.5017  0.3208 -0.3954
  187POPC  H14X21606   2.586   1.703   4.364 -1.2202 -1.7368 -0.9313
  187POPC  H14Y21607   2.756   1.746   4.390 -0.7363  0.2912 -0.0876
  187POPC  C31521608   2.717   1.529   4.362 -0.2609 -0.5808 -0.5017
  187POPC  H15X21609   2.816   1.507   4.318 -0.0564  0.9218 -0.8476
  187POPC  H15Y21610   2.642   1.465   4.311 -1.2896 -1.4016  1.9040
  187POPC  C31621611   2.716   1.506   4.512 -0.6187  0.4435  0.3991
  187POPC  H16X21612   2.799   1.560   4.563  0.2091  0.4516 -0.9160
  187POPC  H16Y21613   2.738   1.398   4.519  1.0108  0.6136 -1.3054
  187POPC  H16Z21614   2.618   1.523   4.562 -0.6453 -0.0652  0.5255
  188POPC     N21615   4.526   3.648   1.904 -0.1505 -0.2735  0.3574
  188POPC   C1221616   4.393   3.686   1.969  0.0828  0.6503  0.1269
  188POPC  H12A21617   4.384   3.619   2.053 -1.2727  1.1103  0.3699
  188POPC  H12B21618   4.309   3.667   1.905  0.8355  1.4436 -1.1288
  188POPC   C1321619   4.560   3.722   1.775  0.7283 -0.3715 -0.1933
  188POPC  H13A21620   4.644   3.671   1.730 -1.7717 -2.5600 -2.7832
  188POPC  H13B21621   4.484   3.697   1.701  0.0108 -0.3558  0.5240
  188POPC  H13C21622   4.572   3.828   1.787  0.7328 -0.3135 -0.6887
  188POPC   C1421623   4.631   3.670   2.002 -0.0752 -0.0575 -0.1846
  188POPC  H14A21624   4.729   3.662   1.956 -0.0147  0.4327 -0.1470
  188POPC  H14B21625   4.614   3.764   2.051 -0.7247 -1.0437  1.5524
  188POPC  H14C21626   4.633   3.595   2.080  0.6896 -0.4864 -0.5956
  188POPC   C1521627   4.517   3.496   1.877 -0.2687  0.1341  0.5077
  188POPC  H15A21628   4.611   3.462   1.836 -1.4820 -1.4617 -1.1789
  188POPC  H15B21629   4.444   3.481   1.798  0.6952 -1.8729 -0.0831
  188POPC  H15C21630   4.494   3.431   1.960  2.5326 -1.1755  0.3847
  188POPC   C1121631   4.388   3.828   2.012 -0.0370 -0.5229  0.0130
  188POPC  H11A21632   4.286   3.857   2.047  0.9896  1.4735  1.5846
  188POPC  H11B21633   4.407   3.899   1.928  1.6003 -1.9077 -0.8436
  188POPC     P21634   4.522   4.007   2.153  0.1792  0.0039 -0.3221
  188POPC   O1321635   4.436   4.104   2.088 -0.4255 -0.0141 -0.3398
  188POPC   O1421636   4.668   4.012   2.124  0.2086  0.1970 -0.0179
  188POPC   O1221637   4.472   3.864   2.117 -0.0332  0.1139 -0.3725
  188POPC   O1121638   4.490   4.008   2.309 -0.0700  0.5417 -0.5972
  188POPC    C121639   4.364   3.997   2.374 -0.1280  0.4673  0.1581
  188POPC    HA21640   4.279   3.994   2.302 -1.2580  1.6270  1.3751
  188POPC    HB21641   4.350   4.095   2.424 -1.9001  1.3609 -1.8701
  188POPC    C221642   4.363   3.885   2.477  0.1049  0.6005  0.3556
  188POPC    HS21643   4.264   3.861   2.522  0.3276 -0.5944  0.2512
  188POPC   O2121644   4.457   3.902   2.583  0.1037 -0.2886  0.1301
  188POPC   C2121645   4.412   3.982   2.679 -0.3630  0.5830 -0.5286
  188POPC   O2221646   4.303   4.039   2.680 -0.2591  0.1179 -0.3394
  188POPC   C2221647   4.499   3.967   2.799  0.5732 -0.9708  0.2145
  188POPC   H2R21648   4.557   4.061   2.802  0.9396 -1.1528 -0.7342
  188POPC   H2S21649   4.577   3.892   2.773 -0.9491 -2.0477 -1.6045
  188POPC    C321650   4.400   3.747   2.405  0.9508 -0.5393 -0.1972
  188POPC    HX21651   4.503   3.751   2.364  1.7828  0.6476  1.8245
  188POPC    HY21652   4.334   3.747   2.316  1.4910  1.7744 -0.6635
  188POPC   O3121653   4.367   3.640   2.494 -0.0217  0.1937 -0.6342
  188POPC   C3121654   4.403   3.515   2.460 -0.6024  0.3452 -0.1679
  188POPC   O3221655   4.475   3.486   2.364  0.5730 -0.7618  0.3226
  188POPC   C3221656   4.329   3.410   2.547  0.3708  0.5833  0.1650
  188POPC   H2X21657   4.305   3.321   2.485 -0.3252 -0.2635  1.5863
  188POPC   H2Y21658   4.228   3.448   2.572 -0.4605 -1.4913  0.1942
  188POPC   C2321659   4.428   3.944   2.931  0.4486 -0.2767  0.3081
  188POPC   H3R21660   4.390   3.840   2.945 -4.5848  1.2700  0.1007
  188POPC   H3S21661   4.346   4.019   2.940  0.8923  0.1852  0.5372
  188POPC   C2421662   4.512   3.962   3.053 -0.6398  0.1037 -0.1503
  188POPC   H4R21663   4.525   4.072   3.062 -1.0904  0.3654 -2.1489
  188POPC   H4S21664   4.613   3.924   3.028 -0.7707 -1.0290  0.9476
  188POPC   C2521665   4.467   3.890   3.185 -0.3835 -0.2847  0.1142
  188POPC   H5R21666   4.439   3.788   3.152 -0.6882 -0.6331  1.3924
  188POPC   H5S21667   4.374   3.945   3.211 -1.1953 -1.0772 -1.0317
  188POPC   C2621668   4.567   3.902   3.299  0.1057  0.3434 -0.7642
  188POPC   H6R21669   4.601   4.007   3.303  1.5612 -0.1559  0.9528
  188POPC   H6S21670   4.643   3.820   3.291 -0.3506 -0.0930 -0.6614
  188POPC   C2721671   4.504   3.863   3.439  0.8752  0.2951  0.2063
  188POPC   H7R21672   4.479   3.757   3.419 -4.6810  1.1882  0.5922
  188POPC   H7S21673   4.404   3.912   3.439 -1.1852 -3.5419  1.8942
  188POPC   C2821674   4.568   3.888   3.578  0.5715  0.0390  0.2088
  188POPC   H8R21675   4.670   3.842   3.574 -0.7976 -3.2567 -0.5259
  188POPC   H8S21676   4.509   3.826   3.649  2.4154 -0.1862  1.6368
  188POPC   C2921677   4.574   4.030   3.616  0.0704 -0.5960 -0.1590
  188POPC   H9121678   4.626   4.097   3.546 -1.4203  0.6535 -0.1206
  188POPC  C21021679   4.542   4.082   3.730  0.4008 -0.4650 -0.1047
  188POPC  H10121680   4.537   4.192   3.735 -1.0690 -0.4586 -1.0612
  188POPC  C21121681   4.481   4.012   3.852 -0.3024  0.3692 -0.8598
  188POPC  H11R21682   4.419   3.925   3.823  3.4522 -2.3825 -1.4119
  188POPC  H11S21683   4.420   4.080   3.915 -0.7407  0.2296 -1.1322
  188POPC  C21221684   4.587   3.942   3.939  0.4646 -0.0089  0.9569
  188POPC  H12R21685   4.661   4.011   3.985  3.4327  0.4115 -3.7603
  188POPC  H12S21686   4.651   3.883   3.870 -1.2519 -1.0411  0.1925
  188POPC  C21321687   4.536   3.832   4.040 -0.6804  0.5943  0.9110
  188POPC  H13R21688   4.457   3.880   4.103 -2.8354 -2.3682  0.7056
  188POPC  H13S21689   4.615   3.790   4.105 -1.3578  1.2227  2.1984
  188POPC  C21421690   4.474   3.714   3.971  0.5706 -0.0057  0.1031
  188POPC  H14R21691   4.537   3.678   3.887 -1.2955  1.4487 -2.0241
  188POPC  H14S21692   4.381   3.756   3.926  0.9626 -0.0035 -0.7287
  188POPC  C21521693   4.428   3.606   4.068 -0.2849  0.2040 -0.2022
  188POPC  H15R21694   4.519   3.577   4.124  0.1652  1.2479 -0.3845
  188POPC  H15S21695   4.396   3.514   4.015 -2.8779 -1.6089  3.9182
  188POPC  C21621696   4.311   3.640   4.165  0.4750 -0.7869 -0.3847
  188POPC  H16R21697   4.334   3.731   4.225 -2.3201  2.3520 -3.5723
  188POPC  H16S21698   4.289   3.558   4.236 -0.7511 -0.1808 -0.0374
  188POPC  C21721699   4.182   3.669   4.083  0.1972  0.3691  0.1313
  188POPC  H17R21700   4.157   3.582   4.018  1.6326  1.5889 -2.1907
  188POPC  H17S21701   4.195   3.756   4.014 -2.8078 -0.3696 -1.5617
  188POPC  C21821702   4.052   3.708   4.166 -0.3990  0.1835 -0.8508
  188POPC  H18R21703   4.056   3.812   4.205  0.1139 -0.5953  1.3414
  188POPC  H18S21704   4.040   3.631   4.245  0.6594  1.3832  0.5551
  188POPC  H18T21705   3.963   3.710   4.100 -0.7000  1.7165 -0.4377
  188POPC   C3321706   4.410   3.372   2.673  0.1744  0.3217 -0.0580
  188POPC   H3X21707   4.515   3.346   2.648  0.4987 -0.5181  1.9135
  188POPC   H3Y21708   4.369   3.281   2.722  0.5584  0.9743  1.5523
  188POPC   C3421709   4.404   3.489   2.777 -0.5000 -0.0937  0.7888
  188POPC   H4X21710   4.296   3.514   2.773 -0.1063  1.7511  0.9594
  188POPC   H4Y21711   4.462   3.572   2.730 -0.6330 -0.0057  0.7804
  188POPC   C3521712   4.448   3.445   2.915  0.5971  0.9608 -0.2047
  188POPC   H5X21713   4.379   3.367   2.953  0.6719  0.7720 -0.4531
  188POPC   H5Y21714   4.451   3.530   2.987 -1.1714  0.0016  1.1069
  188POPC   C3621715   4.586   3.378   2.921 -0.4466  0.3642  0.3901
  188POPC   H6X21716   4.664   3.451   2.891 -1.1562  1.0125  0.1044
  188POPC   H6Y21717   4.578   3.296   2.847 -3.1155  1.8947 -1.1740
  188POPC   C3721718   4.611   3.321   3.063  0.1448 -0.5230  0.2091
  188POPC   H7X21719   4.703   3.260   3.063  2.0785  2.1058  2.7978
  188POPC   H7Y21720   4.524   3.262   3.100  1.1774 -1.3434  1.3862
  188POPC   C3821721   4.643   3.430   3.166 -0.2388 -0.1129 -0.3087
  188POPC   H8X21722   4.557   3.500   3.175 -1.6248 -1.8100  0.4478
  188POPC   H8Y21723   4.730   3.489   3.129  0.3531 -0.2383  0.8251
  188POPC   C3921724   4.662   3.360   3.307  0.3414 -0.7433 -0.8106
  188POPC   H9X21725   4.733   3.277   3.287 -1.6584 -2.8791  0.3730
  188POPC   H9Y21726   4.564   3.314   3.331 -0.5442  2.0085  1.4071
  188POPC  C31021727   4.686   3.446   3.428  0.2338 -0.0875  0.1644
  188POPC  H10X21728   4.611   3.527   3.420 -0.7322 -1.0595 -1.3346
  188POPC  H10Y21729   4.781   3.500   3.409  0.7910 -1.1814 -0.2668
  188POPC  C31121730   4.678   3.381   3.564 -0.4661 -0.3186  0.1033
  188POPC  H11X21731   4.751   3.297   3.566  0.4818  0.4685 -0.1339
  188POPC  H11Y21732   4.579   3.334   3.577  0.0216 -0.7998  2.4525
  188POPC  C31221733   4.691   3.464   3.688  0.3368  0.1664 -0.3074
  188POPC  H12X21734   4.665   3.408   3.781  1.2881 -0.2584 -0.2945
  188POPC  H12Y21735   4.619   3.549   3.682  0.6364  0.4178 -0.3932
  188POPC  C31321736   4.831   3.515   3.719 -0.2563 -0.3658 -0.0896
  188POPC  H13X21737   4.861   3.563   3.623  0.6879 -2.8848 -1.1318
  188POPC  H13Y21738   4.900   3.433   3.748  0.7806  0.0439 -1.3003
  188POPC  C31421739   4.843   3.617   3.833 -0.4541 -0.2214 -0.1848
  188POPC  H14X21740   4.762   3.694   3.835 -0.5624 -0.1556 -2.9508
  188POPC  H14Y21741   4.944   3.662   3.823  0.1648 -1.1002  1.6183
  188POPC  C31521742   4.851   3.548   3.973  0.2297 -0.0223 -0.0233
  188POPC  H15X21743   4.914   3.457   3.968  0.1174 -0.1912  1.2561
  188POPC  H15Y21744   4.754   3.508   4.009  0.5564  1.7802  3.2075
  188POPC  C31621745   4.884   3.641   4.089  0.4828  0.5216 -0.2717
  188POPC  H16X21746   4.868   3.593   4.188 -1.2258  1.0594 -0.2398
  188POPC  H16Y21747   4.810   3.724   4.100 -2.8520 -2.4648  2.6249
  188POPC  H16Z21748   4.988   3.678   4.076  0.8879 -0.6201 -0.3515
  189SAPI   C1221749   3.886   6.516   6.770 -0.0382 -0.1148 -0.8251
  189SAPI    H221750   3.834   6.457   6.691 -1.2298 -0.2724  0.0435
  189SAPI    O221751   4.029   6.507   6.754 -0.0191  0.2234  0.6886
  189SAPI   HO221752   4.045   6.413   6.764 -0.4435  0.2239  1.5139
  189SAPI   C1321753   3.836   6.655   6.760  0.0188 -0.0359 -0.2740
  189SAPI    H321754   3.730   6.661   6.790  0.1535  1.0325  0.0392
  189SAPI    O321755   3.850   6.706   6.624  0.6926  0.2828  0.4920
  189SAPI   HO321756   3.939   6.722   6.591  1.2462 -1.9360  0.7724
  189SAPI   C1421757   3.904   6.751   6.853 -0.2732 -0.4477 -0.8049
  189SAPI    H421758   4.007   6.767   6.815 -0.1188 -0.0071 -0.2244
  189SAPI    O421759   3.848   6.884   6.854  0.4328  0.6700  0.0477
  189SAPI   HO421760   3.904   6.939   6.909 -0.6536  0.1359  1.7663
  189SAPI   C1521761   3.937   6.680   6.995  0.2535 -0.2705  0.2620
  189SAPI    H521762   3.851   6.713   7.057 -0.6844  1.3828 -1.8097
  189SAPI    O521763   4.053   6.736   7.061  0.5030  1.0356  0.6374
  189SAPI   HO521764   4.134   6.722   7.011 -0.1187  3.3012 -1.1978
  189SAPI   C1621765   3.936   6.524   7.012 -0.0061  0.6195  0.6895
  189SAPI    H621766   4.042   6.491   7.007 -1.1895 -4.0679  1.3008
  189SAPI    O621767   3.894   6.488   7.139 -0.0012  0.1455 -0.6750
  189SAPI   HO621768   3.847   6.404   7.145 -1.4014  0.8096 -1.8818
  189SAPI   C1121769   3.851   6.460   6.906 -0.1811  0.2692  0.4986
  189SAPI    H121770   3.743   6.487   6.910 -0.0303  1.3258 -1.4355
  189SAPI     P21771   3.768   6.206   6.933 -0.0381  0.2144  0.2087
  189SAPI   O1321772   3.677   6.262   7.043  0.3426  0.0922  0.1495
  189SAPI   O1421773   3.834   6.076   6.970  0.6693 -0.5427  0.2796
  189SAPI   O1221774   3.883   6.319   6.903  0.3238  0.4462 -0.5488
  189SAPI   O1121775   3.692   6.195   6.797  0.2529 -0.3862 -0.2940
  189SAPI    C121776   3.765   6.136   6.687 -0.2644 -0.2478 -0.0594
  189SAPI    HA21777   3.859   6.189   6.662 -0.1997  0.1494  0.9703
  189SAPI    HB21778   3.782   6.028   6.709  1.5535  0.0244  0.0579
  189SAPI    C221779   3.674   6.143   6.559 -0.6549  0.4595  0.3231
  189SAPI    HS21780   3.730   6.088   6.480 -0.2691  2.6959 -1.0844
  189SAPI   O2121781   3.642   6.274   6.512 -0.5994  0.2144  0.5131
  189SAPI   C2121782   3.741   6.347   6.447  0.1964  0.6107 -0.5083
  189SAPI   O2221783   3.858   6.314   6.453  0.5373 -0.0536 -0.1273
  189SAPI   C2221784   3.664   6.451   6.361 -0.1022 -0.1294 -0.6030
  189SAPI   H2R21785   3.562   6.463   6.403  0.5424 -0.8440  1.2463
  189SAPI   H2S21786   3.721   6.546   6.371 -1.1393  0.8494 -3.0523
  189SAPI    C321787   3.559   6.059   6.582  0.4862  0.3505  0.1291
  189SAPI    HX21788   3.494   6.113   6.655  1.9661  0.5148  1.3646
  189SAPI    HY21789   3.586   5.960   6.625  0.9031  0.3824 -0.0615
  189SAPI   O3121790   3.490   6.049   6.453  0.0468  0.2700  0.1821
  189SAPI   C3121791   3.498   5.932   6.391  0.0999  0.3043  0.0982
  189SAPI   O3221792   3.559   5.833   6.432 -0.1300 -0.0491  0.1359
  189SAPI   C3221793   3.413   5.940   6.263  0.1349  0.1367 -0.0943
  189SAPI   H2X21794   3.448   6.031   6.210  1.5467 -0.7436 -0.7242
  189SAPI   H2Y21795   3.305   5.953   6.289  0.1426  0.0825 -0.0341
  189SAPI   C2321796   3.664   6.417   6.216 -0.0007  0.6469  0.2167
  189SAPI   H3R21797   3.763   6.375   6.188 -0.2864  1.6319 -2.6116
  189SAPI   H3S21798   3.645   6.501   6.145 -0.5838 -1.0835 -1.7777
  189SAPI   C2421799   3.565   6.304   6.174 -0.3897  0.0258 -0.5583
  189SAPI   H4R21800   3.465   6.350   6.194 -0.3324  0.7202 -1.7265
  189SAPI   H4S21801   3.578   6.209   6.230  2.8934 -0.0413 -1.2369
  189SAPI   C2521802   3.577   6.271   6.023  0.0801  0.2791  0.0622
  189SAPI   H5R21803   3.680   6.240   5.999 -0.7900 -1.4618 -1.6960
  189SAPI   C2621804   3.480   6.279   5.934  0.6039  0.4033 -0.2212
  189SAPI   H6R21805   3.506   6.237   5.836  0.2436 -3.7491  1.2567
  189SAPI   C2721806   3.341   6.330   5.954  0.1543 -0.3578  0.4614
  189SAPI   H7R21807   3.326   6.376   5.854  0.3381 -0.7565  0.2497
  189SAPI   H7S21808   3.337   6.411   6.030 -0.4703  0.5815 -0.5438
  189SAPI   C2821809   3.250   6.212   5.987  0.0656 -0.6725  0.5015
  189SAPI   H8R21810   3.256   6.171   6.089 -1.9009 -0.1749  0.8533
  189SAPI   C2921811   3.165   6.157   5.897 -0.0027  0.5373 -0.2798
  189SAPI   H9R21812   3.116   6.063   5.927  0.4039  0.2613 -0.4731
  189SAPI  C21021813   3.146   6.182   5.754 -0.2505  0.5288  0.2526
  189SAPI  H10R21814   3.206   6.269   5.722  0.1915 -0.2497 -1.1342
  189SAPI  H10S21815   3.039   6.207   5.738 -0.0409  1.1473 -0.1921
  189SAPI  C21121816   3.192   6.061   5.672  0.0457 -0.1348 -0.2166
  189SAPI  H11R21817   3.258   5.987   5.719 -1.1252  0.1989  2.0777
  189SAPI  C21221818   3.157   6.032   5.548  0.4794  0.3969 -0.3505
  189SAPI  H12R21819   3.213   5.953   5.495 -1.2931  0.5290 -2.5552
  189SAPI  C21321820   3.058   6.107   5.471 -0.2054  0.2277  0.1479
  189SAPI  H13R21821   2.984   6.140   5.548  0.5353  2.1257  0.0955
  189SAPI  H13S21822   3.001   6.051   5.394 -0.4195 -1.0685  1.2068
  189SAPI  C21421823   3.101   6.231   5.410 -0.2999 -1.4441 -0.1008
  189SAPI  H14R21824   3.184   6.289   5.452 -2.0829  0.7599  0.6013
  189SAPI  C21521825   3.043   6.297   5.307 -0.4199 -0.0995  0.0751
  189SAPI  H15R21826   3.081   6.398   5.285  2.9049 -0.5539  2.8294
  189SAPI  C21621827   2.919   6.245   5.231 -0.9406  0.7558  0.1902
  189SAPI  H16R21828   2.848   6.329   5.215 -0.8873  0.5997 -1.0008
  189SAPI  H16S21829   2.862   6.162   5.277 -0.9261  0.9041  0.4727
  189SAPI  C21721830   2.958   6.188   5.090  0.3078  0.4779  0.5790
  189SAPI  H17R21831   2.865   6.152   5.042  0.3162  0.3244  0.6781
  189SAPI  H17S21832   3.014   6.095   5.115 -1.2436 -0.5716  0.2426
  189SAPI  C21821833   3.036   6.283   4.996  0.6793 -0.0126  0.4449
  189SAPI  H18R21834   3.137   6.295   5.040  0.4875  0.9984  0.6385
  189SAPI  H18S21835   2.986   6.382   4.999  0.9035  0.1822 -1.3398
  189SAPI  C21921836   3.036   6.247   4.855  0.9148  0.4850  0.2679
  189SAPI  H19R21837   2.932   6.263   4.819  0.6030  1.3821  1.4818
  189SAPI  H19S21838   3.049   6.139   4.835 -1.6422  0.0790  0.4661
  189SAPI  C22021839   3.136   6.327   4.778 -0.6235  0.2368  0.0741
  189SAPI  H20R21840   3.237   6.281   4.786 -0.3568  0.6864 -0.5735
  189SAPI  H20S21841   3.138   6.431   4.818  0.9925  0.5460 -0.7041
  189SAPI  H20T21842   3.111   6.338   4.670 -1.3438  0.5129  0.2625
  189SAPI   C3321843   3.434   5.812   6.173 -0.0139  0.0798 -0.9977
  189SAPI   H3X21844   3.388   5.723   6.221 -0.0648  0.6279  0.0016
  189SAPI   H3Y21845   3.541   5.798   6.146 -0.1727  2.1959 -3.1348
  189SAPI   C3421846   3.365   5.816   6.030  0.0394  0.0188 -0.2687
  189SAPI   H4X21847   3.401   5.901   5.969  0.9658  0.5904  1.0445
  189SAPI   H4Y21848   3.257   5.839   6.043 -0.3079 -1.9519  0.6016
  189SAPI   C3521849   3.381   5.685   5.945  0.1720 -0.5077 -0.8063
  189SAPI   H5X21850   3.339   5.601   6.005 -1.6246  1.7575  1.3582
  189SAPI   H5Y21851   3.487   5.670   5.916  0.1333  0.6834 -1.6034
  189SAPI   C3621852   3.291   5.686   5.825  0.5861  0.3780  0.1123
  189SAPI   H6X21853   3.331   5.765   5.759 -0.3944  1.7236  1.0844
  189SAPI   H6Y21854   3.189   5.724   5.847  0.3556 -0.7750  1.1259
  189SAPI   C3721855   3.292   5.553   5.753 -0.5126 -0.1885  0.5106
  189SAPI   H7X21856   3.247   5.476   5.820  1.5313 -2.2702 -0.3633
  189SAPI   H7Y21857   3.396   5.513   5.747 -0.3186  0.3405  0.2953
  189SAPI   C3821858   3.219   5.546   5.621 -0.1598 -0.5996  0.7013
  189SAPI   H8X21859   3.109   5.555   5.630 -0.2907  0.1556 -1.2270
  189SAPI   H8Y21860   3.225   5.440   5.588 -0.5251 -0.5010  0.3091
  189SAPI   C3921861   3.276   5.632   5.509  0.4025 -0.1460  0.1265
  189SAPI   H9X21862   3.379   5.604   5.476  0.2450  0.2067 -0.6854
  189SAPI   H9Y21863   3.271   5.735   5.550 -0.7927 -0.5195  0.9844
  189SAPI  C31021864   3.189   5.625   5.385 -0.0096 -0.5421 -0.0150
  189SAPI  H10X21865   3.083   5.640   5.414 -0.5276  0.3700 -2.1996
  189SAPI  H10Y21866   3.190   5.525   5.337  0.1905 -1.0417  0.9801
  189SAPI  C31121867   3.210   5.715   5.272  0.1466 -0.2510 -0.6125
  189SAPI  H11X21868   3.309   5.698   5.226 -0.6669 -0.0982 -2.5299
  189SAPI  H11Y21869   3.208   5.822   5.302  1.6354 -0.0306 -1.2435
  189SAPI  C31221870   3.102   5.710   5.161 -0.3202  0.1072 -0.5450
  189SAPI  H12X21871   3.002   5.736   5.202 -0.0284  0.9551 -0.3524
  189SAPI  H12Y21872   3.095   5.604   5.128  1.1803  0.0152 -0.6306
  189SAPI  C31321873   3.146   5.789   5.040  0.3459 -0.5492  0.0591
  189SAPI  H13X21874   3.244   5.744   5.014  0.0639 -2.1834  1.6773
  189SAPI  H13Y21875   3.157   5.895   5.071  0.8685 -1.0746  1.7640
  189SAPI  C31421876   3.046   5.798   4.922 -1.1644  0.3302 -0.1969
  189SAPI  H14X21877   3.071   5.890   4.866  1.8007 -0.5534 -0.5035
  189SAPI  H14Y21878   2.940   5.808   4.955 -0.7862  0.9208  0.9189
  189SAPI  C31521879   3.042   5.673   4.831  0.1259  0.5551  0.5937
  189SAPI  H15X21880   3.023   5.586   4.898  0.0157 -1.5699 -1.9986
  189SAPI  H15Y21881   3.144   5.677   4.787  0.6909  0.6528  1.8945
  189SAPI  C31621882   2.935   5.669   4.724  0.4851 -0.3875  0.2303
  189SAPI  H16X21883   2.974   5.730   4.640  1.2921  0.2603  1.0569
  189SAPI  H16Y21884   2.837   5.708   4.759  0.3007  0.1368 -0.8405
  189SAPI  C31721885   2.906   5.526   4.662  0.3299 -0.8027  0.5178
  189SAPI  H17X21886   2.806   5.530   4.613  0.3161 -0.4006  0.5738
  189SAPI  H17Y21887   2.904   5.440   4.733 -1.8451 -2.2418 -1.1331
  189SAPI  C31821888   3.009   5.488   4.556  0.1447  0.0037 -0.5615
  189SAPI  H18X21889   3.023   5.567   4.479 -1.1056  0.7643 -0.0293
  189SAPI  H18Y21890   2.992   5.389   4.509  0.8453 -0.7328  0.6734
  189SAPI  H18Z21891   3.107   5.484   4.609 -0.5051 -0.7671  0.6173
  190SAPI   C1221892   4.500   2.480   6.663 -0.5139 -0.8513  0.2368
  190SAPI    H221893   4.510   2.460   6.554  1.7928  2.1652 -0.2437
  190SAPI    O221894   4.539   2.368   6.744 -0.3204 -0.7439 -0.2936
  190SAPI   HO221895   4.463   2.310   6.751  0.2024 -1.2819  1.2502
  190SAPI   C1321896   4.593   2.599   6.683 -0.1490 -0.2041 -0.1889
  190SAPI    H321897   4.559   2.683   6.619  1.4303  0.0593 -0.7491
  190SAPI    O321898   4.725   2.567   6.635  0.1648 -0.3875  0.6802
  190SAPI   HO321899   4.770   2.495   6.680  0.2141  0.6097  2.2757
  190SAPI   C1421900   4.599   2.642   6.830 -0.0963  0.8486  0.6816
  190SAPI    H421901   4.636   2.561   6.895  1.5992  2.3006  1.5894
  190SAPI    O421902   4.689   2.748   6.848  0.0843  0.4493 -0.3366
  190SAPI   HO421903   4.650   2.825   6.804 -1.0145 -0.8445 -1.7526
  190SAPI   C1521904   4.456   2.663   6.889  0.1493 -1.1791 -0.1251
  190SAPI    H521905   4.420   2.762   6.854  3.1514  1.0372  2.4595
  190SAPI    O521906   4.463   2.670   7.033 -0.1287 -0.4717  0.1679
  190SAPI   HO521907   4.400   2.741   7.046 -1.3819 -1.2168 -1.4374
  190SAPI   C1621908   4.352   2.562   6.847  0.3540 -0.4790  0.6386
  190SAPI    H621909   4.366   2.470   6.908  0.6179 -0.4541  0.6201
  190SAPI    O621910   4.224   2.618   6.875  0.7665  0.0237 -0.0354
  190SAPI   HO621911   4.191   2.578   6.955  1.4899 -0.3478  0.0920
  190SAPI   C1121912   4.364   2.526   6.703  0.2754  0.2383  0.8166
  190SAPI    H121913   4.344   2.613   6.637 -0.1192 -0.1584  0.4007
  190SAPI     P21914   4.138   2.446   6.574 -0.3464  0.2506 -0.1987
  190SAPI   O1321915   4.091   2.584   6.581  0.1189  0.2250 -0.1443
  190SAPI   O1421916   4.037   2.343   6.605 -0.1671 -0.3709  0.5873
  190SAPI   O1221917   4.276   2.421   6.663 -0.6445  0.0047 -0.1267
  190SAPI   O1121918   4.196   2.423   6.426  0.6989  0.1478 -0.1195
  190SAPI    C121919   4.272   2.518   6.348 -0.1183 -0.0603  0.1817
  190SAPI    HA21920   4.230   2.619   6.369  1.4532  0.1071  2.9935
  190SAPI    HB21921   4.372   2.535   6.394 -0.8722  0.9071  1.5552
  190SAPI    C221922   4.281   2.487   6.194  0.1578 -0.1439  0.2654
  190SAPI    HS21923   4.287   2.581   6.135 -1.1429  0.0788  0.4496
  190SAPI   O2121924   4.167   2.416   6.148 -0.5705  0.3363 -0.0539
  190SAPI   C2121925   4.052   2.491   6.155 -1.2725 -0.0471 -0.5441
  190SAPI   O2221926   4.056   2.610   6.178  0.5311  0.7525  0.1928
  190SAPI   C2221927   3.935   2.406   6.116  0.6405 -0.4783 -0.2763
  190SAPI   H2R21928   3.956   2.335   6.034  2.7067 -0.4983  0.2141
  190SAPI   H2S21929   3.926   2.338   6.203 -1.7500 -1.7053 -1.3876
  190SAPI    C321930   4.404   2.414   6.154 -0.3720  0.0707 -0.4479
  190SAPI    HX21931   4.386   2.391   6.047  0.0164 -0.5799 -0.3771
  190SAPI    HY21932   4.397   2.314   6.203  3.9091 -0.7374 -1.0657
  190SAPI   O3121933   4.529   2.482   6.182 -0.9223 -0.8653  0.8198
  190SAPI   C3121934   4.629   2.410   6.233 -0.0076  0.0725 -0.2268
  190SAPI   O3221935   4.621   2.292   6.266 -0.1594  0.4429  0.1149
  190SAPI   C3221936   4.752   2.499   6.245  0.6036 -0.8503  0.5674
  190SAPI   H2X21937   4.804   2.489   6.343  2.2521  0.2131 -0.1565
  190SAPI   H2Y21938   4.721   2.604   6.229  3.9787 -0.0544 -1.9691
  190SAPI   C2321939   3.812   2.508   6.096 -0.1187  0.1636 -0.1504
  190SAPI   H3R21940   3.823   2.603   6.153 -3.7730  0.6261  0.0099
  190SAPI   H3S21941   3.724   2.466   6.149  0.7669 -0.1669  1.0835
  190SAPI   C2421942   3.777   2.548   5.945 -0.7204  0.2153 -0.3351
  190SAPI   H4R21943   3.862   2.610   5.910 -1.5683  0.5356 -1.9357
  190SAPI   H4S21944   3.686   2.612   5.941  0.4104  1.8856 -0.2771
  190SAPI   C2521945   3.753   2.427   5.859  0.3623 -0.2400  0.2750
  190SAPI   H5R21946   3.656   2.376   5.868  0.5021 -1.0069 -1.9802
  190SAPI   C2621947   3.844   2.373   5.777 -0.0860  0.0256 -0.2485
  190SAPI   H6R21948   3.821   2.280   5.722 -0.9675  0.4109 -0.5455
  190SAPI   C2721949   3.984   2.421   5.746 -0.5623  0.4082  0.9675
  190SAPI   H7R21950   4.014   2.509   5.806 -0.0995  1.0422 -0.1539
  190SAPI   H7S21951   3.986   2.457   5.641 -0.7347 -0.8730  0.5056
  190SAPI   C2821952   4.093   2.313   5.756  0.2814  0.0344 -0.3942
  190SAPI   H8R21953   4.142   2.319   5.854 -0.3861 -1.3832  0.0445
  190SAPI   C2921954   4.153   2.240   5.663  0.0053  0.5758  0.6173
  190SAPI   H9R21955   4.235   2.169   5.685  0.7394  1.2445  0.1147
  190SAPI  C21021956   4.103   2.231   5.515 -0.2484  0.0955 -0.1763
  190SAPI  H10R21957   4.185   2.270   5.451 -0.6740 -2.9959 -2.8907
  190SAPI  H10S21958   4.012   2.293   5.504 -1.7029 -1.6737  1.2397
  190SAPI  C21121959   4.066   2.097   5.467  0.0490  0.5531  0.3340
  190SAPI  H11R21960   3.960   2.074   5.480 -0.4126  2.0840 -0.4545
  190SAPI  C21221961   4.155   2.016   5.407  0.4765 -0.3904 -0.3720
  190SAPI  H12R21962   4.126   1.915   5.373  0.4530 -0.5004 -0.0298
  190SAPI  C21321963   4.299   2.052   5.383 -0.0726 -0.0497  0.4713
  190SAPI  H13R21964   4.329   2.115   5.470 -0.8021  0.3496  0.4397
  190SAPI  H13S21965   4.309   2.117   5.294  2.1968  0.1366  0.8219
  190SAPI  C21421966   4.388   1.928   5.376  0.2045 -0.1182  0.4813
  190SAPI  H14R21967   4.349   1.830   5.408 -0.0274  0.1983  1.1746
  190SAPI  C21521968   4.514   1.926   5.335  0.5021  1.0578  0.4187
  190SAPI  H15R21969   4.564   1.829   5.318 -2.4825 -0.4015 -0.6375
  190SAPI  C21621970   4.597   2.041   5.297  1.5954  0.4674 -0.0498
  190SAPI  H16R21971   4.673   2.052   5.377  1.1200 -3.9765  1.2836
  190SAPI  H16S21972   4.536   2.134   5.297 -0.8745 -1.0080 -1.8638
  190SAPI  C21721973   4.640   2.020   5.157 -0.3680  0.2213 -0.1814
  190SAPI  H17R21974   4.549   2.002   5.097 -1.2291 -0.2256  1.2174
  190SAPI  H17S21975   4.720   1.943   5.145 -1.9165 -1.5465  0.2899
  190SAPI  C21821976   4.696   2.155   5.110  0.2676  0.3800  0.1963
  190SAPI  H18R21977   4.799   2.173   5.148  0.2315  1.5365 -0.2264
  190SAPI  H18S21978   4.633   2.235   5.152 -0.6029 -0.5561  0.7092
  190SAPI  C21921979   4.713   2.174   4.950 -0.2295 -0.7358 -0.0892
  190SAPI  H19R21980   4.725   2.282   4.926 -0.6311 -0.6083  0.2622
  190SAPI  H19S21981   4.619   2.137   4.904 -0.9957  1.4997 -0.4464
  190SAPI  C22021982   4.833   2.095   4.898  0.4606  0.8136 -0.7181
  190SAPI  H20R21983   4.828   2.082   4.788  0.8571  1.7748 -0.8608
  190SAPI  H20S21984   4.833   1.997   4.951 -1.6063  0.4798 -1.2634
  190SAPI  H20T21985   4.929   2.144   4.927 -0.0561  0.4551  1.8036
  190SAPI   C3321986   4.865   2.467   6.147 -0.0755  0.0874  0.1016
  190SAPI   H3X21987   4.881   2.358   6.155  1.2673  0.2354 -0.3615
  190SAPI   H3Y21988   4.959   2.507   6.191  0.9057 -2.6570  0.6950
  190SAPI   C3421989   4.844   2.524   6.009  0.6501  0.0690  0.2904
  190SAPI   H4X21990   4.798   2.624   6.023 -2.3998 -1.1185 -0.2483
  190SAPI   H4Y21991   4.768   2.468   5.950  0.4958 -0.3342  0.8674
  190SAPI   C3521992   4.968   2.564   5.922  0.2849  0.4670 -0.1502
  190SAPI   H5X21993   5.003   2.469   5.877 -1.7746 -0.8462  0.8842
  190SAPI   H5Y21994   5.041   2.610   5.993 -0.9918  0.5073  1.1724
  190SAPI   C3621995   4.948   2.668   5.805 -0.2838  0.1484 -0.4817
  190SAPI   H6X21996   4.935   2.627   5.703 -0.6547  2.4436 -1.4247
  190SAPI   H6Y21997   5.045   2.722   5.792  0.4564 -0.7604  1.0071
  190SAPI   C3721998   4.826   2.759   5.818 -0.3569 -0.4247 -0.0769
  190SAPI   H7X21999   4.823   2.816   5.913  3.0027  1.9886 -1.2513
  190SAPI   H7Y22000   4.730   2.704   5.803  0.0958 -1.0023 -0.9911
  190SAPI   C3822001   4.825   2.872   5.714 -0.0385  0.1577  0.6155
  190SAPI   H8X22002   4.892   2.947   5.760 -0.3146  1.1949 -0.5899
  190SAPI   H8Y22003   4.728   2.926   5.720  0.7922  1.5211  2.7249
  190SAPI   C3922004   4.865   2.830   5.570 -0.1355 -0.3419 -0.8972
  190SAPI   H9X22005   4.811   2.742   5.529 -0.3616 -0.4715 -0.3348
  190SAPI   H9Y22006   4.973   2.806   5.569 -0.1631 -0.5003 -0.4365
  190SAPI  C31022007   4.839   2.964   5.488 -0.0598  0.0090  0.2759
  190SAPI  H10X22008   4.859   3.058   5.545  1.3523 -0.9379  1.4115
  190SAPI  H10Y22009   4.731   2.955   5.463 -0.5018  1.6228  1.4134
  190SAPI  C31122010   4.938   2.978   5.357  0.4442  0.7166  0.9508
  190SAPI  H11X22011   4.931   2.882   5.303 -0.6450  1.7642 -0.8701
  190SAPI  H11Y22012   5.042   2.996   5.393  1.0087  0.2624 -0.4047
  190SAPI  C31222013   4.903   3.103   5.269  0.2097  0.3451 -0.6249
  190SAPI  H12X22014   4.933   3.194   5.326 -0.7842 -0.0575  0.5987
  190SAPI  H12Y22015   4.794   3.098   5.247  0.1360  2.6302 -1.1245
  190SAPI  C31322016   4.987   3.099   5.147  0.0563 -0.7468 -0.0724
  190SAPI  H13X22017   4.957   3.007   5.093  1.2858  0.5246 -3.1736
  190SAPI  H13Y22018   5.095   3.090   5.174 -0.2655 -2.1614  0.8723
  190SAPI  C31422019   4.971   3.219   5.063 -0.6935  0.4836 -0.3750
  190SAPI  H14X22020   5.038   3.298   5.102 -1.2994 -0.3220  2.5561
  190SAPI  H14Y22021   4.872   3.262   5.087 -0.8343 -0.0013 -0.0602
  190SAPI  C31522022   5.008   3.198   4.914 -0.0784  0.1598  0.1907
  190SAPI  H15X22023   5.002   3.287   4.847  2.4006 -1.0132 -1.7724
  190SAPI  H15Y22024   4.934   3.129   4.867 -2.1925  1.9804  0.6846
  190SAPI  C31622025   5.140   3.136   4.880 -0.7525  0.1940 -0.1425
  190SAPI  H16X22026   5.154   3.037   4.930 -1.5964  0.4919  0.7043
  190SAPI  H16Y22027   5.224   3.201   4.915 -0.2549 -0.6267  0.2270
  190SAPI  C31722028   5.158   3.105   4.728 -0.0016  0.1193  0.6129
  190SAPI  H17X22029   5.168   3.202   4.673  0.2818  0.1912  0.7902
  190SAPI  H17Y22030   5.073   3.049   4.684 -0.3215  1.6576 -0.8562
  190SAPI  C31822031   5.290   3.033   4.707  0.6322 -0.1050  0.4847
  190SAPI  H18X22032   5.314   3.024   4.599 -0.0721  2.8544 -0.0193
  190SAPI  H18Y22033   5.295   2.932   4.752  0.2913  0.7986  2.6824
  190SAPI  H18Z22034   5.366   3.093   4.762  2.2370 -1.6920  0.0909
  191SAPI   C1222035   0.388   1.176   1.912  0.8640 -0.2871  0.2097
  191SAPI    H222036   0.294   1.213   1.867  2.2342  2.7325 -0.4314
  191SAPI    O222037   0.405   1.036   1.873  0.0857  0.0445 -0.7543
  191SAPI   HO222038   0.327   0.986   1.897 -1.2861  1.5747 -1.7624
  191SAPI   C1322039   0.491   1.258   1.832 -0.4003 -0.5126  0.8626
  191SAPI    H322040   0.473   1.366   1.845 -1.5551  0.0999 -3.9088
  191SAPI    O322041   0.483   1.228   1.692  0.1583 -0.1967 -0.0625
  191SAPI   HO322042   0.560   1.264   1.649 -0.6679  1.1955 -0.4360
  191SAPI   C1422043   0.632   1.241   1.880  0.0747 -0.3510  0.3601
  191SAPI    H422044   0.667   1.143   1.843  0.7509 -0.3895  1.1019
  191SAPI    O422045   0.715   1.335   1.821  0.0830 -0.1808  0.4527
  191SAPI   HO422046   0.769   1.288   1.758  0.9985  0.1960  0.9314
  191SAPI   C1522047   0.652   1.233   2.036 -0.9346  0.6251 -0.1433
  191SAPI    H522048   0.648   1.338   2.074 -0.2177  0.6822 -0.2229
  191SAPI    O522049   0.777   1.175   2.070 -0.7561  0.6228  0.2133
  191SAPI   HO522050   0.822   1.228   2.136  1.9474 -1.2946  0.0644
  191SAPI   C1622051   0.539   1.157   2.103  0.1904 -0.6694  0.2004
  191SAPI    H622052   0.549   1.050   2.078 -0.4686 -0.7456  0.2450
  191SAPI    O622053   0.553   1.164   2.249 -0.5117 -0.5821  0.1828
  191SAPI   HO622054   0.487   1.229   2.274  0.1985 -0.3413  1.4801
  191SAPI   C1122055   0.405   1.199   2.058 -0.6629 -0.2620 -0.1775
  191SAPI    H122056   0.398   1.306   2.085 -2.2220  0.0050 -1.4735
  191SAPI     P22057   0.150   1.161   2.162  0.1563 -0.1068 -0.3288
  191SAPI   O1322058   0.073   1.041   2.206  0.6384  0.3373  0.4806
  191SAPI   O1422059   0.094   1.243   2.060  0.5722 -0.3394  0.3835
  191SAPI   O1222060   0.298   1.118   2.119 -0.5975  0.2211  0.3453
  191SAPI   O1122061   0.184   1.250   2.296  1.1858  0.1153  0.0395
  191SAPI    C122062   0.099   1.357   2.339 -0.1914  0.3497 -0.3423
  191SAPI    HA22063   0.171   1.441   2.347  0.4271 -0.3477  3.7700
  191SAPI    HB22064   0.017   1.386   2.269  0.5116 -0.1853 -1.4105
  191SAPI    C222065   0.045   1.341   2.484  0.1984  0.0996  0.1071
  191SAPI    HS22066  -0.020   1.426   2.513  0.3098  0.9088 -1.8842
  191SAPI   O2122067   0.153   1.355   2.580  0.5048 -0.0362 -0.1527
  191SAPI   C2122068   0.204   1.472   2.597  0.5982  0.0235 -0.4439
  191SAPI   O2222069   0.168   1.574   2.541  0.2098 -0.3538  0.7570
  191SAPI   C2222070   0.294   1.465   2.719 -0.0020 -0.4399 -0.1307
  191SAPI   H2R22071   0.394   1.437   2.679 -1.5360 -3.6465 -2.1335
  191SAPI   H2S22072   0.304   1.564   2.770  0.4509 -0.6391  0.1686
  191SAPI    C322073  -0.026   1.208   2.510 -0.1132  0.4299 -0.0568
  191SAPI    HX22074   0.042   1.131   2.468 -2.0186 -0.8308 -0.9672
  191SAPI    HY22075  -0.120   1.198   2.451 -0.2730  1.5949 -0.0280
  191SAPI   O3122076  -0.048   1.188   2.646 -0.5177 -0.2530  0.3325
  191SAPI   C3122077  -0.011   1.068   2.691 -0.0720 -0.3691  0.2914
  191SAPI   O3222078   0.040   0.976   2.624  0.7019 -0.6236 -0.0843
  191SAPI   C3222079  -0.045   1.058   2.841 -0.3091  0.4458  0.5728
  191SAPI   H2X22080  -0.145   1.099   2.870  1.3596  3.0410  3.1930
  191SAPI   H2Y22081   0.030   1.115   2.899 -1.2911  2.0055  0.3787
  191SAPI   C2322082   0.252   1.359   2.825 -0.1982  0.6910  0.3363
  191SAPI   H3R22083   0.214   1.268   2.773 -1.2697  0.3415  1.6705
  191SAPI   H3S22084   0.161   1.404   2.871  0.3857 -0.6200  3.0192
  191SAPI   C2422085   0.363   1.335   2.934  0.4147  0.0337 -0.0209
  191SAPI   H4R22086   0.392   1.429   2.987 -1.9067  1.0525 -0.4417
  191SAPI   H4S22087   0.452   1.310   2.872  0.8486  3.1252 -0.8265
  191SAPI   C2522088   0.323   1.234   3.037 -0.1220 -0.2611 -0.4674
  191SAPI   H5R22089   0.327   1.128   3.007  0.5010 -0.2966 -0.2799
  191SAPI   C2622090   0.283   1.258   3.165 -0.6806  0.0016 -0.3794
  191SAPI   H6R22091   0.254   1.172   3.226  2.7269 -0.8016  0.3185
  191SAPI   C2722092   0.283   1.395   3.228 -0.0246 -0.2042 -0.3124
  191SAPI   H7R22093   0.184   1.444   3.228  0.2908  0.4937  1.2273
  191SAPI   H7S22094   0.352   1.471   3.187 -0.5839  1.9658  2.4778
  191SAPI   C2822095   0.325   1.387   3.371  0.4764 -0.3069 -0.3043
  191SAPI   H8R22096   0.379   1.294   3.391 -0.8604 -1.4515 -1.7244
  191SAPI   C2922097   0.299   1.480   3.467 -0.0611 -0.2282  0.6056
  191SAPI   H9R22098   0.347   1.460   3.564  0.5357 -1.5353  0.0687
  191SAPI  C21022099   0.223   1.605   3.445 -0.0335 -0.0348  0.2243
  191SAPI  H10R22100   0.226   1.619   3.335  0.5914 -0.9907  0.1031
  191SAPI  H10S22101   0.276   1.685   3.502  0.1583 -0.8756  1.2651
  191SAPI  C21122102   0.085   1.597   3.474  0.8089 -0.0220 -0.3477
  191SAPI  H11R22103   0.023   1.532   3.410 -2.2695  1.8080  0.5574
  191SAPI  C21222104   0.025   1.656   3.581  0.1590  1.0194 -0.1578
  191SAPI  H12R22105  -0.085   1.659   3.583  0.1622  0.8068  0.7458
  191SAPI  C21322106   0.084   1.734   3.694 -0.1195 -0.6612 -0.4912
  191SAPI  H13R22107  -0.007   1.776   3.742 -0.5662 -0.2398 -1.6806
  191SAPI  H13S22108   0.130   1.830   3.663 -0.5472 -0.5566 -0.8150
  191SAPI  C21422109   0.185   1.658   3.782  0.7431  0.2469  0.6281
  191SAPI  H14R22110   0.264   1.607   3.725 -0.1566 -0.0141 -0.4247
  191SAPI  C21522111   0.171   1.645   3.912  0.3446 -0.6870 -0.3286
  191SAPI  H15R22112   0.254   1.600   3.967  1.9045  0.9836 -1.2043
  191SAPI  C21622113   0.050   1.699   3.996 -0.1745  0.4212  0.3729
  191SAPI  H16R22114  -0.045   1.678   3.942  0.6522 -2.7841 -0.0258
  191SAPI  H16S22115   0.055   1.810   4.001  0.1642  0.5885 -2.0399
  191SAPI  C21722116   0.042   1.648   4.150 -0.4044 -0.6179  0.6759
  191SAPI  H17R22117   0.145   1.628   4.188 -1.2602 -2.2529  2.2758
  191SAPI  H17S22118  -0.009   1.550   4.143 -0.6317 -0.3844 -2.0131
  191SAPI  C21822119  -0.042   1.748   4.231 -0.1811  0.0762  0.2382
  191SAPI  H18R22120  -0.105   1.690   4.301 -1.4412 -0.6314 -1.4179
  191SAPI  H18S22121  -0.115   1.799   4.165 -0.4466  1.9499  1.8715
  191SAPI  C21922122   0.039   1.859   4.294 -0.1771 -0.2678  0.8685
  191SAPI  H19R22123   0.101   1.908   4.217 -0.0818 -2.0354 -0.2250
  191SAPI  H19S22124   0.112   1.817   4.366  0.8918  2.2835  1.3802
  191SAPI  C22022125  -0.044   1.969   4.362 -0.3920 -0.0756 -0.0854
  191SAPI  H20R22126   0.022   2.042   4.415 -1.2028  0.7255 -0.1528
  191SAPI  H20S22127  -0.111   1.918   4.435 -1.8566 -0.5682 -1.7261
  191SAPI  H20T22128  -0.100   2.030   4.288  0.0869  2.2029  1.3135
  191SAPI   C3322129  -0.035   0.910   2.882  0.3363 -0.6170  0.4688
  191SAPI   H3X22130   0.070   0.875   2.894 -0.0189 -1.7560  0.3491
  191SAPI   H3Y22131  -0.100   0.848   2.817 -1.3762  1.2218  0.3409
  191SAPI   C3422132  -0.089   0.892   3.027 -0.2322 -0.5425  0.0454
  191SAPI   H4X22133  -0.089   0.782   3.046 -0.8160 -1.0324 -2.4565
  191SAPI   H4Y22134  -0.193   0.929   3.031 -0.1628 -0.4156  0.8039
  191SAPI   C3522135  -0.023   0.967   3.136  0.2098  0.1414  0.2589
  191SAPI   H5X22136  -0.046   1.076   3.127  1.9499  0.4267 -1.1780
  191SAPI   H5Y22137   0.087   0.956   3.139  0.0856 -1.3487 -0.1190
  191SAPI   C3622138  -0.073   0.917   3.278  0.0169  0.5696 -0.6127
  191SAPI   H6X22139  -0.064   0.807   3.290 -1.0952  0.6642  1.6750
  191SAPI   H6Y22140  -0.183   0.936   3.284 -0.2441 -0.7925 -0.6252
  191SAPI   C3722141  -0.005   0.979   3.393  0.7720 -0.1030  0.0504
  191SAPI   H7X22142   0.103   0.960   3.375  1.3843  1.8617  1.2939
  191SAPI   H7Y22143  -0.040   0.936   3.489  0.9244  0.5562  0.4093
  191SAPI   C3822144  -0.034   1.125   3.404 -0.2130 -0.2129 -0.2174
  191SAPI   H8X22145  -0.143   1.132   3.420 -0.1339 -1.1914  0.9527
  191SAPI   H8Y22146  -0.010   1.183   3.313  0.8702  1.8182  1.2592
  191SAPI   C3922147   0.053   1.184   3.528  0.2101  0.9776  0.5321
  191SAPI   H9X22148   0.047   1.294   3.535 -2.5433  0.8451  1.7533
  191SAPI   H9Y22149   0.159   1.153   3.516 -0.0982  0.0459  0.0290
  191SAPI  C31022150  -0.008   1.143   3.661 -0.0985 -0.5259  0.2281
  191SAPI  H10X22151   0.053   1.051   3.678  1.7168  0.2044 -1.8856
  191SAPI  H10Y22152  -0.118   1.137   3.651  0.1279 -1.4519 -2.3500
  191SAPI  C31122153   0.035   1.229   3.782  0.3279 -0.7533  0.6787
  191SAPI  H11X22154  -0.022   1.323   3.764  0.6954 -0.6652 -0.0297
  191SAPI  H11Y22155   0.143   1.253   3.775  0.0910  0.0177 -0.9153
  191SAPI  C31222156   0.003   1.163   3.914  0.4547 -0.8021  0.2414
  191SAPI  H12X22157   0.052   1.063   3.908  0.1575 -0.8978 -0.8459
  191SAPI  H12Y22158  -0.107   1.152   3.922 -0.1578  2.5683 -1.6111
  191SAPI  C31322159   0.042   1.232   4.043 -0.4818  0.4477  0.8481
  191SAPI  H13X22160   0.010   1.338   4.035  1.8727  1.1497 -0.1881
  191SAPI  H13Y22161   0.152   1.239   4.055 -0.2638  0.2702 -0.8655
  191SAPI  C31422162  -0.004   1.182   4.173 -0.4895  0.0936 -0.3274
  191SAPI  H14X22163  -0.115   1.170   4.171 -0.3598 -1.2962 -0.5403
  191SAPI  H14Y22164   0.024   1.251   4.256  0.5784 -1.2560  0.4806
  191SAPI  C31522165   0.047   1.040   4.201  1.3194  0.3540 -0.1226
  191SAPI  H15X22166   0.153   1.041   4.165  1.2023 -1.9594 -0.7236
  191SAPI  H15Y22167  -0.016   0.965   4.149  1.4809  0.8640 -1.0966
  191SAPI  C31622168   0.040   1.010   4.352  0.2118  0.3859  0.8858
  191SAPI  H16X22169   0.080   1.096   4.410  2.0445  0.4182 -0.3562
  191SAPI  H16Y22170   0.102   0.922   4.380 -0.3729  0.0859  1.2671
  191SAPI  C31722171  -0.098   0.977   4.403 -0.0221 -0.3716 -0.0515
  191SAPI  H17X22172  -0.134   0.886   4.350 -1.3136  1.4611 -2.5776
  191SAPI  H17Y22173  -0.167   1.058   4.370  0.7134  0.4845  0.4611
  191SAPI  C31822174  -0.111   0.971   4.550 -0.2012 -0.1058  0.0586
  191SAPI  H18X22175  -0.221   0.964   4.569  0.2640 -1.4250  2.7494
  191SAPI  H18Y22176  -0.072   1.062   4.601 -1.6883  0.5342  0.1244
  191SAPI  H18Z22177  -0.057   0.880   4.584  1.0201  0.0050 -1.4944
  192SAPI   C1222178   1.924   0.113   2.324  0.2056 -0.1479  0.6320
  192SAPI    H222179   1.992   0.199   2.307  1.4014 -1.3640 -1.0682
  192SAPI    O222180   1.865   0.119   2.455 -0.1325 -0.0761 -0.6078
  192SAPI   HO222181   1.930   0.147   2.520 -1.1020 -0.6471  0.6671
  192SAPI   C1322182   1.819   0.113   2.217  0.5400  0.2705  0.3507
  192SAPI    H322183   1.873   0.111   2.120  0.8466 -0.6915  0.5326
  192SAPI    O322184   1.748   0.235   2.219  0.2079  0.0415  0.2610
  192SAPI   HO322185   1.732   0.265   2.309 -0.8782 -1.1338  0.4875
  192SAPI   C1422186   1.727  -0.011   2.239 -1.5627 -0.1836 -0.4159
  192SAPI    H422187   1.669   0.011   2.331 -0.4344  1.0644  0.0312
  192SAPI    O422188   1.635  -0.028   2.132  0.0370 -0.4325 -0.6109
  192SAPI   HO422189   1.599   0.058   2.107 -0.5897 -0.5414 -0.0956
  192SAPI   C1522190   1.805  -0.145   2.256 -0.2648 -0.0326 -0.0726
  192SAPI    H522191   1.826  -0.182   2.153  1.0420  1.4873 -0.4031
  192SAPI    O522192   1.724  -0.247   2.306  0.2980 -0.2181  0.0276
  192SAPI   HO522193   1.753  -0.326   2.259  3.4445 -0.0184  1.3354
  192SAPI   C1622194   1.943  -0.142   2.329  0.1389  0.6400  0.7674
  192SAPI    H622195   1.914  -0.159   2.435  0.1418 -0.1562  0.6449
  192SAPI    O622196   2.022  -0.252   2.287 -0.4779 -0.7637  0.2057
  192SAPI   HO622197   2.070  -0.280   2.365 -1.6031 -0.3907  1.0583
  192SAPI   C1122198   2.015  -0.012   2.312 -0.0512 -0.2617  0.8035
  192SAPI    H122199   2.051  -0.004   2.208  0.9686  1.7915  1.2537
  192SAPI     P22200   2.278   0.040   2.353  0.2163  0.2617 -0.2664
  192SAPI   O1322201   2.271   0.110   2.225  0.0528  0.0171 -0.5038
  192SAPI   O1422202   2.366  -0.076   2.373  0.2213 -0.3420  0.1532
  192SAPI   O1222203   2.130  -0.003   2.399 -0.2022 -0.5882 -0.4680
  192SAPI   O1122204   2.320   0.147   2.461  0.5779 -0.1492  0.1310
  192SAPI    C122205   2.320   0.115   2.606  0.3322  0.4610  1.0469
  192SAPI    HA22206   2.302   0.208   2.664  1.3962  1.3545 -0.0120
  192SAPI    HB22207   2.232   0.050   2.624 -0.8177  1.1768 -1.4534
  192SAPI    C222208   2.455   0.050   2.645  0.3939  0.4336  0.6510
  192SAPI    HS22209   2.469  -0.045   2.588  0.9600 -0.9224  2.9237
  192SAPI   O2122210   2.457   0.044   2.791 -0.3932 -0.3558  0.2224
  192SAPI   C2122211   2.384  -0.059   2.839  0.0548  0.1983 -0.0856
  192SAPI   O2222212   2.335  -0.150   2.777 -0.2651 -0.1571  0.0652
  192SAPI   C2222213   2.395  -0.052   2.989  0.5106 -0.7612 -0.1557
  192SAPI   H2R22214   2.490  -0.107   3.003  1.4442  0.4517 -1.4443
  192SAPI   H2S22215   2.408   0.056   3.011  0.0518 -0.6475 -0.4283
  192SAPI    C322216   2.574   0.136   2.596  0.3827  0.0028 -1.0299
  192SAPI    HX22217   2.567   0.233   2.650 -0.9440 -1.1924  1.0731
  192SAPI    HY22218   2.564   0.155   2.487  1.3042 -0.5008 -1.2111
  192SAPI   O3122219   2.699   0.063   2.623  0.9753  0.6671  0.0440
  192SAPI   C3122220   2.805   0.134   2.586 -0.1180  0.1097 -0.1454
  192SAPI   O3222221   2.802   0.242   2.533 -0.4652  0.0934  0.1855
  192SAPI   C3222222   2.929   0.063   2.639 -0.1705  0.1073 -0.4722
  192SAPI   H2X22223   3.007   0.132   2.679  1.9786 -2.8263  0.8043
  192SAPI   H2Y22224   2.975   0.013   2.551  0.1163 -0.8543  0.2104
  192SAPI   C2322225   2.278  -0.127   3.054 -0.1922 -0.2529 -0.1179
  192SAPI   H3R22226   2.252  -0.216   2.993 -0.4097  0.5084 -1.1491
  192SAPI   H3S22227   2.197  -0.052   3.065 -1.0185 -1.2144  0.4819
  192SAPI   C2422228   2.313  -0.176   3.201 -0.3261  0.2320  0.4096
  192SAPI   H4R22229   2.399  -0.247   3.206 -1.4803 -1.1325  3.3255
  192SAPI   H4S22230   2.232  -0.234   3.250  0.7624  0.0299  2.0652
  192SAPI   C2522231   2.352  -0.063   3.288 -0.3031  0.1612  0.5194
  192SAPI   H5R22232   2.419   0.014   3.249  2.2769 -1.6236  1.1988
  192SAPI   C2622233   2.330  -0.057   3.421  0.7687 -0.2081 -0.0327
  192SAPI   H6R22234   2.368   0.032   3.474 -0.8312  0.3007  0.3175
  192SAPI   C2722235   2.257  -0.153   3.516 -0.4078  0.5204  0.2180
  192SAPI   H7R22236   2.329  -0.224   3.562  2.7672  2.8307 -0.8543
  192SAPI   H7S22237   2.189  -0.220   3.458 -0.1122 -0.1646  0.6443
  192SAPI   C2822238   2.172  -0.077   3.613 -0.4253 -0.8667 -0.3033
  192SAPI   H8R22239   2.076  -0.041   3.573 -1.1016 -2.0272  0.2331
  192SAPI   C2922240   2.174  -0.075   3.749 -0.5823  0.0510 -1.0621
  192SAPI   H9R22241   2.089  -0.031   3.803  0.9006 -1.0451  2.5363
  192SAPI  C21022242   2.282  -0.121   3.843 -0.3414 -0.7027 -0.9996
  192SAPI  H10R22243   2.375  -0.137   3.784  0.7574 -0.2518  0.5677
  192SAPI  H10S22244   2.258  -0.223   3.880  0.6490 -0.9500 -0.9997
  192SAPI  C21122245   2.290  -0.012   3.956  0.1547  0.8040  0.9602
  192SAPI  H11R22246   2.347   0.077   3.925  1.3235 -0.0974  0.4451
  192SAPI  C21222247   2.238  -0.011   4.077  0.2047  0.5511  0.2763
  192SAPI  H12R22248   2.265   0.063   4.153 -0.4664  0.1839  0.8853
  192SAPI  C21322249   2.136  -0.107   4.135 -0.8990 -0.6732 -0.2300
  192SAPI  H13R22250   2.085  -0.151   4.047 -1.2334  1.1001 -0.9748
  192SAPI  H13S22251   2.051  -0.044   4.168  0.1184  0.7074 -0.1232
  192SAPI  C21422252   2.175  -0.198   4.244  0.8479 -0.1088 -0.0441
  192SAPI  H14R22253   2.195  -0.302   4.213 -0.7378 -0.7476  0.9412
  192SAPI  C21522254   2.180  -0.155   4.376 -0.0179  0.5928 -0.1808
  192SAPI  H15R22255   2.224  -0.230   4.443 -2.3155  0.4159  1.2537
  192SAPI  C21622256   2.149  -0.017   4.431  0.0856  0.2634  0.2618
  192SAPI  H16R22257   2.136   0.053   4.345  0.7150  1.4066  1.0763
  192SAPI  H16S22258   2.237   0.016   4.489  0.4385 -1.0351  0.4883
  192SAPI  C21722259   2.024  -0.012   4.521 -0.2084  0.2101  0.6974
  192SAPI  H17R22260   2.018   0.082   4.580  0.2250  0.0637  0.9842
  192SAPI  H17S22261   2.033  -0.085   4.605  2.2167 -0.7205 -0.2787
  192SAPI  C21822262   1.894  -0.042   4.440 -0.1697  0.0431  0.4186
  192SAPI  H18R22263   1.897  -0.142   4.390  0.3803 -1.2503  2.8795
  192SAPI  H18S22264   1.886   0.032   4.358  2.2697 -1.0164 -0.8869
  192SAPI  C21922265   1.768  -0.026   4.524 -0.1059 -0.2411 -0.1915
  192SAPI  H19R22266   1.743   0.081   4.541 -3.1367 -0.6162 -1.4976
  192SAPI  H19S22267   1.791  -0.071   4.623 -1.1752 -1.0005 -0.2685
  192SAPI  C22022268   1.637  -0.093   4.470 -0.3113  0.1903 -0.3321
  192SAPI  H20R22269   1.640  -0.204   4.463  3.2188  0.2109 -0.7507
  192SAPI  H20S22270   1.621  -0.059   4.365 -1.4180  3.8681  0.8659
  192SAPI  H20T22271   1.544  -0.055   4.517 -0.4978  1.9861 -2.0023
  192SAPI   C3322272   2.894  -0.029   2.760  0.6581 -0.8064  0.0255
  192SAPI   H3X22273   2.986  -0.086   2.788  1.8087  0.0350 -1.8423
  192SAPI   H3Y22274   2.824  -0.110   2.730 -0.8232  0.9853 -1.5674
  192SAPI   C3422275   2.851   0.042   2.890 -0.2895 -0.2296  0.4509
  192SAPI   H4X22276   2.745   0.073   2.879 -0.2079 -0.2761 -0.5596
  192SAPI   H4Y22277   2.918   0.130   2.898 -0.0609 -0.1381 -1.7688
  192SAPI   C3522278   2.860  -0.046   3.019 -0.0287 -0.3305 -0.1201
  192SAPI   H5X22279   2.966  -0.060   3.048  0.1765 -2.0367 -1.5209
  192SAPI   H5Y22280   2.830  -0.149   2.991 -1.3023  0.2794 -1.1423
  192SAPI   C3622281   2.782   0.005   3.137  0.4536  0.6658 -1.4765
  192SAPI   H6X22282   2.677  -0.031   3.138  0.4819  0.4862  0.9717
  192SAPI   H6Y22283   2.771   0.115   3.142 -0.3370  0.5654 -0.8130
  192SAPI   C3722284   2.840  -0.033   3.277  0.2661  0.2404 -0.1278
  192SAPI   H7X22285   2.921   0.039   3.302 -0.8842  1.8323 -0.8279
  192SAPI   H7Y22286   2.893  -0.130   3.260  0.0792  0.1281 -0.0757
  192SAPI   C3822287   2.734  -0.051   3.393 -0.3186  0.4833  0.5557
  192SAPI   H8X22288   2.664  -0.130   3.359 -0.3974  1.9639 -3.1090
  192SAPI   H8Y22289   2.678   0.045   3.398  2.0624  2.1314 -2.1420
  192SAPI   C3922290   2.797  -0.084   3.528  0.5112 -0.3066 -0.0581
  192SAPI   H9X22291   2.875  -0.010   3.557 -0.2974  0.8196 -0.6975
  192SAPI   H9Y22292   2.850  -0.180   3.508 -1.3225 -1.6062  0.9958
  192SAPI  C31022293   2.703  -0.107   3.646 -0.0058  0.3702  0.9180
  192SAPI  H10X22294   2.635  -0.194   3.638 -0.6895  0.9301  0.5282
  192SAPI  H10Y22295   2.635  -0.019   3.644 -1.0690 -0.4269 -1.9437
  192SAPI  C31122296   2.762  -0.099   3.791 -0.0961  0.3437  0.1590
  192SAPI  H11X22297   2.822  -0.006   3.800  0.0996  0.4707 -2.0346
  192SAPI  H11Y22298   2.835  -0.183   3.790  0.5497  0.8666  1.3678
  192SAPI  C31222299   2.665  -0.120   3.901 -0.2926  0.1658 -0.4309
  192SAPI  H12X22300   2.624  -0.223   3.896 -0.6018  0.0476  2.7051
  192SAPI  H12Y22301   2.582  -0.045   3.897 -1.3799 -1.0116 -0.4882
  192SAPI  C31322302   2.732  -0.128   4.040 -0.1842 -0.7180  0.2013
  192SAPI  H13X22303   2.649  -0.144   4.112 -0.3397 -1.0427 -0.0509
  192SAPI  H13Y22304   2.775  -0.027   4.060 -2.5583  0.4832 -0.4789
  192SAPI  C31422305   2.830  -0.240   4.063  0.8654 -0.5809 -0.0976
  192SAPI  H14X22306   2.921  -0.219   4.003 -0.3730 -0.0633 -1.8967
  192SAPI  H14Y22307   2.790  -0.338   4.030 -0.2299  0.0787 -0.7765
  192SAPI  C31522308   2.851  -0.253   4.217  0.0269  0.3108 -0.9801
  192SAPI  H15X22309   2.750  -0.283   4.252  0.0116 -1.3591 -2.3047
  192SAPI  H15Y22310   2.887  -0.160   4.266 -0.2432 -0.5280  0.9122
  192SAPI  C31622311   2.959  -0.359   4.235 -0.3131 -0.2132  0.5333
  192SAPI  H16X22312   3.047  -0.329   4.175  0.2983 -0.0094  1.5119
  192SAPI  H16Y22313   2.911  -0.445   4.184 -0.0829  0.8310 -1.5507
  192SAPI  C31722314   3.006  -0.386   4.380  1.0013  0.7910 -0.1658
  192SAPI  H17X22315   3.046  -0.292   4.425  1.2042  0.9318 -0.6350
  192SAPI  H17Y22316   3.086  -0.463   4.376  0.3089 -0.0062  0.8739
  192SAPI  C31822317   2.889  -0.433   4.470 -0.2659 -0.4581 -0.0532
  192SAPI  H18X22318   2.806  -0.360   4.481  0.1098  0.2334 -1.4820
  192SAPI  H18Y22319   2.930  -0.462   4.569  0.6094 -0.2042 -0.3273
  192SAPI  H18Z22320   2.845  -0.525   4.425 -1.8376  0.2744 -0.0685
  193SOD    SOD22321   2.128   5.357   2.339 -0.0441  0.1653 -0.0933
  194SOD    SOD22322   4.125   5.574   2.560  0.5711 -0.4130  0.2414
  195SOD    SOD22323   6.727   4.820   2.135 -0.2577  0.1364  0.0172
  196SOD    SOD22324   5.304   0.466   0.444  0.1846  0.4208 -0.3105
  197SOD    SOD22325   3.308   6.896   7.169 -0.2661 -0.4536  0.9167
  198SOD    SOD22326   4.352   4.697   0.882  0.1529 -0.3942 -0.0238
  199SOD    SOD22327   4.755   3.796   7.385  0.3120 -0.1064 -0.5213
  200SOD    SOD22328   4.872   5.367   6.821  0.1952 -0.6151  0.0386
  201SOD    SOD22329   6.637   3.801   7.719  0.2287 -0.3484  0.0219
  202SOD    SOD22330   3.603   2.241   1.321  0.2566 -0.0377 -0.1935
  203SOD    SOD22331   6.448   2.384   1.995 -0.2412  0.5494  0.1751
  204SOD    SOD22332   4.536   4.982   0.203 -0.3368 -0.2762 -0.0936
  205SOD    SOD22333   1.033   0.786   0.564 -0.0362  0.4025  0.3350
  206SOD    SOD22334   4.040   6.643   1.872 -0.1041 -0.4461  0.2130
  207SOD    SOD22335   4.563   5.867   7.495  0.1976  0.0414  0.5524
  208SOD    SOD22336   4.716   6.578   6.788  0.2355  0.1863 -0.2272
  209SOD    SOD22337   5.739   1.604   8.431 -0.2819  0.7701  0.3511
  210SOD    SOD22338   0.212   0.046   0.625  0.1946 -0.3569  0.0134
  211SOD    SOD22339   1.380   1.020   7.230  0.6156  0.1256  0.2056
  212SOD    SOD22340   6.675   5.445   6.739  0.0731 -0.2151 -0.0024
  213SOD    SOD22341   4.083   1.080   0.495  0.2788 -0.1296  0.3549
  214SOD    SOD22342   6.392   1.553   0.570 -0.7969  0.2725 -0.3582
  215SOD    SOD22343   2.744   0.170   0.049 -0.0467  0.1580  0.1612
  216SOD    SOD22344   6.840   4.323   0.375  0.1137 -0.0425 -0.1700
  217SOD    SOD22345   4.247   3.934   7.915 -0.1849 -0.1686  0.0149
  218SOD    SOD22346   2.348   4.114   6.872  0.0511  0.0457 -0.0832
  219SOD    SOD22347   0.811   4.644   6.297 -0.1488 -0.7800  0.0640
  220SOD    SOD22348   2.831   0.179   1.987 -0.0419 -0.2248  0.0714
  221SOD    SOD22349   3.164   2.069   7.521 -0.2644 -0.0617 -0.3684
  222SOD    SOD22350   1.865   2.457   0.464 -0.2567 -0.0259  0.2506
  223SOD    SOD22351   5.358   6.168   1.697 -0.0405  0.0999 -0.2988
  224SOD    SOD22352   5.174   2.023   7.437 -0.1369 -0.2229  0.0918
  225SOD    SOD22353   5.115   1.538   7.026 -0.0153 -0.4615 -0.1122
  226SOD    SOD22354   2.615   3.994   8.204 -0.1317 -0.8858 -0.0430
  227SOD    SOD22355   2.580   3.033   7.425  0.2360  0.0550  0.0555
  228SOD    SOD22356   0.722   1.935   0.087  0.2601  0.0068  0.0907
  229SOD    SOD22357   5.801   4.181   2.348 -0.5683 -0.2461 -0.1267
  230CLA    CLA22358   3.849   2.108   0.829 -0.4013  0.3033 -0.1023
  231CLA    CLA22359   5.397   5.273   1.074 -0.2612  0.0148 -0.8357
  232CLA    CLA22360   6.879   2.040   0.771  0.0135  0.1686 -0.4864
  233CLA    CLA22361   0.418   0.034   8.528  0.2462  0.2503 -0.1941
  234CLA    CLA22362   4.368   3.665   0.089  0.1655  0.1123 -0.1030
  235CLA    CLA22363   6.877   1.322   7.468 -0.0087 -0.0495  0.1392
  236CLA    CLA22364   3.816   6.004   0.158 -0.2260 -0.3170 -0.2110
  237CLA    CLA22365   0.983   0.855   7.017 -0.1352 -0.0865  0.4256
  238CLA    CLA22366   2.801   2.146   8.459 -0.5756 -0.1888 -0.0336
  239CLA    CLA22367   0.435   4.271   0.388  0.0852 -0.3268  0.1801
  240CLA    CLA22368   5.496   5.690   0.715  0.0861  0.1432  0.1537
  241CLA    CLA22369   3.315   5.670   1.230 -0.1037 -0.0010 -0.4028
  242CLA    CLA22370   3.694   0.040   0.758 -0.2881 -0.1845 -0.1513
  243CLA    CLA22371   6.702   4.526   0.232 -0.4699  0.1485  0.0005
  244CLA    CLA22372   2.183   3.515   0.126 -0.0046 -0.1848  0.1405
  245CLA    CLA22373   1.297   4.481   0.712 -0.3432 -0.3557  0.0036
  246CLA    CLA22374   2.109   2.922   7.781 -0.2939 -0.1336 -0.2768
  247TIP3   OH222375   1.492   2.311   1.487 -0.0694  0.1789 -0.3003
  247TIP3    H122376   1.401   2.306   1.517 -0.0477 -0.8819 -0.3819
  247TIP3    H222377   1.495   2.255   1.410  1.3257 -2.3345  1.4336
  248TIP3   OH222378   4.624   5.006   8.193  0.3969 -0.6349  0.5063
  248TIP3    H122379   4.600   4.913   8.198 -1.3525 -0.1929  1.0145
  248TIP3    H222380   4.719   5.007   8.202  0.6863 -2.5160 -1.5181
  249TIP3   OH222381   6.024   5.839   1.205 -0.4651 -0.0131 -0.4154
  249TIP3    H122382   5.997   5.772   1.142 -1.0119 -1.3685  1.1707
  249TIP3    H222383   5.942   5.872   1.242 -0.1463 -0.3777  0.6830
  250TIP3   OH222384   1.817   5.230   1.981 -0.4880 -0.0763 -0.4325
  250TIP3    H122385   1.756   5.174   2.029 -0.9520  0.4110 -0.4469
  250TIP3    H222386   1.878   5.169   1.939  0.1482 -0.5228  1.0555
  251TIP3   OH222387   6.506   1.928   7.075 -0.5703  0.3531 -0.0447
  251TIP3    H122388   6.487   1.997   7.011  1.2251  0.5084 -0.4581
  251TIP3    H222389   6.476   1.848   7.033 -0.9570  0.6614 -0.3647
  252TIP3   OH222390   2.340   3.636   8.146 -0.0006 -0.4205 -0.4653
  252TIP3    H122391   2.268   3.692   8.117  0.5413  1.3706  1.4024
  252TIP3    H222392   2.322   3.622   8.239  1.8411 -0.2613 -0.0567
  253TIP3   OH222393   4.399   1.397   0.848  0.0792  0.5726  0.2230
  253TIP3    H122394   4.429   1.324   0.794  0.6390 -1.4949  3.1381
  253TIP3    H222395   4.468   1.463   0.839 -0.1860  0.6216 -2.0357
  254TIP3   OH222396   5.349   5.924   7.530  0.4562  0.2308  0.0160
  254TIP3    H122397   5.429   5.914   7.478  0.6382  0.5668  0.2283
  254TIP3    H222398   5.379   5.923   7.621  0.0418 -1.2512  0.1521
  255TIP3   OH222399   6.242   5.785   8.189 -0.3230  0.4290  0.2610
  255TIP3    H122400   6.320   5.745   8.228 -0.6608 -1.8593 -1.2179
  255TIP3    H222401   6.176   5.781   8.259  0.5560  1.4707  1.1970
  256TIP3   OH222402   0.250   5.970   1.709 -0.2729  0.0011 -0.2918
  256TIP3    H122403   0.217   5.880   1.708  0.9503 -0.4807  0.5282
  256TIP3    H222404   0.200   6.012   1.779 -0.5039 -0.1854 -0.3418
  257TIP3   OH222405   1.760   2.250   2.324  0.3848 -0.1202  0.6275
  257TIP3    H122406   1.791   2.222   2.410  0.9889 -0.0198  0.4423
  257TIP3    H222407   1.666   2.268   2.337  0.5712  0.3439  1.3676
  258TIP3   OH222408   6.474   0.856   6.891 -0.4878  0.2418  0.4824
  258TIP3    H122409   6.478   0.767   6.855  0.8729 -0.2444  1.7479
  258TIP3    H222410   6.515   0.910   6.823 -3.2877  0.3257 -1.2891
  259TIP3   OH222411   4.773   6.830   7.982 -0.3232 -0.1510  0.7471
  259TIP3    H122412   4.705   6.822   7.914 -1.6838 -0.0801  2.0435
  259TIP3    H222413   4.834   6.895   7.947 -0.4159 -0.8684 -0.8408
  260TIP3   OH222414   2.377   3.061   0.224  0.1583 -0.5980  0.0405
  260TIP3    H122415   2.357   3.152   0.246 -0.7642 -1.2321  2.0505
  260TIP3    H222416   2.309   3.036   0.161  1.1073  0.3957 -1.4444
  261TIP3   OH222417   0.150   6.771   0.464  0.5913 -0.2605  0.1377
  261TIP3    H122418   0.166   6.688   0.510  2.0758  0.5614  1.1561
  261TIP3    H222419   0.174   6.752   0.373 -1.0428 -1.5064 -0.0847
  262TIP3   OH222420   5.765   5.578   2.569 -0.3390  0.3774 -0.4745
  262TIP3    H122421   5.821   5.618   2.503 -0.7413  0.8585 -0.5323
  262TIP3    H222422   5.692   5.540   2.519 -0.6654  0.7754 -0.3081
  263TIP3   OH222423   1.138   5.201   7.841  0.4669 -0.0731  0.4651
  263TIP3    H122424   1.073   5.268   7.821  2.4180  2.2836  1.4912
  263TIP3    H222425   1.147   5.151   7.760 -1.4044  0.5506 -0.1818
  264TIP3   OH222426   1.563   4.117   7.684 -0.2585 -0.5350  0.1144
  264TIP3    H122427   1.534   4.058   7.754 -1.5719 -0.7069 -0.5325
  264TIP3    H222428   1.623   4.064   7.632  0.2801 -0.5872  0.7731
  265TIP3   OH222429   0.051   2.392   1.220 -0.4282  0.4990 -0.3540
  265TIP3    H122430   0.046   2.297   1.217 -0.7005  0.5072 -0.1306
  265TIP3    H222431   0.139   2.410   1.253 -0.2283  0.3307 -0.7882
  266TIP3   OH222432   2.067   2.503   1.947 -0.2045  0.2047 -0.1532
  266TIP3    H122433   1.982   2.462   1.932 -0.4258 -0.8079  3.0725
  266TIP3    H222434   2.046   2.591   1.977 -0.0186  0.3710 -0.4987
  267TIP3   OH222435   1.507   1.261   8.244  0.7397 -0.4864  0.0910
  267TIP3    H122436   1.527   1.354   8.233 -2.0397 -0.0156 -2.3594
  267TIP3    H222437   1.568   1.217   8.185  1.3131 -0.1045  0.3918
  268TIP3   OH222438   4.821   5.270   1.981  0.6179 -0.6383  0.2459
  268TIP3    H122439   4.763   5.194   1.974  0.4754 -0.4904 -0.2675
  268TIP3    H222440   4.857   5.280   1.893 -1.2345  1.3565 -0.3871
  269TIP3   OH222441   3.336   0.384   8.482  0.1125 -0.2175 -0.4296
  269TIP3    H122442   3.364   0.475   8.469  0.1650 -0.2250 -0.3676
  269TIP3    H222443   3.391   0.333   8.424 -0.5749 -0.1096 -1.1962
  270TIP3   OH222444   4.854   4.095   1.942  0.0568  0.3814  0.1807
  270TIP3    H122445   4.829   4.020   1.996  1.2905  0.8468  1.4682
  270TIP3    H222446   4.857   4.061   1.853  0.6911 -1.1362  0.7458
  271TIP3   OH222447   2.736   5.959   7.179  0.0727 -0.4435 -0.3516
  271TIP3    H122448   2.655   5.936   7.225  0.2018 -0.9972 -0.3925
  271TIP3    H222449   2.753   6.050   7.204 -0.5103 -0.3547 -0.2656
  272TIP3   OH222450   0.943   5.541   1.629 -0.4614 -0.2527 -0.0291
  272TIP3    H122451   0.879   5.568   1.695  0.1402 -1.0838  0.9389
  272TIP3    H222452   1.005   5.613   1.625 -0.8906  0.1125 -0.2198
  273TIP3   OH222453   1.281   3.423   6.768 -0.0704  0.3849  0.1925
  273TIP3    H122454   1.299   3.484   6.697 -0.8504  0.9723  0.4793
  273TIP3    H222455   1.352   3.438   6.831 -1.4722  2.7701  1.3796
  274TIP3   OH222456   3.517   2.128   0.418  0.2960 -0.3610 -0.7833
  274TIP3    H122457   3.528   2.223   0.428 -3.6134  0.0526  1.4447
  274TIP3    H222458   3.579   2.091   0.481 -0.5197  0.9393  0.8819
  275TIP3   OH222459   0.812   4.986   6.960 -0.0731 -0.4334 -1.2996
  275TIP3    H122460   0.851   4.989   7.048 -0.4966 -1.5644 -1.0615
  275TIP3    H222461   0.753   5.062   6.957  1.4028  0.7648 -1.3322
  276TIP3   OH222462   2.686   0.331   8.515  0.0655  0.1429 -0.6989
  276TIP3    H122463   2.593   0.347   8.499 -0.2439 -1.6734 -0.9326
  276TIP3    H222464   2.727   0.417   8.505 -1.4133  0.7707 -1.8591
  277TIP3   OH222465   1.602   3.126   7.547  0.3432  0.0221 -0.0695
  277TIP3    H122466   1.559   3.209   7.566  0.1971 -0.5232  2.2847
  277TIP3    H222467   1.558   3.063   7.605 -0.1446 -1.9103 -2.3778
  278TIP3   OH222468   4.106   6.783   6.539 -0.0570  0.0514 -0.0891
  278TIP3    H122469   4.064   6.867   6.521 -1.1125 -0.0142  1.7989
  278TIP3    H222470   4.199   6.804   6.547  0.0660  0.5571 -2.2374
  279TIP3   OH222471   3.387   0.043   7.937  0.0559  0.1390  0.6720
  279TIP3    H122472   3.325  -0.027   7.917 -0.1355  0.6992 -0.8221
  279TIP3    H222473   3.376   0.106   7.866  2.6597  0.0548  0.1019
  280TIP3   OH222474   1.162   4.563   0.074 -0.1154  0.4021  0.6523
  280TIP3    H122475   1.198   4.521   0.152  1.7096  0.0044 -0.3526
  280TIP3    H222476   1.194   4.653   0.078 -0.9520  0.6984  0.9091
  281TIP3   OH222477   3.223   5.055   7.773 -0.7443 -0.3505 -0.3063
  281TIP3    H122478   3.136   5.092   7.787  0.0173  1.0928  0.9085
  281TIP3    H222479   3.232   5.049   7.678 -1.1541  2.1195 -0.5666
  282TIP3   OH222480   0.350   3.221   7.853 -0.8686 -0.6980 -0.2909
  282TIP3    H122481   0.339   3.245   7.945  1.1287 -1.0531  0.0753
  282TIP3    H222482   0.290   3.280   7.807 -3.2979 -1.7317  1.3209
  283TIP3   OH222483   0.296   6.457   1.331  0.3199  0.3934  0.2572
  283TIP3    H122484   0.233   6.438   1.401  1.9909 -1.7546  1.2855
  283TIP3    H222485   0.252   6.431   1.251 -0.5453  0.0748  0.8190
  284TIP3   OH222486   2.963   6.343   1.716 -0.1829  0.1897  0.0861
  284TIP3    H122487   2.925   6.279   1.776 -0.3097  0.2769  0.0990
  284TIP3    H222488   2.968   6.296   1.632  0.5494 -0.1265  0.3037
  285TIP3   OH222489   1.993   0.170   7.270  0.0902  0.1403 -0.4508
  285TIP3    H122490   1.911   0.133   7.238  0.2088 -0.4552 -0.0735
  285TIP3    H222491   1.971   0.206   7.356  0.4964 -1.1259  0.1999
  286TIP3   OH222492   4.744   5.786   7.973 -0.4178 -0.0171 -0.1401
  286TIP3    H122493   4.676   5.773   8.039 -1.5857  0.2345 -1.2533
  286TIP3    H222494   4.779   5.873   7.992 -1.5733  0.5546 -0.5634
  287TIP3   OH222495   2.501   5.855   1.395  0.1165 -0.3569  0.1691
  287TIP3    H122496   2.462   5.823   1.314  0.6048 -0.5258 -0.0021
  287TIP3    H222497   2.584   5.895   1.368  0.9856 -1.6919  0.7325
  288TIP3   OH222498   3.925   5.312   0.105 -0.2171 -0.3245  0.1515
  288TIP3    H122499   3.988   5.248   0.138  1.8746  0.6636 -1.6765
  288TIP3    H222500   3.906   5.285   0.015 -0.4309  0.7970 -0.1663
  289TIP3   OH222501   4.267   0.057   7.147  0.5510 -0.1814 -0.2792
  289TIP3    H122502   4.183   0.028   7.110 -0.0022  1.4562 -0.3498
  289TIP3    H222503   4.281   0.144   7.111  3.0546 -0.9555 -1.4820
  290TIP3   OH222504   3.960   5.838   1.937  0.7287 -0.2208 -0.0681
  290TIP3    H122505   3.953   5.932   1.923 -0.8933 -0.2083  0.5944
  290TIP3    H222506   3.901   5.820   2.011  1.8458 -1.5946  0.5475
  291TIP3   OH222507   0.366   5.837   6.997 -0.0038  0.6295  0.3271
  291TIP3    H122508   0.424   5.761   6.998 -2.1974 -1.1646  0.0506
  291TIP3    H222509   0.372   5.870   6.907  1.5838  1.3756  0.6617
  292TIP3   OH222510   0.573   4.998   0.851  0.1325  0.0388 -0.3330
  292TIP3    H122511   0.648   5.050   0.822  0.5063 -1.1932 -1.6549
  292TIP3    H222512   0.523   5.058   0.906  0.2039  2.0292 -2.2878
  293TIP3   OH222513   3.318   4.911   7.329 -0.7370 -0.3720 -0.7151
  293TIP3    H122514   3.391   4.911   7.267 -1.9687  0.8094 -2.2539
  293TIP3    H222515   3.334   4.987   7.385 -0.7967 -0.0604 -1.1099
  294TIP3   OH222516   2.285   5.035   1.195 -0.0944 -0.7017 -0.1848
  294TIP3    H122517   2.218   5.050   1.128 -0.2225 -1.6729 -0.2790
  294TIP3    H222518   2.253   4.961   1.246  0.4337 -0.5395  0.3994
  295TIP3   OH222519   6.399   2.058   8.452  0.2567 -0.1702 -0.1682
  295TIP3    H122520   6.487   2.067   8.488 -0.1965  1.0261  0.7002
  295TIP3    H222521   6.342   2.046   8.529 -0.2349 -2.1362 -0.7705
  296TIP3   OH222522   5.296   1.358   1.157  0.8628 -0.6712 -0.6297
  296TIP3    H122523   5.346   1.371   1.238  2.8140 -0.2018 -1.8243
  296TIP3    H222524   5.314   1.267   1.133  2.0269 -0.2331 -1.5593
  297TIP3   OH222525   3.679   5.688   1.321 -0.3074 -0.3915 -0.6103
  297TIP3    H122526   3.691   5.672   1.414 -0.2964 -0.8746 -0.6907
  297TIP3    H222527   3.607   5.751   1.316 -0.6639 -0.7711 -0.2976
  298TIP3   OH222528   2.277   0.343   7.333 -0.9411  0.6482 -0.7822
  298TIP3    H122529   2.236   0.340   7.247 -0.3415  2.5389 -1.1832
  298TIP3    H222530   2.301   0.435   7.345  1.8651 -0.0888  0.0369
  299TIP3   OH222531   1.796   2.920   0.932 -0.3607 -0.2391 -0.3478
  299TIP3    H122532   1.821   3.011   0.946  1.8575 -0.6660 -1.1041
  299TIP3    H222533   1.701   2.921   0.930 -0.4701  1.6418  2.1899
  300TIP3   OH222534   0.970   2.971   0.701  0.3838 -0.0067 -0.0022
  300TIP3    H122535   0.934   2.882   0.704  0.4393 -0.3757 -4.1105
  300TIP3    H222536   0.899   3.026   0.733 -0.2101 -1.3928  1.1772
  301TIP3   OH222537   4.763   6.595   1.177  0.0688 -0.2666 -0.0680
  301TIP3    H122538   4.722   6.620   1.260 -2.1304 -0.0396 -1.1382
  301TIP3    H222539   4.691   6.597   1.114  1.2120 -2.5752 -1.5647
  302TIP3   OH222540   5.202   3.694   2.761 -0.1333  0.3215  0.2078
  302TIP3    H122541   5.116   3.711   2.799 -0.4723 -0.9572  0.0417
  302TIP3    H222542   5.188   3.623   2.698  0.3944  2.4091 -2.4617
  303TIP3   OH222543   1.893   5.125   0.598 -0.0780  0.6244  0.2518
  303TIP3    H122544   1.856   5.211   0.578 -2.3846 -0.0778  1.1546
  303TIP3    H222545   1.859   5.105   0.685  1.0393 -0.9162  0.3737
  304TIP3   OH222546   3.559   5.623   8.074 -0.2894  0.8310 -0.0721
  304TIP3    H122547   3.644   5.658   8.101  0.9337 -0.1553 -2.3485
  304TIP3    H222548   3.538   5.670   7.994 -1.4559  0.4060 -0.0336
  305TIP3   OH222549   1.238   6.827   0.388  0.1974 -0.2098  0.0608
  305TIP3    H122550   1.286   6.809   0.307 -0.9857  0.4207 -0.8142
  305TIP3    H222551   1.179   6.753   0.399 -1.1481  0.6745 -0.8472
  306TIP3   OH222552   5.380   4.087   0.060 -0.1947 -0.2354 -0.6467
  306TIP3    H122553   5.357   4.129  -0.023  1.3695 -0.3495 -1.1605
  306TIP3    H222554   5.416   4.002   0.036 -1.3717 -1.0339  0.2749
  307TIP3   OH222555   4.381   1.111   7.578 -0.6740 -0.0194  0.1357
  307TIP3    H122556   4.359   1.204   7.580  1.6945  0.6235  0.2748
  307TIP3    H222557   4.360   1.080   7.666  0.3676  0.9308  0.7592
  308TIP3   OH222558   1.719   4.390   0.668  0.1316  0.1051 -0.6245
  308TIP3    H122559   1.680   4.465   0.624  1.2524 -0.1375 -2.1187
  308TIP3    H222560   1.793   4.427   0.717 -0.8155  0.3013  0.7158
  309TIP3   OH222561   5.421   3.589   2.884 -0.4168 -0.2072 -0.5854
  309TIP3    H122562   5.466   3.646   2.821 -0.2435  2.3078  1.6570
  309TIP3    H222563   5.331   3.620   2.885 -0.2783  0.1985  0.8221
  310TIP3   OH222564   5.141   4.936   0.579 -0.2087  0.4810  0.9116
  310TIP3    H122565   5.191   5.016   0.600  0.0513  0.1859  1.4440
  310TIP3    H222566   5.185   4.867   0.629 -2.0894  0.4635  2.6885
  311TIP3   OH222567   6.806   2.916   0.035 -0.3728  0.5904 -0.6842
  311TIP3    H122568   6.839   2.973  -0.035 -0.1700  1.5728  0.1852
  311TIP3    H222569   6.765   2.843  -0.011 -2.3148  2.3482 -1.8891
  312TIP3   OH222570   0.783   1.713   6.937  0.5104  0.1769 -0.4068
  312TIP3    H122571   0.783   1.673   6.850  1.0577 -1.7130  0.4146
  312TIP3    H222572   0.875   1.716   6.962  0.3758  0.8961  0.0492
  313TIP3   OH222573   0.857   3.294   7.501  0.6374 -0.3872 -0.1311
  313TIP3    H122574   0.858   3.230   7.571 -0.9393 -0.6932 -0.3603
  313TIP3    H222575   0.901   3.251   7.428 -0.8721 -1.4587 -0.4572
  314TIP3   OH222576   3.334   4.812   1.349 -0.0163 -0.5958 -0.0181
  314TIP3    H122577   3.259   4.787   1.402 -0.8083 -0.9856 -1.2678
  314TIP3    H222578   3.303   4.887   1.297 -0.1805 -1.8648 -1.8572
  315TIP3   OH222579   6.722   0.060   8.357 -0.1350  0.1483 -0.8600
  315TIP3    H122580   6.731  -0.022   8.309  0.9226  0.3461 -1.0394
  315TIP3    H222581   6.731   0.128   8.290  0.0025  0.4087 -0.5821
  316TIP3   OH222582   6.594   4.682   1.976 -0.1108  0.4743  0.7408
  316TIP3    H122583   6.559   4.691   1.887  0.2256  0.1201  0.5691
  316TIP3    H222584   6.654   4.609   1.970 -1.4364 -0.7383  1.6862
  317TIP3   OH222585   2.599   1.355   1.913 -0.2421  0.0526  0.4538
  317TIP3    H122586   2.531   1.346   1.846  0.9159  0.1078 -0.7739
  317TIP3    H222587   2.636   1.442   1.899 -0.5850  0.4345  1.7798
  318TIP3   OH222588   2.869   5.789   6.988 -0.3746  0.3268  0.8418
  318TIP3    H122589   2.895   5.793   6.896  0.1691  0.7605  1.0034
  318TIP3    H222590   2.824   5.872   7.004 -0.4967  0.2382  0.9564
  319TIP3   OH222591   1.505   5.177   6.883  0.1675 -0.2243 -0.1227
  319TIP3    H122592   1.460   5.259   6.902  0.0366 -0.3737  0.2155
  319TIP3    H222593   1.570   5.168   6.954  0.8535  0.0822 -0.7025
  320TIP3   OH222594   2.975   5.545   0.977 -0.3003  0.1049 -0.7156
  320TIP3    H122595   2.993   5.566   0.886  0.2598 -0.3402 -0.7138
  320TIP3    H222596   3.025   5.465   0.993  0.3123  0.6619  0.2311
  321TIP3   OH222597   6.127   6.487   1.978 -0.2205  0.0161 -0.5109
  321TIP3    H122598   6.164   6.525   1.899  0.4827 -0.0514 -0.2159
  321TIP3    H222599   6.202   6.469   2.035 -0.6053 -0.9976 -0.2847
  322TIP3   OH222600   6.459   3.756   7.847  0.2308 -0.6996 -0.1086
  322TIP3    H122601   6.412   3.839   7.839  0.4367 -0.5817 -0.0958
  322TIP3    H222602   6.415   3.697   7.787  0.4755 -0.4061 -0.5796
  323TIP3   OH222603   4.840   4.327   7.566 -0.0605  0.5999 -0.0603
  323TIP3    H122604   4.787   4.271   7.622  0.3383 -0.7094 -0.9502
  323TIP3    H222605   4.827   4.415   7.601 -1.3763  0.0723  0.8462
  324TIP3   OH222606   3.670   3.562   7.165  0.5263 -0.3573 -0.2576
  324TIP3    H122607   3.628   3.527   7.087  0.2224  1.2673 -0.8473
  324TIP3    H222608   3.754   3.516   7.169  0.6619 -0.2739 -1.6929
  325TIP3   OH222609   2.336   1.812   0.015 -0.1272  0.2163 -0.2367
  325TIP3    H122610   2.251   1.779   0.043  0.4648 -0.3691  0.9339
  325TIP3    H222611   2.396   1.785   0.084  0.5047  3.4379  0.6218
  326TIP3   OH222612   3.968   4.970   7.378  0.2016  0.6690 -0.4181
  326TIP3    H122613   4.025   5.013   7.315  0.0921  0.8635 -0.3837
  326TIP3    H222614   3.954   5.035   7.447 -0.7225  0.9168 -0.8278
  327TIP3   OH222615   6.010   4.223   7.787 -0.3606  0.1273 -0.2836
  327TIP3    H122616   6.006   4.318   7.772 -3.3846 -0.0266 -1.0428
  327TIP3    H222617   6.010   4.214   7.882  0.2466  0.8785 -0.2043
  328TIP3   OH222618   1.999   4.380   6.721  0.3033  0.1495  0.4976
  328TIP3    H122619   1.938   4.409   6.789  0.8349 -0.3964  1.2255
  328TIP3    H222620   1.943   4.338   6.655 -0.4748  2.6690 -0.5590
  329TIP3   OH222621   5.426   6.317   0.579 -0.6180  0.1706  0.4528
  329TIP3    H122622   5.420   6.281   0.491 -1.4926 -2.0529  1.3469
  329TIP3    H222623   5.344   6.293   0.621  0.0173  0.6408  2.0624
  330TIP3   OH222624   1.237   0.894   1.471  0.1180 -0.2554  0.1188
  330TIP3    H122625   1.253   0.801   1.490  0.3755 -0.7050 -2.0043
  330TIP3    H222626   1.147   0.896   1.437 -0.3339  0.4965  1.2870
  331TIP3   OH222627   1.345   3.612   2.105 -0.0914  0.1383  0.3553
  331TIP3    H122628   1.281   3.653   2.163  1.2597 -0.0319  2.0367
  331TIP3    H222629   1.293   3.548   2.055 -1.1663 -0.4803  2.1385
  332TIP3   OH222630   5.396   4.635   7.543 -0.4487  0.7312 -0.0153
  332TIP3    H122631   5.438   4.688   7.611 -0.1274  1.9664 -1.1134
  332TIP3    H222632   5.451   4.649   7.466 -1.3683  0.1773 -0.7886
  333TIP3   OH222633   0.407   1.808   0.911 -0.1173  0.2094 -0.0509
  333TIP3    H122634   0.470   1.830   0.842 -0.6394  0.7460 -0.3723
  333TIP3    H222635   0.445   1.732   0.955  0.9602  0.7593  0.0262
  334TIP3   OH222636   2.372   0.830   7.622 -0.1017  0.4603 -0.1023
  334TIP3    H122637   2.353   0.843   7.529 -2.0816  1.9629  0.4511
  334TIP3    H222638   2.308   0.765   7.651 -0.0006  0.5721  0.3828
  335TIP3   OH222639   1.745   2.542   7.885  0.3160 -0.2170  0.6661
  335TIP3    H122640   1.807   2.604   7.923  2.6518 -0.9534 -1.6761
  335TIP3    H222641   1.757   2.462   7.937  0.7686 -0.1191  0.7198
  336TIP3   OH222642   5.702   0.749   1.521  0.7265 -0.1206 -0.3393
  336TIP3    H122643   5.725   0.838   1.547  2.1229 -0.2113 -1.1995
  336TIP3    H222644   5.772   0.722   1.462  0.3891 -1.8445  0.0027
  337TIP3   OH222645   3.918   4.921   1.317  0.3455  0.9729  0.0532
  337TIP3    H122646   3.823   4.921   1.311  0.2860 -1.3147  0.0648
  337TIP3    H222647   3.937   4.950   1.406 -0.3199  1.5478  0.0147
  338TIP3   OH222648   3.269   6.580   8.270 -0.1142  0.3436 -0.6759
  338TIP3    H122649   3.323   6.523   8.215 -0.1379  0.1979 -0.5467
  338TIP3    H222650   3.325   6.654   8.290  0.9005 -0.9003  1.4566
  339TIP3   OH222651   1.536   1.737   8.556  0.7361 -0.2276  0.3790
  339TIP3    H122652   1.485   1.817   8.544  1.5617  0.2450 -0.0214
  339TIP3    H222653   1.602   1.739   8.487  1.7912 -0.4366  1.3490
  340TIP3   OH222654   3.198   2.703   0.123 -0.0480 -0.2201 -0.2348
  340TIP3    H122655   3.208   2.634   0.189  0.1294  0.0031 -0.0250
  340TIP3    H222656   3.139   2.766   0.164  0.5401  0.2135 -0.0471
  341TIP3   OH222657   1.894   5.561   7.539  0.3296 -0.0967  0.7648
  341TIP3    H122658   1.912   5.640   7.590  0.6661  0.6557 -0.4852
  341TIP3    H222659   1.896   5.490   7.603  0.5635  0.8401  1.8194
  342TIP3   OH222660   4.162   0.850   7.933  0.1480 -0.5505 -0.3073
  342TIP3    H122661   4.214   0.779   7.970 -0.6404  1.1449  4.8915
  342TIP3    H222662   4.091   0.863   7.997 -0.6527  3.8403 -1.7601
  343TIP3   OH222663   4.544   5.553   8.437 -0.2875 -0.0952 -0.0803
  343TIP3    H122664   4.503   5.614   8.498  0.7316 -0.3681  0.9090
  343TIP3    H222665   4.472   5.518   8.386 -1.2039 -0.0088  1.1143
  344TIP3   OH222666   4.640   1.667   1.799 -0.2393 -0.0401  0.2541
  344TIP3    H122667   4.707   1.658   1.866  1.2202  1.3587 -0.9452
  344TIP3    H222668   4.648   1.589   1.745 -0.7548 -0.6919  1.1004
  345TIP3   OH222669   6.529   2.182   2.077  0.4584  0.0897  0.1703
  345TIP3    H122670   6.527   2.194   2.172 -0.1254  0.2790  0.1380
  345TIP3    H222671   6.571   2.097   2.064  1.4527  0.5035  0.5527
  346TIP3   OH222672   3.794   3.516   6.473 -0.1972  0.7120 -0.2202
  346TIP3    H122673   3.798   3.581   6.403  0.7433 -0.4086 -1.2462
  346TIP3    H222674   3.866   3.456   6.455 -1.6918 -1.2776 -0.0003
  347TIP3   OH222675   6.779   0.348   1.220 -0.0143 -0.0611  0.3346
  347TIP3    H122676   6.850   0.410   1.232  0.7538 -0.6630 -0.8879
  347TIP3    H222677   6.746   0.365   1.131 -0.8159 -0.3722  0.5579
  348TIP3   OH222678   4.731   4.890   0.977 -0.3929 -0.0223 -0.1050
  348TIP3    H122679   4.695   4.804   0.959 -0.6662  0.0579  0.0445
  348TIP3    H222680   4.818   4.889   0.938 -1.1083  0.2943 -1.8225
  349TIP3   OH222681   6.341   0.151   7.299 -0.3122  0.2445  0.1485
  349TIP3    H122682   6.339   0.163   7.204  3.5428  0.6112 -0.0640
  349TIP3    H222683   6.279   0.216   7.332 -2.3832 -0.4470 -2.0569
  350TIP3   OH222684   5.290   4.748   1.019  0.1427 -0.9086  0.0232
  350TIP3    H122685   5.384   4.764   1.028 -0.0045 -0.4261  0.8419
  350TIP3    H222686   5.275   4.743   0.925  1.2671 -2.7838 -0.1052
  351TIP3   OH222687   1.313   2.951   7.789  0.5154 -0.4420 -0.4106
  351TIP3    H122688   1.406   2.934   7.776  0.3621 -0.3898 -1.7966
  351TIP3    H222689   1.296   3.029   7.736 -0.3368 -0.5307 -0.2757
  352TIP3   OH222690   2.083   4.240   7.745 -0.0803 -0.2869 -0.3768
  352TIP3    H122691   2.171   4.202   7.740  0.1869  0.3709 -0.7833
  352TIP3    H222692   2.055   4.248   7.654  0.7434  2.4521 -0.4642
  353TIP3   OH222693   5.309   3.121   6.517  0.3207  0.1116  0.1151
  353TIP3    H122694   5.258   3.107   6.437 -1.4709 -1.3517  1.4482
  353TIP3    H222695   5.276   3.056   6.579  1.3839  1.4510  2.2021
  354TIP3   OH222696   6.212   6.394   1.010  0.2653 -0.2329  0.2530
  354TIP3    H122697   6.198   6.325   1.074 -2.1101 -0.9605 -0.9475
  354TIP3    H222698   6.293   6.369   0.965  1.7437  0.0580  2.5376
  355TIP3   OH222699   2.164   0.307   7.067 -0.2674  0.3473 -0.4370
  355TIP3    H122700   2.113   0.375   7.022 -0.0104 -0.3336 -1.8333
  355TIP3    H222701   2.098   0.254   7.112 -0.8449 -0.3892 -2.0400
  356TIP3   OH222702   1.274   6.160   8.142  0.5865  0.1136 -0.6083
  356TIP3    H122703   1.252   6.072   8.174 -2.1967  0.7861 -0.4153
  356TIP3    H222704   1.350   6.146   8.086  0.7989 -2.2762  0.1469
  357TIP3   OH222705   2.622   0.758   7.147  0.4591  0.2132  0.6442
  357TIP3    H122706   2.617   0.799   7.062 -0.5695  1.7649  1.4152
  357TIP3    H222707   2.716   0.755   7.167  0.6182  1.2107  0.0978
  358TIP3   OH222708   3.810   3.071   8.523  0.2223  0.3248 -0.1814
  358TIP3    H122709   3.809   3.080   8.427  2.2211  0.4669 -0.2321
  358TIP3    H222710   3.720   3.085   8.549 -0.4032  0.1272 -2.0693
  359TIP3   OH222711   1.581   4.110   1.125  0.3693  0.2844  0.0860
  359TIP3    H122712   1.648   4.127   1.058 -1.3653 -0.9792 -2.1451
  359TIP3    H222713   1.570   4.015   1.122 -1.5713  0.4833  0.2854
  360TIP3   OH222714   2.356   3.258   1.542  0.1760  0.1884  0.1551
  360TIP3    H122715   2.322   3.230   1.457 -1.6411  0.1701  0.8377
  360TIP3    H222716   2.378   3.176   1.586 -1.9756 -0.0832  0.8794
  361TIP3   OH222717   2.952   2.339   6.803 -0.1574  0.4748  0.1638
  361TIP3    H122718   2.869   2.322   6.758  0.0239 -1.9465  0.6120
  361TIP3    H222719   3.017   2.290   6.753  0.3984 -0.5389  1.8139
  362TIP3   OH222720   0.298   0.189   0.810 -0.1664 -0.2912 -0.2676
  362TIP3    H122721   0.262   0.147   0.888 -0.7690 -0.0620 -0.4231
  362TIP3    H222722   0.282   0.282   0.822 -1.3552 -0.3564 -1.2152
  363TIP3   OH222723   4.963   1.338   7.590  0.4969  0.3167  0.1212
  363TIP3    H122724   4.899   1.346   7.519  1.3654 -0.3760 -0.7715
  363TIP3    H222725   4.969   1.243   7.605  2.3644  0.2288 -0.8396
  364TIP3   OH222726   3.860   6.791   7.985  0.2300 -1.1257 -1.1722
  364TIP3    H122727   3.802   6.785   7.909 -0.8254 -3.0633 -0.2813
  364TIP3    H222728   3.862   6.702   8.021  0.2732 -0.1826  1.3835
  365TIP3   OH222729   4.359   2.488   0.469  0.1416 -0.2524 -0.0148
  365TIP3    H122730   4.431   2.428   0.454  2.1340  1.8219  0.7360
  365TIP3    H222731   4.358   2.502   0.564 -1.4077 -0.3800  0.0201
  366TIP3   OH222732   0.725   6.213   1.567 -0.4851  0.3998  0.5335
  366TIP3    H122733   0.679   6.159   1.631 -2.0551  0.6651 -0.3144
  366TIP3    H222734   0.682   6.192   1.484 -0.1548  1.8859 -0.0289
  367TIP3   OH222735   4.942   0.274   8.454 -0.9146  0.5831  0.3950
  367TIP3    H122736   4.972   0.309   8.537 -0.9670  1.6388 -0.0252
  367TIP3    H222737   5.005   0.304   8.390 -0.9825 -0.0614  0.0091
  368TIP3   OH222738   1.223   2.077   7.280  0.5626  0.5168  0.1748
  368TIP3    H122739   1.141   2.090   7.327  1.4666 -0.0601  1.9855
  368TIP3    H222740   1.254   2.166   7.261  0.4489  0.7699  1.1599
  369TIP3   OH222741   1.154   0.640   6.884 -0.1669 -0.2039 -0.2849
  369TIP3    H122742   1.088   0.692   6.930 -0.2138 -1.0014  0.5766
  369TIP3    H222743   1.153   0.673   6.794 -2.1838 -0.6277 -0.4463
  370TIP3   OH222744   2.262   5.675   2.119  0.4860  0.1336 -0.0949
  370TIP3    H122745   2.322   5.604   2.094 -0.2228 -0.5670  0.1745
  370TIP3    H222746   2.283   5.745   2.057 -0.0507 -0.9531 -1.5832
  371TIP3   OH222747   2.394   1.602   7.726 -0.0074  0.7533 -0.2084
  371TIP3    H122748   2.330   1.540   7.761 -1.0005  1.4268 -0.7854
  371TIP3    H222749   2.397   1.584   7.632  1.0792  0.3639 -0.1189
  372TIP3   OH222750   1.417   5.357   8.254  0.2503 -0.5520  0.0227
  372TIP3    H122751   1.398   5.293   8.322  0.0772 -0.0767  0.4264
  372TIP3    H222752   1.343   5.351   8.194 -0.1575 -0.1817  0.4791
  373TIP3   OH222753   2.680   5.832   1.009 -0.4451  0.1526 -0.0802
  373TIP3    H122754   2.776   5.828   1.003 -0.4912  0.7400 -1.5837
  373TIP3    H222755   2.655   5.745   1.040  0.5279 -0.2547 -0.3825
  374TIP3   OH222756   1.948   4.091   0.035  0.2487 -0.3255 -0.1407
  374TIP3    H122757   1.992   4.175   0.028  0.0619 -0.2349 -0.2301
  374TIP3    H222758   1.890   4.100   0.111  1.9441 -1.1528  1.3192
  375TIP3   OH222759   0.435   1.083   8.223  0.4754  0.4911  0.1612
  375TIP3    H122760   0.527   1.071   8.247  0.6171  0.1688 -0.5073
  375TIP3    H222761   0.434   1.164   8.173  0.3141  0.7485  0.5817
  376TIP3   OH222762   1.881   3.278   7.940 -0.3196  0.2071  1.0099
  376TIP3    H122763   1.812   3.307   7.999 -1.0523 -0.1411  0.3471
  376TIP3    H222764   1.914   3.197   7.980 -1.2537 -0.3769  0.6297
  377TIP3   OH222765   1.731   3.523   0.175 -0.2073  0.0121  0.1777
  377TIP3    H122766   1.640   3.514   0.202 -0.2864  3.3953  1.5264
  377TIP3    H222767   1.726   3.538   0.080 -1.4498  2.8793  0.5810
  378TIP3   OH222768   6.210   5.676   1.737 -0.3439  0.4417 -0.2891
  378TIP3    H122769   6.240   5.718   1.656 -1.5316 -0.2989 -1.1568
  378TIP3    H222770   6.275   5.701   1.803  0.4095  1.4371 -1.3636
  379TIP3   OH222771   0.014   0.702   8.535  0.0082 -0.1246  0.3345
  379TIP3    H122772   0.076   0.723   8.464  2.5516 -0.7526  2.1986
  379TIP3    H222773  -0.043   0.635   8.497 -0.4450  1.3850 -1.8858
  380TIP3   OH222774   3.731   5.006   6.829 -0.0360  0.0625 -0.1199
  380TIP3    H122775   3.794   5.042   6.767  1.6710  0.7929  1.9367
  380TIP3    H222776   3.676   5.080   6.853 -0.7129 -0.2255 -0.7398
  381TIP3   OH222777   3.622   5.289   0.011  0.1361 -0.1902  0.2251
  381TIP3    H122778   3.562   5.319  -0.057 -0.8882 -0.1807  1.1083
  381TIP3    H222779   3.622   5.359   0.076  3.1915  1.0720 -0.9381
  382TIP3   OH222780   3.064   3.979   8.242 -0.4013 -0.0810  0.2284
  382TIP3    H122781   3.056   4.041   8.314 -2.7175  0.3621 -0.3390
  382TIP3    H222782   3.075   3.894   8.286 -0.8458  0.2894  1.0871
  383TIP3   OH222783   1.313   2.740   8.060  0.4590  0.4825 -0.1955
  383TIP3    H122784   1.384   2.787   8.104  0.2009  1.1856 -0.5117
  383TIP3    H222785   1.356   2.691   7.990  0.7835 -0.0878  0.3981
  384TIP3   OH222786   2.829   3.556   6.326 -0.7073  0.6387 -0.1959
  384TIP3    H122787   2.821   3.651   6.319  1.8817  0.8133 -2.0805
  384TIP3    H222788   2.808   3.523   6.239 -1.5783 -0.5699  0.4384
  385TIP3   OH222789   5.989   1.815   0.244 -0.2238  0.1622  0.0283
  385TIP3    H122790   6.012   1.743   0.185 -0.3100 -0.3146  0.5730
  385TIP3    H222791   5.894   1.816   0.246 -0.2185  0.0324  0.3395
  386TIP3   OH222792   1.946   0.007   1.074 -0.2203  0.1842  0.2746
  386TIP3    H122793   1.863  -0.008   1.028  0.3362 -0.9535 -0.4126
  386TIP3    H222794   1.926  -0.012   1.166 -0.8614  0.5180  0.2123
  387TIP3   OH222795   4.766   0.279   1.235 -0.5483 -0.3861 -0.7968
  387TIP3    H122796   4.715   0.212   1.188  0.8746 -1.5009 -0.8284
  387TIP3    H222797   4.761   0.252   1.327 -3.8039  2.1044 -0.0288
  388TIP3   OH222798   1.035   5.687   0.491 -0.4033 -0.6980  0.1745
  388TIP3    H122799   1.110   5.710   0.436  0.4421 -0.6950  1.2829
  388TIP3    H222800   0.958   5.708   0.437  0.3627  1.0933 -0.3163
  389TIP3   OH222801   6.500   3.132   2.489  0.0710 -0.1082 -0.1316
  389TIP3    H122802   6.410   3.119   2.459  0.1532  1.2075 -1.0777
  389TIP3    H222803   6.502   3.224   2.517  1.5861  0.4994 -2.0076
  390TIP3   OH222804   3.301   1.421   7.960  0.1179 -0.7105 -0.0518
  390TIP3    H122805   3.252   1.444   7.881  0.3100 -1.4913 -0.4009
  390TIP3    H222806   3.312   1.326   7.956  0.4859 -0.7106  0.7083
  391TIP3   OH222807   0.940   5.553   6.578  0.3214 -0.0244 -0.2712
  391TIP3    H122808   0.868   5.521   6.523  0.8087 -1.4450 -0.1336
  391TIP3    H222809   1.008   5.579   6.516 -0.0594  0.6948 -0.3878
  392TIP3   OH222810   6.693   3.610   7.995  0.3303  0.1017 -0.0887
  392TIP3    H122811   6.703   3.629   8.088  0.5632 -2.3650  0.4601
  392TIP3    H222812   6.781   3.587   7.966 -0.1191 -1.4155 -0.3171
  393TIP3   OH222813   2.529   5.047   0.680  0.2361 -0.0616 -0.2158
  393TIP3    H122814   2.597   4.982   0.668 -0.8508 -1.7378  1.9168
  393TIP3    H222815   2.541   5.079   0.770 -1.1629  0.3065 -0.1236
  394TIP3   OH222816   5.530   4.322   1.602 -0.3715 -0.6773 -0.2390
  394TIP3    H122817   5.625   4.333   1.606 -0.4294  0.7335 -1.9697
  394TIP3    H222818   5.500   4.388   1.540 -2.4017 -1.6849 -0.4109
  395TIP3   OH222819   6.044   6.825   1.509  0.5257 -0.3414 -0.3714
  395TIP3    H122820   5.964   6.826   1.561 -0.3498  1.9697 -1.6243
  395TIP3    H222821   6.041   6.743   1.460 -0.8450 -0.4932 -0.0547
  396TIP3   OH222822   0.805   4.217   0.289 -0.1275  0.2407 -0.3536
  396TIP3    H122823   0.777   4.248   0.203 -1.1588 -0.5426 -0.3148
  396TIP3    H222824   0.745   4.146   0.310  1.0302 -0.5766  0.3628
  397TIP3   OH222825   0.313   5.392   2.413 -0.0804 -0.7395 -0.3780
  397TIP3    H122826   0.247   5.324   2.430  0.8597 -1.5907  0.0410
  397TIP3    H222827   0.392   5.359   2.457  0.7958 -0.0618 -1.3892
  398TIP3   OH222828   2.577   6.283   1.991  0.2890 -0.1715 -0.3957
  398TIP3    H122829   2.583   6.377   2.004  0.0654 -0.3767  1.4634
  398TIP3    H222830   2.483   6.266   1.980  0.3537 -0.1659 -1.0220
  399TIP3   OH222831   6.665   2.610   8.084  0.3190 -0.5296  0.5148
  399TIP3    H122832   6.698   2.700   8.084 -0.0920 -0.2995 -2.2359
  399TIP3    H222833   6.573   2.619   8.109  0.2070 -0.1410 -0.0236
  400TIP3   OH222834   3.082   5.012   0.151  0.1192  0.3798  0.8845
  400TIP3    H122835   3.162   4.972   0.117 -0.5991  0.3805 -0.9347
  400TIP3    H222836   3.013   4.950   0.129 -0.9269  2.1736 -1.3748
  401TIP3   OH222837   0.148   1.953   8.330  0.0342  0.0512  0.4793
  401TIP3    H122838   0.241   1.937   8.349  0.4086  0.5047 -0.8342
  401TIP3    H222839   0.137   2.047   8.347  0.1340  0.2548 -0.5269
  402TIP3   OH222840   4.708   1.953   1.026  0.5690 -0.4223 -0.2811
  402TIP3    H122841   4.630   1.921   1.070  0.3624  0.2112 -0.1907
  402TIP3    H222842   4.678   2.025   0.972  1.1133 -0.0815 -0.1379
  403TIP3   OH222843   4.323   6.834   1.072 -0.4060  0.4937 -0.4388
  403TIP3    H122844   4.369   6.911   1.041  0.8798  0.3122  0.8991
  403TIP3    H222845   4.230   6.853   1.056  0.0046  1.5611 -1.6869
  404TIP3   OH222846   3.109   1.840   7.524 -0.0618 -0.6605 -0.2878
  404TIP3    H122847   3.022   1.804   7.508 -0.1328 -0.0868 -1.3308
  404TIP3    H222848   3.150   1.779   7.585 -1.2705 -0.8097  0.4052
  405TIP3   OH222849   5.593   5.133   7.973  0.8661 -0.0462 -0.2890
  405TIP3    H122850   5.664   5.092   8.022 -0.9920 -1.2177  1.6099
  405TIP3    H222851   5.560   5.201   8.032  0.6433  0.7625 -1.3154
  406TIP3   OH222852   5.597   4.167   2.224  0.8203  0.0695  0.1532
  406TIP3    H122853   5.536   4.233   2.259  0.9433  0.1450  0.2291
  406TIP3    H222854   5.572   4.156   2.133  1.6819  1.2609 -0.2534
  407TIP3   OH222855   2.054   2.273   2.315  0.2193 -0.1822  0.4084
  407TIP3    H122856   2.118   2.284   2.245 -0.9920  0.9856 -0.5873
  407TIP3    H222857   1.969   2.275   2.270 -0.5591 -0.5979  1.7927
  408TIP3   OH222858   3.105   0.452   1.692 -0.1015  0.2703 -0.1170
  408TIP3    H122859   3.114   0.372   1.641  1.1158  1.6376 -2.2650
  408TIP3    H222860   3.074   0.517   1.628 -1.1261  1.5102  1.5564
  409TIP3   OH222861   6.200   4.949   1.276  0.1062 -0.2557 -1.0138
  409TIP3    H122862   6.236   4.866   1.306 -1.2284 -0.8470 -0.9751
  409TIP3    H222863   6.276   5.004   1.259  0.9766 -1.0106  0.3091
  410TIP3   OH222864   3.360   5.954   7.600 -0.5587 -0.3147 -0.5120
  410TIP3    H122865   3.349   6.018   7.530  0.8953 -0.2708 -0.7345
  410TIP3    H222866   3.377   6.007   7.678 -0.3108 -0.4070 -0.5032
  411TIP3   OH222867   3.256   3.972   6.237  0.0729 -0.1269 -0.1243
  411TIP3    H122868   3.325   3.914   6.270 -0.0715  0.4174  1.2385
  411TIP3    H222869   3.240   4.032   6.310 -0.0729  1.3566 -1.3253
  412TIP3   OH222870   0.064   0.537   1.228  0.3090 -0.5650  0.3996
  412TIP3    H122871   0.111   0.620   1.235 -1.0505  0.2431  0.2764
  412TIP3    H222872   0.130   0.476   1.195  1.4096  0.3861  0.7385
  413TIP3   OH222873   3.106   0.824   0.875  0.0104 -1.0720  0.2676
  413TIP3    H122874   3.023   0.824   0.828  0.9175 -2.3550 -1.4263
  413TIP3    H222875   3.148   0.906   0.851 -0.4971 -0.7009  0.6415
  414TIP3   OH222876   1.218   0.328   0.161  0.0618 -0.4466  0.3883
  414TIP3    H122877   1.237   0.236   0.141 -0.7044 -0.1513 -1.9570
  414TIP3    H222878   1.162   0.325   0.239  0.0135 -1.9530  0.3134
  415TIP3   OH222879   1.925   1.668   8.042 -0.0036 -0.5001 -0.3073
  415TIP3    H122880   1.983   1.666   8.118 -0.8255 -1.5198  0.3190
  415TIP3    H222881   1.984   1.659   7.966  0.7778  0.0746  0.2148
  416TIP3   OH222882   3.764   5.847   1.623  0.0093 -0.1755 -0.6160
  416TIP3    H122883   3.676   5.822   1.651 -0.0105 -1.0600 -1.4535
  416TIP3    H222884   3.822   5.798   1.681 -0.0393 -0.2733 -0.6499
  417TIP3   OH222885   6.889   1.572   0.096 -0.6997  0.1746 -0.1230
  417TIP3    H122886   6.955   1.613   0.152 -0.3539  2.0117 -1.7704
  417TIP3    H222887   6.932   1.565   0.010 -2.4093  0.8633 -1.0786
  418TIP3   OH222888   6.054   3.544   0.977  0.0679  0.1317 -0.4634
  418TIP3    H122889   6.055   3.615   0.913 -2.6311 -0.6922 -1.5200
  418TIP3    H222890   6.003   3.474   0.936  2.3706 -2.4022  0.6307
  419TIP3   OH222891   5.920   0.207   7.913  0.0202 -0.2674  0.3919
  419TIP3    H122892   5.890   0.239   7.827 -0.0929 -0.6215  0.2957
  419TIP3    H222893   5.960   0.283   7.954 -0.8518  0.1742  0.4452
  420TIP3   OH222894   5.223   5.018   7.745 -0.0905  0.0068  0.4659
  420TIP3    H122895   5.140   5.050   7.780 -1.2600  0.8283 -2.7764
  420TIP3    H222896   5.245   4.944   7.802 -2.0131  0.9360  2.5829
  421TIP3   OH222897   1.325   5.232   6.528  0.0453  0.2286 -0.1305
  421TIP3    H122898   1.420   5.242   6.521  0.0066  1.2899  0.5578
  421TIP3    H222899   1.290   5.309   6.483 -0.4776 -0.0289 -0.1644
  422TIP3   OH222900   6.316   3.787   1.297  0.1742  0.2448 -0.1960
  422TIP3    H122901   6.279   3.858   1.350 -0.1726 -0.0967  0.0262
  422TIP3    H222902   6.261   3.783   1.219  0.5475  0.5988 -0.4811
  423TIP3   OH222903   4.156   0.197   8.363 -0.4380  0.2890  0.2140
  423TIP3    H122904   4.204   0.273   8.330  2.1008 -0.5327  1.7602
  423TIP3    H222905   4.124   0.153   8.285 -0.1725  1.8167 -0.8023
  424TIP3   OH222906   5.142   6.765   7.932 -0.4486  0.0777  0.2418
  424TIP3    H122907   5.228   6.727   7.952  0.1733  1.7217  0.9120
  424TIP3    H222908   5.100   6.775   8.018 -0.9889  0.0243 -0.0098
  425TIP3   OH222909   0.175   2.903   0.936  0.2354 -0.2426  0.2726
  425TIP3    H122910   0.173   2.929   1.028 -0.2782 -0.4042  0.3103
  425TIP3    H222911   0.099   2.847   0.925 -0.2105  0.4749 -0.4619
  426TIP3   OH222912   0.439   1.117   0.888  0.3672 -0.1341 -0.1941
  426TIP3    H122913   0.384   1.165   0.827 -1.4051  0.3399  1.6522
  426TIP3    H222914   0.504   1.181   0.918 -0.7876  0.6067  0.8132
  427TIP3   OH222915   4.658   2.572   0.875 -0.5712 -1.0784  0.5061
  427TIP3    H122916   4.670   2.666   0.868 -2.2235 -0.8821  0.0459
  427TIP3    H222917   4.746   2.538   0.897  0.2555  0.4348 -0.3341
  428TIP3   OH222918   6.229   3.777   8.107 -0.6771 -0.0267 -0.5267
  428TIP3    H122919   6.221   3.681   8.107 -0.5115 -0.0434 -0.3282
  428TIP3    H222920   6.248   3.798   8.198 -2.5639  0.3616 -0.1744
  429TIP3   OH222921   1.574   5.055   7.742  0.0700  0.3622  0.1926
  429TIP3    H122922   1.566   4.960   7.748 -0.3360  0.4058  0.4511
  429TIP3    H222923   1.518   5.088   7.813  1.6839  0.7597  1.3481
  430TIP3   OH222924   6.441   3.229   1.246 -0.2951  0.3788  0.4744
  430TIP3    H122925   6.358   3.272   1.224 -0.9814 -1.2898 -0.4170
  430TIP3    H222926   6.460   3.174   1.170  1.1720  0.0199  1.0587
  431TIP3   OH222927   6.604   0.214   1.703  0.5450  0.0122  0.0644
  431TIP3    H122928   6.553   0.174   1.633  1.5807  0.7376 -1.1493
  431TIP3    H222929   6.540   0.232   1.772 -0.3010 -1.7471 -0.2100
  432TIP3   OH222930   1.879   3.783   2.203 -0.5730  0.5989  0.3035
  432TIP3    H122931   1.930   3.734   2.139  0.0286 -0.1635  1.3347
  432TIP3    H222932   1.899   3.875   2.185 -1.9860  0.5509 -1.8829
  433TIP3   OH222933   1.691   6.535   8.447 -0.4211 -0.0781  0.0963
  433TIP3    H122934   1.751   6.569   8.512 -1.3584 -1.4020  1.7436
  433TIP3    H222935   1.614   6.507   8.498 -0.8771 -1.8737 -1.4631
  434TIP3   OH222936   6.863   3.912   6.846  0.5340  0.1480 -0.0726
  434TIP3    H122937   6.847   4.000   6.811 -2.1959 -0.4795 -0.6764
  434TIP3    H222938   6.946   3.885   6.807  1.1665  2.2332 -0.2917
  435TIP3   OH222939   1.594   3.693   6.964 -0.6932  0.2035  0.0782
  435TIP3    H122940   1.586   3.626   7.032 -0.5416 -1.7786 -1.7604
  435TIP3    H222941   1.553   3.771   7.002 -2.5159 -1.4169  1.6233
  436TIP3   OH222942   2.079   2.416   7.065  0.4594  0.8140 -0.0669
  436TIP3    H122943   2.110   2.423   6.975 -0.2716  0.1584 -0.3888
  436TIP3    H222944   2.057   2.505   7.091 -1.5639  0.7462 -1.3768
  437TIP3   OH222945   0.031   2.060   1.809  0.3461  0.2045  0.2593
  437TIP3    H122946   0.102   2.014   1.855 -0.2274 -0.8392  0.1221
  437TIP3    H222947   0.076   2.130   1.761  1.3664 -0.7648 -0.2552
  438TIP3   OH222948   5.551   1.807   7.530 -0.1346 -0.2450 -0.3133
  438TIP3    H122949   5.568   1.724   7.573 -0.9389 -1.0580 -1.5068
  438TIP3    H222950   5.607   1.806   7.453  0.9965  1.0214  0.4413
  439TIP3   OH222951   3.162   5.822   6.985 -0.1772 -0.2832 -0.0776
  439TIP3    H122952   3.174   5.727   6.978 -0.3340 -0.5506  2.3667
  439TIP3    H222953   3.074   5.831   7.022 -0.4984  0.8751 -1.0771
  440TIP3   OH222954   6.773   1.688   1.867 -0.0171 -0.1951  0.0463
  440TIP3    H122955   6.860   1.709   1.833 -0.0489  1.6859  1.0048
  440TIP3    H222956   6.789   1.651   1.953 -0.1191 -1.2598 -0.3782
  441TIP3   OH222957   6.722   2.621   7.745 -0.0207 -0.4028  0.0507
  441TIP3    H122958   6.700   2.560   7.816 -2.7419  0.1110 -0.2200
  441TIP3    H222959   6.745   2.702   7.789 -1.7647 -0.0655  0.4250
  442TIP3   OH222960   4.569   5.359   1.805  0.2576  0.2104 -0.4671
  442TIP3    H122961   4.628   5.384   1.734  0.7913  0.0710 -0.0785
  442TIP3    H222962   4.552   5.441   1.852  2.1449 -0.1245  0.9100
  443TIP3   OH222963   5.386   3.312   7.029  0.1414 -0.2443 -0.8517
  443TIP3    H122964   5.373   3.306   6.935 -0.1680 -0.4964 -0.7956
  443TIP3    H222965   5.445   3.239   7.050  0.5641  0.0734 -0.9087
  444TIP3   OH222966   1.380   1.313   1.763 -0.3784 -0.2437 -0.3146
  444TIP3    H122967   1.384   1.349   1.852  1.6327  2.6934 -1.3935
  444TIP3    H222968   1.466   1.271   1.751  0.4768  1.6911 -1.5854
  445TIP3   OH222969   3.360   4.746   8.200 -0.2783  0.1585 -0.3346
  445TIP3    H122970   3.421   4.812   8.233  0.6835 -1.3577  1.0610
  445TIP3    H222971   3.354   4.764   8.106  1.3458  1.1133 -0.2946
  446TIP3   OH222972   6.747   6.827   7.936  0.1559 -0.3076  0.1118
  446TIP3    H122973   6.668   6.879   7.950  0.6087  0.1192  1.2051
  446TIP3    H222974   6.755   6.820   7.841 -0.3380  0.9763 -0.0470
  447TIP3   OH222975   1.859   6.328   1.165 -0.0817 -0.7045 -0.0917
  447TIP3    H122976   1.863   6.300   1.256 -1.0625 -1.9649 -0.4123
  447TIP3    H222977   1.783   6.385   1.160 -0.1356 -0.7804 -0.1485
  448TIP3   OH222978   1.131   0.057   0.094 -0.0207 -0.0219  0.6522
  448TIP3    H122979   1.056   0.041   0.152  0.6592 -1.8662  1.0786
  448TIP3    H222980   1.091   0.088   0.013 -1.2422 -0.6739  0.9718
  449TIP3   OH222981   6.527   3.443   7.714 -0.0177 -0.0762 -0.2252
  449TIP3    H122982   6.476   3.518   7.685  0.4113  0.1265 -0.4703
  449TIP3    H222983   6.485   3.414   7.795 -0.0955  0.5184 -0.0502
  450TIP3   OH222984   4.080   5.953   7.957 -0.4886  0.1520  0.1022
  450TIP3    H122985   4.175   5.965   7.954 -0.2204 -1.8151 -0.4231
  450TIP3    H222986   4.059   5.907   7.876 -1.7993 -0.1343  0.5787
  451TIP3   OH222987   3.483   0.559   7.443  0.7428  0.5722 -0.2580
  451TIP3    H122988   3.415   0.625   7.449 -0.7575 -0.8574 -0.6931
  451TIP3    H222989   3.516   0.549   7.533 -0.5543  0.3728  0.2122
  452TIP3   OH222990   3.837   0.967   7.712 -0.9651  0.3428  0.1121
  452TIP3    H122991   3.929   0.941   7.704 -1.3616 -2.3083  2.4752
  452TIP3    H222992   3.841   1.055   7.749  0.6138  0.2403  0.2859
  453TIP3   OH222993   0.895   0.817   8.229 -0.4464  0.1873  0.0039
  453TIP3    H122994   0.847   0.752   8.178 -2.1197  1.6423 -0.4032
  453TIP3    H222995   0.918   0.885   8.165  1.6230 -0.1383  0.3341
  454TIP3   OH222996   3.645   4.909   1.196  0.1793  0.0009  0.2102
  454TIP3    H122997   3.663   4.990   1.148  0.4661  0.4453  1.0530
  454TIP3    H222998   3.576   4.867   1.146  0.7755  0.2368 -0.8409
  455TIP3   OH222999   2.141   0.056   6.451  0.6725 -0.0207  0.9047
  455TIP3    H123000   2.228   0.081   6.484  1.1323 -0.4603  0.0666
  455TIP3    H223001   2.108  -0.007   6.514  0.2285  1.3908  2.1358
  456TIP3   OH223002   1.677   4.294   0.421 -0.0713  0.3100 -0.4353
  456TIP3    H123003   1.707   4.204   0.431 -1.2347 -0.0907 -0.4020
  456TIP3    H223004   1.668   4.326   0.511 -1.0934 -0.0489 -0.3962
  457TIP3   OH223005   3.771   1.569   0.821  0.0856 -0.4724 -0.0777
  457TIP3    H123006   3.745   1.552   0.912  0.1989 -0.1524  0.0163
  457TIP3    H223007   3.714   1.641   0.793 -1.4412 -1.9500 -0.9577
  458TIP3   OH223008   1.975   4.632   2.136  0.4075 -0.1617 -0.1152
  458TIP3    H123009   1.895   4.679   2.113  0.4014 -1.0411 -2.0401
  458TIP3    H223010   1.950   4.581   2.214 -1.1943 -1.0776 -1.1692
  459TIP3   OH223011   0.223   0.134   0.135  0.4932 -0.7004 -0.2039
  459TIP3    H123012   0.307   0.167   0.103  1.8351 -2.4848  1.2396
  459TIP3    H223013   0.221   0.043   0.107 -1.4196 -0.4716 -0.9699
  460TIP3   OH223014   4.499   5.631   0.153 -0.2927  0.1181  0.6206
  460TIP3    H123015   4.515   5.614   0.246 -0.4122 -0.3145  0.5676
  460TIP3    H223016   4.581   5.607   0.110  0.2447  1.6284  0.7468
  461TIP3   OH223017   2.498   1.357   0.328 -0.1047  0.1812 -0.3619
  461TIP3    H123018   2.473   1.289   0.391  0.5872  0.3447  0.1043
  461TIP3    H223019   2.584   1.328   0.296  0.0229  0.6506 -0.4391
  462TIP3   OH223020   6.739   2.835   0.286 -0.1604 -0.1239  0.0412
  462TIP3    H123021   6.644   2.836   0.292 -0.1242 -0.4951  0.7192
  462TIP3    H223022   6.758   2.883   0.205 -0.9661 -0.8481 -0.6016
  463TIP3   OH223023   0.646   4.315   7.534  0.2964  0.1426 -0.4491
  463TIP3    H123024   0.695   4.366   7.470  3.5420  1.0368  2.4563
  463TIP3    H223025   0.661   4.224   7.509  0.5773  0.4786 -1.5579
  464TIP3   OH223026   2.738   5.247   7.649 -0.0483 -0.5528  0.7555
  464TIP3    H123027   2.771   5.333   7.673  0.6132 -1.0745  1.8032
  464TIP3    H223028   2.728   5.250   7.554  1.2169  0.2411  0.6316
  465TIP3   OH223029   4.027   5.588   7.971 -0.4628  0.6215 -0.7595
  465TIP3    H123030   4.088   5.541   7.914 -0.6630 -0.2547 -0.2625
  465TIP3    H223031   3.969   5.520   8.005  0.5487  0.8852  1.6414
  466TIP3   OH223032   5.753   1.678   8.640  0.2451  0.1695  0.0544
  466TIP3    H123033   5.707   1.599   8.668 -0.6333  0.6076 -0.1254
  466TIP3    H223034   5.731   1.743   8.707 -1.6151  1.1437 -1.4010
  467TIP3   OH223035   3.472   2.858   7.823 -0.7017  0.1160  0.3001
  467TIP3    H123036   3.403   2.845   7.888  0.3149  0.4598  1.4832
  467TIP3    H223037   3.487   2.770   7.788 -2.1360  0.1253 -0.4267
  468TIP3   OH223038   2.686   1.504   1.482  0.0331 -1.3110 -0.0449
  468TIP3    H123039   2.706   1.495   1.389  0.1545  0.2585 -0.1999
  468TIP3    H223040   2.770   1.524   1.523 -0.1167 -1.4233  0.3174
  469TIP3   OH223041   2.764   3.499   7.011 -0.3203 -0.0476  0.0423
  469TIP3    H123042   2.755   3.582   6.965  0.1839  0.3402  0.6298
  469TIP3    H223043   2.774   3.523   7.103 -0.4916 -0.7726  0.2608
  470TIP3   OH223044   6.852   6.107   7.776 -0.1901 -0.2787  0.2251
  470TIP3    H123045   6.942   6.137   7.785 -0.1941 -0.2772  0.2599
  470TIP3    H223046   6.855   6.040   7.707 -0.1649 -0.2686  0.2165
  471TIP3   OH223047   1.814   0.661   1.164  1.3191 -0.1816  0.3607
  471TIP3    H123048   1.745   0.615   1.115  0.6578  1.3210 -0.2000
  471TIP3    H223049   1.845   0.728   1.103  0.0350  2.1893  2.1571
  472TIP3   OH223050   2.786   4.897   0.253 -0.7045 -0.4836  0.0672
  472TIP3    H123051   2.797   4.951   0.331  1.3438 -0.1869 -0.3798
  472TIP3    H223052   2.849   4.826   0.263 -1.7370 -1.5149 -0.4524
  473TIP3   OH223053   5.628   4.344   7.208 -0.6188  0.3512  1.0278
  473TIP3    H123054   5.565   4.294   7.157  0.2295  1.1449 -0.9146
  473TIP3    H223055   5.575   4.404   7.260 -1.4942  0.8377 -0.3817
  474TIP3   OH223056   6.195   1.258   1.246  0.7657 -0.1420 -0.2863
  474TIP3    H123057   6.159   1.328   1.193  2.1415  0.0777 -0.9874
  474TIP3    H223058   6.128   1.190   1.247 -0.2713  0.8707 -0.2334
  475TIP3   OH223059   5.198   1.464   8.541 -0.2730 -0.1561 -0.2360
  475TIP3    H123060   5.243   1.512   8.472  0.1470  0.5168  0.4954
  475TIP3    H223061   5.229   1.503   8.622 -1.6905 -0.1011  0.3140
  476TIP3   OH223062   5.302   6.240   1.924 -0.4470 -0.2798 -0.1996
  476TIP3    H123063   5.207   6.230   1.925 -0.4284 -0.4880  1.4107
  476TIP3    H223064   5.331   6.205   2.008  0.6921  3.4445  1.1273
  477TIP3   OH223065   0.334   4.408   1.073 -0.0953  0.6272 -0.3149
  477TIP3    H123066   0.421   4.386   1.040 -0.2418 -0.5519  0.0357
  477TIP3    H223067   0.339   4.501   1.095  1.5461  0.2232  1.1697
  478TIP3   OH223068   3.700   1.360   6.947 -0.0352 -0.2102 -0.0182
  478TIP3    H123069   3.661   1.273   6.959 -0.0351 -0.0765  1.0843
  478TIP3    H223070   3.650   1.416   7.006  2.2255 -0.1748  2.0420
  479TIP3   OH223071   1.982   3.592   2.871  0.4457  0.4565  0.3270
  479TIP3    H123072   1.945   3.504   2.868  0.6296  0.2285  2.9048
  479TIP3    H223073   2.075   3.580   2.848  0.3785  0.0596  0.2563
  480TIP3   OH223074   1.576   6.787   1.156 -0.5457  0.3326 -0.2000
  480TIP3    H123075   1.490   6.799   1.117 -0.5509 -0.7350 -0.5412
  480TIP3    H223076   1.569   6.827   1.243 -1.6339 -0.4231  0.0809
  481TIP3   OH223077   3.643   2.130   6.505 -0.4906 -0.2364 -0.0078
  481TIP3    H123078   3.619   2.084   6.425 -0.6671  1.6294 -1.1052
  481TIP3    H223079   3.739   2.133   6.502 -0.4801 -0.5266  0.0581
  482TIP3   OH223080   5.622   4.027   7.924 -0.4278 -0.0434  0.3436
  482TIP3    H123081   5.606   3.946   7.971 -2.5112 -0.0546 -0.2526
  482TIP3    H223082   5.585   4.011   7.837 -1.4703  1.7327  0.4192
  483TIP3   OH223083   2.307   6.705   8.040 -0.1815  0.6896  0.8320
  483TIP3    H123084   2.273   6.794   8.043  0.1026  0.8177  0.1808
  483TIP3    H223085   2.333   6.691   7.949  0.2867  0.1337  1.0445
  484TIP3   OH223086   0.169   1.507   2.011 -0.2315 -0.1107  0.2235
  484TIP3    H123087   0.127   1.523   2.095  1.2731  0.5707  0.8769
  484TIP3    H223088   0.153   1.414   1.994 -1.3877 -0.0315  0.7686
  485TIP3   OH223089   3.004   0.688   1.542  0.4003 -0.3077  0.4183
  485TIP3    H123090   2.935   0.694   1.608  0.0812  1.1433 -0.0034
  485TIP3    H223091   3.009   0.776   1.505  0.0636 -1.2510 -2.0048
  486TIP3   OH223092   1.916   0.526   7.596 -0.5026  0.0563 -0.3720
  486TIP3    H123093   1.973   0.461   7.556  1.4591  1.0866  0.6044
  486TIP3    H223094   1.847   0.475   7.638 -0.2665 -1.2417 -1.4963
  487TIP3   OH223095   4.914   0.336   7.218  0.5217 -0.3561  0.2499
  487TIP3    H123096   4.969   0.390   7.161  0.2289  1.1919  1.3973
  487TIP3    H223097   4.825   0.366   7.201  0.4154  0.0031  1.3894
  488TIP3   OH223098   2.459   2.845   7.504 -0.4315 -0.4316  1.0329
  488TIP3    H123099   2.514   2.801   7.569 -1.3622 -1.8657  0.8706
  488TIP3    H223100   2.374   2.802   7.510 -1.6029  1.7395  1.2787
  489TIP3   OH223101   0.955   2.606   7.056  0.0212  0.0727  0.2512
  489TIP3    H123102   1.027   2.597   6.993  0.7168  0.9268  0.8921
  489TIP3    H223103   0.882   2.641   7.003 -0.3856 -2.0291 -0.6760
  490TIP3   OH223104   1.162   6.032   2.336  0.1339 -0.0889 -0.4959
  490TIP3    H123105   1.248   6.056   2.371  0.0646  0.1287 -0.4703
  490TIP3    H223106   1.126   6.115   2.303 -0.2456 -0.1000 -0.1141
  491TIP3   OH223107   1.458   2.836   7.498  0.4893 -0.3438  0.2757
  491TIP3    H123108   1.492   2.883   7.421 -1.2322  1.5321  0.5746
  491TIP3    H223109   1.516   2.761   7.507  0.1962 -1.2096 -3.4251
  492TIP3   OH223110   6.501   0.547   8.109  0.4107  0.5583 -0.2642
  492TIP3    H123111   6.553   0.493   8.169  0.3473  0.2591 -0.4807
  492TIP3    H223112   6.430   0.490   8.080 -0.2956  1.1017  0.3652
  493TIP3   OH223113   5.615   3.575   1.587 -0.0030  0.8684  0.3015
  493TIP3    H123114   5.677   3.588   1.658  0.4110 -0.9761  0.3427
  493TIP3    H223115   5.532   3.555   1.632  0.2622 -0.3108  0.2949
  494TIP3   OH223116   6.887   4.679   1.321 -0.2325  0.3348 -0.2701
  494TIP3    H123117   6.937   4.598   1.324 -2.1190 -0.8527  0.9505
  494TIP3    H223118   6.942   4.742   1.367 -0.8962 -1.6249  3.5889
  495TIP3   OH223119   2.856   3.100   0.555  0.1687 -0.0012  0.1203
  495TIP3    H123120   2.859   3.140   0.642  0.0956  0.0872  0.0834
  495TIP3    H223121   2.771   3.126   0.520  1.2327  2.2336 -1.0271
  496TIP3   OH223122   1.945   3.035   1.864  0.3944  0.2876 -0.1164
  496TIP3    H123123   1.916   3.104   1.923 -1.8029  0.2268 -1.0249
  496TIP3    H223124   1.981   3.081   1.788 -1.3583  0.5211 -0.8627
  497TIP3   OH223125   5.668   6.388   1.092  0.0257  0.5282  0.0718
  497TIP3    H123126   5.664   6.423   1.181  0.6939  1.0998 -0.1154
  497TIP3    H223127   5.757   6.406   1.063 -0.1195  0.1392 -0.6341
  498TIP3   OH223128   2.955   4.175   0.060 -0.0430 -0.2745 -0.0375
  498TIP3    H123129   3.016   4.159   0.132  1.9277 -1.1671 -1.8106
  498TIP3    H223130   2.959   4.269   0.045  0.1131 -0.1905  0.5216
  499TIP3   OH223131   2.759   2.545   0.909 -0.7615 -0.1798 -0.1013
  499TIP3    H123132   2.838   2.550   0.856 -1.3466  2.0624 -0.8810
  499TIP3    H223133   2.760   2.457   0.946  0.9559 -0.9563 -1.8372
  500TIP3   OH223134   1.288   4.202   1.089  0.7041  0.4442  0.4347
  500TIP3    H123135   1.216   4.241   1.039  0.0416 -0.5735  0.5651
  500TIP3    H223136   1.366   4.246   1.057  0.1841  0.5275 -0.7754
  501TIP3   OH223137   4.174   4.694   2.820  0.1034  0.1343 -0.0459
  501TIP3    H123138   4.108   4.764   2.823  0.8411  0.8046  1.4724
  501TIP3    H223139   4.224   4.713   2.740  1.1325  2.1890  1.0107
  502TIP3   OH223140   2.302   5.659   2.380 -0.1154 -0.0800 -0.0508
  502TIP3    H123141   2.276   5.664   2.288  0.4973 -1.4110 -0.3167
  502TIP3    H223142   2.220   5.652   2.428 -0.4350  0.5608 -0.4995
  503TIP3   OH223143   3.883   0.316   6.821  0.0723  0.1612 -0.3644
  503TIP3    H123144   3.921   0.380   6.761  0.4889 -0.5794 -0.9135
  503TIP3    H223145   3.831   0.258   6.765  0.7098 -0.7248 -0.0784
  504TIP3   OH223146   0.930   3.356   1.243 -0.1556  0.3232  0.4964
  504TIP3    H123147   0.851   3.369   1.295  0.4281 -0.1888  1.5624
  504TIP3    H223148   0.986   3.302   1.299  0.7153  0.1982 -0.4689
  505TIP3   OH223149   3.166   0.881   7.440  0.1769 -0.5566  0.6575
  505TIP3    H123150   3.178   0.897   7.534  0.0692  0.7256  0.4680
  505TIP3    H223151   3.072   0.891   7.426  0.2800 -0.0309  0.2998
  506TIP3   OH223152   6.467   1.016   1.448  0.1107 -0.3324  0.3341
  506TIP3    H123153   6.530   1.078   1.484 -2.1128  0.2411  3.7492
  506TIP3    H223154   6.502   0.930   1.471 -0.7252 -0.0022  3.3432
  507TIP3   OH223155   5.870   3.152   7.787  0.2220  0.4247  0.1562
  507TIP3    H123156   5.793   3.096   7.788  0.0058  0.7044 -0.5206
  507TIP3    H223157   5.844   3.228   7.735  0.9171  0.5714  0.0167
  508TIP3   OH223158   0.816   6.550   2.061 -0.2651 -0.5471  0.0814
  508TIP3    H123159   0.849   6.552   2.151  0.1394 -0.9248 -0.0585
  508TIP3    H223160   0.846   6.466   2.026  1.2537  0.4125 -1.0487
  509TIP3   OH223161   3.304   3.808   8.248 -0.1424 -0.3942 -0.4837
  509TIP3    H123162   3.247   3.735   8.223 -0.6393 -0.5188  0.9089
  509TIP3    H223163   3.300   3.869   8.173  0.5146 -1.8911 -1.7919
  510TIP3   OH223164   1.766   6.834   1.574 -0.2431 -0.2695  0.5028
  510TIP3    H123165   1.808   6.920   1.564  1.1593 -0.9803  0.0556
  510TIP3    H223166   1.721   6.839   1.658  0.9984  0.4412  1.1570
  511TIP3   OH223167   6.240   4.348   2.356 -0.2227 -0.4822 -0.1485
  511TIP3    H123168   6.153   4.388   2.346 -1.0390 -1.9923  0.4865
  511TIP3    H223169   6.222   4.254   2.364  1.4483 -0.7789  0.5120
  512TIP3   OH223170   3.127   5.304   1.925  0.1320 -0.4077  0.1081
  512TIP3    H123171   3.168   5.246   1.990  0.8262  1.1490  1.1225
  512TIP3    H223172   3.034   5.285   1.933  0.3242 -1.2409  0.5658
  513TIP3   OH223173   1.633   1.436   1.647 -0.0608 -0.3428  0.5341
  513TIP3    H123174   1.569   1.483   1.701 -1.9618 -1.9312 -0.2395
  513TIP3    H223175   1.648   1.354   1.693  1.4189 -0.0312  0.6610
  514TIP3   OH223176   6.400   3.220   6.715  0.1050  0.5987 -0.3428
  514TIP3    H123177   6.492   3.192   6.719  0.2345  0.6751 -2.0176
  514TIP3    H223178   6.364   3.174   6.639 -1.7356 -0.7568  1.2487
  515TIP3   OH223179   0.160   4.416   2.239  0.9112 -0.1585 -0.1039
  515TIP3    H123180   0.196   4.360   2.308  0.8829  2.1779  1.9428
  515TIP3    H223181   0.228   4.481   2.223 -0.1784  0.9685 -0.2947
  516TIP3   OH223182   5.390   3.417   0.936 -0.1957 -0.1191 -0.0462
  516TIP3    H123183   5.463   3.392   0.994 -0.9447  0.7134  1.3133
  516TIP3    H223184   5.433   3.458   0.860  0.7658  1.7096  1.3900
  517TIP3   OH223185   6.291   6.229   1.769 -0.2988  0.3395  0.7003
  517TIP3    H123186   6.314   6.322   1.771  0.9795  0.1063 -0.9204
  517TIP3    H223187   6.283   6.204   1.861  1.7178  1.4984  1.2345
  518TIP3   OH223188   4.096   0.257   0.427 -0.3108  0.1848 -0.0647
  518TIP3    H123189   4.030   0.221   0.486 -0.4131  2.1268  1.1022
  518TIP3    H223190   4.124   0.183   0.374 -2.1906 -1.0547  0.5655
  519TIP3   OH223191   2.972   0.699   0.573 -0.0029 -0.4100  0.1034
  519TIP3    H123192   2.981   0.606   0.594  1.4052 -0.4657 -0.6421
  519TIP3    H223193   3.057   0.724   0.536 -0.7451  0.8995 -0.7953
  520TIP3   OH223194   1.131   5.681   6.414 -0.5367  0.1559  0.2133
  520TIP3    H123195   1.207   5.624   6.403 -1.2869 -0.6062 -1.1763
  520TIP3    H223196   1.169   5.768   6.431  0.6147 -0.5597  1.5324
  521TIP3   OH223197   0.861   5.410   0.015 -0.1571  0.3778 -0.5938
  521TIP3    H123198   0.803   5.359   0.071  0.4775 -0.3167 -0.5608
  521TIP3    H223199   0.926   5.447   0.075  0.1253  0.1906 -0.7826
  522TIP3   OH223200   3.160   6.033   7.841  0.2496 -0.6753 -0.0032
  522TIP3    H123201   3.185   6.092   7.912  0.6423  2.0264 -2.2129
  522TIP3    H223202   3.065   6.041   7.834  0.1703 -1.2088  0.4130
  523TIP3   OH223203   6.295   2.280   1.501 -0.4784 -0.6434 -0.8742
  523TIP3    H123204   6.357   2.216   1.536 -0.2916  0.8081  1.6658
  523TIP3    H223205   6.217   2.229   1.481  0.7246 -2.1369 -2.0332
  524TIP3   OH223206   2.483   0.509   1.904 -0.2237  0.0367  0.3927
  524TIP3    H123207   2.542   0.562   1.957 -1.1368 -0.3650  1.8652
  524TIP3    H223208   2.474   0.427   1.952 -0.8005 -0.4902 -0.5749
  525TIP3   OH223209   0.703   3.436   0.215  0.0782 -0.0609  0.0295
  525TIP3    H123210   0.644   3.491   0.164  0.8398  1.7403  0.9645
  525TIP3    H223211   0.675   3.449   0.306 -1.7278 -3.7525  0.1866
  526TIP3   OH223212   1.215   6.833   7.173  0.2225 -0.1536  0.1206
  526TIP3    H123213   1.188   6.796   7.089 -2.1324 -1.3384  1.3121
  526TIP3    H223214   1.243   6.758   7.225 -0.7285  0.1879  1.1866
  527TIP3   OH223215   1.525   0.969   7.055  0.2207  0.0411 -0.3851
  527TIP3    H123216   1.594   0.904   7.071  0.6140  0.3709 -0.7357
  527TIP3    H223217   1.532   0.990   6.962 -1.2309 -0.9150 -0.7568
  528TIP3   OH223218   6.118   0.204   1.471  0.5839  0.4591  0.0250
  528TIP3    H123219   6.076   0.246   1.395  1.0788 -0.0532 -0.5427
  528TIP3    H223220   6.062   0.128   1.490  0.1694  0.8840  0.5043
  529TIP3   OH223221   6.340   2.490   8.351  0.2486  0.2825  0.3236
  529TIP3    H123222   6.373   2.569   8.307 -1.3396  0.3175 -0.9039
  529TIP3    H223223   6.406   2.424   8.332  0.7152  0.8695 -0.1692
  530TIP3   OH223224   2.962   1.779   0.990 -0.7258  0.1474  0.0835
  530TIP3    H123225   2.925   1.851   1.042 -1.5766 -0.9095  0.9873
  530TIP3    H223226   3.055   1.799   0.985 -1.0754  1.8523 -0.5817
  531TIP3   OH223227   2.505   0.958   6.546 -0.2673  0.1011  0.2156
  531TIP3    H123228   2.512   0.882   6.604 -1.1284 -1.0061 -1.0753
  531TIP3    H223229   2.584   0.953   6.492 -0.1742  0.3212  0.3280
  532TIP3   OH223230   2.870   5.706   8.584  0.3245 -0.6373  0.0301
  532TIP3    H123231   2.938   5.772   8.566  0.5471 -1.0201 -0.5568
  532TIP3    H223232   2.792   5.757   8.603  0.7883 -0.1834  0.7807
  533TIP3   OH223233   0.344   5.734   7.408  0.4123 -0.1424 -0.1067
  533TIP3    H123234   0.306   5.649   7.433 -0.6300  1.1391  3.1630
  533TIP3    H223235   0.426   5.739   7.458  0.7016  0.5733 -0.6477
  534TIP3   OH223236   0.411   2.982   0.333  0.1025  0.4832 -0.3823
  534TIP3    H123237   0.373   3.007   0.248  0.3944  1.1623 -0.3147
  534TIP3    H223238   0.342   2.930   0.375 -0.3988  0.9131 -0.6552
  535TIP3   OH223239   4.195   5.454   7.779 -0.3381  0.1975  0.1234
  535TIP3    H123240   4.285   5.463   7.749 -0.4746  1.0253 -0.0668
  535TIP3    H223241   4.202   5.404   7.861  0.1580 -0.8504 -0.5383
  536TIP3   OH223242   4.030   1.889   1.018  0.2329 -0.3721  0.5332
  536TIP3    H123243   4.000   1.928   0.936  0.5755 -1.0945  0.0619
  536TIP3    H223244   3.952   1.888   1.074 -0.4841 -1.6140 -0.4368
  537TIP3   OH223245   1.991   5.507   7.277  0.1259  0.3269 -0.3664
  537TIP3    H123246   1.982   5.546   7.364  2.4834  1.4109 -0.5119
  537TIP3    H223247   1.994   5.582   7.218 -0.1913 -0.3388 -1.2341
  538TIP3   OH223248   4.662   4.047   0.350 -0.6399  0.2493  0.0348
  538TIP3    H123249   4.596   4.009   0.292  0.0517 -0.7328 -0.1432
  538TIP3    H223250   4.732   3.982   0.351 -0.5194  0.3654  1.7722
  539TIP3   OH223251   5.044   3.110   7.420  0.0558  0.2344  0.0924
  539TIP3    H123252   5.032   3.188   7.473  1.0908 -0.4678  1.4391
  539TIP3    H223253   5.053   3.143   7.330 -2.1237  1.4205  0.2348
  540TIP3   OH223254   3.502   2.599   0.002 -0.2438  0.1532 -0.0446
  540TIP3    H123255   3.540   2.606   0.090 -2.3365  0.3602  0.8935
  540TIP3    H223256   3.491   2.690  -0.026  0.6676  0.0849 -0.6596
  541TIP3   OH223257   1.869   2.787   1.946  0.3513 -0.1784 -0.3945
  541TIP3    H123258   1.888   2.881   1.945  0.0148 -0.0907  0.6753
  541TIP3    H223259   1.864   2.763   1.853 -0.0641  0.9658 -0.6877
  542TIP3   OH223260   0.725   1.142   8.250  0.5445  0.2154  0.3350
  542TIP3    H123261   0.754   1.191   8.173  1.6228  0.8968  1.1612
  542TIP3    H223262   0.723   1.051   8.220  0.4865  0.5216 -0.6296
  543TIP3   OH223263   1.169   3.124   0.577  0.5155 -0.1021  1.0014
  543TIP3    H123264   1.119   3.050   0.611  1.8241 -1.2215  0.6023
  543TIP3    H223265   1.124   3.149   0.496  0.8830 -1.4319  0.3659
  544TIP3   OH223266   1.724   4.072   0.198 -0.1671  0.1917 -0.1086
  544TIP3    H123267   1.636   4.080   0.236 -0.3172 -1.0611 -0.1475
  544TIP3    H223268   1.756   3.987   0.229  0.7332  0.2957 -0.7086
  545TIP3   OH223269   0.640   4.269   0.073  0.1790 -0.2252  0.2125
  545TIP3    H123270   0.548   4.290   0.088 -0.3738 -2.6025  0.6630
  545TIP3    H223271   0.673   4.339   0.017 -1.7942  0.8859  0.3828
  546TIP3   OH223272   5.151   2.119   7.020 -0.6412 -0.1581 -0.1970
  546TIP3    H123273   5.066   2.115   6.977 -1.0950 -0.0626  0.6656
  546TIP3    H223274   5.202   2.049   6.980 -1.1458 -0.2506 -0.6822
  547TIP3   OH223275   1.585   1.527   8.231  0.3682 -0.0791  0.0221
  547TIP3    H123276   1.594   1.609   8.183  1.2854 -0.6609 -0.8633
  547TIP3    H223277   1.661   1.525   8.289  0.6059 -0.4981 -0.2945
  548TIP3   OH223278   3.798   2.398   2.258 -0.3875  0.0735  0.1784
  548TIP3    H123279   3.877   2.437   2.221 -0.3005  2.0670  2.2345
  548TIP3    H223280   3.728   2.425   2.198  0.2165 -0.0642 -0.6061
  549TIP3   OH223281   3.495   0.516   7.169  0.4769 -0.4582  0.3933
  549TIP3    H123282   3.522   0.537   7.259  1.1087 -0.4579  0.2062
  549TIP3    H223283   3.552   0.443   7.143  0.5083 -0.2539 -0.1209
  550TIP3   OH223284   4.088   1.107   1.374 -0.1233  0.2546 -0.1104
  550TIP3    H123285   4.078   1.012   1.384 -1.3212  0.2365 -1.1717
  550TIP3    H223286   4.005   1.143   1.405 -0.0731  0.8731 -0.6591
  551TIP3   OH223287   1.708   5.393   7.951  0.2027  0.0259  0.1593
  551TIP3    H123288   1.671   5.306   7.965  0.4460 -0.1746 -0.4376
  551TIP3    H223289   1.699   5.437   8.036 -0.8398 -0.2290  0.1862
  552TIP3   OH223290   4.819   6.599   8.114  0.0613 -0.1779 -0.6509
  552TIP3    H123291   4.915   6.597   8.106  0.1879  0.6044  0.5212
  552TIP3    H223292   4.795   6.690   8.097 -0.6050 -0.5798 -2.0144
  553TIP3   OH223293   1.133   1.243   2.482  0.1590  0.0096 -0.4110
  553TIP3    H123294   1.210   1.298   2.497  1.0913 -0.2844 -3.4583
  553TIP3    H223295   1.137   1.177   2.551  0.4847  2.1171  1.7355
  554TIP3   OH223296   1.545   4.086   6.159  0.2168 -0.3051  0.0725
  554TIP3    H123297   1.450   4.076   6.156  0.2606 -0.4843 -1.1923
  554TIP3    H223298   1.578   4.017   6.102  1.0077  1.0454 -1.1549
  555TIP3   OH223299   2.953   3.734   1.717  0.1396 -0.3936  0.0970
  555TIP3    H123300   2.945   3.810   1.776 -2.2433 -1.1562  0.8984
  555TIP3    H223301   3.025   3.683   1.753  1.2994  1.0716 -0.0189
  556TIP3   OH223302   1.161   0.103   7.591 -0.2550 -0.2117  0.6385
  556TIP3    H123303   1.195   0.014   7.578 -0.6812 -0.0729 -2.0579
  556TIP3    H223304   1.119   0.124   7.507 -0.3098  2.4714  1.2765
  557TIP3   OH223305   1.459   4.770   0.745  0.6656  0.0137  0.4971
  557TIP3    H123306   1.416   4.686   0.728  1.3728 -0.5665  1.4839
  557TIP3    H223307   1.552   4.749   0.744  0.9160  1.0628 -0.5957
  558TIP3   OH223308   0.133   0.485   6.750  0.4631  0.5639  0.2473
  558TIP3    H123309   0.084   0.556   6.710  0.9431  1.8752  1.8719
  558TIP3    H223310   0.225   0.509   6.737  0.6366  1.0254  2.0131
  559TIP3   OH223311   3.889   0.696   2.153 -0.2613 -0.4906  0.5082
  559TIP3    H123312   3.924   0.683   2.241  1.3736 -1.7810 -0.2802
  559TIP3    H223313   3.958   0.741   2.105 -1.4552  0.9479  0.0619
  560TIP3   OH223314   1.519   2.761   0.313 -0.2525  0.4719 -0.2016
  560TIP3    H123315   1.467   2.784   0.236 -0.1271  1.6514  0.0519
  560TIP3    H223316   1.509   2.836   0.372  0.5133  0.0503  0.4828
  561TIP3   OH223317   1.871   1.998   0.197 -0.0018  0.7316 -0.1310
  561TIP3    H123318   1.930   1.988   0.122 -0.4389  1.5259 -0.5955
  561TIP3    H223319   1.796   1.943   0.176 -0.0146  0.7577 -0.1527
  562TIP3   OH223320   0.240   4.722   6.690 -0.3601 -0.6111  0.2264
  562TIP3    H123321   0.248   4.817   6.700  0.8703 -0.5609 -1.0912
  562TIP3    H223322   0.214   4.692   6.777 -2.4598  1.0834  0.2731
  563TIP3   OH223323   6.373   1.165   8.313 -0.0153  0.1555 -0.0031
  563TIP3    H123324   6.461   1.143   8.283 -0.8901 -1.4554 -1.5680
  563TIP3    H223325   6.376   1.260   8.330  2.0036  0.1152  0.0442
  564TIP3   OH223326   6.641   6.801   2.256 -0.3683 -0.5405 -0.1141
  564TIP3    H123327   6.610   6.715   2.283 -0.3694  0.0931  2.1603
  564TIP3    H223328   6.563   6.857   2.262 -0.0392 -0.0857 -0.0224
  565TIP3   OH223329   6.640   1.218   0.296  0.2994  0.1319  0.3568
  565TIP3    H123330   6.630   1.154   0.226 -1.3718  0.0417  0.6391
  565TIP3    H223331   6.649   1.165   0.375  0.3268  0.2408  0.4264
  566TIP3   OH223332   4.072   3.146   1.200  0.2770 -0.1828 -0.1790
  566TIP3    H123333   3.987   3.111   1.173 -0.9493  1.2156  1.6033
  566TIP3    H223334   4.126   3.069   1.215 -0.5227 -1.0976 -1.7555
  567TIP3   OH223335   3.817   3.834   8.454  0.0827  0.2822  0.2247
  567TIP3    H123336   3.727   3.811   8.478 -0.4259  2.2267  0.4278
  567TIP3    H223337   3.831   3.791   8.370 -2.1483  2.2224 -1.2646
  568TIP3   OH223338   0.368   3.443   7.053  0.1720  0.0980  0.0799
  568TIP3    H123339   0.303   3.457   6.986 -0.4757 -0.3938  0.5903
  568TIP3    H223340   0.451   3.472   7.014 -0.0277 -1.0841 -1.2786
  569TIP3   OH223341   5.658   3.386   1.045 -0.1327 -0.1686 -0.0033
  569TIP3    H123342   5.639   3.401   1.137  1.2309  2.9980 -0.1224
  569TIP3    H223343   5.701   3.466   1.015 -3.0084  0.1944 -4.1214
  570TIP3   OH223344   4.826   4.640   1.132 -0.1121 -0.9240  0.1845
  570TIP3    H123345   4.911   4.678   1.156 -0.1463 -0.0780 -0.9153
  570TIP3    H223346   4.849   4.564   1.077 -0.0600 -1.0435  0.3718
  571TIP3   OH223347   3.745   5.077   7.896  0.0755 -0.0544 -0.4385
  571TIP3    H123348   3.653   5.049   7.889 -0.8388  2.7776 -0.8393
  571TIP3    H223349   3.742   5.154   7.953  2.1914  0.2670 -0.7045
  572TIP3   OH223350   6.218   6.618   1.754  0.9144  0.5318  0.5674
  572TIP3    H123351   6.263   6.636   1.671 -0.5273  0.4519 -0.2649
  572TIP3    H223352   6.185   6.703   1.782  1.0352  0.4857  0.8521
  573TIP3   OH223353   2.167   3.676   6.821  0.0588  0.3892  0.5584
  573TIP3    H123354   2.158   3.599   6.877  2.5561  0.0823  0.6251
  573TIP3    H223355   2.088   3.674   6.766 -0.7421 -1.2497  1.6828
  574TIP3   OH223356   5.950   3.104   1.705  0.4558  0.1231  0.2028
  574TIP3    H123357   6.041   3.108   1.677  0.8506  0.3250  1.4564
  574TIP3    H223358   5.915   3.191   1.688  1.1729  0.7741  1.8234
  575TIP3   OH223359   2.334   5.031   2.089 -0.2768  0.0264 -0.2091
  575TIP3    H123360   2.419   5.004   2.055  0.3600 -0.2070  1.4811
  575TIP3    H223361   2.273   4.964   2.058 -0.0555  0.6880 -2.2094
  576TIP3   OH223362   5.637   1.866   2.659  0.3722 -0.2290  0.0515
  576TIP3    H123363   5.702   1.929   2.627  2.6102 -1.1180  2.4549
  576TIP3    H223364   5.688   1.787   2.681 -1.9382 -1.9737 -0.4175
  577TIP3   OH223365   2.759   4.716   7.214  0.5673 -0.2395  0.0697
  577TIP3    H123366   2.793   4.801   7.188 -1.8994  1.2027  1.2089
  577TIP3    H223367   2.721   4.680   7.134  1.4397 -0.2024 -0.3697
  578TIP3   OH223368   4.617   5.647   0.742 -0.3327  0.9927 -0.3367
  578TIP3    H123369   4.624   5.643   0.837  0.5088 -0.6003 -0.4253
  578TIP3    H223370   4.686   5.708   0.715  0.7230 -0.0192 -0.0123
  579TIP3   OH223371   1.820   6.889   8.047  0.4309  0.4495 -0.3274
  579TIP3    H123372   1.764   6.904   8.124  0.9816 -0.0926  0.1856
  579TIP3    H223373   1.804   6.798   8.023  0.0641  0.6840 -1.0370
  580TIP3   OH223374   6.237   3.433   1.156 -0.1677 -0.3583 -0.0976
  580TIP3    H123375   6.184   3.491   1.100  0.4997 -1.9367 -2.5417
  580TIP3    H223376   6.182   3.356   1.169  0.2009 -0.5499  0.3117
  581TIP3   OH223377   4.170   6.459   1.821  0.1206  0.3800  0.3648
  581TIP3    H123378   4.250   6.425   1.861 -0.5213 -0.4216  1.0359
  581TIP3    H223379   4.134   6.385   1.772 -1.0687  0.1857  1.4655
  582TIP3   OH223380   4.623   0.557   7.871 -0.0911 -0.1057  0.7748
  582TIP3    H123381   4.597   0.644   7.901 -2.3546 -0.0989 -0.9440
  582TIP3    H223382   4.719   0.560   7.871 -0.0942  2.4776  0.5669
  583TIP3   OH223383   1.979   6.809   7.014  0.3333  0.0186  0.4827
  583TIP3    H123384   1.975   6.884   7.073  0.3211  1.1753 -0.9345
  583TIP3    H223385   2.046   6.832   6.950 -0.1922 -0.8475 -0.4132
  584TIP3   OH223386   1.689   2.681   8.486  0.1767 -0.4677 -0.9369
  584TIP3    H123387   1.739   2.761   8.471  0.2941 -0.2911  0.2718
  584TIP3    H223388   1.756   2.613   8.498  0.2669  0.0336  2.1706
  585TIP3   OH223389   6.035   2.409   0.067 -0.1800  0.5953 -0.7205
  585TIP3    H123390   6.015   2.497   0.100 -1.1329  0.4713 -0.9523
  585TIP3    H223391   6.040   2.420  -0.028  1.6732  0.7727 -0.6469
  586TIP3   OH223392   1.993   3.610   8.051 -0.3267  0.4266 -0.0645
  586TIP3    H123393   2.001   3.598   7.956 -1.1502  2.2341 -0.3888
  586TIP3    H223394   1.942   3.534   8.080  2.1792 -1.6047 -0.6060
  587TIP3   OH223395   5.290   3.335   1.586 -0.0308  0.3817  0.0985
  587TIP3    H123396   5.221   3.380   1.539 -1.2914  0.8425  2.2636
  587TIP3    H223397   5.247   3.258   1.624  1.2452 -0.6895 -0.5490
  588TIP3   OH223398   1.573   5.698   7.956 -0.0051 -0.1463  0.1598
  588TIP3    H123399   1.600   5.649   7.878 -0.8759 -2.0769  1.0024
  588TIP3    H223400   1.482   5.670   7.970 -1.5837  3.7998 -0.8599
  589TIP3   OH223401   0.663   5.505   0.571  0.5643 -0.2136  0.5065
  589TIP3    H123402   0.738   5.447   0.559  2.6855  2.4639 -0.3216
  589TIP3    H223403   0.679   5.548   0.655  0.0512  0.5196  0.2406
  590TIP3   OH223404   5.119   5.584   0.528 -0.2566 -0.1944  0.7450
  590TIP3    H123405   5.151   5.674   0.541  2.0233 -1.2138  2.9733
  590TIP3    H223406   5.081   5.560   0.613 -0.2392 -1.5486  0.3871
  591TIP3   OH223407   5.543   2.669   2.482 -0.3164  0.3272  0.1244
  591TIP3    H123408   5.499   2.673   2.567  1.4639  1.2068  1.0618
  591TIP3    H223409   5.540   2.758   2.448  0.0944  0.2480 -0.1381
  592TIP3   OH223410   6.144   6.019   1.391 -0.4603 -0.1060  0.3438
  592TIP3    H123411   6.104   5.974   1.316 -2.1376 -1.3174  1.8760
  592TIP3    H223412   6.072   6.063   1.435  0.4028  0.2193  1.5009
  593TIP3   OH223413   6.503   2.233   2.349  0.5542 -0.0967 -0.0852
  593TIP3    H123414   6.555   2.312   2.364  1.9226 -0.7398 -1.2181
  593TIP3    H223415   6.547   2.166   2.401 -0.4547 -0.1863  0.6702
  594TIP3   OH223416   5.265   1.611   6.567  0.9398  0.0896  0.0733
  594TIP3    H123417   5.328   1.545   6.537 -1.7564 -1.5516 -2.5485
  594TIP3    H223418   5.265   1.678   6.499 -0.3859 -0.1666 -0.2097
  595TIP3   OH223419   6.346   0.019   8.171 -0.9064 -0.6497 -0.5877
  595TIP3    H123420   6.388  -0.026   8.244 -1.0537  3.9705  2.7945
  595TIP3    H223421   6.257  -0.017   8.168 -0.2392 -2.4287  0.0427
  596TIP3   OH223422   6.722   5.922   7.423 -0.1577  0.0654 -0.5987
  596TIP3    H123423   6.747   5.969   7.344 -0.9098 -0.4082 -1.1323
  596TIP3    H223424   6.676   5.844   7.392 -3.5997  1.5512  0.2708
  597TIP3   OH223425   2.976   6.722   7.294 -0.3104 -0.1360 -0.1729
  597TIP3    H123426   2.906   6.691   7.236 -1.5619  2.5894 -0.2819
  597TIP3    H223427   2.930   6.759   7.369  0.9517  1.9345 -0.3499
  598TIP3   OH223428   3.929   3.502   7.233  0.2429  0.3936 -0.2780
  598TIP3    H123429   3.918   3.414   7.267 -1.6800  0.9734  0.7706
  598TIP3    H223430   4.009   3.499   7.181  1.1198 -1.5231  1.1105
  599TIP3   OH223431   2.148   5.110   0.943  0.0593 -0.3077 -0.8855
  599TIP3    H123432   2.073   5.168   0.953 -1.1485 -2.1341  2.5957
  599TIP3    H223433   2.151   5.090   0.850 -2.3373  1.6280 -1.4884
  600TIP3   OH223434   4.869   3.595   8.319 -0.3006 -0.1159  0.3477
  600TIP3    H123435   4.849   3.511   8.360 -0.3169  0.6038  1.8860
  600TIP3    H223436   4.899   3.650   8.391  1.9394  0.5255 -0.9968
  601TIP3   OH223437   0.359   6.655   8.643  0.4678 -0.4496 -0.2734
  601TIP3    H123438   0.434   6.606   8.676  0.4984  0.6676  1.4409
  601TIP3    H223439   0.395   6.739   8.616 -0.0974 -0.0391  0.2257
  602TIP3   OH223440   1.844   3.149   6.965 -0.2213 -0.3737 -0.3303
  602TIP3    H123441   1.869   3.170   7.055  0.2323 -1.3959 -0.1967
  602TIP3    H223442   1.816   3.232   6.927  0.3125  0.2080  0.5230
  603TIP3   OH223443   0.509   5.350   7.737 -0.1383  0.1966  0.5684
  603TIP3    H123444   0.491   5.262   7.704  2.3333 -0.8161  1.6823
  603TIP3    H223445   0.592   5.375   7.696 -0.6948  1.9734  0.4228
  604TIP3   OH223446   6.504   4.096   8.031  0.1859  0.1307  0.5252
  604TIP3    H123447   6.585   4.107   7.981  0.4019  1.6893  1.1694
  604TIP3    H223448   6.532   4.056   8.113  0.4151  1.2682  1.0145
  605TIP3   OH223449   3.675   5.008   0.015  0.0545  0.4418  0.1934
  605TIP3    H123450   3.752   4.980  -0.034  0.2558  0.5269  0.4582
  605TIP3    H223451   3.667   5.101  -0.003  1.3296  0.9345  1.9175
  606TIP3   OH223452   1.506   4.704   1.125  0.3211 -0.3134 -0.5885
  606TIP3    H123453   1.539   4.615   1.123  1.3854  0.0706 -1.6362
  606TIP3    H223454   1.521   4.734   1.214  0.3544 -1.0376 -0.3470
  607TIP3   OH223455   5.468   3.151   8.353 -0.2690  0.2361  0.4467
  607TIP3    H123456   5.513   3.121   8.273  0.0600  0.4610  0.5458
  607TIP3    H223457   5.397   3.206   8.321 -0.2740  0.1477  0.3014
  608TIP3   OH223458   5.272   6.212   7.258 -0.2119 -0.3190  0.2467
  608TIP3    H123459   5.331   6.168   7.319 -0.0165 -0.0493  0.2521
  608TIP3    H223460   5.189   6.220   7.306  0.1078  0.4097  0.6910
  609TIP3   OH223461   3.628   2.437   2.061  0.3324  0.1789  0.2878
  609TIP3    H123462   3.606   2.498   1.991 -0.5448  0.6895  0.9930
  609TIP3    H223463   3.571   2.362   2.045  0.6287 -0.0029  0.0622
  610TIP3   OH223464   5.061   4.619   0.047  0.4229 -0.1866 -0.2978
  610TIP3    H123465   5.063   4.603   0.142  0.7592 -0.6003 -0.3704
  610TIP3    H223466   5.143   4.664   0.028 -0.1485  0.9317 -0.2269
  611TIP3   OH223467   6.586   2.681   1.214 -0.1220 -0.2209 -0.1086
  611TIP3    H123468   6.574   2.597   1.259  1.0402 -0.2397  0.2042
  611TIP3    H223469   6.639   2.658   1.137  0.6450  0.2952  0.2581
  612TIP3   OH223470   3.556   2.895   1.991 -0.3245 -0.0112  0.9233
  612TIP3    H123471   3.544   2.854   2.077 -0.2773 -1.9025  0.0833
  612TIP3    H223472   3.483   2.862   1.939  1.3267 -1.4215 -0.6161
  613TIP3   OH223473   5.456   2.347   6.504 -0.1297 -0.0396 -0.4831
  613TIP3    H123474   5.539   2.374   6.465 -0.0432  0.0760 -0.2219
  613TIP3    H223475   5.481   2.306   6.587 -0.2919 -0.5196 -0.6680
  614TIP3   OH223476   4.064   6.893   8.231  0.4200  0.9128  0.0682
  614TIP3    H123477   4.018   6.848   8.160 -1.0254  2.2917  0.0995
  614TIP3    H223478   4.141   6.837   8.248 -0.1306 -0.3578 -1.3700
  615TIP3   OH223479   3.538   5.473   1.105 -0.5996  0.2477 -0.1565
  615TIP3    H123480   3.496   5.542   1.156  0.9595  0.6444  0.6484
  615TIP3    H223481   3.576   5.518   1.030  0.4898  0.3162  0.4106
  616TIP3   OH223482   6.313   6.140   7.342  0.0648 -0.1313 -0.6501
  616TIP3    H123483   6.249   6.146   7.271  1.0456 -0.1203 -1.5595
  616TIP3    H223484   6.323   6.046   7.358 -1.1288 -0.1058  0.4076
  617TIP3   OH223485   0.393   2.445   0.974  0.1624  1.2335  0.2389
  617TIP3    H123486   0.340   2.385   0.922  0.0871 -0.7421  2.4160
  617TIP3    H223487   0.424   2.510   0.912  0.3606 -1.1238 -2.3111
  618TIP3   OH223488   3.130   1.062   0.435 -0.2240  0.3453 -0.4557
  618TIP3    H123489   3.071   1.079   0.509 -0.7775 -2.1527 -0.2377
  618TIP3    H223490   3.217   1.077   0.470 -0.5863  2.3585 -0.2765
  619TIP3   OH223491   5.029   3.004   8.501 -0.3889 -0.4179 -0.3750
  619TIP3    H123492   5.024   2.993   8.406 -0.7133 -0.5655 -0.3421
  619TIP3    H223493   4.938   3.005   8.530 -0.3145  0.5060 -0.1613
  620TIP3   OH223494   2.236   3.667   8.394 -0.4804  0.3582  0.0728
  620TIP3    H123495   2.310   3.624   8.438 -0.9782 -1.5511 -0.8525
  620TIP3    H223496   2.163   3.659   8.456 -0.8641 -1.2286 -0.5331
  621TIP3   OH223497   4.116   4.974   0.016 -0.0375  0.0064 -0.0969
  621TIP3    H123498   4.180   5.045   0.014 -0.5928  0.5072 -0.5064
  621TIP3    H223499   4.055   4.999   0.085 -0.4045  0.0857 -0.4468
  622TIP3   OH223500   3.538   4.423   6.201  1.0856  0.6121 -0.2886
  622TIP3    H123501   3.503   4.388   6.283  1.7082  0.6132 -0.0178
  622TIP3    H223502   3.485   4.381   6.133 -0.8418  2.1678  0.1530
  623TIP3   OH223503   2.002   3.441   1.993  0.1285  0.4726 -0.4254
  623TIP3    H123504   2.043   3.374   2.049  1.5147 -0.2271 -2.1682
  623TIP3    H223505   1.911   3.444   2.023  0.9137  0.5872  2.2385
  624TIP3   OH223506   3.415   5.125   0.147  0.2587  0.1211 -0.2732
  624TIP3    H123507   3.450   5.161   0.066  0.6809  1.8017  0.6063
  624TIP3    H223508   3.396   5.202   0.201 -3.7668 -0.6906 -0.2269
  625TIP3   OH223509   5.240   1.840   1.011  0.0119  0.8549  0.1881
  625TIP3    H123510   5.163   1.893   1.031 -1.3450 -0.3092 -1.6288
  625TIP3    H223511   5.212   1.750   1.025  0.9412  0.3849 -0.7636
  626TIP3   OH223512   1.528   4.548   7.400  0.6650 -0.8779 -0.0409
  626TIP3    H123513   1.601   4.544   7.462  1.8043 -0.8487 -1.3476
  626TIP3    H223514   1.505   4.640   7.397  0.5616 -0.8853  0.3649
  627TIP3   OH223515   0.503   3.512   6.703 -0.4332  0.3064  0.2800
  627TIP3    H123516   0.416   3.545   6.680 -0.2419  0.9975  0.5230
  627TIP3    H223517   0.561   3.545   6.634 -0.4417 -0.5892 -0.1678
  628TIP3   OH223518   0.505   2.212   1.772  0.1022 -0.2226  0.6519
  628TIP3    H123519   0.432   2.162   1.809 -0.0800 -0.8491 -0.5106
  628TIP3    H223520   0.566   2.146   1.739  0.3050  0.3034 -0.0621
  629TIP3   OH223521   5.422   3.041   7.379 -0.1221 -0.2435  0.7993
  629TIP3    H123522   5.390   3.130   7.388  0.2064  0.2119 -1.6362
  629TIP3    H223523   5.507   3.041   7.423 -0.9468  0.0650  2.4748
  630TIP3   OH223524   1.384   6.226   0.905 -0.6302 -0.5418 -0.3499
  630TIP3    H123525   1.457   6.233   0.967  1.1034  1.7690 -2.4285
  630TIP3    H223526   1.327   6.299   0.928 -0.6487 -0.4534 -0.6768
  631TIP3   OH223527   3.328   6.009   7.284  0.4336  0.1435  0.6381
  631TIP3    H123528   3.362   5.923   7.259 -1.1582  0.1242 -1.9229
  631TIP3    H223529   3.406   6.061   7.304  1.9756 -0.4974 -2.8184
  632TIP3   OH223530   3.150   6.509   1.842 -0.3113 -0.0351  0.3277
  632TIP3    H123531   3.214   6.513   1.771 -0.7105  2.4475 -0.0096
  632TIP3    H223532   3.075   6.463   1.805 -0.1662  0.4355 -0.5724
  633TIP3   OH223533   2.544   2.810   7.856  0.1912  0.2591  0.0648
  633TIP3    H123534   2.490   2.731   7.845  0.6072  0.0264 -0.3358
  633TIP3    H223535   2.626   2.789   7.812  0.5134  0.7109  0.4395
  634TIP3   OH223536   1.858   4.593   7.344  0.1520 -0.0837  0.0230
  634TIP3    H123537   1.881   4.686   7.344 -1.0892  0.2526 -1.0618
  634TIP3    H223538   1.860   4.568   7.436  0.3791  1.0512  0.3426
  635TIP3   OH223539   4.201   3.344   8.080 -0.1080  0.0388 -0.0158
  635TIP3    H123540   4.156   3.363   7.998 -1.1373 -0.0427  0.5259
  635TIP3    H223541   4.184   3.252   8.096 -0.5772  0.2518  0.7047
  636TIP3   OH223542   2.391   0.393   6.218  0.0176 -0.4655  0.0523
  636TIP3    H123543   2.457   0.460   6.231  0.5015 -0.6829 -1.0967
  636TIP3    H223544   2.317   0.420   6.272  0.4558  0.6266  0.1238
  637TIP3   OH223545   5.568   0.191   7.453 -0.0805 -0.1723 -0.3201
  637TIP3    H123546   5.607   0.216   7.537  0.8036 -0.5386 -0.6113
  637TIP3    H223547   5.583   0.097   7.446 -1.0034 -0.3213 -0.4599
  638TIP3   OH223548   5.257   6.423   2.324 -0.5073 -0.0041 -0.1854
  638TIP3    H123549   5.228   6.332   2.330 -0.1080 -0.0496  2.3411
  638TIP3    H223550   5.183   6.474   2.358 -0.8943  0.6825 -1.9894
  639TIP3   OH223551   3.326   3.707   0.552 -0.2895  0.0457  0.4156
  639TIP3    H123552   3.308   3.671   0.466 -3.2433  0.3009  0.8194
  639TIP3    H223553   3.363   3.634   0.601 -1.9541 -1.2122 -0.0869
  640TIP3   OH223554   0.157   0.124   7.205 -0.1972 -0.0142 -0.0030
  640TIP3    H123555   0.161   0.213   7.172  0.3756 -0.5976 -1.6183
  640TIP3    H223556   0.140   0.070   7.127 -0.0570 -1.3519  0.8506
  641TIP3   OH223557   2.561   2.596   6.469 -0.2172 -0.1952  0.5522
  641TIP3    H123558   2.621   2.618   6.397 -1.1108 -2.9477 -1.2357
  641TIP3    H223559   2.526   2.680   6.498  1.0385  1.1393 -1.5052
  642TIP3   OH223560   0.801   4.496   0.020  0.3612 -0.0424 -0.3759
  642TIP3    H123561   0.741   4.565   0.044 -1.9335 -1.2664 -2.1398
  642TIP3    H223562   0.875   4.505   0.080 -0.4850  2.9899  0.3504
  643TIP3   OH223563   3.690   0.349   7.546 -0.0476 -0.0227  0.0408
  643TIP3    H123564   3.635   0.416   7.585 -0.6286 -0.6411  0.3103
  643TIP3    H223565   3.778   0.387   7.545 -0.7421  1.7612 -2.1418
  644TIP3   OH223566   2.344   1.305   6.635 -0.2475 -0.8247  0.5269
  644TIP3    H123567   2.273   1.360   6.602  0.5736  0.9858  1.5869
  644TIP3    H223568   2.322   1.291   6.727  0.8497 -0.0494  0.9252
  645TIP3   OH223569   5.798   6.317   0.378  0.1054 -0.0335  0.0336
  645TIP3    H123570   5.877   6.278   0.415  0.1214 -0.0298  0.0030
  645TIP3    H223571   5.747   6.344   0.454  1.4256  2.6263  0.1078
  646TIP3   OH223572   6.547   3.020   8.445  0.2054  0.2056 -0.6381
  646TIP3    H123573   6.607   3.091   8.467  0.0354  0.2127 -0.1863
  646TIP3    H223574   6.520   2.984   8.530  0.5630 -0.6258 -0.8701
  647TIP3   OH223575   4.460   6.623   7.240  0.0987 -0.0115 -0.5280
  647TIP3    H123576   4.419   6.623   7.153 -1.1658  0.2016  0.0475
  647TIP3    H223577   4.424   6.700   7.283  2.8242  1.5072 -0.7441
  648TIP3   OH223578   6.216   5.209   0.217  0.0465 -0.1586  0.2603
  648TIP3    H123579   6.247   5.218   0.308  0.5302 -0.9998  0.1947
  648TIP3    H223580   6.295   5.192   0.167 -0.2771 -0.1714 -0.2489
  649TIP3   OH223581   0.421   0.471   6.709  0.4005 -0.4973  0.4964
  649TIP3    H123582   0.402   0.439   6.621  0.4755 -0.6045  0.5189
  649TIP3    H223583   0.436   0.391   6.760  1.3501 -0.4008  0.3796
  650TIP3   OH223584   2.273   3.652   2.283 -0.3404 -0.4508 -0.0395
  650TIP3    H123585   2.304   3.703   2.358  0.5590  2.2022 -2.0783
  650TIP3    H223586   2.331   3.576   2.281  2.2356  1.3856 -0.2430
  651TIP3   OH223587   6.116   3.984   2.548  0.1321 -0.1470  0.0200
  651TIP3    H123588   6.148   4.007   2.635  0.2197 -1.0558  0.2343
  651TIP3    H223589   6.180   3.920   2.515 -1.4492 -2.0286  0.4685
  652TIP3   OH223590   6.146   2.055   0.217 -0.1462 -0.4225  0.1346
  652TIP3    H123591   6.137   2.081   0.308  2.2994  0.2838  0.2403
  652TIP3    H223592   6.091   1.977   0.208 -0.0761 -0.7644  2.3319
  653TIP3   OH223593   3.637   4.546   7.057  0.1396  0.0040 -0.1832
  653TIP3    H123594   3.667   4.466   7.013  2.9178 -0.0999  1.6291
  653TIP3    H223595   3.667   4.617   7.001  1.1629 -0.1897  0.0918
  654TIP3   OH223596   4.653   6.705   1.406  0.2107  0.2790 -0.0019
  654TIP3    H123597   4.700   6.735   1.484  0.9569 -2.0722  0.5055
  654TIP3    H223598   4.564   6.687   1.436 -0.0483  1.2310 -0.1591
  655TIP3   OH223599   1.309   0.924   8.024  0.4820 -0.3597 -0.2889
  655TIP3    H123600   1.361   0.944   8.103  0.7794  0.4993 -0.6863
  655TIP3    H223601   1.218   0.938   8.051  0.2912 -3.1791  0.8013
  656TIP3   OH223602   6.056   3.143   7.142  0.0427  0.1847  0.0660
  656TIP3    H123603   5.965   3.115   7.157 -0.2019  0.9013 -0.0662
  656TIP3    H223604   6.107   3.062   7.147 -0.8642 -0.5952 -2.2434
  657TIP3   OH223605   5.153   0.004   7.427 -0.6186 -0.2186  0.3101
  657TIP3    H123606   5.119  -0.081   7.400 -1.3034 -0.5454  2.0610
  657TIP3    H223607   5.076   0.055   7.452 -0.1762  0.7447 -0.2038
  658TIP3   OH223608   5.744   2.252   0.429 -0.1551 -0.0773  0.1805
  658TIP3    H123609   5.669   2.198   0.406 -0.2976  0.3716 -0.4597
  658TIP3    H223610   5.779   2.213   0.509 -1.3434 -0.0180  0.7445
  659TIP3   OH223611   1.140   5.114   7.291 -0.5647 -0.3348  0.5283
  659TIP3    H123612   1.175   5.195   7.328 -0.8766  0.5884 -1.0560
  659TIP3    H223613   1.215   5.055   7.287 -0.2599 -0.0251  1.4174
  660TIP3   OH223614   6.498   5.037   1.466  0.0341 -0.1787 -0.5942
  660TIP3    H123615   6.505   4.946   1.436  0.2591 -0.6691  0.8990
  660TIP3    H223616   6.417   5.039   1.516  0.0307  0.4483 -0.6265
  661TIP3   OH223617   2.844   5.561   8.056  0.1969 -0.3787 -0.4161
  661TIP3    H123618   2.751   5.536   8.052 -0.4245  1.8613 -1.6866
  661TIP3    H223619   2.865   5.557   8.150 -2.4601  3.0015  0.5345
  662TIP3   OH223620   5.613   1.214   1.903  0.0401  0.5769 -0.2775
  662TIP3    H123621   5.704   1.237   1.922  0.2571 -0.2520 -0.2966
  662TIP3    H223622   5.587   1.157   1.975 -0.5155  0.9097 -0.2039
  663TIP3   OH223623   1.055   4.327   1.643 -0.0220  0.4483  0.1538
  663TIP3    H123624   1.109   4.249   1.656 -2.2528 -1.0224  1.2161
  663TIP3    H223625   1.023   4.319   1.553  0.1290  0.3992  0.1032
  664TIP3   OH223626   3.113   1.381   8.541 -0.2770  0.2725  0.5439
  664TIP3    H123627   3.030   1.388   8.495 -0.8847  0.0743  1.5761
  664TIP3    H223628   3.154   1.302   8.507  0.6210  1.6252 -1.7161
  665TIP3   OH223629   2.834   2.860   7.102  0.2148 -0.6054  0.7226
  665TIP3    H123630   2.814   2.931   7.041 -0.9417 -1.1879  0.4052
  665TIP3    H223631   2.859   2.905   7.183 -1.1431  0.1910  0.7393
  666TIP3   OH223632   2.443   0.031   1.553 -0.4475  0.4079 -0.2286
  666TIP3    H123633   2.536   0.021   1.536 -0.6038 -0.6604 -0.5305
  666TIP3    H223634   2.415   0.101   1.493  0.2741  1.2020  0.3425
  667TIP3   OH223635   6.481   1.643   6.852 -0.0780  0.4085 -0.6151
  667TIP3    H123636   6.530   1.590   6.915 -0.4982 -0.5198 -1.0546
  667TIP3    H223637   6.538   1.647   6.775  0.1004  0.8916 -0.4608
  668TIP3   OH223638   4.842   4.196   7.312  0.8404  0.0988 -0.2036
  668TIP3    H123639   4.833   4.246   7.393  0.5664  1.3838 -0.9880
  668TIP3    H223640   4.873   4.260   7.248  1.1544 -0.9090 -1.0921
  669TIP3   OH223641   5.043   0.991   0.954  0.2057 -0.0623 -0.1849
  669TIP3    H123642   4.966   0.983   1.010 -0.3718  0.5064 -0.8750
  669TIP3    H223643   5.032   0.923   0.888 -0.1809  0.5859 -0.8103
  670TIP3   OH223644   1.528   0.747   0.589  0.5492  0.5524 -0.1837
  670TIP3    H123645   1.576   0.735   0.507  0.5052  2.3410 -0.5021
  670TIP3    H223646   1.584   0.707   0.656  0.8741 -0.3693 -0.9810
  671TIP3   OH223647   0.155   2.650   7.911 -0.5703 -0.1612  0.2515
  671TIP3    H123648   0.162   2.665   8.005 -0.5491  0.9809  0.0769
  671TIP3    H223649   0.098   2.720   7.879  1.0217  0.6905 -0.8887
  672TIP3   OH223650   6.845   4.573   0.689  0.2079 -0.0930  0.1810
  672TIP3    H123651   6.913   4.526   0.641  0.0883 -0.3689  0.2811
  672TIP3    H223652   6.817   4.512   0.758 -1.0049 -0.4947 -0.6207
  673TIP3   OH223653   6.299   5.919   7.771  0.3216  0.3907 -0.0909
  673TIP3    H123654   6.383   5.964   7.782 -0.3098  1.5979 -0.0206
  673TIP3    H223655   6.259   5.923   7.858 -0.5286  1.3418 -0.5119
  674TIP3   OH223656   5.190   3.020   0.129 -0.6479  0.0773 -0.1643
  674TIP3    H123657   5.103   2.992   0.100 -0.0448 -1.3874 -0.6418
  674TIP3    H223658   5.233   3.048   0.048 -0.7715  1.1134  0.1184
  675TIP3   OH223659   3.074   6.240   1.484 -0.6277 -0.1083 -0.5496
  675TIP3    H123660   3.064   6.153   1.445 -2.6658 -0.7106  1.1489
  675TIP3    H223661   3.154   6.234   1.535  0.1502 -0.4215 -1.7521
  676TIP3   OH223662   1.481   1.946   7.839 -0.7891 -0.0112 -0.0081
  676TIP3    H123663   1.387   1.959   7.849 -0.7556 -0.0533  0.3438
  676TIP3    H223664   1.516   2.034   7.827 -0.7859  0.0655  0.5651
  677TIP3   OH223665   2.114   6.853   1.335  0.5347  0.0636  0.1271
  677TIP3    H123666   2.143   6.791   1.402  0.0662  0.5105  0.7623
  677TIP3    H223667   2.155   6.936   1.359  0.0954  0.3060  0.0555
  678TIP3   OH223668   5.733   6.258   7.517  0.2682 -0.7547 -0.1703
  678TIP3    H123669   5.793   6.320   7.558  1.3819 -0.3820 -2.2110
  678TIP3    H223670   5.788   6.209   7.455 -0.7477 -3.2093  0.7535
  679TIP3   OH223671   5.343   0.422   8.153 -0.0796  0.1516  0.7728
  679TIP3    H123672   5.311   0.332   8.154  0.1235  0.0431 -0.8527
  679TIP3    H223673   5.417   0.421   8.092 -0.4887  1.5587  0.2309
  680TIP3   OH223674   1.904   3.896   8.111 -0.2442  0.4597  0.0953
  680TIP3    H123675   1.947   3.812   8.094 -0.0950  0.5973 -0.2232
  680TIP3    H223676   1.963   3.961   8.074  0.7168  0.8966  2.2851
  681TIP3   OH223677   2.443   3.666   7.303 -0.1003  0.5490 -0.1271
  681TIP3    H123678   2.371   3.606   7.326 -0.0218  1.1668  1.8919
  681TIP3    H223679   2.441   3.669   7.208 -0.6650 -1.9852 -0.2686
  682TIP3   OH223680   1.050   4.200   1.937 -0.8181 -0.2474 -0.4598
  682TIP3    H123681   1.082   4.160   2.017 -0.8706  1.3164  0.3758
  682TIP3    H223682   0.955   4.196   1.944 -0.8244 -0.2620 -0.5407
  683TIP3   OH223683   6.191   6.890   1.866  0.0270 -0.4458  0.1026
  683TIP3    H123684   6.247   6.909   1.941  0.4024  0.6070 -0.4278
  683TIP3    H223685   6.249   6.899   1.790 -0.4381 -1.1308 -0.3459
  684TIP3   OH223686   1.216   4.429   0.429 -0.3161  0.6646  0.4365
  684TIP3    H123687   1.242   4.518   0.402  0.4825  0.5729  0.8768
  684TIP3    H223688   1.230   4.428   0.523 -1.0395  0.3011  0.5400
  685TIP3   OH223689   1.306   2.887   1.205  0.8169  0.4961 -0.6990
  685TIP3    H123690   1.282   2.978   1.187 -0.8095  0.0948 -0.7355
  685TIP3    H223691   1.331   2.887   1.298  0.5928  0.9582 -0.6361
  686TIP3   OH223692   0.521   0.497   1.679  0.4871  0.2476 -0.9173
  686TIP3    H123693   0.476   0.511   1.596 -0.2526  0.1897 -0.5392
  686TIP3    H223694   0.593   0.438   1.658  0.2989  0.2288 -1.5171
  687TIP3   OH223695   0.415   0.699   7.593 -0.0242 -0.6805 -0.3982
  687TIP3    H123696   0.349   0.657   7.538  0.2591  0.1519 -1.4017
  687TIP3    H223697   0.400   0.793   7.582  1.1734 -0.4816 -0.4679
  688TIP3   OH223698   5.684   0.456   1.822  0.3344 -0.1577 -0.2722
  688TIP3    H123699   5.732   0.422   1.747 -0.0419 -0.6611 -0.2878
  688TIP3    H223700   5.593   0.462   1.792  0.1690 -0.4194  0.1583
  689TIP3   OH223701   4.550   0.587   8.221  0.2800  0.3537 -0.1028
  689TIP3    H123702   4.601   0.661   8.189 -1.1480  0.8702 -1.3417
  689TIP3    H223703   4.613   0.516   8.232  1.4836  1.4108 -0.0411
  690TIP3   OH223704   3.621   5.888   1.954  0.8418 -0.0413  0.2824
  690TIP3    H123705   3.693   5.857   2.008  0.5876  1.6247  1.6442
  690TIP3    H223706   3.618   5.982   1.968 -1.5867 -0.0411  0.2585
  691TIP3   OH223707   4.066   1.426   0.428  0.1292  0.1129  0.0957
  691TIP3    H123708   4.136   1.416   0.363  0.6515  1.8054  0.3270
  691TIP3    H223709   4.112   1.454   0.507 -0.6509 -0.4763  0.7684
  692TIP3   OH223710   0.898   5.600   7.374  0.1627 -0.3145 -0.3808
  692TIP3    H123711   0.838   5.527   7.356  0.4004 -0.3431 -1.1065
  692TIP3    H223712   0.985   5.560   7.372  0.2644 -0.1002 -0.2729
  693TIP3   OH223713   0.142   5.397   0.182  0.0745  0.4233 -0.1303
  693TIP3    H123714   0.180   5.484   0.197 -0.7618  0.7775 -0.0089
  693TIP3    H223715   0.176   5.344   0.254 -1.6543  1.3938  1.5050
  694TIP3   OH223716   5.668   4.209   0.856 -0.0807 -0.0638  0.2806
  694TIP3    H123717   5.629   4.232   0.940 -1.1346  0.0036 -0.2047
  694TIP3    H223718   5.762   4.207   0.872 -0.2065  0.8990  1.2296
  695TIP3   OH223719   6.526   5.328   1.466  0.6285  0.0513 -0.2983
  695TIP3    H123720   6.442   5.369   1.486  0.8152  0.5137 -0.4386
  695TIP3    H223721   6.515   5.236   1.490  0.1585  0.1579 -0.1034
  696TIP3   OH223722   3.047   3.252   8.272 -0.6806  0.4597 -0.3384
  696TIP3    H123723   3.110   3.226   8.205  1.4631  0.7744  1.4315
  696TIP3    H223724   3.101   3.289   8.342 -2.8767  0.8676  1.2406
  697TIP3   OH223725   5.325   2.992   1.332 -0.5676  0.2424  0.4175
  697TIP3    H123726   5.261   2.975   1.402 -0.7700 -0.6281  0.0419
  697TIP3    H223727   5.410   2.984   1.375 -0.6898 -0.3948  0.5629
  698TIP3   OH223728   0.070   6.350   8.033 -0.3268  0.0478 -0.3313
  698TIP3    H123729   0.057   6.379   7.943 -3.3733 -1.3800 -0.4680
  698TIP3    H223730   0.023   6.267   8.038  0.1470 -0.1323  2.4749
  699TIP3   OH223731   1.557   3.026   7.272  0.1349  0.1852  0.0126
  699TIP3    H123732   1.620   3.085   7.313 -1.0718 -0.0533  2.3840
  699TIP3    H223733   1.601   2.942   7.268 -0.4816 -0.4163  3.2494
  700TIP3   OH223734   5.344   4.384   2.101  0.2746 -0.2976  0.3263
  700TIP3    H123735   5.276   4.424   2.155  0.8735  0.5353  0.4726
  700TIP3    H223736   5.426   4.419   2.135  0.8004 -1.4241  0.2670
  701TIP3   OH223737   0.456   4.574   7.779 -0.4158  0.3898 -0.5204
  701TIP3    H123738   0.393   4.582   7.851 -0.6893 -0.3368 -0.6741
  701TIP3    H223739   0.487   4.483   7.783  2.5675  1.3272  1.1482
  702TIP3   OH223740   3.627   4.474   8.378 -0.2246 -0.0599  0.1877
  702TIP3    H123741   3.675   4.471   8.296  1.1137  0.6364  0.9100
  702TIP3    H223742   3.640   4.564   8.410  1.5365 -1.0016  2.4079
  703TIP3   OH223743   6.018   5.809   8.338 -0.2844 -0.3996 -0.2397
  703TIP3    H123744   5.941   5.795   8.393  0.1459  0.4005  0.5904
  703TIP3    H223745   5.988   5.787   8.250 -1.5431  0.1204  0.0257
  704TIP3   OH223746   6.010   4.167   1.919  0.0487  0.6560 -0.3449
  704TIP3    H123747   6.010   4.164   1.823 -0.0234 -0.6471 -0.3269
  704TIP3    H223748   6.092   4.211   1.941  0.5822  0.0417 -1.0079
  705TIP3   OH223749   5.841   6.529   1.563 -0.5713 -0.1136 -0.0680
  705TIP3    H123750   5.879   6.451   1.603 -1.3520 -0.3776  0.1696
  705TIP3    H223751   5.869   6.601   1.620  1.6089  0.0529 -1.2246
  706TIP3   OH223752   0.489   2.849   2.414  0.2048  0.0504  0.2577
  706TIP3    H123753   0.491   2.825   2.506  3.6305 -1.4990 -0.0823
  706TIP3    H223754   0.502   2.767   2.367 -1.5611  0.7700 -1.6980
  707TIP3   OH223755   5.966   4.364   1.242 -0.4534 -0.6293  0.1076
  707TIP3    H123756   5.984   4.458   1.242 -0.6792 -0.5748 -0.8723
  707TIP3    H223757   6.036   4.327   1.188 -0.4649 -1.0005  0.3493
  708TIP3   OH223758   1.673   2.933   1.687 -0.2979 -0.3816 -0.0921
  708TIP3    H123759   1.733   2.862   1.709  0.4695 -0.1674 -1.3414
  708TIP3    H223760   1.730   3.009   1.672 -0.8818 -0.1073 -1.0662
  709TIP3   OH223761   1.079   4.647   0.817  0.3231 -0.7676  0.0927
  709TIP3    H123762   1.155   4.600   0.782 -0.7684 -1.5334 -1.3759
  709TIP3    H223763   1.085   4.734   0.778  0.7567 -0.6304  0.4568
  710TIP3   OH223764   3.578   5.723   7.732 -0.0314  0.4207  0.5383
  710TIP3    H123765   3.548   5.650   7.677 -1.4104  1.5200 -0.2375
  710TIP3    H223766   3.497   5.757   7.771  0.9800 -1.5585  5.0117
  711TIP3   OH223767   0.950   0.688   0.093 -0.2292 -0.0830 -0.1090
  711TIP3    H123768   0.974   0.694   0.001 -1.1175  0.1128 -0.3312
  711TIP3    H223769   0.923   0.597   0.105  1.3132 -0.5182  0.3273
  712TIP3   OH223770   5.513   3.430   1.927 -0.4273  0.0622  0.1283
  712TIP3    H123771   5.472   3.497   1.872 -0.2639 -0.0898 -0.1818
  712TIP3    H223772   5.494   3.458   2.017 -2.4556 -0.7459  0.0074
  713TIP3   OH223773   4.615   0.895   0.790  0.2237  1.2962  0.0979
  713TIP3    H123774   4.654   0.889   0.703 -1.8429 -3.4717 -0.8312
  713TIP3    H223775   4.687   0.873   0.850  0.4465 -1.6728 -1.0903
  714TIP3   OH223776   5.860   1.273   8.293  0.3337 -0.1360 -0.0396
  714TIP3    H123777   5.930   1.208   8.299  0.3976 -0.2236 -1.3996
  714TIP3    H223778   5.861   1.300   8.201 -1.1750  0.1447  0.0122
  715TIP3   OH223779   6.074   4.481   7.706 -0.7487  0.0509  0.4803
  715TIP3    H123780   6.135   4.522   7.644 -0.2515 -0.6272  0.5105
  715TIP3    H223781   5.989   4.518   7.683 -0.4443  0.4334 -0.0697
  716TIP3   OH223782   3.607   3.861   1.002 -0.2118 -0.5181  0.0194
  716TIP3    H123783   3.658   3.861   0.921 -0.0337  0.6972  0.1047
  716TIP3    H223784   3.518   3.838   0.975 -0.6612  1.9812 -0.9145
  717TIP3   OH223785   3.094   4.488   1.967 -0.0299  0.2812 -0.3901
  717TIP3    H123786   3.095   4.449   2.055 -1.0017  0.4385 -0.2991
  717TIP3    H223787   3.133   4.421   1.911 -0.2482 -0.1928  0.0184
  718TIP3   OH223788   6.578   5.751   0.136  0.6045  0.0350 -0.1149
  718TIP3    H123789   6.578   5.846   0.124 -0.7847  0.0018 -0.5760
  718TIP3    H223790   6.624   5.717   0.059  0.8323  0.3245 -0.1050
  719TIP3   OH223791   2.037   0.999   1.677  0.1037  0.1570  0.0481
  719TIP3    H123792   2.051   0.963   1.589 -1.8443 -1.4949  0.3575
  719TIP3    H223793   1.951   1.041   1.673  0.2436  0.5650  1.0151
  720TIP3   OH223794   4.027   5.144   7.146 -0.0590 -0.2022  0.2555
  720TIP3    H123795   3.990   5.232   7.145 -1.8532 -0.9160 -0.2824
  720TIP3    H223796   4.121   5.158   7.142 -0.2334  1.7165  1.4157
  721TIP3   OH223797   5.130   4.833   7.137 -0.6033  0.1501  0.0558
  721TIP3    H123798   5.119   4.738   7.128  0.5764  0.0899 -1.0643
  721TIP3    H223799   5.058   4.870   7.086 -0.6572 -0.1459 -0.0853
  722TIP3   OH223800   2.155   6.674   0.125 -0.2872  0.1359  0.1409
  722TIP3    H123801   2.137   6.644   0.036  1.5057 -0.5133 -0.0260
  722TIP3    H223802   2.160   6.594   0.177  2.3858  0.2043  0.0987
  723TIP3   OH223803   5.689   6.278   7.113 -0.1885  0.6503  0.3887
  723TIP3    H123804   5.654   6.325   7.037  0.2661  1.3284  0.5892
  723TIP3    H223805   5.763   6.331   7.142 -0.2186  0.2783  1.1711
  724TIP3   OH223806   0.883   6.662   6.709  0.0881 -0.3122 -0.1297
  724TIP3    H123807   0.965   6.705   6.686 -0.9167  2.5033  1.0500
  724TIP3    H223808   0.819   6.699   6.648 -0.6327 -1.1289  0.1086
  725TIP3   OH223809   3.860   1.802   1.398  0.3911 -0.1976  0.3318
  725TIP3    H123810   3.903   1.886   1.417 -1.1026  0.5854  0.4269
  725TIP3    H223811   3.793   1.794   1.466 -0.5880 -0.6470 -0.6681
  726TIP3   OH223812   5.781   4.342   8.042  0.1661  0.1642 -0.3661
  726TIP3    H123813   5.839   4.382   8.107 -0.5896  2.2471 -0.8897
  726TIP3    H223814   5.801   4.249   8.046 -0.2066  0.1167  3.2302
  727TIP3   OH223815   3.564   3.561   1.769  0.3273  0.4661  0.3474
  727TIP3    H123816   3.490   3.589   1.822  0.3453  1.1628  0.0239
  727TIP3    H223817   3.601   3.643   1.734  0.3904  0.0383 -0.6310
  728TIP3   OH223818   1.529   2.573   7.552  0.4864  0.0603  0.5200
  728TIP3    H123819   1.582   2.498   7.581  2.4057  0.3655 -1.9167
  728TIP3    H223820   1.459   2.534   7.499  0.6324 -0.0752  0.4284
  729TIP3   OH223821   0.683   0.897   1.324  0.3357 -0.1116  0.1510
  729TIP3    H123822   0.777   0.894   1.341  0.1860  1.2305  1.4341
  729TIP3    H223823   0.667   0.987   1.295 -0.3038 -0.8275 -1.8268
  730TIP3   OH223824   6.424   0.052   2.407  0.1877  0.5535 -0.4985
  730TIP3    H123825   6.443   0.143   2.382 -0.6292  0.8874  0.0655
  730TIP3    H223826   6.380   0.059   2.492  0.7614 -0.4212 -0.1123
  731TIP3   OH223827   4.189   1.400   8.045 -0.0159 -0.0856 -0.2343
  731TIP3    H123828   4.123   1.359   7.989 -0.0622 -0.3124 -0.0169
  731TIP3    H223829   4.241   1.454   7.985 -0.1632 -0.2002 -0.4688
  732TIP3   OH223830   1.422   5.133   0.991  0.5823  0.6496  0.1317
  732TIP3    H123831   1.384   5.175   0.914  2.8770  1.2506 -0.7490
  732TIP3    H223832   1.398   5.041   0.983 -0.9804  1.0534 -0.1398
  733TIP3   OH223833   2.459   2.895   1.018  0.1489 -0.0930 -0.6804
  733TIP3    H123834   2.445   2.989   1.020 -1.4110 -0.2363 -2.3374
  733TIP3    H223835   2.469   2.874   0.925  0.4542 -1.5541 -0.3403
  734TIP3   OH223836   2.178   5.790   8.595  0.0712  0.4276 -0.3835
  734TIP3    H123837   2.157   5.728   8.525  1.1917  0.9848 -1.2424
  734TIP3    H223838   2.134   5.871   8.569 -0.4213  0.3369  0.1402
  735TIP3   OH223839   0.513   3.820   7.712  0.3472 -0.2160  0.4613
  735TIP3    H123840   0.527   3.730   7.741  1.4687 -0.5831 -1.0741
  735TIP3    H223841   0.533   3.874   7.788  2.5120 -1.1514  0.6070
  736TIP3   OH223842   5.229   4.351   8.580  0.5162  0.6825 -0.3988
  736TIP3    H123843   5.140   4.344   8.613  0.5075  1.7202 -0.1886
  736TIP3    H223844   5.277   4.399   8.647  1.0399  0.8295 -0.8661
  737TIP3   OH223845   5.459   1.782   8.586  0.4582 -0.6591  0.6884
  737TIP3    H123846   5.488   1.873   8.592  0.6174 -0.7888  2.2671
  737TIP3    H223847   5.418   1.764   8.671 -0.4439 -1.7781  0.0508
  738TIP3   OH223848   1.177   3.748   1.756  0.4894 -0.1317 -0.3245
  738TIP3    H123849   1.197   3.679   1.693  0.2105  0.1912 -0.7766
  738TIP3    H223850   1.250   3.746   1.818 -0.0266 -1.5107  0.2778
  739TIP3   OH223851   2.861   4.319   0.756 -0.8130  0.0446  0.0636
  739TIP3    H123852   2.924   4.334   0.827 -0.0361 -0.3753 -0.5271
  739TIP3    H223853   2.813   4.402   0.749 -0.1893  0.4426  0.3864
  740TIP3   OH223854   5.731   1.888   1.895 -0.0874 -0.1714 -0.3836
  740TIP3    H123855   5.652   1.862   1.847 -0.6603 -0.7489  0.8205
  740TIP3    H223856   5.770   1.805   1.923 -0.3423  0.1588  1.0295
  741TIP3   OH223857   0.176   3.690   0.299 -0.2315 -0.6103 -0.0101
  741TIP3    H123858   0.241   3.684   0.370  0.9186  0.8626 -0.8909
  741TIP3    H223859   0.139   3.778   0.308  1.3660  0.4191 -2.3577
  742TIP3   OH223860   3.779   2.181   7.496  0.2640 -0.3229  0.1889
  742TIP3    H123861   3.707   2.228   7.454 -0.2309 -1.4504 -0.2632
  742TIP3    H223862   3.737   2.129   7.565  0.8990  0.4653  1.1880
  743TIP3   OH223863   6.807   0.043   1.710  0.7007  0.3290 -0.3389
  743TIP3    H123864   6.753   0.121   1.695 -0.2700 -0.2231  0.1772
  743TIP3    H223865   6.745  -0.023   1.740  1.4449 -0.7717 -1.1482
  744TIP3   OH223866   1.694   0.868   0.159  0.3485  0.0036  0.1211
  744TIP3    H123867   1.655   0.942   0.205  1.6035  0.5291  0.3959
  744TIP3    H223868   1.674   0.885   0.067 -0.5689 -0.0637  0.2993
  745TIP3   OH223869   3.273   2.117   5.993  0.0690 -0.1753 -0.3698
  745TIP3    H123870   3.289   2.028   6.026  2.4242 -0.8590 -2.9592
  745TIP3    H223871   3.193   2.109   5.941 -0.8491 -0.2508  1.0087
  746TIP3   OH223872   0.647   3.457   0.487 -0.2975 -0.2935 -0.6601
  746TIP3    H123873   0.564   3.504   0.499 -0.7611 -0.9726 -1.1118
  746TIP3    H223874   0.627   3.367   0.512  0.1145 -0.6081 -1.4355
  747TIP3   OH223875   4.922   0.544   0.673  0.0279  0.7921  0.0233
  747TIP3    H123876   4.830   0.516   0.672  0.3454 -0.4409 -2.6739
  747TIP3    H223877   4.945   0.545   0.765 -2.0881 -0.9914  0.6713
  748TIP3   OH223878   4.438   2.576   2.073  0.2576  0.0272  0.2477
  748TIP3    H123879   4.484   2.535   2.000 -0.4591  0.2159 -0.3183
  748TIP3    H223880   4.482   2.542   2.151  1.2008  0.0351 -0.2760
  749TIP3   OH223881   1.880   5.927   6.560 -0.3969  0.0787 -0.1518
  749TIP3    H123882   1.811   5.870   6.594  0.4190 -1.3208 -0.7413
  749TIP3    H223883   1.887   5.997   6.624 -1.1857 -0.6920  0.8150
  750TIP3   OH223884   2.384   6.224   7.665  0.0448 -0.5718  0.6029
  750TIP3    H123885   2.375   6.295   7.729  2.1805  1.7974 -1.4717
  750TIP3    H223886   2.468   6.183   7.687  1.1186  0.6802 -0.9102
  751TIP3   OH223887   0.677   0.622   1.907 -0.0928  0.1884 -0.2093
  751TIP3    H123888   0.614   0.617   1.836 -1.7244  0.2866  1.1609
  751TIP3    H223889   0.627   0.597   1.985  2.4833 -3.8613  0.4847
  752TIP3   OH223890   3.991   3.714   7.431  0.1798  0.0021  0.3503
  752TIP3    H123891   3.992   3.644   7.366  0.7529 -0.8501  1.2581
  752TIP3    H223892   3.936   3.782   7.392  0.5029 -0.4950 -1.0092
  753TIP3   OH223893   3.694   6.371   0.967 -0.3022 -0.1280 -1.1762
  753TIP3    H123894   3.626   6.329   1.020  2.1085 -1.3909  1.1552
  753TIP3    H223895   3.682   6.465   0.982 -0.5998 -0.4054  0.4269
  754TIP3   OH223896   3.091   5.886   0.822  0.5453  0.0590 -0.1355
  754TIP3    H123897   3.012   5.940   0.827  0.2203 -0.4608  0.5866
  754TIP3    H223898   3.161   5.944   0.855  0.1670 -0.0042  0.8144
  755TIP3   OH223899   3.247   0.111   0.582  0.2073 -0.2134  0.4474
  755TIP3    H123900   3.273   0.020   0.591 -1.0857 -0.7466 -0.9550
  755TIP3    H223901   3.319   0.152   0.533 -0.5715 -1.2096 -1.6406
  756TIP3   OH223902   2.993   1.486   7.495  0.4653  0.2740  0.1521
  756TIP3    H123903   2.934   1.561   7.501  0.4545  0.3290 -0.4853
  756TIP3    H223904   3.076   1.524   7.465  0.7720  0.1708  0.8535
  757TIP3   OH223905   4.384   2.234   0.019  0.3418 -0.0641  0.4468
  757TIP3    H123906   4.353   2.230   0.110  1.0472 -0.0249  0.7002
  757TIP3    H223907   4.345   2.313  -0.016 -1.7750 -1.2362 -0.0073
  758TIP3   OH223908   1.663   6.870   7.422 -0.6830  0.2317  0.2764
  758TIP3    H123909   1.598   6.901   7.485 -2.6086  0.2140 -1.6142
  758TIP3    H223910   1.733   6.935   7.426 -1.2111  0.7588  1.6895
  759TIP3   OH223911   4.328   3.518   0.389 -0.1985  0.6505  0.2595
  759TIP3    H123912   4.355   3.582   0.325  4.1211 -1.7879 -0.7563
  759TIP3    H223913   4.378   3.540   0.468 -2.0518  1.0276  1.3751
  760TIP3   OH223914   3.904   0.694   7.419  0.1398 -0.0723  0.1237
  760TIP3    H123915   3.966   0.702   7.491  0.4880 -0.2956 -0.1449
  760TIP3    H223916   3.908   0.778   7.374 -0.2619  0.1559  0.5057
  761TIP3   OH223917   5.741   1.247   1.634  0.1126 -0.2403  0.0035
  761TIP3    H123918   5.812   1.289   1.682 -0.8452  0.2434  1.0230
  761TIP3    H223919   5.661   1.277   1.677 -0.6654 -1.9932 -0.1197
  762TIP3   OH223920   4.517   2.158   1.736 -0.0118 -0.5432 -0.3689
  762TIP3    H123921   4.511   2.063   1.745  1.3974 -0.6167  0.0186
  762TIP3    H223922   4.591   2.183   1.791 -1.2415  0.9746  0.6846
  763TIP3   OH223923   6.248   4.482   0.636 -0.1376 -0.5722 -0.3731
  763TIP3    H123924   6.266   4.429   0.558  1.0085  0.7513 -1.0380
  763TIP3    H223925   6.322   4.542   0.642 -1.1100  0.5613  0.7087
  764TIP3   OH223926   0.425   3.160   2.111  0.2277  0.3962  0.0835
  764TIP3    H123927   0.339   3.119   2.116  0.6411 -0.5201 -0.0661
  764TIP3    H223928   0.407   3.253   2.105 -0.8007  0.1558 -0.9880
  765TIP3   OH223929   5.083   5.542   8.426  0.6270  0.1489 -0.3484
  765TIP3    H123930   5.105   5.486   8.352  0.6995 -0.8014  0.3645
  765TIP3    H223931   4.988   5.557   8.418  0.4507 -0.7713 -0.0979
  766TIP3   OH223932   3.228   2.246   0.317 -0.5044 -0.4194 -0.3005
  766TIP3    H123933   3.259   2.337   0.315 -0.9880 -0.2597 -0.5488
  766TIP3    H223934   3.154   2.244   0.257 -0.6507 -0.9234 -0.1102
  767TIP3   OH223935   3.024   2.891   0.199 -0.0243 -0.0286  0.3243
  767TIP3    H123936   2.977   2.897   0.282  0.8884 -1.1716  0.9590
  767TIP3    H223937   2.957   2.900   0.132 -1.0905 -1.1261  1.1999
  768TIP3   OH223938   2.953   2.317   2.466 -0.3098 -0.0203  0.1903
  768TIP3    H123939   2.947   2.388   2.402 -0.3855 -0.4692 -0.3139
  768TIP3    H223940   2.910   2.243   2.423 -0.2767 -0.3544  0.7291
  769TIP3   OH223941   6.653   4.560   1.483 -0.2025 -0.4884  0.2845
  769TIP3    H123942   6.708   4.637   1.466  0.4309 -0.8140  0.7932
  769TIP3    H223943   6.715   4.488   1.491 -0.4781 -0.5397  2.8501
  770TIP3   OH223944   6.488   3.198   0.481  0.2170 -0.4088  0.2651
  770TIP3    H123945   6.440   3.139   0.424  0.5379 -0.6090  0.1983
  770TIP3    H223946   6.438   3.280   0.479  0.3924 -0.3128 -0.5504
  771TIP3   OH223947   0.989   3.662   1.969 -0.8421  0.1381 -0.0513
  771TIP3    H123948   1.046   3.684   1.895 -0.6949 -1.5097 -0.4817
  771TIP3    H223949   0.972   3.745   2.013  0.5920  0.8821 -0.8531
  772TIP3   OH223950   6.271   1.665   8.464 -0.8494  0.6732  0.1868
  772TIP3    H123951   6.225   1.587   8.496 -2.7091  0.9182 -1.6444
  772TIP3    H223952   6.285   1.718   8.542 -1.7898 -0.3972  1.1206
  773TIP3   OH223953   2.398   6.575   1.026 -0.1429 -0.1127 -0.0790
  773TIP3    H123954   2.487   6.596   1.053  0.9438  1.0344 -3.9429
  773TIP3    H223955   2.352   6.659   1.029 -0.3916 -0.2380 -0.3748
  774TIP3   OH223956   0.535   6.670   7.800 -0.5392 -0.0761  1.1278
  774TIP3    H123957   0.451   6.697   7.838 -0.5320  1.1016  0.3648
  774TIP3    H223958   0.591   6.747   7.809 -0.1404 -0.2034 -0.0962
  775TIP3   OH223959   1.529   6.356   8.629  0.1452  0.1171  0.3878
  775TIP3    H123960   1.537   6.268   8.668 -1.6566 -0.3040 -0.1104
  775TIP3    H223961   1.488   6.341   8.544  0.6361  1.3746 -0.0841
  776TIP3   OH223962   2.081   0.373   1.605  0.3156  0.0236  0.5578
  776TIP3    H123963   2.120   0.367   1.692  1.8829 -0.6277 -0.1432
  776TIP3    H223964   2.148   0.414   1.551  0.2691 -1.5642 -0.8172
  777TIP3   OH223965   3.578   6.317   8.027 -0.5638  0.1231  0.2195
  777TIP3    H123966   3.551   6.249   7.965  1.3402 -1.5739  1.1175
  777TIP3    H223967   3.497   6.359   8.054 -1.8574 -1.8997 -0.3190
  778TIP3   OH223968   1.284   6.024   0.530  0.2663 -0.2563  0.2809
  778TIP3    H123969   1.303   5.994   0.619 -1.9110 -2.3366  0.1399
  778TIP3    H223970   1.266   6.118   0.540  0.0825 -0.4447  2.0560
  779TIP3   OH223971   3.907   5.374   2.026  0.0098  0.0312  0.4904
  779TIP3    H123972   3.896   5.451   2.082 -0.3553  0.9513 -0.7777
  779TIP3    H223973   3.920   5.301   2.086  1.6298  1.2613  1.7382
  780TIP3   OH223974   5.326   5.312   0.169 -0.0361  0.2742 -0.2474
  780TIP3    H123975   5.359   5.250   0.104  1.8373  1.2247 -0.2902
  780TIP3    H223976   5.270   5.371   0.119 -0.9871 -0.7232 -0.4019
  781TIP3   OH223977   4.380   4.573   0.399  0.0174 -0.2634 -0.1155
  781TIP3    H123978   4.371   4.506   0.332 -0.2140  0.5693 -0.9410
  781TIP3    H223979   4.296   4.572   0.445 -0.0478 -0.4226 -0.2379
  782TIP3   OH223980   6.759   4.293   1.402  0.2076 -0.5031 -0.1609
  782TIP3    H123981   6.796   4.209   1.431  1.8233  0.0486 -0.4908
  782TIP3    H223982   6.706   4.270   1.325 -0.4578 -1.3741  0.5326
  783TIP3   OH223983   1.216   5.085   7.603 -0.0784  0.2259 -0.0158
  783TIP3    H123984   1.284   5.133   7.557 -1.7592  0.9813 -1.8608
  783TIP3    H223985   1.258   5.003   7.629  1.3089  0.3046 -1.8203
  784TIP3   OH223986   0.995   1.649   0.337  0.1788 -0.3962  0.4417
  784TIP3    H123987   1.066   1.661   0.400  0.4102  0.4306  0.0428
  784TIP3    H223988   1.029   1.586   0.274  0.3576 -0.4039  0.5457
  785TIP3   OH223989   6.051   5.211   8.327  0.7781 -0.1713  0.2158
  785TIP3    H123990   6.078   5.290   8.279  1.9787 -1.0883 -0.6623
  785TIP3    H223991   6.115   5.204   8.398  1.5478 -1.1069 -0.5421
  786TIP3   OH223992   6.481   1.678   6.312 -0.3361  0.0742  0.5590
  786TIP3    H123993   6.404   1.629   6.283 -1.4753  0.4283  2.7312
  786TIP3    H223994   6.554   1.638   6.265 -1.5464 -2.0075  0.3124
  787TIP3   OH223995   5.240   1.159   7.581  0.3550 -0.4674 -0.0774
  787TIP3    H123996   5.324   1.176   7.624  0.4183  0.9368 -0.7207
  787TIP3    H223997   5.175   1.166   7.651  0.4112  2.2082 -0.1946
  788TIP3   OH223998   0.428   3.509   1.488 -0.0954  0.0199  0.1541
  788TIP3    H123999   0.397   3.599   1.499 -0.2346  0.1783 -1.3607
  788TIP3    H224000   0.350   3.458   1.469  0.0281 -0.3757  0.6748
  789TIP3   OH224001   0.575   1.907   0.646 -0.6765  0.3858 -0.5490
  789TIP3    H124002   0.611   1.990   0.616  0.0340 -0.2085 -1.3737
  789TIP3    H224003   0.486   1.905   0.612 -0.3725  0.3867 -1.3471
  790TIP3   OH224004   0.554   6.373   2.129  0.0200 -0.0780  0.1267
  790TIP3    H124005   0.622   6.418   2.179 -1.0027  0.7250  0.8396
  790TIP3    H224006   0.472   6.392   2.176 -0.5608 -2.1424  0.0926
  791TIP3   OH224007   5.567   2.884   2.312  0.6098  0.2172 -0.2905
  791TIP3    H124008   5.623   2.959   2.333 -1.2718  1.9142 -0.9790
  791TIP3    H224009   5.480   2.922   2.303  0.0014 -1.5873 -3.3309
  792TIP3   OH224010   4.434   6.165   6.267 -1.0092 -0.2439 -0.2041
  792TIP3    H124011   4.413   6.216   6.345  1.0800  0.2348  0.1267
  792TIP3    H224012   4.530   6.165   6.264 -0.9992  0.4756 -3.2244
  793TIP3   OH224013   5.300   4.439   7.719  0.3739 -0.5332  1.2555
  793TIP3    H124014   5.311   4.505   7.651 -3.1958 -2.7881 -1.9031
  793TIP3    H224015   5.389   4.410   7.739  1.7679  2.4064 -0.0912
  794TIP3   OH224016   3.850   1.567   7.090 -0.4833 -0.5258 -0.1686
  794TIP3    H124017   3.819   1.654   7.064  1.8319  0.1620 -0.8199
  794TIP3    H224018   3.857   1.519   7.008 -2.3092 -1.5912  0.2402
  795TIP3   OH224019   0.199   6.106   7.119  0.4454  0.4340  0.2721
  795TIP3    H124020   0.232   6.020   7.144  0.8101  0.2609 -0.7464
  795TIP3    H224021   0.110   6.110   7.155 -0.7684 -1.6171 -2.1932
  796TIP3   OH224022   1.215   2.339   1.504 -0.0524 -0.4586  0.1419
  796TIP3    H124023   1.177   2.285   1.434  0.0213 -1.3769  0.7998
  796TIP3    H224024   1.147   2.342   1.571 -0.1389  0.4643  0.0276
  797TIP3   OH224025   3.992   5.033   0.726  0.3487  0.1910 -0.9428
  797TIP3    H124026   3.985   5.129   0.725 -0.1233  0.1651 -0.5609
  797TIP3    H224027   4.048   5.013   0.801  0.9566  0.1971 -1.3964
  798TIP3   OH224028   5.990   0.794   6.464  0.0036  0.0155 -0.4855
  798TIP3    H124029   5.925   0.856   6.431 -0.0887  0.6563  0.8447
  798TIP3    H224030   6.012   0.740   6.388 -0.6582  1.0228 -1.4231
  799TIP3   OH224031   5.642   1.702   6.528 -0.3247 -0.0378 -0.4329
  799TIP3    H124032   5.735   1.715   6.550  0.0423  1.7869 -2.7087
  799TIP3    H224033   5.642   1.626   6.470  0.3104  1.9022 -3.1504
  800TIP3   OH224034   6.485   4.154   7.179 -0.2318 -0.1101 -0.3689
  800TIP3    H124035   6.411   4.161   7.119  1.1432  1.9540 -1.9404
  800TIP3    H224036   6.530   4.239   7.172  1.7319 -0.9368  1.2696
  801TIP3   OH224037   1.974   4.466   0.734  0.0358  0.9188  0.3561
  801TIP3    H124038   2.041   4.399   0.720 -1.1902 -0.1118 -0.9205
  801TIP3    H224039   2.014   4.547   0.704  1.2953  0.6455  1.2443
  802TIP3   OH224040   6.558   1.631   1.655  0.9465 -0.2462  0.4114
  802TIP3    H124041   6.627   1.634   1.721  0.9405  1.3772  0.3787
  802TIP3    H224042   6.606   1.619   1.572  1.1508  0.3336  0.4439
  803TIP3   OH224043   5.436   6.469   1.008  0.1956 -0.5439  0.3150
  803TIP3    H124044   5.528   6.455   1.029  0.2405  0.7493  1.0867
  803TIP3    H224045   5.389   6.411   1.069  0.4911 -2.7879 -1.4567
  804TIP3   OH224046   0.856   3.500   7.177  0.2079 -0.2207  0.0189
  804TIP3    H124047   0.892   3.584   7.147 -1.8687  0.5355 -0.5370
  804TIP3    H224048   0.917   3.435   7.141  0.8834  0.9552 -1.1016
  805TIP3   OH224049   6.468   5.524   8.066  0.0026  0.3217 -0.1862
  805TIP3    H124050   6.459   5.573   8.147 -1.7370  2.4317 -1.5425
  805TIP3    H224051   6.380   5.489   8.049 -0.4204  2.2018 -2.4236
  806TIP3   OH224052   2.204   2.629   7.811  0.1834  0.3890  0.0346
  806TIP3    H124053   2.143   2.585   7.870  0.9955  0.1920  0.7505
  806TIP3    H224054   2.179   2.721   7.816  0.3663  0.4034  0.8568
  807TIP3   OH224055   4.134   4.608   0.528 -0.1509  0.3714  0.3080
  807TIP3    H124056   4.048   4.566   0.529  0.2643 -0.4763  0.7959
  807TIP3    H224057   4.170   4.593   0.615  0.3511  1.0408  0.2302
  808TIP3   OH224058   2.144   5.503   1.853  0.3522 -0.4667 -0.4004
  808TIP3    H124059   2.238   5.515   1.870  0.5399 -1.1972 -0.8623
  808TIP3    H224060   2.106   5.487   1.940  0.3945  1.3019 -0.0098
  809TIP3   OH224061   2.110   0.710   7.678 -0.3530 -0.0214 -0.0126
  809TIP3    H124062   2.052   0.637   7.658  0.2354 -1.3979  2.7078
  809TIP3    H224063   2.068   0.755   7.752  0.4586  0.9256 -0.1052
  810TIP3   OH224064   1.918   0.515   7.121 -0.2814 -0.2504 -0.1790
  810TIP3    H124065   1.898   0.438   7.068  1.7473  0.8901 -2.8489
  810TIP3    H224066   1.881   0.588   7.071  0.4745  0.7719  0.7138
  811TIP3   OH224067   1.259   6.508   8.039 -0.2105  0.0270 -0.0829
  811TIP3    H124068   1.353   6.526   8.037 -0.0407 -0.7604  0.4948
  811TIP3    H224069   1.248   6.431   7.982 -0.5053  0.1025 -0.1290
  812TIP3   OH224070   3.991   5.866   7.718  0.1009  0.0279  0.3861
  812TIP3    H124071   4.037   5.807   7.657  0.7774 -1.2496  2.0611
  812TIP3    H224072   3.906   5.881   7.676  0.3937 -1.1034 -0.7073
  813TIP3   OH224073   4.839   3.065   0.583 -0.7197  0.3937  0.4046
  813TIP3    H124074   4.860   3.135   0.521 -0.1867 -0.0329  0.0934
  813TIP3    H224075   4.791   3.109   0.653 -1.1829  0.9087 -0.2269
  814TIP3   OH224076   1.600   1.021   6.785  0.5194 -0.0588 -0.1225
  814TIP3    H124077   1.618   1.108   6.748  0.2177 -0.5560 -1.5177
  814TIP3    H224078   1.628   0.960   6.717  1.3895 -1.0981  1.1327
  815TIP3   OH224079   0.222   3.165   0.849 -0.3621 -0.4197  0.3221
  815TIP3    H124080   0.132   3.193   0.868 -1.0783 -2.1592 -0.2755
  815TIP3    H224081   0.218   3.069   0.851  1.3793 -0.5372 -0.2115
  816TIP3   OH224082   2.991   0.994   0.004  0.1529 -0.5283 -0.7671
  816TIP3    H124083   3.037   0.953   0.077 -0.7667  0.7512  0.5708
  816TIP3    H224084   2.906   0.952   0.001  0.1512 -0.5110 -1.0540
  817TIP3   OH224085   0.077   3.897   7.089  0.3753 -0.1127  0.2005
  817TIP3    H124086   0.032   3.885   7.006  0.1243  0.0163  0.3145
  817TIP3    H224087   0.058   3.988   7.113  1.0268  0.0656  0.0580
  818TIP3   OH224088   4.719   0.937   0.543 -0.1831 -0.3684 -0.0815
  818TIP3    H124089   4.645   0.986   0.507 -1.5807 -1.0490  1.7130
  818TIP3    H224090   4.697   0.845   0.529  0.7519 -0.5743 -0.2971
  819TIP3   OH224091   4.175   0.048   0.818 -0.0397  0.2991  0.1813
  819TIP3    H124092   4.148   0.140   0.817 -1.2830 -0.0392  0.5953
  819TIP3    H224093   4.119   0.006   0.753  0.9115 -0.0673 -0.4085
  820TIP3   OH224094   2.818   3.080   7.293  0.4061  0.9514  0.4909
  820TIP3    H124095   2.845   3.160   7.337  0.6770  0.2923  1.5912
  820TIP3    H224096   2.891   3.020   7.306 -0.5672 -0.1005  1.4565
  821TIP3   OH224097   2.161   2.273   1.231 -0.2481  0.3517  0.0576
  821TIP3    H124098   2.145   2.365   1.249 -0.3331  0.2334  0.6049
  821TIP3    H224099   2.126   2.227   1.307  0.7201 -0.0638  0.2720
  822TIP3   OH224100   3.577   1.817   0.293 -0.4126 -0.3913 -0.5719
  822TIP3    H124101   3.553   1.909   0.284  1.8206  0.3257  0.2124
  822TIP3    H224102   3.493   1.771   0.305 -1.5278  1.5764 -0.4728
  823TIP3   OH224103   1.985   2.096   7.386  0.3357  0.1237  0.2393
  823TIP3    H124104   1.965   2.179   7.342 -1.0134 -0.5616 -0.5070
  823TIP3    H224105   1.955   2.109   7.475  1.6301  0.9717  0.5941
  824TIP3   OH224106   5.139   6.237   8.112  0.1944  0.0549  0.0391
  824TIP3    H124107   5.063   6.237   8.054  1.0081  0.9066 -1.0832
  824TIP3    H224108   5.109   6.194   8.191 -1.3527  0.0583 -0.5113
  825TIP3   OH224109   3.663   0.995   1.332  0.7345 -0.2577 -0.1789
  825TIP3    H124110   3.606   0.932   1.376 -1.0756  2.3184  1.3610
  825TIP3    H224111   3.738   1.005   1.391  0.8338 -0.6292 -0.2374
  826TIP3   OH224112   4.998   3.333   6.386 -0.1101  0.1433 -0.2093
  826TIP3    H124113   5.044   3.251   6.369  0.1176  0.0189  0.9026
  826TIP3    H224114   5.045   3.398   6.334  1.0195 -0.0708  0.5134
  827TIP3   OH224115   2.417   5.208   7.058 -0.4067  0.2345  0.0382
  827TIP3    H124116   2.335   5.220   7.107  0.7164  0.2586  2.0105
  827TIP3    H224117   2.452   5.297   7.048 -0.8047  0.2746 -1.2184
  828TIP3   OH224118   0.175   6.756   7.370  0.3630  0.4087  0.2494
  828TIP3    H124119   0.234   6.806   7.314 -0.4995  0.2968 -0.7991
  828TIP3    H224120   0.186   6.665   7.342  1.0473  0.1399  1.3321
  829TIP3   OH224121   6.783   2.654   7.460 -0.2968 -0.2362  0.1402
  829TIP3    H124122   6.750   2.652   7.550 -0.2197  1.8531  0.2548
  829TIP3    H224123   6.878   2.664   7.469 -0.0755 -1.6758 -0.2157
  830TIP3   OH224124   5.590   2.681   0.982  0.1969 -0.0423  0.1682
  830TIP3    H124125   5.497   2.704   0.985 -0.4982 -2.4032 -0.7960
  830TIP3    H224126   5.627   2.737   0.914 -0.6232  0.6067  0.2445
  831TIP3   OH224127   2.590   4.109   2.099 -0.4045  0.9180  0.0131
  831TIP3    H124128   2.544   4.162   2.164 -0.5760  0.2877  0.4175
  831TIP3    H224129   2.674   4.088   2.139 -1.0438 -0.6208  0.6396
  832TIP3   OH224130   2.442   0.723   2.674 -0.3863  0.2109 -0.2476
  832TIP3    H124131   2.513   0.699   2.615 -0.2833  0.8654 -0.4004
  832TIP3    H224132   2.363   0.718   2.620 -0.2183  1.4508 -0.6357
  833TIP3   OH224133   5.547   1.714   6.802 -0.3426  0.2347  0.5881
  833TIP3    H124134   5.546   1.755   6.716 -1.8567  2.3097  1.5031
  833TIP3    H224135   5.640   1.711   6.827  0.4056 -2.5080 -1.9341
  834TIP3   OH224136   0.934   5.219   6.723 -0.5611 -0.0876 -0.1303
  834TIP3    H124137   0.939   5.124   6.709 -2.0689 -0.1257 -0.6003
  834TIP3    H224138   0.872   5.229   6.795 -0.2528  0.5442  0.0493
  835TIP3   OH224139   2.041   1.494   8.401  0.4901 -0.0623 -0.6464
  835TIP3    H124140   2.060   1.556   8.471  0.5745  0.5189 -1.1759
  835TIP3    H224141   2.126   1.464   8.370  0.4396 -0.9423  0.0381
  836TIP3   OH224142   0.860   0.945   0.522  0.5295  0.9206  0.5596
  836TIP3    H124143   0.766   0.956   0.506  0.0293  0.9687  3.0763
  836TIP3    H224144   0.896   1.033   0.512  0.1627  1.0546  0.3739
  837TIP3   OH224145   2.901   1.094   7.170 -0.0086  0.4576  0.5394
  837TIP3    H124146   2.838   1.065   7.236  1.9440 -0.4138  2.1086
  837TIP3    H224147   2.846   1.131   7.100 -2.2715 -0.7900  1.5298
  838TIP3   OH224148   2.121   3.767   1.705  1.0405 -0.0817 -0.5673
  838TIP3    H124149   2.059   3.705   1.666 -0.7359  1.9187 -1.0782
  838TIP3    H224150   2.170   3.801   1.631 -0.3099  1.5455 -0.7650
  839TIP3   OH224151   3.827   5.408   1.245  1.0295 -0.3871 -0.2914
  839TIP3    H124152   3.732   5.415   1.234  1.1556 -1.1273 -2.4030
  839TIP3    H224153   3.839   5.359   1.326 -0.3099  1.3792  1.0408
  840TIP3   OH224154   4.866   2.363   7.462  0.0124  0.0816  0.3060
  840TIP3    H124155   4.775   2.392   7.450 -0.3255 -1.5451 -1.4428
  840TIP3    H224156   4.908   2.437   7.506 -1.9850  1.1519  0.5645
  841TIP3   OH224157   4.834   5.325   7.036  0.3385 -0.2238  0.0467
  841TIP3    H124158   4.874   5.332   7.123 -0.7941 -2.1403  0.7824
  841TIP3    H224159   4.740   5.323   7.053 -0.0331  1.9100 -1.4640
  842TIP3   OH224160   6.156   1.473   0.502 -0.2322 -0.3477 -0.2167
  842TIP3    H124161   6.131   1.467   0.409 -0.6740 -2.0404 -0.0201
  842TIP3    H224162   6.121   1.393   0.541 -1.9835  1.3177  1.8912
  843TIP3   OH224163   0.297   5.884   7.951  0.5148  0.3724 -0.2796
  843TIP3    H124164   0.287   5.896   8.046  1.6163  0.4137 -0.1607
  843TIP3    H224165   0.207   5.885   7.918 -0.0677 -1.6897  1.0171
  844TIP3   OH224166   1.083   6.047   0.960  0.1372 -0.1147  0.0844
  844TIP3    H124167   1.064   6.015   1.048 -1.0282 -0.4452 -0.2804
  844TIP3    H224168   1.038   6.131   0.954  1.2473  0.5127  0.2177
  845TIP3   OH224169   4.068   2.484   1.289 -0.4946  0.6088  0.1678
  845TIP3    H124170   4.126   2.441   1.226 -1.2190 -0.4779  0.2123
  845TIP3    H224171   4.127   2.531   1.347  0.3810 -0.6303  0.3405
  846TIP3   OH224172   5.345   2.707   7.141 -0.1739 -0.0728 -0.3765
  846TIP3    H124173   5.435   2.708   7.173  0.1536  0.3159 -1.2680
  846TIP3    H224174   5.341   2.781   7.081 -0.7634 -0.7814 -1.2305
  847TIP3   OH224175   6.164   5.761   0.421 -0.3878  0.2203  0.0780
  847TIP3    H124176   6.159   5.669   0.446 -1.8607  1.1028  3.6938
  847TIP3    H224177   6.081   5.798   0.450  0.3964  2.8215 -0.7198
  848TIP3   OH224178   3.094   5.704   1.443 -0.1252  0.0375  0.8880
  848TIP3    H124179   3.096   5.744   1.530 -0.7086  1.0244  0.4718
  848TIP3    H224180   3.165   5.746   1.395  0.7426 -1.1195  1.1258
  849TIP3   OH224181   1.276   4.958   8.199 -0.0290 -0.1751 -0.3862
  849TIP3    H124182   1.204   4.943   8.260 -0.2144  0.6619 -0.3979
  849TIP3    H224183   1.243   5.023   8.138  0.1644 -0.9763 -1.3794
  850TIP3   OH224184   1.149   4.994   2.885  0.4597  0.1138  0.6542
  850TIP3    H124185   1.205   5.053   2.934  1.8999  0.0494 -0.8489
  850TIP3    H224186   1.135   5.038   2.801  1.0364 -1.3548 -0.2540
  851TIP3   OH224187   3.670   1.616   8.408 -0.3808  0.9735 -0.7362
  851TIP3    H124188   3.687   1.608   8.314  0.0711  2.0442 -0.7612
  851TIP3    H224189   3.679   1.709   8.426 -0.0966  0.7389  0.4431
  852TIP3   OH224190   5.980   2.355   6.402  0.0596 -0.1895 -0.3216
  852TIP3    H124191   6.052   2.300   6.373  1.0939 -0.0203  1.7274
  852TIP3    H224192   6.017   2.408   6.473 -1.0885  2.6278 -1.6740
  853TIP3   OH224193   3.585   0.963   6.635  0.0905  0.2875  0.6121
  853TIP3    H124194   3.575   1.028   6.565 -0.5582 -0.6959 -0.2438
  853TIP3    H224195   3.499   0.920   6.641  0.7904 -1.2344  0.3736
  854TIP3   OH224196   0.351   0.511   1.466 -0.1716  0.5528  0.2719
  854TIP3    H124197   0.261   0.544   1.467 -0.5234 -0.0351 -2.7009
  854TIP3    H224198   0.403   0.586   1.436 -0.1211  0.1135 -0.7795
  855TIP3   OH224199   1.871   5.470   8.510 -0.2313 -0.5760  0.4954
  855TIP3    H124200   1.958   5.458   8.549  0.1644 -1.1134 -0.4932
  855TIP3    H224201   1.858   5.392   8.457 -1.3181 -0.4813  0.6008
  856TIP3   OH224202   6.062   6.568   0.534 -0.6424 -0.1961 -0.1054
  856TIP3    H124203   6.047   6.538   0.445 -1.2335 -0.6959  0.1568
  856TIP3    H224204   6.111   6.497   0.576 -1.4020 -0.4955  0.3025
  857TIP3   OH224205   1.823   4.888   1.286 -0.2875  0.0525  0.3056
  857TIP3    H124206   1.790   4.882   1.197 -0.5227 -2.6537  0.4976
  857TIP3    H224207   1.745   4.894   1.341 -0.1347  2.7133  0.3771
  858TIP3   OH224208   0.370   2.388   6.849 -0.0475 -0.3975  0.1687
  858TIP3    H124209   0.352   2.435   6.768 -2.4673 -1.3255  0.0750
  858TIP3    H224210   0.465   2.385   6.855  0.1973  2.2162 -1.1232
  859TIP3   OH224211   1.677   1.460   2.541 -0.1630 -0.7863  0.1432
  859TIP3    H124212   1.614   1.532   2.547 -0.7780 -1.2798 -0.3204
  859TIP3    H224213   1.736   1.474   2.615 -1.0386 -0.5246  0.8151
  860TIP3   OH224214   2.031   4.183   8.232  0.0317  0.0765 -0.2139
  860TIP3    H124215   2.052   4.091   8.243 -0.0116  0.0777 -0.1222
  860TIP3    H224216   1.942   4.192   8.267  0.5593  0.4301  1.1108
  861TIP3   OH224217   5.280   5.956   7.820 -0.2016  0.4223 -0.5439
  861TIP3    H124218   5.374   5.973   7.817  0.0964 -1.0418 -0.1258
  861TIP3    H224219   5.272   5.861   7.810 -1.5880  0.4369  0.1550
  862TIP3   OH224220   3.010   1.340   2.308 -0.1816 -0.1493  0.3180
  862TIP3    H124221   2.969   1.377   2.230  0.0835  0.2565  0.3658
  862TIP3    H224222   2.951   1.271   2.337 -1.2583  0.9762  0.8749
  863TIP3   OH224223   5.607   2.227   6.703 -0.2796  0.3771  0.1881
  863TIP3    H124224   5.692   2.183   6.696 -1.0907 -1.3154  0.3513
  863TIP3    H224225   5.587   2.224   6.797 -1.0916 -0.4338  0.0029
  864TIP3   OH224226   1.942   5.385   2.196 -0.1318  0.3606 -0.0181
  864TIP3    H124227   1.886   5.334   2.138  0.2143 -2.1510  1.7072
  864TIP3    H224228   1.883   5.451   2.234 -2.2375 -2.5030  2.1359
  865TIP3   OH224229   4.789   2.126   1.845  0.5313 -0.2909  0.4704
  865TIP3    H124230   4.848   2.079   1.785 -0.3578  1.3539 -1.8575
  865TIP3    H224231   4.801   2.083   1.929  2.4533 -2.2547 -0.6976
  866TIP3   OH224232   3.659   0.396   0.444 -0.3464 -0.6626  0.0224
  866TIP3    H124233   3.713   0.417   0.520 -1.0883  2.4001 -0.1783
  866TIP3    H224234   3.721   0.389   0.371 -0.0349  2.4492 -0.1407
  867TIP3   OH224235   6.408   2.066   1.638  0.1446 -0.1542  0.0344
  867TIP3    H124236   6.354   2.066   1.717  0.7756 -2.2645  0.5502
  867TIP3    H224237   6.498   2.073   1.671  0.3122  2.2537 -0.7510
  868TIP3   OH224238   5.731   5.210   8.371 -0.8369  0.6311 -0.1712
  868TIP3    H124239   5.815   5.237   8.409 -0.3382  0.4592 -1.1032
  868TIP3    H224240   5.667   5.221   8.441  0.0413  0.3595  0.6909
  869TIP3   OH224241   1.173   1.765   2.506 -0.6876  0.3140  0.3256
  869TIP3    H124242   1.124   1.745   2.586 -0.7038 -0.0058  0.2349
  869TIP3    H224243   1.251   1.811   2.537 -0.8677  0.5082  0.4977
  870TIP3   OH224244   6.442   3.057   1.452 -0.3794 -0.0761  0.0802
  870TIP3    H124245   6.498   3.031   1.379 -1.8253 -0.9634 -0.7635
  870TIP3    H224246   6.444   3.153   1.450 -0.7614 -0.0658 -1.4637
  871TIP3   OH224247   6.363   2.846   7.920 -0.3494  0.1232  0.0622
  871TIP3    H124248   6.380   2.914   7.985 -2.6423  0.9546 -0.1291
  871TIP3    H224249   6.446   2.837   7.873  0.8071  0.8179  1.8563
  872TIP3   OH224250   5.621   5.362   1.515 -0.0470 -0.0244  0.7442
  872TIP3    H124251   5.661   5.312   1.585 -2.6823 -1.0445  1.6576
  872TIP3    H224252   5.630   5.454   1.542  0.2245 -0.3276  1.6956
  873TIP3   OH224253   4.603   2.432   8.269 -0.5525  0.3527 -0.5014
  873TIP3    H124254   4.597   2.462   8.178 -3.2659  1.7164  0.0108
  873TIP3    H224255   4.522   2.464   8.310  0.6688 -0.0283  2.4690
  874TIP3   OH224256   3.162   4.145   0.314  0.2504  0.4802 -0.6007
  874TIP3    H124257   3.137   4.199   0.389  0.8949 -1.5437  1.1878
  874TIP3    H224258   3.257   4.134   0.322 -0.0221 -2.1295  0.0680
  875TIP3   OH224259   3.806   6.664   0.948 -0.0622 -0.0274  0.2102
  875TIP3    H124260   3.850   6.612   0.881 -0.1550 -0.1432  0.2403
  875TIP3    H224261   3.747   6.721   0.899  0.5079  0.5007  0.1305
  876TIP3   OH224262   3.927   6.855   7.653  0.0523  0.3872 -0.2125
  876TIP3    H124263   3.989   6.886   7.588 -0.3907 -1.0301 -1.3835
  876TIP3    H224264   3.862   6.925   7.661  0.4046  0.7954 -0.9009
  877TIP3   OH224265   0.338   6.433   7.840  0.0035  0.4448  0.0658
  877TIP3    H124266   0.362   6.522   7.816 -1.1952  0.7334 -0.1218
  877TIP3    H224267   0.421   6.392   7.865  0.6651  1.4128 -0.4566
  878TIP3   OH224268   2.318   2.084   8.629  0.4687 -0.2059  0.2437
  878TIP3    H124269   2.393   2.093   8.570 -0.1274  0.1553 -0.4798
  878TIP3    H224270   2.336   2.006   8.680  1.4610  0.0241  0.2570
  879TIP3   OH224271   1.572   5.239   1.212 -0.2457 -0.1051  0.1225
  879TIP3    H124272   1.550   5.326   1.178  1.5978  0.4426  0.1918
  879TIP3    H224273   1.569   5.182   1.135 -0.1467  0.3008 -0.1877
  880TIP3   OH224274   4.285   2.702   1.697  0.1463  0.2705  0.0578
  880TIP3    H124275   4.260   2.727   1.786 -1.4048  1.4223 -0.6699
  880TIP3    H224276   4.380   2.716   1.695 -0.1049  2.5524  0.8513
  881TIP3   OH224277   1.445   3.717   7.293  0.1585 -0.5629 -0.0147
  881TIP3    H124278   1.530   3.675   7.277  0.0090 -0.2085 -2.0543
  881TIP3    H224279   1.400   3.712   7.208 -0.8211  1.5781  0.3160
  882TIP3   OH224280   4.283   4.317   6.837 -0.1164 -0.0071 -0.2981
  882TIP3    H124281   4.379   4.313   6.829  0.1770  1.2172  1.7849
  882TIP3    H224282   4.255   4.375   6.766  1.0269  1.8600  0.7089
  883TIP3   OH224283   5.282   6.866   0.663  0.3317 -0.0518 -0.3481
  883TIP3    H124284   5.326   6.933   0.716  0.5590 -0.0888 -0.4839
  883TIP3    H224285   5.296   6.896   0.573  1.9511 -1.1651 -0.5152
  884TIP3   OH224286   1.347   2.199   8.430  0.0262 -0.4935  0.4641
  884TIP3    H124287   1.427   2.245   8.406  0.3055 -0.4387  1.4692
  884TIP3    H224288   1.277   2.262   8.415 -0.0048 -0.9944 -1.7754
  885TIP3   OH224289   4.951   0.200   1.869  0.8613 -0.0582 -0.2660
  885TIP3    H124290   4.908   0.201   1.784  1.2735 -0.9768 -0.5027
  885TIP3    H224291   5.043   0.182   1.849  0.7193 -1.8234  0.4300
  886TIP3   OH224292   1.012   4.340   0.648  0.0248 -0.1249  1.1012
  886TIP3    H124293   1.098   4.379   0.665 -0.2224  0.3432  1.2910
  886TIP3    H224294   1.028   4.275   0.579  0.2908  0.9392  0.1296
  887TIP3   OH224295   2.882   6.691   7.988  0.3630 -0.0231  0.0233
  887TIP3    H124296   2.898   6.598   7.976 -2.4277 -0.5668  0.0261
  887TIP3    H224297   2.823   6.715   7.917  1.1777  1.8231 -0.0902
  888TIP3   OH224298   2.329   6.321   8.500 -0.4671 -0.3048  0.0903
  888TIP3    H124299   2.257   6.384   8.507 -0.0428  0.3241 -0.9740
  888TIP3    H224300   2.390   6.347   8.569  0.1972  1.1444 -0.9980
  889TIP3   OH224301   4.692   4.100   0.037  0.1653  0.4864 -1.1167
  889TIP3    H124302   4.631   4.131  -0.030  0.1390 -0.2400 -1.4369
  889TIP3    H224303   4.637   4.056   0.102  0.1128  1.7973 -0.2420
  890TIP3   OH224304   3.123   0.081   2.359  0.4021 -0.0326  0.5556
  890TIP3    H124305   3.215   0.106   2.344  0.5153 -1.4411 -1.4938
  890TIP3    H224306   3.129   0.002   2.412  0.4795 -1.0280 -0.8949
  891TIP3   OH224307   3.456   1.350   6.341 -0.4715 -0.2919  0.2027
  891TIP3    H124308   3.373   1.397   6.350  0.1458  0.4703  2.2719
  891TIP3    H224309   3.497   1.389   6.264 -1.5115  0.1178 -0.1647
  892TIP3   OH224310   6.208   2.504   1.625 -0.2012  0.0862 -0.1158
  892TIP3    H124311   6.133   2.524   1.569  0.8011  0.4377 -1.3810
  892TIP3    H224312   6.241   2.420   1.592  0.5249  0.3929 -0.1939
  893TIP3   OH224313   4.796   5.020   1.204 -0.5315  0.1244  0.8474
  893TIP3    H124314   4.734   5.092   1.187  0.0809  0.1367 -1.8559
  893TIP3    H224315   4.764   4.948   1.150  1.0347 -0.3080  0.4476
  894TIP3   OH224316   6.168   1.995   1.893 -0.2388 -0.2565  0.6387
  894TIP3    H124317   6.147   1.971   1.983  1.2364 -1.6276  0.6603
  894TIP3    H224318   6.161   1.914   1.844 -1.0409  0.4756 -0.5295
  895TIP3   OH224319   5.196   0.775   0.128  0.2629  0.4119 -0.5484
  895TIP3    H124320   5.246   0.833   0.070  0.3381  0.8543 -0.0443
  895TIP3    H224321   5.124   0.744   0.073  2.7027 -2.6992 -2.3113
  896TIP3   OH224322   4.308   5.004   7.351 -0.0799  0.2258  0.0886
  896TIP3    H124323   4.355   4.929   7.316 -0.5756  0.1915 -0.5083
  896TIP3    H224324   4.273   4.974   7.434 -0.6425 -0.3439 -0.3469
  897TIP3   OH224325   3.447   4.278   1.010 -0.3143 -0.0751 -0.6079
  897TIP3    H124326   3.412   4.203   1.057  1.8129 -0.0511  1.1402
  897TIP3    H224327   3.388   4.350   1.032  0.8034  0.0314  2.4862
  898TIP3   OH224328   0.335   3.429   6.429 -0.3643  0.1691 -0.7170
  898TIP3    H124329   0.327   3.497   6.496 -1.0193 -0.1021 -0.5125
  898TIP3    H224330   0.258   3.373   6.442  0.9094 -1.4887  0.1279
  899TIP3   OH224331   6.274   1.210   7.970 -0.1984  0.0149  0.0588
  899TIP3    H124332   6.254   1.159   7.892  1.5020 -0.7559  0.0896
  899TIP3    H224333   6.272   1.147   8.041 -0.6940  0.5208  0.5062
  900TIP3   OH224334   6.260   3.516   6.896  0.5980  0.6723  0.0460
  900TIP3    H124335   6.233   3.608   6.897  0.9511  0.8178 -1.5481
  900TIP3    H224336   6.257   3.491   6.804 -3.1843 -2.0733  0.6689
  901TIP3   OH224337   6.030   6.203   0.469  0.4408 -0.3803  0.4825
  901TIP3    H124338   6.116   6.240   0.447  0.6983 -0.9602  0.4926
  901TIP3    H224339   6.037   6.110   0.447 -1.1090  0.0572 -2.2744
  902TIP3   OH224340   1.922   3.319   1.379  0.2663  0.2242 -0.2197
  902TIP3    H124341   1.937   3.367   1.297  0.6781 -1.4704 -1.1816
  902TIP3    H224342   1.842   3.268   1.363 -0.2653  0.7024  0.8469
  903TIP3   OH224343   0.021   5.400   7.830  0.1318  0.4250  0.2299
  903TIP3    H124344  -0.021   5.436   7.908 -0.6402  0.6058 -0.2592
  903TIP3    H224345   0.098   5.354   7.864 -0.8101 -0.4825  1.2330
  904TIP3   OH224346   6.350   1.912   6.712 -0.3177 -0.4107  0.0189
  904TIP3    H124347   6.329   1.830   6.757  1.1541 -0.7879  0.0428
  904TIP3    H224348   6.368   1.886   6.622  0.5412 -0.1646  0.1204
  905TIP3   OH224349   6.841   1.979   7.830  0.4691  0.0903  0.8373
  905TIP3    H124350   6.793   1.900   7.855  0.5561 -0.2428 -0.0076
  905TIP3    H224351   6.872   2.016   7.912  1.6997 -1.5649  1.1528
  906TIP3   OH224352   2.265   5.112   1.802  0.0034  0.0111  0.5175
  906TIP3    H124353   2.326   5.179   1.832  3.1478 -1.5464 -1.8367
  906TIP3    H224354   2.304   5.029   1.831 -0.0621 -1.1392 -2.3666
  907TIP3   OH224355   3.454   1.394   0.487  0.1288 -0.4289 -0.5774
  907TIP3    H124356   3.388   1.355   0.429  0.4514 -1.6579 -0.1406
  907TIP3    H224357   3.530   1.408   0.432  0.2431 -1.0707 -0.5887
  908TIP3   OH224358   3.250   1.196   7.605 -0.5127  0.0358  0.3005
  908TIP3    H124359   3.329   1.249   7.602 -1.4661  1.4693 -0.2756
  908TIP3    H224360   3.282   1.105   7.601  1.1086  0.5588  0.6964
  909TIP3   OH224361   6.543   4.557   1.736 -0.1119 -0.0197 -0.4317
  909TIP3    H124362   6.463   4.515   1.768  0.8021 -1.2541  0.3188
  909TIP3    H224363   6.546   4.533   1.643 -0.6869  0.1698 -0.5050
  910TIP3   OH224364   3.520   2.786   2.246 -0.6315 -0.0980  0.1476
  910TIP3    H124365   3.452   2.727   2.279 -0.5886  0.7901  1.9767
  910TIP3    H224366   3.600   2.756   2.288 -0.4222  0.6018  0.2672
  911TIP3   OH224367   0.297   0.157   0.413  0.3613 -0.2910  0.0378
  911TIP3    H124368   0.288   0.117   0.327  1.0557 -0.6969  0.1482
  911TIP3    H224369   0.367   0.221   0.403 -1.4250  1.7208 -0.4164
  912TIP3   OH224370   3.824   3.543   0.683 -0.0322 -0.8550  0.0972
  912TIP3    H124371   3.789   3.630   0.664 -0.4129 -0.6784  1.4532
  912TIP3    H224372   3.891   3.558   0.750  0.6845 -1.4917 -0.4625
  913TIP3   OH224373   4.597   6.520   0.804  0.1910  0.2818  0.2708
  913TIP3    H124374   4.596   6.588   0.872  1.3148  0.0559  0.5359
  913TIP3    H224375   4.549   6.559   0.731  0.1350  1.0594  0.7063
  914TIP3   OH224376   5.891   4.724   8.278 -0.3427  0.4348 -0.2358
  914TIP3    H124377   5.864   4.769   8.198  1.3436  0.6059 -0.7390
  914TIP3    H224378   5.900   4.794   8.342  0.8371  0.6583 -0.6215
  915TIP3   OH224379   5.867   6.805   1.054  0.3791 -0.4709  0.0482
  915TIP3    H124380   5.847   6.748   1.128  0.8228  2.3892  2.5984
  915TIP3    H224381   5.783   6.817   1.009 -0.2936 -0.9178  1.1516
  916TIP3   OH224382   4.102   3.862   0.819  0.2245  0.0893  0.0580
  916TIP3    H124383   4.192   3.866   0.850 -0.0048 -0.6929  0.8550
  916TIP3    H224384   4.110   3.853   0.724  0.9947 -0.1884  0.1416
  917TIP3   OH224385   1.085   5.548   8.226  0.0146  0.0838 -0.2008
  917TIP3    H124386   1.031   5.469   8.230  0.0424  0.1080  1.9186
  917TIP3    H224387   1.025   5.617   8.199 -0.0513 -0.5955 -1.8930
  918TIP3   OH224388   2.064   4.787   1.094 -0.2740  0.3081 -0.3850
  918TIP3    H124389   2.120   4.785   1.016 -0.3497 -0.9915 -0.4309
  918TIP3    H224390   1.996   4.723   1.076 -0.4485  0.1915  0.6431
  919TIP3   OH224391   5.435   2.967   1.814 -0.5786 -0.5798  0.5024
  919TIP3    H124392   5.343   2.970   1.786 -0.0172  0.5343 -1.4459
  919TIP3    H224393   5.439   2.896   1.877 -2.5031 -1.6140 -0.4498
  920TIP3   OH224394   5.315   0.268   8.617 -0.7641 -0.1463  0.1148
  920TIP3    H124395   5.399   0.222   8.623 -0.3175  0.6183 -0.1021
  920TIP3    H224396   5.322   0.320   8.537 -0.6812  1.3871  1.0812
  921TIP3   OH224397   5.946   2.612   1.898 -1.0216  0.5092  0.0109
  921TIP3    H124398   5.960   2.518   1.913 -0.8501  0.4738 -0.3526
  921TIP3    H224399   5.992   2.655   1.969 -4.8792  0.2327  3.0026
  922TIP3   OH224400   4.571   6.334   7.741  0.1706  0.1447 -0.1070
  922TIP3    H124401   4.477   6.354   7.746 -0.2903 -1.7656 -0.3547
  922TIP3    H224402   4.610   6.385   7.813 -1.0436  0.9501  0.0087
  923TIP3   OH224403   5.826   5.115   6.883 -0.0990  0.5410  0.3324
  923TIP3    H124404   5.731   5.128   6.879 -0.2736  0.0105  1.8012
  923TIP3    H224405   5.853   5.100   6.793 -1.4965  0.1602 -0.0394
  924TIP3   OH224406   6.289   5.845   7.393  0.1283 -0.0595  0.0394
  924TIP3    H124407   6.358   5.814   7.452 -1.0930  0.7738  2.0031
  924TIP3    H224408   6.208   5.813   7.433 -0.8423  1.8064 -0.3357
  925TIP3   OH224409   4.876   1.632   7.486 -0.0243  0.9227 -0.0153
  925TIP3    H124410   4.842   1.566   7.547  0.0115  1.1721  0.2790
  925TIP3    H224411   4.929   1.690   7.540  0.9224  0.5090 -0.4893
  926TIP3   OH224412   3.155   4.901   7.089 -0.4128 -0.4254  0.1273
  926TIP3    H124413   3.208   4.878   7.164 -0.9119  0.9957  0.9693
  926TIP3    H224414   3.206   4.967   7.042 -0.8748  0.0435  0.2625
  927TIP3   OH224415   1.627   0.408   8.511 -0.2666 -0.6474 -0.1471
  927TIP3    H124416   1.533   0.420   8.501 -0.1115 -0.4238 -1.5446
  927TIP3    H224417   1.660   0.495   8.533 -0.1518 -0.1935 -1.9138
  928TIP3   OH224418   6.484   6.589   7.585 -0.5121 -0.1558  0.2355
  928TIP3    H124419   6.527   6.631   7.511 -2.7594  1.3653 -0.3226
  928TIP3    H224420   6.441   6.661   7.632 -0.3650 -1.2641  2.2042
  929TIP3   OH224421   1.989   3.673   8.596 -0.0358  0.0532  0.2154
  929TIP3    H124422   1.918   3.617   8.565  0.8238  0.0817 -1.9818
  929TIP3    H224423   2.032   3.622   8.664  0.7315 -2.0225 -1.7171
  930TIP3   OH224424   2.735   4.275   1.474  0.0541 -0.4256  0.4287
  930TIP3    H124425   2.758   4.232   1.557 -1.7246  0.7821  1.6192
  930TIP3    H224426   2.726   4.367   1.497 -2.8070 -0.3720 -0.5199
  931TIP3   OH224427   4.794   3.353   2.017  0.1867 -0.2483 -0.5049
  931TIP3    H124428   4.724   3.374   2.079  0.3016  1.3291 -0.8680
  931TIP3    H224429   4.870   3.335   2.072 -0.5404 -2.3341 -0.0927
  932TIP3   OH224430   0.769   5.967   0.942  0.0634  0.5599  0.4052
  932TIP3    H124431   0.806   5.941   1.026  0.0215 -0.7090  0.0473
  932TIP3    H224432   0.740   5.885   0.901  1.0605  1.0035 -1.3086
  933TIP3   OH224433   0.951   4.777   8.023 -0.5912 -0.1350  0.3811
  933TIP3    H124434   0.909   4.862   8.035 -0.4771  0.0616 -0.5124
  933TIP3    H224435   0.880   4.717   8.001 -0.3960  0.2964 -1.6019
  934TIP3   OH224436   5.219   5.796   0.111 -0.2878 -0.2197 -0.6183
  934TIP3    H124437   5.152   5.818   0.176 -0.7528 -0.8372 -0.8665
  934TIP3    H224438   5.271   5.875   0.102 -1.0417  0.3078 -0.4750
  935TIP3   OH224439   3.090   5.789   1.724 -0.3834 -0.5543 -0.2280
  935TIP3    H124440   3.128   5.724   1.784  0.9992  0.5011  0.0838
  935TIP3    H224441   3.096   5.872   1.771 -1.0153  0.0057 -1.0991
  936TIP3   OH224442   3.631   1.216   1.158  0.0400 -0.0773 -0.1517
  936TIP3    H124443   3.723   1.236   1.141 -0.0339 -0.5626 -1.2523
  936TIP3    H224444   3.634   1.137   1.213  0.2878  1.4070  2.0756
  937TIP3   OH224445   0.875   3.561   6.793  0.2169  0.1009  0.2596
  937TIP3    H124446   0.912   3.477   6.768  0.3484  0.2849 -0.1682
  937TIP3    H224447   0.851   3.603   6.710  0.1017  0.4601  0.4710
  938TIP3   OH224448   3.360   0.163   6.697  0.6336  0.2389 -0.6205
  938TIP3    H124449   3.418   0.197   6.628  1.2163 -0.4458 -0.4832
  938TIP3    H224450   3.420   0.135   6.767  0.1681 -0.8630 -0.6422
  939TIP3   OH224451   6.243   5.124   8.566  0.1543 -0.1518  0.0977
  939TIP3    H124452   6.298   5.187   8.520 -0.6567  2.7691  2.7905
  939TIP3    H224453   6.304   5.059   8.601  1.5444  1.2461  0.3831
  940TIP3   OH224454   2.656   5.263   0.048  0.0325  0.4275  0.0649
  940TIP3    H124455   2.714   5.293   0.118 -0.5022  2.8645 -0.4250
  940TIP3    H224456   2.623   5.344   0.009 -1.3024 -0.8804 -1.6580
  941TIP3   OH224457   1.378   5.760   6.237 -0.4633 -0.3122 -0.2057
  941TIP3    H124458   1.421   5.727   6.158 -0.9082  0.6818 -0.8892
  941TIP3    H224459   1.449   5.799   6.289 -0.3719  0.3360 -0.8059
  942TIP3   OH224460   4.060   6.012   2.444 -0.1863  0.1643 -0.7736
  942TIP3    H124461   4.028   6.079   2.383 -0.1927  1.2173  0.3380
  942TIP3    H224462   4.146   6.044   2.471 -0.5518  0.1681  0.4136
  943TIP3   OH224463   2.662   1.927   6.799 -0.2000 -0.1017 -0.1749
  943TIP3    H124464   2.648   1.983   6.723  1.1231  1.0466  0.3757
  943TIP3    H224465   2.680   1.841   6.762 -1.4947 -0.0180 -1.0653
  944TIP3   OH224466   0.531   5.493   1.973 -0.3263  0.4030  0.4108
  944TIP3    H124467   0.452   5.441   1.956 -0.5258  0.6160  0.6933
  944TIP3    H224468   0.519   5.528   2.061 -0.1713  0.8959  0.2400
  945TIP3   OH224469   1.263   3.059   8.564  0.2187 -0.1910 -0.3730
  945TIP3    H124470   1.342   3.006   8.574  0.7654  0.7559  0.4327
  945TIP3    H224471   1.277   3.107   8.482  0.7817  0.4480  0.0834
  946TIP3   OH224472   2.079   0.939   1.406  0.0724 -0.0507  0.6427
  946TIP3    H124473   2.074   1.034   1.394 -0.8994 -0.3338 -1.6453
  946TIP3    H224474   2.170   0.917   1.384 -0.1331  0.1693 -0.4631
  947TIP3   OH224475   5.413   5.163   7.353 -0.0505  0.3648  0.0881
  947TIP3    H124476   5.364   5.179   7.272 -1.1381  0.1318  0.6801
  947TIP3    H224477   5.503   5.145   7.323 -0.4769  0.0500 -1.0844
  948TIP3   OH224478   1.058   1.794   7.024 -0.5488 -0.1870  0.0345
  948TIP3    H124479   1.115   1.775   7.099  0.1233  0.6666 -0.2386
  948TIP3    H224480   1.081   1.884   6.999  0.5275 -1.0361 -2.2984
  949TIP3   OH224481   5.141   3.395   7.942 -0.4213  0.1896  0.3559
  949TIP3    H124482   5.096   3.453   8.004 -0.2775 -0.5491  1.1691
  949TIP3    H224483   5.081   3.321   7.933 -0.0469 -0.1036  0.2844
  950TIP3   OH224484   4.258   0.530   0.576  0.5298 -0.3789 -0.5123
  950TIP3    H124485   4.266   0.610   0.628 -0.9809 -0.7688  0.3827
  950TIP3    H224486   4.287   0.460   0.635  0.5211 -0.6363 -0.8137
  951TIP3   OH224487   1.140   6.394   7.210  0.4250 -0.1324 -0.2859
  951TIP3    H124488   1.046   6.377   7.219  0.1605  0.8000 -1.0318
  951TIP3    H224489   1.147   6.443   7.128  1.3732  1.1130  0.5005
  952TIP3   OH224490   2.901   0.754   7.137  0.1478 -0.7157  0.6652
  952TIP3    H124491   2.908   0.691   7.065 -0.6869  0.3448 -0.4000
  952TIP3    H224492   2.961   0.824   7.113 -0.0407 -0.4107  1.0787
  953TIP3   OH224493   3.411   5.068   0.551 -0.0878  0.1484 -0.0160
  953TIP3    H124494   3.467   5.056   0.474  0.2055  1.6454 -0.0687
  953TIP3    H224495   3.453   5.139   0.600 -0.3499 -0.6672  1.4609
  954TIP3   OH224496   6.005   3.432   8.297 -0.2763 -0.2386 -0.0458
  954TIP3    H124497   5.963   3.503   8.248 -2.1426 -1.4315 -0.2483
  954TIP3    H224498   5.968   3.438   8.384 -1.2107 -1.5497 -0.3295
  955TIP3   OH224499   0.777   3.879   8.241  0.3973 -0.3202  0.2354
  955TIP3    H124500   0.858   3.838   8.274  0.8988  0.5303  0.1031
  955TIP3    H224501   0.768   3.959   8.293  0.3540  0.2517 -0.6363
  956TIP3   OH224502   2.372   0.339   6.534 -0.0814  0.1986 -0.5746
  956TIP3    H124503   2.283   0.361   6.505  0.5401  0.9377 -1.9930
  956TIP3    H224504   2.370   0.244   6.546 -2.1388  0.5390  3.3106
  957TIP3   OH224505   2.781   3.732   6.894 -0.5749  0.0394 -0.2610
  957TIP3    H124506   2.876   3.747   6.889  0.0684 -2.5495  1.9701
  957TIP3    H224507   2.753   3.730   6.802  1.3983  1.3852 -0.9698
  958TIP3   OH224508   3.561   6.673   1.209 -0.0002 -0.2520  0.7659
  958TIP3    H124509   3.630   6.723   1.252  0.9291 -0.6382 -0.2248
  958TIP3    H224510   3.500   6.651   1.279 -0.0353  1.5763  1.3641
  959TIP3   OH224511   3.852   6.227   7.665 -0.4291 -0.5336  0.5241
  959TIP3    H124512   3.813   6.146   7.699  0.8227 -1.7780 -0.8602
  959TIP3    H224513   3.856   6.213   7.570  1.0529  0.5855  0.3929
  960TIP3   OH224514   0.568   4.323   1.438  0.1816 -0.4762  0.1103
  960TIP3    H124515   0.572   4.258   1.509  0.0280 -0.3965  0.1914
  960TIP3    H224516   0.607   4.278   1.363  1.7901 -0.0431  0.6402
  961TIP3   OH224517   2.101   2.557   2.313  0.0577 -0.2494 -0.1390
  961TIP3    H124518   2.069   2.487   2.256 -2.8820  0.4676  0.4754
  961TIP3    H224519   2.123   2.513   2.396  3.2988 -1.1193 -1.3040
  962TIP3   OH224520   5.322   0.782   1.125 -0.2166  0.2423  0.0934
  962TIP3    H124521   5.239   0.825   1.146 -0.0832 -0.4183  2.3005
  962TIP3    H224522   5.386   0.853   1.120 -0.6743  0.6336 -0.2082
  963TIP3   OH224523   1.724   2.988   0.535  0.0748 -0.0167 -0.6368
  963TIP3    H124524   1.735   3.074   0.493 -1.8188  0.0170 -1.1606
  963TIP3    H224525   1.631   2.984   0.556  0.3180 -1.5656  0.2637
  964TIP3   OH224526   0.175   3.720   0.021 -0.0169 -0.4112  0.1969
  964TIP3    H124527   0.143   3.664   0.092 -1.2872  1.7618  1.4669
  964TIP3    H224528   0.179   3.807   0.060  1.5432  0.4723 -1.7778
  965TIP3   OH224529   6.541   4.889   1.755 -0.1159  0.0320  0.4457
  965TIP3    H124530   6.459   4.847   1.726 -0.1992  1.3131 -1.3726
  965TIP3    H224531   6.512   4.962   1.810 -0.1252 -0.3935  1.0056
  966TIP3   OH224532   1.025   2.879   7.843 -0.1705 -0.0216 -0.7220
  966TIP3    H124533   1.027   2.793   7.801 -0.1532 -0.6575  0.5331
  966TIP3    H224534   1.117   2.902   7.856 -0.1253 -1.3753  1.9426
  967TIP3   OH224535   3.170   5.011   0.513  0.2026  0.0283 -0.4818
  967TIP3    H124536   3.170   4.924   0.472 -1.2467  0.4945 -1.5590
  967TIP3    H224537   3.262   5.038   0.511  0.8642 -1.8821  0.8409
  968TIP3   OH224538   2.558   1.469   6.679 -0.2660 -0.1163 -0.3220
  968TIP3    H124539   2.496   1.405   6.642 -1.0633  0.1208  0.5605
  968TIP3    H224540   2.528   1.482   6.769  0.1537  1.1546 -0.3450
  969TIP3   OH224541   3.630   3.159   0.881 -0.7452  0.4987 -0.1983
  969TIP3    H124542   3.662   3.162   0.971 -0.4510 -0.1013 -0.2799
  969TIP3    H224543   3.708   3.166   0.826 -0.4392 -2.8221 -0.4087
  970TIP3   OH224544   4.340   5.616   0.724 -0.3009  0.6062 -0.9488
  970TIP3    H124545   4.424   5.661   0.727 -0.3492  0.7484 -1.7067
  970TIP3    H224546   4.326   5.595   0.632  0.7254 -2.8656 -0.4346
  971TIP3   OH224547   1.131   5.226   8.134 -0.3551 -0.1088  0.0573
  971TIP3    H124548   1.049   5.185   8.162 -0.5390  0.2589  0.0548
  971TIP3    H224549   1.129   5.220   8.039 -0.1617 -0.5145  0.0738
  972TIP3   OH224550   0.701   2.671   2.286  0.0778 -0.5638  0.1790
  972TIP3    H124551   0.739   2.631   2.208  0.9778 -0.8756  0.7527
  972TIP3    H224552   0.777   2.693   2.341 -0.4934  0.3091  0.6533
  973TIP3   OH224553   6.535   6.520   2.228  0.3571 -0.1968 -0.5306
  973TIP3    H124554   6.622   6.507   2.266 -0.0145 -0.7429  0.1679
  973TIP3    H224555   6.519   6.441   2.177  0.5628  0.2286 -1.2744
  974TIP3   OH224556   4.694   5.063   1.654 -0.3648 -0.3535 -0.7001
  974TIP3    H124557   4.682   5.137   1.594  0.0257  1.0166  0.8409
  974TIP3    H224558   4.670   5.098   1.740  1.7787 -1.4131  0.4008
  975TIP3   OH224559   2.946   0.049   2.129 -0.1147  0.1479  0.1578
  975TIP3    H124560   2.973  -0.035   2.093 -1.7657 -0.7544  0.8882
  975TIP3    H224561   3.014   0.071   2.193 -0.5353 -1.5307  1.2367
  976TIP3   OH224562   1.793   0.856   1.783  0.4002 -0.3828 -0.2224
  976TIP3    H124563   1.763   0.768   1.758  0.2110 -0.3460 -0.1241
  976TIP3    H224564   1.873   0.840   1.833  0.9337 -0.4440 -1.0800
  977TIP3   OH224565   1.623   1.583   0.734  0.5893 -0.5085  0.4266
  977TIP3    H124566   1.627   1.545   0.822 -0.2620  0.1611  0.7610
  977TIP3    H224567   1.715   1.591   0.708  0.9059  0.2300  1.6667
  978TIP3   OH224568   1.845   1.176   0.843 -0.2249  0.6468 -0.6210
  978TIP3    H124569   1.932   1.205   0.872  0.0443  1.0730 -1.7669
  978TIP3    H224570   1.861   1.135   0.758 -0.9798 -0.5057 -0.2241
  979TIP3   OH224571   3.643   1.188   2.066  0.5307 -0.3206 -0.1113
  979TIP3    H124572   3.692   1.120   2.112 -0.5583 -0.9714  0.1408
  979TIP3    H224573   3.552   1.158   2.069  0.3257 -0.0237 -2.0887
  980TIP3   OH224574   6.839   3.932   7.566  0.4316  0.4247 -0.2685
  980TIP3    H124575   6.792   3.937   7.483 -0.3645  0.9913  0.2088
  980TIP3    H224576   6.929   3.908   7.541  0.2351  0.7117 -1.2936
  981TIP3   OH224577   1.622   5.912   0.910 -0.0043  0.3085  0.5439
  981TIP3    H124578   1.616   5.976   0.981 -0.0451  0.4482  0.4160
  981TIP3    H224579   1.531   5.900   0.882  0.1802  1.6590 -0.7270
  982TIP3   OH224580   2.796   5.568   6.515 -0.4208  0.2069  0.7739
  982TIP3    H124581   2.891   5.560   6.526 -0.3150  1.1654  0.7155
  982TIP3    H224582   2.783   5.660   6.492 -1.3849  0.1270  0.9576
  983TIP3   OH224583   4.887   5.552   1.210 -0.0136  0.1879 -0.2342
  983TIP3    H124584   4.945   5.542   1.135 -1.5852 -0.0111 -1.4644
  983TIP3    H224585   4.857   5.643   1.205  1.0822  0.6761  1.1171
  984TIP3   OH224586   5.506   6.052   1.282  0.4879 -0.4835  0.0150
  984TIP3    H124587   5.553   6.075   1.202  1.7972 -1.9205  0.3157
  984TIP3    H224588   5.432   6.000   1.253  0.3822 -0.1516 -0.3171
  985TIP3   OH224589   5.173   0.649   6.637 -0.4322 -0.1102 -0.0031
  985TIP3    H124590   5.095   0.605   6.670 -0.4387  0.1726  0.3577
  985TIP3    H224591   5.140   0.715   6.576 -0.4345 -0.4452 -0.3687
  986TIP3   OH224592   6.205   0.753   8.628 -0.1764 -0.0861 -0.0251
  986TIP3    H124593   6.274   0.797   8.578  1.5153 -2.0178  0.4499
  986TIP3    H224594   6.205   0.663   8.594 -3.8047  0.2388 -1.2826
  987TIP3   OH224595   0.311   5.487   6.933 -0.4165  0.0519  0.0261
  987TIP3    H124596   0.269   5.480   7.019 -0.0449  1.9407  0.4205
  987TIP3    H224597   0.399   5.453   6.946 -0.3230  0.4413  0.4431
  988TIP3   OH224598   3.142   4.556   8.045 -0.1725 -0.2596  0.1147
  988TIP3    H124599   3.064   4.591   8.086  0.3747 -1.0038  1.8945
  988TIP3    H224600   3.181   4.631   8.000 -0.8045  0.6124  0.9724
  989TIP3   OH224601   5.237   0.030   0.087 -0.1260  0.1884  0.1041
  989TIP3    H124602   5.244   0.048   0.181 -0.5372 -1.4188  0.4779
  989TIP3    H224603   5.224   0.115   0.047 -1.6144  0.7508  1.6840
  990TIP3   OH224604   5.723   4.692   0.282  0.3643 -0.5256  0.2031
  990TIP3    H124605   5.759   4.625   0.225 -0.3567 -1.2918  0.6261
  990TIP3    H224606   5.633   4.704   0.251  0.6637  0.6927 -0.2526
  991TIP3   OH224607   2.316   0.979   8.045  0.4258 -0.6204 -0.0386
  991TIP3    H124608   2.227   0.998   8.076 -0.4364 -0.1304 -2.6150
  991TIP3    H224609   2.367   1.056   8.071  0.2853 -1.1207  1.9093
  992TIP3   OH224610   5.061   1.759   6.686 -0.2717  0.0799  0.8181
  992TIP3    H124611   5.144   1.725   6.655  1.1304  1.8193  2.4129
  992TIP3    H224612   5.065   1.853   6.667 -0.4759  0.7467  3.6519
  993TIP3   OH224613   1.793   1.344   2.313  0.3766  0.1746  0.4067
  993TIP3    H124614   1.747   1.377   2.391 -1.7835  0.4113 -0.8930
  993TIP3    H224615   1.810   1.252   2.332  1.4296  0.6205  1.8096
  994TIP3   OH224616   4.564   4.764   0.306 -0.5635 -0.3508  0.3181
  994TIP3    H124617   4.642   4.709   0.305 -1.9225 -2.5854 -3.6765
  994TIP3    H224618   4.491   4.703   0.322 -1.7852  1.2543  1.2587
  995TIP3   OH224619   5.010   0.826   6.469  0.2136  0.4493  0.3946
  995TIP3    H124620   4.932   0.880   6.478  0.2841  1.1290 -2.0933
  995TIP3    H224621   4.984   0.756   6.409  1.4270  0.5905 -0.3443
  996TIP3   OH224622   2.610   1.441   2.674  0.2000 -0.0151  0.7968
  996TIP3    H124623   2.697   1.421   2.709  1.2459  0.0021 -1.6009
  996TIP3    H224624   2.627   1.484   2.590 -2.1361  1.9141  1.2213
  997TIP3   OH224625   6.175   0.058   6.355 -0.1039  0.3481 -0.5961
  997TIP3    H124626   6.267   0.037   6.368 -0.6325 -1.1449  1.1484
  997TIP3    H224627   6.133   0.038   6.438 -2.4824 -1.6855 -2.1336
  998TIP3   OH224628   3.267   3.376   1.585  0.4072  0.3082  0.2563
  998TIP3    H124629   3.336   3.311   1.602  0.0570 -0.0687  0.2598
  998TIP3    H224630   3.305   3.434   1.519  0.7997  0.2181  0.3988
  999TIP3   OH224631   3.371   1.709   0.605 -0.4198 -0.1617  0.3847
  999TIP3    H124632   3.358   1.638   0.542  1.4281  1.1415 -1.6441
  999TIP3    H224633   3.329   1.785   0.564 -0.6588  0.3705  1.5621
 1000TIP3   OH224634   4.070   2.792   0.333 -0.1124 -0.3319  0.1086
 1000TIP3    H124635   4.071   2.881   0.368 -0.5510  0.1559 -1.0622
 1000TIP3    H224636   4.076   2.736   0.411 -1.3268  0.6951  1.0010
 1001TIP3   OH224637   6.811   0.738   8.253  0.1445 -0.4213 -0.6627
 1001TIP3    H124638   6.811   0.821   8.301  0.2110 -0.5703 -0.4023
 1001TIP3    H224639   6.903   0.715   8.243  0.1260 -1.7401  1.5176
 1002TIP3   OH224640   2.533   0.780   0.466  0.5255  0.0743  0.3611
 1002TIP3    H124641   2.586   0.702   0.448 -0.3238 -0.1893 -1.1621
 1002TIP3    H224642   2.554   0.840   0.394  0.4124  0.8518  0.9687
 1003TIP3   OH224643   1.431   3.599   1.399 -0.4385  0.3890 -0.8933
 1003TIP3    H124644   1.492   3.594   1.326  0.6650  1.7179 -0.1349
 1003TIP3    H224645   1.483   3.573   1.475 -1.2232  0.1992 -0.4099
 1004TIP3   OH224646   0.508   5.583   2.246 -0.0443 -0.3297  0.0808
 1004TIP3    H124647   0.474   5.510   2.298  1.0234 -0.6832  0.3046
 1004TIP3    H224648   0.517   5.654   2.309 -3.1000  0.7490 -0.5158
 1005TIP3   OH224649   2.570   5.923   0.784  0.2766  0.3616  0.5783
 1005TIP3    H124650   2.585   5.895   0.874  1.1269  0.9211  0.6192
 1005TIP3    H224651   2.618   5.860   0.730 -2.1185 -1.4126  0.3232
 1006TIP3   OH224652   3.016   2.398   6.490 -0.1615  0.5733  0.4595
 1006TIP3    H124653   3.084   2.408   6.423  0.2315 -2.5888  0.2471
 1006TIP3    H224654   2.934   2.411   6.443  0.0578 -2.5367 -0.9807
 1007TIP3   OH224655   2.399   6.743   7.785 -0.4302 -0.6829 -0.0470
 1007TIP3    H124656   2.407   6.833   7.816  0.2795 -0.3985 -0.9900
 1007TIP3    H224657   2.453   6.740   7.706 -1.8156 -1.4743 -1.0054
 1008TIP3   OH224658   6.459   6.369   6.981  0.2705 -0.9969 -0.6397
 1008TIP3    H124659   6.394   6.300   6.997  0.0174 -0.3048  1.7063
 1008TIP3    H224660   6.471   6.411   7.067  1.8224  0.6547 -1.5971
 1009TIP3   OH224661   4.425   2.632   2.370 -0.2597 -0.3481  0.5115
 1009TIP3    H124662   4.346   2.645   2.318  0.3239 -0.8587 -0.5553
 1009TIP3    H224663   4.435   2.537   2.377 -0.0874 -0.2872  1.1953
 1010TIP3   OH224664   3.875   1.379   5.760  0.8577 -0.3686  0.5897
 1010TIP3    H124665   3.923   1.457   5.787 -0.0468  0.6927 -0.7434
 1010TIP3    H224666   3.845   1.339   5.841  1.4248  0.6102  1.2967
 1011TIP3   OH224667   3.150   3.658   0.840 -0.0627 -0.4379 -0.3535
 1011TIP3    H124668   3.109   3.715   0.775  0.5209  0.6642  0.2078
 1011TIP3    H224669   3.169   3.577   0.793 -0.2600  0.0893 -1.3756
 1012TIP3   OH224670   6.757   0.774   0.756  0.4661  0.4099 -0.2122
 1012TIP3    H124671   6.775   0.771   0.850 -0.1265  1.0028 -0.0747
 1012TIP3    H224672   6.806   0.851   0.725  2.2383 -0.8668 -0.7577
 1013TIP3   OH224673   2.646   6.189   0.760  0.4258  0.2731 -0.3083
 1013TIP3    H124674   2.605   6.122   0.814  0.3002 -0.4045 -1.2332
 1013TIP3    H224675   2.602   6.270   0.786  1.9841  0.3847  2.2833
 1014TIP3   OH224676   2.716   0.028   1.514 -0.5443 -0.7709  1.2592
 1014TIP3    H124677   2.738  -0.054   1.470 -0.8394  1.3984 -3.5425
 1014TIP3    H224678   2.800   0.062   1.544 -0.1407 -1.8038  1.3530
 1015TIP3   OH224679   5.859   0.542   1.072 -0.4866 -0.2735  0.0937
 1015TIP3    H124680   5.820   0.456   1.088 -1.3463  0.1890  0.5615
 1015TIP3    H224681   5.826   0.569   0.987  1.0235 -1.0599 -0.7831
 1016TIP3   OH224682   1.561   0.087   7.665 -0.1743 -0.5103  0.7775
 1016TIP3    H124683   1.586   0.171   7.628  0.8603 -1.4398 -0.7631
 1016TIP3    H224684   1.497   0.108   7.733 -0.9614  1.4060 -0.4876
 1017TIP3   OH224685   6.818   3.318   8.050 -0.3583 -0.0650 -0.2836
 1017TIP3    H124686   6.891   3.335   8.109  1.6226 -1.7853 -2.0589
 1017TIP3    H224687   6.740   3.330   8.104  1.3138 -1.6582  2.7459
 1018TIP3   OH224688   3.466   1.690   7.890  0.1982 -0.1588 -0.8256
 1018TIP3    H124689   3.375   1.716   7.904 -0.2260 -1.2518 -1.4307
 1018TIP3    H224690   3.460   1.602   7.852  1.5229 -0.5846 -0.1109
 1019TIP3   OH224691   0.203   0.380   8.046 -0.4402 -0.2083 -0.2197
 1019TIP3    H124692   0.248   0.365   7.963 -0.2076 -1.4071  0.1072
 1019TIP3    H224693   0.119   0.421   8.021  0.2720  0.8770 -0.9161
 1020TIP3   OH224694   1.059   1.036   0.150  0.4029 -0.2191  0.4264
 1020TIP3    H124695   1.147   1.022   0.114 -0.0654 -1.3188 -0.3235
 1020TIP3    H224696   1.024   1.108   0.097  1.3676  1.2769  1.7164
 1021TIP3   OH224697   4.137   6.391   0.331 -0.4022  0.1039 -0.1762
 1021TIP3    H124698   4.093   6.467   0.369 -1.3476  0.4145 -1.7770
 1021TIP3    H224699   4.175   6.424   0.249  0.6651 -0.7597 -0.0572
 1022TIP3   OH224700   1.338   0.781   0.237  0.0614 -0.6180  0.3550
 1022TIP3    H124701   1.251   0.769   0.275  0.1620 -1.3780  0.3553
 1022TIP3    H224702   1.359   0.697   0.197  0.6249 -0.3113 -0.0099
 1023TIP3   OH224703   5.947   3.160   2.579 -0.1273 -0.0508  0.0095
 1023TIP3    H124704   5.973   3.108   2.655 -1.5403 -0.0263  0.5376
 1023TIP3    H224705   5.932   3.248   2.614 -1.3305 -0.1702 -0.1771
 1024TIP3   OH224706   1.368   3.288   8.387  0.3575 -0.2449  0.1051
 1024TIP3    H124707   1.378   3.383   8.385  0.3750 -0.2460  0.1372
 1024TIP3    H224708   1.453   3.255   8.415  0.9441 -0.3816 -1.7047
 1025TIP3   OH224709   3.586   3.250   7.858 -0.2797  0.7578 -0.3513
 1025TIP3    H124710   3.592   3.166   7.811  0.5468  0.4386  0.2910
 1025TIP3    H224711   3.673   3.288   7.850 -0.7191  1.6911 -0.8482
 1026TIP3   OH224712   2.724   0.425   2.359  0.0437  0.4132  0.3677
 1026TIP3    H124713   2.756   0.351   2.410 -1.2664 -0.6070 -0.2514
 1026TIP3    H224714   2.641   0.449   2.401 -0.4520  0.3342 -0.5494
 1027TIP3   OH224715   6.651   2.956   1.267 -0.0307 -0.6008  0.0277
 1027TIP3    H124716   6.632   2.862   1.269  0.7713 -0.7704  0.0386
 1027TIP3    H224717   6.663   2.976   1.174 -0.8489 -0.3657 -0.0357
 1028TIP3   OH224718   3.034   3.898   0.272 -0.3363 -0.2241  0.0893
 1028TIP3    H124719   2.942   3.920   0.286 -0.2545  0.3152 -0.1516
 1028TIP3    H224720   3.081   3.976   0.301 -0.1778  1.1675 -3.3732
 1029TIP3   OH224721   4.599   6.468   7.974 -0.6024 -0.0174 -0.0075
 1029TIP3    H124722   4.665   6.531   8.002  1.9588 -2.4919 -0.0257
 1029TIP3    H224723   4.546   6.454   8.053  2.3159 -1.8657  1.8350
 1030TIP3   OH224724   0.605   5.379   2.468  0.0983 -0.0695  0.4864
 1030TIP3    H124725   0.654   5.405   2.546  0.9628  0.0184 -0.0655
 1030TIP3    H224726   0.661   5.314   2.425 -0.9006 -0.9961  0.5436
 1031TIP3   OH224727   2.296   5.258   1.573 -0.3170  0.5378 -0.2570
 1031TIP3    H124728   2.275   5.191   1.638  0.0527  1.9057  1.3533
 1031TIP3    H224729   2.274   5.341   1.616  1.1151  1.5781 -1.3987
 1032TIP3   OH224730   3.318   0.918   7.212  0.0870 -0.5054 -0.1161
 1032TIP3    H124731   3.290   0.864   7.286  0.9851 -2.4205 -1.0935
 1032TIP3    H224732   3.243   0.975   7.193 -1.5474 -2.5088  0.0056
 1033TIP3   OH224733   5.081   3.273   8.556 -0.0306 -0.3203 -0.2675
 1033TIP3    H124734   5.064   3.280   8.462  0.4692  1.7935 -0.2535
 1033TIP3    H224735   5.087   3.179   8.573  2.0126 -0.7396 -2.7596
 1034TIP3   OH224736   0.718   4.777   8.488  0.0150 -0.4764 -0.6561
 1034TIP3    H124737   0.696   4.793   8.397  1.6235  0.4253 -0.9231
 1034TIP3    H224738   0.783   4.844   8.510 -0.2716 -0.7145  1.1339
 1035TIP3   OH224739   1.251   5.889   8.232 -0.5572  0.3775 -0.5483
 1035TIP3    H124740   1.342   5.867   8.213 -0.5911 -2.6655  1.9715
 1035TIP3    H224741   1.200   5.821   8.189 -1.3995  0.3134  0.5029
 1036TIP3   OH224742   0.997   3.332   7.032  0.0118 -0.8182  0.0986
 1036TIP3    H124743   0.982   3.295   6.945  1.4724 -2.6982  0.5934
 1036TIP3    H224744   0.979   3.260   7.092  1.5373 -0.3219  1.2029
 1037TIP3   OH224745   5.283   1.102   1.044 -0.5790  0.1740 -0.5117
 1037TIP3    H124746   5.342   1.100   0.968  0.8396  1.4559  0.4857
 1037TIP3    H224747   5.198   1.076   1.009 -0.4218  2.5172 -2.9545
 1038TIP3   OH224748   5.089   5.785   1.648 -0.3096  0.3758 -0.4249
 1038TIP3    H124749   5.184   5.801   1.645 -0.3100  0.8924  1.1146
 1038TIP3    H224750   5.051   5.862   1.606 -0.0604  0.4442 -0.5285
 1039TIP3   OH224751   0.698   5.587   0.826  0.0246 -0.1404 -0.0161
 1039TIP3    H124752   0.766   5.609   0.890  0.9536 -0.6433 -0.8072
 1039TIP3    H224753   0.657   5.671   0.806 -1.1123 -0.1056  2.1117
 1040TIP3   OH224754   0.605   3.578   7.871 -0.1948 -0.1047 -0.1388
 1040TIP3    H124755   0.695   3.599   7.897 -0.3551  0.9161 -0.3715
 1040TIP3    H224756   0.611   3.490   7.833  0.8382  0.2149 -0.7664
 1041TIP3   OH224757   0.658   6.803   6.868  0.0394 -0.2597 -0.7625
 1041TIP3    H124758   0.681   6.719   6.830 -0.6429  0.0065 -1.8107
 1041TIP3    H224759   0.571   6.822   6.834 -0.9713 -0.3547  1.5714
 1042TIP3   OH224760   5.422   2.138   1.295  0.0092 -0.8457 -0.1185
 1042TIP3    H124761   5.334   2.165   1.320 -0.1450 -0.8389 -0.6583
 1042TIP3    H224762   5.408   2.072   1.226  0.4362  1.9433 -3.1386
 1043TIP3   OH224763   0.037   4.598   2.472 -0.2425  0.3556 -0.6326
 1043TIP3    H124764  -0.013   4.521   2.500  1.3024 -0.0459  1.1851
 1043TIP3    H224765   0.122   4.563   2.445  0.2418  1.3501 -0.4373
 1044TIP3   OH224766   6.370   3.803   0.651  0.3539 -0.1412 -0.8138
 1044TIP3    H124767   6.436   3.753   0.603 -0.7416 -2.5090 -0.0463
 1044TIP3    H224768   6.345   3.874   0.592  0.3052 -1.9081 -3.0443
 1045TIP3   OH224769   3.921   1.668   8.021 -0.6035 -0.6658  0.2369
 1045TIP3    H124770   3.841   1.695   8.066  0.0102 -0.3849  1.2000
 1045TIP3    H224771   3.973   1.626   8.089  0.1906 -0.5827 -0.3091
 1046TIP3   OH224772   4.569   3.158   2.349  0.2670 -0.0654  0.5307
 1046TIP3    H124773   4.564   3.086   2.412  0.9647 -0.4315  0.1942
 1046TIP3    H224774   4.644   3.210   2.378 -1.4216  1.7255  1.9496
 1047TIP3   OH224775   5.536   6.199   1.508 -0.0143 -0.5060 -0.5845
 1047TIP3    H124776   5.535   6.138   1.434  0.7266 -0.5265 -0.5893
 1047TIP3    H224777   5.600   6.162   1.569  0.3370  0.1810 -0.5235
 1048TIP3   OH224778   2.763   6.752   8.489 -0.3538 -0.0111 -0.4393
 1048TIP3    H124779   2.834   6.750   8.553 -0.3321  0.6516 -0.4317
 1048TIP3    H224780   2.799   6.710   8.411  0.3894  1.1580 -0.7563
 1049TIP3   OH224781   0.368   3.961   0.281  0.3244 -0.2239  0.1506
 1049TIP3    H124782   0.390   4.053   0.273 -0.3851  0.0334  0.9661
 1049TIP3    H224783   0.447   3.920   0.318  0.7654 -0.0156 -0.5538
 1050TIP3   OH224784   0.298   4.003   7.262 -0.2012 -0.3444  0.3553
 1050TIP3    H124785   0.222   3.964   7.220 -0.5379  0.0009  0.6403
 1050TIP3    H224786   0.340   3.930   7.308  0.1295 -0.7109 -0.5070
 1051TIP3   OH224787   3.589   2.346   8.485  0.4207 -0.7213  0.6989
 1051TIP3    H124788   3.499   2.378   8.491  0.3534  0.0475 -2.3556
 1051TIP3    H224789   3.643   2.423   8.505  0.3643 -0.6637  0.6307
 1052TIP3   OH224790   1.066   4.186   7.605  0.2867  0.2500 -0.3967
 1052TIP3    H124791   1.084   4.239   7.683 -1.4813  0.4972 -0.1110
 1052TIP3    H224792   1.053   4.097   7.639 -2.3139  0.6776 -0.1098
 1053TIP3   OH224793   3.050   5.429   0.380 -0.2251  0.2621 -0.8877
 1053TIP3    H124794   3.062   5.516   0.342 -0.4126  0.4512 -0.5155
 1053TIP3    H224795   3.092   5.433   0.465 -1.4243  0.4158 -0.2848
 1054TIP3   OH224796   0.028   1.559   7.300  0.0694  0.1061 -0.1283
 1054TIP3    H124797   0.029   1.538   7.207 -3.0965  0.6825 -0.3853
 1054TIP3    H224798   0.021   1.475   7.344 -2.0299 -0.0473 -0.6511
 1055TIP3   OH224799   6.087   2.547   1.135 -0.3462  0.9441 -0.1274
 1055TIP3    H124800   6.169   2.592   1.115  0.0457  0.1001 -0.4892
 1055TIP3    H224801   6.027   2.574   1.066 -0.4091  1.6430  0.1948
 1056TIP3   OH224802   4.771   2.221   7.925 -0.4874 -0.0716 -0.0114
 1056TIP3    H124803   4.686   2.196   7.962 -1.9911  2.9605 -1.0553
 1056TIP3    H224804   4.777   2.315   7.941  2.6525 -0.1447 -0.1714
 1057TIP3   OH224805   2.635   5.130   1.732  0.5589  0.1232  0.1153
 1057TIP3    H124806   2.625   5.166   1.644  0.9730 -2.3721 -1.0263
 1057TIP3    H224807   2.561   5.165   1.781 -1.3278 -0.6685 -2.0166
 1058TIP3   OH224808   5.221   4.221   8.197 -0.0319 -0.6637  0.2378
 1058TIP3    H124809   5.178   4.137   8.212  1.0690 -0.8804  2.7111
 1058TIP3    H224810   5.291   4.202   8.134  0.4583 -1.7208  1.0778
 1059TIP3   OH224811   3.733   1.412   7.301 -0.1329 -0.1376 -0.0547
 1059TIP3    H124812   3.673   1.350   7.258  0.8660 -0.7631 -0.5850
 1059TIP3    H224813   3.784   1.450   7.229  0.8248 -0.3891  0.4714
 1060TIP3   OH224814   3.932   4.137   8.154  0.3201  0.2379  0.1048
 1060TIP3    H124815   3.870   4.206   8.133 -1.1560 -1.5987 -2.1070
 1060TIP3    H224816   3.890   4.087   8.224 -0.0241 -0.1134 -0.3433
 1061TIP3   OH224817   3.165   3.567   8.166  0.0179  0.8058  0.5731
 1061TIP3    H124818   3.161   3.472   8.153  1.0817  0.8414 -0.1725
 1061TIP3    H224819   3.183   3.602   8.079 -0.7989  1.7412  0.7606
 1062TIP3   OH224820   0.539   0.926   1.634  0.2641 -0.4704 -0.0721
 1062TIP3    H124821   0.504   0.911   1.722  1.8725  1.5838  1.0140
 1062TIP3    H224822   0.532   1.020   1.621 -0.3725 -0.7979 -2.3821
 1063TIP3   OH224823   4.263   5.483   1.971 -0.2490  0.2841  0.3054
 1063TIP3    H124824   4.228   5.536   2.043  0.2922  0.0362  0.7643
 1063TIP3    H224825   4.358   5.492   1.979 -0.1020 -1.3237  0.8546
 1064TIP3   OH224826   6.397   4.603   2.166  0.5908  0.1969  0.2561
 1064TIP3    H124827   6.381   4.538   2.235 -0.5903 -0.0589 -0.2278
 1064TIP3    H224828   6.488   4.588   2.140  0.3849 -1.1963  0.2406
 1065TIP3   OH224829   6.770   0.479   0.403  0.2521 -0.5344  0.3919
 1065TIP3    H124830   6.855   0.523   0.396 -0.5343  1.2882  1.5296
 1065TIP3    H224831   6.761   0.458   0.496 -1.0170  0.3767  0.5032
 1066TIP3   OH224832   4.473   5.179   0.119 -0.2287 -0.1695  0.1516
 1066TIP3    H124833   4.381   5.191   0.095  0.3144  0.4589 -1.8028
 1066TIP3    H224834   4.515   5.262   0.097  1.2775 -1.3072 -1.5514
 1067TIP3   OH224835   3.489   2.974   6.089 -0.4444  0.0176 -0.1282
 1067TIP3    H124836   3.546   3.019   6.026 -1.8945 -1.1445 -2.4044
 1067TIP3    H224837   3.435   3.044   6.126  1.0914  0.8575  0.6428
 1068TIP3   OH224838   2.321   5.018   6.714 -0.1128  0.3217 -0.3057
 1068TIP3    H124839   2.307   5.112   6.730  0.7451  0.1417  1.8238
 1068TIP3    H224840   2.416   5.010   6.706 -0.1019 -0.4603  0.4665
 1069TIP3   OH224841   6.673   6.702   1.832 -0.0961 -0.2895  0.0767
 1069TIP3    H124842   6.755   6.670   1.871  0.2988  0.1973 -0.3355
 1069TIP3    H224843   6.606   6.679   1.896  0.2354 -1.5316 -0.0060
 1070TIP3   OH224844   1.727   5.254   0.017 -0.5129  0.1786  0.0438
 1070TIP3    H124845   1.677   5.222   0.093 -2.2659  0.8458 -0.7806
 1070TIP3    H224846   1.791   5.314   0.055 -2.1252  1.4186  0.9695
 1071TIP3   OH224847   6.650   2.363   7.886 -0.4858  0.2615  0.2467
 1071TIP3    H124848   6.720   2.379   7.949 -0.3592  1.3870 -0.1544
 1071TIP3    H224849   6.613   2.279   7.912  2.2991 -1.4024 -0.7105
 1072TIP3   OH224850   1.712   5.732   6.665 -0.4289 -0.0801 -0.1481
 1072TIP3    H124851   1.717   5.637   6.652 -3.2097 -0.6577  2.0806
 1072TIP3    H224852   1.624   5.756   6.635  0.3897  1.9395 -1.1217
 1073TIP3   OH224853   0.315   2.100   0.128  0.4911  0.2311 -0.1959
 1073TIP3    H124854   0.370   2.164   0.173  0.2519  0.4646 -0.2326
 1073TIP3    H224855   0.232   2.102   0.177  0.0526  0.8526 -0.9412
 1074TIP3   OH224856   1.677   4.550   8.026 -0.1186  0.1017  0.2859
 1074TIP3    H124857   1.646   4.498   8.100 -0.9117  1.1788  0.7458
 1074TIP3    H224858   1.707   4.632   8.065 -0.8317  0.8048 -0.5977
 1075TIP3   OH224859   4.121   6.066   0.097  0.2208  0.0021 -0.2425
 1075TIP3    H124860   4.037   6.026   0.117  0.6089  0.0836  1.6670
 1075TIP3    H224861   4.104   6.160   0.097  0.2369  0.0052 -0.2473
 1076TIP3   OH224862   4.351   1.708   2.537  0.2723 -0.3871 -0.6583
 1076TIP3    H124863   4.414   1.650   2.495 -0.3808 -0.9267 -0.9140
 1076TIP3    H224864   4.266   1.671   2.514 -0.1093 -0.6432  1.0342
 1077TIP3   OH224865   2.633   2.218   0.392  0.4613  0.4741 -0.0074
 1077TIP3    H124866   2.637   2.303   0.436  0.1957  1.0756 -1.1334
 1077TIP3    H224867   2.628   2.239   0.299  0.1502 -0.7696 -0.2851
 1078TIP3   OH224868   2.687   2.784   1.471  0.5217  0.0523 -0.1466
 1078TIP3    H124869   2.711   2.876   1.464 -1.5406  0.8179  1.5856
 1078TIP3    H224870   2.667   2.757   1.381 -2.1101  2.3505 -0.3956
 1079TIP3   OH224871   6.669   0.725   7.262  0.5083  0.0301  0.1500
 1079TIP3    H124872   6.700   0.798   7.208  2.3645 -1.4809 -0.9476
 1079TIP3    H224873   6.630   0.767   7.339  0.3089  2.1861 -1.0423
 1080TIP3   OH224874   5.995   5.757   7.136  0.4967  0.2780 -0.1402
 1080TIP3    H124875   6.014   5.731   7.045 -0.5217 -0.1972 -0.2427
 1080TIP3    H224876   5.926   5.696   7.163 -1.0901  2.0820  0.0644
 1081TIP3   OH224877   1.296   5.478   1.326  0.2021  0.0101 -0.2558
 1081TIP3    H124878   1.268   5.452   1.414 -0.2746  1.6850  0.1235
 1081TIP3    H224879   1.243   5.424   1.267  0.4512 -1.0509  0.4678
 1082TIP3   OH224880   2.431   2.265   1.322 -0.5542  0.0938 -0.2719
 1082TIP3    H124881   2.338   2.264   1.343 -0.6425 -1.1739 -0.6407
 1082TIP3    H224882   2.440   2.329   1.252 -1.0558  0.6293  0.1536
 1083TIP3   OH224883   2.258   2.180   8.201  0.2473  0.1900 -0.1560
 1083TIP3    H124884   2.336   2.231   8.221  2.0240 -1.7484 -1.6693
 1083TIP3    H224885   2.281   2.091   8.227 -0.9570 -0.6603 -1.8280
 1084TIP3   OH224886   5.551   4.583   1.032 -0.2251 -0.0547 -0.2588
 1084TIP3    H124887   5.472   4.534   1.052  0.3271 -1.6033 -1.6581
 1084TIP3    H224888   5.623   4.524   1.054  0.6495  1.6399  1.8498
 1085TIP3   OH224889   5.179   0.080   1.735 -0.2124  0.4484  0.1511
 1085TIP3    H124890   5.216   0.006   1.686  0.7912  0.7398  0.4619
 1085TIP3    H224891   5.230   0.156   1.707 -1.3353  1.0734 -0.2839
 1086TIP3   OH224892   0.511   3.242   6.310 -0.2445 -0.3490 -0.0760
 1086TIP3    H124893   0.488   3.333   6.333  0.4539 -0.9848  4.0071
 1086TIP3    H224894   0.427   3.196   6.310 -0.4752  0.0495 -0.9428
 1087TIP3   OH224895   5.728   2.322   8.498 -0.3658  0.0974 -0.5044
 1087TIP3    H124896   5.656   2.360   8.549 -0.6143  1.6235 -1.9301
 1087TIP3    H224897   5.782   2.397   8.473 -0.2828 -0.5791 -2.5143
 1088TIP3   OH224898   4.352   4.595   8.481 -0.9944  0.3299  0.0962
 1088TIP3    H124899   4.400   4.610   8.562 -1.0404  1.3325 -0.0519
 1088TIP3    H224900   4.301   4.674   8.467 -0.7167  0.3297 -1.1031
 1089TIP3   OH224901   5.794   4.320   1.488  0.4548  0.0362  0.1529
 1089TIP3    H124902   5.798   4.415   1.499  0.5850 -0.0181  0.6072
 1089TIP3    H224903   5.835   4.303   1.403  1.5126  0.2873  0.6001
 1090TIP3   OH224904   2.169   2.428   7.342 -0.2151  0.7517  0.0425
 1090TIP3    H124905   2.080   2.426   7.306  0.1183  0.0748 -0.7899
 1090TIP3    H224906   2.168   2.499   7.406 -0.8646  1.9631 -1.2595
 1091TIP3   OH224907   1.027   3.029   7.012  0.4700  0.3582 -0.6945
 1091TIP3    H124908   1.066   3.043   6.925 -0.4937 -2.0399 -1.6065
 1091TIP3    H224909   1.077   2.957   7.050 -0.6250 -0.2287 -0.3047
 1092TIP3   OH224910   5.375   3.563   1.722 -0.8130  0.3358 -0.0025
 1092TIP3    H124911   5.333   3.504   1.660 -2.4542  1.0086  0.3979
 1092TIP3    H224912   5.333   3.648   1.705  0.5991  1.1044  0.2623
 1093TIP3   OH224913   6.867   0.459   7.944  0.5143 -0.0565  0.2647
 1093TIP3    H124914   6.870   0.392   7.876 -0.7450  0.7391 -0.6115
 1093TIP3    H224915   6.888   0.541   7.899  0.4542  0.3700  0.9925
 1094TIP3   OH224916   4.688   0.655   0.210  0.1133  0.0054 -0.2975
 1094TIP3    H124917   4.659   0.741   0.179  1.0510  0.7922  0.8823
 1094TIP3    H224918   4.646   0.592   0.152 -2.1442  1.1613 -0.0125
 1095TIP3   OH224919   1.360   4.266   8.446 -0.1899 -0.0177 -0.2566
 1095TIP3    H124920   1.440   4.232   8.486 -2.1606 -4.1483  0.7282
 1095TIP3    H224921   1.297   4.270   8.519 -1.9323 -0.9005 -1.6400
 1096TIP3   OH224922   6.107   3.384   1.799 -0.5028  0.4437  0.4664
 1096TIP3    H124923   6.139   3.317   1.859  1.6405  2.3427  1.6282
 1096TIP3    H224924   6.084   3.458   1.856  0.5885  1.9391 -0.9242
 1097TIP3   OH224925   5.183   2.521   0.508 -0.1070  0.1974  0.6674
 1097TIP3    H124926   5.177   2.427   0.524  0.9640 -0.1931 -0.9256
 1097TIP3    H224927   5.097   2.546   0.475 -0.0145 -0.5404 -0.1946
 1098TIP3   OH224928   2.393   5.338   0.880  0.4922  0.9599  0.0376
 1098TIP3    H124929   2.324   5.300   0.825 -1.3503  0.6085  2.4079
 1098TIP3    H224930   2.458   5.370   0.818 -0.1548 -1.7224 -2.2722
 1099TIP3   OH224931   0.482   5.192   1.007 -0.5036  0.1204 -0.0339
 1099TIP3    H124932   0.577   5.197   1.019 -0.2593 -0.5158 -1.4831
 1099TIP3    H224933   0.450   5.155   1.089  0.5286  0.0381  0.3588
 1100TIP3   OH224934   4.517   5.966   7.229 -0.0322  0.0861  0.3981
 1100TIP3    H124935   4.497   5.965   7.136  1.4257 -0.8370  0.0594
 1100TIP3    H224936   4.549   6.055   7.246 -1.3655  0.6136  0.3032
 1101TIP3   OH224937   0.179   6.763   1.120 -0.1147 -0.3431  0.4179
 1101TIP3    H124938   0.244   6.754   1.190 -0.1321  1.3189  0.7057
 1101TIP3    H224939   0.230   6.758   1.039  0.3849  0.7230  0.6413
 1102TIP3   OH224940   2.997   4.557   6.640 -0.2047  0.6825 -0.1596
 1102TIP3    H124941   3.072   4.567   6.581  0.7818 -1.4926  0.6094
 1102TIP3    H224942   2.921   4.554   6.582  0.1308  3.6444 -0.9164
 1103TIP3   OH224943   5.490   6.388   7.283  0.0601 -0.0363  0.4482
 1103TIP3    H124944   5.561   6.342   7.238 -0.0625  1.4912 -1.4668
 1103TIP3    H224945   5.416   6.328   7.278  0.4294 -0.4570 -0.1965
 1104TIP3   OH224946   2.930   0.380   0.933  0.1942 -0.3125  0.3825
 1104TIP3    H124947   2.994   0.447   0.956  0.2953  0.2275 -1.2921
 1104TIP3    H224948   2.862   0.388   0.999  0.6646  0.8055  0.7639
 1105TIP3   OH224949   1.675   0.393   7.660  0.3957  0.2976  0.3296
 1105TIP3    H124950   1.677   0.377   7.754 -0.0202  0.4594  0.3673
 1105TIP3    H224951   1.631   0.478   7.651 -0.6794 -0.2951 -0.0907
 1106TIP3   OH224952   5.619   3.817   7.581  0.4448  0.4931  0.2781
 1106TIP3    H124953   5.581   3.801   7.495  2.9999 -0.8167 -0.7252
 1106TIP3    H224954   5.585   3.902   7.608 -0.5586  0.8455 -1.9504
 1107TIP3   OH224955   3.925   4.403   7.051  0.0804  0.2227  0.6017
 1107TIP3    H124956   3.940   4.492   7.084  2.2733 -0.6434  2.1732
 1107TIP3    H224957   3.864   4.364   7.113  0.0600  0.2468  0.5972
 1108TIP3   OH224958   2.133   0.322   2.127  0.1521 -0.4295  0.5323
 1108TIP3    H124959   2.098   0.365   2.204 -0.3160  0.1480  0.0068
 1108TIP3    H224960   2.177   0.244   2.161  0.5249  0.1607  1.4406
 1109TIP3   OH224961   0.119   4.487   8.399  0.5836 -0.3840  0.7529
 1109TIP3    H124962   0.078   4.405   8.426 -0.0628 -0.6098 -0.8162
 1109TIP3    H224963   0.075   4.555   8.451  0.4506 -0.9270  1.3575
 1110TIP3   OH224964   1.859   1.995   8.300 -0.2273  0.3140 -0.9632
 1110TIP3    H124965   1.849   2.090   8.305  0.0013  0.2917  0.1489
 1110TIP3    H224966   1.877   1.977   8.208 -0.1278  1.3677 -1.1537
 1111TIP3   OH224967   6.062   5.175   0.752 -0.2020  0.0412  0.4899
 1111TIP3    H124968   6.006   5.109   0.793 -1.4881  0.9234  0.1880
 1111TIP3    H224969   6.060   5.154   0.659 -1.8825  1.3637  0.1699
 1112TIP3   OH224970   2.773   0.595   8.462  0.2927 -0.1840  0.5091
 1112TIP3    H124971   2.831   0.669   8.446  1.2847 -1.1819 -0.6600
 1112TIP3    H224972   2.701   0.607   8.400  0.8742 -0.6169 -0.2664
 1113TIP3   OH224973   6.070   4.705   8.590 -0.0755  0.5169 -0.3942
 1113TIP3    H124974   6.067   4.742   8.502 -1.2011  1.2791 -0.0491
 1113TIP3    H224975   6.073   4.781   8.648 -1.3227  0.0773  0.2831
 1114TIP3   OH224976   1.823   5.541   1.674 -0.2540 -0.3705 -0.2599
 1114TIP3    H124977   1.812   5.528   1.768  0.5997 -0.6070 -0.1824
 1114TIP3    H224978   1.857   5.457   1.643  1.4299  0.3462 -0.4356
 1115TIP3   OH224979   1.181   2.750   8.513 -0.2505  0.4748 -0.4610
 1115TIP3    H124980   1.147   2.820   8.568  1.0330 -0.0843  1.1198
 1115TIP3    H224981   1.175   2.785   8.424 -1.3796  1.8322  0.1049
 1116TIP3   OH224982   1.384   4.235   8.171 -0.2121  0.7206 -0.4580
 1116TIP3    H124983   1.393   4.235   8.267  2.3159 -0.1988 -0.6213
 1116TIP3    H224984   1.451   4.297   8.141 -0.2151  0.1645 -1.6629
 1117TIP3   OH224985   0.350   1.352   8.337  0.4802  0.5101 -0.4780
 1117TIP3    H124986   0.410   1.330   8.267  2.7793  0.7333  1.2912
 1117TIP3    H224987   0.291   1.418   8.300  0.5936 -0.5169 -2.5863
 1118TIP3   OH224988   2.050   2.075   8.067 -0.1091 -0.5731  0.4513
 1118TIP3    H124989   2.102   2.140   8.113  0.9024  0.6320 -2.1678
 1118TIP3    H224990   2.091   1.991   8.089  1.4940  0.1376  0.3230
 1119TIP3   OH224991   2.746   1.900   7.160  0.1756 -0.2019  0.1202
 1119TIP3    H124992   2.734   1.995   7.150  0.1576 -0.1497  0.5843
 1119TIP3    H224993   2.779   1.871   7.076 -1.7404 -0.1132 -0.7170
 1120TIP3   OH224994   1.139   0.864   8.355  0.3754 -0.1821  0.5194
 1120TIP3    H124995   1.088   0.834   8.279 -0.0950  0.2614  0.6540
 1120TIP3    H224996   1.080   0.923   8.402  0.8517 -0.0327  0.9410
 1121TIP3   OH224997   4.262   4.311   0.248 -0.3015 -0.1100 -0.2284
 1121TIP3    H124998   4.357   4.323   0.249 -0.2190 -0.0079 -2.7650
 1121TIP3    H224999   4.249   4.218   0.233 -0.5347  0.1712 -1.9001
 1122TIP3   OH225000   2.484   5.372   0.307  0.0400 -0.2378  0.2955
 1122TIP3    H125001   2.507   5.440   0.244 -0.0308 -0.8300 -0.3760
 1122TIP3    H225002   2.569   5.335   0.334  0.3122  1.7806  2.6094
 1123TIP3   OH225003   1.784   1.747   8.415 -0.3105 -0.1960  0.5403
 1123TIP3    H125004   1.783   1.822   8.355 -1.5345 -1.5058 -1.1308
 1123TIP3    H225005   1.877   1.735   8.435  0.3666 -0.7520 -2.4664
 1124TIP3   OH225006   0.561   1.702   1.774  0.3854  0.4307  0.0118
 1124TIP3    H125007   0.474   1.725   1.739  0.5795 -0.1354 -0.8760
 1124TIP3    H225008   0.542   1.650   1.852 -0.1088 -0.7710 -0.8747
 1125TIP3   OH225009   4.602   1.512   8.486  0.1056 -0.2038  0.3921
 1125TIP3    H125010   4.569   1.600   8.501  0.6108  0.1279 -0.3894
 1125TIP3    H225011   4.665   1.498   8.557 -0.1933 -0.0612  0.6927
 1126TIP3   OH225012   5.527   0.273   1.288 -0.4537 -0.4457 -0.1323
 1126TIP3    H125013   5.496   0.363   1.298  1.5445  0.0142  3.5309
 1126TIP3    H225014   5.585   0.277   1.212 -1.4844  0.9526 -0.9212
 1127TIP3   OH225015   4.316   4.903   0.188  0.4900  0.6393 -0.0765
 1127TIP3    H125016   4.256   4.947   0.128  1.3136  0.0476 -1.4026
 1127TIP3    H225017   4.292   4.810   0.182  0.8974  0.5174  0.1289
 1128TIP3   OH225018   2.660   5.254   6.781  0.2465  0.2452 -0.3887
 1128TIP3    H125019   2.599   5.325   6.762 -0.7649 -0.2394  0.8582
 1128TIP3    H225020   2.614   5.175   6.752  1.1446  0.0374 -1.2940
 1129TIP3   OH225021   2.818   0.424   7.944  0.1172  0.2083 -0.4321
 1129TIP3    H125022   2.832   0.419   8.038  1.1422  0.0964 -0.5760
 1129TIP3    H225023   2.725   0.404   7.932  0.2222 -0.8669  0.4498
 1130TIP3   OH225024   6.433   0.264   8.374  0.1359 -0.7669 -0.5698
 1130TIP3    H125025   6.486   0.272   8.454 -0.2770 -0.4599 -0.3209
 1130TIP3    H225026   6.473   0.192   8.326  0.2147 -1.1476  0.0502
 1131TIP3   OH225027   1.477   4.204   1.970 -0.1556 -0.1044  0.1065
 1131TIP3    H125028   1.499   4.206   1.877 -3.0712 -1.3072 -0.7295
 1131TIP3    H225029   1.403   4.265   1.979  1.4027  1.6287  2.1251
 1132TIP3   OH225030   2.776   3.345   1.792 -0.1220 -0.1963 -0.0625
 1132TIP3    H125031   2.867   3.376   1.800  0.0052 -0.4731 -0.4346
 1132TIP3    H225032   2.784   3.251   1.776 -0.5297 -0.5463  1.6517
 1133TIP3   OH225033   0.352   4.860   0.671 -0.9210  0.1896 -0.1166
 1133TIP3    H125034   0.266   4.818   0.681 -0.6386 -0.7459 -1.3893
 1133TIP3    H225035   0.341   4.946   0.711 -1.6491 -0.8992  2.2713
 1134TIP3   OH225036   1.034   4.968   2.334  0.5252 -0.1193 -0.4863
 1134TIP3    H125037   0.978   4.911   2.386  1.8474 -1.7018 -0.7051
 1134TIP3    H225038   1.028   5.054   2.377 -0.6750 -0.6718  0.4973
 1135TIP3   OH225039   0.872   4.920   1.775  0.1367  0.6610  0.5982
 1135TIP3    H125040   0.910   4.989   1.830  0.9290  0.6776  0.0492
 1135TIP3    H225041   0.890   4.948   1.686  0.4073 -0.2243  0.3642
 1136TIP3   OH225042   6.730   4.929   7.693  0.3012  0.6497  0.2304
 1136TIP3    H125043   6.706   4.839   7.717 -1.8826  1.1315  0.0669
 1136TIP3    H225044   6.809   4.919   7.639 -1.0248 -1.3873 -1.5212
 1137TIP3   OH225045   4.201   6.709   0.425  0.4332  0.4335  0.8637
 1137TIP3    H125046   4.259   6.633   0.430  1.5555  1.1830 -0.1900
 1137TIP3    H225047   4.120   6.680   0.468  0.2346 -1.8840 -0.8962
 1138TIP3   OH225048   4.927   1.583   2.276 -0.4619  0.1637  0.3431
 1138TIP3    H125049   4.901   1.634   2.352 -2.0457 -1.3145  0.8549
 1138TIP3    H225050   4.992   1.521   2.309 -0.5673  0.0412  0.3210
 1139TIP3   OH225051   4.587   3.911   7.805  0.5863 -0.7637 -0.0011
 1139TIP3    H125052   4.646   3.911   7.729 -0.2217 -3.0163 -0.6975
 1139TIP3    H225053   4.530   3.986   7.789  1.2435 -0.4279 -0.9439
 1140TIP3   OH225054   2.770   4.458   7.998 -0.3485 -0.5671 -0.0343
 1140TIP3    H125055   2.861   4.457   7.968  0.0160  1.2218  0.8682
 1140TIP3    H225056   2.764   4.384   8.058  0.2841 -1.1674 -0.6886
 1141TIP3   OH225057   2.567   0.603   6.273 -0.3264  0.1187  0.3025
 1141TIP3    H125058   2.534   0.690   6.253  2.8039  1.8910  2.1684
 1141TIP3    H225059   2.551   0.591   6.367  1.4167 -0.2378  0.5936
 1142TIP3   OH225060   3.814   3.037   1.351  0.9947 -0.0109  0.4202
 1142TIP3    H125061   3.737   3.031   1.407  0.7616  2.1723  0.4352
 1142TIP3    H225062   3.838   2.946   1.333 -3.3277 -0.9740 -2.0515
 1143TIP3   OH225063   0.169   0.666   6.948  0.0240  0.1025 -0.2292
 1143TIP3    H125064   0.140   0.626   6.866 -0.7017 -0.1151  0.1277
 1143TIP3    H225065   0.115   0.625   7.016  1.5350 -0.7169  0.5273
 1144TIP3   OH225066   4.205   4.517   0.784 -0.5732 -0.4759  0.0006
 1144TIP3    H125067   4.238   4.427   0.784 -0.7622 -0.5731 -1.4492
 1144TIP3    H225068   4.132   4.515   0.845 -0.5292 -1.3036  0.0427
 1145TIP3   OH225069   2.667   3.207   1.056 -0.1625  0.0141 -0.0938
 1145TIP3    H125070   2.670   3.293   1.013  3.1786  1.0872  1.8819
 1145TIP3    H225071   2.698   3.146   0.989  1.0644  0.9980 -0.4717
 1146TIP3   OH225072   0.443   6.533   8.112  0.1887 -0.1858 -0.3355
 1146TIP3    H125073   0.438   6.608   8.171 -2.5202 -0.2434 -0.3601
 1146TIP3    H225074   0.470   6.570   8.028 -0.3143  0.6319 -0.1482
 1147TIP3   OH225075   2.209   6.763   1.611  0.0379 -0.2770  0.2618
 1147TIP3    H125076   2.259   6.844   1.613  0.7686 -0.7306  0.9050
 1147TIP3    H225077   2.269   6.699   1.573  0.1202 -0.9378  1.4653
 1148TIP3   OH225078   6.802   4.393   7.219 -0.3234  0.7921  0.0624
 1148TIP3    H125079   6.773   4.458   7.283 -1.0651 -2.3421  3.3148
 1148TIP3    H225080   6.737   4.397   7.149 -2.4172  1.2814  1.8988
 1149TIP3   OH225081   5.932   6.041   7.796  0.3823  0.4418  0.0112
 1149TIP3    H125082   5.971   5.961   7.830  1.9930  0.8465 -0.7464
 1149TIP3    H225083   5.911   6.093   7.873  1.1598  0.1048  0.4608
 1150TIP3   OH225084   5.376   4.966   0.325  0.1268 -0.1747 -0.4553
 1150TIP3    H125085   5.456   5.018   0.315  2.3680 -2.8444  1.6721
 1150TIP3    H225086   5.309   5.030   0.348  1.9947  2.0473 -0.7363
 1151TIP3   OH225087   5.450   1.852   1.794  0.2255  0.4236 -0.2630
 1151TIP3    H125088   5.409   1.791   1.733 -0.5284  2.0485 -1.4793
 1151TIP3    H225089   5.436   1.813   1.880 -0.3145 -1.0423 -0.9846
 1152TIP3   OH225090   5.186   6.284   1.599 -0.4747  0.2384  0.3838
 1152TIP3    H125091   5.147   6.252   1.518 -2.6913  0.0472  1.4561
 1152TIP3    H225092   5.119   6.342   1.636  0.6570  0.6471  1.8769
 1153TIP3   OH225093   6.899   4.678   8.584 -0.1294 -0.0223 -0.1507
 1153TIP3    H125094   6.870   4.649   8.670  0.0484 -0.7277 -0.3243
 1153TIP3    H225095   6.911   4.773   8.593  1.3928 -0.2942  1.0592
 1154TIP3   OH225096   0.701   0.718   6.976  0.4062  0.4890  0.6065
 1154TIP3    H125097   0.777   0.755   7.021 -1.3141  1.7602  2.7066
 1154TIP3    H225098   0.682   0.780   6.906  2.5540 -1.0183 -1.4553
 1155TIP3   OH225099   2.576   6.801   6.392  0.6304 -0.0528  0.0407
 1155TIP3    H125100   2.612   6.726   6.439 -0.5669 -0.9032 -0.3320
 1155TIP3    H225101   2.547   6.765   6.308 -1.8908  0.3294  0.6623
 1156TIP3   OH225102   5.595   3.490   1.284 -0.3027  0.1506  0.1187
 1156TIP3    H125103   5.658   3.479   1.355 -0.3066 -1.5798 -0.0963
 1156TIP3    H225104   5.519   3.531   1.326  0.3267  0.6893  0.7470
 1157TIP3   OH225105   5.996   1.110   7.866 -0.1120 -0.1060 -0.7461
 1157TIP3    H125106   6.034   1.166   7.799 -0.0523  2.1808  1.0560
 1157TIP3    H225107   5.970   1.171   7.936  2.3027 -2.4538  2.5220
 1158TIP3   OH225108   6.160   0.311   1.728  0.1046  0.1992  0.0598
 1158TIP3    H125109   6.157   0.268   1.642 -1.4115 -1.4764  0.8753
 1158TIP3    H225110   6.251   0.302   1.756  0.9762  2.0381 -1.9118
 1159TIP3   OH225111   2.673   6.009   1.237 -0.2504 -0.0021  0.0340
 1159TIP3    H125112   2.767   6.020   1.218 -0.4215  0.2921 -0.6503
 1159TIP3    H225113   2.641   5.953   1.166 -0.7419  0.4999 -0.1416
 1160TIP3   OH225114   1.320   3.657   7.055 -0.2008  0.1666  0.1051
 1160TIP3    H125115   1.230   3.626   7.046 -0.6400  1.7454 -1.6098
 1160TIP3    H225116   1.373   3.586   7.019 -0.8059 -0.4892  0.4878
 1161TIP3   OH225117   3.497   3.058   8.456  0.0642  0.1367 -0.2494
 1161TIP3    H125118   3.559   3.060   8.384 -0.5341  2.5608 -0.7953
 1161TIP3    H225119   3.411   3.058   8.413 -0.2937  0.3578  0.4559
 1162TIP3   OH225120   4.087   2.612   7.126  0.1950 -0.1258  0.0513
 1162TIP3    H125121   4.069   2.691   7.175  0.2679  1.1450 -1.8545
 1162TIP3    H225122   4.001   2.575   7.106  0.0221  0.8335 -1.1010
 1163TIP3   OH225123   3.839   6.504   1.908  0.2353 -0.1305  0.2401
 1163TIP3    H125124   3.805   6.448   1.978 -0.9477 -2.0919 -1.7412
 1163TIP3    H225125   3.764   6.559   1.883  0.1670 -0.5451 -0.4895
 1164TIP3   OH225126   1.664   3.155   6.644 -0.3514  0.1189  0.1289
 1164TIP3    H125127   1.646   3.242   6.609 -1.7706 -0.7090 -1.3402
 1164TIP3    H225128   1.578   3.121   6.670  0.4385  0.0416  3.0073
 1165TIP3   OH225129   1.107   2.644   1.226  0.4815 -0.0692 -0.3051
 1165TIP3    H125130   1.161   2.723   1.229 -0.1067  0.3868 -1.1180
 1165TIP3    H225131   1.037   2.666   1.164 -0.0455 -1.0085 -0.0576
 1166TIP3   OH225132   1.625   5.927   2.503  0.3197  0.0194  0.4323
 1166TIP3    H125133   1.710   5.889   2.528 -0.5478 -2.5691 -0.2260
 1166TIP3    H225134   1.637   5.953   2.412 -0.2930 -3.0454 -0.6525
 1167TIP3   OH225135   3.834   0.924   7.295 -0.1930  0.2352 -0.5850
 1167TIP3    H125136   3.747   0.958   7.314 -0.5253 -0.3871 -0.9502
 1167TIP3    H225137   3.888   1.001   7.281 -0.6026  0.6357 -0.0088
 1168TIP3   OH225138   5.618   6.542   6.872 -0.2411 -0.0895 -0.1528
 1168TIP3    H125139   5.694   6.599   6.884 -0.8329  0.6915 -0.0251
 1168TIP3    H225140   5.550   6.582   6.926 -0.1011 -2.0664  1.5802
 1169TIP3   OH225141   6.676   1.190   1.493  0.6351 -0.2248  0.2025
 1169TIP3    H125142   6.645   1.260   1.437  2.0876  1.8986  1.9027
 1169TIP3    H225143   6.770   1.205   1.501  1.5553 -3.9718 -1.4684
 1170TIP3   OH225144   0.044   6.041   8.080 -0.1680  0.2595  0.2651
 1170TIP3    H125145   0.099   5.970   8.113  3.1831  1.9949 -1.1014
 1170TIP3    H225146   0.048   6.032   7.985  0.0289  2.0008  0.0774
 1171TIP3   OH225147   2.617   0.909   1.403  0.0982  0.2871  0.2269
 1171TIP3    H125148   2.608   0.981   1.340  1.1284  0.0849 -0.1753
 1171TIP3    H225149   2.691   0.934   1.458  1.8779 -1.3622 -1.2442
 1172TIP3   OH225150   0.977   2.510   0.990  0.2380 -0.1755 -0.3498
 1172TIP3    H125151   1.049   2.546   0.937  0.9889  0.3470  0.9994
 1172TIP3    H225152   1.020   2.449   1.050 -0.4371  0.1922  0.5250
 1173TIP3   OH225153   4.900   5.828   6.725 -0.1752 -0.0259  0.1858
 1173TIP3    H125154   4.976   5.874   6.692  0.0346 -0.1709  0.4588
 1173TIP3    H225155   4.859   5.790   6.648  0.4388 -0.5584  0.1142
 1174TIP3   OH225156   0.876   2.847   1.371 -0.3904  0.1357  0.2774
 1174TIP3    H125157   0.937   2.861   1.443  1.3111  0.0170 -1.0745
 1174TIP3    H225158   0.837   2.761   1.387 -0.5525  0.4010  1.3804
 1175TIP3   OH225159   2.625   0.089   1.935 -0.1576  0.0406 -0.3448
 1175TIP3    H125160   2.534   0.102   1.907 -0.8573 -0.7606  1.3763
 1175TIP3    H225161   2.621   0.014   1.995  1.5341  0.3975  0.2742
 1176TIP3   OH225162   1.773   6.690   0.244 -0.4526 -0.1926 -0.2125
 1176TIP3    H125163   1.708   6.631   0.282  2.1697 -2.8928  0.4081
 1176TIP3    H225164   1.803   6.743   0.317 -0.1518 -0.7371  0.0644
 1177TIP3   OH225165   2.117   5.521   1.202 -0.1746 -0.7133 -0.5700
 1177TIP3    H125166   2.161   5.437   1.212  0.7640 -0.1636  0.0925
 1177TIP3    H225167   2.038   5.515   1.256  0.1243 -1.0080 -0.1702
 1178TIP3   OH225168   5.829   6.436   0.130  0.1204  0.2072  0.3842
 1178TIP3    H125169   5.812   6.408   0.220 -2.9954  0.0747 -0.1366
 1178TIP3    H225170   5.904   6.384   0.103 -1.3296 -2.8027  1.6542
 1179TIP3   OH225171   2.515   3.832   8.537 -0.2508 -0.1600  0.1172
 1179TIP3    H125172   2.583   3.893   8.569 -0.4285 -0.5405  1.2605
 1179TIP3    H225173   2.556   3.746   8.543 -0.2721 -0.2376 -0.7678
 1180TIP3   OH225174   4.974   1.974   7.316  0.1494  0.1333 -0.2921
 1180TIP3    H125175   4.902   1.911   7.320 -0.6251  0.7418 -2.8479
 1180TIP3    H225176   4.952   2.031   7.242  2.3253  1.5318  0.0452
 1181TIP3   OH225177   2.200   5.285   1.313  0.5373 -0.3028  0.2437
 1181TIP3    H125178   2.196   5.190   1.298  3.5834 -0.6026  0.6925
 1181TIP3    H225179   2.219   5.293   1.407 -0.0115  0.8048  0.2748
 1182TIP3   OH225180   5.702   3.321   8.427 -0.0911  0.7715  0.0398
 1182TIP3    H125181   5.615   3.281   8.431  0.2876 -0.4846 -2.2255
 1182TIP3    H225182   5.735   3.296   8.340  3.2683 -0.3602  1.4778
 1183TIP3   OH225183   1.966   3.161   7.209  0.0513 -0.2829 -0.4817
 1183TIP3    H125184   2.021   3.084   7.195  3.3753  1.5348  1.4542
 1183TIP3    H225185   1.921   3.145   7.292  1.7055  0.3077  0.5602
 1184TIP3   OH225186   4.842   2.551   2.017 -0.5731  0.3805  0.6511
 1184TIP3    H125187   4.786   2.500   2.075  0.8077 -1.8130  0.1792
 1184TIP3    H225188   4.926   2.557   2.063  0.5581 -1.4207 -0.9915
 1185TIP3   OH225189   2.796   3.250   8.355 -0.0166 -0.1145 -0.2712
 1185TIP3    H125190   2.882   3.263   8.316  0.2057 -2.3227 -0.6812
 1185TIP3    H225191   2.809   3.263   8.449  0.8568 -0.7217 -0.2959
 1186TIP3   OH225192   1.599   3.665   2.011  0.3364 -0.3936  0.5622
 1186TIP3    H125193   1.581   3.756   2.035  1.4012  0.3024 -1.1372
 1186TIP3    H225194   1.515   3.620   2.021  0.1808  0.3044  3.2403
 1187TIP3   OH225195   1.882   2.698   1.678 -0.4886  0.2525 -0.6474
 1187TIP3    H125196   1.925   2.741   1.605 -0.8622  0.3437 -0.8130
 1187TIP3    H225197   1.820   2.637   1.638 -0.4247  0.0262 -0.4101
 1188TIP3   OH225198   5.904   2.883   1.001 -0.0343 -0.1983 -0.2048
 1188TIP3    H125199   5.969   2.951   0.981 -1.9706  2.3375  1.3918
 1188TIP3    H225200   5.834   2.896   0.937  0.3547 -1.9859 -1.0497
 1189TIP3   OH225201   3.765   4.975   2.231 -0.3702  0.4003 -0.3226
 1189TIP3    H125202   3.852   5.014   2.242 -0.8469  1.3806  0.1156
 1189TIP3    H225203   3.781   4.897   2.178  0.8103  0.4049 -0.0130
 1190TIP3   OH225204   0.704   1.324   7.663  0.0624 -0.1778  0.1705
 1190TIP3    H125205   0.674   1.334   7.573  0.4974  0.1362  0.0530
 1190TIP3    H225206   0.643   1.376   7.715 -0.8148 -1.1992  0.1948
 1191TIP3   OH225207   6.409   1.445   8.417 -0.2036  0.1864  0.1662
 1191TIP3    H125208   6.454   1.474   8.496  0.5043 -0.3490 -0.0302
 1191TIP3    H225209   6.364   1.523   8.384  1.4481  1.0196 -0.2179
 1192TIP3   OH225210   0.661   2.381   6.757  0.4551  0.2699  0.7585
 1192TIP3    H125211   0.726   2.320   6.722 -0.1869 -1.1885  2.0062
 1192TIP3    H225212   0.708   2.464   6.765  1.3070  0.0266 -1.1121
 1193TIP3   OH225213   5.031   6.266   1.966  0.2356 -0.8165  0.1216
 1193TIP3    H125214   5.036   6.185   2.016  1.4388 -1.4973 -1.0414
 1193TIP3    H225215   4.973   6.322   2.017 -0.9646 -2.5452  0.7433
 1194TIP3   OH225216   0.791   5.498   1.864 -0.5001  0.0770 -0.2608
 1194TIP3    H125217   0.827   5.411   1.846  0.1210 -0.4331  2.8159
 1194TIP3    H225218   0.709   5.481   1.911 -0.2767  1.1110  0.5521
 1195TIP3   OH225219   5.065   5.147   1.842  0.2130 -0.2120  0.4545
 1195TIP3    H125220   5.073   5.160   1.936 -0.3499 -1.0445  0.6350
 1195TIP3    H225221   5.054   5.235   1.806 -1.9597  0.0021  1.4416
 1196TIP3   OH225222   5.868   5.285   7.120  0.2087  0.1476  0.6309
 1196TIP3    H125223   5.894   5.375   7.098  1.9095 -0.3454  0.4548
 1196TIP3    H225224   5.881   5.236   7.039  0.8798 -0.5522  1.1474
 1197TIP3   OH225225   2.324   3.862   1.528 -0.2459 -0.5588 -0.0075
 1197TIP3    H125226   2.379   3.813   1.468  0.2134  0.2305 -0.2412
 1197TIP3    H225227   2.345   3.953   1.512 -0.4908 -0.3072  0.9936
 1198TIP3   OH225228   3.456   3.488   7.719 -0.0154  0.2118  0.2046
 1198TIP3    H125229   3.468   3.403   7.760  1.6958  0.7496  0.9050
 1198TIP3    H225230   3.518   3.546   7.763 -0.9523  1.7751 -0.4252
 1199TIP3   OH225231   4.430   6.427   8.180 -1.0124  0.4544  0.8567
 1199TIP3    H125232   4.354   6.475   8.149 -1.1739  0.3643  1.1140
 1199TIP3    H225233   4.394   6.349   8.222 -0.7078 -1.2335 -1.7417
 1200TIP3   OH225234   2.340   2.222   6.500 -0.1561 -0.4446  0.1240
 1200TIP3    H125235   2.302   2.305   6.531  0.7787  0.3562 -0.7949
 1200TIP3    H225236   2.385   2.246   6.419 -0.7159 -2.0550 -0.7030
 1201TIP3   OH225237   0.896   0.250   1.806 -0.2667  0.0832  0.2083
 1201TIP3    H125238   0.920   0.326   1.860 -0.2325 -0.4486  0.9588
 1201TIP3    H225239   0.800   0.251   1.807 -0.2794 -0.5636  1.2263
 1202TIP3   OH225240   0.363   1.561   8.585 -0.0193 -0.1303  0.2930
 1202TIP3    H125241   0.376   1.495   8.518  0.5367 -0.0364  0.3018
 1202TIP3    H225242   0.450   1.576   8.622  0.0545  1.3164 -0.3793
 1203TIP3   OH225243   2.710   4.571   0.720  0.2792  0.0544  0.2646
 1203TIP3    H125244   2.751   4.605   0.641  0.4213  0.0216  0.3246
 1203TIP3    H225245   2.621   4.548   0.692  0.8944 -1.7773 -0.3786
 1204TIP3   OH225246   0.144   0.878   1.776 -0.7098 -0.3841 -0.3085
 1204TIP3    H125247   0.201   0.802   1.770 -1.2235 -0.6871 -1.6284
 1204TIP3    H225248   0.086   0.859   1.849 -0.3606 -0.9243 -0.1704
 1205TIP3   OH225249   0.216   1.854   0.717  0.2124 -0.5109 -0.1631
 1205TIP3    H125250   0.129   1.893   0.728 -0.5604 -2.0917 -0.4071
 1205TIP3    H225251   0.254   1.858   0.805 -0.5877 -0.8916  0.2152
 1206TIP3   OH225252   6.625   6.620   0.050 -0.7564 -0.0218  1.1534
 1206TIP3    H125253   6.627   6.715   0.050 -0.9399  0.0384 -1.2225
 1206TIP3    H225254   6.566   6.597  -0.022 -0.0812 -1.9105  1.1439
 1207TIP3   OH225255   2.532   2.046   8.154  0.4812 -0.2082  0.2103
 1207TIP3    H125256   2.583   2.093   8.088 -0.7836 -0.6959 -1.1701
 1207TIP3    H225257   2.542   1.954   8.132 -1.8648 -0.2828 -0.8256
 1208TIP3   OH225258   0.409   4.856   1.198  0.2677  0.0561 -0.3184
 1208TIP3    H125259   0.332   4.903   1.166 -1.2381 -1.0464  1.4353
 1208TIP3    H225260   0.453   4.919   1.255  0.4907  0.5765 -1.0495
 1209TIP3   OH225261   1.822   6.234   1.402 -0.2248  0.4368 -0.2794
 1209TIP3    H125262   1.852   6.153   1.441  0.2454  1.0290  0.6076
 1209TIP3    H225263   1.808   6.293   1.476 -2.4749  0.5669 -0.7157
 1210TIP3   OH225264   5.708   1.928   7.229  0.0495  0.0190  0.0317
 1210TIP3    H125265   5.723   2.000   7.168  0.3410  0.5051  0.6625
 1210TIP3    H225266   5.793   1.883   7.234  0.1080  0.1578  0.2998
 1211TIP3   OH225267   6.663   1.970   8.187  0.2682 -0.4145 -0.6565
 1211TIP3    H125268   6.749   1.946   8.152  0.5958 -1.4860  0.8114
 1211TIP3    H225269   6.643   1.902   8.251 -2.0231 -0.5990 -1.4754
 1212TIP3   OH225270   5.809   5.330   1.063  0.7691  0.4103 -0.7263
 1212TIP3    H125271   5.788   5.245   1.101 -0.5105  1.1111  0.2204
 1212TIP3    H225272   5.729   5.355   1.017  0.9950  1.3005 -0.6393
 1213TIP3   OH225273   1.727   6.268   0.653 -0.0725 -0.1748  0.2433
 1213TIP3    H125274   1.717   6.261   0.748  0.8686 -3.1082  0.2109
 1213TIP3    H225275   1.702   6.359   0.634 -1.6530  0.1294  3.0791
 1214TIP3   OH225276   0.330   0.828   0.075 -0.0514 -0.8016  0.1651
 1214TIP3    H125277   0.401   0.764   0.078 -0.1986 -1.0114 -0.7112
 1214TIP3    H225278   0.328   0.859  -0.015 -1.0743 -0.8074  0.1693
 1215TIP3   OH225279   3.112   0.418   7.214 -0.0321 -0.5901  0.1392
 1215TIP3    H125280   3.038   0.359   7.230  0.9484 -1.9407 -0.0617
 1215TIP3    H225281   3.182   0.384   7.271  1.1768 -0.8692 -1.4437
 1216TIP3   OH225282   1.113   0.689   7.964  0.5215 -0.1041  0.0514
 1216TIP3    H125283   1.182   0.691   7.898  1.4649  0.9105  1.0053
 1216TIP3    H225284   1.072   0.776   7.958  2.5558  1.1901  2.6552
 1217TIP3   OH225285   3.119   2.535   1.203  0.8782 -0.4889  0.5529
 1217TIP3    H125286   3.047   2.597   1.192  0.7604 -0.8601 -0.9062
 1217TIP3    H225287   3.080   2.460   1.248  0.0130 -1.2157 -1.3147
 1218TIP3   OH225288   1.462   4.085   0.292  0.5607 -0.3578 -0.1826
 1218TIP3    H125289   1.505   4.078   0.378  1.6650  0.6245 -0.6228
 1218TIP3    H225290   1.436   3.996   0.271  0.6931 -0.6852  0.9703
 1219TIP3   OH225291   4.430   0.356   0.393  0.5883  0.3671 -0.5449
 1219TIP3    H125292   4.364   0.349   0.324 -0.7465 -3.8150  0.8307
 1219TIP3    H225293   4.378   0.366   0.473  2.0086  2.7522  0.1814
 1220TIP3   OH225294   6.529   1.091   7.741  0.1362 -0.1777  0.5740
 1220TIP3    H125295   6.525   0.998   7.765 -2.5559  0.0403  1.2307
 1220TIP3    H225296   6.595   1.128   7.799  0.0600 -1.3655  1.4533
 1221TIP3   OH225297   0.853   0.279   8.100  0.1201 -0.4607 -0.1483
 1221TIP3    H125298   0.853   0.185   8.080  1.0546 -0.2596 -1.1203
 1221TIP3    H225299   0.830   0.322   8.018 -1.0209  0.1469  0.4637
 1222TIP3   OH225300   0.556   0.772   8.281 -0.4273  0.1618  0.1819
 1222TIP3    H125301   0.607   0.692   8.292 -2.1443 -1.0001  0.0726
 1222TIP3    H225302   0.493   0.771   8.353 -0.9719  1.0083 -0.2590
 1223TIP3   OH225303   3.427   5.457   1.450 -0.3745  0.0663  0.0293
 1223TIP3    H125304   3.510   5.438   1.406 -0.8910 -1.9767 -0.1754
 1223TIP3    H225305   3.379   5.512   1.388 -1.1507 -2.8525 -2.2098
 1224TIP3   OH225306   3.990   4.317   6.673  0.2025 -0.4215 -0.0259
 1224TIP3    H125307   3.963   4.291   6.584 -1.8338  2.1910 -0.3033
 1224TIP3    H225308   4.066   4.373   6.660 -1.0785  1.3250 -0.3756
 1225TIP3   OH225309   2.080   0.734   7.193  0.2211 -0.6722  0.5003
 1225TIP3    H125310   2.053   0.643   7.205  1.1871 -0.9743  0.4830
 1225TIP3    H225311   2.164   0.728   7.148 -0.9443  0.2895 -2.0433
 1226TIP3   OH225312   3.284   0.768   0.544  0.2784 -0.1021 -0.5389
 1226TIP3    H125313   3.349   0.828   0.506 -0.5861  1.4260  0.2873
 1226TIP3    H225314   3.332   0.719   0.611  1.1106 -0.7079 -1.5413
 1227TIP3   OH225315   2.690   4.662   7.472  0.5795 -0.3834 -0.3410
 1227TIP3    H125316   2.726   4.681   7.385 -1.4896 -0.7566 -1.3552
 1227TIP3    H225317   2.638   4.739   7.494  0.5612 -0.5704  0.2889
 1228TIP3   OH225318   0.473   4.213   0.681  0.7059 -0.2984  0.0732
 1228TIP3    H125319   0.413   4.283   0.706  0.5194 -1.2100  2.4230
 1228TIP3    H225320   0.472   4.214   0.585 -1.1489  1.3055  0.0420
 1229TIP3   OH225321   5.601   3.690   7.261 -0.1771 -0.0159 -0.3053
 1229TIP3    H125322   5.513   3.710   7.293  0.1974  1.3681 -0.0909
 1229TIP3    H225323   5.590   3.608   7.212 -1.1899 -0.9692  1.3965
 1230TIP3   OH225324   0.254   3.511   8.503  0.7995 -0.0177 -0.6563
 1230TIP3    H125325   0.332   3.524   8.448  1.1518  1.6965  0.1719
 1230TIP3    H225326   0.239   3.596   8.543 -1.2598 -0.4360 -0.4324
 1231TIP3   OH225327   6.755   6.787   0.379  0.2038  0.0048 -0.7426
 1231TIP3    H125328   6.736   6.881   0.384  0.1805 -0.0491  0.9015
 1231TIP3    H225329   6.839   6.778   0.424 -0.0587 -0.8193 -0.3962
 1232TIP3   OH225330   6.647   5.082   7.978 -0.5371 -0.1067  0.4190
 1232TIP3    H125331   6.726   5.030   7.990 -0.7187 -0.5132 -0.1466
 1232TIP3    H225332   6.575   5.020   7.988 -0.7961  0.2896  1.0849
 1233TIP3   OH225333   3.935   6.007   1.107 -0.0821 -0.1963 -0.1851
 1233TIP3    H125334   3.851   5.973   1.077 -0.2457 -0.0064  0.0582
 1233TIP3    H225335   3.998   5.939   1.084 -0.4788 -0.8965  0.7420
 1234TIP3   OH225336   4.231   5.248   0.018  0.0069 -0.4107  0.4533
 1234TIP3    H125337   4.230   5.293  -0.066  0.7975  1.7874  1.5376
 1234TIP3    H225338   4.169   5.296   0.072  0.8255 -0.6572  1.6500
 1235TIP3   OH225339   3.334   4.531   8.429  0.1453  0.3495  0.2519
 1235TIP3    H125340   3.382   4.458   8.390 -0.8417 -0.7810  1.0998
 1235TIP3    H225341   3.358   4.606   8.375  0.2407 -0.8238 -1.4147
 1236TIP3   OH225342   6.821   6.062   7.185  0.5331  0.0113  0.4479
 1236TIP3    H125343   6.783   6.145   7.157  2.2552  0.0448 -2.1007
 1236TIP3    H225344   6.774   5.995   7.134  0.7583 -0.3768  0.7399
 1237TIP3   OH225345   6.617   1.778   8.359  0.2808 -0.5235 -0.3063
 1237TIP3    H125346   6.600   1.847   8.423  0.2180 -0.9771  0.1657
 1237TIP3    H225347   6.601   1.696   8.406 -1.5967 -0.8474 -1.4089
 1238TIP3   OH225348   4.358   0.688   7.077  0.1203  0.3885  0.6158
 1238TIP3    H125349   4.315   0.743   7.142 -1.2898 -1.2738  1.1535
 1238TIP3    H225350   4.431   0.646   7.124  1.2104  1.7336  0.1996
 1239TIP3   OH225351   0.922   5.307   7.077  0.2427 -0.4019  0.2402
 1239TIP3    H125352   0.861   5.278   7.010  1.6058  1.2206 -1.8498
 1239TIP3    H225353   0.868   5.350   7.142 -1.1445 -2.1279  0.2968
 1240TIP3   OH225354   0.546   2.440   2.060  0.0642  0.0096  0.1191
 1240TIP3    H125355   0.548   2.528   2.099  0.1492  0.3052 -0.5376
 1240TIP3    H225356   0.546   2.381   2.135  1.0602  0.5501  0.5662
 1241TIP3   OH225357   1.437   2.759   0.689  0.8130  0.3619 -0.0957
 1241TIP3    H125358   1.443   2.666   0.709  0.0599  0.1406 -0.8364
 1241TIP3    H225359   1.445   2.764   0.593 -1.9891  0.7460 -0.3829
 1242TIP3   OH225360   1.891   3.330   2.540 -0.2398 -0.4736  0.5282
 1242TIP3    H125361   1.802   3.365   2.546 -0.5926 -0.4960 -2.8426
 1242TIP3    H225362   1.944   3.404   2.511  0.0878 -1.2607 -1.0231
 1243TIP3   OH225363   0.884   6.888   8.104 -0.2491 -0.7189 -0.4514
 1243TIP3    H125364   0.860   6.803   8.141  1.1717 -0.9898 -0.0996
 1243TIP3    H225365   0.980   6.887   8.101 -0.1449  1.2888  0.6111
 1244TIP3   OH225366   2.173   4.010   7.505  0.2596 -0.1599 -0.1661
 1244TIP3    H125367   2.132   3.967   7.430 -1.3883 -0.6520  0.9535
 1244TIP3    H225368   2.157   4.103   7.492 -1.2918 -0.3449  0.2496
 1245TIP3   OH225369   6.129   3.011   2.149 -0.1509  0.4179  0.1763
 1245TIP3    H125370   6.102   2.943   2.210 -1.9628  0.5077 -0.4639
 1245TIP3    H225371   6.136   2.966   2.064  1.2702  0.5110  0.2262
 1246TIP3   OH225372   2.746   6.571   7.207 -0.3174 -0.0402  0.3046
 1246TIP3    H125373   2.666   6.601   7.164 -0.9207 -0.8682  0.8377
 1246TIP3    H225374   2.775   6.497   7.155 -0.5078 -0.4307  0.7522
 1247TIP3   OH225375   0.215   3.883   1.252 -0.2458  0.4785  0.6732
 1247TIP3    H125376   0.220   3.960   1.196  0.1760  1.6864  2.2906
 1247TIP3    H225377   0.175   3.915   1.333 -0.6453 -1.1497  1.1611
 1248TIP3   OH225378   6.368   5.393   6.904 -0.0772  0.7088  0.2402
 1248TIP3    H125379   6.362   5.449   6.827  1.1522  0.8176  0.2028
 1248TIP3    H225380   6.447   5.341   6.890 -0.7546 -0.4764  0.6538
 1249TIP3   OH225381   3.790   4.943   6.346 -0.7392 -0.8243  0.5050
 1249TIP3    H125382   3.844   4.975   6.273 -3.1830 -0.7922 -1.4335
 1249TIP3    H225383   3.727   5.014   6.361 -0.2891 -0.8437  2.6937
 1250TIP3   OH225384   6.372   2.902   0.005 -0.3938 -0.3642 -0.0490
 1250TIP3    H125385   6.302   2.857   0.052 -0.0874  0.4174  1.2005
 1250TIP3    H225386   6.441   2.837  -0.005 -0.6431 -0.6651  0.2031
 1251TIP3   OH225387   5.595   1.553   0.251  0.3942  0.3384  0.2905
 1251TIP3    H125388   5.540   1.543   0.329  1.5037  0.8902  1.1666
 1251TIP3    H225389   5.595   1.466   0.210  0.9227 -0.3329  1.6778
 1252TIP3   OH225390   5.049   1.334   0.796 -0.4402 -0.2506 -0.4566
 1252TIP3    H125391   5.012   1.322   0.884 -0.0474 -1.4581 -0.4516
 1252TIP3    H225392   5.036   1.250   0.752  1.9297 -0.6053 -0.5907
 1253TIP3   OH225393   5.336   1.088   1.924  0.1536 -0.2406 -0.0741
 1253TIP3    H125394   5.359   1.051   2.010  2.4868  1.6225  0.2177
 1253TIP3    H225395   5.308   1.013   1.872 -0.7509 -1.5106  2.1086
 1254TIP3   OH225396   1.471   5.247   6.189  0.2073 -0.2004 -0.3188
 1254TIP3    H125397   1.492   5.280   6.276 -0.2115  0.7985 -0.5840
 1254TIP3    H225398   1.489   5.321   6.130 -2.4707  0.2253 -0.7263
 1255TIP3   OH225399   6.015   0.863   1.656 -0.2714 -0.1747 -0.2848
 1255TIP3    H125400   5.926   0.870   1.691 -0.8918 -1.6953 -1.4279
 1255TIP3    H225401   6.050   0.783   1.696  0.7137  0.5591  0.3701
 1256TIP3   OH225402   3.784   2.345   1.615  0.5530  0.5465 -0.1876
 1256TIP3    H125403   3.811   2.371   1.527 -1.7866  0.8922 -0.8582
 1256TIP3    H225404   3.758   2.426   1.658  1.2151  0.3184  0.6701
 1257TIP3   OH225405   6.282   4.569   7.550 -0.3259  0.3172  0.5965
 1257TIP3    H125406   6.311   4.523   7.472 -1.7300 -2.2780  1.4886
 1257TIP3    H225407   6.345   4.640   7.562  0.3222  0.3735 -2.4455
 1258TIP3   OH225408   6.646   4.389   1.127 -0.0869  0.1729 -0.0488
 1258TIP3    H125409   6.585   4.374   1.055  0.2927  0.5651 -0.4678
 1258TIP3    H225410   6.617   4.472   1.165  0.8838  1.0028 -1.0250
 1259TIP3   OH225411   4.826   3.424   1.534 -0.2192  0.3789  0.2937
 1259TIP3    H125412   4.748   3.402   1.483  0.2488 -0.8975  0.0895
 1259TIP3    H225413   4.818   3.517   1.551 -1.6186  0.3358 -0.0138
 1260TIP3   OH225414   4.093   3.090   8.144  0.3087  0.4632  0.3826
 1260TIP3    H125415   4.012   3.055   8.183  0.0145  0.4197 -0.2484
 1260TIP3    H225416   4.090   3.059   8.054  0.8365  0.8058  0.2483
 1261TIP3   OH225417   0.409   0.448   8.249  0.0990 -0.4762  0.1606
 1261TIP3    H125418   0.349   0.389   8.203  1.2475 -0.7158 -1.0652
 1261TIP3    H225419   0.431   0.515   8.185  2.0459 -1.0390  0.1794
 1262TIP3   OH225420   0.775   6.870   1.900 -0.1486  0.1222  0.4833
 1262TIP3    H125421   0.865   6.886   1.929 -0.3119  0.5518  0.7631
 1262TIP3    H225422   0.753   6.946   1.846  0.6913 -1.3654 -2.1523
 1263TIP3   OH225423   2.906   6.511   0.525  0.2108  0.2077  0.1902
 1263TIP3    H125424   2.916   6.526   0.619 -1.1273  2.9295  0.0089
 1263TIP3    H225425   2.838   6.444   0.518 -0.7893  1.0662  1.2133
 1264TIP3   OH225426   4.777   2.181   7.247  0.0208 -0.0557 -0.0455
 1264TIP3    H125427   4.836   2.197   7.320  1.6808 -0.9827 -1.1200
 1264TIP3    H225428   4.778   2.262   7.196  0.8315 -0.2528 -0.3539
 1265TIP3   OH225429   2.886   0.707   1.286  0.0557  0.1477 -0.1131
 1265TIP3    H125430   2.925   0.642   1.228 -0.1095 -0.8428  0.8626
 1265TIP3    H225431   2.921   0.688   1.372 -2.8673 -1.1369  0.9348
 1266TIP3   OH225432   5.322   2.628   7.813  0.4313  0.8103  0.3333
 1266TIP3    H125433   5.339   2.567   7.742 -0.6571  1.9107 -0.9248
 1266TIP3    H225434   5.261   2.692   7.776  1.6376  2.7626  1.5330
 1267TIP3   OH225435   0.421   4.299   7.694 -0.0658 -0.7716  0.2894
 1267TIP3    H125436   0.486   4.339   7.636  0.5986  0.1985  1.6653
 1267TIP3    H225437   0.398   4.217   7.650  0.9223 -0.3881 -1.0042
 1268TIP3   OH225438   4.458   1.109   0.686  0.3558  0.1556  0.0010
 1268TIP3    H125439   4.503   1.028   0.708  0.0447 -0.0965 -0.2744
 1268TIP3    H225440   4.482   1.126   0.595 -0.2776 -0.1050 -0.2234
 1269TIP3   OH225441   1.837   4.060   0.903 -0.6690  0.2522  0.2604
 1269TIP3    H125442   1.847   4.076   0.810 -0.6449 -0.5854  0.1141
 1269TIP3    H225443   1.874   4.138   0.945 -0.2079  0.3985 -0.4123
 1270TIP3   OH225444   5.022   2.865   0.570 -0.0303 -0.2466  0.8508
 1270TIP3    H125445   4.944   2.918   0.588 -0.3058 -0.7023  1.0079
 1270TIP3    H225446   5.091   2.930   0.554 -0.5021  0.1665  0.4196
 1271TIP3   OH225447   0.743   0.500   6.797  0.1348 -0.1279 -0.1928
 1271TIP3    H125448   0.810   0.557   6.761  1.3829 -1.9868 -0.9646
 1271TIP3    H225449   0.696   0.555   6.860  0.9422  1.8451 -1.2342
 1272TIP3   OH225450   6.275   5.566   2.213 -1.3206 -0.1163  0.0577
 1272TIP3    H125451   6.235   5.651   2.234  0.0739  0.4835  0.4122
 1272TIP3    H225452   6.323   5.543   2.292 -0.8021 -0.7151 -0.4297
 1273TIP3   OH225453   4.664   5.416   2.407 -0.3231 -0.5847  0.2975
 1273TIP3    H125454   4.619   5.375   2.481 -1.8873 -1.3216 -1.0092
 1273TIP3    H225455   4.750   5.373   2.404 -0.9175 -1.8403  0.6154
 1274TIP3   OH225456   6.789   0.211   0.034  0.0388  0.1468  0.1306
 1274TIP3    H125457   6.866   0.249   0.078  1.8904 -0.0962 -2.6583
 1274TIP3    H225458   6.770   0.271  -0.038 -1.1832 -0.8139 -0.3849
 1275TIP3   OH225459   4.468   6.838   0.702 -0.3808 -0.1842 -0.1503
 1275TIP3    H125460   4.389   6.820   0.752  0.7867 -1.6660  1.2543
 1275TIP3    H225461   4.438   6.892   0.629 -2.7880 -1.2843 -0.0720
 1276TIP3   OH225462   2.892   5.485   7.757 -0.2709 -0.3211  0.2221
 1276TIP3    H125463   2.881   5.516   7.847 -0.0268  0.4130  0.0020
 1276TIP3    H225464   2.976   5.440   7.757 -0.1867 -0.1645  0.3177
 1277TIP3   OH225465   6.257   1.203   1.505  0.5601 -0.3011 -0.1461
 1277TIP3    H125466   6.312   1.128   1.482  0.7558 -0.2564  0.1772
 1277TIP3    H225467   6.218   1.230   1.421 -1.1857 -2.0656  0.0344
 1278TIP3   OH225468   0.675   0.945   8.038  0.2994 -0.2337  0.3964
 1278TIP3    H125469   0.628   0.880   8.090 -0.0928  0.2929  0.7249
 1278TIP3    H225470   0.746   0.897   7.996  1.6826 -0.4196  2.7534
 1279TIP3   OH225471   1.632   0.048   1.785  0.3698  0.2662 -0.1622
 1279TIP3    H125472   1.540   0.020   1.788  0.5332 -0.3650 -0.7868
 1279TIP3    H225473   1.634   0.128   1.837 -0.5054  0.1971 -0.0018
 1280TIP3   OH225474   4.730   3.616   1.286  0.0370  0.1662  0.2432
 1280TIP3    H125475   4.825   3.608   1.294 -0.1442 -1.8584  0.9226
 1280TIP3    H225476   4.702   3.537   1.239 -1.2466  1.1766 -0.7970
 1281TIP3   OH225477   6.226   5.454   7.375 -0.1654  0.1484 -0.3801
 1281TIP3    H125478   6.248   5.508   7.299 -2.3786  2.7371  0.6594
 1281TIP3    H225479   6.309   5.412   7.400  1.5290  2.4524 -1.7417
 1282TIP3   OH225480   4.981   2.551   0.905 -0.3626  0.3124  0.5713
 1282TIP3    H125481   5.030   2.546   0.988  2.1476  0.1968 -0.8132
 1282TIP3    H225482   4.964   2.460   0.882  0.8156  0.2099 -0.0092
 1283TIP3   OH225483   4.657   1.935   8.191  0.2618  0.2328 -0.6718
 1283TIP3    H125484   4.665   1.953   8.284  1.9646  2.5226 -1.1670
 1283TIP3    H225485   4.714   1.859   8.176 -0.6845 -0.6890  0.2304
 1284TIP3   OH225486   5.990   0.380   0.713  0.0768  0.1704  0.4696
 1284TIP3    H125487   5.993   0.371   0.618  1.2584 -2.1001  0.6761
 1284TIP3    H225488   6.081   0.390   0.740 -0.2649  1.0803  1.3698
 1285TIP3   OH225489   1.810   4.320   7.337 -0.0963  0.6554 -0.1547
 1285TIP3    H125490   1.842   4.410   7.325 -0.0592  1.1267  2.7560
 1285TIP3    H225491   1.714   4.328   7.337 -0.1560  0.3355 -1.8232
 1286TIP3   OH225492   0.618   3.821   1.687  0.3008  0.7069 -0.4203
 1286TIP3    H125493   0.667   3.868   1.754 -0.4489  0.2841  0.4528
 1286TIP3    H225494   0.678   3.755   1.654  0.9162  1.3921 -0.7059
 1287TIP3   OH225495   3.124   6.662   0.911  0.4876  0.1903  0.3089
 1287TIP3    H125496   3.165   6.586   0.952 -0.0342 -0.5336 -0.4743
 1287TIP3    H225497   3.196   6.722   0.894  1.1880 -0.8988 -0.7131
 1288TIP3   OH225498   5.370   6.117   0.786 -0.5142  0.0728  0.5141
 1288TIP3    H125499   5.403   6.028   0.770  2.2732  0.8899  1.1580
 1288TIP3    H225500   5.430   6.173   0.737 -1.6183  1.6892  0.9489
 1289TIP3   OH225501   4.474   1.884   1.770  0.0042 -0.5116 -0.6925
 1289TIP3    H125502   4.513   1.797   1.770  1.4532  0.1086 -1.0838
 1289TIP3    H225503   4.395   1.875   1.823  1.3019 -1.5444  1.1817
 1290TIP3   OH225504   4.653   2.820   0.682  0.2771 -0.2345 -0.7300
 1290TIP3    H125505   4.695   2.870   0.612 -1.6655  0.7220 -1.3042
 1290TIP3    H225506   4.571   2.868   0.699  0.0652 -1.2148  1.2648
 1291TIP3   OH225507   2.294   0.722   7.044  0.2015  0.5226  0.0662
 1291TIP3    H125508   2.352   0.645   7.041 -1.1257 -0.4964 -0.6284
 1291TIP3    H225509   2.351   0.796   7.024  1.5837 -0.2270  1.0352
 1292TIP3   OH225510   4.271   1.601   5.979  0.0291  0.0957 -0.1042
 1292TIP3    H125511   4.245   1.691   5.995 -1.0854 -0.0462 -0.9875
 1292TIP3    H225512   4.203   1.566   5.921  1.2717 -0.8277 -1.0741
 1293TIP3   OH225513   4.311   3.122   7.690 -0.6010  0.3758  0.3475
 1293TIP3    H125514   4.305   3.140   7.596  0.6814  2.3050  0.5729
 1293TIP3    H225515   4.238   3.171   7.729 -0.6695  0.2143  0.4222
 1294TIP3   OH225516   5.913   2.741   7.671  0.0736  0.5810  0.0670
 1294TIP3    H125517   5.838   2.758   7.728 -0.2473  1.8246 -0.6821
 1294TIP3    H225518   5.909   2.647   7.653 -1.4477  0.6608 -0.1371
 1295TIP3   OH225519   4.278   3.385   6.468  0.1829 -0.2525  0.1973
 1295TIP3    H125520   4.282   3.437   6.388 -0.2525 -0.6494 -0.0906
 1295TIP3    H225521   4.366   3.390   6.505  0.4456 -0.2434 -0.4164
 1296TIP3   OH225522   1.323   0.567   1.948  0.1400  0.6331  0.3390
 1296TIP3    H125523   1.256   0.615   1.899 -0.3722 -0.6331 -0.2210
 1296TIP3    H225524   1.274   0.518   2.014  0.5180 -0.1558  0.0471
 1297TIP3   OH225525   4.508   0.436   7.641  0.1156  0.0501 -0.1040
 1297TIP3    H125526   4.559   0.440   7.722  1.0781  2.5712 -0.7344
 1297TIP3    H225527   4.571   0.418   7.572 -0.4947 -0.7363 -0.4804
 1298TIP3   OH225528   3.368   5.341   0.277  0.5936 -0.2281  0.0380
 1298TIP3    H125529   3.418   5.423   0.279 -1.4963  1.1204  0.8598
 1298TIP3    H225530   3.310   5.346   0.354 -2.3017 -0.6462 -1.9465
 1299TIP3   OH225531   2.752   3.386   2.315 -0.3292 -0.4140 -0.2211
 1299TIP3    H125532   2.795   3.472   2.320  0.2900 -0.7780  0.8946
 1299TIP3    H225533   2.801   3.339   2.248 -0.2131 -0.1607 -0.3181
 1300TIP3   OH225534   2.160   1.512   0.734  0.3357 -0.1382  0.3896
 1300TIP3    H125535   2.252   1.539   0.741  0.9759 -1.9379 -0.3773
 1300TIP3    H225536   2.115   1.589   0.699  1.2129  1.3311  2.3332
 1301TIP3   OH225537   5.667   1.066   0.518 -0.5287 -0.0845 -0.0772
 1301TIP3    H125538   5.755   1.039   0.544 -0.2909  1.8730  1.3654
 1301TIP3    H225539   5.654   1.026   0.432  1.3318 -1.2879  0.1497
 1302TIP3   OH225540   4.084   2.965   7.907  0.1882 -0.2417  0.6749
 1302TIP3    H125541   4.170   2.923   7.913 -1.0660 -3.1939  0.1058
 1302TIP3    H225542   4.027   2.897   7.870 -2.4279  1.5498  1.1175
 1303TIP3   OH225543   2.060   4.819   8.592  0.2154  0.2594  0.0530
 1303TIP3    H125544   2.002   4.798   8.666 -2.7903  0.9732 -1.9242
 1303TIP3    H225545   2.126   4.750   8.594 -1.5349 -1.5264  1.6327
 1304TIP3   OH225546   1.791   1.123   7.288 -0.3953  0.1327 -0.0489
 1304TIP3    H125547   1.771   1.208   7.249 -0.6648 -0.6391 -1.6433
 1304TIP3    H225548   1.777   1.060   7.218 -0.7847 -1.3094  1.2770
 1305TIP3   OH225549   0.750   6.391   8.014  0.5203  0.4065  0.1432
 1305TIP3    H125550   0.691   6.351   7.951  1.3600 -0.2988 -0.2198
 1305TIP3    H225551   0.829   6.337   8.010  0.3642 -0.0834  2.2820
 1306TIP3   OH225552   5.864   6.573   7.656  0.0707  0.2366  0.0211
 1306TIP3    H125553   5.927   6.570   7.584  0.0001 -0.8719 -0.0129
 1306TIP3    H225554   5.919   6.578   7.735  0.2425 -1.3479  0.0256
 1307TIP3   OH225555   2.123   5.981   2.570 -0.5272  0.0054  0.0369
 1307TIP3    H125556   2.148   6.043   2.638  0.6014 -1.6323  1.1873
 1307TIP3    H225557   2.166   6.013   2.491 -0.3789  0.9479  0.4841
 1308TIP3   OH225558   2.824   6.173   6.474  0.4920  0.2861  0.2614
 1308TIP3    H125559   2.749   6.114   6.487 -1.5495  2.7431  0.2776
 1308TIP3    H225560   2.830   6.222   6.556  2.1356  0.1510  0.2435
 1309TIP3   OH225561   0.262   5.373   1.902  0.1494  0.0610 -0.0050
 1309TIP3    H125562   0.194   5.338   1.960  1.1282 -1.7194  0.1667
 1309TIP3    H225563   0.216   5.402   1.824 -0.8688 -0.4808  0.3843
 1310TIP3   OH225564   1.794   0.131   0.338 -0.3131 -0.1099  0.3389
 1310TIP3    H125565   1.802   0.217   0.297  0.1355  0.9002  2.4001
 1310TIP3    H225566   1.702   0.106   0.324 -0.4448  0.6922 -0.2903
 1311TIP3   OH225567   4.202   1.337   7.497 -0.0550  0.0290  0.0697
 1311TIP3    H125568   4.196   1.427   7.466 -3.3818 -0.8255 -2.2204
 1311TIP3    H225569   4.153   1.337   7.580 -2.6513 -0.1171 -1.3730
 1312TIP3   OH225570   5.041   5.917   0.270 -0.0276 -0.5315  0.0563
 1312TIP3    H125571   4.948   5.923   0.292 -0.0028 -0.7302  0.2243
 1312TIP3    H225572   5.077   6.002   0.295 -0.2801 -0.2366 -0.5768
 1313TIP3   OH225573   3.067   3.011   1.183 -0.1221  0.7546 -0.0651
 1313TIP3    H125574   3.018   3.092   1.194 -0.4240  0.9646 -2.4121
 1313TIP3    H225575   3.078   3.002   1.088  1.7552 -0.8555  0.2235
 1314TIP3   OH225576   1.515   4.353   2.549  0.2488 -0.5482  0.2249
 1314TIP3    H125577   1.444   4.291   2.567  1.0907 -0.8889  2.9177
 1314TIP3    H225578   1.591   4.297   2.534  0.2395 -0.1622 -1.4673
 1315TIP3   OH225579   3.413   5.942   1.078 -0.0907 -0.0310  0.5168
 1315TIP3    H125580   3.381   5.857   1.110 -0.0383  0.2702  1.3942
 1315TIP3    H225581   3.409   5.934   0.983  0.6692 -1.3063  0.5616
 1316TIP3   OH225582   0.798   2.487   0.626 -0.1306 -0.3805  0.7213
 1316TIP3    H125583   0.890   2.510   0.638 -0.0592 -0.5377  0.4988
 1316TIP3    H225584   0.756   2.509   0.709 -0.4587  2.3260 -0.0906
 1317TIP3   OH225585   5.873   0.948   8.347 -0.5095  0.1939 -0.8194
 1317TIP3    H125586   5.927   1.023   8.321  0.1491 -0.1592 -0.4866
 1317TIP3    H225587   5.902   0.928   8.436  0.1264 -1.1634 -1.3085
 1318TIP3   OH225588   1.616   2.133   1.834  0.0515 -0.0472 -0.3937
 1318TIP3    H125589   1.655   2.069   1.774 -0.4652  0.1343 -0.9411
 1318TIP3    H225590   1.671   2.130   1.912  1.7280  0.8669 -1.4790
 1319TIP3   OH225591   4.841   1.455   0.299 -0.4301 -0.7777  0.1164
 1319TIP3    H125592   4.842   1.425   0.390 -0.5528  1.8439  1.0589
 1319TIP3    H225593   4.933   1.470   0.278 -0.4271 -1.0944 -0.1061
 1320TIP3   OH225594   4.960   6.312   1.228 -0.8342  0.1422  0.3952
 1320TIP3    H125595   4.875   6.355   1.236  0.1973  2.0846  1.7015
 1320TIP3    H225596   4.998   6.349   1.148 -1.6889 -1.6957 -0.9136
 1321TIP3   OH225597   2.132   3.937   8.316  0.3184  0.3311 -0.0624
 1321TIP3    H125598   2.171   3.850   8.308  1.0903  0.4431  1.9194
 1321TIP3    H225599   2.054   3.924   8.369  2.0655  1.1580  2.9649
 1322TIP3   OH225600   4.500   4.425   7.047  0.4305 -1.0150 -0.0094
 1322TIP3    H125601   4.519   4.398   6.957  1.8306 -1.3492  0.3508
 1322TIP3    H225602   4.505   4.343   7.097 -0.2857 -0.8224  0.3900
 1323TIP3   OH225603   1.750   6.156   8.176 -0.1792 -0.0965 -0.3477
 1323TIP3    H125604   1.759   6.251   8.179  0.0506 -0.1372  1.0916
 1323TIP3    H225605   1.812   6.124   8.242 -0.0033 -1.2720 -1.0442
 1324TIP3   OH225606   0.809   1.049   0.886  0.2171 -0.2220 -0.5460
 1324TIP3    H125607   0.904   1.048   0.900  0.0800  0.3933  0.6026
 1324TIP3    H225608   0.795   1.115   0.818  0.5294  0.5318  0.1129
 1325TIP3   OH225609   1.424   5.942   1.164  0.3924  0.1482  0.4060
 1325TIP3    H125610   1.434   5.866   1.221  0.3717 -1.5035 -1.6462
 1325TIP3    H225611   1.333   5.936   1.133  1.3273 -1.1537 -2.4887
 1326TIP3   OH225612   0.653   0.590   0.450  0.2879  0.0691 -0.1810
 1326TIP3    H125613   0.738   0.630   0.468  0.1288  1.5253 -2.2663
 1326TIP3    H225614   0.595   0.626   0.517  1.1991 -0.7094  1.0845
 1327TIP3   OH225615   4.911   2.100   6.843 -0.0775  0.6910 -0.2094
 1327TIP3    H125616   4.857   2.042   6.897  1.1299  0.3215  0.6410
 1327TIP3    H225617   4.902   2.065   6.754 -0.8312  0.3326 -0.0004
 1328TIP3   OH225618   0.035   5.780   7.928  0.2763 -0.1634  0.4380
 1328TIP3    H125619  -0.019   5.711   7.966  1.6488 -0.5688  1.7924
 1328TIP3    H225620   0.067   5.743   7.846 -0.4002 -0.4412  0.2939
 1329TIP3   OH225621   5.030   3.575   1.141 -0.0762 -0.5120  0.4871
 1329TIP3    H125622   5.122   3.600   1.152 -0.2109  0.4760 -0.4465
 1329TIP3    H225623   5.017   3.573   1.046 -1.5997  1.6475  0.5872
 1330TIP3   OH225624   1.166   4.355   7.844 -0.0555 -0.2852 -0.1398
 1330TIP3    H125625   1.118   4.409   7.781 -0.0769  0.2327  0.3203
 1330TIP3    H225626   1.246   4.404   7.862  0.3103 -0.8002 -0.3473
 1331TIP3   OH225627   5.428   1.722   7.194  0.3044  0.5115 -0.1445
 1331TIP3    H125628   5.506   1.667   7.204  0.5314  0.9676  0.6057
 1331TIP3    H225629   5.458   1.811   7.211  0.2147  1.0831 -2.5865
 1332TIP3   OH225630   2.676   5.351   0.489 -0.1269 -0.0428  0.1073
 1332TIP3    H125631   2.751   5.308   0.530  0.7956  0.6641 -0.7650
 1332TIP3    H225632   2.618   5.373   0.561  0.5435 -0.5512  0.8128
 1333TIP3   OH225633   4.739   5.928   6.953 -0.8147  0.3826  0.6140
 1333TIP3    H125634   4.786   5.874   6.889 -1.6557 -0.1259  0.4160
 1333TIP3    H225635   4.666   5.965   6.905  0.0615  2.1832  0.6081
 1334TIP3   OH225636   3.013   0.449   8.269  0.2756 -0.3728  0.3528
 1334TIP3    H125637   2.978   0.538   8.278 -0.1788 -0.4918 -0.1641
 1334TIP3    H225638   3.031   0.421   8.359 -1.0884 -0.3520  0.6467
 1335TIP3   OH225639   4.282   1.563   0.253 -0.4396 -0.4315  0.1200
 1335TIP3    H125640   4.199   1.607   0.236 -1.4343 -1.0345  2.9649
 1335TIP3    H225641   4.309   1.593   0.339  1.9843 -0.8103 -0.4298
 1336TIP3   OH225642   1.010   1.885   0.607  0.0877  0.0110 -0.2400
 1336TIP3    H125643   0.929   1.834   0.605  0.9971 -1.4930  0.0741
 1336TIP3    H225644   0.983   1.973   0.581 -1.3452 -0.8635 -1.9445
 1337TIP3   OH225645   1.713   3.602   8.548  0.5237 -0.1019 -0.9338
 1337TIP3    H125646   1.675   3.646   8.625  1.3687 -1.2654  0.1943
 1337TIP3    H225647   1.700   3.664   8.477 -1.2506  0.5833 -0.0950
 1338TIP3   OH225648   4.218   4.530   7.018  0.5396 -0.0332  0.3248
 1338TIP3    H125649   4.290   4.479   6.980 -1.5728  0.2635 -4.9911
 1338TIP3    H225650   4.139   4.482   6.993 -1.3360  3.1718 -0.5717
 1339TIP3   OH225651   4.763   0.266   0.933  0.2490 -0.1552 -0.1386
 1339TIP3    H125652   4.837   0.206   0.926  1.1059  0.2932  3.3196
 1339TIP3    H225653   4.802   0.353   0.938 -0.8367  0.5393 -2.2189
 1340TIP3   OH225654   5.589   4.917   6.831  0.2404 -0.5265  0.2259
 1340TIP3    H125655   5.503   4.901   6.870 -0.6566 -1.1898 -1.8708
 1340TIP3    H225656   5.570   4.957   6.746  2.0902  0.7889  0.3648
 1341TIP3   OH225657   3.620   0.037   8.068  0.2885  0.0385 -0.5866
 1341TIP3    H125658   3.608  -0.009   8.151  1.0364 -1.0076 -1.0385
 1341TIP3    H225659   3.542   0.017   8.018  0.1517  0.1064 -0.4033
 1342TIP3   OH225660   0.903   3.866   7.478  0.5914 -0.1124  0.3072
 1342TIP3    H125661   0.903   3.775   7.450 -2.0783 -1.1306  3.1381
 1342TIP3    H225662   0.936   3.864   7.567  0.5670  1.7346  0.4043
 1343TIP3   OH225663   1.404   4.505   2.822  0.0893  0.5060 -0.5546
 1343TIP3    H125664   1.358   4.449   2.761  0.0293 -2.3655  1.8660
 1343TIP3    H225665   1.346   4.579   2.837 -2.0303 -1.0890 -0.4882
 1344TIP3   OH225666   0.155   3.486   1.376  0.0888 -0.4116  0.0647
 1344TIP3    H125667   0.093   3.539   1.325 -0.6853 -2.1626 -0.8826
 1344TIP3    H225668   0.190   3.422   1.313  1.6274 -0.5331  0.9777
 1345TIP3   OH225669   5.464   1.817   2.088 -0.8872  0.2047  0.7492
 1345TIP3    H125670   5.413   1.887   2.127 -0.2805  1.3011 -0.3676
 1345TIP3    H225671   5.544   1.813   2.139  0.0578  1.8693 -0.5185
 1346TIP3   OH225672   2.057   5.856   2.229  0.0367  0.2833 -1.0885
 1346TIP3    H125673   2.102   5.786   2.180  1.5773  0.8764 -0.6048
 1346TIP3    H225674   2.128   5.902   2.274 -0.8837  2.5315 -1.8487
 1347TIP3   OH225675   5.042   2.552   7.557  0.1710 -0.2006 -0.1183
 1347TIP3    H125676   5.052   2.604   7.477  0.2991 -2.0438 -1.3468
 1347TIP3    H225677   5.132   2.530   7.583  0.0743 -1.0954 -0.5051
 1348TIP3   OH225678   2.464   6.343   0.891 -0.9015  0.1159 -0.3325
 1348TIP3    H125679   2.413   6.270   0.926 -0.5176  1.5272  3.7571
 1348TIP3    H225680   2.435   6.419   0.941  0.8312  2.2118 -2.2832
 1349TIP3   OH225681   2.142   2.189   8.450 -0.5893 -0.1119 -0.3944
 1349TIP3    H125682   2.169   2.186   8.358  0.1724  2.2568 -0.3356
 1349TIP3    H225683   2.207   2.136   8.496 -0.2396 -0.3041 -1.0973
 1350TIP3   OH225684   0.668   6.657   1.688  0.2024  0.2967  0.3061
 1350TIP3    H125685   0.669   6.568   1.721 -1.1852  0.6656  1.4529
 1350TIP3    H225686   0.711   6.709   1.756 -0.9633  0.7845  0.7106
 1351TIP3   OH225687   0.269   3.917   8.062 -0.3354  0.2620 -0.2318
 1351TIP3    H125688   0.225   3.944   8.142 -0.7610 -1.2567  0.0779
 1351TIP3    H225689   0.352   3.880   8.091 -0.2158  0.2786 -0.5452
 1352TIP3   OH225690   5.885   1.414   7.221  0.0077  0.1436  0.1171
 1352TIP3    H125691   5.835   1.336   7.245 -0.4064 -0.0547 -1.2975
 1352TIP3    H225692   5.972   1.398   7.257 -0.9333  0.6094  2.8428
 1353TIP3   OH225693   4.551   0.691   0.505  0.2282  0.0076  1.0479
 1353TIP3    H125694   4.551   0.685   0.409 -2.8446  0.5374  0.9224
 1353TIP3    H225695   4.567   0.602   0.534 -1.1885 -0.6291 -0.0232
 1354TIP3   OH225696   6.665   6.234   7.452 -0.3028 -0.2161  0.1099
 1354TIP3    H125697   6.628   6.159   7.499 -1.4476 -0.7922 -1.6200
 1354TIP3    H225698   6.758   6.213   7.443 -0.6789 -1.6180 -0.6804
 1355TIP3   OH225699   3.663   4.437   7.693  0.2862  0.6701  0.0326
 1355TIP3    H125700   3.705   4.520   7.669  3.0862  0.3929  3.2178
 1355TIP3    H225701   3.731   4.371   7.680 -1.2521 -0.9000 -0.5049
 1356TIP3   OH225702   3.040   1.276   1.541  0.0902  0.1338  0.4076
 1356TIP3    H125703   2.967   1.337   1.547 -0.0316 -0.0663  1.0376
 1356TIP3    H225704   3.055   1.247   1.631  1.0080  0.2417  0.3015
 1357TIP3   OH225705   4.558   2.192   8.100  0.2666  0.2747 -0.1206
 1357TIP3    H125706   4.592   2.235   8.179  1.1228 -0.9774  0.2216
 1357TIP3    H225707   4.534   2.104   8.129  0.1799 -0.0652 -1.1697
 1358TIP3   OH225708   4.750   3.251   7.728  0.2255 -0.2578  0.4094
 1358TIP3    H125709   4.697   3.191   7.675 -0.1296  0.6168 -0.2539
 1358TIP3    H225710   4.686   3.302   7.777  0.2083  2.5131 -2.2160
 1359TIP3   OH225711   3.518   4.018   8.251  0.0472  0.2277  0.3631
 1359TIP3    H125712   3.462   4.085   8.212  1.4184  0.9760 -0.4085
 1359TIP3    H225713   3.479   3.935   8.224 -0.2181  0.7339 -0.8650
 1360TIP3   OH225714   2.463   1.589   7.470  0.0021 -0.2194 -0.7047
 1360TIP3    H125715   2.433   1.581   7.379 -0.6849 -0.1438 -0.4929
 1360TIP3    H225716   2.540   1.645   7.465  1.4389 -2.1122 -1.5365
 1361TIP3   OH225717   1.980   4.233   1.027  0.4901 -0.4172  0.4490
 1361TIP3    H125718   2.060   4.257   0.981  0.1550 -2.9046 -1.6690
 1361TIP3    H225719   1.964   4.306   1.087  2.1775  2.0090 -1.8082
 1362TIP3   OH225720   2.557   4.810   0.928 -0.7879  0.1319  0.6461
 1362TIP3    H125721   2.626   4.829   0.865 -2.3170 -0.1032 -1.1845
 1362TIP3    H225722   2.489   4.875   0.910 -2.9924 -2.3634 -0.8052
 1363TIP3   OH225723   6.289   4.923   7.740  0.0270 -0.5229  0.0318
 1363TIP3    H125724   6.300   5.007   7.695 -2.5148 -0.6268 -0.9979
 1363TIP3    H225725   6.209   4.886   7.702  0.3015 -2.7811  1.4446
 1364TIP3   OH225726   5.043   2.001   1.792  0.2870  0.2559 -0.2242
 1364TIP3    H125727   5.117   2.060   1.807 -0.1478  0.8998 -0.5342
 1364TIP3    H225728   5.004   1.988   1.878  0.3748  0.4471 -0.1546
 1365TIP3   OH225729   3.333   2.193   8.565  0.1919  0.4042 -0.7127
 1365TIP3    H125730   3.398   2.130   8.532  0.3872 -1.2112  2.3782
 1365TIP3    H225731   3.251   2.166   8.523  0.6416 -0.6845 -0.9452
 1366TIP3   OH225732   0.789   6.385   0.276 -0.2895 -0.8178  0.2023
 1366TIP3    H125733   0.858   6.330   0.312  0.5873 -0.8973 -1.4712
 1366TIP3    H225734   0.712   6.329   0.272  0.7285 -2.2303 -2.0299
 1367TIP3   OH225735   1.953   3.314   0.144  0.8093  0.2367  0.4094
 1367TIP3    H125736   2.038   3.359   0.142  1.1762 -0.4095  0.9811
 1367TIP3    H225737   1.889   3.385   0.155  1.0918  0.9125 -1.8701
 1368TIP3   OH225738   4.747   5.841   7.342  0.5747 -0.0338 -0.0326
 1368TIP3    H125739   4.807   5.766   7.340  1.8577  0.9692 -1.3794
 1368TIP3    H225740   4.725   5.856   7.250 -0.4884  0.6131  0.3110
 1369TIP3   OH225741   5.964   4.164   8.590  0.2340 -0.3034  0.5602
 1369TIP3    H125742   6.000   4.078   8.570  3.3613  0.0600  3.7076
 1369TIP3    H225743   5.875   4.147   8.622  0.1962 -2.1202 -0.3950
 1370TIP3   OH225744   1.409   4.165   7.438 -0.2394 -0.3299  0.5362
 1370TIP3    H125745   1.371   4.077   7.430 -1.4760  0.1441  0.9887
 1370TIP3    H225746   1.463   4.161   7.517 -0.9619 -0.4568  1.0318
 1371TIP3   OH225747   1.931   2.739   7.981 -0.3356  0.5818 -0.1239
 1371TIP3    H125748   1.971   2.809   7.929  2.8923 -1.3448 -0.5489
 1371TIP3    H225749   1.985   2.735   8.060 -1.9932  0.1406  1.0297
 1372TIP3   OH225750   1.669   3.461   2.372 -0.5601 -0.3380 -0.1256
 1372TIP3    H125751   1.699   3.491   2.458 -3.0822  0.8264  0.4635
 1372TIP3    H225752   1.607   3.391   2.392  1.2831 -2.4001 -1.2440
 1373TIP3   OH225753   5.999   4.467   0.313  0.4146 -0.0600 -0.2170
 1373TIP3    H125754   5.927   4.444   0.255  0.0148  1.4549 -0.3644
 1373TIP3    H225755   6.058   4.520   0.259  0.6569  0.3411  0.4175
 1374TIP3   OH225756   3.499   4.456   0.307  0.1569  0.1637  0.3025
 1374TIP3    H125757   3.404   4.471   0.311 -0.2190 -1.7301 -0.5744
 1374TIP3    H225758   3.525   4.494   0.224 -0.1431 -0.7527 -0.2214
 1375TIP3   OH225759   1.181   1.795   7.249 -0.2242  0.3841 -0.3481
 1375TIP3    H125760   1.271   1.762   7.256 -0.4259  0.1905  3.2566
 1375TIP3    H225761   1.190   1.890   7.249  0.0091  0.3851 -2.0124
 1376TIP3   OH225762   5.185   0.769   7.797  1.0022 -0.8442 -0.4653
 1376TIP3    H125763   5.244   0.754   7.723  1.0140  1.1133 -0.9080
 1376TIP3    H225764   5.204   0.859   7.824 -2.2146  0.1249 -1.0506
 1377TIP3   OH225765   6.229   0.849   0.786  0.4224  0.5619 -0.2817
 1377TIP3    H125766   6.321   0.833   0.764  0.5298 -0.2419  0.6806
 1377TIP3    H225767   6.180   0.795   0.724  0.6271  0.3282 -0.2398
 1378TIP3   OH225768   2.918   2.939   1.751 -0.2240 -0.3951 -0.1608
 1378TIP3    H125769   2.988   2.992   1.787  0.2213 -1.2795  0.3295
 1378TIP3    H225770   2.837   2.983   1.780  0.1246 -0.6812  1.3589
 1379TIP3   OH225771   1.855   6.703   1.294 -0.6402 -0.1283 -0.1469
 1379TIP3    H125772   1.895   6.768   1.352  2.2342 -0.9068 -1.1026
 1379TIP3    H225773   1.781   6.668   1.345 -0.1394  1.4121  1.7627
 1380TIP3   OH225774   2.531   0.568   8.319 -0.1169 -0.3327  0.1565
 1380TIP3    H125775   2.504   0.613   8.400 -0.9413  1.1598 -0.8978
 1380TIP3    H225776   2.491   0.482   8.325 -0.6296 -0.0486  1.0957
 1381TIP3   OH225777   0.350   0.690   7.162  0.4714  0.3235 -0.1579
 1381TIP3    H125778   0.411   0.764   7.158  0.7977  0.0785  0.2546
 1381TIP3    H225779   0.306   0.691   7.077  2.3092 -0.5482 -1.1876
 1382TIP3   OH225780   4.514   6.468   6.826  0.4225 -0.0677  0.7868
 1382TIP3    H125781   4.429   6.498   6.791  0.3795  0.8536  1.6216
 1382TIP3    H225782   4.491   6.402   6.891  0.0677  2.3596  3.2963
 1383TIP3   OH225783   6.004   6.657   0.196  0.7418  0.2490  0.1004
 1383TIP3    H125784   6.028   6.579   0.246 -1.3664  1.0772  2.6186
 1383TIP3    H225785   5.956   6.624   0.120  1.8441 -0.9521 -0.1028
 1384TIP3   OH225786   3.208   2.121   1.867 -0.5044  0.1741  0.3509
 1384TIP3    H125787   3.209   2.044   1.810  2.9960  1.3601 -1.4748
 1384TIP3    H225788   3.144   2.180   1.827 -0.0047 -0.0721 -0.8407
 1385TIP3   OH225789   6.772   2.065   2.187  0.3217  0.1084 -0.0521
 1385TIP3    H125790   6.832   1.999   2.220 -0.4159 -0.0294  1.0636
 1385TIP3    H225791   6.730   2.023   2.112 -0.0359 -0.6454  0.5575
 1386TIP3   OH225792   6.783   1.634   0.513  0.7096 -0.9578  0.3036
 1386TIP3    H125793   6.819   1.559   0.465 -0.4263 -0.7420 -0.9545
 1386TIP3    H225794   6.721   1.595   0.574 -0.2565 -1.0380 -0.7015
 1387TIP3   OH225795   4.072   0.649   0.818 -0.5778  0.0868 -0.3472
 1387TIP3    H125796   3.998   0.693   0.860  0.5331  0.0788  1.7489
 1387TIP3    H225797   4.140   0.716   0.812 -0.5818 -0.0158 -1.8729
 1388TIP3   OH225798   0.336   2.158   7.828  0.1821 -0.3519  0.2213
 1388TIP3    H125799   0.242   2.151   7.842  0.2817  0.3555  1.4477
 1388TIP3    H225800   0.347   2.162   7.733 -1.0767  0.3171  0.0878
 1389TIP3   OH225801   2.075   1.210   1.376 -0.2121  0.2726 -0.5740
 1389TIP3    H125802   2.029   1.240   1.454 -0.1691  0.0295 -0.4562
 1389TIP3    H225803   2.059   1.280   1.311 -1.5478 -0.2308 -0.8339
 1390TIP3   OH225804   1.197   0.405   2.126 -0.4256  0.0967  0.3897
 1390TIP3    H125805   1.193   0.356   2.207 -0.8751 -0.6047 -0.0462
 1390TIP3    H225806   1.137   0.479   2.139 -0.9456 -0.3401  0.4806
 1391TIP3   OH225807   0.815   5.038   8.475 -0.1077 -0.5187  0.3412
 1391TIP3    H125808   0.777   5.103   8.416 -0.7292 -0.5239  0.7197
 1391TIP3    H225809   0.844   5.089   8.551 -1.3259 -0.7555  0.9945
 1392TIP3   OH225810   6.358   1.765   1.775 -0.3439  0.2090 -0.1929
 1392TIP3    H125811   6.444   1.746   1.738  0.9244  2.7181  1.2043
 1392TIP3    H225812   6.365   1.740   1.867 -0.9160  0.8828  0.0466
 1393TIP3   OH225813   2.944   5.848   6.722  0.2312 -0.5161  0.0338
 1393TIP3    H125814   2.977   5.767   6.685  0.6639 -0.1116 -0.4848
 1393TIP3    H225815   2.994   5.917   6.678 -0.3194  0.0454  0.2640
 1394TIP3   OH225816   0.402   0.025   6.709 -0.5695  0.6048 -0.4937
 1394TIP3    H125817   0.455   0.091   6.664 -1.3246  1.6689  0.1490
 1394TIP3    H225818   0.320   0.022   6.659 -0.2357 -0.4588 -1.0076
 1395TIP3   OH225819   1.209   1.453   0.521  0.1848  0.6149  0.5146
 1395TIP3    H125820   1.217   1.545   0.546  0.9867  1.2611 -1.8878
 1395TIP3    H225821   1.231   1.405   0.601 -3.5797  2.3601  2.8883
 1396TIP3   OH225822   0.195   1.203   1.223  0.5897 -0.3844 -0.3413
 1396TIP3    H125823   0.112   1.192   1.269  0.6119 -0.3527 -0.2929
 1396TIP3    H225824   0.180   1.167   1.136  0.5014 -0.3032 -0.3589
 1397TIP3   OH225825   3.468   4.054   1.361 -0.1222 -0.2170  0.4718
 1397TIP3    H125826   3.427   3.985   1.308  0.8058 -1.1442  0.9090
 1397TIP3    H225827   3.401   4.121   1.369 -0.9706 -0.9507 -0.1988
 1398TIP3   OH225828   6.410   1.774   0.053  0.0776  0.9633 -0.3819
 1398TIP3    H125829   6.398   1.744   0.143  0.5807  3.0780  0.4712
 1398TIP3    H225830   6.505   1.787   0.044 -0.0046  1.1450 -1.0744
 1399TIP3   OH225831   1.314   5.779   6.795  0.1951  0.0622 -0.0357
 1399TIP3    H125832   1.344   5.857   6.842 -0.5860  1.2418 -1.3869
 1399TIP3    H225833   1.265   5.729   6.860  2.6753 -0.5424  1.4754
 1400TIP3   OH225834   5.355   1.934   0.500 -0.9230 -0.1819 -0.6222
 1400TIP3    H125835   5.261   1.948   0.495 -1.3727 -1.0559  2.6371
 1400TIP3    H225836   5.367   1.841   0.482 -1.0964 -0.6537  1.4151
 1401TIP3   OH225837   6.733   2.875   8.156 -0.0013  0.0073 -0.3149
 1401TIP3    H125838   6.813   2.919   8.127 -0.5529  0.9281 -0.5033
 1401TIP3    H225839   6.739   2.876   8.252  0.2369  0.0293 -0.3301
 1402TIP3   OH225840   0.194   5.561   8.158 -0.5363  0.5978 -0.5962
 1402TIP3    H125841   0.131   5.490   8.170 -0.0702  0.2314 -0.2659
 1402TIP3    H225842   0.246   5.533   8.082  1.0092 -0.4515  0.7859
 1403TIP3   OH225843   0.721   3.560   1.940  0.1065  0.4133  0.1205
 1403TIP3    H125844   0.808   3.596   1.924 -0.9190  2.8285 -0.4844
 1403TIP3    H225845   0.693   3.600   2.022 -1.0362  0.9434 -0.5035
 1404TIP3   OH225846   5.990   2.777   0.482  0.2041  0.0150 -0.4158
 1404TIP3    H125847   5.899   2.752   0.498  0.1017  1.0257  0.7679
 1404TIP3    H225848   6.041   2.700   0.509 -0.2574 -0.3543 -0.5710
 1405TIP3   OH225849   0.830   3.196   1.821 -0.0910 -0.5108 -0.0132
 1405TIP3    H125850   0.760   3.156   1.872 -0.1467 -0.7090 -0.2417
 1405TIP3    H225851   0.865   3.265   1.877  0.5166 -1.3686  0.7022
 1406TIP3   OH225852   5.430   4.457   7.329  0.3172  0.1545 -0.1617
 1406TIP3    H125853   5.382   4.482   7.408 -0.7877 -3.1148  0.3329
 1406TIP3    H225854   5.378   4.495   7.258 -0.5223  0.3842  0.5491
 1407TIP3   OH225855   3.337   6.046   1.731 -0.2671  0.4265 -0.5272
 1407TIP3    H125856   3.393   5.969   1.733 -0.5727  0.2097 -0.3982
 1407TIP3    H225857   3.254   6.018   1.769 -0.4361  0.7724 -0.6305
 1408TIP3   OH225858   3.303   3.177   6.741 -0.6169  0.6844  0.1433
 1408TIP3    H125859   3.220   3.209   6.774  0.4044  2.0116  1.5836
 1408TIP3    H225860   3.304   3.203   6.649 -1.0053  2.4049  0.5875
 1409TIP3   OH225861   1.631   3.279   8.076 -0.2911  0.4712  0.5077
 1409TIP3    H125862   1.561   3.252   8.016 -0.4480  0.6644  0.6027
 1409TIP3    H225863   1.607   3.367   8.104  0.4748  0.9128 -0.1781
 1410TIP3   OH225864   1.432   2.507   0.897 -0.2367  0.2654 -0.1111
 1410TIP3    H125865   1.375   2.584   0.906  0.7469  1.2220 -1.6376
 1410TIP3    H225866   1.409   2.470   0.811 -0.5731 -1.0756  0.5278
 1411TIP3   OH225867   6.049   4.956   0.048  0.0879 -0.1399  0.6223
 1411TIP3    H125868   5.968   5.006   0.060  0.7357  1.3286 -0.7404
 1411TIP3    H225869   6.107   5.016   0.002  0.9529 -2.1330 -1.0500
 1412TIP3   OH225870   2.635   4.590   8.323  0.0541  0.0121 -0.1002
 1412TIP3    H125871   2.655   4.632   8.407 -0.4463  0.0136  0.0190
 1412TIP3    H225872   2.660   4.499   8.336  1.5715  0.3357 -0.5075
 1413TIP3   OH225873   6.517   6.322   7.254  0.2331  0.4477 -0.4234
 1413TIP3    H125874   6.436   6.274   7.272  0.5896  0.3312  0.9728
 1413TIP3    H225875   6.571   6.308   7.332  1.8834 -0.0203 -1.6071
 1414TIP3   OH225876   2.603   2.195   1.698 -0.0835 -0.0364  0.6766
 1414TIP3    H125877   2.664   2.250   1.747 -0.0941  1.9960 -1.3899
 1414TIP3    H225878   2.516   2.227   1.724 -0.1909 -0.9323  1.4495
 1415TIP3   OH225879   4.745   4.003   7.487  0.0118 -0.7736  0.4161
 1415TIP3    H125880   4.761   4.049   7.404 -1.5186 -0.7441  0.1170
 1415TIP3    H225881   4.741   4.072   7.553 -3.1443 -0.2795 -0.1516
 1416TIP3   OH225882   1.926   0.381   6.879  0.0635  0.3894 -0.6306
 1416TIP3    H125883   1.868   0.305   6.882 -0.2220  0.6377  0.2951
 1416TIP3    H225884   1.881   0.443   6.821 -1.0577  0.9400  0.7889
 1417TIP3   OH225885   4.523   6.207   1.645 -0.1334 -0.5244 -0.0600
 1417TIP3    H125886   4.564   6.246   1.723 -0.2774 -0.2297 -0.1272
 1417TIP3    H225887   4.517   6.280   1.583 -1.2491 -0.4170  0.1431
 1418TIP3   OH225888   4.020   1.931   8.012 -0.3796 -0.2155 -0.5226
 1418TIP3    H125889   3.988   1.849   7.975 -1.5051 -0.2530  0.4871
 1418TIP3    H225890   3.944   1.971   8.053  0.9127 -0.5604  2.4268
 1419TIP3   OH225891   0.832   5.602   0.323 -0.0526  0.1835 -0.7560
 1419TIP3    H125892   0.803   5.519   0.285  0.3808  0.1315 -0.9865
 1419TIP3    H225893   0.772   5.618   0.396  0.0507 -0.4885 -0.5139
 1420TIP3   OH225894   0.992   0.158   2.579 -0.1264 -0.8793 -0.2567
 1420TIP3    H125895   0.962   0.069   2.598 -1.7063 -0.6851 -1.6093
 1420TIP3    H225896   0.916   0.213   2.595  0.8674  0.2696  0.6609
 1421TIP3   OH225897   5.174   3.431   6.577 -0.0608  0.2778  0.0892
 1421TIP3    H125898   5.220   3.477   6.507  0.4256 -0.3960 -0.0441
 1421TIP3    H225899   5.098   3.391   6.534 -0.2281  0.5619  0.1163
 1422TIP3   OH225900   4.735   0.535   1.317  0.3479 -0.8381  0.7140
 1422TIP3    H125901   4.815   0.581   1.294 -1.1846  0.0439 -3.9222
 1422TIP3    H225902   4.750   0.445   1.289 -0.6285 -0.3365 -1.7044
 1423TIP3   OH225903   0.958   6.548   0.138 -0.2829  0.1364  0.0775
 1423TIP3    H125904   0.875   6.500   0.136  0.3931 -1.2700 -4.0501
 1423TIP3    H225905   0.932   6.640   0.150 -2.2960 -0.4399  0.4780
 1424TIP3   OH225906   5.101   0.367   1.265 -0.1717 -0.0699 -0.5897
 1424TIP3    H125907   5.097   0.271   1.271  1.5791 -0.1455 -0.1122
 1424TIP3    H225908   5.126   0.384   1.175 -2.1207  0.0393 -1.1477
 1425TIP3   OH225909   4.721   6.277   8.247  0.0733 -0.0347 -0.2451
 1425TIP3    H125910   4.647   6.336   8.238 -1.2903 -1.4609  0.8760
 1425TIP3    H225911   4.684   6.198   8.287  2.3474 -0.4841  1.2099
 1426TIP3   OH225912   1.845   5.366   6.880 -0.2130 -0.3195 -0.0983
 1426TIP3    H125913   1.814   5.411   6.801  1.1913 -0.2797 -0.6728
 1426TIP3    H225914   1.769   5.319   6.913 -0.6251 -1.1144 -2.0413
 1427TIP3   OH225915   5.011   6.146   0.454 -0.6087 -0.0446 -0.0463
 1427TIP3    H125916   5.010   6.191   0.538  0.2540  0.3396 -0.2296
 1427TIP3    H225917   5.098   6.107   0.448 -0.1798  0.9875 -1.2792
 1428TIP3   OH225918   1.318   0.542   7.192 -0.3427  0.1599 -0.4858
 1428TIP3    H125919   1.256   0.606   7.156  1.6140  1.3474 -1.9688
 1428TIP3    H225920   1.382   0.595   7.238 -0.5250 -1.0606  1.2437
 1429TIP3   OH225921   4.335   6.506   7.454 -0.1581  0.1191 -0.4463
 1429TIP3    H125922   4.284   6.582   7.480  1.3660  1.0933 -0.2161
 1429TIP3    H225923   4.385   6.535   7.378  0.9936 -0.4081  0.0894
 1430TIP3   OH225924   1.117   5.329   1.830 -0.2371  0.4585  0.0549
 1430TIP3    H125925   1.108   5.419   1.863 -0.1980  0.5272 -0.1222
 1430TIP3    H225926   1.102   5.336   1.736 -1.5739  0.0645  0.2313
 1431TIP3   OH225927   2.543   4.098   0.249 -0.7949 -0.5143  0.4381
 1431TIP3    H125928   2.584   4.174   0.292 -0.3585 -1.7396  2.3346
 1431TIP3    H225929   2.507   4.133   0.167 -1.2696  1.8895  1.5734
 1432TIP3   OH225930   0.325   1.082   2.503  0.3314  0.4763 -0.1192
 1432TIP3    H125931   0.300   1.157   2.449  1.0089  0.2529 -0.7743
 1432TIP3    H225932   0.244   1.032   2.514  0.0880  0.7653 -0.5604
 1433TIP3   OH225933   4.308   1.072   7.840  0.1045  0.8046 -0.0950
 1433TIP3    H125934   4.344   1.124   7.912 -1.8169  0.7956  0.9336
 1433TIP3    H225935   4.278   0.991   7.881  0.7432 -0.0506 -1.2629
 1434TIP3   OH225936   4.623   2.065   7.495  0.0383  0.5524 -0.3444
 1434TIP3    H125937   4.652   2.087   7.407 -0.7444  1.6753 -0.3489
 1434TIP3    H225938   4.540   2.020   7.482  1.2722 -1.8490 -0.2924
 1435TIP3   OH225939   3.222   1.551   6.702  0.1536 -0.0735 -0.0085
 1435TIP3    H125940   3.275   1.493   6.756 -0.2365 -1.5130 -1.1229
 1435TIP3    H225941   3.286   1.602   6.651  0.5034  0.8372  1.2887
 1436TIP3   OH225942   0.438   3.650   0.426 -0.5702  0.0327  0.6555
 1436TIP3    H125943   0.503   3.718   0.444  0.2602 -0.9185  1.2931
 1436TIP3    H225944   0.451   3.628   0.334 -0.4278  0.2959  0.6113
 1437TIP3   OH225945   3.566   0.584   8.188  0.0555  0.0817 -0.1414
 1437TIP3    H125946   3.497   0.648   8.209  0.4522  0.3719  0.3244
 1437TIP3    H225947   3.521   0.516   8.138 -0.8781 -0.4417  1.3274
 1438TIP3   OH225948   3.094   2.172   7.971 -0.1745  0.4818 -0.1956
 1438TIP3    H125949   3.023   2.171   8.035 -0.7318  0.5489 -0.7963
 1438TIP3    H225950   3.103   2.264   7.947  0.4613  0.5406  0.2431
 1439TIP3   OH225951   5.719   4.024   0.614 -0.4931  0.9653  0.2021
 1439TIP3    H125952   5.808   4.012   0.582 -0.7109  0.5228 -0.2369
 1439TIP3    H225953   5.730   4.049   0.706  0.2031  3.6385 -0.5111
 1440TIP3   OH225954   6.116   3.587   0.670 -0.3617  0.4137 -0.2782
 1440TIP3    H125955   6.101   3.492   0.671 -1.2984  0.5129 -1.7478
 1440TIP3    H225956   6.210   3.597   0.686 -0.0786 -0.8182 -1.0554
 1441TIP3   OH225957   4.247   3.441   7.525 -0.5382  0.3014  0.1561
 1441TIP3    H125958   4.295   3.523   7.512 -1.1492  0.9117  1.5654
 1441TIP3    H225959   4.289   3.379   7.466  1.7511  0.9018  1.0627
 1442TIP3   OH225960   5.982   5.667   6.748 -0.4992 -0.3651 -0.6782
 1442TIP3    H125961   5.952   5.606   6.815 -2.0716  1.7037  0.6148
 1442TIP3    H225962   5.907   5.681   6.691  0.0813 -0.2402 -1.4380
 1443TIP3   OH225963   1.481   6.886   8.454  0.6706 -0.0077  0.3625
 1443TIP3    H125964   1.493   6.894   8.549 -0.9901  0.2867  0.5720
 1443TIP3    H225965   1.438   6.801   8.443  0.6966  0.0419 -0.1210
 1444TIP3   OH225966   4.868   5.617   7.287  0.0812  0.0297 -0.1681
 1444TIP3    H125967   4.894   5.525   7.278 -0.7111 -0.1977 -0.2239
 1444TIP3    H225968   4.933   5.654   7.347  1.9163  0.0827 -2.0863
 1445TIP3   OH225969   0.107   1.130   0.943 -0.0672 -0.1367 -0.4431
 1445TIP3    H125970   0.018   1.137   0.910  0.1469  1.2455 -0.7650
 1445TIP3    H225971   0.130   1.038   0.929 -1.3401 -0.4576 -0.5698
 1446TIP3   OH225972   0.539   3.459   1.231  0.2102  0.6561  0.1109
 1446TIP3    H125973   0.477   3.407   1.282  2.5120 -1.6418  0.7968
 1446TIP3    H225974   0.534   3.425   1.142  1.2952 -0.4234  0.4339
 1447TIP3   OH225975   4.840   4.873   1.435 -0.2419 -0.7584 -0.5566
 1447TIP3    H125976   4.862   4.942   1.373  1.4513  0.5832  1.4004
 1447TIP3    H225977   4.786   4.917   1.501  2.0142 -0.8109  1.4755
 1448TIP3   OH225978   4.903   4.582   8.175  0.0626  0.0335 -0.1012
 1448TIP3    H125979   4.871   4.623   8.255 -1.9130  0.5562 -1.0964
 1448TIP3    H225980   4.997   4.575   8.187 -0.3561 -1.5988  3.0258
 1449TIP3   OH225981   5.198   2.156   0.168  0.1929 -0.0157 -0.5009
 1449TIP3    H125982   5.178   2.118   0.253 -0.0370 -0.0667 -0.5761
 1449TIP3    H225983   5.136   2.229   0.159  0.2867  0.0555 -0.5794
 1450TIP3   OH225984   3.641   1.685   8.112  0.4847  0.0810 -0.0687
 1450TIP3    H125985   3.591   1.733   8.178 -0.4549  1.3043 -1.6135
 1450TIP3    H225986   3.592   1.696   8.031 -0.1144 -4.0444 -0.4642
 1451TIP3   OH225987   3.798   6.128   1.595  0.1603 -0.1236  0.0802
 1451TIP3    H125988   3.861   6.133   1.523 -0.6595  0.0719 -0.6357
 1451TIP3    H225989   3.758   6.042   1.585  0.6920 -0.4768  0.8724
 1452TIP3   OH225990   2.835   1.850   1.475 -0.6270 -0.1817 -0.3296
 1452TIP3    H125991   2.858   1.923   1.533 -0.7467 -0.3885 -0.0243
 1452TIP3    H225992   2.746   1.826   1.500 -2.0818  2.0080 -2.9083
 1453TIP3   OH225993   2.201   0.924   0.751 -0.6001  0.0218  0.2121
 1453TIP3    H125994   2.206   0.850   0.812  1.2526 -2.3802 -2.5937
 1453TIP3    H225995   2.244   0.996   0.797 -0.1124 -1.3838  2.0924
 1454TIP3   OH225996   4.772   1.221   2.316 -0.6443  0.2625  0.6526
 1454TIP3    H125997   4.760   1.127   2.300  1.6825  0.0685 -0.5013
 1454TIP3    H225998   4.802   1.226   2.407  0.5386 -0.3015  0.3191
 1455TIP3   OH225999   6.809   1.735   1.455  0.2772  0.5614 -0.6726
 1455TIP3    H126000   6.787   1.642   1.456  0.6587  0.4470 -1.5018
 1455TIP3    H226001   6.875   1.742   1.385  0.4742  1.4015 -0.4069
 1456TIP3   OH226002   0.903   5.192   7.597 -0.2592 -0.2957  0.1946
 1456TIP3    H126003   0.913   5.108   7.640  0.7622 -0.5305 -0.4704
 1456TIP3    H226004   0.978   5.199   7.538 -0.5429  0.8973 -0.0673
 1457TIP3   OH226005   5.531   2.535   7.405 -0.0069  0.5342  0.1564
 1457TIP3    H126006   5.595   2.506   7.471  0.2789 -0.5319 -0.5668
 1457TIP3    H226007   5.452   2.554   7.456 -0.0702 -1.1314  0.7236
 1458TIP3   OH226008   4.749   5.178   6.787  0.4199 -0.3420 -0.4491
 1458TIP3    H126009   4.751   5.130   6.704  1.2504  0.6278 -1.0197
 1458TIP3    H226010   4.663   5.157   6.825  0.7981 -2.3487 -0.5905
 1459TIP3   OH226011   2.005   6.355   0.847 -0.3790  0.2043  0.8727
 1459TIP3    H126012   1.914   6.368   0.876 -0.1392  0.8731  1.3496
 1459TIP3    H226013   2.032   6.441   0.814  0.4642  0.3158  1.8237
 1460TIP3   OH226014   5.392   2.445   0.314  0.4411 -0.3916 -0.3388
 1460TIP3    H126015   5.382   2.484   0.401  0.5023  0.5882 -0.7592
 1460TIP3    H226016   5.316   2.477   0.265  0.8816 -0.2128 -0.9040
 1461TIP3   OH226017   2.871   1.433   6.861 -0.9086  0.7445 -0.6877
 1461TIP3    H126018   2.932   1.503   6.840 -1.7380  1.2604 -1.4552
 1461TIP3    H226019   2.803   1.438   6.793 -1.1935 -0.5533 -0.5379
 1462TIP3   OH226020   2.013   0.990   7.876 -0.3142  0.2216  0.1059
 1462TIP3    H126021   2.058   1.036   7.947  0.5690 -0.6566  0.1423
 1462TIP3    H226022   2.011   0.898   7.904  0.3602 -0.2018 -1.1446
 1463TIP3   OH226023   5.537   6.256   6.550 -0.1525  0.0486 -0.6041
 1463TIP3    H126024   5.585   6.322   6.500 -0.2716  1.7677  1.4270
 1463TIP3    H226025   5.448   6.290   6.556  0.3272  0.9985  2.4903
 1464TIP3   OH226026   4.319   6.675   7.006  0.4387 -0.0739  0.0874
 1464TIP3    H126027   4.340   6.768   6.995  0.7594 -0.1421  0.1372
 1464TIP3    H226028   4.323   6.639   6.917 -2.1991  0.4746 -0.3614
 1465TIP3   OH226029   1.733   1.337   2.038 -0.6325 -0.1831 -0.1528
 1465TIP3    H126030   1.763   1.338   2.129 -0.1324 -1.4064 -0.2844
 1465TIP3    H226031   1.808   1.305   1.989 -1.2905 -0.6725 -0.8512
 1466TIP3   OH226032   4.919   6.690   6.757  0.5804  0.0659 -0.4328
 1466TIP3    H126033   4.915   6.786   6.761 -2.3154  0.0546 -0.9758
 1466TIP3    H226034   4.993   6.667   6.813  2.3573  2.6601 -1.5119
 1467TIP3   OH226035   4.959   1.665   1.119  0.0502  0.1262 -0.3883
 1467TIP3    H126036   4.965   1.744   1.173 -0.0813 -0.2903  0.2494
 1467TIP3    H226037   4.880   1.621   1.151 -0.0879 -0.0710 -0.9989
 1468TIP3   OH226038   2.714   1.209   6.470  0.3139  0.7505 -0.2246
 1468TIP3    H126039   2.662   1.209   6.390 -1.2459  0.2470  0.7469
 1468TIP3    H226040   2.773   1.284   6.460  0.4193  0.4726 -1.9880
 1469TIP3   OH226041   5.749   0.221   1.120 -0.2254 -0.8284  0.5668
 1469TIP3    H126042   5.770   0.166   1.196 -0.1436 -0.0232  1.1387
 1469TIP3    H226043   5.826   0.214   1.064  0.9959  0.8663  1.9311
 1470TIP3   OH226044   1.688   0.590   1.788  0.4317  0.2262 -0.0732
 1470TIP3    H126045   1.645   0.507   1.809 -1.4065  1.1228 -0.1908
 1470TIP3    H226046   1.782   0.569   1.795  0.0948 -2.2817 -1.7013
 1471TIP3   OH226047   3.536   4.812   1.967 -0.1156 -0.4926  0.0668
 1471TIP3    H126048   3.632   4.809   1.972 -0.1628  0.0008  1.7286
 1471TIP3    H226049   3.508   4.828   2.057 -1.8255 -1.8947 -0.1666
 1472TIP3   OH226050   5.224   5.248   0.617 -0.2833 -0.6263 -0.3874
 1472TIP3    H126051   5.243   5.341   0.625 -0.5271 -0.6362  0.3289
 1472TIP3    H226052   5.226   5.215   0.707 -2.8914 -0.7795 -0.3163
 1473TIP3   OH226053   3.585   4.752   0.098 -0.1940 -0.3136 -0.0766
 1473TIP3    H126054   3.666   4.700   0.096  0.0831 -0.2758  3.3469
 1473TIP3    H226055   3.610   4.836   0.060  0.4536 -1.3078 -1.9779
 1474TIP3   OH226056   2.064   4.897   2.172  0.2306  0.4321  0.3693
 1474TIP3    H126057   2.033   4.807   2.163 -0.3992  0.5724  1.0029
 1474TIP3    H226058   2.056   4.934   2.084 -0.8927  0.2870  0.3955
 1475TIP3   OH226059   2.631   0.499   0.414  0.8632 -0.5937  0.0703
 1475TIP3    H126060   2.683   0.420   0.399 -0.6380 -1.5058 -0.5700
 1475TIP3    H226061   2.585   0.482   0.497 -0.8815 -1.2386 -0.9830
 1476TIP3   OH226062   6.780   4.710   8.030 -0.2723  0.1082  0.0928
 1476TIP3    H126063   6.802   4.798   7.999 -0.4627 -0.3893 -1.5111
 1476TIP3    H226064   6.689   4.719   8.060 -0.6128  0.2631 -0.9338
 1477TIP3   OH226065   1.997   3.486   1.181  0.6804  0.6162  0.3596
 1477TIP3    H126066   1.917   3.468   1.130  1.2217 -0.6152 -0.1026
 1477TIP3    H226067   1.979   3.568   1.226 -0.4601  0.8821 -0.5381
 1478TIP3   OH226068   4.174   1.083   8.221 -0.1979  0.4007  0.0919
 1478TIP3    H126069   4.095   1.029   8.216 -0.2487  0.5048 -0.2404
 1478TIP3    H226070   4.169   1.140   8.145  0.0913  0.5580  0.1884
 1479TIP3   OH226071   6.039   5.840   0.162 -0.2858 -0.5350  0.0397
 1479TIP3    H126072   6.103   5.854   0.231  0.2944 -0.9230 -0.4098
 1479TIP3    H226073   5.965   5.797   0.206 -0.6843  0.8170  0.7593
 1480TIP3   OH226074   1.451   0.295   7.398 -0.0271  0.3094  0.5727
 1480TIP3    H126075   1.475   0.291   7.490 -0.8559 -2.8193  0.7451
 1480TIP3    H226076   1.355   0.292   7.398 -0.0474  0.5596 -0.4145
 1481TIP3   OH226077   4.974   6.000   1.570 -0.4231  0.1241  0.4276
 1481TIP3    H126078   4.947   6.075   1.623 -0.3057 -0.1937  0.9426
 1481TIP3    H226079   4.982   6.036   1.481 -1.4502  0.4712  0.4548
 1482TIP3   OH226080   5.366   4.893   7.945  0.4522  0.3074 -0.1607
 1482TIP3    H126081   5.443   4.945   7.971  1.0897 -0.6998  0.0086
 1482TIP3    H226082   5.310   4.894   8.022  1.4272 -0.9930  0.6081
 1483TIP3   OH226083   5.541   4.448   2.295  0.1066 -0.3773 -0.1492
 1483TIP3    H126084   5.520   4.527   2.345  1.7435  0.0133 -0.0082
 1483TIP3    H226085   5.637   4.444   2.296  0.1938 -0.6720 -2.7861
 1484TIP3   OH226086   2.058   1.320   6.668  0.4225  0.5197  0.1766
 1484TIP3    H126087   2.075   1.256   6.736  1.0006 -0.1321 -0.5722
 1484TIP3    H226088   1.997   1.382   6.709 -0.5821 -0.7964  0.7330
 1485TIP3   OH226089   5.541   4.008   2.546 -0.2578  0.3136 -0.5064
 1485TIP3    H126090   5.485   4.071   2.501 -0.5795 -0.6286 -1.4554
 1485TIP3    H226091   5.570   3.948   2.477 -0.5780 -1.0359  0.4917
 1486TIP3   OH226092   1.325   5.125   1.283  0.1554  0.2639  0.0958
 1486TIP3    H126093   1.420   5.135   1.282  0.1322  0.6484  0.8869
 1486TIP3    H226094   1.297   5.160   1.198  0.5796  1.7859  0.5486
 1487TIP3   OH226095   4.810   3.271   2.473  0.1743  0.6473  0.0250
 1487TIP3    H126096   4.869   3.284   2.399 -0.0126  0.2090 -0.2040
 1487TIP3    H226097   4.811   3.355   2.520  1.1523  0.5711  0.1583
 1488TIP3   OH226098   0.889   3.566   7.447 -0.2190  0.0998  0.2159
 1488TIP3    H126099   0.879   3.482   7.491 -0.1316 -0.3072 -0.5294
 1488TIP3    H226100   0.850   3.553   7.361 -2.7133  1.6438  1.0084
 1489TIP3   OH226101   1.634   3.543   7.210  0.2691  0.3818 -0.0277
 1489TIP3    H126102   1.684   3.509   7.284  0.8737  1.7984  0.2520
 1489TIP3    H226103   1.569   3.475   7.191  1.1153 -0.6842  0.7880
 1490TIP3   OH226104   2.304   0.740   7.897 -0.1344 -0.3215 -0.1214
 1490TIP3    H126105   2.222   0.751   7.850  0.6558  0.1345 -1.4621
 1490TIP3    H226106   2.318   0.824   7.941 -0.4638 -0.4594  0.2499
 1491TIP3   OH226107   4.788   0.318   8.017 -0.4110  0.2748 -0.3959
 1491TIP3    H126108   4.834   0.401   8.028  1.3234 -0.6554 -0.1036
 1491TIP3    H226109   4.761   0.294   8.105  0.5523 -0.2174 -0.2124
 1492TIP3   OH226110   1.525   5.513   1.160 -0.1138 -0.0611  0.2726
 1492TIP3    H126111   1.512   5.494   1.067  1.9674  1.8084 -0.5000
 1492TIP3    H226112   1.437   5.525   1.195 -0.9400 -0.7735 -1.4428
 1493TIP3   OH226113   6.453   1.656   8.152 -0.1801 -0.0486 -0.3711
 1493TIP3    H126114   6.483   1.587   8.093 -1.3459  0.3205 -1.4125
 1493TIP3    H226115   6.528   1.715   8.159  0.4394 -0.8107 -0.3574
 1494TIP3   OH226116   0.828   6.677   0.774  0.3044  0.5100  0.6105
 1494TIP3    H126117   0.879   6.609   0.731 -0.9083 -0.6145  0.8755
 1494TIP3    H226118   0.891   6.727   0.825  1.3486  0.1755 -0.3162
 1495TIP3   OH226119   4.686   6.567   8.361 -0.0565  0.0183 -0.1191
 1495TIP3    H126120   4.767   6.564   8.412  0.8066 -0.5586 -1.4454
 1495TIP3    H226121   4.715   6.587   8.272 -0.9961 -2.9532 -1.2350
 1496TIP3   OH226122   5.632   0.882   1.265 -0.2236 -0.4098  0.5250
 1496TIP3    H126123   5.650   0.957   1.323 -1.9626  0.1772  0.3834
 1496TIP3    H226124   5.609   0.811   1.325  0.2429 -0.4735  0.6275
 1497TIP3   OH226125   2.544   0.387   7.528  0.1524  0.9192 -0.4317
 1497TIP3    H126126   2.502   0.440   7.460 -0.3553  1.1101  0.0194
 1497TIP3    H226127   2.519   0.430   7.610 -0.5560 -0.2140 -0.0425
 1498TIP3   OH226128   2.650   0.565   0.134 -0.6591 -0.1741  0.1227
 1498TIP3    H126129   2.625   0.559   0.226  0.1482  0.9045  0.4345
 1498TIP3    H226130   2.738   0.528   0.131 -0.7505 -0.3566 -0.2354
 1499TIP3   OH226131   2.584   0.017   0.039 -0.4590 -0.1964  0.4423
 1499TIP3    H126132   2.494   0.039   0.064 -0.7396 -0.9819  0.1420
 1499TIP3    H226133   2.585  -0.078   0.031 -0.0632 -0.0836 -1.3135
 1500TIP3   OH226134   6.105   5.999   7.166  0.1420 -0.1531  0.1198
 1500TIP3    H126135   6.019   6.033   7.141 -0.5320  0.9097  3.4235
 1500TIP3    H226136   6.091   5.905   7.178 -0.0476 -0.3038 -1.1403
 1501TIP3   OH226137   4.788   1.365   7.911 -0.0741 -0.2603 -0.3802
 1501TIP3    H126138   4.774   1.278   7.948  1.3815 -0.3183  0.1002
 1501TIP3    H226139   4.739   1.424   7.968  0.4443 -0.5802  0.4195
 1502TIP3   OH226140   5.885   1.496   6.968  0.1361  0.3364  0.5265
 1502TIP3    H126141   5.973   1.464   6.947  0.6761  1.2630  1.2994
 1502TIP3    H226142   5.878   1.486   7.063 -0.1855  1.2340  0.6076
 1503TIP3   OH226143   4.542   3.778   7.287  0.5648 -0.0270  0.5133
 1503TIP3    H126144   4.540   3.691   7.247 -0.5180 -0.3353  1.1815
 1503TIP3    H226145   4.479   3.830   7.237 -1.6143 -0.7144  2.3457
 1504TIP3   OH226146   6.365   2.865   1.231 -0.3091  0.0716 -0.3201
 1504TIP3    H126147   6.381   2.791   1.172  1.9006 -0.0013  0.2859
 1504TIP3    H226148   6.398   2.941   1.184 -1.4398  0.5122 -0.4326
 1505TIP3   OH226149   4.840   4.760   7.138 -0.3017 -0.0897  0.2495
 1505TIP3    H126150   4.765   4.820   7.143  0.6837  1.1745  0.3050
 1505TIP3    H226151   4.870   4.767   7.047  0.9511  0.9546  0.7150
 1506TIP3   OH226152   6.005   5.726   1.532  0.0565  0.6093  0.7171
 1506TIP3    H126153   6.032   5.681   1.612 -1.0212 -2.5696 -0.5530
 1506TIP3    H226154   6.087   5.747   1.488  0.6225  0.6941  1.7621
 1507TIP3   OH226155   6.076   3.876   1.931 -0.0499  0.7436 -0.0945
 1507TIP3    H126156   6.012   3.944   1.953 -0.6704 -0.0885  0.7034
 1507TIP3    H226157   6.067   3.864   1.837 -0.8529  0.8541 -0.0367
 1508TIP3   OH226158   0.554   1.628   7.068 -0.4876  0.7002  0.0162
 1508TIP3    H126159   0.624   1.688   7.040 -2.3568  2.4478 -1.1227
 1508TIP3    H226160   0.553   1.560   7.002  0.1579  0.6189  0.0770
 1509TIP3   OH226161   0.339   6.358   6.595  0.1052 -0.1716 -0.3544
 1509TIP3    H126162   0.276   6.321   6.534 -0.1056 -1.7587  0.7650
 1509TIP3    H226163   0.330   6.305   6.674  1.4055  0.8761  0.5458
 1510TIP3   OH226164   5.339   4.621   1.734  0.2958  0.3136 -0.6712
 1510TIP3    H126165   5.353   4.613   1.640 -0.6050 -1.4378 -0.6992
 1510TIP3    H226166   5.309   4.534   1.761 -1.6186  1.3882  0.8543
 1511TIP3   OH226167   3.918   4.319   7.695  0.0728 -0.2411  0.2730
 1511TIP3    H126168   3.918   4.320   7.599 -0.3881  0.5517  0.2659
 1511TIP3    H226169   3.999   4.364   7.719 -0.4977  0.8680  0.2251
 1512TIP3   OH226170   0.400   0.244   1.426  0.0655 -0.1217  0.0527
 1512TIP3    H126171   0.405   0.338   1.445 -0.4764  0.0217 -0.4478
 1512TIP3    H226172   0.383   0.203   1.511 -1.1397  0.3796  0.0789
 1513TIP3   OH226173   2.907   6.095   6.884 -0.1180  0.4488  0.1074
 1513TIP3    H126174   2.917   6.016   6.830 -1.1495  0.8191 -0.6524
 1513TIP3    H226175   2.817   6.123   6.869 -0.1900  1.0020  1.4539
 1514TIP3   OH226176   4.694   6.900   7.286  0.3066 -0.5447  0.2402
 1514TIP3    H126177   4.710   6.931   7.197 -0.3835 -0.4561  0.1371
 1514TIP3    H226178   4.606   6.933   7.307  1.1219  0.8699  1.5932
 1515TIP3   OH226179   4.221   1.532   0.627  0.7137  0.1269  0.2944
 1515TIP3    H126180   4.168   1.596   0.674  0.4498  1.1536 -1.3438
 1515TIP3    H226181   4.302   1.526   0.678 -0.7761 -1.2979  2.7123
 1516TIP3   OH226182   0.588   4.347   0.898 -0.1468  0.1069  0.0294
 1516TIP3    H126183   0.562   4.388   0.815  0.4642  1.5037  0.5053
 1516TIP3    H226184   0.533   4.269   0.903 -0.6357  0.3169 -1.3953
 1517TIP3   OH226185   2.723   0.926   6.367 -0.0009  0.1488 -0.1866
 1517TIP3    H126186   2.681   0.929   6.280 -1.1971  1.2552  0.4009
 1517TIP3    H226187   2.730   1.018   6.393  0.7856 -0.1553  0.6983
 1518TIP3   OH226188   5.183   3.784   8.244  0.3354 -0.5237 -0.4437
 1518TIP3    H126189   5.176   3.861   8.300 -0.9771 -0.8544 -0.1126
 1518TIP3    H226190   5.254   3.733   8.282  0.4231 -0.0461  0.0474
 1519TIP3   OH226191   5.814   4.695   1.224 -0.4060 -0.7085 -0.2379
 1519TIP3    H126192   5.805   4.773   1.279 -0.2320  0.8081 -2.2557
 1519TIP3    H226193   5.900   4.660   1.247  0.1529  0.5458 -0.3386
 1520TIP3   OH226194   1.292   5.394   1.585 -0.0245  0.5509 -0.2682
 1520TIP3    H126195   1.360   5.396   1.652  1.2203 -0.8459 -1.4135
 1520TIP3    H226196   1.263   5.303   1.583 -2.3533  1.2086  0.5446
 1521TIP3   OH226197   1.548   0.464   2.079  0.4585 -0.4314  0.4811
 1521TIP3    H126198   1.477   0.516   2.043  0.6433 -0.8973 -0.5791
 1521TIP3    H226199   1.562   0.501   2.167  1.2166  1.9629 -0.5498
 1522TIP3   OH226200   1.171   1.994   8.396 -0.0920  0.1138  0.2081
 1522TIP3    H126201   1.169   1.981   8.491  1.2242 -2.3167 -0.0243
 1522TIP3    H226202   1.234   2.065   8.384  0.9224 -0.5776  1.1224
 1523TIP3   OH226203   2.545   5.225   8.432  0.0182 -0.1050  0.1134
 1523TIP3    H126204   2.540   5.131   8.447  1.5165 -0.2256 -0.0271
 1523TIP3    H226205   2.529   5.264   8.518 -0.5480 -0.4685  0.1823
 1524TIP3   OH226206   0.318   1.498   7.573  0.1334  0.1199 -0.0759
 1524TIP3    H126207   0.233   1.540   7.589 -0.7079 -1.4485 -0.1518
 1524TIP3    H226208   0.354   1.545   7.498 -2.4061 -1.4616 -2.4998
 1525TIP3   OH226209   2.371   1.776   8.395 -0.1492  0.3101 -0.8054
 1525TIP3    H126210   2.415   1.836   8.336  0.0260  1.0316  0.0464
 1525TIP3    H226211   2.386   1.812   8.482  0.9698 -1.5845 -0.1429
 1526TIP3   OH226212   2.128   0.756   8.542  0.2697 -0.2537 -0.4199
 1526TIP3    H126213   2.118   0.671   8.500 -0.1649  0.1064 -1.0678
 1526TIP3    H226214   2.222   0.768   8.552  0.4814  0.2110 -2.5031
 1527TIP3   OH226215   0.454   6.354   0.064 -0.1825  0.4242  0.1295
 1527TIP3    H126216   0.399   6.322  -0.007 -1.1854  0.8592  0.6803
 1527TIP3    H226217   0.532   6.388   0.021 -1.4398  2.1147 -0.9343
 1528TIP3   OH226218   4.008   3.606   7.756  0.2549  0.2514  0.5875
 1528TIP3    H126219   4.052   3.630   7.675 -0.2648 -0.2307  0.1540
 1528TIP3    H226220   3.917   3.635   7.743 -0.6724 -2.7681 -0.3773
 1529TIP3   OH226221   5.028   2.829   7.983  0.5641 -0.0031 -0.0673
 1529TIP3    H126222   5.018   2.763   7.914 -0.5861 -2.5065  2.2755
 1529TIP3    H226223   5.097   2.794   8.039 -0.6923  0.2901  1.7339
 1530TIP3   OH226224   6.255   6.619   1.176  0.0354 -0.0748 -0.1315
 1530TIP3    H126225   6.238   6.567   1.098  2.5752 -0.6443 -0.4029
 1530TIP3    H226226   6.218   6.705   1.157 -0.3607 -0.5323 -1.5037
 1531TIP3   OH226227   1.180   4.746   7.419 -0.5363 -0.2825 -0.2643
 1531TIP3    H126228   1.195   4.837   7.392 -2.7983  0.3272  0.3220
 1531TIP3    H226229   1.227   4.737   7.502  0.7011 -0.0527 -0.9119
 1532TIP3   OH226230   0.405   0.081   8.181 -0.7236  0.2500  0.4751
 1532TIP3    H126231   0.406   0.079   8.277  1.5117 -0.3581  0.4934
 1532TIP3    H226232   0.314   0.062   8.158 -0.8442 -2.1798  2.4648
 1533TIP3   OH226233   1.018   0.073   8.479 -0.2377  0.3542 -0.8215
 1533TIP3    H126234   0.951   0.128   8.438 -0.8924 -0.8119 -1.3365
 1533TIP3    H226235   0.984  -0.016   8.472  1.5689 -0.3090 -1.4807
 1534TIP3   OH226236   4.239   2.394   8.052 -0.4222 -0.2238  0.3848
 1534TIP3    H126237   4.229   2.308   8.092  2.2476 -0.7496  0.0907
 1534TIP3    H226238   4.316   2.385   7.995  0.3453  2.5411  0.8657
 1535TIP3   OH226239   1.459   5.897   0.232 -0.4097  0.0065 -0.1555
 1535TIP3    H126240   1.521   5.852   0.174 -0.6225 -1.0142  0.3837
 1535TIP3    H226241   1.495   5.883   0.320 -0.5625  0.7834  0.0354
 1536TIP3   OH226242   6.470   0.066   1.090 -0.4189 -0.2720 -0.2023
 1536TIP3    H126243   6.484  -0.019   1.048  0.4265  0.2623 -1.0577
 1536TIP3    H226244   6.483   0.050   1.183  1.3991 -0.7656 -0.5050
 1537TIP3   OH226245   6.669   3.474   0.866  0.4315  0.5519  0.0886
 1537TIP3    H126246   6.733   3.487   0.797  1.2646 -0.7716  0.5792
 1537TIP3    H226247   6.721   3.460   0.945 -0.3620 -1.8634  0.2652
 1538TIP3   OH226248   2.268   3.851   1.170 -0.4585 -0.3421 -0.1341
 1538TIP3    H126249   2.201   3.813   1.113 -0.1200  0.4504 -1.0627
 1538TIP3    H226250   2.299   3.928   1.124 -0.6608  0.7204  1.4260
 1539TIP3   OH226251   1.912   4.689   0.121 -0.4241 -0.3393 -0.2681
 1539TIP3    H126252   1.851   4.645   0.180 -1.2391  0.5405 -0.4330
 1539TIP3    H226253   1.998   4.679   0.163 -1.1424  1.4071  1.7800
 1540TIP3   OH226254   6.505   5.120   0.148 -0.0940 -0.8631 -0.5759
 1540TIP3    H126255   6.484   5.109   0.241  1.8810  1.4231  0.2422
 1540TIP3    H226256   6.563   5.046   0.128  0.6452 -0.5816  0.4393
 1541TIP3   OH226257   1.226   1.629   8.322 -0.2766 -0.0965 -0.0520
 1541TIP3    H126258   1.238   1.700   8.259 -0.0714 -0.6196 -0.6044
 1541TIP3    H226259   1.289   1.562   8.295 -0.2345 -0.3513  0.6712
 1542TIP3   OH226260   4.060   4.201   0.495 -0.1517 -0.5048 -0.2788
 1542TIP3    H126261   4.116   4.236   0.425 -0.0645  1.5292  0.7330
 1542TIP3    H226262   4.013   4.278   0.528  0.7101 -1.1140  2.6765
 1543TIP3   OH226263   5.171   3.518   8.594  0.3405 -0.1444 -0.4541
 1543TIP3    H126264   5.106   3.588   8.583  0.4345 -0.2936 -2.4139
 1543TIP3    H226265   5.123   3.438   8.574  1.2004 -0.2083 -2.5031
 1544TIP3   OH226266   6.275   0.261   0.352 -0.4767  0.1678 -0.0422
 1544TIP3    H126267   6.251   0.240   0.442  0.4414  1.6025  0.5757
 1544TIP3    H226268   6.304   0.178   0.315 -1.0085 -0.4760  0.9277
 1545TIP3   OH226269   0.084   1.496   1.430 -0.4855 -0.3109  0.0622
 1545TIP3    H126270   0.090   1.419   1.486  0.1681 -0.0737  0.3186
 1545TIP3    H226271   0.143   1.477   1.357 -0.2929 -0.0354  0.1460
 1546TIP3   OH226272   3.083   2.707   1.724 -0.1940 -0.4383  0.7033
 1546TIP3    H126273   3.019   2.777   1.721 -0.7012 -0.8745  1.1272
 1546TIP3    H226274   3.131   2.715   1.642 -0.9242 -0.2371  0.2879
 1547TIP3   OH226275   0.737   6.660   8.203 -0.2997  0.4904 -0.3207
 1547TIP3    H126276   0.657   6.697   8.241 -0.5213 -0.1984 -0.0821
 1547TIP3    H226277   0.719   6.566   8.198 -0.1973  0.5388 -1.9701
 1548TIP3   OH226278   1.215   6.408   1.355 -0.1694  0.2711 -0.1823
 1548TIP3    H126279   1.277   6.456   1.411  1.9045 -2.7397  0.3242
 1548TIP3    H226280   1.156   6.365   1.416 -0.0836 -0.2645 -0.4736
 1549TIP3   OH226281   5.927   2.046   7.648  0.2828 -0.2516  0.9944
 1549TIP3    H126282   5.857   2.012   7.705 -0.5893 -0.4592 -0.1676
 1549TIP3    H226283   5.882   2.073   7.568  1.3723  0.8450  0.7207
 1550TIP3   OH226284   5.527   0.488   7.919 -0.3511  0.2601 -0.5574
 1550TIP3    H126285   5.536   0.577   7.886  2.4729  0.0459 -0.5991
 1550TIP3    H226286   5.587   0.484   7.994 -1.2302 -1.3127  0.1176
 1551TIP3   OH226287   2.136   0.477   2.722 -0.1402 -0.2430 -0.4123
 1551TIP3    H126288   2.229   0.484   2.743 -0.4590  1.1515  0.6797
 1551TIP3    H226289   2.104   0.567   2.725 -1.5989 -0.7362 -0.4667
 1552TIP3   OH226290   2.500   4.244   7.040  0.1506  0.0068 -0.8098
 1552TIP3    H126291   2.455   4.298   7.105 -1.0864 -0.8021 -0.9562
 1552TIP3    H226292   2.556   4.186   7.093  1.5477  1.4256 -0.6592
 1553TIP3   OH226293   0.906   4.971   7.229  0.1177  0.2834  0.3662
 1553TIP3    H126294   0.981   5.023   7.258 -0.1959  0.1022  1.5501
 1553TIP3    H226295   0.832   5.007   7.277 -0.1358 -1.1353  1.0956
 1554TIP3   OH226296   2.421   4.809   0.189  0.3509  0.8232  0.3964
 1554TIP3    H126297   2.464   4.805   0.275  0.9167  2.4224  0.2080
 1554TIP3    H226298   2.466   4.880   0.143  0.6596 -0.5707 -1.5728
 1555TIP3   OH226299   0.734   2.341   1.909  0.2259  0.1740 -0.3716
 1555TIP3    H126300   0.677   2.286   1.856  2.0623 -1.4244 -0.7988
 1555TIP3    H226301   0.676   2.377   1.976 -1.5627 -0.1228 -1.6718
 1556TIP3   OH226302   3.177   6.077   1.200  0.3896 -0.5910 -0.6750
 1556TIP3    H126303   3.225   6.159   1.210  0.0830 -0.5972  1.2365
 1556TIP3    H226304   3.245   6.010   1.199  0.6119 -0.7544  3.6376
 1557TIP3   OH226305   3.929   6.484   0.782  0.2803 -0.0302  0.1245
 1557TIP3    H126306   3.990   6.459   0.852 -1.7915  1.5411  2.6563
 1557TIP3    H226307   3.869   6.410   0.776 -0.1132  0.2358  0.7191
 1558TIP3   OH226308   0.571   0.481   7.996  0.0378 -0.0317 -0.2701
 1558TIP3    H126309   0.566   0.393   7.961  0.1069  0.1866 -0.8403
 1558TIP3    H226310   0.520   0.534   7.934  1.7095  0.6790 -1.0909
 1559TIP3   OH226311   1.618   5.155   0.267 -0.1099 -0.1528  0.5898
 1559TIP3    H126312   1.639   5.208   0.344 -1.7903 -2.8079  3.1125
 1559TIP3    H226313   1.702   5.126   0.233  0.7787  2.9040 -0.0770
 1560TIP3   OH226314   0.186   0.373   7.113  0.2350 -0.5276  0.6234
 1560TIP3    H126315   0.108   0.422   7.139  0.6331  0.3435  0.2144
 1560TIP3    H226316   0.259   0.432   7.130  0.8811 -1.5252  1.4997
 1561TIP3   OH226317   2.197   0.656   1.805 -0.2829  0.0263  0.2473
 1561TIP3    H126318   2.247   0.578   1.831  1.1519  0.9986  0.5068
 1561TIP3    H226319   2.250   0.697   1.736 -1.7321  0.0253 -0.9278
 1562TIP3   OH226320   5.506   5.651   1.370  0.2254 -0.3591 -0.4294
 1562TIP3    H126321   5.598   5.645   1.344  0.5428  0.2599  0.5417
 1562TIP3    H226322   5.501   5.728   1.426 -0.5675 -1.2859  0.8330
 1563TIP3   OH226323   3.760   2.807   0.459 -0.2204 -0.4251  0.0917
 1563TIP3    H126324   3.815   2.814   0.537  0.8991  0.5865 -0.7282
 1563TIP3    H226325   3.802   2.867   0.396 -2.4036  0.5573 -0.5141
 1564TIP3   OH226326   5.658   0.828   0.023 -0.1845  0.0029  0.0157
 1564TIP3    H126327   5.679   0.803  -0.067 -0.8934 -0.1779 -0.1075
 1564TIP3    H226328   5.631   0.920   0.016  0.0736  0.0852  0.0952
 1565TIP3   OH226329   1.906   1.657   6.937 -0.1543  0.6934  0.4477
 1565TIP3    H126330   1.913   1.721   6.867  1.3409 -0.6855 -0.7386
 1565TIP3    H226331   1.856   1.585   6.899 -0.8408  0.6557  1.3834
 1566TIP3   OH226332   3.756   3.693   7.649  0.0348 -0.1982 -0.5715
 1566TIP3    H126333   3.770   3.744   7.569  1.5263 -0.5972 -0.5985
 1566TIP3    H226334   3.764   3.602   7.621 -0.9116 -0.3984 -0.2190
 1567TIP3   OH226335   4.521   0.235   7.186  0.1789  0.5010  0.3106
 1567TIP3    H126336   4.573   0.248   7.266  0.7045 -0.7496  0.2070
 1567TIP3    H226337   4.431   0.253   7.212  0.4204  0.6694  1.0420
 1568TIP3   OH226338   6.392   0.595   0.977 -0.0769  0.5775  0.1009
 1568TIP3    H126339   6.333   0.530   0.938 -0.1910  0.6038  0.2300
 1568TIP3    H226340   6.408   0.657   0.906 -2.1657  1.9292  0.7275
 1569TIP3   OH226341   4.267   3.848   0.345  0.2120 -0.1409  0.0224
 1569TIP3    H126342   4.212   3.924   0.328 -1.8915 -1.2089  1.4776
 1569TIP3    H226343   4.265   3.798   0.263 -0.0516  0.3950 -0.3029
 1570TIP3   OH226344   1.754   5.975   7.571  0.3906  0.4085  0.1435
 1570TIP3    H126345   1.763   6.036   7.497 -1.8800  1.6930  0.8340
 1570TIP3    H226346   1.842   5.970   7.609  1.0912  1.5480 -1.2229
 1571TIP3   OH226347   6.375   5.259   8.376  0.3350 -0.6617  0.2854
 1571TIP3    H126348   6.342   5.345   8.404  0.8934 -0.2782 -0.2161
 1571TIP3    H226349   6.419   5.276   8.292 -1.1904 -1.7695 -0.7798
 1572TIP3   OH226350   0.064   1.565   8.011  0.3587  0.4312  0.0574
 1572TIP3    H126351   0.041   1.637   7.952 -0.7289  0.3753  0.4040
 1572TIP3    H226352  -0.019   1.526   8.036  0.7005  1.1737  2.5455
 1573TIP3   OH226353   0.731   3.104   6.456 -0.1041 -0.1573 -0.1153
 1573TIP3    H126354   0.739   3.025   6.404  2.1703  0.6346 -1.0872
 1573TIP3    H226355   0.675   3.162   6.403 -1.7066 -1.0025  0.5639
 1574TIP3   OH226356   2.601   2.495   2.626  0.6582 -0.2918 -0.3008
 1574TIP3    H126357   2.553   2.519   2.547  1.4871 -0.4741 -0.8718
 1574TIP3    H226358   2.672   2.559   2.632  0.9185 -0.5988 -0.0008
 1575TIP3   OH226359   6.594   4.616   7.288  0.3969 -0.1436 -0.6863
 1575TIP3    H126360   6.582   4.666   7.207  1.2345  2.2608  0.5730
 1575TIP3    H226361   6.520   4.556   7.290  0.3580 -0.2943 -3.2104
 1576TIP3   OH226362   1.137   2.457   7.875  0.0216  0.4767  0.1736
 1576TIP3    H126363   1.089   2.374   7.878  0.6677  0.1114  0.7572
 1576TIP3    H226364   1.139   2.487   7.966 -1.0136  1.6151 -0.1687
 1577TIP3   OH226365   3.137   3.183   7.801  0.1915  0.6029 -0.3573
 1577TIP3    H126366   3.162   3.201   7.892  0.7570 -0.2993 -0.3239
 1577TIP3    H226367   3.153   3.089   7.790 -2.6645  0.0156 -0.4920
 1578TIP3   OH226368   4.163   2.337   8.494  1.0161  0.2548 -0.1735
 1578TIP3    H126369   4.156   2.404   8.426  0.4381 -0.8641 -1.2671
 1578TIP3    H226370   4.238   2.283   8.467  1.5410  0.4994  0.7434
 1579TIP3   OH226371   0.289   1.982   6.303 -0.6498  0.4724  0.8338
 1579TIP3    H126372   0.353   2.029   6.357  1.8497  0.5836 -1.9255
 1579TIP3    H226373   0.341   1.917   6.256 -2.9179 -0.6283 -0.3117
 1580TIP3   OH226374   1.920   6.376   7.118  0.4233  0.3039  0.4246
 1580TIP3    H126375   1.893   6.284   7.112  1.9141 -0.0712 -1.8751
 1580TIP3    H226376   1.924   6.394   7.212 -0.2315 -1.8607  0.9289
 1581TIP3   OH226377   2.772   3.867   8.336  0.4514  0.2768  0.4248
 1581TIP3    H126378   2.836   3.809   8.295 -1.0198 -1.2497  0.1584
 1581TIP3    H226379   2.808   3.886   8.422  1.0555 -0.9764  0.4765
 1582TIP3   OH226380   3.283   3.948   1.799 -0.1243  0.2392  0.0125
 1582TIP3    H126381   3.259   3.911   1.884 -0.1434 -0.5397 -0.3139
 1582TIP3    H226382   3.374   3.975   1.808 -0.1188  0.1296  0.2732
 1583TIP3   OH226383   4.878   1.885   8.577  0.4556 -0.6122 -0.5227
 1583TIP3    H126384   4.966   1.893   8.614  1.3080 -2.8145 -1.8391
 1583TIP3    H226385   4.891   1.839   8.494 -1.6325  1.7727 -2.3481
 1584TIP3   OH226386   2.838   5.224   1.431 -0.1638 -0.8095  0.0107
 1584TIP3    H126387   2.749   5.228   1.466  0.1344 -0.5835  0.7602
 1584TIP3    H226388   2.894   5.254   1.503  0.6149 -1.9474 -0.1013
 1585TIP3   OH226389   5.658   2.271   1.447  0.0391 -0.0889 -0.3724
 1585TIP3    H126390   5.666   2.365   1.432  0.4326 -0.2272 -1.0885
 1585TIP3    H226391   5.595   2.241   1.382 -1.0626 -0.1282  0.6900
 1586TIP3   OH226392   3.761   4.468   8.140 -0.1290 -0.4381  0.0321
 1586TIP3    H126393   3.743   4.536   8.075  0.5241 -0.6586 -0.3944
 1586TIP3    H226394   3.742   4.386   8.095 -0.1287 -0.5716  0.2718
 1587TIP3   OH226395   1.717   4.858   0.437  0.0105  0.0067  0.2988
 1587TIP3    H126396   1.691   4.932   0.493  0.7327  1.8336 -1.6434
 1587TIP3    H226397   1.646   4.851   0.373  0.6600 -0.0045 -0.4215
 1588TIP3   OH226398   3.291   2.780   7.999  0.2625  1.1353 -0.3432
 1588TIP3    H126399   3.283   2.849   8.065 -0.8190  0.4299  0.3104
 1588TIP3    H226400   3.269   2.699   8.047  3.2349  0.0518 -0.6153
 1589TIP3   OH226401   0.801   5.187   2.321 -0.0747  0.3797 -0.2743
 1589TIP3    H126402   0.759   5.114   2.367 -0.6451  1.1607  0.4841
 1589TIP3    H226403   0.865   5.220   2.384 -0.2388  0.9079 -0.3866
 1590TIP3   OH226404   3.906   6.811   8.452  0.2751  0.6270 -0.1231
 1590TIP3    H126405   3.958   6.843   8.378  0.6443 -0.9492 -0.5849
 1590TIP3    H226406   3.970   6.798   8.522  0.8348 -2.3652 -1.0227
 1591TIP3   OH226407   6.544   3.797   8.147 -0.3231  0.2388  0.0232
 1591TIP3    H126408   6.578   3.768   8.062  1.5073 -1.2398  1.2063
 1591TIP3    H226409   6.466   3.743   8.161  0.3508 -0.7522  0.0354
 1592TIP3   OH226410   4.010   6.524   1.460 -0.0928 -0.1581  0.0432
 1592TIP3    H126411   3.926   6.525   1.414  0.3657  1.6725 -0.8814
 1592TIP3    H226412   4.007   6.599   1.518  1.0540  0.2005 -0.3269
 1593TIP3   OH226413   2.674   5.056   0.457  0.0885  0.4135  0.7079
 1593TIP3    H126414   2.602   5.093   0.509 -0.9090  0.9870 -0.9852
 1593TIP3    H226415   2.730   5.131   0.437 -0.2268  0.4558 -0.0738
 1594TIP3   OH226416   5.401   1.553   1.423  0.4309  0.4447 -0.6494
 1594TIP3    H126417   5.311   1.520   1.427  0.6618 -0.0851  0.7322
 1594TIP3    H226418   5.402   1.611   1.347 -0.4865 -1.2900 -2.0759
 1595TIP3   OH226419   0.290   4.902   7.498  0.4814 -0.2709  0.3751
 1595TIP3    H126420   0.355   4.918   7.430  2.3512 -2.4355  1.5162
 1595TIP3    H226421   0.221   4.852   7.455  0.4571  0.4366 -0.4268
 1596TIP3   OH226422   3.986   2.982   0.674  0.3682 -0.4343 -0.3873
 1596TIP3    H126423   4.048   2.922   0.715  0.3325  0.2353  0.7014
 1596TIP3    H226424   4.025   3.004   0.590 -0.0973 -2.7319 -1.2622
 1597TIP3   OH226425   1.424   1.513   2.270  0.2174  0.4876 -1.0855
 1597TIP3    H126426   1.449   1.425   2.298  0.7358  1.0838  0.4521
 1597TIP3    H226427   1.330   1.517   2.283  0.4217  0.7000  0.5785
 1598TIP3   OH226428   5.492   4.090   1.459  0.1303 -0.7429  0.5457
 1598TIP3    H126429   5.550   4.014   1.470  3.5161  1.2068 -2.1119
 1598TIP3    H226430   5.522   4.152   1.525  1.2259  0.2715 -0.8375
 1599TIP3   OH226431   0.956   0.281   7.529 -0.0588  0.5536  0.0038
 1599TIP3    H126432   0.969   0.364   7.573 -0.1788  1.5692 -1.7567
 1599TIP3    H226433   0.888   0.299   7.463 -0.3103 -1.0113 -0.2137
 1600TIP3   OH226434   4.664   4.164   7.715 -0.5641  0.0175  0.0795
 1600TIP3    H126435   4.710   4.193   7.793  2.0106 -0.6233 -1.1163
 1600TIP3    H226436   4.571   4.170   7.739  0.0698  1.6694  2.4847
 1601TIP3   OH226437   1.741   0.636   7.943  0.2478 -0.0142 -0.0894
 1601TIP3    H126438   1.680   0.639   7.869  0.4751 -1.7775 -0.3947
 1601TIP3    H226439   1.712   0.707   8.000  0.3396  1.6997 -2.0355
 1602TIP3   OH226440   3.454   1.539   1.369 -0.5413 -0.1944  0.3581
 1602TIP3    H126441   3.383   1.529   1.432 -2.6176  2.2518 -1.3454
 1602TIP3    H226442   3.415   1.517   1.285  1.7907 -2.1700 -0.3200
 1603TIP3   OH226443   0.186   0.489   1.948  0.0086 -0.1722 -0.3864
 1603TIP3    H126444   0.254   0.424   1.931  0.6183  0.2904  0.2099
 1603TIP3    H226445   0.185   0.497   2.043 -0.5565  0.1732 -0.4212
 1604TIP3   OH226446   4.885   4.427   1.407  0.1215 -1.0082 -0.3657
 1604TIP3    H126447   4.830   4.500   1.436  0.8880 -0.2988 -0.6716
 1604TIP3    H226448   4.975   4.456   1.425  0.5815 -0.8628 -2.6946
 1605TIP3   OH226449   5.110   2.979   1.109 -0.5077 -0.2396 -0.0901
 1605TIP3    H126450   5.147   3.049   1.162  1.5070 -1.9321  0.9112
 1605TIP3    H226451   5.050   2.933   1.168 -1.5441  0.3698 -0.6346
 1606TIP3   OH226452   4.205   5.582   0.466 -0.4034 -0.3748 -0.1290
 1606TIP3    H126453   4.115   5.604   0.488 -0.1130  1.2144 -0.4270
 1606TIP3    H226454   4.235   5.655   0.411  0.7258 -1.3982 -0.9157
 1607TIP3   OH226455   0.364   4.651   7.189  0.5122 -0.3339  1.1824
 1607TIP3    H126456   0.444   4.655   7.241  0.6240  0.6224  0.9653
 1607TIP3    H226457   0.307   4.718   7.227  1.0109  1.1796 -0.5435
 1608TIP3   OH226458   4.045   1.785   1.703  0.3025  0.9198 -0.6196
 1608TIP3    H126459   4.124   1.730   1.707 -0.3659 -0.1486 -1.5585
 1608TIP3    H226460   3.982   1.741   1.760  0.1723  1.4328 -0.3589
 1609TIP3   OH226461   2.150   1.896   2.676  0.3384 -0.0870 -0.0479
 1609TIP3    H126462   2.183   1.912   2.764  1.0099 -0.1637 -0.2791
 1609TIP3    H226463   2.110   1.979   2.650  0.7468  0.1533  0.0733
 1610TIP3   OH226464   1.793   4.908   0.014 -0.0955  0.6240  0.3112
 1610TIP3    H126465   1.808   4.826   0.061 -0.5172 -0.1051 -0.7787
 1610TIP3    H226466   1.848   4.972   0.059  1.9935 -0.7345 -0.1751
 1611TIP3   OH226467   0.141   1.392   6.423 -0.4407  0.2123 -0.0951
 1611TIP3    H126468   0.122   1.484   6.440  2.3230  0.9832 -0.7013
 1611TIP3    H226469   0.216   1.393   6.364 -0.0289 -2.4347  0.2517
 1612TIP3   OH226470   2.806   4.774   1.690  0.0606 -0.1720  0.5835
 1612TIP3    H126471   2.817   4.860   1.732 -0.4214  0.1356  0.0977
 1612TIP3    H226472   2.834   4.711   1.756 -1.3957  0.2510  1.6570
 1613TIP3   OH226473   5.537   3.236   1.447 -0.1946 -0.2642 -0.2458
 1613TIP3    H126474   5.561   3.328   1.457 -1.6554  0.2070 -0.8077
 1613TIP3    H226475   5.500   3.211   1.531  0.2068 -0.3474 -0.0918
 1614TIP3   OH226476   1.722   6.127   6.777  0.7315  0.1216  0.4169
 1614TIP3    H126477   1.727   6.171   6.692  0.7052  0.2463  0.4802
 1614TIP3    H226478   1.629   6.128   6.798  0.7877  0.4792  0.6520
 1615TIP3   OH226479   4.364   2.206   1.991  0.0311 -0.6218 -0.2902
 1615TIP3    H126480   4.419   2.230   1.916 -1.6320  1.3716 -0.9785
 1615TIP3    H226481   4.422   2.210   2.066  0.9391  1.0960 -1.0220
 1616TIP3   OH226482   2.091   3.304   0.934 -0.2073 -0.2534 -0.4058
 1616TIP3    H126483   2.019   3.329   0.993 -0.6858 -0.4719 -0.8847
 1616TIP3    H226484   2.066   3.341   0.849  0.3040 -0.2420 -0.5544
 1617TIP3   OH226485   3.313   6.456   7.632  0.3507  0.4144 -0.3738
 1617TIP3    H126486   3.222   6.434   7.613  0.9667 -1.3031 -1.6731
 1617TIP3    H226487   3.332   6.530   7.575 -0.1177  0.5236 -0.3924
 1618TIP3   OH226488   3.194   0.363   7.657 -0.4354 -0.3885  0.3061
 1618TIP3    H126489   3.163   0.445   7.694  0.6725  0.5012 -0.6861
 1618TIP3    H226490   3.227   0.386   7.570 -0.0963 -1.8810  0.0028
 1619TIP3   OH226491   2.350   1.468   2.734  0.8688 -0.5207  0.1683
 1619TIP3    H126492   2.345   1.372   2.731  0.2922 -0.5474  1.3375
 1619TIP3    H226493   2.435   1.489   2.695  0.5106 -1.4220 -1.1943
 1620TIP3   OH226494   4.674   5.486   6.863 -0.3131  0.0203 -0.2541
 1620TIP3    H126495   4.582   5.463   6.850 -0.8035  1.6790  0.0042
 1620TIP3    H226496   4.674   5.538   6.943  1.0031 -0.7013  0.2366
 1621TIP3   OH226497   5.822   4.875   8.067 -0.7822 -0.0390 -0.0697
 1621TIP3    H126498   5.861   4.894   7.982  1.3071 -0.0127  0.8348
 1621TIP3    H226499   5.824   4.959   8.114 -0.2747 -0.4232  0.6171
 1622TIP3   OH226500   1.269   2.205   0.055  0.1483  0.1619  0.1242
 1622TIP3    H126501   1.180   2.227   0.028 -0.0754  0.0376  0.7537
 1622TIP3    H226502   1.316   2.191  -0.028 -0.8704 -1.6239 -0.1943
 1623TIP3   OH226503   6.807   4.980   7.289 -0.8314  0.4063  0.0949
 1623TIP3    H126504   6.838   5.053   7.236  1.0737  1.1952  2.1741
 1623TIP3    H226505   6.877   4.915   7.283 -0.5198  0.5605  1.6909
 1624TIP3   OH226506   5.091   6.505   8.133  0.0729 -0.0798 -0.2453
 1624TIP3    H126507   5.180   6.526   8.105 -0.0636  0.2505 -0.4400
 1624TIP3    H226508   5.085   6.410   8.124  1.1105 -0.3971  1.8407
 1625TIP3   OH226509   2.691   5.747   0.612 -0.2364 -0.8262 -0.4931
 1625TIP3    H126510   2.640   5.705   0.543  0.0610 -1.5091 -0.3047
 1625TIP3    H226511   2.780   5.715   0.599 -0.0064 -0.2694 -0.3253
 1626TIP3   OH226512   2.509   2.533   2.100  0.3376  0.7444 -0.4443
 1626TIP3    H126513   2.570   2.562   2.168 -0.2844  0.6975  0.1437
 1626TIP3    H226514   2.437   2.595   2.104 -0.2275  0.0902 -0.3087
 1627TIP3   OH226515   2.186   2.447   0.083 -0.4672 -0.4277 -0.0120
 1627TIP3    H126516   2.163   2.366   0.127  0.3054 -0.8557 -0.3760
 1627TIP3    H226517   2.132   2.448   0.004  0.1937 -1.0645 -0.4880
 1628TIP3   OH226518   2.926   0.848   7.747 -0.0721  0.5985 -0.4818
 1628TIP3    H126519   2.889   0.821   7.663 -1.0827  2.2095 -0.5868
 1628TIP3    H226520   2.865   0.814   7.813  1.7867 -2.5136 -0.1510
 1629TIP3   OH226521   2.091   0.765   8.210  0.1215 -0.2517 -0.5331
 1629TIP3    H126522   2.164   0.807   8.255  0.0625  1.2857 -1.7617
 1629TIP3    H226523   2.097   0.673   8.233  0.5857  0.3239  1.8697
 1630TIP3   OH226524   4.546   0.199   7.907  0.1585 -0.0698 -0.2121
 1630TIP3    H126525   4.636   0.230   7.915 -0.0100  0.2742  0.4371
 1630TIP3    H226526   4.492   0.277   7.925 -0.2665 -0.5520  0.6718
 1631TIP3   OH226527   3.346   4.891   6.151 -0.0093 -0.1517  0.1895
 1631TIP3    H126528   3.315   4.828   6.087 -0.3698 -1.2525  1.3924
 1631TIP3    H226529   3.433   4.917   6.121 -0.1730 -0.6481 -0.7186
 1632TIP3   OH226530   6.818   4.563   7.773  0.6005 -0.5157 -0.1892
 1632TIP3    H126531   6.831   4.644   7.822 -0.9019 -1.7979  2.5935
 1632TIP3    H226532   6.906   4.531   7.757  1.1931  0.3683  1.0597
 1633TIP3   OH226533   4.239   4.921   6.645 -0.0803 -0.2689 -0.3913
 1633TIP3    H126534   4.287   4.840   6.626  0.2934 -0.0953 -0.1903
 1633TIP3    H226535   4.152   4.906   6.608 -0.0291 -0.7842 -0.3190
 1634TIP3   OH226536   0.729   2.212   7.763  0.0141 -0.1918  0.6950
 1634TIP3    H126537   0.693   2.301   7.769 -0.1867  0.1205 -2.8654
 1634TIP3    H226538   0.656   2.158   7.736  0.7038 -0.8827  0.1560
 1635TIP3   OH226539   4.031   5.604   8.285 -0.0645 -0.4626 -0.3422
 1635TIP3    H126540   4.020   5.682   8.339  1.6401 -0.8537  0.6561
 1635TIP3    H226541   3.942   5.574   8.266 -0.7269  1.3880 -0.2800
 1636TIP3   OH226542   2.911   2.207   0.594  0.0479 -0.3429  0.1849
 1636TIP3    H126543   2.883   2.288   0.551 -0.2531 -1.0661 -1.0306
 1636TIP3    H226544   2.898   2.139   0.528  1.7937 -1.1659  0.6312
 1637TIP3   OH226545   0.684   2.070   8.330  0.7276  0.4672  0.0163
 1637TIP3    H126546   0.606   2.015   8.330  0.2127  1.1444 -1.3162
 1637TIP3    H226547   0.757   2.008   8.324  0.1830 -0.1147 -0.9207
 1638TIP3   OH226548   0.183   2.283   1.678  0.5807  0.0660 -0.0212
 1638TIP3    H126549   0.120   2.314   1.612 -0.7789 -1.1833  0.6262
 1638TIP3    H226550   0.261   2.261   1.627 -0.9898 -2.4834 -1.5750
 1639TIP3   OH226551   2.961   4.533   7.337  0.0718 -0.0080  0.1114
 1639TIP3    H126552   2.909   4.591   7.280  0.3031 -0.1717 -0.2733
 1639TIP3    H226553   2.898   4.472   7.373  0.1101 -0.7484 -1.0303
 1640TIP3   OH226554   0.502   0.603   2.138  0.1436  0.5284 -0.0942
 1640TIP3    H126555   0.482   0.555   2.218  0.6616  0.0897 -0.2230
 1640TIP3    H226556   0.446   0.680   2.142 -0.5996 -0.0121  0.1847
 1641TIP3   OH226557   0.187   0.083   7.841 -0.4031  0.3646  0.2731
 1641TIP3    H126558   0.230   0.084   7.755  0.7249  0.6369  0.8166
 1641TIP3    H226559   0.196   0.173   7.873  1.9114 -0.3526  1.9304
 1642TIP3   OH226560   4.309   4.178   7.340  0.0213 -0.4094  0.1513
 1642TIP3    H126561   4.225   4.158   7.298  0.3469  0.9619 -1.2267
 1642TIP3    H226562   4.289   4.246   7.404  0.2224  0.8018 -1.0198
 1643TIP3   OH226563   3.709   5.461   0.460  0.9270 -0.5706  0.7388
 1643TIP3    H126564   3.659   5.446   0.380  1.0484 -1.6118  0.8486
 1643TIP3    H226565   3.799   5.474   0.430  0.7498  0.4203  0.6095
 1644TIP3   OH226566   5.924   5.385   7.805  0.0709  0.5794 -0.0422
 1644TIP3    H126567   5.845   5.346   7.767 -0.5591  2.6713 -1.0370
 1644TIP3    H226568   5.981   5.310   7.824 -2.2629 -1.0573  1.0871
 1645TIP3   OH226569   1.087   1.250   1.918 -0.4014 -0.1101 -0.2112
 1645TIP3    H126570   1.018   1.309   1.946 -0.9423 -0.4996 -0.6891
 1645TIP3    H226571   1.165   1.279   1.965 -0.9283  0.2301  0.4656
 1646TIP3   OH226572   3.237   1.381   8.243  0.4250 -0.2389 -0.6169
 1646TIP3    H126573   3.144   1.394   8.262  0.3904 -2.3218  1.0964
 1646TIP3    H226574   3.249   1.416   8.155 -1.6825  1.2204 -0.3997
 1647TIP3   OH226575   5.354   5.271   7.104  0.5135 -0.0804 -0.4687
 1647TIP3    H126576   5.280   5.332   7.099  1.8143  1.4819 -2.6913
 1647TIP3    H226577   5.386   5.264   7.014  1.8333 -2.3070  0.0991
 1648TIP3   OH226578   2.421   3.922   6.971 -0.5873 -0.1485  0.0931
 1648TIP3    H126579   2.389   3.845   7.019  1.2472 -0.2057  1.3293
 1648TIP3    H226580   2.495   3.890   6.920 -0.3702  0.6148 -0.0906
 1649TIP3   OH226581   2.541   4.969   7.022 -0.0940 -0.4554 -0.2937
 1649TIP3    H126582   2.488   5.041   7.056  1.4660  0.6748 -0.1980
 1649TIP3    H226583   2.535   4.978   6.927  0.3229 -0.0162 -0.2819
 1650TIP3   OH226584   4.751   5.417   1.628  0.2517  0.0571  0.3780
 1650TIP3    H126585   4.767   5.511   1.634  1.5533 -0.1871  1.1597
 1650TIP3    H226586   4.804   5.388   1.554 -0.4358 -0.0071 -0.0920
 1651TIP3   OH226587   4.530   1.801   6.233 -0.0765 -0.3560 -0.2882
 1651TIP3    H126588   4.622   1.779   6.222  0.6450  2.0131  0.3305
 1651TIP3    H226589   4.490   1.722   6.268  1.8225 -1.2975 -0.1432
 1652TIP3   OH226590   3.114   0.291   1.396 -0.0334 -0.2952  0.2612
 1652TIP3    H126591   3.095   0.223   1.331 -0.5493 -0.2178  0.3246
 1652TIP3    H226592   3.047   0.278   1.463 -0.4099  0.5439  0.0653
 1653TIP3   OH226593   1.465   6.055   2.697 -0.3142 -0.1239  0.3279
 1653TIP3    H126594   1.514   5.998   2.639 -1.0510  1.1511 -1.6625
 1653TIP3    H226595   1.525   6.127   2.717 -0.9637  0.9249 -1.2964
 1654TIP3   OH226596   1.690   5.617   0.267  0.4245  0.4156  0.1775
 1654TIP3    H126597   1.736   5.688   0.222  0.6087 -1.1328 -2.3180
 1654TIP3    H226598   1.639   5.575   0.198 -0.2856 -1.4009  1.7242
 1655TIP3   OH226599   0.052   6.466   7.172  0.1660  0.5406 -0.5360
 1655TIP3    H126600  -0.022   6.409   7.194 -0.8013  2.4866  1.7363
 1655TIP3    H226601   0.038   6.489   7.080 -0.0590 -1.8101 -1.1765
 1656TIP3   OH226602   1.576   5.359   7.637 -0.7008  0.3375 -0.2122
 1656TIP3    H126603   1.541   5.304   7.707 -0.2264  0.2931 -0.0017
 1656TIP3    H226604   1.671   5.358   7.651 -0.4118 -1.1165 -1.8992
 1657TIP3   OH226605   3.854   4.046   0.650  0.1707 -0.5435 -0.1754
 1657TIP3    H126606   3.905   4.126   0.662 -1.5698  0.3502  1.9006
 1657TIP3    H226607   3.858   4.029   0.556  1.2834  1.4873 -0.5585
 1658TIP3   OH226608   5.863   2.913   1.526 -0.4732  0.6978  0.0888
 1658TIP3    H126609   5.902   2.969   1.593  0.5886 -0.3040  0.3346
 1658TIP3    H226610   5.901   2.944   1.443  1.9369 -1.0751  0.4395
 1659TIP3   OH226611   4.914   1.103   8.461 -0.0604 -0.0521 -0.3846
 1659TIP3    H126612   4.846   1.088   8.527 -0.9896  0.9212 -1.0665
 1659TIP3    H226613   4.879   1.175   8.408  2.1071  1.4478  0.0632
 1660TIP3   OH226614   0.876   2.403   7.564 -0.0397 -0.2104  0.0331
 1660TIP3    H126615   0.836   2.348   7.497  0.3700  0.6545 -0.9563
 1660TIP3    H226616   0.824   2.387   7.643 -2.1981  0.6541 -1.1160
 1661TIP3   OH226617   2.460   1.575   0.848  0.1180 -0.0051  0.4708
 1661TIP3    H126618   2.458   1.549   0.940  1.7034  2.5547  1.3211
 1661TIP3    H226619   2.435   1.667   0.848 -1.0195 -0.2291 -1.8448
 1662TIP3   OH226620   3.144   3.797   7.263  0.3354 -0.3608  0.2482
 1662TIP3    H126621   3.209   3.791   7.193 -0.1036 -1.6894 -0.0797
 1662TIP3    H226622   3.114   3.887   7.261  0.3131 -0.3805 -1.3044
 1663TIP3   OH226623   6.178   2.489   7.305  0.4016  0.1929 -0.1756
 1663TIP3    H126624   6.202   2.538   7.227  2.8414  0.0285  0.4100
 1663TIP3    H226625   6.234   2.523   7.374 -0.1433 -1.1819  1.0090
 1664TIP3   OH226626   0.692   4.666   7.949 -0.0934  0.3217 -0.8007
 1664TIP3    H126627   0.663   4.578   7.974  0.2750 -0.0706 -1.7365
 1664TIP3    H226628   0.624   4.699   7.891  0.0290  0.4488 -0.8737
 1665TIP3   OH226629   3.656   1.803   6.687  0.2136  0.0983 -0.3284
 1665TIP3    H126630   3.729   1.752   6.653 -0.3627 -1.6687  0.9244
 1665TIP3    H226631   3.582   1.779   6.631 -0.7251 -2.7797  1.9178
 1666TIP3   OH226632   2.518   0.408   1.642 -0.1611 -0.6703  0.5949
 1666TIP3    H126633   2.585   0.427   1.576 -2.4321  0.2773 -1.6300
 1666TIP3    H226634   2.513   0.487   1.695 -1.1931  0.2671 -0.8458
 1667TIP3   OH226635   2.910   3.862   6.577 -0.8394 -0.0577 -0.7400
 1667TIP3    H126636   2.871   3.840   6.492  0.3782  2.3081 -2.0077
 1667TIP3    H226637   2.841   3.908   6.625 -1.3266 -0.8397 -0.6703
 1668TIP3   OH226638   0.245   5.692   1.798  0.7261 -0.1616 -0.3730
 1668TIP3    H126639   0.340   5.694   1.782  0.6859  2.6475 -0.8308
 1668TIP3    H226640   0.219   5.603   1.775  3.1197 -0.7997 -0.9765
 1669TIP3   OH226641   3.909   5.150   6.602  0.3448 -0.1087  0.1118
 1669TIP3    H126642   3.923   5.057   6.591  1.4561  0.3208 -2.8071
 1669TIP3    H226643   3.945   5.170   6.689 -1.2061 -2.5361  1.4311
 1670TIP3   OH226644   3.231   2.495   8.421 -0.2641  0.6230  0.1684
 1670TIP3    H126645   3.197   2.585   8.426 -2.2478  0.0154 -1.1269
 1670TIP3    H226646   3.169   2.444   8.474  1.3041  0.0823  1.5806
 1671TIP3   OH226647   2.756   3.422   0.879  0.5422  0.4595 -0.4191
 1671TIP3    H126648   2.703   3.473   0.817  1.4484  1.6070 -0.2811
 1671TIP3    H226649   2.792   3.487   0.939 -2.1596 -0.7380  2.8765
 1672TIP3   OH226650   6.809   0.771   2.560  0.0842  0.3347 -0.1462
 1672TIP3    H126651   6.880   0.833   2.575 -0.6566  0.6500  2.6303
 1672TIP3    H226652   6.732   0.826   2.546 -0.3725  0.0703  1.2253
 1673TIP3   OH226653   0.394   0.082   1.230  0.2600  0.5244  0.1541
 1673TIP3    H126654   0.408   0.132   1.310  0.7955 -1.7446  1.5661
 1673TIP3    H226655   0.398  -0.010   1.258 -1.1590 -0.3447 -2.2043
 1674TIP3   OH226656   4.138   6.401   0.943 -0.2938 -0.2613  0.7485
 1674TIP3    H126657   4.132   6.309   0.917 -0.0886 -0.4621  1.3920
 1674TIP3    H226658   4.134   6.399   1.038 -0.5470  0.4211  0.7577
 1675TIP3   OH226659   2.031   0.492   1.246 -0.1242 -0.0004 -0.3856
 1675TIP3    H126660   2.045   0.512   1.339  2.7020  1.9979 -1.1054
 1675TIP3    H226661   1.955   0.545   1.221  0.3403  1.0652  0.3627
 1676TIP3   OH226662   4.687   5.044   7.083 -0.7172  0.2100  0.1663
 1676TIP3    H126663   4.712   5.124   7.130  1.9176  0.0501 -0.7905
 1676TIP3    H226664   4.628   5.073   7.014 -0.2094  1.2675  0.1610
 1677TIP3   OH226665   5.714   1.502   7.945 -0.0583  0.4094  0.2253
 1677TIP3    H126666   5.681   1.584   7.983  1.4535  1.7016 -1.0391
 1677TIP3    H226667   5.724   1.523   7.851  4.6813  0.4355  0.5043
 1678TIP3   OH226668   0.525   2.294   6.321  0.1057  0.1031  0.6474
 1678TIP3    H126669   0.478   2.340   6.252  0.0746  1.2539  1.4157
 1678TIP3    H226670   0.529   2.356   6.393  0.8220 -0.7975  1.4085
 1679TIP3   OH226671   3.378   1.082   2.036  0.6373  0.3966 -0.0423
 1679TIP3    H126672   3.326   1.003   2.048  0.2855  0.7977  1.2320
 1679TIP3    H226673   3.372   1.100   1.942 -0.5097 -0.2571 -0.1215
 1680TIP3   OH226674   3.794   2.148   1.216  0.2290 -0.1249  0.0626
 1680TIP3    H126675   3.847   2.149   1.137  1.2599 -0.7009  0.7193
 1680TIP3    H226676   3.856   2.129   1.286 -0.6647  0.3450  1.0080
 1681TIP3   OH226677   4.917   3.925   0.318  0.2997 -0.4324 -0.4060
 1681TIP3    H126678   4.938   3.833   0.302  0.6513 -0.0783 -2.2472
 1681TIP3    H226679   4.992   3.973   0.282 -0.3264  0.6124 -0.3508
 1682TIP3   OH226680   5.513   1.085   7.652 -0.1298  0.0030 -0.8285
 1682TIP3    H126681   5.561   1.063   7.572  0.1386  0.2854 -0.7469
 1682TIP3    H226682   5.554   1.033   7.721 -0.1139  0.0466 -0.8050
 1683TIP3   OH226683   5.098   5.270   6.864  0.3030 -0.5939  0.5865
 1683TIP3    H126684   5.124   5.318   6.943  1.0824 -0.0547  0.0110
 1683TIP3    H226685   5.168   5.286   6.801  0.3838 -2.1626  0.2297
 1684TIP3   OH226686   6.401   3.556   6.400 -0.3078  0.2895 -0.0671
 1684TIP3    H126687   6.362   3.643   6.401 -0.0332  0.4182 -0.4557
 1684TIP3    H226688   6.493   3.571   6.378  0.5789  0.2314  3.0341
 1685TIP3   OH226689   4.455   2.210   7.688  0.0108 -0.2534 -0.5579
 1685TIP3    H126690   4.444   2.219   7.593 -1.6927  0.3911 -0.3446
 1685TIP3    H226691   4.548   2.192   7.700  0.2089 -0.6708 -2.3677
 1686TIP3   OH226692   5.791   4.789   2.503  0.1331 -0.3332  0.3644
 1686TIP3    H126693   5.868   4.740   2.531  0.8291  0.4067 -0.2230
 1686TIP3    H226694   5.804   4.877   2.538 -0.9582 -0.4575  1.1428
 1687TIP3   OH226695   2.904   6.655   8.260 -0.6140 -0.4868 -0.5490
 1687TIP3    H126696   2.875   6.708   8.186 -0.2957 -0.5756 -0.7377
 1687TIP3    H226697   2.989   6.691   8.283  0.1655 -1.6788 -1.4433
 1688TIP3   OH226698   4.075   3.808   7.999 -0.3628  0.6214  0.4610
 1688TIP3    H126699   4.064   3.790   8.093  0.0456 -1.4909  0.1505
 1688TIP3    H226700   3.988   3.792   7.962 -0.0093 -0.8875  0.1925
 1689TIP3   OH226701   4.128   0.459   7.805 -0.1902  0.3385  0.1948
 1689TIP3    H126702   4.084   0.464   7.890 -0.5758  2.5524 -0.0908
 1689TIP3    H226703   4.060   0.481   7.741  0.4742  0.2396 -0.5591
 1690TIP3   OH226704   6.508   2.161   8.049  0.0379 -0.0746 -0.3646
 1690TIP3    H126705   6.435   2.107   8.018 -0.7671  0.4359  0.5952
 1690TIP3    H226706   6.567   2.098   8.092 -0.9856 -0.1956  0.9173
 1691TIP3   OH226707   5.328   5.077   1.656 -0.4163  0.0485 -0.3693
 1691TIP3    H126708   5.300   5.168   1.667  0.9146  0.4655 -0.1782
 1691TIP3    H226709   5.310   5.056   1.565 -0.2708  0.6774 -0.5430
 1692TIP3   OH226710   1.217   2.458   8.423 -0.4016 -0.4356  0.6982
 1692TIP3    H126711   1.278   2.521   8.460 -1.1530  0.7072  0.0784
 1692TIP3    H226712   1.204   2.488   8.333  0.4981 -2.4719 -0.1518
 1693TIP3   OH226713   3.347   0.808   8.171 -0.2830  0.5935  0.1659
 1693TIP3    H126714   3.283   0.846   8.111  1.4426  0.5217 -1.8126
 1693TIP3    H226715   3.412   0.876   8.184 -0.5233  0.5473  1.8917
 1694TIP3   OH226716   6.594   1.179   7.489  0.2406 -0.1568  0.0439
 1694TIP3    H126717   6.679   1.223   7.491 -0.2668  0.8919 -0.4872
 1694TIP3    H226718   6.577   1.157   7.581  0.3982  1.0161  0.3714
 1695TIP3   OH226719   0.584   1.190   7.204 -0.0763  0.4431  0.0994
 1695TIP3    H126720   0.573   1.252   7.276 -0.7072 -0.2356  0.6073
 1695TIP3    H226721   0.667   1.146   7.222 -0.4458 -0.0352  0.6683
 1696TIP3   OH226722   4.193   6.199   0.515 -0.7052 -0.2613 -0.3482
 1696TIP3    H126723   4.168   6.263   0.448 -1.9153 -2.0560 -1.7234
 1696TIP3    H226724   4.116   6.143   0.524  0.1390 -1.2553  1.1469
 1697TIP3   OH226725   5.597   2.400   8.181  0.5653 -0.5204 -0.4332
 1697TIP3    H126726   5.525   2.374   8.238  0.0028  0.1400 -0.8140
 1697TIP3    H226727   5.555   2.458   8.116  1.2128 -1.1172 -1.3976
 1698TIP3   OH226728   5.014   0.995   1.839  0.3624  0.0213 -0.7465
 1698TIP3    H126729   5.000   1.002   1.933 -0.0084 -0.5565 -0.7530
 1698TIP3    H226730   5.098   0.951   1.830 -0.0022 -0.7098 -0.6714
 1699TIP3   OH226731   0.210   3.101   7.243  0.3529  0.2792 -0.1807
 1699TIP3    H126732   0.241   3.029   7.297 -1.5116  0.5702  1.3580
 1699TIP3    H226733   0.264   3.176   7.269  0.6337  0.0161 -0.0097
 1700TIP3   OH226734   2.360   0.075   6.206  0.6237 -0.4613  0.5132
 1700TIP3    H126735   2.450   0.045   6.191  0.6054  0.6637 -2.4149
 1700TIP3    H226736   2.370   0.157   6.256  1.1380 -0.8593  1.0771
 1701TIP3   OH226737   1.639   4.156   2.705 -0.1537 -0.5416  0.4874
 1701TIP3    H126738   1.591   4.119   2.779 -1.6983 -0.2734 -0.3579
 1701TIP3    H226739   1.705   4.213   2.746 -1.2757 -0.0376  1.6550
 1702TIP3   OH226740   3.398   6.558   0.269  0.6080  0.0340 -0.3917
 1702TIP3    H126741   3.308   6.542   0.298  0.8761  2.4982  2.2496
 1702TIP3    H226742   3.446   6.479   0.294 -0.5516 -0.7385 -0.5555
 1703TIP3   OH226743   1.746   6.216   0.336 -0.2877 -0.0537 -0.1791
 1703TIP3    H126744   1.669   6.245   0.386  0.6661  0.4627  1.0650
 1703TIP3    H226745   1.812   6.282   0.355  0.9010 -1.2425 -0.0638
 1704TIP3   OH226746   1.943   4.623   1.304 -0.2677 -0.5592  0.1290
 1704TIP3    H126747   1.940   4.644   1.398  2.1890 -0.9203  0.3698
 1704TIP3    H226748   1.903   4.698   1.261 -0.2405  0.2228  1.4091
 1705TIP3   OH226749   2.943   4.442   0.383  0.0324 -0.1813 -0.3678
 1705TIP3    H126750   2.882   4.382   0.340 -0.0887  0.1376 -0.6529
 1705TIP3    H226751   2.959   4.510   0.317 -1.4671  1.2448  0.6506
 1706TIP3   OH226752   2.454   0.497   0.944 -0.2396 -0.2961  0.1517
 1706TIP3    H126753   2.463   0.474   0.852 -1.2984 -2.1238  0.4672
 1706TIP3    H226754   2.532   0.462   0.986 -0.8384 -1.5043  0.2897
 1707TIP3   OH226755   0.297   1.206   0.335  0.6807  0.7053 -0.1659
 1707TIP3    H126756   0.306   1.288   0.288  4.7655  0.3425 -0.3313
 1707TIP3    H226757   0.347   1.142   0.284 -0.2685 -1.2953  1.2459
 1708TIP3   OH226758   1.025   2.797   6.807 -0.1595  0.7492  0.5257
 1708TIP3    H126759   1.088   2.730   6.836 -0.1189 -0.8098 -2.7061
 1708TIP3    H226760   1.080   2.870   6.778 -0.1430  1.5956  2.5374
 1709TIP3   OH226761   0.654   4.193   7.161 -0.1659 -0.0780 -0.1484
 1709TIP3    H126762   0.715   4.179   7.233 -0.6554 -2.2340 -0.0840
 1709TIP3    H226763   0.578   4.235   7.201  0.3998  0.6710  0.1631
 1710TIP3   OH226764   1.199   2.659   0.828  0.3800  0.1152 -0.1517
 1710TIP3    H126765   1.195   2.751   0.853 -2.6961  0.1424 -0.4179
 1710TIP3    H226766   1.167   2.656   0.738  0.2772 -1.2278 -0.0983
 1711TIP3   OH226767   5.148   2.241   1.426 -0.2566  0.0576 -0.3613
 1711TIP3    H126768   5.092   2.164   1.434  0.1822 -0.3205 -0.9083
 1711TIP3    H226769   5.097   2.302   1.372 -0.8995  0.4415  0.6486
 1712TIP3   OH226770   4.089   6.201   2.271  0.3717  0.2976 -0.1255
 1712TIP3    H126771   4.178   6.195   2.236  0.3955  0.1438 -0.0385
 1712TIP3    H226772   4.036   6.152   2.208  0.4177  0.0002  0.0613
 1713TIP3   OH226773   0.808   1.337   0.954  0.3593 -0.1363  0.0105
 1713TIP3    H126774   0.887   1.284   0.966  2.3012  2.8812  2.1362
 1713TIP3    H226775   0.835   1.406   0.893 -1.8758 -1.1206 -2.2083
 1714TIP3   OH226776   2.336   2.770   0.638 -0.2791  0.0336  0.2755
 1714TIP3    H126777   2.361   2.716   0.713 -0.1483  0.6292  0.6773
 1714TIP3    H226778   2.285   2.842   0.677 -0.0502  0.4484 -0.1802
 1715TIP3   OH226779   2.963   0.217   1.600 -0.0363 -0.4717 -0.1026
 1715TIP3    H126780   2.917   0.280   1.655 -0.3116  1.1954 -2.1245
 1715TIP3    H226781   3.003   0.156   1.662 -1.9332  0.1314  1.8425
 1716TIP3   OH226782   0.157   4.293   1.991 -0.1395  0.5065  0.2562
 1716TIP3    H126783   0.079   4.239   2.007 -1.1265  1.9101  0.3435
 1716TIP3    H226784   0.175   4.335   2.075  0.0211  1.0676 -0.0526
 1717TIP3   OH226785   6.511   5.305   1.044 -0.3859  0.5097 -0.1462
 1717TIP3    H126786   6.416   5.300   1.035 -0.5332  0.5684  1.1493
 1717TIP3    H226787   6.528   5.398   1.064 -0.1247  0.3972  0.1706
 1718TIP3   OH226788   5.891   4.456   1.827 -0.0274  0.7673  0.1764
 1718TIP3    H126789   5.842   4.377   1.850 -0.1138  0.8856  0.3994
 1718TIP3    H226790   5.913   4.496   1.911 -0.7619  1.4618  0.0448
 1719TIP3   OH226791   0.288   1.413   7.067  0.2638  0.5643  0.1109
 1719TIP3    H126792   0.342   1.368   7.131  0.4358  1.1280  0.3746
 1719TIP3    H226793   0.349   1.442   6.999  0.0735 -0.0871 -0.3437
 1720TIP3   OH226794   6.393   5.089   0.438  0.6211  0.1163  0.5778
 1720TIP3    H126795   6.466   5.080   0.499  0.4111 -0.7142  0.7229
 1720TIP3    H226796   6.327   5.029   0.471  0.8564 -1.0561 -0.9762
 1721TIP3   OH226797   0.474   1.278   1.259  0.1648 -0.5590 -0.2310
 1721TIP3    H126798   0.383   1.275   1.290 -0.7266  3.3438 -1.8691
 1721TIP3    H226799   0.508   1.361   1.293  3.3802 -2.0699  0.6848
 1722TIP3   OH226800   4.514   1.622   1.527 -0.6023 -0.4887 -0.8815
 1722TIP3    H126801   4.535   1.600   1.436 -1.2561 -2.4604 -0.5924
 1722TIP3    H226802   4.546   1.548   1.578  0.6725  1.0473  0.6566
 1723TIP3   OH226803   5.670   6.778   2.247 -0.6818 -0.2778  0.5141
 1723TIP3    H126804   5.636   6.735   2.326 -2.0136  0.4190  0.3497
 1723TIP3    H226805   5.690   6.706   2.187  1.6325 -0.9187  1.9175
 1724TIP3   OH226806   3.885   2.801   7.763 -0.4301  0.2435  0.0832
 1724TIP3    H126807   3.814   2.852   7.802  0.0363 -0.7203  2.3249
 1724TIP3    H226808   3.880   2.716   7.806  2.9145  0.5734  1.3665
 1725TIP3   OH226809   2.603   4.238   7.312  0.0401 -0.1842  1.0116
 1725TIP3    H126810   2.542   4.312   7.303 -0.5114 -0.8601 -1.3952
 1725TIP3    H226811   2.547   4.164   7.338 -0.0982 -0.6512 -0.5450
 1726TIP3   OH226812   5.840   0.648   7.881 -1.1139  0.2781 -0.4528
 1726TIP3    H126813   5.906   0.718   7.886 -0.2011 -0.6106  0.4975
 1726TIP3    H226814   5.779   0.668   7.952 -1.2923  0.5440 -0.6817
 1727TIP3   OH226815   5.760   5.910   7.305  0.7031  0.0469  0.0590
 1727TIP3    H126816   5.800   5.910   7.218 -0.7859  2.1431 -0.7083
 1727TIP3    H226817   5.821   5.959   7.360  1.8858 -1.6956  0.3807
 1728TIP3   OH226818   5.655   0.162   0.812 -0.2317  0.4803  0.0973
 1728TIP3    H126819   5.743   0.129   0.828  0.1076  1.0029 -0.6660
 1728TIP3    H226820   5.635   0.215   0.889 -1.1385 -2.1187  1.8053
 1729TIP3   OH226821   3.046   3.809   6.814 -0.3024  0.3674 -0.0910
 1729TIP3    H126822   3.106   3.734   6.813 -1.0263 -0.2404 -1.7498
 1729TIP3    H226823   3.024   3.823   6.722  0.4393  3.1636  0.0590
 1730TIP3   OH226824   6.146   1.409   6.846  0.4708  0.0471  0.0252
 1730TIP3    H126825   6.186   1.331   6.884  0.0695  0.4803  1.4029
 1730TIP3    H226826   6.214   1.446   6.790  0.1673 -2.0926 -1.9168
 1731TIP3   OH226827   3.943   2.170   8.609  0.5596  0.4948 -0.5705
 1731TIP3    H126828   4.017   2.231   8.601  2.6394 -1.8846 -0.6694
 1731TIP3    H226829   3.906   2.189   8.695  0.5108  2.4817 -0.9635
 1732TIP3   OH226830   6.511   0.794   1.191  1.2099  0.0720  0.3574
 1732TIP3    H126831   6.456   0.743   1.132  0.5246  1.5763 -0.3609
 1732TIP3    H226832   6.480   0.771   1.278  2.5302 -2.5096  0.2178
 1733TIP3   OH226833   4.863   2.304   0.897  0.0868 -0.0908 -0.0789
 1733TIP3    H126834   4.894   2.265   0.979 -0.9548 -1.0627 -0.1273
 1733TIP3    H226835   4.805   2.238   0.859 -1.1097  1.1920 -0.5633
 1734TIP3   OH226836   3.089   2.991   6.972 -0.1837 -0.1972 -0.3100
 1734TIP3    H126837   3.103   2.943   7.054  0.4161 -1.1513 -0.9524
 1734TIP3    H226838   3.175   2.993   6.930 -0.6126 -0.2889 -1.2220
 1735TIP3   OH226839   5.889   4.252   6.848 -0.0628  0.4121  0.6940
 1735TIP3    H126840   5.797   4.278   6.843  0.0141  1.1838  2.3778
 1735TIP3    H226841   5.901   4.190   6.776 -1.3162  1.9733 -0.9330
 1736TIP3   OH226842   6.649   0.868   8.467 -0.0183 -0.4143 -0.1859
 1736TIP3    H126843   6.714   0.938   8.475 -1.0578  0.4905  0.8237
 1736TIP3    H226844   6.653   0.822   8.551 -2.3664  1.2512  0.9608
 1737TIP3   OH226845   1.055   2.853   1.949  0.3753 -0.1204  0.8375
 1737TIP3    H126846   1.116   2.857   1.875  0.6955 -0.9440  1.0482
 1737TIP3    H226847   1.014   2.940   1.951 -0.1257 -0.2926 -0.7186
 1738TIP3   OH226848   3.618   1.425   7.882  0.5298 -0.5886 -0.0988
 1738TIP3    H126849   3.618   1.420   7.978 -2.5924  3.0475  0.3381
 1738TIP3    H226850   3.688   1.487   7.861 -1.1707  1.6179  0.3355
 1739TIP3   OH226851   2.488   3.070   8.268 -0.0467 -0.1773 -0.8455
 1739TIP3    H126852   2.525   3.030   8.346 -2.5044 -1.8157 -0.3990
 1739TIP3    H226853   2.540   3.035   8.196 -1.5666 -3.7702 -0.4097
 1740TIP3   OH226854   2.122   0.014   8.006 -0.3019 -0.1493  0.3473
 1740TIP3    H126855   2.057   0.011   7.936  0.2243 -0.4385 -0.1368
 1740TIP3    H226856   2.073  -0.009   8.085 -0.7196 -0.6813 -0.0586
 1741TIP3   OH226857   4.512   1.100   8.368  0.0539  0.3370 -0.3694
 1741TIP3    H126858   4.537   1.108   8.460  0.3003  2.0323 -0.5544
 1741TIP3    H226859   4.493   1.190   8.340  0.4511 -0.0793 -2.1110
 1742TIP3   OH226860   5.232   1.073   1.581 -0.1305  0.0073 -0.6480
 1742TIP3    H126861   5.193   0.986   1.573 -0.3426 -0.0896  1.1361
 1742TIP3    H226862   5.281   1.084   1.499  0.8259 -2.2572 -0.4593
 1743TIP3   OH226863   1.247   1.584   1.894  0.1145 -0.2584 -0.2478
 1743TIP3    H126864   1.299   1.517   1.938 -1.8958 -2.0107 -0.4132
 1743TIP3    H226865   1.171   1.597   1.950 -0.4641  0.4790 -1.1679
 1744TIP3   OH226866   2.376   3.180   0.976  0.3656 -0.1686  0.2146
 1744TIP3    H126867   2.292   3.191   1.019 -0.1525 -1.7275 -0.3239
 1744TIP3    H226868   2.398   3.267   0.943 -0.6124  0.4338  1.0973
 1745TIP3   OH226869   1.145   4.051   1.741 -0.3354  0.0632  0.0504
 1745TIP3    H126870   1.111   3.963   1.755  0.7367 -0.3221  0.3174
 1745TIP3    H226871   1.116   4.101   1.817  0.9060 -0.6329  1.0022
 1746TIP3   OH226872   2.240   3.350   1.884 -0.4522  0.1593 -0.1839
 1746TIP3    H126873   2.158   3.393   1.908 -0.2705  1.9422 -2.4016
 1746TIP3    H226874   2.260   3.293   1.958 -2.6518  1.1584  1.2826
 1747TIP3   OH226875   1.100   1.410   6.969  0.0876 -0.3281 -0.1480
 1747TIP3    H126876   1.102   1.397   7.063  0.8622  2.1249  0.2627
 1747TIP3    H226877   1.011   1.440   6.950  0.6482  1.8086  0.3115
 1748TIP3   OH226878   1.013   3.888   8.536  0.2976 -0.4027  0.3223
 1748TIP3    H126879   0.995   3.967   8.486  1.1646 -0.3658  0.0547
 1748TIP3    H226880   1.003   3.817   8.473 -1.4084 -0.6101  0.7769
 1749TIP3   OH226881   6.663   6.577   1.247 -0.2262  0.0263  0.0882
 1749TIP3    H126882   6.654   6.670   1.226  1.0400  0.2384  0.4224
 1749TIP3    H226883   6.692   6.576   1.339 -0.2318 -0.6928  0.0856
 1750TIP3   OH226884   0.543   5.823   2.483 -0.6763  0.2562 -0.2187
 1750TIP3    H126885   0.611   5.840   2.548 -0.9298  2.6232 -0.4971
 1750TIP3    H226886   0.478   5.769   2.529  0.9075 -1.3024  0.3070
 1751TIP3   OH226887   6.484   6.304   7.821 -0.0790 -0.0106 -0.6095
 1751TIP3    H126888   6.575   6.302   7.791 -0.0904  1.4284 -0.7724
 1751TIP3    H226889   6.432   6.311   7.741 -0.2106  1.5843 -0.4015
 1752TIP3   OH226890   1.427   1.835   1.229 -0.0303  0.0167 -0.0259
 1752TIP3    H126891   1.345   1.804   1.191 -0.5241  0.0910  0.9449
 1752TIP3    H226892   1.411   1.926   1.251  0.0031 -0.2170  0.9984
 1753TIP3   OH226893   1.373   6.099   8.530 -0.6694 -0.5195 -0.1210
 1753TIP3    H126894   1.385   6.108   8.624  1.6471 -0.1590 -0.3868
 1753TIP3    H226895   1.365   6.005   8.515 -0.4130 -0.6224  0.3849
 1754TIP3   OH226896   4.610   2.450   7.426  0.1508 -0.3252 -0.0580
 1754TIP3    H126897   4.641   2.476   7.339  0.3525 -0.9881 -0.1837
 1754TIP3    H226898   4.536   2.509   7.442  0.6562  0.3994 -0.2995
 1755TIP3   OH226899   3.481   4.344   7.894 -0.1502  0.9735 -0.5943
 1755TIP3    H126900   3.557   4.380   7.850 -0.2868  0.1017 -1.5956
 1755TIP3    H226901   3.406   4.380   7.847 -0.3100  0.5241 -0.6978
 1756TIP3   OH226902   4.301   4.912   0.804  0.1513 -0.2239  0.1601
 1756TIP3    H126903   4.345   4.998   0.800 -1.0245  0.4428  0.8668
 1756TIP3    H226904   4.274   4.895   0.714 -0.0737  0.4089  0.0981
 1757TIP3   OH226905   2.024   5.351   1.647 -0.2727 -0.2324  0.1351
 1757TIP3    H126906   2.037   5.430   1.699 -0.4921  0.5933 -1.0139
 1757TIP3    H226907   2.019   5.280   1.711 -3.5908  1.0645  1.5275
 1758TIP3   OH226908   6.603   1.041   6.716  0.8469 -0.4221 -0.1177
 1758TIP3    H126909   6.664   0.981   6.674  0.8605 -0.1556 -0.4854
 1758TIP3    H226910   6.651   1.123   6.723  0.0788  0.2134 -1.7129
 1759TIP3   OH226911   1.999   6.193   8.318 -0.6125 -0.4850  0.9462
 1759TIP3    H126912   1.972   6.266   8.374  2.1184  1.3367  0.0831
 1759TIP3    H226913   2.026   6.234   8.236  3.1470 -2.0860  1.1771
 1760TIP3   OH226914   0.786   1.814   1.902  0.3137  0.3389 -0.1620
 1760TIP3    H126915   0.727   1.763   1.847  1.1952 -0.0422 -0.7943
 1760TIP3    H226916   0.763   1.791   1.992 -0.2950 -0.0233 -0.4088
 1761TIP3   OH226917   3.630   5.184   7.212  0.7448  0.4581  0.0496
 1761TIP3    H126918   3.660   5.196   7.122 -1.0254  2.0908 -0.3957
 1761TIP3    H226919   3.657   5.095   7.235  2.9659  0.6790 -1.3649
 1762TIP3   OH226920   5.488   0.319   0.366  0.1634 -0.2546 -0.6946
 1762TIP3    H126921   5.554   0.265   0.408 -0.0898 -0.4078 -0.4911
 1762TIP3    H226922   5.521   0.334   0.277  0.1179 -0.9402 -0.8274
 1763TIP3   OH226923   2.659   6.567   1.477  0.0122 -0.4313  0.7152
 1763TIP3    H126924   2.614   6.486   1.501  0.6301 -0.3128  2.4612
 1763TIP3    H226925   2.714   6.586   1.553  0.3038  1.3215  0.0979
 1764TIP3   OH226926   2.937   4.109   7.865 -0.1454  0.3422 -0.2363
 1764TIP3    H126927   2.927   4.183   7.805  0.3102  2.1598  1.7865
 1764TIP3    H226928   3.028   4.083   7.857  0.3497  1.6376  0.7261
 1765TIP3   OH226929   0.413   2.623   7.795  0.1474  0.2951 -0.0962
 1765TIP3    H126930   0.326   2.617   7.835 -0.5789 -0.2610 -1.6694
 1765TIP3    H226931   0.411   2.704   7.745  0.5971  0.3534 -0.0247
 1766TIP3   OH226932   1.572   0.954   8.544 -0.3664 -0.0953 -0.2009
 1766TIP3    H126933   1.560   1.034   8.492  1.4865 -0.2006 -0.8842
 1766TIP3    H226934   1.489   0.908   8.537 -0.7144  0.6975 -1.7076
 1767TIP3   OH226935   5.854   1.310   2.102 -0.3323  0.0053  0.4092
 1767TIP3    H126936   5.809   1.250   2.161 -0.0031 -0.3795  0.2737
 1767TIP3    H226937   5.812   1.394   2.117  0.7550  0.2495  2.2720
 1768TIP3   OH226938   0.339   4.053   7.571 -0.4096  0.1639  0.0125
 1768TIP3    H126939   0.306   3.983   7.628  2.7764 -0.2836  1.5291
 1768TIP3    H226940   0.425   4.022   7.543 -0.0677  2.3156 -1.5695
 1769TIP3   OH226941   6.068   4.664   0.490  0.0872 -0.0090  0.5306
 1769TIP3    H126942   6.125   4.608   0.543 -1.3047 -0.4471  1.6133
 1769TIP3    H226943   6.041   4.608   0.417  0.3670 -0.0599  0.4629
 1770TIP3   OH226944   5.648   1.887   1.095  0.1182 -0.1480 -0.1074
 1770TIP3    H126945   5.721   1.897   1.157  0.4769 -1.5158 -0.2595
 1770TIP3    H226946   5.659   1.958   1.032  1.2620 -0.2579 -0.0532
 1771TIP3   OH226947   5.413   5.696   7.927  0.3135 -0.7080  0.0530
 1771TIP3    H126948   5.472   5.711   7.852  0.9816  2.2636  1.0281
 1771TIP3    H226949   5.471   5.674   7.999  0.4157  2.4285  1.0696
 1772TIP3   OH226950   5.339   6.301   0.246  0.4449 -0.1195  0.4660
 1772TIP3    H126951   5.345   6.389   0.209  0.9251 -0.7928 -1.1281
 1772TIP3    H226952   5.420   6.258   0.219  0.5895 -0.8171  1.9216
 1773TIP3   OH226953   3.825   0.038   6.313 -0.2406  0.2306  0.0228
 1773TIP3    H126954   3.805   0.126   6.281 -2.1331  0.2862  1.1470
 1773TIP3    H226955   3.874  -0.003   6.243  0.4835  2.0910 -0.6351
 1774TIP3   OH226956   4.429   1.945   0.091  0.0160 -0.9406  0.2506
 1774TIP3    H126957   4.458   1.952   0.182  2.1515  0.6724 -0.4662
 1774TIP3    H226958   4.338   1.975   0.093  0.4888  0.5658  1.6405
 1775TIP3   OH226959   5.762   0.926   1.750 -0.0887 -0.4279  0.1631
 1775TIP3    H126960   5.796   0.968   1.829  1.5127 -0.3412 -0.5277
 1775TIP3    H226961   5.683   0.975   1.728 -0.2179 -0.0802  1.3750
 1776TIP3   OH226962   5.625   5.068   0.931 -0.5477  0.1252  0.0392
 1776TIP3    H126963   5.597   4.992   0.981  0.2598  1.1641  2.2027
 1776TIP3    H226964   5.570   5.140   0.964  0.7005  1.0341  0.2048
 1777TIP3   OH226965   4.831   0.966   1.154  0.4522 -0.0921 -0.8977
 1777TIP3    H126966   4.871   1.018   1.223  1.4040 -2.1983  0.2398
 1777TIP3    H226967   4.757   0.923   1.197  0.8778 -1.1966 -1.2346
 1778TIP3   OH226968   2.434   4.924   8.376 -0.3286  0.2226  0.3218
 1778TIP3    H126969   2.357   4.938   8.431  0.1540  1.0019  0.8177
 1778TIP3    H226970   2.428   4.832   8.349 -0.5700 -0.1794  1.6853
 1779TIP3   OH226971   5.108   0.723   7.486 -0.1449  0.1821 -0.4583
 1779TIP3    H126972   5.117   0.671   7.565  1.1707  0.0445 -0.6682
 1779TIP3    H226973   5.187   0.777   7.484  0.9462 -1.3278 -2.7285
 1780TIP3   OH226974   2.106   5.570   0.627  0.2233  0.7738  0.3953
 1780TIP3    H126975   2.090   5.663   0.645  0.7348  0.7255  1.1511
 1780TIP3    H226976   2.201   5.562   0.619  0.2231  0.2459  0.8021
 1781TIP3   OH226977   6.220   0.385   0.110 -0.8436  0.2563  0.5509
 1781TIP3    H126978   6.272   0.367   0.189 -0.2352  0.5564  0.2275
 1781TIP3    H226979   6.143   0.329   0.119 -0.1252 -0.7481  0.7024
 1782TIP3   OH226980   5.712   2.126   0.905  0.0910 -0.4536 -0.4168
 1782TIP3    H126981   5.768   2.191   0.947  0.8124 -0.8412 -0.7494
 1782TIP3    H226982   5.627   2.169   0.897  0.3432  0.1572  0.0776
 1783TIP3   OH226983   1.035   4.532   7.339 -0.0367 -0.2663  0.0881
 1783TIP3    H126984   1.091   4.599   7.378 -0.0672 -0.2708  0.1405
 1783TIP3    H226985   1.084   4.450   7.351 -0.6722 -0.4806  1.4106
 1784TIP3   OH226986   0.472   5.899   7.241 -0.4151 -0.0620  0.4537
 1784TIP3    H126987   0.483   5.858   7.155 -2.4810  0.2998 -0.0283
 1784TIP3    H226988   0.450   5.826   7.299  2.7677 -0.5975  1.1554
 1785TIP3   OH226989   0.981   2.358   1.771 -0.2001 -0.6484  0.1611
 1785TIP3    H126990   0.895   2.350   1.813 -0.2646 -0.0807  0.1367
 1785TIP3    H226991   1.004   2.268   1.747 -1.8789 -0.5532 -2.0670
 1786TIP3   OH226992   6.399   3.905   7.288 -0.3458  0.0616 -0.1082
 1786TIP3    H126993   6.422   3.997   7.276  0.0029  0.1238  0.9378
 1786TIP3    H226994   6.337   3.886   7.218  0.9705  0.5833 -1.4503
 1787TIP3   OH226995   2.576   6.489   8.013  0.1306 -0.3252 -0.2698
 1787TIP3    H126996   2.639   6.442   8.068  1.1129 -0.6131 -1.5660
 1787TIP3    H226997   2.622   6.500   7.929 -2.4573 -3.0331 -2.2786
 1788TIP3   OH226998   3.737   1.462   1.404 -0.0638 -0.1139 -0.3342
 1788TIP3    H126999   3.733   1.537   1.462 -2.6146 -2.3914  2.8092
 1788TIP3    H227000   3.651   1.461   1.361 -1.1134 -2.4286  1.5846
 1789TIP3   OH227001   5.546   4.779   8.191  0.1712  0.0638 -0.7389
 1789TIP3    H127002   5.548   4.685   8.210  1.2795 -0.2311 -2.1665
 1789TIP3    H227003   5.631   4.797   8.151  0.6904  2.0403  1.0685
 1790TIP3   OH227004   0.377   1.034   8.494 -0.8055  0.1784  0.5255
 1790TIP3    H127005   0.467   1.057   8.517 -0.7479  1.4471 -0.8048
 1790TIP3    H227006   0.376   1.036   8.398 -2.0307 -0.7667  0.4926
 1791TIP3   OH227007   0.277   2.977   7.854  0.5258  0.1652  0.2703
 1791TIP3    H127008   0.308   3.065   7.832  1.1730  0.2143  1.2850
 1791TIP3    H227009   0.190   2.971   7.814  1.4546  0.3593 -1.9198
 1792TIP3   OH227010   5.120   5.918   1.922 -0.3333 -0.5397  0.4267
 1792TIP3    H127011   5.038   5.916   1.874 -0.0844  0.2855 -0.0568
 1792TIP3    H227012   5.099   5.962   2.004 -0.0001  1.4930 -0.5089
 1793TIP3   OH227013   1.278   3.139   8.170  0.1051 -0.4353  0.6686
 1793TIP3    H127014   1.305   3.169   8.083  0.8038 -0.3802  0.8983
 1793TIP3    H227015   1.312   3.205   8.230  1.7840 -1.7178  1.1994
 1794TIP3   OH227016   1.477   3.362   7.455  0.0876  0.4463 -0.1640
 1794TIP3    H127017   1.552   3.415   7.480  2.1073 -1.9342 -0.7164
 1794TIP3    H227018   1.477   3.364   7.359 -2.3216  2.5690 -0.2410
 1795TIP3   OH227019   2.472   1.547   0.127 -0.1751 -0.0183 -0.2671
 1795TIP3    H127020   2.451   1.505   0.210 -3.0664  2.1369  0.2821
 1795TIP3    H227021   2.436   1.488   0.061 -1.6939  0.2011  0.3143
 1796TIP3   OH227022   6.679   2.118   2.545 -0.5492  0.3135  0.4346
 1796TIP3    H127023   6.691   2.203   2.587 -0.3690  1.0483 -1.0126
 1796TIP3    H227024   6.754   2.111   2.485 -1.9608  0.3921 -1.4400
 1797TIP3   OH227025   2.726   1.414   1.142  0.7001  0.2972 -0.0951
 1797TIP3    H127026   2.752   1.339   1.196 -0.4814 -1.5280 -1.9275
 1797TIP3    H227027   2.808   1.455   1.116  1.3953 -0.6493  0.5374
 1798TIP3   OH227028   3.235   6.212   0.623 -0.2472 -0.3031  0.4393
 1798TIP3    H127029   3.281   6.128   0.613 -1.0665 -0.6965 -0.1950
 1798TIP3    H227030   3.299   6.270   0.662  0.8795 -0.7568 -0.6685
 1799TIP3   OH227031   2.670   3.059   6.965  0.0888  0.5133 -0.2363
 1799TIP3    H127032   2.634   3.147   6.980 -0.4521  0.1970  0.3631
 1799TIP3    H227033   2.608   3.018   6.904 -1.4315 -0.5335  1.8835
 1800TIP3   OH227034   4.773   6.388   6.389  0.6023  0.0682 -0.3082
 1800TIP3    H127035   4.737   6.353   6.471 -0.1674  0.5180 -0.4369
 1800TIP3    H227036   4.719   6.349   6.321  1.7722 -0.9514 -0.6703
 1801TIP3   OH227037   3.795   3.910   7.424  0.1140 -0.3301  0.2786
 1801TIP3    H127038   3.749   3.899   7.341 -0.9960 -0.7088  0.9265
 1801TIP3    H227039   3.740   3.970   7.474  1.1194  0.4336  0.4964
 1802TIP3   OH227040   2.610   3.150   0.403 -0.2572  0.3055 -0.2655
 1802TIP3    H127041   2.614   3.238   0.368  0.7034  0.5833  0.4933
 1802TIP3    H227042   2.564   3.159   0.487 -0.0219  0.1050 -0.1132
 1803TIP3   OH227043   5.620   6.897   0.267 -0.1420 -0.5331 -0.3052
 1803TIP3    H127044   5.658   6.888   0.355 -1.2316 -0.8528  0.1497
 1803TIP3    H227045   5.655   6.823   0.218 -0.4509 -1.0345  0.2164
 1804TIP3   OH227046   6.655   6.314   0.020  0.3399  0.3765 -0.2969
 1804TIP3    H127047   6.655   6.307  -0.076  3.3503  0.5383 -0.4063
 1804TIP3    H227048   6.644   6.407   0.037 -1.1637  0.2463 -0.3903
 1805TIP3   OH227049   5.408   6.711   6.969 -0.2204  0.2634 -0.2060
 1805TIP3    H127050   5.401   6.727   7.063 -2.0079 -0.4227 -0.1877
 1805TIP3    H227051   5.479   6.768   6.940  0.9301 -0.1183  1.6879
 1806TIP3   OH227052   2.646   2.234   0.088 -0.4947 -0.2890  0.7665
 1806TIP3    H127053   2.687   2.181   0.020  1.6260  0.8257  1.0788
 1806TIP3    H227054   2.592   2.297   0.041  1.4205  0.8630 -0.0095
 1807TIP3   OH227055   6.726   3.225   8.503 -0.0121  0.6536  0.2528
 1807TIP3    H127056   6.691   3.222   8.592  3.8016 -2.2865  1.9598
 1807TIP3    H227057   6.796   3.291   8.506 -0.5948  1.3727 -0.9780
 1808TIP3   OH227058   2.556   4.726   8.101  0.0381 -0.6183  0.4119
 1808TIP3    H127059   2.601   4.686   8.175  2.3156 -1.8761 -1.5031
 1808TIP3    H227060   2.509   4.653   8.060 -0.3500 -0.1675  0.0448
 1809TIP3   OH227061   1.427   3.560   8.365  0.6789 -0.2540  0.0307
 1809TIP3    H127062   1.503   3.610   8.394 -0.3526  0.7619  1.1070
 1809TIP3    H227063   1.448   3.534   8.275  1.9901  0.5934  0.0687
 1810TIP3   OH227064   0.001   2.445   1.904 -0.4853 -0.0348 -0.2148
 1810TIP3    H127065  -0.015   2.498   1.982 -1.6369  0.5377 -0.8078
 1810TIP3    H227066   0.071   2.385   1.930 -0.2520  0.7016  0.9813
 1811TIP3   OH227067   1.851   0.921   8.288  0.2962 -0.5411  0.0030
 1811TIP3    H127068   1.869   1.012   8.265 -2.5489 -0.0442 -0.6226
 1811TIP3    H227069   1.913   0.870   8.236  1.5735  0.9866 -0.0552
 1812TIP3   OH227070   5.591   4.077   1.212 -0.0730  0.0340 -0.0666
 1812TIP3    H127071   5.561   4.075   1.303 -0.1375  1.5022 -0.0205
 1812TIP3    H227072   5.512   4.066   1.160 -0.2950  0.9164  0.0643
 1813TIP3   OH227073   0.739   2.017   7.005  0.2467 -0.1108  0.1186
 1813TIP3    H127074   0.769   1.936   6.964 -0.8228 -0.3276 -0.2898
 1813TIP3    H227075   0.790   2.085   6.962  0.0222 -0.4453 -0.7152
 1814TIP3   OH227076   6.240   4.376   6.872  0.3556 -0.0889 -0.4472
 1814TIP3    H127077   6.170   4.420   6.919  0.9287 -0.0766  0.4242
 1814TIP3    H227078   6.310   4.441   6.866  1.7619 -1.1926  2.0846
 1815TIP3   OH227079   3.234   6.851   6.962 -0.4476 -0.0834 -0.0230
 1815TIP3    H127080   3.303   6.801   6.919 -0.8283 -0.2064 -0.4900
 1815TIP3    H227081   3.153   6.807   6.937 -0.7683  0.6089 -0.2296
 1816TIP3   OH227082   1.029   0.031   1.439 -0.3665 -0.2737  0.1604
 1816TIP3    H127083   1.000  -0.038   1.498 -1.3538 -0.3050 -0.3368
 1816TIP3    H227084   1.048   0.106   1.496 -1.1954 -0.3371  0.5347
 1817TIP3   OH227085   5.737   2.115   6.418  0.7308 -0.2786 -0.4679
 1817TIP3    H127086   5.824   2.085   6.445 -0.0220 -0.1796  2.3734
 1817TIP3    H227087   5.749   2.208   6.397  1.5019 -0.5294 -1.1826
 1818TIP3   OH227088   1.943   5.834   0.276  0.2279 -0.1539  0.1508
 1818TIP3    H127089   1.945   5.869   0.187 -0.6211 -2.2382 -0.7644
 1818TIP3    H227090   1.919   5.909   0.331 -1.7854  0.6663 -1.7074
 1819TIP3   OH227091   2.947   5.713   1.200  0.1041 -0.0781  0.0649
 1819TIP3    H127092   2.973   5.655   1.128 -0.1833  0.5046 -0.5145
 1819TIP3    H227093   3.017   5.704   1.265  0.2436 -0.7893 -0.1826
 1820TIP3   OH227094   3.940   3.086   7.567 -0.2728  0.1131 -1.0875
 1820TIP3    H127095   4.029   3.053   7.577 -0.4316 -0.0728 -0.1977
 1820TIP3    H227096   3.916   3.116   7.655 -0.5297  1.5889 -1.6343
 1821TIP3   OH227097   6.711   1.495   1.139 -0.1340 -0.0389 -0.7984
 1821TIP3    H127098   6.648   1.549   1.186  1.0921  0.4906  0.2818
 1821TIP3    H227099   6.762   1.557   1.087  1.3777 -0.0883  0.5578
 1822TIP3   OH227100   2.261   0.820   6.255  0.3757 -0.3080  0.1924
 1822TIP3    H127101   2.245   0.871   6.335  1.4156  0.1117  0.1599
 1822TIP3    H227102   2.196   0.851   6.193 -0.8342 -1.0646  1.0514
 1823TIP3   OH227103   0.944   6.734   8.364  0.0475 -0.1100 -0.5264
 1823TIP3    H127104   0.857   6.720   8.326 -0.0805 -0.4732 -0.1060
 1823TIP3    H227105   1.000   6.675   8.314 -0.3412 -1.5579  0.6565
 1824TIP3   OH227106   5.059   6.741   0.102 -0.3456  0.0977  0.3367
 1824TIP3    H127107   5.025   6.767   0.188 -0.1413  1.6025 -0.0022
 1824TIP3    H227108   5.137   6.795   0.090  1.6672 -2.5715  0.6531
 1825TIP3   OH227109   3.763   1.313   0.715 -0.6018 -0.5268  0.0661
 1825TIP3    H127110   3.747   1.407   0.725  0.8625 -0.0595 -1.6038
 1825TIP3    H227111   3.841   1.295   0.766 -0.9763 -0.8872  0.5245
 1826TIP3   OH227112   0.513   0.101   0.179 -0.2166 -0.2663  0.0974
 1826TIP3    H127113   0.514   0.042   0.104  1.4986  0.1023 -0.2063
 1826TIP3    H227114   0.499   0.188   0.141  0.8557 -0.0518  0.1574
 1827TIP3   OH227115   4.941   0.329   6.879 -0.0243 -0.1026 -0.3334
 1827TIP3    H127116   4.880   0.399   6.904  1.7491  1.7069 -0.7968
 1827TIP3    H227117   5.025   0.355   6.918  1.3099 -0.5042 -2.7323
 1828TIP3   OH227118   6.540   4.643   1.181 -0.4628  0.3257 -0.5436
 1828TIP3    H127119   6.580   4.719   1.140  0.2103  0.2701 -0.0126
 1828TIP3    H227120   6.447   4.651   1.162 -0.0726 -0.2465 -2.9686
 1829TIP3   OH227121   2.184   2.672   7.537 -0.3201  0.0075  0.4124
 1829TIP3    H127122   2.170   2.766   7.546 -2.3381 -0.2371  0.1935
 1829TIP3    H227123   2.140   2.634   7.612  1.2542 -0.7448  0.9954
 1830TIP3   OH227124   6.504   2.985   8.130  0.2282 -0.6283  0.3687
 1830TIP3    H127125   6.475   3.021   8.214  1.5224 -0.4483  0.7558
 1830TIP3    H227126   6.586   2.939   8.151 -0.7729 -2.8357 -0.3162
 1831TIP3   OH227127   1.179   3.447   1.948  0.1495 -0.4342  0.3118
 1831TIP3    H127128   1.098   3.486   1.979  0.0346  0.5545 -1.1430
 1831TIP3    H227129   1.165   3.433   1.854  0.0266 -4.4617  0.7614
 1832TIP3   OH227130   1.985   5.674   1.377 -0.3972  1.0906 -0.4334
 1832TIP3    H127131   2.000   5.738   1.306  0.4295  1.0749 -0.2791
 1832TIP3    H227132   2.013   5.719   1.456 -0.4714  0.7782 -0.2290
 1833TIP3   OH227133   5.358   6.642   7.246 -0.0005 -0.7489 -0.4963
 1833TIP3    H127134   5.276   6.677   7.282  0.6733  0.0868  0.2823
 1833TIP3    H227135   5.363   6.553   7.281  0.5736  0.0024  1.4757
 1834TIP3   OH227136   3.518   2.662   7.148  0.1888 -0.1500 -0.3169
 1834TIP3    H127137   3.452   2.718   7.107 -0.2779  0.4361  1.1735
 1834TIP3    H227138   3.601   2.695   7.114 -0.1515  0.6610 -0.3888
 1835TIP3   OH227139   2.218   1.857   8.114  0.2285  0.0316  0.0555
 1835TIP3    H127140   2.247   1.772   8.148 -0.2294 -1.4384 -2.8993
 1835TIP3    H227141   2.230   1.850   8.019 -1.2820  2.7150 -0.4297
 1836TIP3   OH227142   5.119   0.625   1.714  0.1029 -0.0349  0.3880
 1836TIP3    H127143   5.134   0.553   1.775  1.5814  0.0452  0.1564
 1836TIP3    H227144   5.028   0.615   1.688 -0.3740 -0.4757  2.0701
 1837TIP3   OH227145   5.628   6.584   0.404  0.1258  0.3708  0.0432
 1837TIP3    H127146   5.551   6.592   0.461 -0.4918  0.6439 -0.8165
 1837TIP3    H227147   5.695   6.636   0.448 -0.0550 -0.1632  0.9926
 1838TIP3   OH227148   5.469   6.793   8.606 -0.7416 -0.0140 -0.3158
 1838TIP3    H127149   5.395   6.823   8.659  0.3914  2.4197  0.0188
 1838TIP3    H227150   5.525   6.748   8.669  0.1391  2.0334  0.4460
 1839TIP3   OH227151   6.144   5.117   6.923  0.2330 -0.0199  0.0445
 1839TIP3    H127152   6.157   5.200   6.970  1.5727  0.7524 -1.5693
 1839TIP3    H227153   6.090   5.141   6.848  0.7892 -0.5644 -0.5394
 1840TIP3   OH227154   0.929   3.236   1.001 -0.6520 -0.0481 -0.3761
 1840TIP3    H127155   0.959   3.316   1.045  1.5257 -0.4853 -0.9263
 1840TIP3    H227156   0.887   3.185   1.070 -0.8669  0.9742  0.2777
 1841TIP3   OH227157   6.621   1.893   2.034  0.4189  0.7530 -0.5522
 1841TIP3    H127158   6.539   1.848   2.051  0.3059  1.4019  0.7570
 1841TIP3    H227159   6.665   1.840   1.967 -1.0818  0.4415 -1.3134
 1842TIP3   OH227160   2.543   3.320   6.995 -0.5601  0.0383  0.2051
 1842TIP3    H127161   2.606   3.391   6.982  0.5506 -0.5805  1.8166
 1842TIP3    H227162   2.461   3.365   7.014 -0.7678  0.8685 -2.2868
 1843TIP3   OH227163   2.982   3.299   0.976 -0.1369 -0.5629 -0.3943
 1843TIP3    H127164   2.968   3.294   1.070  0.6478  2.9381  0.0394
 1843TIP3    H227165   2.894   3.306   0.939 -0.3973 -0.7829  0.1718
 1844TIP3   OH227166   5.287   2.203   8.164 -0.5917 -0.0977 -0.2181
 1844TIP3    H127167   5.238   2.273   8.120 -1.5640 -1.5356 -1.5012
 1844TIP3    H227168   5.373   2.203   8.121  0.0103  1.3061  0.8817
 1845TIP3   OH227169   5.349   5.562   1.142  0.2340  0.0262  0.0343
 1845TIP3    H127170   5.342   5.466   1.137 -1.8688  0.0847  0.7150
 1845TIP3    H227171   5.405   5.578   1.217 -1.9584 -0.7391  1.9658
 1846TIP3   OH227172   1.243   1.292   2.186  0.2016  0.6458  0.3336
 1846TIP3    H127173   1.307   1.259   2.250  1.4859  4.0418  1.0260
 1846TIP3    H227174   1.182   1.344   2.238 -2.1754 -1.0457 -0.5904
 1847TIP3   OH227175   3.638   4.245   0.147 -0.9662 -0.5046 -0.3149
 1847TIP3    H127176   3.587   4.250   0.228  0.1734  1.0541  0.3697
 1847TIP3    H227177   3.612   4.324   0.099  1.7535  1.1096  0.6949
 1848TIP3   OH227178   4.563   1.308   7.718  0.0247  0.1953 -0.0155
 1848TIP3    H127179   4.476   1.340   7.744  0.4244  1.8176 -0.5859
 1848TIP3    H227180   4.618   1.321   7.795 -0.3843 -1.6294  0.6417
 1849TIP3   OH227181   2.227   3.794   2.063  0.6157  0.4770  0.1566
 1849TIP3    H127182   2.251   3.749   2.144  0.0082  1.9283  1.1971
 1849TIP3    H227183   2.150   3.747   2.032  1.6458 -0.9412 -0.3583
 1850TIP3   OH227184   2.278   3.366   7.117 -0.1545  0.5791  0.0032
 1850TIP3    H127185   2.299   3.277   7.146 -2.0736 -0.0535 -0.4357
 1850TIP3    H227186   2.251   3.412   7.197  0.4140  0.6492  0.1593
 1851TIP3   OH227187   2.006   2.589   0.333  0.3123 -0.1340  0.9296
 1851TIP3    H127188   2.008   2.683   0.314  1.3207 -0.2560  0.3763
 1851TIP3    H227189   2.088   2.556   0.298 -1.9555 -2.0658 -3.1807
 1852TIP3   OH227190   3.735   1.461   7.580 -0.0692  0.4045  0.3887
 1852TIP3    H127191   3.806   1.518   7.608  0.4558 -0.5021  0.9556
 1852TIP3    H227192   3.755   1.441   7.488 -1.1058  2.3536 -0.3251
 1853TIP3   OH227193   0.944   0.870   7.407 -0.4048 -0.0183  0.0015
 1853TIP3    H127194   0.937   0.774   7.405 -1.7137  0.0720 -1.7678
 1853TIP3    H227195   1.035   0.887   7.380  0.1115 -0.7470  1.1845
 1854TIP3   OH227196   1.909   2.862   0.661  0.4264 -0.2050  0.5027
 1854TIP3    H127197   1.892   2.878   0.754  0.2559  1.5418  0.2045
 1854TIP3    H227198   1.847   2.919   0.615  3.1365  2.1007 -0.6526
 1855TIP3   OH227199   6.280   6.167   7.014  0.6594  0.6310  0.4258
 1855TIP3    H127200   6.291   6.130   6.926 -0.1372 -2.8015  1.6137
 1855TIP3    H227201   6.242   6.096   7.066 -0.4230  3.0144  3.2106
 1856TIP3   OH227202   6.157   2.789   1.382 -0.4454 -0.5244  0.0985
 1856TIP3    H127203   6.243   2.801   1.342 -0.0858  1.2260  1.3097
 1856TIP3    H227204   6.102   2.856   1.341 -0.6742 -0.2423  0.8627
 1857TIP3   OH227205   4.179   4.647   1.478  0.0026 -0.0888 -0.5067
 1857TIP3    H127206   4.274   4.648   1.490 -0.0879 -0.6294  0.3320
 1857TIP3    H227207   4.159   4.732   1.438  0.7609  0.3339 -0.0081
 1858TIP3   OH227208   5.062   2.854   1.393 -0.4197 -0.2403 -0.7484
 1858TIP3    H127209   5.058   2.789   1.463 -1.1716  1.1799  0.5947
 1858TIP3    H227210   5.002   2.822   1.327 -0.1763 -1.2952 -0.4750
 1859TIP3   OH227211   5.447   1.146   2.520 -0.1545  0.1530  0.1596
 1859TIP3    H127212   5.447   1.051   2.514  1.6836  0.1673 -0.8686
 1859TIP3    H227213   5.356   1.171   2.502 -0.7004 -1.3908  0.6198
 1860TIP3   OH227214   1.176   0.316   1.352  0.2409  0.1333  0.1442
 1860TIP3    H127215   1.154   0.232   1.311  0.8826 -0.5507  1.1609
 1860TIP3    H227216   1.271   0.324   1.339  0.0076  1.3386 -1.0696
 1861TIP3   OH227217   5.337   2.985   7.050  0.4256  0.3430  0.7268
 1861TIP3    H127218   5.406   3.038   7.089  1.8936 -1.0825  0.1664
 1861TIP3    H227219   5.343   3.003   6.956  0.7164 -0.5248  0.5684
 1862TIP3   OH227220   4.816   4.473   0.682  0.2780  0.1710  0.0131
 1862TIP3    H127221   4.738   4.441   0.637 -0.6633 -0.5332  2.0256
 1862TIP3    H227222   4.815   4.568   0.666 -1.4944  0.3051  0.6729
 1863TIP3   OH227223   1.714   0.534   7.324 -0.0712  0.1421 -0.1214
 1863TIP3    H127224   1.780   0.526   7.256  0.4264  0.9728  0.2469
 1863TIP3    H227225   1.728   0.622   7.361  0.6064 -0.7584  1.9639
 1864TIP3   OH227226   4.267   0.989   0.110 -0.5136  0.1731  0.6046
 1864TIP3    H127227   4.195   1.051   0.096  0.2929  1.2079  0.8979
 1864TIP3    H227228   4.233   0.905   0.079 -1.9715  0.5632  1.0761
 1865TIP3   OH227229   6.091   6.568   1.387 -0.0540  0.7796  0.5161
 1865TIP3    H127230   6.169   6.608   1.349 -0.8599 -0.8878 -3.3940
 1865TIP3    H227231   6.121   6.482   1.418 -0.3083 -0.0652 -1.4363
 1866TIP3   OH227232   4.655   3.156   7.267  0.5554 -0.2851 -0.0978
 1866TIP3    H127233   4.647   3.128   7.176  3.7761 -0.1472 -0.5642
 1866TIP3    H227234   4.707   3.087   7.309  0.2080  0.2715  1.2926
 1867TIP3   OH227235   2.241   1.345   8.251  0.3418  0.2799 -0.1876
 1867TIP3    H127236   2.304   1.276   8.269  0.1695  0.1005 -0.2746
 1867TIP3    H227237   2.209   1.327   8.163  0.6618  0.7556 -0.4062
 1868TIP3   OH227238   5.601   6.541   7.481  0.7257 -0.4039  0.0416
 1868TIP3    H127239   5.556   6.502   7.406  1.1749 -0.4293 -0.2245
 1868TIP3    H227240   5.681   6.489   7.490 -0.3158 -1.7814  1.8914
 1869TIP3   OH227241   2.554   4.420   6.809  0.2404 -0.8093  0.3875
 1869TIP3    H127242   2.499   4.374   6.746  2.3213 -2.9514 -0.0079
 1869TIP3    H227243   2.549   4.368   6.889  0.8272 -0.4165  0.6944
 1870TIP3   OH227244   1.118   6.852   1.190 -0.0023 -0.1681  0.3575
 1870TIP3    H127245   1.101   6.759   1.205 -1.2418 -0.1634 -0.8492
 1870TIP3    H227246   1.080   6.895   1.267 -2.0149 -0.4855 -0.3879
 1871TIP3   OH227247   2.121   4.914   0.530  0.0592 -0.2313  0.3613
 1871TIP3    H127248   2.195   4.957   0.571 -0.2495 -0.1459  0.8356
 1871TIP3    H227249   2.044   4.961   0.563 -0.3679 -1.9223  1.8795
 1872TIP3   OH227250   5.095   3.558   1.833 -0.1280  0.0355  0.0984
 1872TIP3    H127251   5.059   3.476   1.801  0.5173 -0.1159 -0.2646
 1872TIP3    H227252   5.184   3.561   1.797 -0.6828  1.6660 -1.3069
 1873TIP3   OH227253   3.155   6.450   0.383 -0.2241  0.5173  0.1416
 1873TIP3    H127254   3.120   6.361   0.386 -1.2993  0.8516 -1.2658
 1873TIP3    H227255   3.109   6.497   0.453 -0.1992  0.1567  0.4005
 1874TIP3   OH227256   0.974   1.273   7.220  0.2657  0.3893  0.4966
 1874TIP3    H127257   0.908   1.211   7.247  1.1152 -0.1959  1.2618
 1874TIP3    H227258   0.958   1.351   7.273  0.7261 -0.0682  1.3265
 1875TIP3   OH227259   3.592   4.251   6.550  0.0219  0.0421 -0.0112
 1875TIP3    H127260   3.572   4.157   6.547 -0.7766  0.2035  0.1882
 1875TIP3    H227261   3.529   4.291   6.492  0.9330  0.3769 -0.7924
 1876TIP3   OH227262   4.546   5.490   1.287  0.5379  0.3715 -0.7584
 1876TIP3    H127263   4.620   5.429   1.279 -0.3091 -0.7152 -0.5966
 1876TIP3    H227264   4.571   5.548   1.359  1.6771  0.6754 -1.3871
 1877TIP3   OH227265   5.821   6.456   8.040  0.3973  0.5147  0.3898
 1877TIP3    H127266   5.885   6.498   7.983  1.0185 -1.5181 -0.5019
 1877TIP3    H227267   5.738   6.498   8.017  0.8937  0.8552 -0.8552
 1878TIP3   OH227268   2.150   2.472   8.050  0.8684  0.2004  0.5264
 1878TIP3    H127269   2.122   2.547   8.101 -2.3496 -1.7055  1.8871
 1878TIP3    H227270   2.207   2.422   8.109  0.6432  0.1321  0.6865
 1879TIP3   OH227271   0.641   3.910   1.406  0.3160  0.0411  0.1637
 1879TIP3    H127272   0.715   3.902   1.466 -0.5511 -1.2791  1.1006
 1879TIP3    H227273   0.664   3.984   1.350  1.8593  0.3221  1.1055
 1880TIP3   OH227274   6.452   6.659   1.987  0.2186 -0.1994  0.0564
 1880TIP3    H127275   6.488   6.641   2.074  0.6205 -1.4448 -0.3515
 1880TIP3    H227276   6.401   6.739   1.999 -0.0317 -0.5409  1.5323
 1881TIP3   OH227277   4.909   1.958   1.204 -0.0426  0.4535 -0.0689
 1881TIP3    H127278   4.847   1.979   1.134  0.6163 -0.9147 -1.1045
 1881TIP3    H227279   4.930   2.042   1.244 -1.1276  1.1530 -0.9083
 1882TIP3   OH227280   3.052   6.177   0.390 -0.0500  0.1824  0.0596
 1882TIP3    H127281   3.092   6.180   0.477  0.3683 -0.5882 -0.0947
 1882TIP3    H227282   3.082   6.094   0.352 -0.7400  0.2067 -0.5756
 1883TIP3   OH227283   3.281   6.214   6.399 -0.5218 -0.1918  0.4455
 1883TIP3    H127284   3.370   6.182   6.411 -0.3035 -0.1337 -0.9438
 1883TIP3    H227285   3.282   6.303   6.434 -0.0234 -0.1639  0.3563
 1884TIP3   OH227286   6.636   3.011   7.880 -0.4807 -0.2740 -0.4377
 1884TIP3    H127287   6.565   3.032   7.820 -1.1695 -0.3086  0.3441
 1884TIP3    H227288   6.621   3.068   7.956  1.1640  0.7711 -0.8449
 1885TIP3   OH227289   0.790   5.882   2.123  0.3124  1.0149 -0.1092
 1885TIP3    H127290   0.736   5.957   2.147 -0.6815  0.5616 -0.8576
 1885TIP3    H227291   0.737   5.834   2.059  1.2110  0.0372 -0.1423
 1886TIP3   OH227292   1.270   4.894   0.520  0.5705 -0.4545  0.1574
 1886TIP3    H127293   1.188   4.874   0.564  0.1682 -1.1283 -0.8615
 1886TIP3    H227294   1.337   4.882   0.588 -0.3240  2.8698  1.8238
 1887TIP3   OH227295   6.391   1.183   7.317  0.1936  0.1858 -0.0101
 1887TIP3    H127296   6.417   1.110   7.261 -0.4709 -1.4139  1.6533
 1887TIP3    H227297   6.462   1.192   7.381  0.0735  0.7130  0.0583
 1888TIP3   OH227298   2.352   5.781   1.156  0.5734  0.4218  0.1686
 1888TIP3    H127299   2.339   5.717   1.085  0.5819  0.9531 -0.3254
 1888TIP3    H227300   2.264   5.817   1.171  0.5027  0.0445  0.6976
 1889TIP3   OH227301   2.530   2.212   7.720 -0.3259 -0.1270 -0.4681
 1889TIP3    H127302   2.450   2.187   7.765  0.2377 -1.1771 -0.0187
 1889TIP3    H227303   2.549   2.139   7.661  0.7265 -0.2702  0.0192
 1890TIP3   OH227304   4.192   1.973   8.489  0.0595  0.3893 -0.4949
 1890TIP3    H127305   4.108   2.019   8.488  0.2626  0.7605 -0.7030
 1890TIP3    H227306   4.228   1.992   8.576  1.0314  2.2636 -1.2751
 1891TIP3   OH227307   4.017   0.416   8.070  0.1637 -0.1734  0.1360
 1891TIP3    H127308   3.981   0.339   8.027 -1.0741 -0.5865  1.8186
 1891TIP3    H227309   4.093   0.383   8.118  0.7995  0.0546 -0.6840
 1892TIP3   OH227310   1.540   5.843   8.191 -0.1116  0.3531  0.0109
 1892TIP3    H127311   1.545   5.939   8.192 -3.2072  0.5980  0.7239
 1892TIP3    H227312   1.546   5.820   8.098  1.0009  1.1660 -0.1439
 1893TIP3   OH227313   6.513   0.317   0.713 -0.3788  0.5771 -0.3133
 1893TIP3    H127314   6.586   0.369   0.680  0.8458 -0.7809  0.1507
 1893TIP3    H227315   6.545   0.280   0.796 -1.7104  0.1993  0.0653
 1894TIP3   OH227316   6.008   1.825   6.314 -0.0119 -0.1294  0.2083
 1894TIP3    H127317   6.022   1.777   6.232  0.1950 -0.9199  0.6932
 1894TIP3    H227318   5.930   1.878   6.297  0.2100 -0.0441 -0.6023
 1895TIP3   OH227319   6.483   0.046   7.530  0.1249 -0.1059  0.2723
 1895TIP3    H127320   6.570   0.086   7.527 -0.1558  0.4570 -1.8071
 1895TIP3    H227321   6.437   0.083   7.454 -0.8912 -2.7164 -0.4732
 1896TIP3   OH227322   0.393   6.697   7.188  0.0697  0.0055 -0.1314
 1896TIP3    H127323   0.387   6.604   7.165  0.0798 -0.0813  0.2046
 1896TIP3    H227324   0.383   6.743   7.105  2.2670 -0.3566 -0.6649
 1897TIP3   OH227325   1.606   6.731   7.167 -0.2530  0.0340 -0.2652
 1897TIP3    H127326   1.520   6.709   7.130  0.0964  0.8510 -1.6698
 1897TIP3    H227327   1.596   6.718   7.261 -0.9969 -2.8851 -0.6418
 1898TIP3   OH227328   2.891   6.891   0.850  0.2503 -0.3730  0.2601
 1898TIP3    H127329   2.843   6.845   0.920  0.4188 -2.9281 -1.1824
 1898TIP3    H227330   2.969   6.924   0.894 -0.0944 -1.0891  1.4913
 1899TIP3   OH227331   0.329   2.708   1.162  0.1839 -0.5258  0.0049
 1899TIP3    H127332   0.356   2.620   1.191 -0.1728 -0.3291  0.9693
 1899TIP3    H227333   0.242   2.695   1.124  0.6234 -0.7737 -0.9502
 1900TIP3   OH227334   6.672   2.492   8.438  0.1447 -0.3100 -0.0362
 1900TIP3    H127335   6.694   2.427   8.504  0.1903 -1.9258 -1.5508
 1900TIP3    H227336   6.635   2.441   8.366  1.8609  1.1307 -2.0536
 1901TIP3   OH227337   3.026   1.765   2.121  0.5716  0.5358 -0.5926
 1901TIP3    H127338   3.082   1.843   2.113  0.9272  0.3268 -0.1499
 1901TIP3    H227339   3.016   1.752   2.215 -1.5734  1.5219 -0.6212
 1902TIP3   OH227340   4.911   0.660   7.879  0.2318  0.7658 -0.7500
 1902TIP3    H127341   4.955   0.586   7.836 -1.0043  0.2522 -1.1639
 1902TIP3    H227342   4.973   0.732   7.871  1.1564 -0.0341 -0.9958
 1903TIP3   OH227343   3.597   0.250   0.029 -0.3279 -0.0743 -1.1922
 1903TIP3    H127344   3.661   0.319   0.048 -0.6281 -0.6633  2.8903
 1903TIP3    H227345   3.638   0.197  -0.039  3.6489 -0.3924  1.1191
 1904TIP3   OH227346   5.957   2.321   7.255  0.5203  0.5137 -0.3084
 1904TIP3    H127347   6.033   2.378   7.270  0.3751  0.7340 -0.3895
 1904TIP3    H227348   5.991   2.250   7.202  0.7300  0.4666 -0.1161
 1905TIP3   OH227349   2.064   2.079   0.561  0.3553 -0.3226  0.6369
 1905TIP3    H127350   2.155   2.065   0.534  0.8988 -0.8206  2.5753
 1905TIP3    H227351   2.053   2.174   0.562 -0.3300 -0.2130 -3.0976
 1906TIP3   OH227352   6.703   5.658   0.690 -0.6526  0.0764  0.3923
 1906TIP3    H127353   6.747   5.574   0.678  0.4532  0.8328 -1.1312
 1906TIP3    H227354   6.609   5.636   0.686 -0.3830 -1.1286  0.3515
 1907TIP3   OH227355   6.279   4.568   8.256 -0.2877 -0.5767  0.2815
 1907TIP3    H127356   6.245   4.524   8.178  1.8646 -0.8437 -0.5755
 1907TIP3    H227357   6.373   4.575   8.240 -0.1746  2.0032  1.5674
 1908TIP3   OH227358   1.057   6.219   1.514 -0.2359  0.4071 -0.3521
 1908TIP3    H127359   1.061   6.172   1.597  1.1583  1.7307  0.3785
 1908TIP3    H227360   0.969   6.257   1.512 -0.2298  0.4940  0.5877
 1909TIP3   OH227361   6.361   5.710   1.952  0.7304  0.0074 -0.0633
 1909TIP3    H127362   6.353   5.661   2.034  0.4558 -0.2117 -0.2204
 1909TIP3    H227363   6.386   5.799   1.980  0.2061  0.0486  0.2832
 1910TIP3   OH227364   1.623   5.561   1.471 -0.0250 -0.4891 -0.2691
 1910TIP3    H127365   1.627   5.477   1.517 -0.6734 -0.6629 -0.5116
 1910TIP3    H227366   1.692   5.555   1.405  1.9875  0.3866  1.6306
 1911TIP3   OH227367   3.305   4.595   0.653  0.2360 -0.5298  0.3208
 1911TIP3    H127368   3.334   4.541   0.727 -0.1182 -0.5885  0.4205
 1911TIP3    H227369   3.323   4.685   0.680 -0.0400 -0.5419  0.5463
 1912TIP3   OH227370   1.893   0.723   1.419  0.4021 -0.6438 -0.2691
 1912TIP3    H127371   1.872   0.725   1.325 -0.1979  0.6282 -0.1337
 1912TIP3    H227372   1.956   0.794   1.430 -1.2089  0.7195  0.6328
 1913TIP3   OH227373   0.834   0.122   6.945 -0.1717 -0.3701 -0.0791
 1913TIP3    H127374   0.762   0.062   6.924 -0.9549  1.1965 -2.2689
 1913TIP3    H227375   0.880   0.133   6.862  2.4426 -1.0263  1.1834
 1914TIP3   OH227376   5.486   2.311   7.714  0.2924 -0.4602  0.5826
 1914TIP3    H127377   5.552   2.367   7.674  0.6253  0.0282  1.7682
 1914TIP3    H227378   5.500   2.225   7.675  0.5907 -0.0103 -0.3301
 1915TIP3   OH227379   2.513   1.949   1.609 -0.1884  0.0215  0.2088
 1915TIP3    H127380   2.579   2.014   1.633  0.5665 -1.4297  2.3588
 1915TIP3    H227381   2.503   1.960   1.514  0.6253  2.5468  0.3383
 1916TIP3   OH227382   0.658   6.198   2.385 -0.1872  0.1663  0.4163
 1916TIP3    H127383   0.628   6.232   2.469  1.3667 -1.0780  1.5235
 1916TIP3    H227384   0.737   6.247   2.366 -1.0425  1.1215 -0.8494
 1917TIP3   OH227385   1.088   0.408   8.271 -0.9253 -0.7391  0.5025
 1917TIP3    H127386   1.168   0.356   8.255  0.6693  1.9969 -1.3352
 1917TIP3    H227387   1.019   0.359   8.227  1.0214 -0.1364 -3.7700
 1918TIP3   OH227388   3.430   2.611   1.163 -0.2095 -0.2275 -0.0521
 1918TIP3    H127389   3.479   2.676   1.113  0.2579 -1.1802 -0.8542
 1918TIP3    H227390   3.359   2.661   1.204  0.0718  0.7654 -0.7398
 1919TIP3   OH227391   6.304   6.585   8.166  0.3789 -0.2239 -0.1653
 1919TIP3    H127392   6.319   6.604   8.073  1.8295 -1.1364 -0.1498
 1919TIP3    H227393   6.389   6.557   8.199  0.0057  0.5591  1.5837
 1920TIP3   OH227394   2.186   1.616   7.311 -0.1310 -0.3657 -0.2643
 1920TIP3    H127395   2.216   1.561   7.239  0.8195 -0.3604  0.1088
 1920TIP3    H227396   2.174   1.556   7.384  1.6080 -0.0212  0.3510
 1921TIP3   OH227397   5.769   4.978   1.729  0.0883  0.1471 -0.1311
 1921TIP3    H127398   5.711   4.958   1.802  1.7040  0.4025  1.2790
 1921TIP3    H227399   5.757   5.071   1.713 -0.7481 -0.0411 -0.6499
 1922TIP3   OH227400   4.871   1.586   0.844 -0.5994  0.2947 -0.6615
 1922TIP3    H127401   4.948   1.529   0.847 -0.7378  0.1330 -0.0496
 1922TIP3    H227402   4.806   1.535   0.796 -0.0099  0.8442 -2.1161
 1923TIP3   OH227403   2.065   2.643   0.816  0.3194 -0.1936 -0.6972
 1923TIP3    H127404   2.077   2.551   0.842  0.7065 -0.4170 -1.6403
 1923TIP3    H227405   2.097   2.647   0.726 -0.0174  0.7976 -0.7819
 1924TIP3   OH227406   0.516   2.281   0.574 -0.3764 -0.4949  0.0538
 1924TIP3    H127407   0.569   2.251   0.647 -0.8794 -0.2977  0.5066
 1924TIP3    H227408   0.576   2.283   0.500  0.2101 -0.4028  0.5270
 1925TIP3   OH227409   4.748   5.090   0.220  0.1693  0.5357 -0.6776
 1925TIP3    H127410   4.766   5.151   0.291  2.8534 -0.0798 -0.7116
 1925TIP3    H227411   4.825   5.033   0.218 -2.3224 -3.1985 -0.3541
 1926TIP3   OH227412   4.211   3.540   0.988 -0.0625 -0.5014 -0.3424
 1926TIP3    H127413   4.175   3.518   1.074  0.2421 -1.2146 -0.3973
 1926TIP3    H227414   4.287   3.595   1.008 -0.4420 -0.0187 -0.1897
 1927TIP3   OH227415   6.039   4.081   1.121 -0.5723  0.0054 -0.0457
 1927TIP3    H127416   6.130   4.083   1.152 -0.4291  1.0377 -0.5067
 1927TIP3    H227417   5.987   4.091   1.201 -0.2799 -0.2100  0.1764
 1928TIP3   OH227418   0.091   6.824   0.777  0.5883 -0.3297 -0.3631
 1928TIP3    H127419   0.015   6.871   0.811  1.3483  0.7933 -0.1786
 1928TIP3    H227420   0.054   6.742   0.742 -1.0223  1.1074 -2.2635
 1929TIP3   OH227421   0.359   2.492   7.103 -0.8415  0.4722  0.2302
 1929TIP3    H127422   0.372   2.583   7.078 -1.0117  0.2621 -0.6665
 1929TIP3    H227423   0.332   2.449   7.022 -0.8450 -0.3583  0.6644
 1930TIP3   OH227424   5.134   2.458   1.801 -0.6358  0.2547 -0.4757
 1930TIP3    H127425   5.155   2.426   1.888 -0.1623  0.9352 -0.3349
 1930TIP3    H227426   5.186   2.403   1.742 -0.5121  0.1789 -0.2964
 1931TIP3   OH227427   2.150   1.182   0.468  0.2284  0.9928  0.0882
 1931TIP3    H127428   2.092   1.108   0.453 -2.6607  3.1606 -0.4532
 1931TIP3    H227429   2.198   1.159   0.548  2.5001 -3.0349 -2.1384
 1932TIP3   OH227430   0.858   5.897   8.554  0.3275 -0.2125  0.2989
 1932TIP3    H127431   0.944   5.909   8.512 -0.4386 -0.3929 -1.3816
 1932TIP3    H227432   0.853   5.968   8.618  1.6019 -0.0184  0.2160
 1933TIP3   OH227433   3.833   4.981   1.940  0.1079 -0.1967  0.2557
 1933TIP3    H127434   3.908   5.009   1.992 -1.4177  0.6481  2.1063
 1933TIP3    H227435   3.802   4.901   1.982 -1.4761  0.7952  1.0604
 1934TIP3   OH227436   6.740   3.606   7.638  0.1858 -0.7200  0.2094
 1934TIP3    H127437   6.789   3.584   7.558 -0.2752  0.5132 -0.4253
 1934TIP3    H227438   6.678   3.534   7.648 -0.3484 -0.4514 -1.0411
 1935TIP3   OH227439   5.606   2.964   1.476  0.6104  0.2903 -0.3292
 1935TIP3    H127440   5.603   3.057   1.454  1.2184  0.3317 -0.2391
 1935TIP3    H227441   5.695   2.949   1.508  0.1434 -0.0460  0.8754
 1936TIP3   OH227442   2.716   3.724   1.475 -0.5518  0.3450  0.9434
 1936TIP3    H127443   2.755   3.808   1.452 -0.6813  0.0859 -0.3267
 1936TIP3    H227444   2.710   3.677   1.392  1.3058 -1.6973  1.8473
 1937TIP3   OH227445   4.305   2.792   8.414 -0.9355  0.7244  0.2172
 1937TIP3    H127446   4.220   2.770   8.378 -0.6299 -0.2125  0.0489
 1937TIP3    H227447   4.320   2.883   8.387 -1.4128  0.5517 -0.6671
 1938TIP3   OH227448   3.515   0.999   8.214  0.3764 -0.5194  0.4803
 1938TIP3    H127449   3.483   1.077   8.261 -1.7297 -1.3063  0.4524
 1938TIP3    H227450   3.589   0.968   8.267  0.0196  0.4011  1.5610
 1939TIP3   OH227451   4.844   5.423   0.653 -0.0032 -0.0686  0.1440
 1939TIP3    H127452   4.777   5.490   0.662  0.6123  0.4609  0.9790
 1939TIP3    H227453   4.925   5.465   0.684  0.2763 -1.3859  1.3565
 1940TIP3   OH227454   4.351   5.273   0.720  0.0719  0.4572  0.1914
 1940TIP3    H127455   4.265   5.269   0.677  0.7261 -1.5323 -1.0846
 1940TIP3    H227456   4.410   5.306   0.652  0.4913  0.7844  0.7148
 1941TIP3   OH227457   0.201   4.901   1.007  0.7024  0.0077 -0.3865
 1941TIP3    H127458   0.215   4.981   0.956  2.5893  0.4754  0.7685
 1941TIP3    H227459   0.106   4.886   1.003  0.5221  1.2923 -2.0901
 1942TIP3   OH227460   2.784   4.381   7.453 -0.1175 -0.5852  0.3403
 1942TIP3    H127461   2.741   4.431   7.522  1.4835 -0.3158  1.1718
 1942TIP3    H227462   2.715   4.325   7.418 -0.9439 -0.7741  2.1923
 1943TIP3   OH227463   5.440   4.218   8.449 -0.2223  0.0988  0.1845
 1943TIP3    H127464   5.373   4.276   8.484 -0.8215 -0.5348  0.1056
 1943TIP3    H227465   5.441   4.237   8.355 -0.2064  0.1831  0.2009
 1944TIP3   OH227466   2.345   1.755   1.359 -0.0581  0.6709 -0.1945
 1944TIP3    H127467   2.266   1.780   1.406  1.2503  0.8560  2.0699
 1944TIP3    H227468   2.398   1.835   1.358  1.0619 -0.0388  0.4520
 1945TIP3   OH227469   0.155   3.644   1.885  0.1034 -0.4458  0.2088
 1945TIP3    H127470   0.190   3.555   1.875 -2.1027 -1.5109  1.2228
 1945TIP3    H227471   0.154   3.679   1.796  1.6117 -1.1701 -0.1315
 1946TIP3   OH227472   0.602   6.135   7.282 -0.3432  0.3830 -0.3695
 1946TIP3    H127473   0.546   6.203   7.321 -0.9315 -0.5730  0.4913
 1946TIP3    H227474   0.540   6.069   7.251  0.3223 -1.2987  1.7162
 1947TIP3   OH227475   4.784   1.530   2.572 -0.2981 -0.1530  0.0787
 1947TIP3    H127476   4.804   1.437   2.568 -1.3472 -0.4866  1.7322
 1947TIP3    H227477   4.722   1.539   2.645 -0.2083  1.8397 -0.0205
 1948TIP3   OH227478   5.514   5.529   0.217 -0.2528  0.5983  0.2356
 1948TIP3    H127479   5.471   5.444   0.231  0.8278 -0.2235 -1.1129
 1948TIP3    H227480   5.480   5.585   0.286  0.0414 -1.3188  2.0190
 1949TIP3   OH227481   1.647   0.750   1.530 -0.2289  0.2499  0.3148
 1949TIP3    H127482   1.638   0.696   1.608 -0.0094  1.2645  1.0587
 1949TIP3    H227483   1.734   0.730   1.497 -0.3644 -0.2643  0.2594
 1950TIP3   OH227484   4.381   0.388   8.446 -0.2251 -0.3176 -0.0500
 1950TIP3    H127485   4.407   0.297   8.436  0.4553 -0.0528 -0.8781
 1950TIP3    H227486   4.402   0.410   8.537  2.0332 -0.2779 -0.5196
 1951TIP3   OH227487   1.106   1.471   0.931 -0.1987 -0.7329  0.3339
 1951TIP3    H127488   1.133   1.559   0.906  0.9101 -1.1674 -0.0928
 1951TIP3    H227489   1.166   1.447   1.002 -0.3404 -1.2239  0.2925
 1952TIP3   OH227490   5.644   5.683   8.142  0.2074  0.3854  0.2502
 1952TIP3    H127491   5.728   5.726   8.122  0.3483 -0.2856 -0.6504
 1952TIP3    H227492   5.667   5.611   8.201  0.2644  0.1871 -0.0152
 1953TIP3   OH227493   4.829   6.873   6.444 -0.5348 -0.2560  0.3997
 1953TIP3    H127494   4.747   6.903   6.483 -0.1887  0.6544  0.4503
 1953TIP3    H227495   4.896   6.927   6.485  0.1074 -1.0395  0.4151
 1954TIP3   OH227496   6.652   1.758   7.860 -0.1240  0.4321  0.4410
 1954TIP3    H127497   6.580   1.785   7.803 -0.8005  0.6338  1.3561
 1954TIP3    H227498   6.712   1.711   7.803 -0.4478  1.1952 -0.5688
 1955TIP3   OH227499   2.523   5.004   1.357  0.3595 -0.8926 -0.3146
 1955TIP3    H127500   2.461   5.044   1.296 -1.6670 -2.4778  0.6174
 1955TIP3    H227501   2.553   5.076   1.412  0.4852  0.1451 -1.6813
 1956TIP3   OH227502   2.369   6.715   6.620  0.9067 -0.0448  0.0626
 1956TIP3    H127503   2.379   6.803   6.584 -0.7345 -0.7650 -2.3696
 1956TIP3    H227504   2.338   6.662   6.547  1.1878 -2.5281  1.6245
 1957TIP3   OH227505   0.653   6.350   1.050  0.3427 -0.0261  0.1568
 1957TIP3    H127506   0.570   6.307   1.073  0.8260 -0.8810  0.3256
 1957TIP3    H227507   0.639   6.379   0.960  0.0664 -0.7104 -0.0344
 1958TIP3   OH227508   2.692   6.184   0.163  0.3406 -0.1516 -0.0043
 1958TIP3    H127509   2.680   6.205   0.256  3.0352 -1.0555  0.6381
 1958TIP3    H227510   2.635   6.109   0.148 -1.2817  0.9311  0.4615
 1959TIP3   OH227511   3.963   4.406   8.325 -0.6812  0.5497 -0.1360
 1959TIP3    H127512   3.925   4.394   8.412 -1.9849 -1.5373 -0.9249
 1959TIP3    H227513   3.889   4.434   8.271 -0.4090 -0.4592 -1.0476
 1960TIP3   OH227514   5.195   5.462   7.044 -0.3096 -0.1337 -0.1884
 1960TIP3    H127515   5.118   5.499   7.088  0.7542 -0.0846  1.7365
 1960TIP3    H227516   5.220   5.529   6.980 -1.0205  0.5005  0.1758
 1961TIP3   OH227517   1.843   5.387   7.713  0.2934 -0.5588  0.2420
 1961TIP3    H127518   1.828   5.400   7.807  1.4203  0.7335  0.2621
 1961TIP3    H227519   1.870   5.295   7.706  1.7663 -0.2513  1.4074
 1962TIP3   OH227520   5.758   3.882   1.102  0.4840  0.5078  0.2180
 1962TIP3    H127521   5.689   3.941   1.131  1.0036  3.0603 -3.0788
 1962TIP3    H227522   5.829   3.896   1.165 -0.6195  0.7952  1.4388
 1963TIP3   OH227523   5.119   1.296   6.937  0.0069 -0.2633 -0.2713
 1963TIP3    H127524   5.171   1.266   6.862 -0.9332 -1.0775 -0.6062
 1963TIP3    H227525   5.039   1.243   6.935 -1.1124  1.3667 -0.0941
 1964TIP3   OH227526   6.111   3.816   1.131 -0.2961 -0.3745  0.3479
 1964TIP3    H127527   6.134   3.804   1.038  1.0634  0.4799  0.5594
 1964TIP3    H227528   6.065   3.900   1.133  1.1799  0.4554  0.6696
 1965TIP3   OH227529   2.285   3.724   6.287  0.1395 -0.2987  0.0392
 1965TIP3    H127530   2.219   3.758   6.347  1.8834  1.3478  1.1426
 1965TIP3    H227531   2.256   3.754   6.200  0.7694  2.8645  0.7872
 1966TIP3   OH227532   0.744   0.577   8.193 -0.4333 -0.5290  0.5899
 1966TIP3    H127533   0.697   0.537   8.120 -0.0709 -1.0869  0.6618
 1966TIP3    H227534   0.815   0.517   8.212  0.9234  0.7735 -0.1540
 1967TIP3   OH227535   4.291   2.482   0.057  0.4361 -0.1877 -0.1756
 1967TIP3    H127536   4.307   2.533   0.136 -1.0291  2.2305 -1.3600
 1967TIP3    H227537   4.196   2.478   0.049  0.5509 -0.2081 -1.9132
 1968TIP3   OH227538   4.304   3.241   0.537 -0.2552 -0.6595 -0.1624
 1968TIP3    H127539   4.339   3.302   0.473 -1.5301  1.0427  0.6676
 1968TIP3    H227540   4.364   3.248   0.612 -0.9569  0.3976  0.3236
 1969TIP3   OH227541   3.036   2.682   0.397  0.5513  0.2648 -0.2915
 1969TIP3    H127542   2.947   2.716   0.397  0.7603  0.8799 -1.3816
 1969TIP3    H227543   3.047   2.644   0.310  0.8722 -1.1544  0.3400
 1970TIP3   OH227544   1.807   1.830   1.328 -0.1407  0.4918  0.0569
 1970TIP3    H127545   1.731   1.808   1.382  0.0174 -1.5196 -0.4604
 1970TIP3    H227546   1.789   1.918   1.297 -1.6728  0.5303  0.9353
 1971TIP3   OH227547   5.753   0.682   7.612 -1.2379  0.4471 -0.2051
 1971TIP3    H127548   5.796   0.654   7.693 -2.1490 -0.8246 -0.1272
 1971TIP3    H227549   5.704   0.605   7.583 -0.5309  0.6992 -2.2587
 1972TIP3   OH227550   1.515   4.270   1.668  0.2500  0.4268  0.2223
 1972TIP3    H127551   1.442   4.312   1.622  1.7816  0.8527 -1.9696
 1972TIP3    H227552   1.551   4.339   1.724  0.6097  1.0382 -0.7402
 1973TIP3   OH227553   6.577   3.098   0.755 -0.3478 -0.5669 -0.1971
 1973TIP3    H127554   6.671   3.111   0.767 -0.8648  1.2906  2.9863
 1973TIP3    H227555   6.554   3.154   0.681  0.6785  1.1576  0.7310
 1974TIP3   OH227556   2.697   4.660   6.961  0.1561 -0.0302  0.2516
 1974TIP3    H127557   2.624   4.721   6.949  0.6622  0.1992 -2.0030
 1974TIP3    H227558   2.683   4.591   6.896  1.1853 -0.7487  0.7547
 1975TIP3   OH227559   2.276   3.970   0.803 -0.4518 -0.0398 -0.4500
 1975TIP3    H127560   2.241   3.948   0.890 -1.2724  0.3973 -0.6562
 1975TIP3    H227561   2.200   4.005   0.755  0.1406  0.3585 -1.1164
 1976TIP3   OH227562   5.453   1.941   8.181  0.0410  0.1564 -0.2517
 1976TIP3    H127563   5.374   1.949   8.235 -0.8723 -1.0750 -1.3260
 1976TIP3    H227564   5.520   1.908   8.241 -1.0634 -1.6145  0.0880
 1977TIP3   OH227565   6.756   4.011   8.565 -0.3065  0.8485  0.8346
 1977TIP3    H127566   6.780   3.922   8.539  0.9027  0.9504  1.5096
 1977TIP3    H227567   6.701   4.000   8.643  0.1176  0.6928  1.1159
 1978TIP3   OH227568   3.577   0.259   6.536  0.2504  0.0396 -0.3594
 1978TIP3    H127569   3.634   0.325   6.576 -0.3649 -0.1103  0.7801
 1978TIP3    H227570   3.621   0.176   6.552 -0.5291 -0.1326  0.9998
 1979TIP3   OH227571   5.081   6.458   0.520 -0.5174  0.3651 -0.2745
 1979TIP3    H127572   5.094   6.547   0.554  0.9843 -0.4127  1.3536
 1979TIP3    H227573   5.148   6.406   0.564  0.1952 -1.1580 -2.9775
 1980TIP3   OH227574   0.526   2.308   8.035 -0.0392  0.3803 -0.3471
 1980TIP3    H127575   0.547   2.373   7.967  1.2128 -1.2023 -1.5609
 1980TIP3    H227576   0.435   2.285   8.018 -0.0912  0.8608 -0.7513
 1981TIP3   OH227577   3.261   2.797   0.501 -0.9669 -0.0504  0.0549
 1981TIP3    H127578   3.249   2.888   0.528 -2.0201 -0.0911 -0.2095
 1981TIP3    H227579   3.172   2.766   0.481 -0.5128 -0.8089 -0.8940
 1982TIP3   OH227580   3.784   2.317   0.207 -0.7941  0.3025  0.1704
 1982TIP3    H127581   3.783   2.257   0.282  0.9856  0.2357  0.1956
 1982TIP3    H227582   3.702   2.365   0.214 -0.7913  0.1282  2.0293
 1983TIP3   OH227583   2.160   2.930   0.123  0.1253  0.1450 -0.0272
 1983TIP3    H127584   2.191   2.891   0.204 -0.5777 -0.2493  0.0572
 1983TIP3    H227585   2.101   2.865   0.086 -0.4142  0.7816 -0.3038
 1984TIP3   OH227586   3.937   2.709   0.110 -0.5175  0.1453  0.0661
 1984TIP3    H127587   3.995   2.738   0.180 -0.3349 -0.2734  0.0920
 1984TIP3    H227588   3.936   2.782   0.048  0.4636 -0.0577 -0.2016
 1985TIP3   OH227589   1.759   6.423   8.160 -0.2531  0.4681 -0.2177
 1985TIP3    H127590   1.743   6.466   8.244 -0.0248 -0.3126  0.2358
 1985TIP3    H227591   1.840   6.461   8.127 -0.5121  1.0046 -0.2398
 1986TIP3   OH227592   2.329   4.375   7.865 -0.3825 -0.1248  0.5411
 1986TIP3    H127593   2.274   4.358   7.942 -0.5004  0.1761  0.5252
 1986TIP3    H227594   2.327   4.293   7.816  3.9331 -2.3269  3.4018
 1987TIP3   OH227595   3.975   6.776   0.716 -0.4019  0.1865  0.1356
 1987TIP3    H127596   3.899   6.834   0.719  0.3119  1.1664 -0.0386
 1987TIP3    H227597   3.939   6.690   0.694 -1.4436  0.6458 -0.0382
 1988TIP3   OH227598   1.724   2.003   7.089  0.2303  0.1053  0.2567
 1988TIP3    H127599   1.712   1.986   6.996  0.8910  0.2624  0.1428
 1988TIP3    H227600   1.768   1.924   7.123 -1.7768 -0.8370  0.8414
 1989TIP3   OH227601   1.761   5.388   2.522 -0.4025  0.1911 -0.0224
 1989TIP3    H127602   1.719   5.470   2.495  0.2567  0.2860 -0.8224
 1989TIP3    H227603   1.702   5.319   2.491 -1.0707  0.3569  0.8506
 1990TIP3   OH227604   1.272   2.075   0.652  0.1367 -0.0310  0.1150
 1990TIP3    H127605   1.318   2.065   0.735 -0.4601  0.1976  0.4705
 1990TIP3    H227606   1.179   2.067   0.674  0.0290 -1.3148 -0.7148
 1991TIP3   OH227607   5.064   5.937   7.517  0.5161  0.3350 -0.3329
 1991TIP3    H127608   5.158   5.939   7.539  0.3721 -0.1176  0.3428
 1991TIP3    H227609   5.020   5.972   7.594 -0.1050 -2.7213  0.8616
 1992TIP3   OH227610   1.800   1.527   1.424  0.3815  0.4761  0.2505
 1992TIP3    H127611   1.716   1.572   1.438  1.3337  1.9041  1.6911
 1992TIP3    H227612   1.799   1.456   1.488  0.5258  0.8859  0.7144
 1993TIP3   OH227613   1.315   2.236   1.866 -0.5815 -0.1367  0.1006
 1993TIP3    H127614   1.406   2.206   1.871  0.7330  3.3241 -0.2018
 1993TIP3    H227615   1.321   2.327   1.836 -4.2595 -0.1332 -1.2000
 1994TIP3   OH227616   2.194   0.236   0.056  0.8535 -0.0658 -0.4833
 1994TIP3    H127617   2.257   0.166   0.065  0.1437 -0.6291  0.1849
 1994TIP3    H227618   2.115   0.204   0.099 -0.0520  0.4271 -1.6916
 1995TIP3   OH227619   4.307   6.362   7.686 -0.7172 -0.2852  0.1947
 1995TIP3    H127620   4.313   6.404   7.600 -0.5765 -1.1007 -0.2063
 1995TIP3    H227621   4.228   6.399   7.726 -1.3066 -0.5800 -0.6664
 1996TIP3   OH227622   5.864   3.409   0.757  0.3722 -0.0382  0.5034
 1996TIP3    H127623   5.922   3.378   0.687 -0.7707  0.4254 -0.7030
 1996TIP3    H227624   5.796   3.342   0.762 -0.6166  0.8819 -0.2195
 1997TIP3   OH227625   2.083   2.561   8.491 -0.7559 -0.3364 -0.2388
 1997TIP3    H127626   2.089   2.569   8.396 -0.2625  1.1694 -0.1163
 1997TIP3    H227627   2.166   2.597   8.523 -0.3957 -1.9525  0.7339
 1998TIP3   OH227628   5.951   6.223   7.334 -0.4669  0.2654 -0.2010
 1998TIP3    H127629   5.984   6.255   7.417 -1.0522  3.0812 -0.9324
 1998TIP3    H227630   6.026   6.226   7.275 -0.2370 -0.9833  0.0002
 1999TIP3   OH227631   5.391   6.747   1.088 -0.1995 -0.5907 -0.0141
 1999TIP3    H127632   5.410   6.658   1.061 -0.6356 -0.4676 -0.7398
 1999TIP3    H227633   5.407   6.748   1.183 -0.5172 -1.5155  0.0521
 2000TIP3   OH227634   0.237   2.261   0.833  0.2539 -0.0471  0.3424
 2000TIP3    H127635   0.195   2.205   0.769  2.0557 -1.0764  0.0100
 2000TIP3    H227636   0.266   2.202   0.902 -0.8399  0.9313  1.7099
 2001TIP3   OH227637   4.675   6.061   0.429 -0.1778  0.2118  0.0500
 2001TIP3    H127638   4.751   6.103   0.388 -1.0908  1.6001 -0.3090
 2001TIP3    H227639   4.621   6.034   0.354 -0.1582 -0.5465  0.3061
 2002TIP3   OH227640   1.773   2.628   0.106  0.5775  0.4303 -0.8132
 2002TIP3    H127641   1.770   2.614   0.201  0.6489  1.5387 -0.6342
 2002TIP3    H227642   1.682   2.650   0.082  0.4322 -0.4655 -1.1102
 2003TIP3   OH227643   1.188   1.941   2.757 -0.2054 -0.4979  0.3530
 2003TIP3    H127644   1.143   1.857   2.749  0.4896 -0.7150 -2.4905
 2003TIP3    H227645   1.273   1.926   2.714  0.3779  1.3552  0.7706
 2004TIP3   OH227646   3.650   3.988   7.209 -0.6926 -0.2452  0.3362
 2004TIP3    H127647   3.715   4.055   7.193  0.6202 -1.2027  1.4351
 2004TIP3    H227648   3.567   4.027   7.180  0.3119  1.0793 -0.8658
 2005TIP3   OH227649   0.051   6.883   1.444  0.8463 -0.2110  0.2209
 2005TIP3    H127650   0.029   6.868   1.535 -2.9690  0.5605 -0.4028
 2005TIP3    H227651   0.129   6.938   1.447 -0.1831  1.2966  3.1200
 2006TIP3   OH227652   3.140   5.668   0.347 -0.2137 -0.3330 -0.2908
 2006TIP3    H127653   3.231   5.695   0.335 -0.9102  2.5250 -0.0364
 2006TIP3    H227654   3.090   5.749   0.337 -2.6162 -1.5543  0.9201
 2007TIP3   OH227655   0.587   3.346   8.076 -0.0017 -1.0912 -0.2706
 2007TIP3    H127656   0.558   3.415   8.017  2.0694  0.9091  0.8871
 2007TIP3    H227657   0.680   3.337   8.059  0.3441 -1.4985  1.6057
 2008TIP3   OH227658   6.580   0.864   7.468  0.0233 -0.1039 -0.0560
 2008TIP3    H127659   6.627   0.872   7.551 -2.3807  0.6301  1.3236
 2008TIP3    H227660   6.595   0.948   7.425  0.9158 -0.3223 -0.1984
 2009TIP3   OH227661   3.504   2.310   7.812  0.4618  0.2686 -0.2045
 2009TIP3    H127662   3.457   2.240   7.767  1.9571  0.2602 -1.8731
 2009TIP3    H227663   3.594   2.278   7.819  0.4936  0.6801  2.0160
 2010TIP3   OH227664   3.552   4.632   7.990 -0.6705  0.4891  0.1738
 2010TIP3    H127665   3.535   4.628   8.084 -0.7847 -0.0707  0.1318
 2010TIP3    H227666   3.471   4.600   7.950 -0.3845  0.0970 -0.0955
 2011TIP3   OH227667   0.184   3.689   1.611 -0.5987 -0.1024 -0.3241
 2011TIP3    H127668   0.257   3.737   1.572  0.1787  0.3127  1.4997
 2011TIP3    H227669   0.161   3.623   1.546  2.4341 -1.2753 -0.4167
 2012TIP3   OH227670   2.764   5.142   2.218 -0.1316  0.3985 -0.4137
 2012TIP3    H127671   2.819   5.155   2.295 -0.4080  1.9113 -0.4431
 2012TIP3    H227672   2.675   5.139   2.252 -0.1135 -1.7138 -0.4055
 2013TIP3   OH227673   2.814   3.093   7.802 -0.0480  0.2322  0.2528
 2013TIP3    H127674   2.863   3.027   7.755  1.0399  0.8486  0.4954
 2013TIP3    H227675   2.736   3.107   7.748  0.2576 -0.4201 -0.3823
 2014TIP3   OH227676   0.417   0.377   0.112  0.0024  0.1266 -0.2186
 2014TIP3    H127677   0.382   0.456   0.071 -2.2893  0.2420  1.7593
 2014TIP3    H227678   0.422   0.398   0.205 -0.4647 -1.9769  0.3348
 2015TIP3   OH227679   1.598   2.437   1.788  0.2272 -0.6574  0.5734
 2015TIP3    H127680   1.624   2.345   1.795  0.8503 -0.4636  0.8863
 2015TIP3    H227681   1.649   2.471   1.714 -1.2464 -0.9714 -0.6284
 2016TIP3   OH227682   1.981   2.747   1.411  0.2499 -0.4057 -0.3369
 2016TIP3    H127683   2.055   2.795   1.376 -0.2711  0.8810  0.2603
 2016TIP3    H227684   1.904   2.787   1.371 -0.2458 -0.0759  0.8733
 2017TIP3   OH227685   3.756   5.868   7.103  0.3832 -0.4085 -0.1568
 2017TIP3    H127686   3.810   5.838   7.176 -1.2804 -0.9009  0.9168
 2017TIP3    H227687   3.804   5.943   7.067  1.7193 -0.7626  0.8042
 2018TIP3   OH227688   3.388   1.950   0.869 -0.9015 -0.2697 -0.4157
 2018TIP3    H127689   3.469   1.900   0.861 -2.3178 -3.0869  1.2469
 2018TIP3    H227690   3.416   2.038   0.894  1.6258 -1.2760  0.5790
 2019TIP3   OH227691   0.113   1.579   8.496 -0.0683  0.4318 -0.3776
 2019TIP3    H127692   0.119   1.605   8.404  1.0066 -1.9266 -1.0357
 2019TIP3    H227693   0.202   1.587   8.530 -0.2921  0.4614  0.2215
 2020TIP3   OH227694   4.705   1.393   0.752  0.4371  0.2269 -0.4148
 2020TIP3    H127695   4.703   1.321   0.815  1.3730 -0.7247 -1.4383
 2020TIP3    H227696   4.762   1.362   0.682  0.9359  2.0161 -0.8378
 2021TIP3   OH227697   0.434   2.123   6.503 -0.5160  0.3897  0.0469
 2021TIP3    H127698   0.519   2.088   6.529 -0.3433  0.9374  0.2274
 2021TIP3    H227699   0.452   2.179   6.428 -0.8851 -0.4133 -0.6725
 2022TIP3   OH227700   4.548   5.661   1.024  0.5484  0.1239  0.0371
 2022TIP3    H127701   4.528   5.606   1.100  1.7927 -0.3708  0.0348
 2022TIP3    H227702   4.622   5.714   1.052  1.1471 -0.2009 -0.8728
 2023TIP3   OH227703   0.503   4.571   0.690  0.1726 -0.0504 -0.5950
 2023TIP3    H127704   0.572   4.569   0.623 -0.7893  1.0579 -1.6582
 2023TIP3    H227705   0.480   4.663   0.698 -0.7733 -0.3442  0.1897
 2024TIP3   OH227706   3.017   6.284   0.795  0.0922  0.4894 -0.4760
 2024TIP3    H127707   2.983   6.195   0.787  1.6168 -0.1872  0.1815
 2024TIP3    H227708   3.100   6.283   0.747  0.6165  1.2641  0.3698
 2025TIP3   OH227709   5.533   4.862   1.104  0.4864  0.2098  0.1522
 2025TIP3    H127710   5.563   4.772   1.101 -0.1009  0.0271 -0.4325
 2025TIP3    H227711   5.530   4.884   1.197  0.8254 -0.3029  0.2858
 2026TIP3   OH227712   0.950   1.473   1.978 -0.0735  0.1469  0.5297
 2026TIP3    H127713   0.865   1.477   1.934 -0.5825  1.6270  1.5798
 2026TIP3    H227714   0.933   1.502   2.067  1.5462  0.5141  0.7575
 2027TIP3   OH227715   1.033   4.901   1.313 -0.0053  0.2160 -0.2426
 2027TIP3    H127716   0.963   4.959   1.283 -0.9506 -0.9419 -0.3628
 2027TIP3    H227717   1.041   4.835   1.244 -0.6430 -1.1798  0.9586
 2028TIP3   OH227718   0.775   1.766   0.248 -0.2712 -0.0390 -0.0856
 2028TIP3    H127719   0.704   1.711   0.281 -0.1575 -1.1250 -1.5145
 2028TIP3    H227720   0.854   1.733   0.292 -0.3503 -0.3645 -0.1804
 2029TIP3   OH227721   2.071   6.456   7.657 -0.0851  0.6548  0.3767
 2029TIP3    H127722   2.139   6.422   7.714  0.9177  1.4981 -0.2958
 2029TIP3    H227723   2.070   6.550   7.673 -1.3779  0.6161  0.6647
 2030TIP3   OH227724   1.435   1.195   8.502 -0.6797  0.5149 -0.0586
 2030TIP3    H127725   1.445   1.262   8.571  1.1470  1.5681 -1.2686
 2030TIP3    H227726   1.449   1.243   8.421 -1.7818 -0.9131 -1.1366
 2031TIP3   OH227727   0.715   0.331   6.575 -0.2359 -0.6055  0.2047
 2031TIP3    H127728   0.713   0.388   6.652  1.9449  0.7331 -0.6176
 2031TIP3    H227729   0.782   0.265   6.596 -1.3074 -1.6752  0.3506
 2032TIP3   OH227730   5.561   4.682   2.431 -0.5363 -0.3134 -0.1953
 2032TIP3    H127731   5.633   4.739   2.458 -0.4920 -0.0025 -0.9551
 2032TIP3    H227732   5.494   4.741   2.398 -0.1020 -0.7326 -1.9081
 2033TIP3   OH227733   3.292   5.424   1.681  0.2095  0.0118  0.1269
 2033TIP3    H127734   3.343   5.361   1.733 -1.7691 -2.8029 -1.0587
 2033TIP3    H227735   3.336   5.425   1.596 -0.6188 -1.0685 -0.3440
 2034TIP3   OH227736   0.429   2.509   0.374  0.1270 -0.3406 -0.2531
 2034TIP3    H127737   0.471   2.585   0.334  1.3343 -0.6376  0.3820
 2034TIP3    H227738   0.447   2.519   0.468  2.4758 -2.6246 -0.3436
 2035TIP3   OH227739   6.426   4.305   8.629  0.2741  0.5868 -0.4113
 2035TIP3    H127740   6.467   4.324   8.544 -0.6991 -1.5651 -1.4456
 2035TIP3    H227741   6.357   4.371   8.636  1.1357  1.5600 -0.6750
 2036TIP3   OH227742   6.237   5.794   6.748 -0.0554 -0.3497 -0.1499
 2036TIP3    H127743   6.225   5.887   6.769 -1.3694 -0.4875 -0.2160
 2036TIP3    H227744   6.150   5.755   6.762  0.9927 -2.0504  2.2699
 2037TIP3   OH227745   2.226   4.823   1.918  0.3793 -0.0914  0.3388
 2037TIP3    H127746   2.243   4.732   1.941  0.6421  0.0197  0.5814
 2037TIP3    H227747   2.245   4.828   1.824 -1.3879 -0.7153 -0.0882
 2038TIP3   OH227748   1.707   2.054   7.359  0.5160 -0.6973  0.5726
 2038TIP3    H127749   1.685   2.049   7.266  0.3357 -0.5637  0.6071
 2038TIP3    H227750   1.802   2.043   7.362  0.8029  1.2178  0.2006
 2039TIP3   OH227751   0.146   2.792   2.370  0.1255 -0.0325 -0.0433
 2039TIP3    H127752   0.198   2.784   2.449 -0.6839  1.3094  0.6590
 2039TIP3    H227753   0.062   2.753   2.392 -0.7426  1.9699  0.4263
 2040TIP3   OH227754   1.572   1.320   1.405  0.1739  0.5975  0.2116
 2040TIP3    H127755   1.591   1.360   1.490 -1.1689 -1.1375  1.3790
 2040TIP3    H227756   1.477   1.314   1.402  0.1270  1.5671 -1.9089
 2041TIP3   OH227757   2.383   1.353   1.730 -0.6208  0.2661  0.1904
 2041TIP3    H127758   2.300   1.378   1.772  0.0986  1.3375  1.0121
 2041TIP3    H227759   2.369   1.372   1.637 -1.8508 -1.1127  0.0512
 2042TIP3   OH227760   6.698   5.350   1.259  0.0805  0.9302  0.2813
 2042TIP3    H127761   6.646   5.324   1.335 -0.9647  1.1375 -0.3460
 2042TIP3    H227762   6.689   5.277   1.198 -0.5105  1.5087 -0.3347
 2043TIP3   OH227763   6.326   2.626   0.418  0.1116 -0.5120  0.4900
 2043TIP3    H127764   6.330   2.583   0.333  0.9736 -0.0403  0.2781
 2043TIP3    H227765   6.254   2.583   0.464  0.6984 -1.9149  0.1496
 2044TIP3   OH227766   6.086   3.813   2.851 -0.4428 -0.4157 -0.0038
 2044TIP3    H127767   6.141   3.884   2.817 -1.7297 -0.1829 -1.7210
 2044TIP3    H227768   6.044   3.850   2.928 -0.3618  0.3581 -0.3186
 2045TIP3   OH227769   0.939   2.045   7.811  0.5529 -0.1743 -0.2310
 2045TIP3    H127770   0.857   2.083   7.781  1.6869  1.1604 -1.8288
 2045TIP3    H227771   0.943   1.959   7.769 -0.5569 -0.7905  0.8553
 2046TIP3   OH227772   1.149   3.283   0.825 -0.5336 -0.0503  0.1985
 2046TIP3    H127773   1.075   3.256   0.879 -0.5492  2.0582  1.3526
 2046TIP3    H227774   1.126   3.255   0.736 -2.5378  0.1821  0.5978
 2047TIP3   OH227775   6.825   2.324   2.234 -0.0351 -0.1362  0.5784
 2047TIP3    H127776   6.778   2.242   2.220 -2.6582  0.9763  2.1174
 2047TIP3    H227777   6.772   2.371   2.299  1.6972  2.5295  0.2083
 2048TIP3   OH227778   1.331   5.813   2.322 -0.1162  0.0996 -0.3588
 2048TIP3    H127779   1.272   5.884   2.298  0.1356 -0.4249 -2.7346
 2048TIP3    H227780   1.331   5.814   2.418 -0.7598  2.7236 -0.3162
 2049TIP3   OH227781   3.114   5.613   7.928 -0.2093  0.6561 -0.1669
 2049TIP3    H127782   3.045   5.679   7.921  0.4235  1.1544 -3.4016
 2049TIP3    H227783   3.102   5.575   8.015 -4.3929  0.8612 -0.4657
 2050TIP3   OH227784   2.433   3.262   8.434 -0.0173 -0.0758  0.4766
 2050TIP3    H127785   2.517   3.240   8.474 -0.1811  0.3266  1.0567
 2050TIP3    H227786   2.421   3.195   8.366  1.6931  1.0269 -0.9934
 2051TIP3   OH227787   2.207   6.251   0.649 -0.3191 -0.0060  0.1276
 2051TIP3    H127788   2.257   6.173   0.670 -1.3562 -0.6902  0.1414
 2051TIP3    H227789   2.131   6.247   0.707  0.4004  1.8674  1.2769
 2052TIP3   OH227790   0.503   1.507   7.791 -0.3171  0.1387 -0.0364
 2052TIP3    H127791   0.437   1.502   7.861 -0.1120 -1.9146  0.0810
 2052TIP3    H227792   0.451   1.513   7.710 -0.5715  1.2979  0.1921
 2053TIP3   OH227793   4.960   2.324   0.182 -0.1362 -0.6411  0.1444
 2053TIP3    H127794   5.001   2.379   0.115  0.3155  0.4729  1.3056
 2053TIP3    H227795   4.869   2.318   0.154 -0.1617  0.5716 -0.0999
 2054TIP3   OH227796   3.457   6.298   0.271 -0.4124 -0.4741 -0.0222
 2054TIP3    H127797   3.397   6.245   0.324  0.2016 -1.1136  0.0504
 2054TIP3    H227798   3.446   6.264   0.182 -0.6020 -0.1763 -0.1151
 2055TIP3   OH227799   6.498   0.678   0.471 -0.5923 -0.0446 -0.1055
 2055TIP3    H127800   6.472   0.702   0.382  0.0276  0.5584 -0.1401
 2055TIP3    H227801   6.562   0.608   0.460  1.3359  1.6213 -0.3263
 2056TIP3   OH227802   0.389   4.128   0.951 -0.0515 -0.0077  0.0614
 2056TIP3    H127803   0.324   4.113   1.020 -0.3898 -1.1691 -0.4856
 2056TIP3    H227804   0.349   4.195   0.895 -0.1262  0.3523  0.5356
 2057TIP3   OH227805   0.643   3.861   0.056  0.8529  0.2451  1.0678
 2057TIP3    H127806   0.671   3.934   0.001 -1.2786  0.8343  0.6675
 2057TIP3    H227807   0.720   3.839   0.109  2.2447  1.2185 -0.4624
 2058TIP3   OH227808   2.188   2.213   0.233 -0.3090 -0.1294  1.3753
 2058TIP3    H127809   2.246   2.183   0.163 -0.9755  0.3064  0.6278
 2058TIP3    H227810   2.237   2.194   0.314  1.0063  0.4585  0.7614
 2059TIP3   OH227811   2.112   5.286   8.410 -0.8152 -0.2574  0.1215
 2059TIP3    H127812   2.161   5.205   8.424 -2.2133 -0.8728  1.9022
 2059TIP3    H227813   2.069   5.275   8.326 -0.7049 -1.2077  0.1844
 2060TIP3   OH227814   2.388   6.122   1.783  0.6552 -0.4263 -0.2952
 2060TIP3    H127815   2.319   6.143   1.720  1.1934 -2.5964 -1.7379
 2060TIP3    H227816   2.353   6.150   1.868 -0.5591  1.5792 -1.3765
 2061TIP3   OH227817   1.982   2.316   7.630  0.1539  0.4202  0.0421
 2061TIP3    H127818   2.028   2.270   7.700  1.1832 -0.6126 -1.2562
 2061TIP3    H227819   1.984   2.408   7.656  1.1340  0.1367  1.0196
 2062TIP3   OH227820   2.136   4.322   1.455  0.2680  0.1316 -0.1706
 2062TIP3    H127821   2.167   4.244   1.409 -0.8844 -0.2274 -0.3845
 2062TIP3    H227822   2.047   4.335   1.421 -0.2212  0.4663  1.2046
 2063TIP3   OH227823   0.258   0.907   1.365  0.1807 -0.4899 -0.2412
 2063TIP3    H127824   0.315   0.945   1.298  0.5408  1.0484  0.8915
 2063TIP3    H227825   0.267   0.965   1.441 -1.5737 -1.1860  0.5618
 2064TIP3   OH227826   3.112   0.641   8.512  0.1578 -0.3152 -0.8113
 2064TIP3    H127827   3.164   0.652   8.592 -2.3076  0.2626  0.8323
 2064TIP3    H227828   3.078   0.552   8.518 -2.2744  0.5875  0.3472
 2065TIP3   OH227829   3.783   0.672   1.352 -0.0307  0.1700 -0.2504
 2065TIP3    H127830   3.699   0.707   1.379  0.2989  0.7300  0.0685
 2065TIP3    H227831   3.776   0.662   1.257 -0.0332  1.4042 -0.4001
 2066TIP3   OH227832   1.101   4.708   1.098 -0.8596  0.0698 -0.0615
 2066TIP3    H127833   1.184   4.735   1.058 -0.8147 -0.3167 -0.2313
 2066TIP3    H227834   1.037   4.716   1.027 -0.4150 -2.6988 -0.8923
 2067TIP3   OH227835   1.288   6.331   8.365  0.1421 -0.0146 -0.3664
 2067TIP3    H127836   1.300   6.247   8.410 -2.4460 -0.2082  0.1294
 2067TIP3    H227837   1.269   6.307   8.274  1.2640  0.1543 -0.6524
 2068TIP3   OH227838   0.500   0.819   6.503  0.1870 -0.2238  0.1259
 2068TIP3    H127839   0.441   0.808   6.577  0.4758 -1.2905  0.2123
 2068TIP3    H227840   0.550   0.899   6.524 -0.3884  0.0151  0.6107
 2069TIP3   OH227841   2.712   1.604   1.766 -0.1512  0.4179  0.1604
 2069TIP3    H127842   2.671   1.600   1.680 -1.0905 -0.4255  0.6301
 2069TIP3    H227843   2.649   1.650   1.821  0.3509  0.7677  0.4515
 2070TIP3   OH227844   2.701   3.062   1.410 -0.6893  0.1432 -0.6251
 2070TIP3    H127845   2.789   3.038   1.438 -0.5548  0.8533 -0.4195
 2070TIP3    H227846   2.686   3.148   1.450 -1.4800  0.0192 -0.6434
 2071TIP3   OH227847   2.467   3.729   1.318  0.1243  0.2957 -0.1192
 2071TIP3    H127848   2.400   3.773   1.266 -0.7036  0.6330  1.1933
 2071TIP3    H227849   2.542   3.722   1.259 -0.5599  1.2475 -1.1422
 2072TIP3   OH227850   4.037   4.038   8.581 -0.0011 -0.1173  0.3110
 2072TIP3    H127851   4.017   3.946   8.566  0.5190 -0.1193 -0.4365
 2072TIP3    H227852   4.016   4.081   8.498 -1.8592  0.7309  1.1665
 2073TIP3   OH227853   3.199   2.063   2.564  0.1130  0.2430 -0.2495
 2073TIP3    H127854   3.214   2.137   2.506 -0.1966  0.1481 -0.4517
 2073TIP3    H227855   3.123   2.089   2.617  0.9633  0.7265  0.7751
 2074TIP3   OH227856   1.311   5.617   8.065  0.0243  0.2226  0.1215
 2074TIP3    H127857   1.281   5.605   7.975  0.5717  0.7436 -0.1340
 2074TIP3    H227858   1.235   5.592   8.119 -0.6121  0.7868 -0.4937
 2075TIP3   OH227859   3.955   6.308   1.723  0.0398  0.0660 -0.0905
 2075TIP3    H127860   3.899   6.382   1.746 -0.0125 -0.3336  1.1439
 2075TIP3    H227861   3.895   6.244   1.685  0.2218  0.9761 -2.0052
 2076TIP3   OH227862   6.896   4.954   7.957 -0.3313  0.2164  0.3260
 2076TIP3    H127863   6.984   4.944   7.992 -0.0268  0.8697 -0.2351
 2076TIP3    H227864   6.909   4.971   7.863 -1.1114 -1.2089 -0.0652
 2077TIP3   OH227865   0.571   0.712   1.140 -0.3640 -0.0852 -0.1779
 2077TIP3    H127866   0.565   0.788   1.197  0.5371  0.3176 -0.6101
 2077TIP3    H227867   0.638   0.734   1.076 -1.6350 -0.3679 -1.6655
 2078TIP3   OH227868   1.805   3.498   0.971  0.2757  0.6278 -0.1948
 2078TIP3    H127869   1.784   3.589   0.952  0.7497  0.5680 -1.0310
 2078TIP3    H227870   1.811   3.456   0.886 -0.9984 -0.4463  0.2012
 2079TIP3   OH227871   6.214   0.770   7.011  0.0227 -0.0949  0.1892
 2079TIP3    H127872   6.165   0.816   6.943  0.2028  0.5757  0.5065
 2079TIP3    H227873   6.294   0.739   6.967 -0.4512 -0.7796 -0.2110
 2080TIP3   OH227874   3.650   5.524   7.250  0.1913  0.6616 -0.0433
 2080TIP3    H127875   3.673   5.529   7.158  0.7324 -1.1664 -0.0410
 2080TIP3    H227876   3.560   5.491   7.251  0.2151  0.5975  0.0746
 2081TIP3   OH227877   1.475   2.372   0.195  0.6453 -0.1027  0.6755
 2081TIP3    H127878   1.509   2.311   0.129 -0.2700 -0.2248  0.2935
 2081TIP3    H227879   1.418   2.319   0.250  0.1874  0.3098  0.6110
 2082TIP3   OH227880   4.572   6.090   7.537 -0.1389  0.2904 -0.3818
 2082TIP3    H127881   4.565   6.174   7.583  2.1109  1.6089 -2.1946
 2082TIP3    H227882   4.648   6.101   7.480 -1.0669 -2.2342 -2.2851
 2083TIP3   OH227883   4.757   2.610   1.326 -0.4230 -0.3499 -0.8317
 2083TIP3    H127884   4.703   2.578   1.254 -1.6478  0.2773 -0.2422
 2083TIP3    H227885   4.771   2.534   1.382 -1.1969 -0.4089 -0.7065
 2084TIP3   OH227886   5.434   0.443   1.721 -0.4272 -0.4828 -0.4412
 2084TIP3    H127887   5.345   0.452   1.687 -1.1906 -1.0729  1.2836
 2084TIP3    H227888   5.447   0.349   1.732 -0.7636 -0.3103  2.0994
 2085TIP3   OH227889   5.274   2.414   7.586 -0.1255  0.8662 -0.0733
 2085TIP3    H127890   5.354   2.387   7.631 -0.7538  0.8731  1.0910
 2085TIP3    H227891   5.265   2.352   7.514  0.6680  0.5602  0.0777
 2086TIP3   OH227892   4.511   5.078   6.857  0.3649 -0.7110  0.4181
 2086TIP3    H127893   4.448   5.031   6.911  0.6656 -2.8427 -0.9789
 2086TIP3    H227894   4.514   5.029   6.775  2.4122  0.4606 -0.2793
 2087TIP3   OH227895   5.348   6.464   8.010 -0.1499 -0.0722  0.4949
 2087TIP3    H127896   5.390   6.533   7.959  0.6931 -0.4377  0.6755
 2087TIP3    H227897   5.343   6.389   7.950  1.5492 -0.7497  1.1478
 2088TIP3   OH227898   1.688   4.874   0.992 -0.4138 -0.0972 -0.7325
 2088TIP3    H127899   1.701   4.812   0.920 -0.9092 -0.6258 -0.3831
 2088TIP3    H227900   1.605   4.847   1.031  0.1981 -0.2781  0.4928
 2089TIP3   OH227901   0.003   5.953   8.602 -0.3782 -0.2487 -0.4742
 2089TIP3    H127902  -0.033   6.020   8.660 -0.6143  0.6100 -1.5907
 2089TIP3    H227903   0.081   5.994   8.564  0.9489 -1.5259  0.7213
 2090TIP3   OH227904   3.493   0.117   7.387 -0.2450  0.2873 -0.4168
 2090TIP3    H127905   3.516   0.132   7.479 -0.4994  0.8020 -0.4299
 2090TIP3    H227906   3.577   0.110   7.342 -0.0973 -1.4286  0.0667
 2091TIP3   OH227907   6.040   6.847   7.679 -0.0248 -0.4720  0.0335
 2091TIP3    H127908   6.023   6.811   7.766 -1.0738  1.3501  0.6382
 2091TIP3    H227909   6.081   6.932   7.695 -2.7139  1.1622 -1.1020
 2092TIP3   OH227910   2.549   3.987   1.153 -0.1289 -0.1773 -0.0409
 2092TIP3    H127911   2.612   3.968   1.223 -0.5936  0.8627  0.6902
 2092TIP3    H227912   2.601   4.030   1.085  0.1127 -0.0822  0.2010
 2093TIP3   OH227913   3.462   0.210   0.954  0.3362 -0.0115  0.1375
 2093TIP3    H127914   3.454   0.157   1.034 -2.9398 -0.2268 -0.1552
 2093TIP3    H227915   3.483   0.146   0.885  1.1875 -0.1446  0.5172
 2094TIP3   OH227916   4.933   1.596   8.515  0.4248 -0.5025 -0.3908
 2094TIP3    H127917   4.888   1.551   8.587  0.0402 -0.9473 -0.9102
 2094TIP3    H227918   5.009   1.540   8.497  1.4489  0.4514  0.7566
 2095TIP3   OH227919   4.109   0.901   0.933 -0.4503 -0.6057  0.3669
 2095TIP3    H127920   4.057   0.920   1.011 -1.2027 -0.3331 -0.1915
 2095TIP3    H227921   4.085   0.970   0.871  0.6650 -0.4081  0.1348
 2096TIP3   OH227922   2.753   0.055   7.138 -0.3107  0.7936  0.4406
 2096TIP3    H127923   2.665   0.092   7.135 -0.6537  0.1075  1.2695
 2096TIP3    H227924   2.738  -0.040   7.136  0.2861  0.6259  2.1784
 2097TIP3   OH227925   4.511   5.025   1.359 -0.0473  0.3196  0.1664
 2097TIP3    H127926   4.531   4.959   1.426 -3.5542 -0.7917  0.3265
 2097TIP3    H227927   4.548   4.990   1.278 -0.4934 -1.1201  0.5556
 2098TIP3   OH227928   5.469   2.839   8.249  0.1088  0.2773  0.3880
 2098TIP3    H127929   5.556   2.818   8.284  0.4600 -2.9169 -2.0138
 2098TIP3    H227930   5.481   2.924   8.207  1.9373  0.1671  0.5860
 2099TIP3   OH227931   0.473   4.029   8.312  0.2866 -0.3051 -0.0648
 2099TIP3    H127932   0.435   4.115   8.331 -1.3495 -1.0112  0.0334
 2099TIP3    H227933   0.544   4.020   8.376 -0.9340  0.0777  1.4048
 2100TIP3   OH227934   2.711   4.273   8.574 -0.2186  0.5582  0.1570
 2100TIP3    H127935   2.777   4.246   8.638  0.1277  0.3832 -0.2619
 2100TIP3    H227936   2.627   4.263   8.619  0.1065  2.1215  1.1718
 2101TIP3   OH227937   2.976   2.289   7.118 -0.6263 -0.3743 -0.7075
 2101TIP3    H127938   2.988   2.304   7.024  0.2065 -1.0046 -0.7124
 2101TIP3    H227939   3.016   2.364   7.160  1.8016 -1.5259 -0.7863
 2102TIP3   OH227940   5.507   5.039   0.619 -0.1023  0.2271 -0.3007
 2102TIP3    H127941   5.503   4.947   0.594 -0.9190  0.9137 -2.9902
 2102TIP3    H227942   5.435   5.050   0.681  0.1466 -0.9624  0.2302
 2103TIP3   OH227943   1.212   3.300   0.298 -0.0024 -0.5663  0.2772
 2103TIP3    H127944   1.165   3.236   0.244 -0.4100  1.1750 -1.5688
 2103TIP3    H227945   1.145   3.335   0.357 -0.0886 -0.9016  0.3805
 2104TIP3   OH227946   0.555   4.766   0.990  0.4500 -0.0740  0.3019
 2104TIP3    H127947   0.556   4.838   0.928  3.7341  0.9010  1.3010
 2104TIP3    H227948   0.522   4.804   1.072  0.4852 -0.1688  0.3616
 2105TIP3   OH227949   6.699   1.044   2.264  0.1075  0.3867  0.1555
 2105TIP3    H127950   6.651   1.034   2.182 -0.1521 -0.6305  0.4217
 2105TIP3    H227951   6.791   1.033   2.240 -0.0301 -0.9158  0.1265
 2106TIP3   OH227952   1.471   2.908   1.463  0.5771  0.5323 -0.3169
 2106TIP3    H127953   1.529   2.944   1.530  0.2002 -0.2962  0.4681
 2106TIP3    H227954   1.471   2.814   1.479  0.6101  0.2906 -1.5916
 2107TIP3   OH227955   0.898   6.862   0.224  0.0310 -0.2220  0.6674
 2107TIP3    H127956   0.841   6.793   0.258  0.0270 -1.6851 -2.0620
 2107TIP3    H227957   0.839   6.923   0.180  0.3928 -1.0317 -1.0037
 2108TIP3   OH227958   4.517   6.569   6.359  0.1233 -0.0965 -0.3788
 2108TIP3    H127959   4.449   6.501   6.365 -1.3836  1.2432 -1.6495
 2108TIP3    H227960   4.488   6.627   6.289  1.5827  1.6569  0.3852
 2109TIP3   OH227961   2.731   2.256   0.800  0.3620 -0.5591 -0.0074
 2109TIP3    H127962   2.800   2.219   0.745  2.1918  0.4617  1.4639
 2109TIP3    H227963   2.751   2.223   0.888 -1.2813 -0.5557  0.3957
 2110TIP3   OH227964   0.208   2.948   0.108  0.2237  0.2168 -0.2161
 2110TIP3    H127965   0.176   2.926   0.020 -0.5093  0.0042  0.0991
 2110TIP3    H227966   0.150   2.901   0.167 -0.2842  1.5995  0.4335
 2111TIP3   OH227967   5.699   0.244   7.221  0.3364 -0.4383  0.4851
 2111TIP3    H127968   5.662   0.165   7.181  1.0388 -0.5987  0.1393
 2111TIP3    H227969   5.658   0.248   7.308  0.0301 -0.9863  0.3723
 2112TIP3   OH227970   5.734   3.168   1.264  0.3362 -0.3978 -0.3813
 2112TIP3    H127971   5.640   3.185   1.252  0.2832 -1.9018 -2.7669
 2112TIP3    H227972   5.767   3.246   1.309 -2.1580 -0.1398  1.1958
 2113TIP3   OH227973   5.167   3.588   0.893 -0.0727  0.0401 -0.3293
 2113TIP3    H127974   5.194   3.633   0.814 -0.8984 -2.4771 -2.1831
 2113TIP3    H227975   5.241   3.532   0.916 -0.5616 -0.7298 -0.5635
 2114TIP3   OH227976   2.566   0.941   0.246  0.5090  1.3204  0.2315
 2114TIP3    H127977   2.630   0.998   0.290  1.3044  0.5134  0.1520
 2114TIP3    H227978   2.556   0.980   0.159  1.7697  0.8357 -0.1561
 2115TIP3   OH227979   0.548   2.776   1.839 -0.5363  0.3551 -0.3897
 2115TIP3    H127980   0.523   2.864   1.870 -1.6610 -0.3854  0.9481
 2115TIP3    H227981   0.643   2.774   1.845 -0.5783  1.0581  0.8327
 2116TIP3   OH227982   6.293   3.954   7.898  0.1413 -0.1825 -0.4284
 2116TIP3    H127983   6.341   4.028   7.935 -0.1960  0.7330 -1.7219
 2116TIP3    H227984   6.259   3.906   7.973 -1.5427  2.2460  0.4905
 2117TIP3   OH227985   6.312   5.056   7.347 -0.4907 -0.3804  0.6642
 2117TIP3    H127986   6.350   5.144   7.357 -1.5382  0.4155 -1.6756
 2117TIP3    H227987   6.369   5.011   7.285 -1.9276  0.0107 -1.0439
 2118TIP3   OH227988   0.202   1.466   1.174 -0.5622  0.1354  0.3692
 2118TIP3    H127989   0.188   1.481   1.081 -0.7638  0.0657  0.3876
 2118TIP3    H227990   0.230   1.375   1.180 -1.1973 -0.0533  0.4417
 2119TIP3   OH227991   5.001   1.779   0.328 -0.3882 -0.2846  0.3309
 2119TIP3    H127992   4.911   1.795   0.299  0.1243 -1.5639 -2.2310
 2119TIP3    H227993   4.993   1.710   0.394 -1.3053  0.0652  0.6076
 2120TIP3   OH227994   3.101   4.145   2.047  0.5087  0.4934 -0.0969
 2120TIP3    H127995   3.090   4.220   2.105 -0.8006 -1.1334  1.9225
 2120TIP3    H227996   3.163   4.088   2.093 -0.6588 -0.8953 -0.1543
 2121TIP3   OH227997   1.342   3.903   6.823 -0.2277  0.0364 -0.1086
 2121TIP3    H127998   1.392   3.881   6.901  0.8289 -0.8737 -0.9891
 2121TIP3    H227999   1.288   3.825   6.807 -0.4386  0.2157 -0.2764
 2122TIP3   OH228000   1.401   0.650   1.434 -0.0578  0.1109  0.0042
 2122TIP3    H128001   1.369   0.612   1.516  0.0603  0.7708  0.3668
 2122TIP3    H228002   1.485   0.689   1.456  0.9553 -1.4717 -0.9148
 2123TIP3   OH228003   3.477   3.652   7.335 -0.3725 -0.3726  0.1403
 2123TIP3    H128004   3.420   3.689   7.267 -0.0671  0.0326  0.1014
 2123TIP3    H228005   3.560   3.637   7.291 -0.8520 -2.3286 -0.1838
 2124TIP3   OH228006   6.358   0.205   2.695 -0.0746 -0.1072  0.0887
 2124TIP3    H128007   6.451   0.214   2.715 -0.0927  0.2965  0.0053
 2124TIP3    H228008   6.334   0.289   2.656 -0.6792  0.1300  0.9361
 2125TIP3   OH228009   6.208   4.231   2.724 -0.1996 -0.1117 -0.1561
 2125TIP3    H128010   6.303   4.224   2.713 -0.0799 -0.3869  0.9367
 2125TIP3    H228011   6.185   4.312   2.680  0.3345 -0.6980 -1.6041
 2126TIP3   OH228012   2.222   6.899   7.333  0.0698  0.4185 -0.0156
 2126TIP3    H128013   2.307   6.941   7.321  0.4622 -0.6622 -1.2195
 2126TIP3    H228014   2.158   6.971   7.329  0.8557  1.1397  0.1503
 2127TIP3   OH228015   2.115   5.867   7.911 -0.5928 -0.3331 -0.1133
 2127TIP3    H128016   2.079   5.913   7.988 -0.4274  0.4175 -0.4731
 2127TIP3    H228017   2.195   5.826   7.944 -1.2710 -1.2292  0.4622
 2128TIP3   OH228018   4.254   3.365   0.076  0.0370 -0.0127 -1.1074
 2128TIP3    H128019   4.284   3.397  -0.009  0.9900 -0.4893 -0.9649
 2128TIP3    H228020   4.316   3.403   0.139 -0.1445 -0.3495 -0.7191
 2129TIP3   OH228021   2.204   1.442   7.853  0.5515 -0.1048  0.2745
 2129TIP3    H128022   2.216   1.358   7.808  0.4281  0.0754 -0.0993
 2129TIP3    H228023   2.110   1.460   7.845  0.7497  0.6178 -0.6466
 2130TIP3   OH228024   2.846   0.085   0.227 -0.3060 -0.4559 -0.0317
 2130TIP3    H128025   2.920   0.029   0.251 -0.2376 -0.2992  0.1258
 2130TIP3    H228026   2.772   0.047   0.274 -0.0414  0.2571  0.9952
 2131TIP3   OH228027   1.526   2.077   0.236 -0.4044 -0.2772 -0.0272
 2131TIP3    H128028   1.558   1.987   0.243 -0.4436 -0.2494  0.5248
 2131TIP3    H228029   1.555   2.105   0.149  1.1464 -0.2206  0.4785
 2132TIP3   OH228030   1.201   2.891   8.269 -0.5722 -0.1471 -0.0497
 2132TIP3    H128031   1.259   2.835   8.218  0.5338  0.9390 -0.0216
 2132TIP3    H228032   1.196   2.972   8.218 -1.7942 -0.0859  0.1276
 2133TIP3   OH228033   1.305   1.666   0.152 -0.1980 -0.1325  0.3479
 2133TIP3    H128034   1.370   1.645   0.219  0.6381  0.7174 -0.1659
 2133TIP3    H228035   1.239   1.597   0.160  1.4306 -1.8246 -0.0215
 2134TIP3   OH228036   5.172   6.895   7.037  0.1416  0.2907  0.3812
 2134TIP3    H128037   5.167   6.962   7.105  0.5428  0.8337 -0.1069
 2134TIP3    H228038   5.211   6.940   6.962  1.8326 -0.8509  0.5056
 2135TIP3   OH228039   1.043   2.165   0.296  0.2616 -0.8213 -0.3105
 2135TIP3    H128040   1.024   2.219   0.220  0.8492 -0.7200 -0.3905
 2135TIP3    H228041   1.110   2.104   0.266  2.3134  0.7748  0.7534
 2136TIP3   OH228042   6.222   5.525   0.745  0.4980 -0.3819 -0.1115
 2136TIP3    H128043   6.247   5.436   0.772 -2.0268 -0.7449  1.3713
 2136TIP3    H228044   6.164   5.511   0.670 -1.9371 -0.3205  1.6068
 2137TIP3   OH228045   4.622   4.978   7.616 -0.0683 -0.1738  0.0208
 2137TIP3    H128046   4.567   4.903   7.594 -0.1960 -0.1742  0.3334
 2137TIP3    H228047   4.612   4.988   7.711  3.8262 -2.9243  1.0005
 2138TIP3   OH228048   3.527   0.197   1.864 -0.6134 -0.4901  0.5983
 2138TIP3    H128049   3.618   0.168   1.875  0.2114  0.8304 -1.8699
 2138TIP3    H228050   3.499   0.222   1.952  2.1931  1.1261  1.1709
 2139TIP3   OH228051   2.514   2.612   2.407 -0.4060 -0.1650  0.1255
 2139TIP3    H128052   2.474   2.699   2.415 -1.2801 -0.5434  0.0511
 2139TIP3    H228053   2.578   2.622   2.336 -1.4343  0.1098 -0.8073
 2140TIP3   OH228054   3.710   5.740   0.015  0.6359 -0.5978  0.4013
 2140TIP3    H128055   3.736   5.814   0.070  1.6565 -1.2503  0.8278
 2140TIP3    H228056   3.644   5.777  -0.044  0.7905  0.5389  0.8973
 2141TIP3   OH228057   3.839   0.483   7.251  0.1355  0.2419 -0.6846
 2141TIP3    H128058   3.868   0.555   7.308  1.6414  0.1461 -1.2807
 2141TIP3    H228059   3.807   0.526   7.172 -1.9926  0.3773  0.1830
 2142TIP3   OH228060   6.608   6.181   0.660  0.0285  0.3521  0.6930
 2142TIP3    H128061   6.675   6.123   0.624 -0.3375  0.1028  0.3999
 2142TIP3    H228062   6.550   6.123   0.708 -0.0394  0.5517  0.8533
 2143TIP3   OH228063   5.180   3.986   8.027 -0.3729  0.2382 -0.0812
 2143TIP3    H128064   5.104   3.951   7.981  0.8343  0.9132 -2.8087
 2143TIP3    H228065   5.199   4.069   7.983  1.9465  0.0868  0.4587
 2144TIP3   OH228066   3.535   3.560   8.304 -0.0947 -0.1780 -0.1973
 2144TIP3    H128067   3.505   3.583   8.216  1.8606  0.1037 -0.8456
 2144TIP3    H228068   3.529   3.641   8.354  1.3568  0.3744 -0.8698
 2145TIP3   OH228069   0.645   2.151   0.795 -0.2528 -0.6253  0.1810
 2145TIP3    H128070   0.628   2.097   0.873  0.2532 -2.3269 -0.8297
 2145TIP3    H228071   0.735   2.182   0.807 -1.0300  1.3227  1.4766
 2146TIP3   OH228072   0.768   4.487   7.359 -0.6946 -0.0372 -0.0468
 2146TIP3    H128073   0.731   4.546   7.293 -1.2942 -0.6431 -0.2730
 2146TIP3    H228074   0.856   4.521   7.375 -0.6435  0.2973 -0.9533
 2147TIP3   OH228075   6.581   0.425   1.451  0.3332 -0.1080 -0.0124
 2147TIP3    H128076   6.663   0.402   1.407 -0.6532 -0.2854 -1.8504
 2147TIP3    H228077   6.520   0.443   1.380 -2.0572 -2.7607  1.1645
 2148TIP3   OH228078   1.728   4.688   0.760  0.3520  0.3284 -0.2761
 2148TIP3    H128079   1.765   4.630   0.827  1.7135  1.9088  0.4136
 2148TIP3    H228080   1.795   4.693   0.692 -0.5021 -0.2730 -1.1852
 2149TIP3   OH228081   0.492   2.327   0.192  0.3329  0.2638 -0.1520
 2149TIP3    H128082   0.460   2.382   0.263  0.0774 -0.3827  0.2367
 2149TIP3    H228083   0.586   2.343   0.190  0.0453  2.1727 -1.2979
 2150TIP3   OH228084   5.640   0.540   8.148  0.0652 -0.0809  0.7978
 2150TIP3    H128085   5.628   0.455   8.189 -1.6403  0.6783  1.9949
 2150TIP3    H228086   5.714   0.579   8.194  1.2000 -1.0765 -0.1167
 2151TIP3   OH228087   2.595   1.274   6.241  0.0332 -0.4519 -0.2503
 2151TIP3    H128088   2.657   1.338   6.205 -1.2535  1.1948  0.3437
 2151TIP3    H228089   2.533   1.257   6.169 -0.7058  0.4206  0.1670
 2152TIP3   OH228090   0.423   1.995   7.293 -0.6482  0.6327  0.0162
 2152TIP3    H128091   0.361   1.947   7.238  1.1819 -0.4306 -1.2301
 2152TIP3    H228092   0.408   1.961   7.381 -0.6499 -0.9136 -0.5452
 2153TIP3   OH228093   2.176   6.166   7.891  0.0542 -0.2147 -0.2352
 2153TIP3    H128094   2.241   6.096   7.885 -1.0499 -1.1693 -1.3178
 2153TIP3    H228095   2.229   6.246   7.897  1.3318 -1.0583  0.3549
 2154TIP3   OH228096   0.176   6.406   7.411  0.1470 -0.6524  0.2992
 2154TIP3    H128097   0.151   6.443   7.326  0.2391  0.5983  0.7961
 2154TIP3    H228098   0.111   6.338   7.427 -0.6241 -0.0628 -0.2186
 2155TIP3   OH228099   2.768   3.169   6.196 -0.2578 -0.4170  0.5129
 2155TIP3    H128100   2.863   3.167   6.189 -0.2325  1.1314  0.1045
 2155TIP3    H228101   2.742   3.077   6.191  1.0536 -0.7561 -2.1138
 2156TIP3   OH228102   6.222   0.166   0.971  0.7066  0.0612  0.1048
 2156TIP3    H128103   6.278   0.097   0.935 -0.2637 -0.7845  0.1429
 2156TIP3    H228104   6.195   0.133   1.057  0.0730  0.3981  0.0431
 2157TIP3   OH228105   5.407   1.621   0.472 -0.2489 -0.3842  0.2706
 2157TIP3    H128106   5.475   1.672   0.516 -0.0604 -0.9124  0.5953
 2157TIP3    H228107   5.366   1.570   0.541 -2.2596  1.3069  0.4153
 2158TIP3   OH228108   4.135   3.038   0.436 -0.5421  0.1089  0.7561
 2158TIP3    H128109   4.198   3.104   0.466 -1.2024  0.7464  0.7610
 2158TIP3    H228110   4.103   3.070   0.352 -1.4218  0.1831  1.1074
 2159TIP3   OH228111   5.144   1.194   7.826 -0.3051  0.4849  0.2364
 2159TIP3    H128112   5.209   1.260   7.852 -1.1345  1.2003  0.5663
 2159TIP3    H228113   5.083   1.191   7.901  0.0314 -1.0764  0.4688
 2160TIP3   OH228114   4.568   0.444   0.101 -0.1679  0.3328  0.3097
 2160TIP3    H128115   4.499   0.386   0.131  0.3332 -0.1300  0.5822
 2160TIP3    H228116   4.638   0.386   0.072  0.0914  0.7931 -0.0088
 2161TIP3   OH228117   5.781   2.735   0.029 -0.1916  1.1760  0.2691
 2161TIP3    H128118   5.790   2.687  -0.053 -0.3332 -0.8457  1.3787
 2161TIP3    H228119   5.693   2.713   0.060  0.0598  1.4717  1.2299
 2162TIP3   OH228120   5.374   4.026   1.029  0.1047  0.1956 -0.2351
 2162TIP3    H128121   5.298   3.992   0.981  0.5528  1.1403 -1.6742
 2162TIP3    H228122   5.448   3.976   0.995  0.5715  1.6052 -1.3251
 2163TIP3   OH228123   6.680   0.847   7.732  0.1893  0.2184  0.4086
 2163TIP3    H128124   6.750   0.900   7.769  1.0970 -1.4819  1.2832
 2163TIP3    H228125   6.668   0.775   7.795 -1.6381 -0.0989 -0.2325
 2164TIP3   OH228126   2.277   0.367   1.131  0.2286  0.1804 -0.0642
 2164TIP3    H128127   2.330   0.426   1.078 -0.9778  1.9160  0.5841
 2164TIP3    H228128   2.209   0.423   1.169  1.2300 -0.8396  3.6064
 2165TIP3   OH228129   4.161   4.406   1.619 -0.0691 -0.0290  0.4929
 2165TIP3    H128130   4.245   4.362   1.608 -0.2390 -1.0837  2.8139
 2165TIP3    H228131   4.167   4.484   1.564  0.7196 -2.2493 -2.8548
 2166TIP3   OH228132   3.047   2.953   0.908 -0.2383  0.0512  0.1174
 2166TIP3    H128133   3.018   3.035   0.869 -1.7021 -0.5360 -0.0959
 2166TIP3    H228134   3.017   2.885   0.847  1.4995 -0.6276 -0.0432
 2167TIP3   OH228135   6.294   6.107   2.037  0.2396  0.1862  0.5589
 2167TIP3    H128136   6.215   6.054   2.030 -1.7212  2.6087  2.5402
 2167TIP3    H228137   6.366   6.044   2.030 -1.8317 -2.3020  0.0991
 2168TIP3   OH228138   0.525   2.126   7.575  0.0538 -0.4950  0.1201
 2168TIP3    H128139   0.510   2.046   7.526  3.1160  0.3834 -2.6083
 2168TIP3    H228140   0.468   2.191   7.534 -0.1965 -0.5814  0.3250
 2169TIP3   OH228141   4.750   2.957   8.033 -0.6261  0.1575  0.4377
 2169TIP3    H128142   4.840   2.943   8.005 -0.6089 -0.3615  0.7304
 2169TIP3    H228143   4.735   2.890   8.101 -0.8710  0.9662  1.1966
 2170TIP3   OH228144   3.016   3.571   8.571  0.0606  0.0868  0.4785
 2170TIP3    H128145   3.023   3.476   8.582  0.9769  0.1010  0.0698
 2170TIP3    H228146   2.986   3.602   8.657  2.7813 -0.2715  1.6504
 2171TIP3   OH228147   1.669   3.982   8.162  0.0868 -0.0746 -0.5217
 2171TIP3    H128148   1.762   3.961   8.150 -0.1973 -0.9905 -1.3697
 2171TIP3    H228149   1.651   4.050   8.097 -0.0280 -0.5552 -1.0059
 2172TIP3   OH228150   2.431   6.148   1.296  0.2401  0.3627  0.7380
 2172TIP3    H128151   2.497   6.080   1.279  0.9951  1.6273 -2.0864
 2172TIP3    H228152   2.483   6.225   1.320 -0.5671  0.2167  3.2134
 2173TIP3   OH228153   0.170   0.440   2.252  0.2525  0.4652  0.1625
 2173TIP3    H128154   0.111   0.447   2.328 -0.7582  0.8476 -0.6399
 2173TIP3    H228155   0.212   0.355   2.263 -1.3059 -0.3449  0.1761
 2174TIP3   OH228156   3.840   0.282   0.247  0.2941 -0.4356 -0.0135
 2174TIP3    H128157   3.920   0.293   0.298  0.1428  0.9271 -0.0262
 2174TIP3    H228158   3.847   0.348   0.177 -0.9546 -0.1116  0.1419
 2175TIP3   OH228159   6.028   4.843   1.701 -0.0917  0.1396  0.7414
 2175TIP3    H128160   5.978   4.775   1.656 -0.0438 -0.0349  0.9496
 2175TIP3    H228161   5.973   4.922   1.694  0.4444  0.4083 -0.6356
 2176TIP3   OH228162   5.615   3.848   2.331  0.4188 -0.5831  0.8575
 2176TIP3    H128163   5.569   3.874   2.251 -0.1165 -0.6835  1.1355
 2176TIP3    H228164   5.636   3.756   2.317  0.9561 -0.4197  0.5337
 2177TIP3   OH228165   0.585   2.738   6.518  0.3072 -0.1228  0.4050
 2177TIP3    H128166   0.649   2.724   6.588 -0.5593 -0.6081  1.1292
 2177TIP3    H228167   0.552   2.650   6.499  2.6695 -0.5058 -2.7769
 2178TIP3   OH228168   3.032   3.818   0.659 -0.2958  1.0783 -0.5594
 2178TIP3    H128169   3.080   3.824   0.577  0.4390  0.3664 -0.1913
 2178TIP3    H228170   2.943   3.794   0.633 -0.2320  1.4878 -1.1784
 2179TIP3   OH228171   2.257   4.133   6.494 -0.6164 -0.3256 -0.5175
 2179TIP3    H128172   2.259   4.170   6.406  2.6105  0.8996 -0.0669
 2179TIP3    H228173   2.239   4.040   6.480  1.6515 -0.5630 -2.7311
 2180TIP3   OH228174   6.589   3.445   0.279  0.1727 -0.9872 -0.1009
 2180TIP3    H128175   6.595   3.392   0.358  1.0367 -0.6369  0.0807
 2180TIP3    H228176   6.528   3.516   0.302  2.0221  0.3269  0.9883
 2181TIP3   OH228177   2.162   4.025   0.459 -0.0882  0.9490  0.3605
 2181TIP3    H128178   2.132   3.943   0.499  2.7113  0.0923  0.9302
 2181TIP3    H228179   2.128   4.022   0.370  0.6397 -1.2805  0.0999
 2182TIP3   OH228180   2.816   2.513   1.290 -0.4353  0.1831 -0.1319
 2182TIP3    H128181   2.860   2.598   1.284 -0.9376  0.5397  0.8479
 2182TIP3    H228182   2.728   2.530   1.256 -0.3731 -0.0764 -0.4221
 2183TIP3   OH228183   3.497   4.974   7.864  0.0689 -0.3903  0.1259
 2183TIP3    H128184   3.424   4.949   7.921 -0.5050  0.7912 -0.0680
 2183TIP3    H228185   3.466   5.051   7.817  0.8902 -0.7874 -1.1018
 2184TIP3   OH228186   6.348   2.695   0.989 -0.4007  0.1307 -0.2011
 2184TIP3    H128187   6.278   2.673   0.927 -1.3922  0.5968  0.7266
 2184TIP3    H228188   6.427   2.658   0.949 -0.9115  0.8744 -2.0064
 2185TIP3   OH228189   3.435   3.179   7.563 -0.3089  0.2382  1.1220
 2185TIP3    H128190   3.361   3.179   7.502  0.2470  1.0784  0.4111
 2185TIP3    H228191   3.480   3.262   7.545  1.0632 -0.4595  1.2214
 2186TIP3   OH228192   5.605   0.548   7.401 -0.2565  0.1198  0.8460
 2186TIP3    H128193   5.666   0.497   7.348  0.5289  2.0389 -0.2075
 2186TIP3    H228194   5.525   0.552   7.348  0.4522  1.8446 -0.1841
 2187TIP3   OH228195   3.720   1.902   7.651  0.0251 -0.8259  0.6553
 2187TIP3    H128196   3.664   1.825   7.644  0.4694 -1.2839  1.8464
 2187TIP3    H228197   3.807   1.867   7.671  0.8881 -0.1627 -1.5952
 2188TIP3   OH228198   4.708   5.833   7.691 -0.4842 -0.1937 -0.0183
 2188TIP3    H128199   4.800   5.812   7.675 -0.4072  0.2575 -0.2001
 2188TIP3    H228200   4.694   5.813   7.784  0.4653  1.9849  0.6745
 2189TIP3   OH228201   1.891   2.232   0.890 -0.4853  0.6322 -0.2956
 2189TIP3    H128202   1.796   2.237   0.902 -0.9860 -4.3213 -0.1368
 2189TIP3    H228203   1.905   2.151   0.841  3.7335  0.0529  1.4296
 2190TIP3   OH228204   2.064   6.519   1.192 -0.2131 -0.2304  0.1040
 2190TIP3    H128205   2.002   6.586   1.221 -1.7723 -1.8531  0.7210
 2190TIP3    H228206   2.010   6.454   1.147  1.0483 -1.6418  0.5420
 2191TIP3   OH228207   5.880   4.545   7.530 -0.0029 -0.0356 -0.0094
 2191TIP3    H128208   5.834   4.617   7.572  0.3310 -0.7052  1.5852
 2191TIP3    H228209   5.943   4.587   7.471  0.3455  0.9910  1.0702
 2192TIP3   OH228210   4.399   3.525   8.147 -0.0853  0.4795 -0.4264
 2192TIP3    H128211   4.473   3.464   8.141  0.5135  1.1998 -0.5090
 2192TIP3    H228212   4.323   3.472   8.124  0.4848 -0.1256 -0.9831
 2193TIP3   OH228213   2.364   5.984   7.518  0.1904 -0.1197 -0.0272
 2193TIP3    H128214   2.279   5.987   7.475  0.4444 -0.8451 -0.6103
 2193TIP3    H228215   2.372   6.068   7.563 -0.8333 -0.0492  0.0425
 2194TIP3   OH228216   6.283   4.790   1.706  0.0911  0.5358  0.2031
 2194TIP3    H128217   6.209   4.838   1.669  0.1675  0.9731  0.6071
 2194TIP3    H228218   6.246   4.737   1.776  0.4073  2.1181  1.6185
 2195TIP3   OH228219   5.425   1.266   1.726 -0.0080 -0.1722 -0.2682
 2195TIP3    H128220   5.344   1.216   1.738 -0.4395  0.3158 -1.0743
 2195TIP3    H228221   5.478   1.245   1.803 -0.3496 -1.5356 -0.3870
 2196TIP3   OH228222   2.366   4.231   0.813  0.4087 -0.3614 -0.1801
 2196TIP3    H128223   2.460   4.238   0.830  1.1450 -2.7199 -2.5358
 2196TIP3    H228224   2.351   4.137   0.799 -2.2323 -0.0071 -0.2265
 2197TIP3   OH228225   4.250   0.567   8.263 -0.2536 -0.3575 -0.3243
 2197TIP3    H128226   4.269   0.634   8.328 -2.1016 -0.8201  0.7704
 2197TIP3    H228227   4.296   0.489   8.294  0.2205 -0.1551 -0.4997
 2198TIP3   OH228228   5.059   6.708   1.200 -0.5632 -0.7873 -0.2518
 2198TIP3    H128229   5.006   6.667   1.268  1.7323 -0.6259  1.7789
 2198TIP3    H228230   5.024   6.796   1.192 -2.1544 -1.4446 -0.7927
 2199TIP3   OH228231   2.216   4.375   0.988 -0.0784  0.2723  0.3242
 2199TIP3    H128232   2.268   4.314   0.936 -0.3882  0.6868 -0.4940
 2199TIP3    H228233   2.268   4.456   0.989 -0.9457  0.8791 -1.0029
 2200TIP3   OH228234   3.660   3.495   6.908 -0.0582 -0.3030 -0.3000
 2200TIP3    H128235   3.636   3.417   6.858 -1.3839  0.8349 -1.5502
 2200TIP3    H228236   3.690   3.557   6.842 -0.0769  0.6098  0.5334
 2201TIP3   OH228237   4.136   6.615   8.246  0.5430 -0.0352 -0.8735
 2201TIP3    H128238   4.139   6.580   8.157 -0.2526  0.0156 -0.9287
 2201TIP3    H228239   4.216   6.668   8.254  0.7515 -0.2583 -1.4644
 2202TIP3   OH228240   0.208   6.189   7.788  0.0752  0.4825 -0.3233
 2202TIP3    H128241   0.271   6.135   7.740  1.9373  1.0983  1.2759
 2202TIP3    H228242   0.258   6.267   7.813 -1.4027  1.1126  0.8155
 2203TIP3   OH228243   2.620   3.700   0.741 -0.3953  0.6913  0.2947
 2203TIP3    H128244   2.687   3.672   0.679  0.8165 -0.4303  2.0342
 2203TIP3    H228245   2.543   3.715   0.687  0.0540 -2.0409 -1.2789
 2204TIP3   OH228246   0.005   2.415   7.726  0.6263 -0.2948  0.4863
 2204TIP3    H128247   0.066   2.443   7.794  1.0874 -0.0394 -0.0227
 2204TIP3    H228248  -0.051   2.491   7.711  1.4030  0.1365 -0.3704
 2205TIP3   OH228249   0.188   2.382   0.296 -0.2914  0.1507 -0.1157
 2205TIP3    H128250   0.147   2.376   0.382  0.1424  1.4995  0.2145
 2205TIP3    H228251   0.276   2.417   0.314  0.1242 -0.3844 -1.0280
 2206TIP3   OH228252   4.136   5.668   7.606 -0.2919 -0.3669 -0.3149
 2206TIP3    H128253   4.137   5.597   7.669  1.4199 -0.2710 -0.1898
 2206TIP3    H228254   4.145   5.625   7.521  2.2938 -0.3205 -0.1613
 2207TIP3   OH228255   1.068   3.565   1.151 -0.9587 -0.3794  0.1869
 2207TIP3    H128256   1.057   3.574   1.056  0.5630  1.1110  0.1179
 2207TIP3    H228257   1.008   3.494   1.175 -1.1544 -0.9905 -1.9221
 2208TIP3   OH228258   3.267   6.333   1.250  0.1279 -0.3473  0.3161
 2208TIP3    H128259   3.176   6.352   1.271  0.6561  0.3067  2.2418
 2208TIP3    H228260   3.314   6.350   1.332  1.9321 -0.9985 -0.5401
 2209TIP3   OH228261   3.286   3.463   0.044 -0.2400  0.6915  0.2482
 2209TIP3    H128262   3.341   3.430  -0.027  0.4265 -0.3186  1.1913
 2209TIP3    H228263   3.272   3.555   0.024 -0.0660  0.4209 -1.1817
 2210TIP3   OH228264   3.799   3.298   8.068 -0.3301  0.0369 -0.5517
 2210TIP3    H128265   3.741   3.296   8.144  0.4380  0.2221  0.0463
 2210TIP3    H228266   3.850   3.378   8.079  0.2686 -0.2917 -0.9054
 2211TIP3   OH228267   1.550   5.715   1.718 -0.2075 -0.3188 -0.7303
 2211TIP3    H128268   1.542   5.627   1.755  0.3482  0.4379  1.3527
 2211TIP3    H228269   1.558   5.701   1.624 -2.1441 -2.3537 -0.6600
 2212TIP3   OH228270   4.544   1.072   0.394 -0.1686  0.3336 -0.4347
 2212TIP3    H128271   4.521   0.995   0.342  1.6593  0.3549 -1.3263
 2212TIP3    H228272   4.574   1.136   0.330  0.4791  0.9788  0.5002
 2213TIP3   OH228273   3.320   3.892   8.519 -0.1244 -0.2552  0.2330
 2213TIP3    H128274   3.271   3.974   8.520  0.9565  0.4122  0.3354
 2213TIP3    H228275   3.314   3.861   8.429  0.1180  0.3526  0.0036
 2214TIP3   OH228276   5.366   4.862   2.370  0.8334 -0.1018  0.9209
 2214TIP3    H128277   5.304   4.796   2.339  0.3720  0.5834  0.3463
 2214TIP3    H228278   5.314   4.943   2.374  0.8976 -0.1209  3.3705
 2215TIP3   OH228279   3.545   0.540   7.717  0.1740 -0.0213 -0.6562
 2215TIP3    H128280   3.622   0.560   7.771  0.0199  0.4906 -0.6134
 2215TIP3    H228281   3.472   0.577   7.766 -0.2489 -1.4326 -0.1699
 2216TIP3   OH228282   3.904   3.180   7.827 -0.0188 -0.4279 -0.4673
 2216TIP3    H128283   3.965   3.109   7.842 -0.8783 -1.1597 -0.3320
 2216TIP3    H228284   3.870   3.202   7.914 -1.1389 -1.1427 -0.6971
 2217TIP3   OH228285   1.975   3.436   7.222 -0.0059  0.0982 -0.0678
 2217TIP3    H128286   1.984   3.341   7.214  0.2971 -0.1965  2.6518
 2217TIP3    H228287   1.897   3.447   7.278  0.0846  1.4384 -0.1830
 2218TIP3   OH228288   2.121   4.933   6.862 -0.4753 -0.2113  0.6639
 2218TIP3    H128289   2.102   5.013   6.912  1.9006  0.4120  0.6848
 2218TIP3    H228290   2.199   4.955   6.812 -0.4042 -2.2065 -0.1495
 2219TIP3   OH228291   4.552   0.516   7.119  0.1677 -0.0799  0.1084
 2219TIP3    H128292   4.551   0.420   7.119 -0.2220 -0.0906  1.2982
 2219TIP3    H228293   4.622   0.539   7.058 -1.0187 -1.0814 -1.7490
 2220TIP3   OH228294   5.701   5.807   7.678  0.3836  0.0529  0.8381
 2220TIP3    H128295   5.681   5.748   7.605 -0.5573  0.8271  0.4475
 2220TIP3    H228296   5.700   5.751   7.755 -4.0883  0.0024  0.9950
 2221TIP3   OH228297   1.666   1.932   7.596  0.4571 -0.0517  0.0265
 2221TIP3    H128298   1.695   1.989   7.524  2.1405  1.8267  2.0195
 2221TIP3    H228299   1.622   1.992   7.656 -1.2643 -1.6487  0.4339
 2222TIP3   OH228300   3.053   6.689   2.042 -0.3134  0.2079 -0.1392
 2222TIP3    H128301   3.104   6.648   1.972  0.1613 -0.4944  0.5895
 2222TIP3    H228302   2.968   6.646   2.038  0.4624 -1.6053  1.1927
 2223TIP3   OH228303   1.838   0.352   0.185  0.1926  0.1032  0.2303
 2223TIP3    H128304   1.896   0.414   0.140  1.9171 -0.3723  1.6985
 2223TIP3    H228305   1.767   0.406   0.218 -0.2534  0.7122 -1.5825
 2224TIP3   OH228306   4.338   6.799   8.220 -0.4059 -0.2281 -0.4185
 2224TIP3    H128307   4.418   6.838   8.254  0.0845 -1.7193  0.2268
 2224TIP3    H228308   4.338   6.821   8.127  1.8971 -1.9237 -0.9285
 2225TIP3   OH228309   2.811   4.972   7.755  0.3645 -0.0558  0.0164
 2225TIP3    H128310   2.747   4.901   7.763 -0.6539  0.9301  1.0853
 2225TIP3    H228311   2.780   5.025   7.682 -1.5563  1.7938  2.0128
 2226TIP3   OH228312   0.995   4.509   1.868 -0.4394 -0.4726  0.0831
 2226TIP3    H128313   1.005   4.436   1.806 -0.2452 -2.1946  2.0340
 2226TIP3    H228314   0.917   4.487   1.918 -0.0598  0.3780  1.0811
 2227TIP3   OH228315   5.596   1.439   8.542 -0.4717  0.5102 -0.7450
 2227TIP3    H128316   5.582   1.399   8.456  1.7464 -2.1993  0.0106
 2227TIP3    H228317   5.543   1.387   8.602 -0.0633  0.7705 -0.1538
 2228TIP3   OH228318   1.185   5.163   2.036  0.6662  0.1048 -0.4162
 2228TIP3    H128319   1.171   5.211   1.954  0.9470  0.7816 -0.0847
 2228TIP3    H228320   1.280   5.150   2.039  0.5437 -0.8896 -0.7238
 2229TIP3   OH228321   2.317   4.127   1.298 -0.4132  0.0630  0.1279
 2229TIP3    H128322   2.390   4.102   1.241  0.4026 -2.1654  2.0236
 2229TIP3    H228323   2.354   4.126   1.386 -2.5041 -0.1308  1.0566
 2230TIP3   OH228324   6.520   5.908   8.441  0.3775 -0.3149  0.5665
 2230TIP3    H128325   6.467   5.940   8.514  1.5390  1.0667  0.8492
 2230TIP3    H228326   6.590   5.858   8.483  0.6312 -0.1430  0.3488
 2231TIP3   OH228327   4.529   4.280   0.274  0.0804  0.1222 -0.2014
 2231TIP3    H128328   4.572   4.281   0.188  0.0167 -0.4505 -0.2468
 2231TIP3    H228329   4.570   4.207   0.320 -1.2237 -0.8031 -0.4489
 2232TIP3   OH228330   2.923   0.736   6.378 -0.0019  0.1644  0.1820
 2232TIP3    H128331   2.855   0.801   6.359  1.3390  1.2003 -1.3964
 2232TIP3    H228332   2.917   0.673   6.307  0.5423  0.1537  0.1403
 2233TIP3   OH228333   0.134   0.581   0.328 -0.3122  0.3910  0.6152
 2233TIP3    H128334   0.133   0.650   0.262  0.3481  0.7628  0.9806
 2233TIP3    H228335   0.140   0.627   0.411  0.6393 -0.1049  0.8438
 2234TIP3   OH228336   5.812   0.054   1.329  0.5438 -0.7176  0.1667
 2234TIP3    H128337   5.776   0.062   1.417 -3.4744 -2.5437 -1.0887
 2234TIP3    H228338   5.816  -0.040   1.313  2.1467 -0.4570 -1.3297
 2235TIP3   OH228339   5.918   5.495   7.391 -0.6783  0.0907 -0.6580
 2235TIP3    H128340   6.001   5.451   7.370 -1.0589 -1.1120  0.2186
 2235TIP3    H228341   5.876   5.508   7.306  0.2198  0.3288 -1.0770
 2236TIP3   OH228342   0.830   6.462   1.442 -0.1477 -0.3352 -0.5494
 2236TIP3    H128343   0.826   6.442   1.535 -0.3224  0.3375 -0.4126
 2236TIP3    H228344   0.740   6.482   1.417  0.0000  0.1328 -0.7167
 2237TIP3   OH228345   2.430   4.027   0.582 -0.6213  0.4371 -0.0920
 2237TIP3    H128346   2.394   3.990   0.662 -1.1506  1.4660  0.1584
 2237TIP3    H228347   2.361   4.013   0.517 -0.6141  0.5357 -0.1203
 2238TIP3   OH228348   0.134   2.738   7.425 -0.1012  0.5716  0.5917
 2238TIP3    H128349   0.079   2.812   7.450 -1.2056  0.1118 -0.3615
 2238TIP3    H228350   0.222   2.775   7.416 -0.8467  2.0991 -1.1731
 2239TIP3   OH228351   6.547   0.576   7.754 -0.3374  0.0965 -0.1947
 2239TIP3    H128352   6.587   0.556   7.669  0.1677  0.6887 -0.1096
 2239TIP3    H228353   6.510   0.494   7.784 -1.2598  0.0581 -1.3768
 2240TIP3   OH228354   6.242   6.774   7.352  0.2943 -0.5597  0.2956
 2240TIP3    H128355   6.274   6.858   7.320 -1.5151 -0.1798 -0.6836
 2240TIP3    H228356   6.286   6.709   7.299  0.3703 -0.1254 -0.1827
 2241TIP3   OH228357   2.756   6.390   1.019  0.1723  0.5637  0.5071
 2241TIP3    H128358   2.809   6.324   0.976  0.2455  0.7180  0.3576
 2241TIP3    H228359   2.700   6.341   1.079  0.5178  0.4062  0.7022
 2242TIP3   OH228360   4.261   3.597   7.205 -0.8324 -0.3249  0.0385
 2242TIP3    H128361   4.301   3.618   7.289 -0.9881  0.0196  0.0293
 2242TIP3    H228362   4.228   3.681   7.173  1.5921  0.0968 -1.6315
 2243TIP3   OH228363   3.598   4.557   0.803 -0.2032 -0.2646  0.7564
 2243TIP3    H128364   3.603   4.546   0.708 -1.5390  0.8256  0.5259
 2243TIP3    H228365   3.549   4.480   0.834 -0.9444  0.0463  0.3809
 2244TIP3   OH228366   2.342   4.587   6.366 -0.3959  0.2518  0.7039
 2244TIP3    H128367   2.282   4.631   6.427 -0.6695 -0.9611  1.3472
 2244TIP3    H228368   2.414   4.649   6.354 -0.4707  0.6345  2.0697
 2245TIP3   OH228369   3.855   2.379   1.005 -0.1028 -0.2748  0.3042
 2245TIP3    H128370   3.775   2.385   1.057 -0.5410  3.4624 -0.5190
 2245TIP3    H228371   3.830   2.329   0.928 -1.4096  0.0557  0.4960
 2246TIP3   OH228372   0.987   6.665   1.884  0.3975 -0.3659  0.4255
 2246TIP3    H128373   0.900   6.633   1.908 -0.6677  1.1321 -1.1567
 2246TIP3    H228374   0.994   6.750   1.927  0.2268  0.4096 -1.0202
 2247TIP3   OH228375   4.680   1.571   7.043 -0.4234  0.3530  0.2491
 2247TIP3    H128376   4.647   1.616   7.120  0.5329 -1.1580  1.6091
 2247TIP3    H228377   4.768   1.606   7.030  1.0250 -2.1619  2.3676
 2248TIP3   OH228378   6.059   6.896   0.320 -0.3689 -0.4521  0.3649
 2248TIP3    H128379   6.154   6.892   0.335 -0.4671  0.5094  1.3854
 2248TIP3    H228380   6.039   6.814   0.274  1.2761  0.3500 -1.9392
 2249TIP3   OH228381   0.155   4.483   7.679 -0.1381  0.4099  0.2534
 2249TIP3    H128382   0.148   4.388   7.668 -1.1913  0.5473 -0.4930
 2249TIP3    H228383   0.222   4.510   7.617 -0.2784  0.2223  0.0191
 2250TIP3   OH228384   2.663   6.252   8.403  0.0383 -0.0733  0.0339
 2250TIP3    H128385   2.738   6.302   8.436  0.9737 -0.8824 -0.7848
 2250TIP3    H228386   2.589   6.313   8.408  0.9108  1.0152  0.0888
 2251TIP3   OH228387   2.116   5.997   8.154  0.5679  0.1919  0.3620
 2251TIP3    H128388   2.069   6.056   8.213  0.0547  1.7805 -1.5559
 2251TIP3    H228389   2.202   6.037   8.143  0.9549 -0.5419  0.6627
 2252TIP3   OH228390   1.647   2.524   0.357 -0.1260  0.1171  0.1509
 2252TIP3    H128391   1.585   2.459   0.325 -0.1447  0.9898 -1.6935
 2252TIP3    H228392   1.602   2.608   0.346  0.6482  0.6097  0.6050
 2253TIP3   OH228393   2.714   4.317   0.301 -0.1661  0.0762 -0.4906
 2253TIP3    H128394   2.640   4.377   0.310 -1.1318 -1.0239 -0.9018
 2253TIP3    H228395   2.712   4.264   0.381 -1.2850 -1.5252 -1.5361
 2254TIP3   OH228396   1.276   3.929   7.417  0.1979 -0.2168  0.3337
 2254TIP3    H128397   1.212   3.928   7.347  0.7499  0.8015 -0.2029
 2254TIP3    H228398   1.344   3.867   7.389  1.5148  1.7623 -1.1395
 2255TIP3   OH228399   6.249   4.238   1.277  0.0220  0.4812  0.7039
 2255TIP3    H128400   6.249   4.306   1.344 -0.9405 -0.9102  2.1624
 2255TIP3    H228401   6.256   4.287   1.194  0.1523  2.2877  1.7261
 2256TIP3   OH228402   4.855   1.148   7.194  0.1961 -0.4240 -0.5858
 2256TIP3    H128403   4.764   1.125   7.211  0.2821  0.2078  0.8675
 2256TIP3    H228404   4.903   1.120   7.272  0.8159  1.5904 -0.1819
 2257TIP3   OH228405   6.200   0.319   6.339 -0.1807 -0.1987  0.0730
 2257TIP3    H128406   6.183   0.228   6.314 -0.2179  0.5427 -3.0603
 2257TIP3    H228407   6.114   0.353   6.364 -0.2375 -0.9014  0.8765
 2258TIP3   OH228408   4.288   4.843   8.385  0.3510 -0.0512 -0.9773
 2258TIP3    H128409   4.355   4.900   8.424  0.1201  0.6486 -1.5892
 2258TIP3    H228410   4.217   4.903   8.360  0.0258 -0.6340 -1.4622
 2259TIP3   OH228411   2.889   2.504   1.602 -0.7090 -0.1442  0.0544
 2259TIP3    H128412   2.795   2.506   1.619 -1.0469 -0.3234 -1.5868
 2259TIP3    H228413   2.917   2.596   1.607 -0.9698 -0.0903  0.5352
 2260TIP3   OH228414   0.430   1.988   1.937 -0.4066  0.0069  0.1650
 2260TIP3    H128415   0.338   1.973   1.959 -0.5885  0.6241 -0.1649
 2260TIP3    H228416   0.473   2.000   2.022 -0.2795 -2.0711  0.4539
 2261TIP3   OH228417   5.344   3.151   8.591  0.3774 -0.8353 -0.4339
 2261TIP3    H128418   5.267   3.194   8.553  0.1472 -0.7296  0.1481
 2261TIP3    H228419   5.411   3.157   8.522 -0.2463 -1.2675 -1.0869
 2262TIP3   OH228420   2.622   1.351   0.769  0.5867  0.0848  0.7778
 2262TIP3    H128421   2.643   1.402   0.690  0.2307  0.8423  1.1627
 2262TIP3    H228422   2.590   1.416   0.831 -1.6989 -0.8329  0.6525
 2263TIP3   OH228423   6.264   5.787   1.495 -0.4245  0.0639  0.3261
 2263TIP3    H128424   6.238   5.877   1.475 -0.5552 -0.2531 -1.0293
 2263TIP3    H228425   6.355   5.781   1.465 -0.5107 -0.3281  0.1359
 2264TIP3   OH228426   1.040   6.787   7.789  0.6242  0.0996 -0.1026
 2264TIP3    H128427   0.992   6.718   7.834  0.1297  0.8485  0.5691
 2264TIP3    H228428   0.974   6.834   7.738  0.9171  0.1900 -0.4036
 2265TIP3   OH228429   4.539   2.923   1.142 -0.2135 -0.1832 -0.0358
 2265TIP3    H128430   4.518   2.843   1.190  1.1259  0.5041  1.8267
 2265TIP3    H228431   4.602   2.896   1.076 -3.2235 -1.4307 -2.6573
 2266TIP3   OH228432   5.384   4.168   7.379 -0.0256  0.0864  0.1730
 2266TIP3    H128433   5.300   4.201   7.411  0.7973  1.7648  0.7484
 2266TIP3    H228434   5.392   4.205   7.291 -0.2689 -0.7989 -0.2268
 2267TIP3   OH228435   1.742   3.439   2.077  0.0266 -0.3721 -0.1396
 2267TIP3    H128436   1.692   3.514   2.046 -0.3209 -1.0689 -1.3251
 2267TIP3    H228437   1.745   3.450   2.172 -2.6705 -0.4450  0.0295
 2268TIP3   OH228438   0.837   5.131   0.774 -0.4503 -0.0435 -0.1938
 2268TIP3    H128439   0.895   5.184   0.828  1.6276  0.1242 -2.3896
 2268TIP3    H228440   0.827   5.182   0.693 -1.6326 -1.2249 -0.8248
 2269TIP3   OH228441   5.557   2.714   1.387 -0.0526 -0.4399  0.5648
 2269TIP3    H128442   5.579   2.802   1.420  1.1669  0.2971 -1.9292
 2269TIP3    H228443   5.642   2.673   1.373 -0.3708 -0.1569 -2.8139
 2270TIP3   OH228444   2.609   3.411   7.774  0.2965 -0.1965 -0.3367
 2270TIP3    H128445   2.602   3.378   7.864  1.6244 -0.8442 -0.4462
 2270TIP3    H228446   2.700   3.440   7.766 -0.0787  0.8156 -1.1683
 2271TIP3   OH228447   6.815   1.442   0.340  0.3582  0.4451 -0.5448
 2271TIP3    H128448   6.765   1.361   0.330  2.1384 -0.5492 -2.1520
 2271TIP3    H228449   6.827   1.474   0.251 -0.7529  2.8220  0.0995
 2272TIP3   OH228450   4.833   6.145   0.223  0.5130  0.1442  0.0605
 2272TIP3    H128451   4.781   6.209   0.174 -0.1630 -0.3489  0.1143
 2272TIP3    H228452   4.922   6.157   0.190  0.6147  1.8714  0.8833
 2273TIP3   OH228453   5.774   1.232   0.181  0.0466  0.1153 -0.5386
 2273TIP3    H128454   5.866   1.258   0.189 -0.0136  0.0559  0.6310
 2273TIP3    H228455   5.730   1.281   0.251 -0.5691 -0.8668 -0.2231
 2274TIP3   OH228456   2.842   2.461   0.493 -0.4763  0.2367  0.3131
 2274TIP3    H128457   2.891   2.502   0.422  0.8113  3.7132  2.9135
 2274TIP3    H228458   2.754   2.497   0.485 -0.4334  0.3240  0.2254
 2275TIP3   OH228459   5.914   0.019   8.566  0.5520 -0.0883  0.0378
 2275TIP3    H128460   5.882   0.019   8.476 -1.1740 -0.1634  0.5991
 2275TIP3    H228461   5.933  -0.073   8.584  2.1965  0.0912 -0.6432
 2276TIP3   OH228462   4.262   2.384   1.100 -0.9196 -0.4520  0.2421
 2276TIP3    H128463   4.238   2.322   1.031  1.1899 -0.0610 -0.9497
 2276TIP3    H228464   4.346   2.351   1.132 -0.2382  1.2215  0.2689
 2277TIP3   OH228465   0.458   5.941   1.983  0.5040  0.0534 -0.2162
 2277TIP3    H128466   0.496   5.992   2.055  0.8586 -0.2767 -0.1627
 2277TIP3    H228467   0.527   5.878   1.960 -0.0924 -0.7028  0.0254
 2278TIP3   OH228468   2.044   1.656   1.063 -0.2711 -0.8771 -0.1749
 2278TIP3    H128469   2.049   1.736   1.010  1.7317  0.5189  1.9379
 2278TIP3    H228470   2.133   1.621   1.064 -0.8531 -2.4451  0.0112
 2279TIP3   OH228471   1.585   5.926   6.294  0.7426 -0.9332  0.4636
 2279TIP3    H128472   1.586   5.965   6.381  0.1644  0.2141 -0.0156
 2279TIP3    H228473   1.677   5.922   6.268  0.7866  1.3275  0.0403
 2280TIP3   OH228474   5.647   4.111   2.789  0.4377 -0.0913 -0.8716
 2280TIP3    H128475   5.608   4.054   2.723  0.4965 -0.0491 -0.9436
 2280TIP3    H228476   5.585   4.183   2.799  0.2675 -0.2683 -0.6359
 2281TIP3   OH228477   2.087   3.991   1.395  0.0068  0.5125  0.0194
 2281TIP3    H128478   2.163   3.981   1.337 -0.8597 -0.3316 -1.0204
 2281TIP3    H228479   2.017   4.020   1.338 -0.2410  2.2794  1.1524
 2282TIP3   OH228480   0.553   0.947   7.484  0.3122 -0.2877 -0.4385
 2282TIP3    H128481   0.602   0.866   7.472  1.1427  0.0625  0.4345
 2282TIP3    H228482   0.513   0.965   7.399 -0.1349 -1.7592 -0.5661
 2283TIP3   OH228483   2.572   2.068   6.591 -0.5476  0.3268  0.1020
 2283TIP3    H128484   2.491   2.111   6.565 -1.2495 -1.6084 -1.0542
 2283TIP3    H228485   2.617   2.048   6.509 -0.3849 -1.3631  0.5630
 2284TIP3   OH228486   4.044   1.679   0.797  0.1972  0.2742 -0.5323
 2284TIP3    H128487   4.067   1.656   0.887  0.0731 -0.4883 -0.6868
 2284TIP3    H228488   3.953   1.649   0.787  0.2530  0.2310 -0.9486
 2285TIP3   OH228489   0.141   2.121   8.566 -0.1687 -0.0872 -0.6133
 2285TIP3    H128490   0.098   2.039   8.542  1.8020 -0.7688 -2.0553
 2285TIP3    H228491   0.211   2.095   8.626 -0.2148  0.6896 -0.2034
 2286TIP3   OH228492   0.754   2.239   8.115 -0.5018  0.4765 -0.0276
 2286TIP3    H128493   0.733   2.179   8.186  0.0520  1.2563  0.8118
 2286TIP3    H228494   0.671   2.283   8.095 -1.5498 -2.1786 -2.3007
 2287TIP3   OH228495   2.297   5.779   7.702  0.5139  0.0148  0.4742
 2287TIP3    H128496   2.237   5.833   7.753  0.2146  0.2520 -0.1240
 2287TIP3    H228497   2.323   5.835   7.629  0.2926 -0.6077 -0.0915
 2288TIP3   OH228498   5.005   0.134   7.696  0.1274  0.0477 -0.4477
 2288TIP3    H128499   4.996   0.146   7.601  0.6056 -1.1570 -0.6744
 2288TIP3    H228500   5.092   0.094   7.706 -0.8191 -1.9767  0.2553
 2289TIP3   OH228501   4.259   3.017   2.447  0.1629  1.0372  0.1831
 2289TIP3    H128502   4.204   2.965   2.505 -0.7204  1.5987 -0.1333
 2289TIP3    H228503   4.344   2.972   2.448 -0.2820  0.1771  0.7017
 2290TIP3   OH228504   1.053   2.638   1.736 -0.0213  0.4640 -0.3851
 2290TIP3    H128505   0.972   2.656   1.690  0.6012  1.6043 -1.0901
 2290TIP3    H228506   1.059   2.542   1.740 -2.0191  0.3475  0.8572
 2291TIP3   OH228507   0.168   6.618   8.460 -0.4357  0.3693 -0.4471
 2291TIP3    H128508   0.246   6.631   8.514 -0.5903  0.2096 -0.1769
 2291TIP3    H228509   0.111   6.693   8.483 -0.9684 -0.2909  0.4639
 2292TIP3   OH228510   5.567   0.048   8.386  0.1008  0.2322 -0.6004
 2292TIP3    H128511   5.607  -0.033   8.354  0.0345  0.2138 -0.6362
 2292TIP3    H228512   5.513   0.022   8.460  0.6746  0.3497 -0.1293
 2293TIP3   OH228513   1.067   0.923   5.928  0.1495 -0.3348  0.3129
 2293TIP3    H128514   1.066   0.827   5.935 -1.0124 -0.2605  1.4939
 2293TIP3    H228515   1.104   0.952   6.011  0.8838  0.2396 -0.2098
 2294TIP3   OH228516   6.057   2.744   8.473  0.5708  0.2888 -0.6002
 2294TIP3    H128517   6.082   2.806   8.405  2.1556  0.0627 -0.2612
 2294TIP3    H228518   6.127   2.749   8.537  1.0622 -2.2186 -0.8231
 2295TIP3   OH228519   4.157   0.024   8.622  0.6939  0.3582  0.1031
 2295TIP3    H128520   4.244  -0.009   8.602  1.4624  2.1486  0.2306
 2295TIP3    H228521   4.134   0.078   8.547 -0.7239 -0.7998 -0.3378
 2296TIP3   OH228522   6.464   6.684   6.965 -0.5582  0.5172 -0.2240
 2296TIP3    H128523   6.422   6.687   6.879 -1.1330 -0.8351 -0.0140
 2296TIP3    H228524   6.557   6.688   6.946 -0.6897  0.5327 -0.8913
 2297TIP3   OH228525   4.273   2.861   7.302 -0.2273  0.2126 -0.6265
 2297TIP3    H128526   4.329   2.894   7.232 -0.6851 -2.1461 -2.2146
 2297TIP3    H228527   4.189   2.844   7.260 -0.6157 -0.9338  0.5510
 2298TIP3   OH228528   3.913   0.914   0.496  0.3043 -0.1681 -0.1604
 2298TIP3    H128529   3.910   0.830   0.541  2.6921 -1.0790 -1.5007
 2298TIP3    H228530   3.848   0.968   0.541  1.2006 -1.5799  3.1121
 2299TIP3   OH228531   6.879   5.410   7.470 -0.1270  0.7383  0.0052
 2299TIP3    H128532   6.952   5.348   7.469 -0.3005  0.5205  0.3559
 2299TIP3    H228533   6.804   5.358   7.497 -0.4024  0.9740 -0.2974
 2300TIP3   OH228534   3.403   5.751   2.083  0.3818  0.2191 -0.0167
 2300TIP3    H128535   3.447   5.813   2.024 -1.6475  0.9107 -0.8895
 2300TIP3    H228536   3.474   5.711   2.132  1.8038  3.9188  1.3355
 2301TIP3   OH228537   0.340   3.551   8.163 -0.2291  0.1651  0.6687
 2301TIP3    H128538   0.388   3.530   8.243  1.8751  0.1607 -0.5204
 2301TIP3    H228539   0.388   3.625   8.125 -0.9002 -0.1059 -0.7905
 2302TIP3   OH228540   4.156   4.099   2.127 -0.4222  0.1471 -0.0603
 2302TIP3    H128541   4.136   4.162   2.196 -0.3359 -2.3301  2.4318
 2302TIP3    H228542   4.250   4.107   2.112 -0.2839  0.1425  0.7710
 2303TIP3   OH228543   5.549   5.981   7.843  0.7375 -0.0235  0.3451
 2303TIP3    H128544   5.589   6.003   7.927 -0.0109 -1.1413  1.0320
 2303TIP3    H228545   5.622   5.951   7.789  1.4579  2.1462  0.0447
 2304TIP3   OH228546   2.497   4.360   6.542 -0.0367 -0.0387  0.0522
 2304TIP3    H128547   2.511   4.273   6.504 -0.4653  0.6652 -1.8707
 2304TIP3    H228548   2.406   4.359   6.571 -0.0862 -0.1851 -0.1045
 2305TIP3   OH228549   2.987   1.293   0.964 -0.3033  0.1134  0.1352
 2305TIP3    H128550   3.023   1.308   1.051 -1.3546  2.2952  0.2778
 2305TIP3    H228551   2.933   1.214   0.973  0.0044  0.0241  1.3294
 2306TIP3   OH228552   5.600   1.738   8.054 -0.3917  0.6138  0.6645
 2306TIP3    H128553   5.658   1.813   8.045  1.8209 -0.9761  0.8224
 2306TIP3    H228554   5.512   1.776   8.056  0.1996  2.9282 -3.8157
 2307TIP3   OH228555   4.874   3.159   6.697  0.3790 -0.2824 -0.0803
 2307TIP3    H128556   4.794   3.110   6.714 -0.7251  1.3443 -0.3433
 2307TIP3    H228557   4.932   3.097   6.653 -1.1262 -1.2145 -0.8075
 2308TIP3   OH228558   1.165   3.783   0.779 -0.0976  0.4514 -0.0748
 2308TIP3    H128559   1.198   3.839   0.849  0.2480 -0.9443  0.9276
 2308TIP3    H228560   1.083   3.825   0.752  0.6989  2.0444 -0.1680
 2309TIP3   OH228561   1.634   6.207   7.786  0.1171 -0.4556 -0.0227
 2309TIP3    H128562   1.649   6.123   7.743  1.1172 -0.5397  0.4667
 2309TIP3    H228563   1.719   6.230   7.825 -0.2318  0.6108  0.1441
 2310TIP3   OH228564   1.674   5.362   0.427 -0.2760 -0.0747 -0.2395
 2310TIP3    H128565   1.743   5.361   0.493  0.1890 -1.7530 -0.7145
 2310TIP3    H228566   1.677   5.451   0.391  1.1507  0.1004  0.2403
 2311TIP3   OH228567   3.857   2.988   0.295 -1.0827 -0.1844  0.3178
 2311TIP3    H128568   3.788   3.037   0.251  0.1137  1.8312  0.5549
 2311TIP3    H228569   3.915   2.961   0.224 -1.7022 -1.2397  0.1952
 2312TIP3   OH228570   4.855   6.388   6.756  0.2786  0.0190  0.3795
 2312TIP3    H128571   4.800   6.329   6.704 -0.0468 -0.4711  1.2567
 2312TIP3    H228572   4.927   6.411   6.697 -0.9112  0.7954 -0.8415
 2313TIP3   OH228573   6.097   1.817   0.542  0.1105 -0.5910  0.0054
 2313TIP3    H128574   6.151   1.896   0.548 -1.7222  0.6492  1.2210
 2313TIP3    H228575   6.042   1.831   0.466 -0.1112 -0.7621  0.1322
 2314TIP3   OH228576   3.649   0.623   0.238 -0.1963  0.0756 -0.1242
 2314TIP3    H128577   3.560   0.591   0.255 -0.8790  1.2120 -1.3607
 2314TIP3    H228578   3.676   0.578   0.158  1.1119 -1.6395  1.1932
 2315TIP3   OH228579   1.760   0.068   7.167 -1.0011  1.0382 -0.8817
 2315TIP3    H128580   1.719  -0.016   7.184 -0.8196  0.9326 -0.9542
 2315TIP3    H228581   1.691   0.133   7.180 -0.5875  1.0767  1.4765
 2316TIP3   OH228582   0.593   2.464   7.509 -0.7543  0.1575  0.1394
 2316TIP3    H128583   0.553   2.407   7.443 -2.9633  0.2830  1.2749
 2316TIP3    H228584   0.549   2.548   7.498  1.0660  1.1142 -0.2080
 2317TIP3   OH228585   6.207   4.006   1.407 -0.8669  0.2764  0.8020
 2317TIP3    H128586   6.242   4.051   1.483 -1.2472  0.5137  0.8378
 2317TIP3    H228587   6.223   4.066   1.334 -0.0202 -0.1786  0.6018
 2318TIP3   OH228588   3.937   0.686   0.269  0.2972  0.2700 -0.1800
 2318TIP3    H128589   3.964   0.676   0.360  1.5822  2.2610 -0.2909
 2318TIP3    H228590   3.841   0.676   0.271  0.4046 -0.7133  1.2020
 2319TIP3   OH228591   1.572   2.023   8.428 -0.0142  0.3241  0.5945
 2319TIP3    H128592   1.628   2.043   8.353 -0.3895  1.3636  0.5773
 2319TIP3    H228593   1.485   2.052   8.402 -0.3794 -0.3935  0.9866
 2320TIP3   OH228594   3.660   4.818   7.699  0.1244 -1.0629  0.1432
 2320TIP3    H128595   3.586   4.834   7.758 -0.1063 -1.0745 -0.1429
 2320TIP3    H228596   3.686   4.905   7.669 -0.3750 -1.1245 -0.4884
 2321TIP3   OH228597   6.306   1.537   7.207 -0.3972  0.5770  0.1351
 2321TIP3    H128598   6.367   1.465   7.225  0.3039  0.9651 -0.5697
 2321TIP3    H228599   6.273   1.564   7.292 -0.6748 -0.5784  0.4091
 2322TIP3   OH228600   3.808   3.925   1.473 -0.5808  0.0564  0.1661
 2322TIP3    H128601   3.760   4.005   1.452 -0.3591  0.2094  0.2318
 2322TIP3    H228602   3.762   3.888   1.548 -0.7347  0.0781  0.0828
 2323TIP3   OH228603   6.630   2.181   0.648  0.0428 -0.2597 -0.2515
 2323TIP3    H128604   6.576   2.189   0.727  0.8978 -3.6455  0.8326
 2323TIP3    H228605   6.714   2.147   0.680  1.5571  1.2365 -2.3314
 2324TIP3   OH228606   5.868   4.373   8.423 -0.2914 -0.1404 -0.2873
 2324TIP3    H128607   5.871   4.278   8.414 -0.9738 -0.0919 -1.1254
 2324TIP3    H228608   5.949   4.403   8.382  0.8325 -0.4412  1.5895
 2325TIP3   OH228609   6.654   1.904   0.030 -0.2732  0.3627  0.0816
 2325TIP3    H128610   6.668   1.987   0.076 -1.2641  0.7973 -0.3860
 2325TIP3    H228611   6.739   1.885  -0.009 -0.2717  1.6606 -0.6177
 2326TIP3   OH228612   3.401   6.465   0.700  0.2849  0.4299  0.5189
 2326TIP3    H128613   3.471   6.522   0.667  0.5305  0.3342  0.8700
 2326TIP3    H228614   3.387   6.494   0.790 -1.6416  1.9121 -0.1748
 2327TIP3   OH228615   4.502   3.369   7.352  0.4960 -0.0262 -0.0914
 2327TIP3    H128616   4.529   3.427   7.281  1.8523  0.7610  1.0199
 2327TIP3    H228617   4.539   3.284   7.329  0.1177 -0.0148 -0.7842
 2328TIP3   OH228618   0.498   0.936   7.118  0.5456  0.1302  0.2360
 2328TIP3    H128619   0.513   1.029   7.136 -0.6157  0.3163  0.3701
 2328TIP3    H228620   0.522   0.926   7.025  3.0384 -0.0202  0.8310
 2329TIP3   OH228621   5.211   6.231   7.517 -0.2992  0.1148  0.5342
 2329TIP3    H128622   5.194   6.312   7.566 -0.6351  0.4772 -0.1660
 2329TIP3    H228623   5.285   6.191   7.562  0.6843  1.4267  0.1601
 2330TIP3   OH228624   1.694   3.890   1.682  0.2806  0.2871  0.1670
 2330TIP3    H128625   1.733   3.916   1.766 -1.6833 -1.6495  1.7738
 2330TIP3    H228626   1.605   3.924   1.685 -0.7560 -2.2617  0.2091
 2331TIP3   OH228627   1.911   6.331   6.437  0.1452  0.1515 -0.0393
 2331TIP3    H128628   1.992   6.361   6.479  0.5990  0.7139 -1.2514
 2331TIP3    H228629   1.940   6.265   6.373 -0.2232  0.9784 -1.0962
 2332TIP3   OH228630   1.484   3.537   8.109  0.2396  0.0113 -0.5464
 2332TIP3    H128631   1.396   3.537   8.073 -0.1941  3.3341  0.2125
 2332TIP3    H228632   1.541   3.555   8.034  0.1172 -0.4485 -0.7526
 2333TIP3   OH228633   3.358   1.311   0.245  0.0279 -0.2762 -0.2706
 2333TIP3    H128634   3.420   1.353   0.186 -0.4164  1.0069  0.1469
 2333TIP3    H228635   3.373   1.217   0.232  1.4414 -0.0078 -0.8120
 2334TIP3   OH228636   5.222   5.051   1.172 -0.1211  0.3162 -0.0466
 2334TIP3    H128637   5.181   4.997   1.104 -0.2579 -0.0756  0.3437
 2334TIP3    H228638   5.272   5.117   1.124  0.4299 -0.4445 -0.5302
 2335TIP3   OH228639   1.055   4.720   1.689  0.3652 -0.5753 -0.0061
 2335TIP3    H128640   1.031   4.644   1.742 -0.8090  0.1083  0.4833
 2335TIP3    H228641   0.999   4.791   1.722  0.5131  0.1801 -1.3241
 2336TIP3   OH228642   4.025   3.442   6.352 -0.0656 -0.5560 -0.6697
 2336TIP3    H128643   3.994   3.507   6.290 -0.5389 -0.3354 -0.2105
 2336TIP3    H228644   4.074   3.379   6.299  1.6288  0.9175 -0.9269
 2337TIP3   OH228645   6.409   1.687   0.993 -0.2399 -0.4701  0.6117
 2337TIP3    H128646   6.417   1.782   1.005 -1.6589 -0.2021 -0.2785
 2337TIP3    H228647   6.485   1.650   1.038  1.3986  1.1858 -0.6587
 2338TIP3   OH228648   4.245   5.846   1.138  0.1493  0.6060 -0.1178
 2338TIP3    H128649   4.251   5.891   1.222  0.8554  2.1606 -0.9680
 2338TIP3    H228650   4.168   5.789   1.147  0.9060 -0.1935  1.9848
 2339TIP3   OH228651   3.187   2.983   8.422  0.1960 -0.3214 -0.2850
 2339TIP3    H128652   3.152   2.907   8.468  0.1082 -0.2677 -0.2634
 2339TIP3    H228653   3.199   3.049   8.490  0.6501 -0.4483 -0.2339
 2340TIP3   OH228654   5.713   6.026   1.642  0.3902  0.0303  0.1855
 2340TIP3    H128655   5.795   6.044   1.596  0.0916 -1.8194 -1.1988
 2340TIP3    H228656   5.740   5.987   1.725  0.9360 -0.3834 -0.1741
 2341TIP3   OH228657   3.195   2.043   6.838 -0.0749  0.1607 -0.0649
 2341TIP3    H128658   3.184   2.094   6.757  1.9263 -0.9371 -1.0851
 2341TIP3    H228659   3.211   2.110   6.905  0.4644  1.0090 -0.9960
 2342TIP3   OH228660   4.920   5.356   1.417 -0.2930 -0.2143  0.1506
 2342TIP3    H128661   4.955   5.279   1.373 -0.1389 -0.1991  0.2464
 2342TIP3    H228662   4.918   5.424   1.349 -0.0566 -0.1912  0.1665
 2343TIP3   OH228663   0.960   3.052   1.593 -0.1674 -0.2128 -0.1624
 2343TIP3    H128664   1.032   3.032   1.652  0.8171  0.4298 -1.1013
 2343TIP3    H228665   0.885   3.069   1.650  0.4540 -0.7444  0.8318
 2344TIP3   OH228666   4.257   2.731   1.960  0.3756 -0.0859 -0.2716
 2344TIP3    H128667   4.334   2.678   1.981 -0.4393 -1.4792 -0.6553
 2344TIP3    H228668   4.209   2.738   2.043  0.6821  0.4000 -0.1327
 2345TIP3   OH228669   2.761   6.186   1.586  0.3913 -0.1473 -0.9803
 2345TIP3    H128670   2.831   6.126   1.564  2.1911  1.9270 -1.2419
 2345TIP3    H228671   2.746   6.172   1.680  0.5105 -1.2216 -1.1114
 2346TIP3   OH228672   6.863   6.338   0.698  0.4542 -0.3284  0.3278
 2346TIP3    H128673   6.939   6.283   0.715  1.1806  1.4502  3.6147
 2346TIP3    H228674   6.788   6.282   0.719  1.1160 -0.5619  2.2780
 2347TIP3   OH228675   4.067   6.367   7.819 -0.2071 -0.8398  0.2267
 2347TIP3    H128676   4.041   6.311   7.892 -1.5004  0.6295  0.9746
 2347TIP3    H228677   4.008   6.342   7.748 -1.2301 -0.0692  0.7594
 2348TIP3   OH228678   2.199   4.611   7.739  0.4344  0.5486  0.2829
 2348TIP3    H128679   2.223   4.702   7.755  3.1725  0.4460 -2.4620
 2348TIP3    H228680   2.271   4.559   7.775 -0.0733 -0.4261 -0.0505
 2349TIP3   OH228681   5.993   6.320   1.668  0.6740  0.4923  0.0687
 2349TIP3    H128682   6.084   6.324   1.700  0.5315  0.9650  0.4270
 2349TIP3    H228683   5.940   6.329   1.746  0.3132  0.1098 -0.1318
 2350TIP3   OH228684   1.576   0.032   1.380  0.2859  0.0438 -0.2367
 2350TIP3    H128685   1.509   0.067   1.438 -1.5014 -1.9470 -0.9364
 2350TIP3    H228686   1.635  -0.016   1.438  0.0552  0.2853  0.2024
 2351TIP3   OH228687   3.228   1.565   7.360 -0.6813  0.2202  0.1896
 2351TIP3    H128688   3.313   1.604   7.382 -1.4844  1.4605  1.2162
 2351TIP3    H228689   3.205   1.603   7.276 -0.7406  0.8006  0.4604
 2352TIP3   OH228690   0.855   6.119   8.234 -0.6176  0.0937 -0.2186
 2352TIP3    H128691   0.850   6.192   8.296  0.9052 -1.0191  1.3087
 2352TIP3    H228692   0.829   6.043   8.284  0.7652 -0.8666 -0.8935
 2353TIP3   OH228693   6.650   0.498   1.055 -0.5109 -0.6506 -0.1444
 2353TIP3    H128694   6.719   0.565   1.051 -1.0245  0.0428  1.5526
 2353TIP3    H228695   6.579   0.534   1.001 -0.0175 -0.8113 -0.9181
 2354TIP3   OH228696   6.385   5.056   1.947  0.5054 -0.3026 -0.2260
 2354TIP3    H128697   6.425   5.000   2.013 -0.0326  0.1522  0.4959
 2354TIP3    H228698   6.361   5.136   1.994  1.0868  0.4668 -1.1954
 2355TIP3   OH228699   1.037   4.873   0.650  0.4066  0.2071  0.4992
 2355TIP3    H128700   1.002   4.943   0.706  0.6519  1.4150 -0.7969
 2355TIP3    H228701   0.967   4.807   0.648 -0.5682  1.2194  0.3527
 2356TIP3   OH228702   5.927   6.460   0.983 -0.5756 -0.1479  0.0875
 2356TIP3    H128703   6.008   6.430   0.942 -2.1066 -2.7096 -1.3396
 2356TIP3    H228704   5.886   6.516   0.917 -0.1302  0.9856  0.7327
 2357TIP3   OH228705   2.674   0.644   2.534 -0.0036  0.3969 -0.0239
 2357TIP3    H128706   2.743   0.582   2.556  0.8090  1.4389  0.4386
 2357TIP3    H228707   2.706   0.689   2.455 -0.6618  0.1342 -0.4572
 2358TIP3   OH228708   1.457   0.194   2.071 -0.6430 -0.1967 -1.0108
 2358TIP3    H128709   1.380   0.196   2.015 -0.6007 -0.6720 -1.0906
 2358TIP3    H228710   1.487   0.285   2.073 -2.5874  0.4903  0.9844
 2359TIP3   OH228711   0.207   4.033   1.780 -0.0936 -0.1681 -0.7236
 2359TIP3    H128712   0.276   4.066   1.722  1.9928  0.0491  1.6717
 2359TIP3    H228713   0.185   4.109   1.835  0.1705 -1.0729  0.6853
 2360TIP3   OH228714   1.954   4.507   7.779 -0.1552  0.2501 -0.1274
 2360TIP3    H128715   2.036   4.544   7.747 -0.3176  1.8313  1.1239
 2360TIP3    H228716   1.975   4.474   7.866 -1.0481  1.8105  0.7412
 2361TIP3   OH228717   2.395   5.877   1.997  0.3213  0.0748 -0.3205
 2361TIP3    H128718   2.480   5.909   2.029  0.3517  1.1848 -1.4280
 2361TIP3    H228719   2.334   5.947   2.019  0.3971  1.0250 -2.8777
 2362TIP3   OH228720   5.291   1.834   7.452  0.0890  0.4561  0.2988
 2362TIP3    H128721   5.375   1.846   7.496  0.6886 -1.1665 -0.3136
 2362TIP3    H228722   5.276   1.739   7.455  0.1122  0.2602 -2.8402
 2363TIP3   OH228723   5.659   4.302   8.597  0.3384  0.1257  0.7069
 2363TIP3    H128724   5.604   4.247   8.541 -1.5464  0.1257  2.4586
 2363TIP3    H228725   5.729   4.332   8.539 -1.7194  0.4927 -1.7828
 2364TIP3   OH228726   4.564   6.717   0.991 -0.1043  0.0631  0.6133
 2364TIP3    H128727   4.629   6.787   1.002  1.1972 -1.0161  0.0644
 2364TIP3    H228728   4.480   6.760   1.007  0.5156  2.1300 -1.1858
 2365TIP3   OH228729   0.450   5.714   7.773  0.2148 -0.0061  0.3044
 2365TIP3    H128730   0.527   5.673   7.813 -0.5024 -1.8336 -0.0769
 2365TIP3    H228731   0.427   5.786   7.832  1.5050 -0.1755  1.0419
 2366TIP3   OH228732   3.493   3.940   6.790 -0.0095  0.5039  0.3161
 2366TIP3    H128733   3.585   3.916   6.781  0.3600  1.3667  1.5082
 2366TIP3    H228734   3.472   3.985   6.709  0.2825 -0.6757 -0.4407
 2367TIP3   OH228735   2.330   6.358   8.038 -0.7644  0.1993  0.0714
 2367TIP3    H128736   2.343   6.295   8.108 -0.9391  1.5134  1.3346
 2367TIP3    H228737   2.418   6.391   8.018 -0.4756 -1.4158 -1.5974
 2368TIP3   OH228738   2.385   6.631   1.454  0.5856  0.0052  0.3452
 2368TIP3    H128739   2.380   6.550   1.404  1.4450  0.0783  0.1147
 2368TIP3    H228740   2.475   6.634   1.486  0.6444  0.9853  0.1352
 2369TIP3   OH228741   1.260   0.243   1.902  0.1457 -0.2211  0.2887
 2369TIP3    H128742   1.298   0.283   1.823  2.2157 -0.0125  1.3338
 2369TIP3    H228743   1.226   0.317   1.952 -0.7242 -0.3083 -0.1530
 2370TIP3   OH228744   5.515   1.035   1.595  0.3029  0.5724 -0.4593
 2370TIP3    H128745   5.506   1.118   1.641 -2.6549 -0.7061  1.5584
 2370TIP3    H228746   5.496   1.055   1.504 -1.5089  1.9967  0.1704
 2371TIP3   OH228747   5.182   3.890   1.296 -0.4892  0.6304 -0.0295
 2371TIP3    H128748   5.212   3.980   1.309 -0.8271  0.6682  0.4768
 2371TIP3    H228749   5.092   3.899   1.266 -0.7804  0.4370  0.7765
 2372TIP3   OH228750   6.899   5.379   6.789  0.1118 -0.1544  0.5935
 2372TIP3    H128751   6.975   5.414   6.743  0.8030 -0.6827  1.2982
 2372TIP3    H228752   6.924   5.289   6.812  0.0732  0.2897  2.5490
 2373TIP3   OH228753   2.573   4.815   7.787  0.2692  0.3960  0.0548
 2373TIP3    H128754   2.571   4.723   7.812  1.0170 -0.0131 -1.3173
 2373TIP3    H228755   2.515   4.858   7.850 -0.5984 -1.1028  0.3208
 2374TIP3   OH228756   2.380   5.327   8.232 -0.0021 -0.5446  0.0149
 2374TIP3    H128757   2.419   5.261   8.290  1.3000 -0.7952 -1.0978
 2374TIP3    H228758   2.296   5.289   8.205  0.1455 -1.1653  0.4200
 2375TIP3   OH228759   0.977   2.939   2.229 -1.1011  0.0638 -0.5215
 2375TIP3    H128760   0.953   2.876   2.297  0.2432 -0.0719 -0.1408
 2375TIP3    H228761   0.896   2.954   2.180 -1.5106 -1.7805 -0.4808
 2376TIP3   OH228762   4.641   1.595   8.018 -0.4311  0.5900 -0.5669
 2376TIP3    H128763   4.718   1.635   8.059 -1.3890  0.3551  1.5933
 2376TIP3    H228764   4.567   1.648   8.049 -1.2002  0.6706 -2.4087
 2377TIP3   OH228765   3.993   6.258   8.077  0.3053 -0.2293  0.3177
 2377TIP3    H128766   4.021   6.277   8.167  0.4770 -1.1241  0.4672
 2377TIP3    H228767   3.937   6.180   8.086  1.1087 -0.9187 -0.4583
 2378TIP3   OH228768   2.528   2.025   8.448  0.7432  0.4308  0.1230
 2378TIP3    H128769   2.593   2.095   8.452 -0.8921  1.9920  1.0781
 2378TIP3    H228770   2.524   2.001   8.356  3.1787 -0.2778  0.1279
 2379TIP3   OH228771   1.168   0.539   0.897 -0.2401 -0.9134  0.9664
 2379TIP3    H128772   1.260   0.513   0.901  0.7608  2.2111  0.9769
 2379TIP3    H228773   1.136   0.528   0.987  0.7389 -0.1440  1.4294
 2380TIP3   OH228774   1.953   2.794   2.390 -0.6549  0.6639  0.0968
 2380TIP3    H128775   2.004   2.724   2.348 -0.7172  1.2408 -0.9908
 2380TIP3    H228776   1.890   2.748   2.444 -0.5640 -0.1283 -0.4439
 2381TIP3   OH228777   4.192   2.243   0.280  0.2738 -0.2721  0.4849
 2381TIP3    H128778   4.214   2.248   0.373 -1.1358  0.2678  0.8133
 2381TIP3    H228779   4.133   2.317   0.265 -0.4591 -1.0425 -0.5745
 2382TIP3   OH228780   4.106   2.136   7.483 -0.4975  0.0588  0.5827
 2382TIP3    H128781   4.195   2.171   7.478 -0.6121  0.2929  0.2091
 2382TIP3    H228782   4.050   2.213   7.492 -0.7452 -0.0194 -0.1948
 2383TIP3   OH228783   6.896   4.914   2.243 -0.0434 -0.1790 -0.0503
 2383TIP3    H128784   6.948   4.957   2.175  1.5246 -3.0190 -0.7963
 2383TIP3    H228785   6.960   4.888   2.309 -1.0454 -0.6716  0.7548
 2384TIP3   OH228786   1.232   0.650   0.556  0.8857 -0.2456 -0.4241
 2384TIP3    H128787   1.276   0.565   0.567 -0.4996 -0.7732  1.5025
 2384TIP3    H228788   1.303   0.714   0.554  1.8483 -1.2229  0.8236
 2385TIP3   OH228789   4.107   6.411   1.204 -0.1374  0.4672 -0.2239
 2385TIP3    H128790   4.186   6.450   1.241 -2.0158  1.1758  3.4794
 2385TIP3    H228791   4.084   6.341   1.264 -1.2499 -1.1601 -2.3887
 2386TIP3   OH228792   5.909   1.441   6.279  0.8672 -0.8669 -0.0274
 2386TIP3    H128793   5.819   1.462   6.304  0.6687 -1.7577  0.0190
 2386TIP3    H228794   5.924   1.353   6.314  1.4487 -1.0966 -0.8217
 2387TIP3   OH228795   0.009   6.150   2.240  0.1188  0.1525  0.0089
 2387TIP3    H128796   0.076   6.153   2.173 -0.8724 -0.1990 -1.0277
 2387TIP3    H228797  -0.070   6.120   2.195 -0.7197  0.4495  1.2032
 2388TIP3   OH228798   5.061   3.198   7.157  0.5268  0.7306  0.3040
 2388TIP3    H128799   5.101   3.115   7.129  2.4430  1.0210  1.9634
 2388TIP3    H228800   5.096   3.263   7.096  1.2628  0.7126  0.6910
 2389TIP3   OH228801   2.940   5.131   7.975 -0.5268 -0.3129  0.7020
 2389TIP3    H128802   2.871   5.141   8.040 -1.2986  0.5082 -0.2176
 2389TIP3    H228803   2.897   5.089   7.901  0.0758 -0.2388  0.3020
 2390TIP3   OH228804   0.849   4.584   6.962 -0.2887 -0.1066 -0.2894
 2390TIP3    H128805   0.900   4.564   6.883 -2.1829  1.2582 -1.9360
 2390TIP3    H228806   0.906   4.642   7.013  0.8343 -0.7554 -0.7691
 2391TIP3   OH228807   1.107   6.497   6.965 -0.0736  0.2330 -0.1827
 2391TIP3    H128808   1.122   6.591   6.953  0.5581  0.1925  0.2717
 2391TIP3    H228809   1.184   6.455   6.927 -0.7526 -0.1521 -1.1736
 2392TIP3   OH228810   3.237   3.177   8.072  0.3967  0.2675  0.0182
 2392TIP3    H128811   3.261   3.090   8.103 -0.2994 -0.4316 -1.2772
 2392TIP3    H228812   3.320   3.225   8.068  0.7900 -0.3359  0.7547
 2393TIP3   OH228813   1.696   5.555   7.153  0.2869 -0.7322 -0.0692
 2393TIP3    H128814   1.621   5.599   7.113  1.4045  0.8843 -0.4670
 2393TIP3    H228815   1.765   5.621   7.155  0.6003 -0.9770  3.7150
 2394TIP3   OH228816   6.423   0.525   1.632  0.3771 -0.4561 -0.6439
 2394TIP3    H128817   6.493   0.488   1.578 -0.4135  0.6857 -2.5538
 2394TIP3    H228818   6.343   0.512   1.580 -0.6694 -0.6683  0.9498
 2395TIP3   OH228819   6.578   0.500   1.998  0.4656 -0.4063  0.6027
 2395TIP3    H128820   6.614   0.473   2.082  0.6284 -2.8223 -0.1525
 2395TIP3    H228821   6.653   0.537   1.951  0.9862 -1.3706  0.6368
 2396TIP3   OH228822   1.479   0.608   7.421  0.0586 -0.2225  0.1054
 2396TIP3    H128823   1.424   0.533   7.441 -0.9330  0.6608  0.8127
 2396TIP3    H228824   1.551   0.572   7.369  0.3972 -1.8822  1.6375
 2397TIP3   OH228825   0.771   0.181   0.614 -0.4930  0.7381 -0.5913
 2397TIP3    H128826   0.729   0.120   0.553  1.6203 -0.7610 -0.6587
 2397TIP3    H228827   0.805   0.251   0.558 -1.3870  1.0884 -0.7179
 2398TIP3   OH228828   2.713   0.390   1.122  0.5416  0.0633 -0.6734
 2398TIP3    H128829   2.710   0.460   1.188 -0.1058  1.2483 -1.9128
 2398TIP3    H228830   2.653   0.323   1.156  1.5021 -0.1267  0.7468
 2399TIP3   OH228831   5.307   3.514   1.193  0.2978 -0.3128  0.4244
 2399TIP3    H128832   5.320   3.506   1.099 -1.6578 -0.1124  0.0973
 2399TIP3    H228833   5.283   3.426   1.222 -2.0347  0.1721  0.1696
 2400TIP3   OH228834   3.678   2.862   7.039  0.1843 -0.8673 -0.9635
 2400TIP3    H128835   3.769   2.857   7.070  0.0896  0.2952 -0.4326
 2400TIP3    H228836   3.686   2.886   6.946  0.4906  3.3565 -0.0561
 2401TIP3   OH228837   1.142   2.315   7.581 -0.1010 -0.1252 -0.0318
 2401TIP3    H128838   1.061   2.367   7.584  1.1621  2.1356 -2.1362
 2401TIP3    H228839   1.115   2.231   7.543 -1.6072  0.2011  0.2380
 2402TIP3   OH228840   0.721   1.271   1.539 -0.2760 -0.3054  0.6279
 2402TIP3    H128841   0.696   1.211   1.469 -0.0656  0.1787  0.1277
 2402TIP3    H228842   0.788   1.327   1.499 -0.5284  0.3112  1.0531
 2403TIP3   OH228843   2.869   1.524   2.063  0.2605 -0.4150  0.2617
 2403TIP3    H128844   2.949   1.572   2.084  0.1584 -0.7909  1.5850
 2403TIP3    H228845   2.816   1.587   2.013 -0.0507  1.0647  2.3267
 2404TIP3   OH228846   2.652   6.854   0.352  0.0950  0.2894  0.4209
 2404TIP3    H128847   2.680   6.802   0.427 -1.9026 -3.2110 -1.0220
 2404TIP3    H228848   2.567   6.891   0.379 -1.1429 -1.8291 -0.2958
 2405TIP3   OH228849   2.058   0.133   0.287 -0.1743  0.1346  0.2111
 2405TIP3    H128850   2.075   0.045   0.319 -1.1374 -0.1854 -0.1295
 2405TIP3    H228851   1.966   0.149   0.307 -0.1288  0.8861 -0.1450
 2406TIP3   OH228852   6.302   4.632   0.985 -1.1676 -0.1278  0.3535
 2406TIP3    H128853   6.347   4.713   1.009 -0.8343  0.4224 -1.9043
 2406TIP3    H228854   6.333   4.612   0.897 -1.7475 -2.3790  0.5966
 2407TIP3   OH228855   2.157   6.118   7.414 -0.1812 -0.1181 -0.4740
 2407TIP3    H128856   2.072   6.142   7.379 -0.8903  1.2835  2.0090
 2407TIP3    H228857   2.146   6.121   7.509  2.2113 -1.5284 -0.0642
 2408TIP3   OH228858   3.683   4.323   6.792  0.4449 -0.2917 -0.0498
 2408TIP3    H128859   3.768   4.342   6.752  0.4969 -0.3875  0.0147
 2408TIP3    H228860   3.629   4.292   6.719  0.7376 -1.1029  0.0643
 2409TIP3   OH228861   3.902   5.611   1.781 -0.2254  0.0463 -0.2925
 2409TIP3    H128862   3.957   5.533   1.773 -2.8710 -1.9745 -0.2922
 2409TIP3    H228863   3.916   5.641   1.871  1.3304  0.0200 -0.5031
 2410TIP3   OH228864   4.601   5.199   1.107 -0.4804 -0.2773  0.6265
 2410TIP3    H128865   4.577   5.263   1.174 -0.3695 -1.6827  2.0723
 2410TIP3    H228866   4.535   5.211   1.038 -1.2903  0.4353  1.4981
 2411TIP3   OH228867   5.234   4.553   6.453 -0.1738 -0.3035 -0.4766
 2411TIP3    H128868   5.143   4.530   6.475  0.5787 -0.8992  2.3653
 2411TIP3    H228869   5.234   4.648   6.450 -0.9093 -0.2955 -0.6082
 2412TIP3   OH228870   0.416   2.578   0.648 -0.4017  0.0676 -0.3270
 2412TIP3    H128871   0.431   2.638   0.722 -1.7222  0.7607 -0.5990
 2412TIP3    H228872   0.458   2.496   0.675  1.1150  0.9830  0.2157
 2413TIP3   OH228873   2.411   0.050   6.939  0.0204 -0.4781 -0.0258
 2413TIP3    H128874   2.328   0.064   6.893 -0.2920 -0.2555  0.5819
 2413TIP3    H228875   2.478   0.083   6.879 -0.4631  0.8964  0.1325
 2414TIP3   OH228876   3.073   1.582   1.291 -0.0574  0.2438 -0.0797
 2414TIP3    H128877   3.082   1.662   1.343 -1.3415  0.2234  0.2176
 2414TIP3    H228878   2.986   1.590   1.251 -1.0440 -1.8791  1.4803
 2415TIP3   OH228879   6.618   6.013   0.142  0.3814  0.6356 -0.4579
 2415TIP3    H128880   6.669   6.080   0.097  0.7153  0.5954 -0.1491
 2415TIP3    H228881   6.570   6.061   0.210 -0.8261  0.8313 -1.4220
 2416TIP3   OH228882   0.086   3.793   7.377  0.2130  0.2752 -0.3329
 2416TIP3    H128883   0.085   3.702   7.407 -1.4842  0.7522  1.1894
 2416TIP3    H228884   0.063   3.787   7.284 -2.3820 -0.7247  0.3073
 2417TIP3   OH228885   5.252   6.523   1.278  0.3474  0.3317 -0.8428
 2417TIP3    H128886   5.203   6.595   1.239  0.5274  0.8755 -0.0757
 2417TIP3    H228887   5.307   6.564   1.344  0.4563 -0.5137 -0.3992
 2418TIP3   OH228888   4.662   4.450   8.128  0.2440  0.2065  0.2978
 2418TIP3    H128889   4.756   4.465   8.121  0.4950 -0.9964  0.8639
 2418TIP3    H228890   4.651   4.358   8.103 -0.9829  0.7319 -1.2869
 2419TIP3   OH228891   3.016   0.293   1.898 -0.1067 -0.7809  0.7073
 2419TIP3    H128892   3.043   0.366   1.842  0.9203  0.3964  2.6228
 2419TIP3    H228893   3.095   0.239   1.907 -0.6376 -1.7260 -0.0174
 2420TIP3   OH228894   4.164   4.918   7.568  0.2105 -0.5488 -0.6533
 2420TIP3    H128895   4.172   4.831   7.608 -0.5255 -0.4576 -0.2991
 2420TIP3    H228896   4.093   4.909   7.505  1.6712 -0.8180 -2.3420
 2421TIP3   OH228897   0.718   4.782   8.222 -0.0613  0.7568  0.2427
 2421TIP3    H128898   0.756   4.705   8.265 -1.0342  0.0666 -0.0969
 2421TIP3    H228899   0.680   4.748   8.141  0.9206  1.8813 -0.7343
 2422TIP3   OH228900   6.511   6.762   0.907  0.7324 -0.1200 -0.5865
 2422TIP3    H128901   6.494   6.759   0.813  1.1315  0.6690 -0.6922
 2422TIP3    H228902   6.547   6.676   0.928  1.8672  0.1475 -1.4020
 2423TIP3   OH228903   6.269   3.520   8.163  0.5759 -0.6020  0.4311
 2423TIP3    H128904   6.275   3.506   8.257 -1.6737 -0.8414  0.5905
 2423TIP3    H228905   6.208   3.453   8.133  2.1956 -1.3413 -1.4386
 2424TIP3   OH228906   4.848   1.864   0.640 -0.3025  0.5479  0.2395
 2424TIP3    H128907   4.919   1.829   0.695 -0.0550  1.6029  0.6158
 2424TIP3    H228908   4.888   1.937   0.593 -0.4777 -0.4077 -1.4777
 2425TIP3   OH228909   2.096   5.884   1.174  0.0187  0.7497  0.4374
 2425TIP3    H128910   2.058   5.965   1.140 -0.7855 -0.1419 -0.8748
 2425TIP3    H228911   2.039   5.815   1.141  0.6155 -0.3621  1.6314
 2426TIP3   OH228912   2.517   2.803   0.428  0.2591  0.0120  0.2938
 2426TIP3    H128913   2.451   2.857   0.384  0.2938 -0.5287 -0.4540
 2426TIP3    H228914   2.470   2.759   0.498 -0.2959 -0.7202 -0.5207
 2427TIP3   OH228915   4.679   6.290   1.256  0.3353 -0.0658  0.6293
 2427TIP3    H128916   4.589   6.293   1.287  0.2547 -2.0436  0.6933
 2427TIP3    H228917   4.673   6.298   1.161  0.0637 -0.5222  0.6081
 2428TIP3   OH228918   3.227   2.551   6.396  0.5296  0.1752 -0.0948
 2428TIP3    H128919   3.314   2.580   6.421  1.3981 -0.4143 -2.2091
 2428TIP3    H228920   3.217   2.580   6.305 -1.2098 -0.3409 -0.1068
 2429TIP3   OH228921   6.746   0.608   6.404  0.0514 -0.3102 -0.2859
 2429TIP3    H128922   6.822   0.665   6.415  0.2281 -1.0080  3.2325
 2429TIP3    H228923   6.670   0.666   6.412  0.2363 -0.1450  0.2859
 2430TIP3   OH228924   5.932   3.816   8.405 -0.3533 -0.5586 -0.2301
 2430TIP3    H128925   6.026   3.804   8.419 -0.2981 -1.3767 -1.2502
 2430TIP3    H228926   5.925   3.846   8.315 -1.0225  0.3742  0.1197
 2431TIP3   OH228927   0.025   6.164   0.113 -0.3043  0.4232  0.0567
 2431TIP3    H128928  -0.016   6.194   0.194  0.5097 -0.7933  0.9596
 2431TIP3    H228929   0.055   6.244   0.070 -0.0217  1.0359  1.3599
 2432TIP3   OH228930   0.809   2.028   1.473  0.3716  0.2735 -0.2799
 2432TIP3    H128931   0.904   2.022   1.461  0.7389 -0.3872  2.4145
 2432TIP3    H228932   0.794   2.116   1.505 -0.0908  0.6799 -1.5305
 2433TIP3   OH228933   3.217   4.508   0.398  0.2975  0.1287 -0.6628
 2433TIP3    H128934   3.151   4.439   0.389  0.4241  0.1733 -2.4749
 2433TIP3    H228935   3.231   4.516   0.492 -1.5870 -0.5297 -0.2657
 2434TIP3   OH228936   3.136   3.489   2.090  0.4703 -0.0725 -0.5878
 2434TIP3    H128937   3.043   3.508   2.084  0.5318  0.1869 -0.7453
 2434TIP3    H228938   3.144   3.398   2.064  0.1695 -0.3235  0.1798
 2435TIP3   OH228939   4.887   0.589   6.375  0.2257  0.0709  0.3003
 2435TIP3    H128940   4.793   0.608   6.367 -0.0759 -1.8608 -1.7581
 2435TIP3    H228941   4.899   0.566   6.467 -1.5395 -0.5159  0.4263
 2436TIP3   OH228942   0.993   0.386   8.620 -0.0845  0.0758 -0.3692
 2436TIP3    H128943   1.000   0.472   8.579  1.8439  0.3959  0.5512
 2436TIP3    H228944   1.083   0.361   8.640 -0.6819 -1.7665  0.2039
 2437TIP3   OH228945   0.737   0.420   2.259 -0.3603 -0.3076 -0.0272
 2437TIP3    H128946   0.648   0.454   2.270 -0.9661 -1.7151 -0.3791
 2437TIP3    H228947   0.794   0.496   2.274 -1.6099  0.5994  0.2628
 2438TIP3   OH228948   5.982   5.204   1.671 -0.2066 -0.1873  0.4170
 2438TIP3    H128949   6.046   5.186   1.603 -1.3477 -2.0282 -0.2521
 2438TIP3    H228950   5.937   5.283   1.641 -0.1463 -0.5077 -0.5685
 2439TIP3   OH228951   2.291   3.941   8.000  0.3518  0.2666  0.1543
 2439TIP3    H128952   2.309   3.925   8.092  2.0924 -0.1966 -0.2248
 2439TIP3    H228953   2.354   4.008   7.974  2.3005 -1.9706 -1.4410
 2440TIP3   OH228954   4.835   1.895   7.080  0.0691  0.2138 -0.0640
 2440TIP3    H128955   4.788   1.851   7.150  1.2563  1.1658  1.4006
 2440TIP3    H228956   4.767   1.935   7.025 -0.8718 -0.1816  0.7973
 2441TIP3   OH228957   6.453   6.460   1.793  0.2505 -0.2448  0.1987
 2441TIP3    H128958   6.429   6.505   1.711  0.8148 -1.1524 -0.4777
 2441TIP3    H228959   6.448   6.529   1.859  1.5656  0.9812 -0.8828
 2442TIP3   OH228960   1.036   5.820   1.562  0.2026  0.3035 -0.2969
 2442TIP3    H128961   1.116   5.775   1.588  1.1691  1.5696 -0.9335
 2442TIP3    H228962   1.065   5.884   1.497 -1.1915  1.3878  0.0943
 2443TIP3   OH228963   0.587   1.487   6.457  0.0341  0.2589  0.0588
 2443TIP3    H128964   0.592   1.398   6.491  2.6323  0.5908  0.7728
 2443TIP3    H228965   0.657   1.492   6.392  0.0146  1.8072  0.1057
 2444TIP3   OH228966   4.807   5.596   8.349  0.0837  0.2038  0.6132
 2444TIP3    H128967   4.812   5.657   8.276 -1.2798  1.3300  1.3944
 2444TIP3    H228968   4.713   5.592   8.370  0.3288 -0.8988  1.6331
 2445TIP3   OH228969   3.169   3.775   7.627 -0.3084  0.8334 -0.1698
 2445TIP3    H128970   3.095   3.754   7.571 -1.4143  0.9538  1.2004
 2445TIP3    H228971   3.242   3.724   7.591 -1.8166 -1.8879  0.3617
 2446TIP3   OH228972   2.197   3.163   2.778 -0.0103 -0.0322 -0.2416
 2446TIP3    H128973   2.253   3.123   2.712  1.2595  0.0396  0.7379
 2446TIP3    H228974   2.200   3.102   2.852 -1.4331 -0.1401 -0.2490
 2447TIP3   OH228975   2.866   3.264   0.235  0.1554  0.0648  0.6159
 2447TIP3    H128976   2.920   3.329   0.280 -0.5602 -0.3979  2.2565
 2447TIP3    H228977   2.851   3.196   0.302 -2.2851  0.0953  0.2037
 2448TIP3   OH228978   0.317   2.839   1.609  0.1642  0.1250  0.3827
 2448TIP3    H128979   0.308   2.752   1.649  1.1738 -0.4702 -0.6385
 2448TIP3    H228980   0.243   2.844   1.548  0.7020 -0.4739 -0.3397
 2449TIP3   OH228981   3.532   4.342   7.450  0.1073  0.4256 -0.9651
 2449TIP3    H128982   3.443   4.309   7.436 -0.3105  0.7686  0.7310
 2449TIP3    H228983   3.542   4.346   7.545  2.1743 -0.1905 -1.1116
 2450TIP3   OH228984   2.294   0.739   0.374 -0.2662 -0.8404 -0.2522
 2450TIP3    H128985   2.248   0.805   0.425  0.0746 -0.0311 -0.9587
 2450TIP3    H228986   2.386   0.752   0.396 -0.1432 -0.6762 -0.8226
 2451TIP3   OH228987   2.544   5.238   1.475 -0.3825  0.4942  0.5387
 2451TIP3    H128988   2.458   5.253   1.513 -0.5039  2.0396 -0.2913
 2451TIP3    H228989   2.544   5.287   1.393  1.5758  1.2440  0.9265
 2452TIP3   OH228990   4.597   2.475   1.878  0.7820 -0.3528  0.5439
 2452TIP3    H128991   4.681   2.515   1.902  1.4830 -0.6061 -1.3253
 2452TIP3    H228992   4.604   2.459   1.784 -1.3847 -0.3769  0.3356
 2453TIP3   OH228993   1.510   3.068   2.150 -0.0208 -0.2992 -0.1085
 2453TIP3    H128994   1.522   3.096   2.241 -1.4374  2.2354 -0.6252
 2453TIP3    H228995   1.419   3.038   2.146 -0.7966  1.9849 -1.1732
 2454TIP3   OH228996   3.045   4.202   1.095 -0.3898  0.0627 -0.1134
 2454TIP3    H128997   2.965   4.228   1.140 -1.6920  0.4948 -2.5238
 2454TIP3    H228998   3.015   4.149   1.021  1.4850  0.7118 -1.4102
 2455TIP3   OH228999   4.313   5.843   8.315 -0.4298  0.1795  0.2210
 2455TIP3    H129000   4.287   5.751   8.322 -1.2899  0.3017 -1.1216
 2455TIP3    H229001   4.277   5.885   8.394 -1.4093 -0.3212  0.0484
 2456TIP3   OH229002   1.600   5.824   0.470 -0.0897  0.3023  0.0140
 2456TIP3    H129003   1.626   5.740   0.431  0.2931 -0.2267  1.3443
 2456TIP3    H229004   1.537   5.800   0.538  0.7624  0.9787  1.0773
 2457TIP3   OH229005   3.697   0.884   6.279  0.2797  0.1075  0.2870
 2457TIP3    H129006   3.613   0.838   6.284  0.7884 -0.9342 -0.3606
 2457TIP3    H229007   3.748   0.846   6.351  0.4137  0.2990  0.2928
 2458TIP3   OH229008   5.234   5.106   2.405  0.0010 -0.1947  0.5515
 2458TIP3    H129009   5.210   5.149   2.487 -0.4818 -0.6777  0.6705
 2458TIP3    H229010   5.276   5.175   2.354 -2.1590  0.8823  0.0919
 2459TIP3   OH229011   4.024   1.604   5.841  0.5014  0.5496 -0.1719
 2459TIP3    H129012   3.945   1.603   5.895  0.6881  2.2781  0.1813
 2459TIP3    H229013   4.051   1.696   5.839  1.7464  0.1907 -1.4035
 2460TIP3   OH229014   1.265   4.859   7.755  0.0702 -0.1101 -0.2450
 2460TIP3    H129015   1.346   4.810   7.746 -0.3821 -0.7808 -0.6922
 2460TIP3    H229016   1.219   4.818   7.828 -0.0222  0.0522 -0.2088
 2461TIP3   OH229017   4.583   6.037   8.335  0.0273  0.2726  0.2614
 2461TIP3    H129018   4.495   6.012   8.309 -0.6385  1.5366  1.2218
 2461TIP3    H229019   4.596   5.996   8.421  0.5462 -0.2459 -0.0522
 2462TIP3   OH229020   4.110   4.439   7.829  0.2330  0.1592  0.0042
 2462TIP3    H129021   4.177   4.499   7.864  0.0396  0.1019  0.4771
 2462TIP3    H229022   4.096   4.375   7.899 -2.0320  1.5212  0.9234
 2463TIP3   OH229023   5.504   3.552   3.133 -0.4529  0.1208 -0.4304
 2463TIP3    H129024   5.597   3.574   3.126 -0.1170 -1.2444 -0.3608
 2463TIP3    H229025   5.471   3.562   3.043  0.1617 -1.1152 -0.8068
 2464TIP3   OH229026   5.581   3.032   8.127  0.1618  0.0707 -0.2175
 2464TIP3    H129027   5.670   3.007   8.101 -0.0822  0.1160 -1.1431
 2464TIP3    H229028   5.548   3.082   8.052  0.0168  1.6704  0.8825
 2465TIP3   OH229029   0.802   4.490   8.265 -0.3665 -0.3356  0.3967
 2465TIP3    H129030   0.721   4.439   8.263 -0.2415 -0.5262 -0.5267
 2465TIP3    H229031   0.869   4.428   8.236 -0.2880  0.4659 -1.2372
 2466TIP3   OH229032   3.990   5.438   2.426 -0.2325 -0.2060 -0.1464
 2466TIP3    H129033   3.992   5.469   2.336 -0.4688 -0.7827 -0.3537
 2466TIP3    H229034   3.922   5.371   2.427  0.6111 -1.0925  0.1630
 2467TIP3   OH229035   5.179   5.159   0.370  0.7987  0.3022  0.4528
 2467TIP3    H129036   5.221   5.231   0.323 -0.8337  1.5148  0.7617
 2467TIP3    H229037   5.191   5.180   0.462  1.3324 -0.4628  0.5672
 2468TIP3   OH229038   1.621   3.333   8.520  0.0254 -0.2611 -0.3156
 2468TIP3    H129039   1.669   3.332   8.437 -1.5715  0.5967 -1.2928
 2468TIP3    H229040   1.643   3.418   8.559 -1.6385  0.7037 -1.3826
 2469TIP3   OH229041   1.572   3.604   0.492 -0.4703 -0.1565  0.0325
 2469TIP3    H129042   1.614   3.525   0.458 -0.0644  0.9403 -2.2011
 2469TIP3    H229043   1.479   3.592   0.471 -0.3813  0.0232 -0.4846
 2470TIP3   OH229044   1.063   0.741   1.162 -0.6945 -0.8404  0.2976
 2470TIP3    H129045   1.156   0.745   1.181 -0.9836 -0.6289  1.8221
 2470TIP3    H229046   1.043   0.648   1.154 -0.6014 -0.9705  1.4306
 2471TIP3   OH229047   1.744   3.748   0.865 -0.0019  0.4589 -1.2442
 2471TIP3    H129048   1.760   3.771   0.774  1.5747  0.6585 -0.9392
 2471TIP3    H229049   1.736   3.832   0.911 -1.3590  0.3670 -1.2572
 2472TIP3   OH229050   4.146   1.992   0.142  0.3038 -0.3420  0.4816
 2472TIP3    H129051   4.146   2.080   0.179  2.4632 -0.5052  1.0108
 2472TIP3    H229052   4.060   1.957   0.164 -0.2190  1.2595  1.1689
 2473TIP3   OH229053   2.909   3.413   6.101 -0.7108  0.4026 -0.5483
 2473TIP3    H129054   2.937   3.324   6.119 -0.6074  0.5999  0.3168
 2473TIP3    H229055   2.896   3.416   6.007  1.1200 -0.0026 -0.8536
 2474TIP3   OH229056   5.175   3.489   0.290 -0.7603  0.2396  0.1424
 2474TIP3    H129057   5.213   3.426   0.352  1.5445  1.9996  0.6597
 2474TIP3    H229058   5.190   3.449   0.204 -3.1506 -1.7898  0.5669
 2475TIP3   OH229059   6.510   4.259   0.249 -0.8332 -0.3839 -0.4846
 2475TIP3    H129060   6.463   4.245   0.167  1.6967 -0.6849 -1.9970
 2475TIP3    H229061   6.553   4.344   0.236 -0.2449 -0.5332  0.4576
 2476TIP3   OH229062   1.531   6.144   8.018  0.6222  0.7899 -0.2683
 2476TIP3    H129063   1.567   6.192   7.943  0.8795 -0.1272 -0.7465
 2476TIP3    H229064   1.606   6.132   8.077  0.9461 -0.4379 -0.9052
 2477TIP3   OH229065   6.281   4.059   0.026 -0.2938 -0.1573 -0.1585
 2477TIP3    H129066   6.230   4.102   0.094  0.4657  0.9342 -0.2678
 2477TIP3    H229067   6.310   4.129  -0.032 -2.2479 -1.1785 -2.5869
 2478TIP3   OH229068   6.756   6.377   7.818  0.5112  0.2321 -0.4180
 2478TIP3    H129069   6.825   6.433   7.783  1.6127 -1.2815 -0.7932
 2478TIP3    H229070   6.782   6.288   7.791  0.0223 -0.7198  1.9845
 2479TIP3   OH229071   5.676   1.526   7.602  0.2195  0.7489 -0.9592
 2479TIP3    H129072   5.758   1.566   7.628 -0.2189  0.1183  1.6515
 2479TIP3    H229073   5.701   1.440   7.568  0.6006 -0.0022  1.1010
 2480TIP3   OH229074   2.551   2.986   7.214  0.1906 -0.2078 -0.1498
 2480TIP3    H129075   2.603   3.000   7.134  0.5594  2.1323  0.4445
 2480TIP3    H229076   2.461   2.979   7.182  0.4895 -0.9775 -0.8893
 2481TIP3   OH229077   0.910   2.559   2.145 -0.5198 -0.1197  0.2909
 2481TIP3    H129078   1.004   2.552   2.162 -0.6908 -0.7655  1.0155
 2481TIP3    H229079   0.904   2.601   2.059  0.4300 -0.1325  0.2119
 2482TIP3   OH229080   6.322   0.832   7.792  0.5019  0.2814  0.1786
 2482TIP3    H129081   6.379   0.757   7.774 -0.5241 -0.5653  0.3578
 2482TIP3    H229082   6.284   0.854   7.707 -0.9205 -0.8635  0.4879
 2483TIP3   OH229083   0.598   6.204   0.346 -0.4271 -0.1530 -0.2463
 2483TIP3    H129084   0.609   6.143   0.419  4.5866 -1.3768 -1.5842
 2483TIP3    H229085   0.595   6.148   0.268 -1.5272  1.2031 -1.2114
 2484TIP3   OH229086   3.681   2.605   0.236  0.1921 -0.0356 -0.3199
 2484TIP3    H129087   3.597   2.628   0.276 -0.7448  1.3547 -2.8935
 2484TIP3    H229088   3.743   2.667   0.273 -0.0806 -0.4189  0.8381
 2485TIP3   OH229089   4.739   3.045   8.600  0.0668  0.0962  0.1078
 2485TIP3    H129090   4.715   3.063   8.691 -1.2626  0.3904 -0.2718
 2485TIP3    H229091   4.703   3.119   8.551 -1.9024 -1.4621 -1.0008
 2486TIP3   OH229092   0.834   5.204   2.033 -0.1073 -0.4097 -0.3535
 2486TIP3    H129093   0.819   5.196   2.127 -1.1684 -2.2649 -0.6194
 2486TIP3    H229094   0.925   5.235   2.026 -0.2644  0.5445  1.2615
 2487TIP3   OH229095   2.864   5.241   1.980  0.4219  0.1644  0.4528
 2487TIP3    H129096   2.797   5.309   1.981 -0.5610 -0.7850  0.5712
 2487TIP3    H229097   2.861   5.203   2.068 -2.0930 -2.9011 -0.7815
 2488TIP3   OH229098   1.298   4.315   1.355 -0.0818  0.2573 -0.2928
 2488TIP3    H129099   1.248   4.395   1.341  1.7396  1.1985 -1.9949
 2488TIP3    H229100   1.272   4.257   1.284 -1.2631 -0.6472  0.8316
 2489TIP3   OH229101   0.150   0.987   7.542 -0.1820  0.2059  0.5753
 2489TIP3    H129102   0.099   1.068   7.548 -0.5791 -0.0850  1.2089
 2489TIP3    H229103   0.238   1.011   7.571 -0.4249  0.3039  1.2399
 2490TIP3   OH229104   5.325   0.921   7.451  0.7264  0.1663 -0.7757
 2490TIP3    H129105   5.421   0.917   7.445  0.6613  0.2278 -2.2109
 2490TIP3    H229106   5.308   1.000   7.503  1.4599 -1.1769  1.6849
 2491TIP3   OH229107   5.594   3.329   7.321 -0.1164  0.3403 -0.2793
 2491TIP3    H129108   5.571   3.264   7.254  0.3691  1.2840 -1.3879
 2491TIP3    H229109   5.539   3.405   7.301 -0.0587  0.5884  0.4780
 2492TIP3   OH229110   2.609   0.606   6.563 -0.9482 -0.0205  0.6788
 2492TIP3    H129111   2.561   0.563   6.634  0.1655 -0.2463  1.3116
 2492TIP3    H229112   2.652   0.681   6.605  0.6444 -0.7971  0.5164
 2493TIP3   OH229113   4.838   6.070   7.420  0.0719  0.4305  0.5467
 2493TIP3    H129114   4.924   6.044   7.452 -0.3153  0.7501  1.8976
 2493TIP3    H229115   4.801   5.991   7.382  1.1665  0.4178 -0.5886
 2494TIP3   OH229116   0.049   1.550   7.034 -0.4508 -0.6434 -0.0285
 2494TIP3    H129117   0.135   1.510   7.046  0.3461  1.4760  1.8976
 2494TIP3    H229118   0.056   1.596   6.950  0.5555  0.0988  0.4471
 2495TIP3   OH229119   0.003   5.382   8.457  0.0630 -0.0450 -0.0413
 2495TIP3    H129120   0.088   5.400   8.497 -1.3345  3.1068  1.8977
 2495TIP3    H229121  -0.007   5.449   8.389 -0.3977 -1.1767 -1.1379
 2496TIP3   OH229122   6.345   0.001   0.302  0.0550  0.1555 -0.0731
 2496TIP3    H129123   6.388   0.039   0.226  0.4500  0.6982  0.4231
 2496TIP3    H229124   6.410  -0.057   0.341  0.1601  0.5587  0.3623
 2497TIP3   OH229125   2.407   3.066   6.434 -0.5190 -0.1109  0.1248
 2497TIP3    H129126   2.312   3.062   6.429 -0.8522  1.3923  3.0005
 2497TIP3    H229127   2.433   2.982   6.471 -0.7811 -0.3063 -0.1332
 2498TIP3   OH229128   2.198   6.424   0.254  0.1404  0.4822  0.0197
 2498TIP3    H129129   2.171   6.463   0.337 -2.4209  1.3525 -1.1027
 2498TIP3    H229130   2.153   6.339   0.252  0.0432  0.5403 -0.5232
 2499TIP3   OH229131   5.706   2.893   0.800  0.0927 -0.4192  0.1168
 2499TIP3    H129132   5.671   2.978   0.830 -0.9265 -0.7700 -0.0591
 2499TIP3    H229133   5.664   2.878   0.716 -2.1005 -2.4985  1.4777
 2500TIP3   OH229134   3.912   0.016   0.326 -0.0013 -0.0273 -0.0239
 2500TIP3    H129135   4.008   0.024   0.327  0.0317 -0.4023  0.0198
 2500TIP3    H229136   3.882   0.099   0.290  0.2467  0.9256  1.8730
 2501TIP3   OH229137   6.169   1.492   7.952  0.6647 -0.1287 -0.0792
 2501TIP3    H129138   6.245   1.453   7.996  0.2144 -2.1994 -1.0228
 2501TIP3    H229139   6.197   1.503   7.861 -0.0771 -0.7865 -0.4047
 2502TIP3   OH229140   4.339   0.704   0.996  0.3393  0.0865  0.3702
 2502TIP3    H129141   4.332   0.656   1.078  0.4253  0.8443  0.8371
 2502TIP3    H229142   4.263   0.762   0.995 -0.2037 -0.6215 -0.5722
 2503TIP3   OH229143   3.005   6.764   1.571 -0.1746 -0.4545 -0.4089
 2503TIP3    H129144   2.985   6.809   1.489  0.3109 -0.5674 -0.5971
 2503TIP3    H229145   3.013   6.672   1.547 -0.7475 -0.5880 -0.0996
 2504TIP3   OH229146   1.338   1.603   7.715 -0.1069 -0.2811  0.6639
 2504TIP3    H129147   1.379   1.660   7.650 -1.6603 -0.3031 -0.3875
 2504TIP3    H229148   1.412   1.555   7.754  1.2922  2.6541  1.8892
 2505TIP3   OH229149   5.831   5.982   7.552  0.2678 -0.7828 -0.0287
 2505TIP3    H129150   5.871   6.018   7.631 -0.4195  0.1395 -0.0856
 2505TIP3    H229151   5.767   5.918   7.584 -1.7712  1.3076  0.3479
 2506TIP3   OH229152   4.644   0.032   1.162  0.7746  0.6268 -0.1794
 2506TIP3    H129153   4.591   0.039   1.241  0.0027 -0.2620 -0.5907
 2506TIP3    H229154   4.707  -0.037   1.181  0.4729  0.2868 -0.3861
 2507TIP3   OH229155   0.327   2.100   0.485 -0.7752 -0.3381  0.7362
 2507TIP3    H129156   0.237   2.127   0.498 -0.5437 -0.3940  2.7802
 2507TIP3    H229157   0.380   2.175   0.513 -0.1683 -0.2675 -0.5224
 2508TIP3   OH229158   5.044   4.952   0.235 -0.0749  0.0998  0.5326
 2508TIP3    H129159   5.084   5.022   0.287 -0.5465 -0.2369  1.3717
 2508TIP3    H229160   5.118   4.898   0.208  0.4212  1.5133 -1.0759
 2509TIP3   OH229161   3.136   4.925   6.313  0.0799  0.2643 -0.2618
 2509TIP3    H129162   3.076   4.981   6.265 -0.9522 -0.7272 -0.1796
 2509TIP3    H229163   3.219   4.931   6.265 -0.9137 -0.7210 -2.2196
 2510TIP3   OH229164   0.704   4.378   7.857 -0.0265  0.7776  0.3507
 2510TIP3    H129165   0.770   4.343   7.918 -0.4750  0.4084  0.6361
 2510TIP3    H229166   0.693   4.309   7.792  0.4849  1.1910 -0.1824
 2511TIP3   OH229167   6.222   0.509   1.468 -0.3666  0.5385  0.3394
 2511TIP3    H129168   6.230   0.554   1.384  1.3235 -0.4998 -0.0930
 2511TIP3    H229169   6.209   0.417   1.445 -3.4979  0.6351  1.2162
 2512TIP3   OH229170   4.921   4.268   0.096  0.6639 -0.0192 -0.4246
 2512TIP3    H129171   4.858   4.202   0.066  0.5091  0.0786 -0.3146
 2512TIP3    H229172   4.871   4.349   0.103  0.3313 -0.3311  1.4518
 2513TIP3   OH229173   3.146   1.315   2.552 -0.0893 -0.1310  0.1703
 2513TIP3    H129174   3.115   1.316   2.462  0.9985  1.2704 -0.2151
 2513TIP3    H229175   3.214   1.248   2.552 -0.5722 -0.6313  0.1385
 2514TIP3   OH229176   4.747   6.352   0.500 -0.3758 -0.0755 -0.6550
 2514TIP3    H129177   4.715   6.262   0.491 -0.0877 -0.0952 -1.7045
 2514TIP3    H229178   4.815   6.359   0.432  1.0906  0.2911  0.7933
 2515TIP3   OH229179   1.312   0.367   7.619  0.2237 -0.1723  0.1616
 2515TIP3    H129180   1.255   0.290   7.621  0.6240 -0.4622  0.6209
 2515TIP3    H229181   1.253   0.441   7.627 -0.0990 -0.4649  0.4882
 2516TIP3   OH229182   5.937   6.463   8.354  0.3228 -0.2482 -0.5749
 2516TIP3    H129183   5.886   6.450   8.274  0.5467 -0.4018 -0.6931
 2516TIP3    H229184   6.020   6.419   8.337  0.1365 -0.8303 -0.0201
 2517TIP3   OH229185   3.722   2.670   6.845 -0.1255 -0.3863 -0.3971
 2517TIP3    H129186   3.711   2.603   6.777 -1.8643 -0.7478  0.1934
 2517TIP3    H229187   3.770   2.740   6.801  1.7239 -1.9747 -1.0341
 2518TIP3   OH229188   4.860   1.035   0.321 -0.3218  0.5056 -0.0364
 2518TIP3    H129189   4.945   0.990   0.314 -0.4002  0.4862 -1.0023
 2518TIP3    H229190   4.826   1.008   0.407 -0.6356 -1.7819 -0.7988
 2519TIP3   OH229191   4.279   4.230   0.795 -0.6013 -0.4075 -0.2536
 2519TIP3    H129192   4.310   4.169   0.729  1.4316 -2.0340  2.0496
 2519TIP3    H229193   4.217   4.179   0.848 -2.5350  0.9939 -1.0120
 2520TIP3   OH229194   6.837   1.032   0.599  0.7072 -0.4830 -0.3787
 2520TIP3    H129195   6.857   1.107   0.655 -0.1805  0.6395 -1.5141
 2520TIP3    H229196   6.872   1.056   0.513  1.3209 -1.8340 -0.5444
 2521TIP3   OH229197   2.429   5.965   7.881 -0.3070  0.0860 -0.0208
 2521TIP3    H129198   2.515   5.959   7.839 -0.5047 -1.6920 -0.2537
 2521TIP3    H229199   2.438   5.913   7.961 -0.4733  1.9416  1.2902
 2522TIP3   OH229200   3.872   0.631   8.177 -0.1663  0.2079 -0.0183
 2522TIP3    H129201   3.782   0.599   8.172 -0.2728  0.2820  1.0800
 2522TIP3    H229202   3.926   0.554   8.158 -0.4475 -0.3190  1.1775
 2523TIP3   OH229203   3.360   0.284   1.287 -0.2328  0.3397  0.0484
 2523TIP3    H129204   3.271   0.310   1.309 -0.2734 -0.9504  1.5790
 2523TIP3    H229205   3.362   0.189   1.301  1.7409  0.5226  1.4719
 2524TIP3   OH229206   4.515   4.458   7.404 -0.0823 -0.6004  0.3026
 2524TIP3    H129207   4.570   4.516   7.457  1.3142 -1.0927 -0.5348
 2524TIP3    H229208   4.483   4.515   7.333 -0.8744 -0.2603  0.9102
 2525TIP3   OH229209   2.211   2.955   2.024  0.1702 -0.6616  0.4848
 2525TIP3    H129210   2.155   2.955   1.946  0.5233  0.2029  0.2247
 2525TIP3    H229211   2.171   3.019   2.082  1.2112  0.3993  0.0566
 2526TIP3   OH229212   5.703   3.196   0.044 -0.4144  0.2673 -0.4449
 2526TIP3    H129213   5.703   3.256  -0.031  0.5128  0.9962  0.1225
 2526TIP3    H229214   5.673   3.112   0.007  0.1611  0.5712 -1.6549
 2527TIP3   OH229215   6.233   3.517   8.445 -0.3602  0.3884 -0.7278
 2527TIP3    H129216   6.302   3.475   8.498 -0.9648  2.0051  1.4737
 2527TIP3    H229217   6.162   3.453   8.444 -0.1715  0.1495  0.0677
 2528TIP3   OH229218   2.535   6.717   7.044 -0.1393 -0.3014  0.3640
 2528TIP3    H129219   2.493   6.802   7.040 -0.3956 -0.4288  0.3356
 2528TIP3    H229220   2.611   6.725   6.986 -1.2306 -0.6837 -1.1923
 2529TIP3   OH229221   4.518   6.112   0.087  0.1793  0.0934 -0.7070
 2529TIP3    H129222   4.454   6.123   0.158  0.9368  0.5959 -0.0875
 2529TIP3    H229223   4.559   6.027   0.104  0.6851  0.4198 -0.2651
 2530TIP3   OH229224   0.830   1.258   8.028  0.3942  0.1098  0.6497
 2530TIP3    H129225   0.862   1.238   7.940 -0.7885  1.0965 -0.0340
 2530TIP3    H229226   0.902   1.306   8.069  1.2938 -1.1024  0.5579
 2531TIP3   OH229227   5.528   0.755   7.866  0.0843  0.2397 -0.5195
 2531TIP3    H129228   5.599   0.808   7.831  1.0771 -0.3186  0.5702
 2531TIP3    H229229   5.475   0.816   7.917 -0.8200  0.8580 -2.1411
 2532TIP3   OH229230   6.785   4.381   0.882  0.0622  0.0497 -0.0203
 2532TIP3    H129231   6.823   4.402   0.967 -1.2960  1.3581  0.3132
 2532TIP3    H229232   6.690   4.386   0.896 -0.1936  1.1086 -1.7879
 2533TIP3   OH229233   4.910   5.017   8.242 -0.4980  0.1803 -0.2465
 2533TIP3    H129234   4.933   4.935   8.286  0.0627  0.8277  0.6883
 2533TIP3    H229235   4.984   5.075   8.259 -1.4150  1.2755  0.1329
 2534TIP3   OH229236   4.340   0.674   0.288  0.3314 -0.2361 -0.5828
 2534TIP3    H129237   4.320   0.681   0.195  0.2127 -0.5753 -0.5848
 2534TIP3    H229238   4.290   0.598   0.318  0.0883  0.0839 -0.1614
 2535TIP3   OH229239   1.970   5.672   1.045  0.7449  0.3595  0.1535
 2535TIP3    H129240   2.038   5.609   1.070  2.4180  2.4223  1.0486
 2535TIP3    H229241   1.907   5.620   0.994  1.8516 -2.0801  1.1293
 2536TIP3   OH229242   0.093   6.511   7.690  0.0330  0.0088  0.1186
 2536TIP3    H129243   0.125   6.494   7.601  0.7671  0.9971  0.1845
 2536TIP3    H229244   0.171   6.503   7.745 -0.4338 -0.6786  0.6926
 2537TIP3   OH229245   1.700   5.850   0.088  0.5835  0.1207  0.0871
 2537TIP3    H129246   1.747   5.932   0.077  1.9763 -0.7758 -1.0074
 2537TIP3    H229247   1.708   5.806   0.004  0.5666 -1.4742  0.8699
 2538TIP3   OH229248   2.383   5.935   8.364 -0.3630 -0.1696  0.8830
 2538TIP3    H129249   2.370   5.928   8.459 -1.6853 -0.6214  0.6816
 2538TIP3    H229250   2.457   5.877   8.346  2.5453  2.7748  2.1202
 2539TIP3   OH229251   3.463   0.343   2.098 -0.4163  0.1013 -0.2678
 2539TIP3    H129252   3.380   0.381   2.067 -0.7622 -0.9918 -0.7435
 2539TIP3    H229253   3.524   0.417   2.099 -1.0628  0.6815 -1.1343
 2540TIP3   OH229254   0.158   4.291   8.021 -0.0563 -0.0937  0.1630
 2540TIP3    H129255   0.113   4.252   8.096  0.3344  0.7082  0.8251
 2540TIP3    H229256   0.158   4.385   8.040 -0.8121  0.2272 -1.3046
 2541TIP3   OH229257   4.611   5.588   0.403  0.4641  0.6966 -0.5600
 2541TIP3    H129258   4.699   5.608   0.371  1.3073 -0.9613  0.5495
 2541TIP3    H229259   4.592   5.658   0.466  1.2722  0.7133 -0.3212
 2542TIP3   OH229260   5.788   2.797   8.272  0.7590  0.1825  0.9086
 2542TIP3    H129261   5.836   2.821   8.192 -0.3723 -0.8269 -0.1202
 2542TIP3    H229262   5.796   2.874   8.328  1.4707  0.9810 -0.2253
 2543TIP3   OH229263   4.666   6.628   0.509 -0.1090  0.0042 -0.2840
 2543TIP3    H129264   4.654   6.534   0.495 -0.6935 -0.2637  1.7216
 2543TIP3    H229265   4.612   6.669   0.442 -2.5965 -1.1485  0.8588
 2544TIP3   OH229266   2.264   3.440   7.384 -0.7842  0.1749  0.2056
 2544TIP3    H129267   2.302   3.441   7.472 -2.6302  1.8746  1.0631
 2544TIP3    H229268   2.218   3.523   7.378 -4.2461 -1.6556 -0.7501
 2545TIP3   OH229269   0.370   2.614   1.742  0.0187 -0.1546  0.0434
 2545TIP3    H129270   0.316   2.582   1.815 -1.4103  1.4709 -0.2290
 2545TIP3    H229271   0.429   2.678   1.782 -0.5636  0.5183 -0.1485
 2546TIP3   OH229272   4.571   4.043   1.074 -0.1612 -0.3986  0.4066
 2546TIP3    H129273   4.515   4.107   1.119 -0.8774 -2.3128  2.4255
 2546TIP3    H229274   4.658   4.082   1.075 -0.7623  0.9872  0.6470
 2547TIP3   OH229275   3.635   1.111   6.401  0.0617  0.2242  0.3759
 2547TIP3    H129276   3.618   1.192   6.354  2.8566  1.7481  1.7017
 2547TIP3    H229277   3.679   1.055   6.338  0.3517  0.7408  0.1176
 2548TIP3   OH229278   6.328   3.376   1.608 -0.0313  0.2322  0.1521
 2548TIP3    H129279   6.276   3.442   1.561  0.1050  0.1594 -0.1011
 2548TIP3    H229280   6.410   3.370   1.558  0.6545  1.0929  1.1302
 2549TIP3   OH229281   6.244   5.314   1.017 -0.7020  0.1625  0.2282
 2549TIP3    H129282   6.186   5.263   0.959 -1.4606  0.3761  0.7826
 2549TIP3    H229283   6.190   5.333   1.094  0.6702 -1.2141  1.6016
 2550TIP3   OH229284   6.224   5.474   7.937  0.0905  0.2539  0.0547
 2550TIP3    H129285   6.179   5.414   7.877 -2.0934  1.0308  0.8178
 2550TIP3    H229286   6.269   5.536   7.879  2.9850 -2.3716 -0.7605
 2551TIP3   OH229287   3.696   4.683   1.331  0.1479 -0.1757  0.0176
 2551TIP3    H129288   3.676   4.735   1.253 -0.2236 -1.6103 -0.8894
 2551TIP3    H229289   3.626   4.617   1.335  1.1915 -1.3004  0.4739
 2552TIP3   OH229290   3.400   2.470   7.489  0.7467 -0.1791  0.4971
 2552TIP3    H129291   3.336   2.398   7.489  1.3334 -0.7503 -1.1632
 2552TIP3    H229292   3.354   2.542   7.444 -0.0503  0.7511  2.6593
 2553TIP3   OH229293   0.720   6.864   7.873 -0.1792 -0.3193 -0.0894
 2553TIP3    H129294   0.768   6.867   7.955 -1.5835 -2.7157  0.9361
 2553TIP3    H229295   0.771   6.917   7.813  0.9959  1.3954  2.2593
 2554TIP3   OH229296   5.880   4.844   6.745 -0.3152 -0.6346  0.0972
 2554TIP3    H129297   5.863   4.775   6.810 -0.2066 -1.1202 -0.3818
 2554TIP3    H229298   5.815   4.911   6.764  0.2938 -0.3480  1.2973
 2555TIP3   OH229299   5.576   5.746   7.430  0.1496  0.1805  0.2312
 2555TIP3    H129300   5.593   5.669   7.375  0.0791  0.9569 -0.8962
 2555TIP3    H229301   5.625   5.817   7.389 -0.4717  0.9355  0.7655
 2556TIP3   OH229302   6.248   4.087   8.367  0.6319  0.0260  0.2410
 2556TIP3    H129303   6.253   4.007   8.420 -0.1211  0.3685  0.8570
 2556TIP3    H229304   6.165   4.078   8.319  0.0347  0.8851  1.0803
 2557TIP3   OH229305   3.038   1.163   1.791 -0.2989  0.2138  0.4987
 2557TIP3    H129306   3.068   1.141   1.879 -0.9222  1.0997  0.9486
 2557TIP3    H229307   2.942   1.161   1.797 -0.3547 -0.2481 -0.3042
 2558TIP3   OH229308   1.044   3.546   0.890  0.1770  0.6624 -0.5459
 2558TIP3    H129309   1.095   3.475   0.854  2.0670  1.4561  0.4351
 2558TIP3    H229310   1.067   3.622   0.837  0.7770  1.2230  0.4820
 2559TIP3   OH229311   5.923   1.215   6.463 -0.0119  0.3799  0.0795
 2559TIP3    H129312   5.953   1.175   6.545  0.3936 -1.8254 -1.0918
 2559TIP3    H229313   5.842   1.261   6.488 -0.0253 -0.4369  1.6764
 2560TIP3   OH229314   5.633   4.352   7.549  0.2674 -0.0265 -0.4213
 2560TIP3    H129315   5.693   4.417   7.512  0.2941  0.0765 -0.2013
 2560TIP3    H229316   5.560   4.349   7.488  0.3541  0.0731 -0.5316
 2561TIP3   OH229317   1.379   5.733   0.648 -0.1151 -0.0524  0.2174
 2561TIP3    H129318   1.366   5.810   0.703  2.0070  1.0014 -0.6420
 2561TIP3    H229319   1.295   5.721   0.604 -0.7535  1.2490  1.0071
 2562TIP3   OH229320   0.749   3.046   0.004  0.2522 -0.0722  0.5815
 2562TIP3    H129321   0.686   3.073   0.071 -0.5188 -2.0421  0.7033
 2562TIP3    H229322   0.771   2.956   0.027  1.4937 -0.1260 -0.7073
 2563TIP3   OH229323   3.793   4.713   8.395  0.1893  0.2709 -0.8621
 2563TIP3    H129324   3.842   4.719   8.313 -1.0992  4.2274 -1.5550
 2563TIP3    H229325   3.824   4.786   8.447 -0.6478 -0.8214  1.3014
 2564TIP3   OH229326   5.976   2.643   0.206  0.0434  0.0514  0.4636
 2564TIP3    H129327   5.943   2.631   0.295  1.1676  1.2850  1.0788
 2564TIP3    H229328   5.906   2.690   0.161 -0.8647 -1.2639  0.4263
 2565TIP3   OH229329   1.476   1.241   7.199  0.6598  0.0134 -0.2698
 2565TIP3    H129330   1.435   1.314   7.245  1.8187  0.5153 -0.0007
 2565TIP3    H229331   1.464   1.262   7.106  0.2174  0.0858 -0.2014
 2566TIP3   OH229332   6.746   0.685   1.547  0.0715  0.9153  0.0851
 2566TIP3    H129333   6.834   0.699   1.511  0.1756  2.0090  0.7214
 2566TIP3    H229334   6.744   0.592   1.569  0.3771  0.4561 -1.7113
 2567TIP3   OH229335   0.380   6.344   0.497  0.7685 -0.2509  0.0207
 2567TIP3    H129336   0.321   6.363   0.424  0.4764 -0.1540  0.2808
 2567TIP3    H229337   0.436   6.274   0.464  0.1829 -0.6870 -0.0514
 2568TIP3   OH229338   3.286   0.841   8.445  0.1340 -0.4112 -0.5003
 2568TIP3    H129339   3.282   0.824   8.351  0.5507  0.0651 -0.6112
 2568TIP3    H229340   3.244   0.766   8.485 -3.9955  1.2808 -1.2267
 2569TIP3   OH229341   3.371   0.609   1.646  0.2419 -0.2187  0.5049
 2569TIP3    H129342   3.437   0.543   1.670 -1.5349 -1.4915  2.1909
 2569TIP3    H229343   3.289   0.575   1.682 -1.3240  1.4413 -1.2850
 2570TIP3   OH229344   4.945   4.505   6.508 -0.0045 -0.2895  0.0035
 2570TIP3    H129345   4.964   4.517   6.601  0.2525  0.3931 -0.1311
 2570TIP3    H229346   4.866   4.450   6.507 -0.3728  0.2086  0.6412
 2571TIP3   OH229347   6.501   4.366   2.265 -0.1072  0.0381 -0.4563
 2571TIP3    H129348   6.434   4.313   2.309  0.0286 -0.0234 -0.3213
 2571TIP3    H229349   6.577   4.360   2.323 -1.2344  3.5816  1.7514
 2572TIP3   OH229350   1.191   1.833   2.228  0.0604  0.5637 -0.4013
 2572TIP3    H129351   1.220   1.778   2.301  1.2611 -1.1404 -2.0524
 2572TIP3    H229352   1.095   1.826   2.230  0.1443 -0.9897 -0.0673
 2573TIP3   OH229353   4.340   0.662   8.021  0.0828 -0.2338 -0.5304
 2573TIP3    H129354   4.434   0.660   8.041  0.0264  0.3611 -0.2007
 2573TIP3    H229355   4.299   0.627   8.099 -0.1487  2.2383  0.5422
 2574TIP3   OH229356   6.288   5.671   0.987 -0.2618  0.3140  0.0428
 2574TIP3    H129357   6.272   5.623   0.905 -0.6387  1.4857 -0.6012
 2574TIP3    H229358   6.222   5.740   0.986  1.2384  1.8082  0.1625
 2575TIP3   OH229359   0.499   3.338   0.987 -0.0749 -0.4314  0.1589
 2575TIP3    H129360   0.558   3.389   0.931 -2.8991  1.1568 -1.6138
 2575TIP3    H229361   0.514   3.247   0.962  1.8579 -0.1387  0.1041
 2576TIP3   OH229362   6.493   1.505   0.373 -0.0690 -0.1263  0.1447
 2576TIP3    H129363   6.523   1.553   0.296 -0.1947  1.6616  1.1580
 2576TIP3    H229364   6.508   1.413   0.351 -0.2077  0.3190 -2.0379
 2577TIP3   OH229365   2.956   2.409   8.495  0.3101  0.0019  0.1482
 2577TIP3    H129366   2.907   2.486   8.464  1.9025  1.4836  1.1050
 2577TIP3    H229367   2.891   2.339   8.499 -1.2330  1.3236 -0.6794
 2578TIP3   OH229368   5.688   5.361   0.087 -0.0052 -0.2941  0.0464
 2578TIP3    H129369   5.607   5.404   0.115  0.1555 -0.8957  1.5540
 2578TIP3    H229370   5.747   5.432   0.064 -1.1295  0.1411 -1.6280
 2579TIP3   OH229371   2.117   5.868   6.956 -0.1240 -0.1474  0.3576
 2579TIP3    H129372   2.143   5.922   6.882  0.9791  0.9792  1.5192
 2579TIP3    H229373   2.196   5.860   7.009 -1.4624  1.2271  2.7309
 2580TIP3   OH229374   4.859   4.060   0.702  0.0272  0.0714  0.2680
 2580TIP3    H129375   4.768   4.061   0.731  0.5469 -1.1241  2.0969
 2580TIP3    H229376   4.870   3.977   0.657 -0.0411  0.7128 -0.9947
 2581TIP3   OH229377   0.347   5.117   8.245 -0.2340 -0.5317  0.4404
 2581TIP3    H129378   0.253   5.110   8.257 -0.4394  0.6575 -0.3500
 2581TIP3    H229379   0.377   5.026   8.234 -1.5699 -0.7918 -1.3750
 2582TIP3   OH229380   5.233   4.919   8.184  0.0701  0.5712 -0.4022
 2582TIP3    H129381   5.318   4.903   8.226 -0.7474 -0.0823  1.0920
 2582TIP3    H229382   5.169   4.898   8.252 -1.2822  2.1666 -1.1250
 2583TIP3   OH229383   5.445   3.153   7.849  0.3872 -0.0606 -0.8541
 2583TIP3    H129384   5.533   3.119   7.828  0.0666 -2.1743  0.8466
 2583TIP3    H229385   5.388   3.112   7.785  0.5574  0.8902 -1.6258
 2584TIP3   OH229386   3.636   0.250   7.101 -0.0838  0.6103  0.1361
 2584TIP3    H129387   3.677   0.328   7.063 -0.2800  0.7047  0.1154
 2584TIP3    H229388   3.693   0.226   7.174  0.6914  0.0061 -0.6450
 2585TIP3   OH229389   1.431   3.901   7.846  0.4326  0.1799  0.2676
 2585TIP3    H129390   1.356   3.951   7.879 -0.9566 -1.6400  0.0275
 2585TIP3    H229391   1.494   3.903   7.918  0.2077  1.7881  0.4638
 2586TIP3   OH229392   3.019   1.894   8.080  0.4378 -0.5397  0.6093
 2586TIP3    H129393   3.053   1.856   8.161 -1.3387 -1.4662  0.9797
 2586TIP3    H229394   2.965   1.968   8.108 -1.8393 -2.0558  0.5459
 2587TIP3   OH229395   1.857   1.588   0.595  0.1855 -0.2363  0.0553
 2587TIP3    H129396   1.921   1.654   0.622 -0.3643  0.0769  0.6353
 2587TIP3    H229397   1.906   1.506   0.593  0.6446  0.0273  0.3160
 2588TIP3   OH229398   0.015   4.238   8.514 -0.0596  0.3587  0.3311
 2588TIP3    H129399  -0.049   4.272   8.451  2.3086  0.8879 -1.9067
 2588TIP3    H229400  -0.027   4.160   8.551 -1.8857  0.5436 -1.2161
 2589TIP3   OH229401   5.796   4.065   0.265 -0.0356  0.1048  1.1130
 2589TIP3    H129402   5.718   4.040   0.313  1.1062 -0.3716  2.7912
 2589TIP3    H229403   5.804   3.999   0.196 -2.1262  1.2456 -0.3179
 2590TIP3   OH229404   4.991   5.334   7.261  0.0546 -0.0747  0.4295
 2590TIP3    H129405   4.963   5.254   7.305  0.2336  0.1982  1.0438
 2590TIP3    H229406   5.065   5.366   7.313  0.0992  0.3941  0.0865
 2591TIP3   OH229407   2.300   5.965   2.311  0.0264 -0.1864 -0.3140
 2591TIP3    H129408   2.383   5.919   2.326  1.6627  3.1737  2.3541
 2591TIP3    H229409   2.321   6.030   2.244 -0.7161  0.1006 -0.2732
 2592TIP3   OH229410   0.165   6.755   0.171  0.1367 -0.3234  0.4091
 2592TIP3    H129411   0.145   6.770   0.079 -0.9360 -0.1183  0.6558
 2592TIP3    H229412   0.235   6.690   0.171 -1.0872 -1.7099 -0.5194
 2593TIP3   OH229413   6.519   1.780   7.322  0.8792  0.2443  0.1245
 2593TIP3    H129414   6.574   1.846   7.364  2.2425 -0.7461 -0.0488
 2593TIP3    H229415   6.504   1.813   7.234  0.6163  0.8410  0.3894
 2594TIP3   OH229416   5.227   1.300   6.646  0.0458 -0.0238  0.5020
 2594TIP3    H129417   5.303   1.339   6.602  0.2053  0.6081  1.3142
 2594TIP3    H229418   5.206   1.222   6.593  1.7750 -0.6870  0.7347
 2595TIP3   OH229419   0.559   5.801   0.785  0.4315 -0.7324 -0.8362
 2595TIP3    H129420   0.482   5.773   0.835  1.7092 -0.2374  1.5838
 2595TIP3    H229421   0.556   5.897   0.787  1.3371 -0.6991 -0.2680
 2596TIP3   OH229422   0.556   0.689   0.170 -0.2811 -0.0357 -0.3393
 2596TIP3    H129423   0.525   0.721   0.255 -0.0703 -1.3200  0.2431
 2596TIP3    H229424   0.636   0.739   0.153  0.3865 -0.6709  0.8406
 2597TIP3   OH229425   2.409   3.466   1.711 -0.0683 -0.2911 -0.4353
 2597TIP3    H129426   2.380   3.399   1.649  0.5560 -3.7511  2.7009
 2597TIP3    H229427   2.347   3.460   1.784  0.8219  1.6225  0.5515
 2598TIP3   OH229428   6.058   6.285   0.008  0.1812 -0.0826  0.0492
 2598TIP3    H129429   6.149   6.291  -0.020  1.2095 -2.5335  2.4548
 2598TIP3    H229430   6.027   6.202  -0.030 -0.6496  0.0867  0.3320
 2599TIP3   OH229431   2.688   6.725   1.230 -0.0109 -0.4727 -0.3973
 2599TIP3    H129432   2.776   6.689   1.222 -0.2176 -1.0757 -0.0118
 2599TIP3    H229433   2.647   6.673   1.299 -0.5748 -0.0094 -0.3784
 2600TIP3   OH229434   5.094   4.514   0.592 -0.5478 -0.1597 -0.1596
 2600TIP3    H129435   5.013   4.518   0.642 -0.9310  0.7445 -0.8136
 2600TIP3    H229436   5.121   4.422   0.597 -0.2025  0.0177  2.2319
 2601TIP3   OH229437   1.759   3.852   1.199 -0.1760  0.1388 -0.1932
 2601TIP3    H129438   1.790   3.939   1.224 -1.1414  0.2939  0.5206
 2601TIP3    H229439   1.826   3.793   1.232 -0.1897  0.5196  0.5333
 2602TIP3   OH229440   5.042   1.827   7.593  0.4282  0.2909  0.0470
 2602TIP3    H129441   4.994   1.910   7.585 -0.9182 -0.4832 -0.2443
 2602TIP3    H229442   5.033   1.803   7.685  0.8834  0.4863  0.1478
 2603TIP3   OH229443   5.745   3.631   7.739 -0.5472 -0.5360  0.1696
 2603TIP3    H129444   5.717   3.704   7.684 -0.0124  0.0466  0.6514
 2603TIP3    H229445   5.823   3.597   7.695  1.4162  1.5303  1.7980
 2604TIP3   OH229446   1.473   2.901   8.554  0.3591  0.0957  0.3865
 2604TIP3    H129447   1.567   2.916   8.555  0.5247 -0.6914 -1.4135
 2604TIP3    H229448   1.463   2.806   8.550 -0.5065  0.2006 -0.2138
 2605TIP3   OH229449   0.892   3.726   6.456 -0.2681  0.2734  0.0892
 2605TIP3    H129450   0.956   3.686   6.397  0.3734  0.7228  0.4690
 2605TIP3    H229451   0.918   3.818   6.462  1.0563 -0.1618  2.7714
 2606TIP3   OH229452   5.531   1.510   1.660 -0.0413 -0.0074 -0.1417
 2606TIP3    H129453   5.494   1.555   1.585  0.2076  1.6589  0.6853
 2606TIP3    H229454   5.474   1.434   1.674 -1.6129  1.0669 -0.4583
 2607TIP3   OH229455   1.088   6.762   6.922 -0.3337 -0.0732  0.2623
 2607TIP3    H129456   0.999   6.762   6.957 -0.7021 -0.6593 -0.6328
 2607TIP3    H229457   1.079   6.794   6.832  0.1747 -1.2476 -0.2336
 2608TIP3   OH229458   3.055   6.134   6.256 -0.4880  0.4463  0.0582
 2608TIP3    H129459   2.996   6.205   6.229 -0.0229  0.8943  0.1907
 2608TIP3    H229460   3.123   6.178   6.307  0.6694  0.1378 -1.1533
 2609TIP3   OH229461   0.434   1.591   1.987 -0.3061 -0.0421 -0.0915
 2609TIP3    H129462   0.445   1.677   2.027 -0.4613 -0.5461  1.0528
 2609TIP3    H229463   0.342   1.568   2.002 -0.0393 -0.8081  0.4280
 2610TIP3   OH229464   5.365   0.599   0.258  0.3453  0.8375  0.4835
 2610TIP3    H129465   5.324   0.645   0.185  1.5138  0.0599 -0.7145
 2610TIP3    H229466   5.436   0.549   0.218 -0.4314 -1.4833  1.7800
 2611TIP3   OH229467   4.959   5.447   2.117  0.2523 -0.1086  0.1670
 2611TIP3    H129468   5.013   5.369   2.127  0.7561  0.3551  1.2847
 2611TIP3    H229469   4.901   5.427   2.044  1.3812 -0.9447 -0.5402
 2612TIP3   OH229470   3.238   1.297   7.339  0.3599 -0.2152  0.1952
 2612TIP3    H129471   3.173   1.265   7.401 -0.5832  1.5761  0.1904
 2612TIP3    H229472   3.220   1.391   7.331  1.3688 -0.1241 -1.6911
 2613TIP3   OH229473   3.071   2.199   7.688  0.3543 -0.4164 -0.0473
 2613TIP3    H129474   3.034   2.286   7.699  0.2555 -0.6827  1.9940
 2613TIP3    H229475   3.096   2.172   7.776  2.3411 -1.6058 -0.9083
 2614TIP3   OH229476   3.706   4.219   8.030 -0.0530 -0.1741 -0.5260
 2614TIP3    H129477   3.771   4.170   7.980  0.9727  0.3144  0.2859
 2614TIP3    H229478   3.632   4.230   7.970  1.6683  1.5804 -2.4747
 2615TIP3   OH229479   4.118   2.537   8.262 -0.2507 -0.1075  0.2709
 2615TIP3    H129480   4.102   2.628   8.237 -1.2784 -0.8347 -1.9726
 2615TIP3    H229481   4.172   2.502   8.191 -0.1763 -1.3650  0.9203
 2616TIP3   OH229482   2.659   4.038   7.544  0.0956  1.0610  0.5301
 2616TIP3    H129483   2.727   3.995   7.596 -0.9120 -0.7292  0.4348
 2616TIP3    H229484   2.638   3.975   7.475  2.2469  3.7415 -2.9846
 2617TIP3   OH229485   1.437   5.926   7.629 -0.8202  0.0988  0.5307
 2617TIP3    H129486   1.405   5.895   7.544 -2.4097  1.7654  0.4689
 2617TIP3    H229487   1.532   5.929   7.620 -0.9808  0.4491 -1.2715
 2618TIP3   OH229488   3.051   1.199   6.874  0.2091 -0.0443 -0.4275
 2618TIP3    H129489   2.980   1.259   6.896 -0.7819 -1.5255  0.6236
 2618TIP3    H229490   3.100   1.188   6.956  0.9035  0.0094 -0.8292
 2619TIP3   OH229491   2.923   0.324   7.667  0.1897  0.1991 -0.4269
 2619TIP3    H129492   3.015   0.350   7.659  0.9732 -2.2455 -0.2414
 2619TIP3    H229493   2.887   0.385   7.731  1.8084  0.8915 -0.1158
 2620TIP3   OH229494   3.845   1.524   6.796 -0.1094 -0.0076 -0.0059
 2620TIP3    H129495   3.832   1.566   6.711 -1.4569 -0.3810  0.0077
 2620TIP3    H229496   3.758   1.495   6.822  0.7519 -2.8837 -0.0419
 2621TIP3   OH229497   5.570   3.202   1.749 -0.1931 -0.3780 -0.5407
 2621TIP3    H129498   5.500   3.143   1.777  0.1987 -0.0117  1.3219
 2621TIP3    H229499   5.578   3.265   1.820  1.5140  0.0485 -1.0658
 2622TIP3   OH229500   5.129   1.924   8.639  0.0433  0.3089  0.1846
 2622TIP3    H129501   5.124   2.011   8.678 -0.3738 -0.5365  2.1156
 2622TIP3    H229502   5.164   1.868   8.708  1.1183 -0.9338 -1.2847
 2623TIP3   OH229503   0.848   4.625   0.707  0.2790 -0.1618  0.1681
 2623TIP3    H129504   0.846   4.531   0.693 -1.7893 -0.5894  2.4978
 2623TIP3    H229505   0.921   4.638   0.768  0.5653 -0.2664 -0.1533
 2624TIP3   OH229506   1.008   4.507   6.335  0.1782 -0.2355 -0.1049
 2624TIP3    H129507   1.083   4.491   6.278 -0.6162  1.5984 -1.7808
 2624TIP3    H229508   1.046   4.544   6.415  1.1348 -0.3654 -0.4885
 2625TIP3   OH229509   4.887   0.901   1.615 -0.4277 -0.2532  0.2816
 2625TIP3    H129510   4.912   0.944   1.697  2.6447  0.2600 -0.8030
 2625TIP3    H229511   4.923   0.813   1.623 -1.5343 -0.7421  0.0800
 2626TIP3   OH229512   6.843   3.380   1.073  0.2023  0.5636  0.5239
 2626TIP3    H129513   6.829   3.343   1.159 -0.9276 -0.4392 -0.0631
 2626TIP3    H229514   6.938   3.378   1.061  0.2251 -2.4675  0.4281
 2627TIP3   OH229515   3.074   6.508   1.513  0.3197  0.4454 -0.6008
 2627TIP3    H129516   3.167   6.497   1.535  0.7041  0.7836 -1.9764
 2627TIP3    H229517   3.032   6.429   1.546  0.7109  1.2093  1.9382
 2628TIP3   OH229518   4.849   0.600   8.153 -0.6420 -1.0389 -0.3163
 2628TIP3    H129519   4.929   0.548   8.161 -1.5522 -2.7388 -1.5247
 2628TIP3    H229520   4.862   0.653   8.074 -0.3131 -0.5401  0.0681
 2629TIP3   OH229521   6.361   1.047   2.386  0.7136 -0.2551 -0.6370
 2629TIP3    H129522   6.360   1.135   2.347  2.3885  0.1859  0.1958
 2629TIP3    H229523   6.269   1.023   2.394 -0.0519  2.7070  1.8163
 2630TIP3   OH229524   5.122   4.199   7.376  0.8368 -0.3498 -0.2341
 2630TIP3    H129525   5.154   4.216   7.288  0.8539  0.0185 -0.1597
 2630TIP3    H229526   5.026   4.199   7.367  0.7744  1.5426  0.0605
 2631TIP3   OH229527   0.159   5.802   0.689  0.7683  0.1397 -0.1171
 2631TIP3    H129528   0.212   5.730   0.656  0.1914 -0.7094  0.7698
 2631TIP3    H229529   0.169   5.871   0.623  1.7181 -0.5626 -0.7339
 2632TIP3   OH229530   6.741   3.112   0.454 -0.8965  0.5346 -0.1052
 2632TIP3    H129531   6.654   3.150   0.455 -1.6465 -1.0604 -0.6976
 2632TIP3    H229532   6.726   3.017   0.459  0.8377  0.2615  0.8134
 2633TIP3   OH229533   0.942   1.260   0.088  0.6083 -1.1115 -0.0639
 2633TIP3    H129534   0.876   1.247   0.021  1.7035 -0.0410 -1.4064
 2633TIP3    H229535   0.893   1.266   0.170 -0.7033 -3.2957 -0.6023
 2634TIP3   OH229536   1.680   6.291   0.924 -0.2545 -0.4628  0.3749
 2634TIP3    H129537   1.675   6.220   0.988 -1.0133 -1.9682 -1.2259
 2634TIP3    H229538   1.658   6.370   0.972 -2.2802 -1.7281  1.6944
 2635TIP3   OH229539   5.845   1.698   6.781  0.2946  0.9207 -0.1593
 2635TIP3    H129540   5.937   1.725   6.776  0.3353  1.1917  1.4657
 2635TIP3    H229541   5.847   1.614   6.827 -0.3615  1.8454  1.6857
 2636TIP3   OH229542   3.836   4.341   8.569  0.3695 -0.5274  0.3246
 2636TIP3    H129543   3.753   4.372   8.606  0.3374 -1.4964  1.1008
 2636TIP3    H229544   3.810   4.295   8.489  0.5406  2.6561 -1.7665
 2637TIP3   OH229545   3.593   5.342   8.050  0.5121  0.6357  0.2621
 2637TIP3    H129546   3.585   5.436   8.034 -1.1998  0.3634 -0.6779
 2637TIP3    H229547   3.677   5.332   8.095  0.3018  2.7136  1.2057
 2638TIP3   OH229548   4.806   5.261   0.432 -0.1142 -0.1394  0.3830
 2638TIP3    H129549   4.844   5.329   0.377 -0.0233 -0.0970  0.4961
 2638TIP3    H229550   4.824   5.291   0.522 -2.5941  1.1662  0.5392
 2639TIP3   OH229551   5.273   4.459   2.491  0.1150  0.3349  0.0335
 2639TIP3    H129552   5.247   4.464   2.399 -0.0651 -1.5078 -0.0648
 2639TIP3    H229553   5.198   4.496   2.539 -0.1299  0.5644 -0.5160
 2640TIP3   OH229554   6.615   4.367   7.014 -0.3316 -0.7726 -0.5204
 2640TIP3    H129555   6.550   4.419   6.966 -0.2102 -0.4470 -0.3336
 2640TIP3    H229556   6.672   4.332   6.945 -0.0571 -0.1654 -0.6125
 2641TIP3   OH229557   4.397   2.635   7.468  0.1367 -0.2713  0.5403
 2641TIP3    H129558   4.341   2.569   7.510  0.4209 -1.4819 -0.9173
 2641TIP3    H229559   4.362   2.643   7.380 -0.6882  2.5276  1.0440
 2642TIP3   OH229560   0.652   5.359   0.189  0.0684 -0.7072  0.1484
 2642TIP3    H129561   0.660   5.271   0.224 -0.0624 -0.0367  1.9802
 2642TIP3    H229562   0.587   5.402   0.245 -1.1357  0.0602 -1.7606
 2643TIP3   OH229563   0.906   6.362   8.418  0.4918  0.2985  0.5238
 2643TIP3    H129564   0.958   6.415   8.357  1.5347 -2.0884 -0.8191
 2643TIP3    H229565   0.971   6.320   8.475 -0.1609 -0.6461  0.5941
 2644TIP3   OH229566   6.503   6.664   0.346  0.3572 -0.2182 -0.0264
 2644TIP3    H129567   6.493   6.573   0.376  0.0633  0.1475  1.0178
 2644TIP3    H229568   6.596   6.683   0.358  0.0452  0.3447  2.0110
 2645TIP3   OH229569   1.324   6.031   7.860 -0.3259  0.3586  0.3917
 2645TIP3    H129570   1.342   5.976   7.784  0.1321  1.0035  0.0330
 2645TIP3    H229571   1.409   6.065   7.887 -0.5013  0.2595  1.1078
 2646TIP3   OH229572   5.726   1.469   1.330 -0.7263 -0.1665 -0.1405
 2646TIP3    H129573   5.811   1.513   1.338  0.7730 -2.8789  0.0441
 2646TIP3    H229574   5.695   1.461   1.420  0.1089 -1.4409  0.0543
 2647TIP3   OH229575   5.672   6.443   1.355  0.0732 -0.0288  1.0250
 2647TIP3    H129576   5.722   6.486   1.423 -0.3591  0.1732  1.2149
 2647TIP3    H229577   5.634   6.366   1.398  0.3517 -0.2729  0.8398
 2648TIP3   OH229578   5.783   5.651   0.604  0.1058 -0.3147 -0.2284
 2648TIP3    H129579   5.816   5.598   0.677 -1.3386 -0.6266  0.2378
 2648TIP3    H229580   5.701   5.689   0.637  0.0936  0.6027 -1.2501
 2649TIP3   OH229581   3.292   4.604   7.818 -0.1994 -0.2075  0.1739
 2649TIP3    H129582   3.297   4.524   7.767 -1.0442 -0.7230  0.8691
 2649TIP3    H229583   3.225   4.656   7.774 -0.0539 -0.1237  0.0507
 2650TIP3   OH229584   3.461   1.258   8.332  0.8490  0.0441  0.4564
 2650TIP3    H129585   3.375   1.279   8.295  0.2896 -0.7846  1.2463
 2650TIP3    H229586   3.467   1.309   8.412  0.0450 -1.6493  1.6733
 2651TIP3   OH229587   5.001   1.479   6.698  0.4356  0.2955  0.0616
 2651TIP3    H129588   5.051   1.552   6.664  0.6835 -0.0110 -0.2362
 2651TIP3    H229589   5.056   1.402   6.682 -0.0145 -0.0100 -0.0365
 2652TIP3   OH229590   2.506   0.141   1.112  0.2601  0.2125 -0.1724
 2652TIP3    H129591   2.533   0.136   1.203 -2.6498 -2.2082  0.7234
 2652TIP3    H229592   2.431   0.200   1.113  0.3173  0.3113 -1.0502
 2653TIP3   OH229593   5.223   6.527   0.098  0.5961 -0.2690 -0.2560
 2653TIP3    H129594   5.176   6.607   0.118  1.6414  0.4789 -0.6802
 2653TIP3    H229595   5.218   6.518   0.003  2.2732  0.4792 -0.4512
 2654TIP3   OH229596   4.798   3.400   6.602 -0.3606 -0.1982  0.1436
 2654TIP3    H129597   4.859   3.388   6.529 -1.4644  1.4297 -1.1142
 2654TIP3    H229598   4.832   3.343   6.671  2.7926  0.8822 -0.3530
 2655TIP3   OH229599   1.144   4.555   1.327 -0.1007 -0.2714  0.1678
 2655TIP3    H129600   1.111   4.578   1.240  1.4249 -1.3832 -0.7370
 2655TIP3    H229601   1.172   4.639   1.365 -3.2134  0.6350  0.7319
 2656TIP3   OH229602   3.820   0.464   0.026  0.0843 -0.2321 -0.0863
 2656TIP3    H129603   3.911   0.470  -0.003  0.3250  0.5727  0.7871
 2656TIP3    H229604   3.770   0.506  -0.043  0.3323 -0.9476 -0.7165
 2657TIP3   OH229605   1.009   3.421   8.137 -0.1845 -0.1794 -0.3306
 2657TIP3    H129606   1.018   3.425   8.232 -0.8450 -1.5881 -0.1929
 2657TIP3    H229607   1.016   3.328   8.115  0.6843  0.1840 -1.7457
 2658TIP3   OH229608   5.493   0.790   1.720 -0.0594 -0.1950  0.6122
 2658TIP3    H129609   5.588   0.784   1.719 -0.1377 -2.0509 -0.0033
 2658TIP3    H229610   5.474   0.876   1.682  1.3451 -0.4797 -0.8657
 2659TIP3   OH229611   0.696   3.476   1.433 -0.5798  0.0490  0.1144
 2659TIP3    H129612   0.631   3.489   1.502  0.1734  4.4519  0.2652
 2659TIP3    H229613   0.645   3.474   1.352 -1.0628  2.5721  0.2984
 2660TIP3   OH229614   0.449   4.352   2.232 -0.4641 -0.5787 -0.1887
 2660TIP3    H129615   0.388   4.318   2.297 -0.3173 -0.3107  0.0877
 2660TIP3    H229616   0.530   4.369   2.280 -0.5422  0.1903 -0.3121
 2661TIP3   OH229617   6.167   5.945   7.993  0.3730 -0.1433 -0.5282
 2661TIP3    H129618   6.206   5.883   8.055  1.4386  0.9004 -0.1265
 2661TIP3    H229619   6.179   6.031   8.034  0.0047  0.4503 -1.6275
 2662TIP3   OH229620   0.221   1.015   7.200  0.4290 -0.0894  0.1361
 2662TIP3    H129621   0.301   0.962   7.202  0.0271 -0.7179 -0.1965
 2662TIP3    H229622   0.247   1.099   7.239  0.9642 -0.6731  1.0639
 2663TIP3   OH229623   3.848   3.815   0.165 -0.5037  0.2024  0.3761
 2663TIP3    H129624   3.820   3.847   0.079 -0.0012  0.6309  0.3698
 2663TIP3    H229625   3.918   3.753   0.146 -0.6206  0.0445  0.4593
 2664TIP3   OH229626   1.029   6.413   7.752 -0.4716  0.4571  1.0358
 2664TIP3    H129627   0.969   6.477   7.788 -0.9311  0.3227  0.5199
 2664TIP3    H229628   1.086   6.389   7.825 -1.6774 -0.1632  1.7958
 2665TIP3   OH229629   0.514   1.472   2.309 -0.0598  0.2244 -0.5292
 2665TIP3    H129630   0.576   1.484   2.381 -2.2651  1.6470  1.2886
 2665TIP3    H229631   0.522   1.552   2.257 -0.4890  0.5388 -0.1319
 2666TIP3   OH229632   1.311   2.480   7.398 -0.5955  0.2173  0.5015
 2666TIP3    H129633   1.247   2.441   7.458  0.2375 -2.2744 -0.1142
 2666TIP3    H229634   1.281   2.453   7.311 -0.1299  1.2343  0.0209
 2667TIP3   OH229635   4.968   2.667   8.362 -0.3744 -0.2478 -0.4334
 2667TIP3    H129636   4.923   2.603   8.418 -2.1561 -0.6714 -2.2341
 2667TIP3    H229637   4.903   2.736   8.348  1.2250  1.5910  0.7443
 2668TIP3   OH229638   4.388   5.538   1.565 -0.3015 -0.2947 -0.0760
 2668TIP3    H129639   4.454   5.606   1.561  0.5202 -1.1210 -1.0330
 2668TIP3    H229640   4.437   5.456   1.571 -1.0076 -1.2134 -3.8658
 2669TIP3   OH229641   1.314   4.511   1.651 -0.1920 -0.7520  0.5115
 2669TIP3    H129642   1.292   4.559   1.571 -0.7799 -0.1848  1.0023
 2669TIP3    H229643   1.230   4.480   1.684  0.0883 -1.3113  0.7133
 2670TIP3   OH229644   0.510   6.578   0.581 -0.7810 -0.1874 -0.3477
 2670TIP3    H129645   0.526   6.549   0.670  0.9236 -1.3002 -0.9706
 2670TIP3    H229646   0.451   6.511   0.544  0.6745 -1.2392 -0.8423
 2671TIP3   OH229647   2.004   5.089   1.186 -0.1186  0.1117  0.5022
 2671TIP3    H129648   1.943   5.034   1.236 -1.0955  0.4686 -0.2692
 2671TIP3    H229649   2.001   5.054   1.097  0.9894 -0.0033  0.4996
 2672TIP3   OH229650   4.849   4.706   0.276  0.7045 -0.0706  0.4537
 2672TIP3    H129651   4.869   4.789   0.233  1.5726 -0.1895  0.6115
 2672TIP3    H229652   4.923   4.691   0.335 -0.4187  0.0513  1.9484
 2673TIP3   OH229653   2.744   1.258   0.293  1.0499  0.7240  0.2235
 2673TIP3    H129654   2.713   1.179   0.337  1.5427  0.3766 -0.0535
 2673TIP3    H229655   2.781   1.311   0.364  1.4468  0.3546  0.2959
 2674TIP3   OH229656   4.291   2.464   7.256 -0.2367  0.0017  0.0287
 2674TIP3    H129657   4.212   2.499   7.216 -1.4730 -2.5069  0.1127
 2674TIP3    H229658   4.358   2.473   7.187 -0.8946  0.9665 -0.5101
 2675TIP3   OH229659   6.603   5.254   6.858  0.4885 -0.2660  0.1896
 2675TIP3    H129660   6.686   5.206   6.861  1.3039  1.0852  0.3900
 2675TIP3    H229661   6.536   5.186   6.856  1.6256 -1.4241 -1.9627
 2676TIP3   OH229662   3.603   0.588   0.876  0.0036  0.6172  0.1312
 2676TIP3    H129663   3.524   0.535   0.887  0.2987 -0.1789 -1.3857
 2676TIP3    H229664   3.582   0.647   0.803  0.4147  1.1974  0.4728
 2677TIP3   OH229665   0.572   2.896   1.521 -0.1173  0.1608 -0.6180
 2677TIP3    H129666   0.590   2.980   1.565  0.9713 -0.4234  0.0965
 2677TIP3    H229667   0.486   2.870   1.554 -0.5477  1.0703 -0.9779
 2678TIP3   OH229668   5.685   0.641   7.017 -0.2532  0.2776 -0.3328
 2678TIP3    H129669   5.642   0.566   6.975  1.4079 -0.0184 -1.6266
 2678TIP3    H229670   5.736   0.602   7.089 -0.4440  0.3482 -0.1584
 2679TIP3   OH229671   0.615   1.492   0.052  0.1360 -0.5245  0.5760
 2679TIP3    H129672   0.677   1.421   0.070 -0.5546 -0.7397  2.3767
 2679TIP3    H229673   0.593   1.526   0.139 -1.3618  0.3230 -0.0982
 2680TIP3   OH229674   1.546   0.625   7.688  0.3000 -0.7243  0.0182
 2680TIP3    H129675   1.512   0.641   7.600  2.7188 -0.6563 -0.9850
 2680TIP3    H229676   1.517   0.699   7.740  0.7842  0.4682 -1.3501
 2681TIP3   OH229677   2.689   0.452   7.199 -0.1954 -0.1594  0.0880
 2681TIP3    H129678   2.729   0.419   7.118  2.1191  2.0770  0.1873
 2681TIP3    H229679   2.649   0.535   7.173 -0.6132 -0.0603  1.0177
 2682TIP3   OH229680   1.016   5.336   0.878 -0.5792  0.1031 -0.4331
 2682TIP3    H129681   0.988   5.418   0.837  1.6766  1.2580  0.1559
 2682TIP3    H229682   1.101   5.318   0.838  0.7145  0.1331  2.1120
 2683TIP3   OH229683   2.074   5.194   6.911  0.4083 -0.2166 -0.3240
 2683TIP3    H129684   2.132   5.238   6.847  1.4610 -0.6384  0.3160
 2683TIP3    H229685   1.999   5.253   6.919 -0.3529 -0.7008 -2.8313
 2684TIP3   OH229686   4.441   0.909   1.922 -0.0240  0.3006 -0.0996
 2684TIP3    H129687   4.518   0.933   1.974  0.9697 -0.4779 -1.1671
 2684TIP3    H229688   4.470   0.915   1.831 -0.9271 -0.9639 -0.5019
 2685TIP3   OH229689   3.481   5.590   0.306  0.1546 -0.6127  0.6372
 2685TIP3    H129690   3.420   5.634   0.247  0.1849 -0.6555  0.5729
 2685TIP3    H229691   3.559   5.576   0.252  0.8887  1.0389  1.2235
 2686TIP3   OH229692   2.171   5.262   7.179 -0.1206 -0.1962  0.0713
 2686TIP3    H129693   2.133   5.186   7.135 -2.2225  1.3701 -1.0084
 2686TIP3    H229694   2.106   5.331   7.169  1.6235  1.7402  1.1465
 2687TIP3   OH229695   2.816   4.298   1.206  0.1795 -0.0470  0.3181
 2687TIP3    H129696   2.804   4.290   1.300  0.3345  2.3419  0.5848
 2687TIP3    H229697   2.729   4.320   1.172  0.1810 -0.6225 -0.0828
 2688TIP3   OH229698   0.830   5.689   7.718 -0.0686  0.8324  0.3385
 2688TIP3    H129699   0.887   5.745   7.665 -0.2733  1.7931  1.1143
 2688TIP3    H229700   0.861   5.600   7.699 -1.0298  0.9812 -2.4809
 2689TIP3   OH229701   0.503   3.923   0.783 -0.4923  0.3496 -0.0018
 2689TIP3    H129702   0.558   3.931   0.861  0.0275  0.9506 -0.4140
 2689TIP3    H229703   0.468   4.011   0.770 -1.0603  0.1134 -0.1038
 2690TIP3   OH229704   5.793   5.694   1.345 -0.2182  1.0101  0.4777
 2690TIP3    H129705   5.866   5.676   1.405 -1.7504  2.8302  3.1019
 2690TIP3    H229706   5.785   5.789   1.346 -1.8192  0.9221 -0.7933
 2691TIP3   OH229707   4.591   5.939   1.581 -0.1136 -0.0822 -0.0853
 2691TIP3    H129708   4.516   5.991   1.552 -0.0378  0.7584  1.1533
 2691TIP3    H229709   4.664   6.001   1.580  0.1421 -0.3685  0.6631
 2692TIP3   OH229710   5.413   1.351   8.139  0.1443 -0.7037 -0.2610
 2692TIP3    H129711   5.339   1.374   8.082  0.9809 -1.0962 -1.5417
 2692TIP3    H229712   5.474   1.306   8.082  0.7372 -1.7024  1.1201
 2693TIP3   OH229713   0.658   2.919   7.356  0.4307  0.3021  0.1885
 2693TIP3    H129714   0.683   2.930   7.448  1.3704  2.1265 -0.2183
 2693TIP3    H229715   0.736   2.880   7.315  0.1240 -0.2290  0.1091
 2694TIP3   OH229716   3.342   0.322   7.352  0.2433  0.2700  0.4154
 2694TIP3    H129717   3.384   0.405   7.373  0.9097  0.0319  0.0469
 2694TIP3    H229718   3.403   0.255   7.382 -0.3859 -0.0911  0.9017
 2695TIP3   OH229719   6.515   3.865   1.107  0.2846 -0.0161 -0.1720
 2695TIP3    H129720   6.471   3.810   1.172 -0.1409 -2.9471 -2.7011
 2695TIP3    H229721   6.590   3.813   1.079 -0.4019  0.3524 -3.0357
 2696TIP3   OH229722   5.933   5.872   6.473 -0.1868  0.3175  0.0398
 2696TIP3    H129723   5.973   5.856   6.559 -0.7133  0.6500  0.3486
 2696TIP3    H229724   5.897   5.787   6.447 -2.1029  0.7048  1.2291
 2697TIP3   OH229725   6.705   4.246   7.884  0.0722  0.0900 -0.0442
 2697TIP3    H129726   6.713   4.285   7.971  0.9569 -0.5130  0.1517
 2697TIP3    H229727   6.664   4.315   7.831 -0.8388  0.3216  0.9254
 2698TIP3   OH229728   6.159   1.303   6.351 -0.3578  0.4126  0.1071
 2698TIP3    H129729   6.229   1.241   6.332 -0.0378  0.5907  0.7002
 2698TIP3    H229730   6.095   1.252   6.401  0.4838  0.8526  1.6977
 2699TIP3   OH229731   6.315   1.107   6.946  0.0752  0.2233  0.0629
 2699TIP3    H129732   6.349   1.018   6.942  1.1413  0.6132  0.1555
 2699TIP3    H229733   6.392   1.163   6.939 -0.6893  1.1764 -1.6256
 2700TIP3   OH229734   4.149   0.866   1.518 -0.0877  0.6620  0.4742
 2700TIP3    H129735   4.108   0.894   1.600 -0.2967 -0.4719  0.7678
 2700TIP3    H229736   4.230   0.824   1.545 -0.1922  0.2173  0.0968
 2701TIP3   OH229737   3.187   4.037   7.711 -0.1044  0.4681 -0.4318
 2701TIP3    H129738   3.198   3.947   7.680 -1.3923  0.0459  0.2335
 2701TIP3    H229739   3.217   4.092   7.639  2.4697 -0.4586 -0.1876
 2702TIP3   OH229740   5.290   4.120   2.157 -0.2520  0.3941  0.1401
 2702TIP3    H129741   5.338   4.201   2.139 -0.7812  0.5412 -0.6808
 2702TIP3    H229742   5.239   4.140   2.236 -0.0942  0.7288  0.1593
 2703TIP3   OH229743   0.968   1.024   8.467  0.1966  0.0573  0.8566
 2703TIP3    H129744   0.935   1.112   8.485  1.5930  0.8447 -0.1802
 2703TIP3    H229745   0.893   0.966   8.479 -1.6617  1.7542 -1.5926
 2704TIP3   OH229746   2.814   5.241   8.421  0.1672  0.1715  0.8634
 2704TIP3    H129747   2.844   5.299   8.491  0.7122  1.2934 -0.2820
 2704TIP3    H229748   2.719   5.251   8.422  0.3276  2.9626 -0.8062
 2705TIP3   OH229749   2.626   1.989   0.555 -0.6393 -0.3910  0.5047
 2705TIP3    H129750   2.636   2.063   0.495 -0.7435 -1.6161 -1.0780
 2705TIP3    H229751   2.714   1.974   0.589 -1.0066  1.9269  2.7285
 2706TIP3   OH229752   6.512   5.406   0.245  0.0366  0.1010  0.0891
 2706TIP3    H129753   6.588   5.423   0.190  0.6921 -1.6919  0.3793
 2706TIP3    H229754   6.474   5.326   0.210 -2.4495  1.5627 -0.7720
 2707TIP3   OH229755   2.582   2.496   1.620 -0.2995 -0.3151 -0.5347
 2707TIP3    H129756   2.522   2.450   1.679 -0.7292  0.1488 -0.5987
 2707TIP3    H229757   2.552   2.473   1.533  1.6345 -2.7222 -0.6649
 2708TIP3   OH229758   1.790   5.307   7.332 -0.6418  0.2497 -0.3824
 2708TIP3    H129759   1.763   5.337   7.419  0.9506 -0.3751  0.3881
 2708TIP3    H229760   1.840   5.381   7.296 -0.2151  0.0439 -0.2185
 2709TIP3   OH229761   4.897   3.811   0.618  0.3204  0.1488 -0.2155
 2709TIP3    H129762   4.851   3.744   0.669  0.7824  0.2279  0.3133
 2709TIP3    H229763   4.862   3.802   0.529  0.2885 -0.7134 -0.1218
 2710TIP3   OH229764   5.341   1.119   0.436  0.5297 -0.3923 -0.5118
 2710TIP3    H129765   5.409   1.162   0.384  0.8442 -0.1527  0.0872
 2710TIP3    H229766   5.382   1.039   0.469  1.9254  1.5838  3.0851
 2711TIP3   OH229767   2.207   0.535   6.368 -0.3773  0.4886  0.3900
 2711TIP3    H129768   2.274   0.603   6.365  0.5264 -0.3822  0.4555
 2711TIP3    H229769   2.126   0.583   6.384  0.1867  1.5805  0.1242
 2712TIP3   OH229770   2.548   5.799   6.851  0.7010  0.2343  0.1152
 2712TIP3    H129771   2.557   5.802   6.946 -0.5951 -0.6024  0.2889
 2712TIP3    H229772   2.510   5.884   6.828 -1.8416 -0.6401  0.7416
 2713TIP3   OH229773   4.059   6.703   7.327  0.4673  0.2181  0.0611
 2713TIP3    H129774   3.980   6.660   7.360  0.2587  0.5778  0.0354
 2713TIP3    H229775   4.039   6.722   7.235  1.2066 -1.1720 -0.4074
 2714TIP3   OH229776   2.022   0.041   7.601 -0.0857 -0.0503 -0.1633
 2714TIP3    H129777   1.970   0.082   7.670 -2.1823 -0.0885 -1.6328
 2714TIP3    H229778   2.054   0.114   7.548 -0.8894 -0.1229 -0.7682
 2715TIP3   OH229779   2.319   4.697   8.602  0.1335 -0.4552 -0.0608
 2715TIP3    H129780   2.381   4.751   8.651  0.5754  0.1987 -1.2953
 2715TIP3    H229781   2.316   4.615   8.650  1.5222 -0.2939  0.3485
 2716TIP3   OH229782   2.707   1.174   6.992  0.3297  0.1872  0.1138
 2716TIP3    H129783   2.642   1.139   7.052  1.4144 -0.2478  1.0620
 2716TIP3    H229784   2.674   1.152   6.905 -1.8948  1.9095  0.4407
 2717TIP3   OH229785   4.592   4.916   0.639  0.4691  0.1357  0.0560
 2717TIP3    H129786   4.682   4.936   0.613  0.5255  1.9559  1.5317
 2717TIP3    H229787   4.538   4.972   0.584  0.3991  1.1226  1.1068
 2718TIP3   OH229788   6.163   4.801   8.298  0.3418  0.5858  0.1191
 2718TIP3    H129789   6.196   4.715   8.273 -1.4877  0.2809 -1.4558
 2718TIP3    H229790   6.242   4.853   8.315  1.5322 -0.8768 -0.6594
 2719TIP3   OH229791   0.424   4.671   1.409 -0.6185  0.2314 -0.3932
 2719TIP3    H129792   0.518   4.676   1.392 -0.6408  0.7370 -0.3589
 2719TIP3    H229793   0.388   4.750   1.370 -0.6187  1.7024  2.3696
 2720TIP3   OH229794   4.743   3.212   8.163 -0.5019  0.2274  0.7013
 2720TIP3    H129795   4.748   3.128   8.118  0.0748  0.9410 -0.6122
 2720TIP3    H229796   4.739   3.277   8.093 -1.3189  1.2880  1.6919
 2721TIP3   OH229797   5.367   1.853   0.216  0.2062  0.5514  0.0393
 2721TIP3    H129798   5.366   1.889   0.305 -0.6145 -1.1002  0.7446
 2721TIP3    H229799   5.394   1.926   0.161  1.7090  1.3763  1.7492
 2722TIP3   OH229800   4.270   2.979   0.009 -0.2887  0.4213  0.1876
 2722TIP3    H129801   4.311   2.941  -0.069  0.5508  1.4279  0.1228
 2722TIP3    H229802   4.176   2.974  -0.009 -0.1703 -0.7549 -0.2142
 2723TIP3   OH229803   6.622   2.528   2.103 -0.0096 -0.1739  0.4839
 2723TIP3    H129804   6.606   2.574   2.184 -2.0854  2.3308 -1.2046
 2723TIP3    H229805   6.712   2.552   2.079  1.1307 -1.9722  2.4960
 2724TIP3   OH229806   4.179   6.849   1.510 -0.0730  0.0783 -0.1735
 2724TIP3    H129807   4.202   6.942   1.512  0.3223  0.0799 -2.1363
 2724TIP3    H229808   4.122   6.840   1.434 -1.9866 -0.9349  1.3070
 2725TIP3   OH229809   5.176   2.251   8.417  0.3726  0.2697  0.3192
 2725TIP3    H129810   5.117   2.289   8.353  1.1173  2.1915  0.7110
 2725TIP3    H229811   5.264   2.276   8.386  0.8952 -1.0803  0.6470
 2726TIP3   OH229812   3.128   3.695   2.362 -0.1826 -0.3525  0.3330
 2726TIP3    H129813   3.043   3.694   2.406 -0.1899  0.2606  0.3399
 2726TIP3    H229814   3.115   3.647   2.281 -0.9629  1.1056 -0.4406
 2727TIP3   OH229815   3.562   4.439   1.314  0.3270  0.4126  0.3701
 2727TIP3    H129816   3.646   4.404   1.284  0.2516  2.4172 -2.6274
 2727TIP3    H229817   3.499   4.411   1.248 -0.3200  3.2313 -0.3284
 2728TIP3   OH229818   0.999   2.583   7.419 -0.9681  0.6645  0.0312
 2728TIP3    H129819   0.958   2.508   7.461  1.1388 -0.0647  0.9490
 2728TIP3    H229820   1.035   2.634   7.491 -0.7573  1.5479 -0.6900
 2729TIP3   OH229821   3.519   4.455   8.642  0.3387 -0.1195 -0.4511
 2729TIP3    H129822   3.541   4.450   8.549 -1.0008 -0.9756 -0.7398
 2729TIP3    H229823   3.460   4.530   8.649 -0.6957 -0.9066 -0.5466
 2730TIP3   OH229824   1.621   4.422   8.299 -0.0275 -0.2199  0.7942
 2730TIP3    H129825   1.693   4.360   8.297  0.6539  0.5452  1.2649
 2730TIP3    H229826   1.602   4.435   8.392 -1.0656 -0.7391  0.6700
 2731TIP3   OH229827   2.829   4.746   8.027  0.1773  0.4320 -0.1101
 2731TIP3    H129828   2.799   4.655   8.021  0.7483  0.3307 -1.8891
 2731TIP3    H229829   2.754   4.798   7.997 -0.0529  0.5480  0.6420
 2732TIP3   OH229830   2.686   3.076   1.776  0.4560  0.1148 -0.1695
 2732TIP3    H129831   2.656   3.079   1.685 -0.8915 -0.4342  0.2337
 2732TIP3    H229832   2.627   3.134   1.823  2.2299  1.8130  0.1176
 2733TIP3   OH229833   0.224   3.478   7.425 -0.1815 -0.2463 -0.4576
 2733TIP3    H129834   0.130   3.489   7.411 -0.1056 -0.4778 -1.1969
 2733TIP3    H229835   0.246   3.540   7.495 -1.2191 -1.4881  1.0547
 2734TIP3   OH229836   2.652   1.824   7.397 -0.0101 -0.0257 -0.1890
 2734TIP3    H129837   2.563   1.849   7.372 -0.4020 -1.7356 -0.6476
 2734TIP3    H229838   2.703   1.833   7.316 -0.0536 -0.2310 -0.2413
 2735TIP3   OH229839   4.652   4.762   1.837  0.4582  0.0040  0.4426
 2735TIP3    H129840   4.729   4.818   1.845  2.0129 -2.0998  1.2822
 2735TIP3    H229841   4.605   4.773   1.919 -0.4917  1.6731 -0.2664
 2736TIP3   OH229842   1.921   2.090   1.411  0.3766  0.2495  0.4188
 2736TIP3    H129843   1.903   2.150   1.339 -0.1836 -0.5573 -0.1266
 2736TIP3    H229844   1.997   2.127   1.455  1.6941 -0.0441 -1.4995
 2737TIP3   OH229845   2.123   0.246   8.435  0.8827 -0.0172  0.2862
 2737TIP3    H129846   2.051   0.287   8.484 -0.8119 -0.7503 -1.4621
 2737TIP3    H229847   2.190   0.228   8.501 -0.8480  0.0024  2.1355
 2738TIP3   OH229848   4.127   3.617   1.747 -0.0193  0.2528  0.0028
 2738TIP3    H129849   4.043   3.628   1.702 -0.4624  1.6566  1.1001
 2738TIP3    H229850   4.121   3.531   1.789 -1.3331  0.7704  0.9072
 2739TIP3   OH229851   1.540   4.558   0.516 -0.2879 -0.2698  0.3819
 2739TIP3    H129852   1.462   4.510   0.546 -1.3228  0.9113 -0.3177
 2739TIP3    H229853   1.506   4.622   0.454  1.0263  1.4289  1.3220
 2740TIP3   OH229854   4.621   3.242   8.419 -0.1858 -0.2495 -0.8579
 2740TIP3    H129855   4.674   3.219   8.343 -0.0390 -1.2667 -0.4668
 2740TIP3    H229856   4.673   3.306   8.466  1.0599 -1.7574 -0.1014
 2741TIP3   OH229857   3.466   1.243   1.540 -0.6978 -0.1612  0.0945
 2741TIP3    H129858   3.441   1.226   1.449  0.9100  2.0868 -0.8423
 2741TIP3    H229859   3.551   1.201   1.550 -0.0949  1.0244  0.0239
 2742TIP3   OH229860   4.059   6.319   8.349 -0.1857  0.0822 -0.0092
 2742TIP3    H129861   3.990   6.313   8.414  0.4866  0.6179  0.7699
 2742TIP3    H229862   4.100   6.404   8.364 -0.9024  0.8484 -2.0511
 2743TIP3   OH229863   4.187   1.258   0.007 -0.4414 -0.0631 -0.1746
 2743TIP3    H129864   4.184   1.344   0.049 -0.7407 -0.3919  0.4855
 2743TIP3    H229865   4.263   1.264  -0.052  1.8732 -0.5257  2.5483
 2744TIP3   OH229866   1.248   5.675   1.591  0.0943  0.3252 -0.1958
 2744TIP3    H129867   1.255   5.580   1.591  1.0257  0.3877  0.5066
 2744TIP3    H229868   1.322   5.705   1.539  0.5957  0.7086  0.7177
 2745TIP3   OH229869   1.086   0.959   1.011 -0.1575  0.3884  0.4583
 2745TIP3    H129870   1.170   1.003   1.020 -0.5536  0.9793  1.4860
 2745TIP3    H229871   1.095   0.877   1.059 -0.2607  0.5821  0.8058
 2746TIP3   OH229872   0.589   3.667   7.147  0.2929  0.4092 -0.1703
 2746TIP3    H129873   0.593   3.599   7.080 -0.2357 -1.0624  1.2336
 2746TIP3    H229874   0.678   3.701   7.153  1.1485 -1.8168  0.7191
 2747TIP3   OH229875   6.766   5.028   1.420  0.5013  0.6700  0.6758
 2747TIP3    H129876   6.687   5.042   1.472  0.1783  1.3172  0.0191
 2747TIP3    H229877   6.820   4.970   1.474 -0.1459  0.7309  1.4018
 2748TIP3   OH229878   5.967   6.329   1.235  0.1922 -0.2552 -0.0666
 2748TIP3    H129879   5.972   6.323   1.140  1.5799  1.2307 -0.1246
 2748TIP3    H229880   5.990   6.419   1.255 -1.9577  0.0053  1.5878
 2749TIP3   OH229881   3.451   3.350   8.071 -0.0481  0.1358 -0.4459
 2749TIP3    H129882   3.495   3.305   8.000  1.7654  0.3356  0.4876
 2749TIP3    H229883   3.463   3.443   8.052 -1.1576  0.2139 -0.8122
 2750TIP3   OH229884   5.590   1.532   8.258  0.3129  0.6656  0.7844
 2750TIP3    H129885   5.626   1.592   8.193 -1.1109  0.3861 -0.3156
 2750TIP3    H229886   5.530   1.476   8.209  0.2248 -0.4721  2.1094
 2751TIP3   OH229887   5.469   5.865   7.153  0.5218  0.0808  0.1884
 2751TIP3    H129888   5.518   5.942   7.182  1.0888  0.0954 -0.7773
 2751TIP3    H229889   5.379   5.880   7.183  0.6188  1.1468 -0.0459
 2752TIP3   OH229890   0.809   0.215   8.386 -0.6529 -0.2100 -0.3225
 2752TIP3    H129891   0.723   0.209   8.427 -0.8491 -1.0794 -0.8500
 2752TIP3    H229892   0.792   0.259   8.303 -0.4747  0.2279 -0.1331
 2753TIP3   OH229893   5.924   4.242   7.378 -0.2119 -0.1535  0.2239
 2753TIP3    H129894   5.946   4.319   7.430  1.4836 -0.7111  0.4130
 2753TIP3    H229895   5.914   4.171   7.442  1.0405 -0.6580 -0.0907
 2754TIP3   OH229896   6.364   4.850   8.615  0.4841  0.3826  0.6539
 2754TIP3    H129897   6.414   4.851   8.697  1.0068 -0.2636  0.3578
 2754TIP3    H229898   6.400   4.775   8.567  0.7289  1.2234 -0.4970
 2755TIP3   OH229899   5.152   5.546   0.077 -0.0934  0.2063 -0.2263
 2755TIP3    H129900   5.116   5.558  -0.011 -0.9032  1.5307  0.2558
 2755TIP3    H229901   5.205   5.625   0.092  0.2491 -0.1344  0.3791
 2756TIP3   OH229902   0.170   0.709   8.289 -0.0154  0.1477 -0.2523
 2756TIP3    H129903   0.257   0.677   8.313 -0.4061 -1.8328 -1.2215
 2756TIP3    H229904   0.187   0.789   8.239  1.4384 -1.2456 -2.1385
 2757TIP3   OH229905   4.509   6.695   1.858  0.0467  0.7541 -0.2799
 2757TIP3    H129906   4.585   6.646   1.890 -0.8802 -1.8748 -1.8109
 2757TIP3    H229907   4.443   6.685   1.926 -0.3241 -0.7240 -0.8146
 2758TIP3   OH229908   1.081   1.877   1.305  0.0332 -0.2513 -0.1307
 2758TIP3    H129909   1.019   1.819   1.349 -0.2208  0.5014  0.5029
 2758TIP3    H229910   1.136   1.911   1.375  1.5112 -1.2843 -0.7319
 2759TIP3   OH229911   6.020   0.303   0.434 -0.3490  0.1806  0.5074
 2759TIP3    H129912   6.109   0.326   0.408  0.0425 -0.5059  1.1873
 2759TIP3    H229913   5.986   0.252   0.361  0.0841 -0.1928  0.5663
 2760TIP3   OH229914   0.649   4.529   6.151  0.1519 -0.0931 -0.0809
 2760TIP3    H129915   0.657   4.517   6.057 -0.3034 -2.1453  0.0952
 2760TIP3    H229916   0.580   4.469   6.178 -0.8977  1.6408  1.3704
 2761TIP3   OH229917   2.552   0.278   0.139 -0.0253  0.1428  0.0356
 2761TIP3    H129918   2.527   0.289   0.231 -0.4124 -0.4633  0.0130
 2761TIP3    H229919   2.485   0.326   0.090 -1.6589 -2.0782 -0.0602
 2762TIP3   OH229920   3.765   0.261   0.975 -0.1369  0.1361  0.1442
 2762TIP3    H129921   3.763   0.186   0.916 -1.7077  0.1790  0.1154
 2762TIP3    H229922   3.682   0.306   0.961  0.5462  1.5917  0.5548
 2763TIP3   OH229923   5.610   5.490   0.961 -0.3271 -1.1169  0.4528
 2763TIP3    H129924   5.587   5.550   0.890  0.1630 -1.4180  0.0373
 2763TIP3    H229925   5.525   5.466   1.000 -0.6537 -1.5340 -0.4986
 2764TIP3   OH229926   6.080   6.064   8.470 -0.7544 -0.4430  0.1635
 2764TIP3    H129927   6.169   6.054   8.506 -0.1028 -1.3411 -1.6000
 2764TIP3    H229928   6.057   5.977   8.439 -1.8873  0.0017 -0.2755
 2765TIP3   OH229929   3.684   1.744   1.614  0.0606 -0.0060  0.0072
 2765TIP3    H129930   3.601   1.791   1.618  0.3042  0.6885 -1.8745
 2765TIP3    H229931   3.725   1.761   1.699 -1.0660  0.9002  0.3994
 2766TIP3   OH229932   1.184   3.101   7.590  0.0241  0.1504  0.8887
 2766TIP3    H129933   1.172   3.126   7.499  1.0238 -0.8476  0.4503
 2766TIP3    H229934   1.102   3.059   7.615  1.2229 -3.8267 -1.0709
 2767TIP3   OH229935   6.783   6.596   0.717  0.5743  0.7681 -0.0962
 2767TIP3    H129936   6.738   6.602   0.802 -0.7632  1.4144 -0.8187
 2767TIP3    H229937   6.789   6.502   0.700  0.7710  0.6320  0.6718
 2768TIP3   OH229938   2.784   5.428   0.227  0.5455 -0.5383 -0.1687
 2768TIP3    H129939   2.851   5.496   0.239  1.0343 -1.0104 -0.1814
 2768TIP3    H229940   2.756   5.406   0.316 -1.4143  1.4176 -0.2327
 2769TIP3   OH229941   1.881   4.354   1.303 -0.1306 -0.4405 -0.6669
 2769TIP3    H129942   1.788   4.356   1.324 -0.0542 -0.2622 -0.3179
 2769TIP3    H229943   1.911   4.443   1.321  0.2750 -0.7100  0.0439
 2770TIP3   OH229944   2.155   2.056   1.645 -0.1781  0.2020  0.3700
 2770TIP3    H129945   2.165   2.053   1.740  0.4722  0.5149  0.3144
 2770TIP3    H229946   2.182   1.969   1.616  0.2592  0.3154  0.4204
 2771TIP3   OH229947   5.217   0.148   8.112 -0.4235 -0.5068  0.0682
 2771TIP3    H129948   5.296   0.094   8.103  0.2345  0.0116  2.2496
 2771TIP3    H229949   5.146   0.091   8.081  0.7292 -1.1116 -1.5773
 2772TIP3   OH229950   1.375   5.609   7.536  0.0075 -0.0071  0.0547
 2772TIP3    H129951   1.459   5.640   7.568  0.4431  0.3525 -1.3362
 2772TIP3    H229952   1.392   5.520   7.506 -0.4711 -0.4628  1.1128
 2773TIP3   OH229953   2.940   1.120   8.215  0.1335 -0.5771 -0.0423
 2773TIP3    H129954   2.960   1.214   8.214  0.0522 -0.5312 -1.8567
 2773TIP3    H229955   2.862   1.112   8.160 -0.0625 -1.6752  0.3663
 2774TIP3   OH229956   4.133   6.783   7.873 -0.5872  0.3452 -0.0840
 2774TIP3    H129957   4.147   6.761   7.781 -1.7721 -2.8117  0.3274
 2774TIP3    H229958   4.040   6.806   7.877 -0.7678 -0.4168  0.3997
 2775TIP3   OH229959   6.542   3.297   7.130  0.0347 -0.1609 -0.7505
 2775TIP3    H129960   6.609   3.262   7.072 -0.8672  0.2007 -2.0654
 2775TIP3    H229961   6.460   3.283   7.083 -0.8287 -0.5554  0.7998
 2776TIP3   OH229962   3.579   6.203   8.457 -0.4738  0.3312 -0.2745
 2776TIP3    H129963   3.567   6.298   8.465 -0.7982  0.1743  1.4064
 2776TIP3    H229964   3.667   6.187   8.490 -1.0017 -0.1103  0.9700
 2777TIP3   OH229965   1.850   1.727   0.356  0.5996 -0.0446  0.0391
 2777TIP3    H129966   1.815   1.700   0.441 -0.2068  0.1374 -0.2205
 2777TIP3    H229967   1.809   1.812   0.339  0.3904 -0.2915 -0.7408
 2778TIP3   OH229968   3.469   4.035   7.833 -0.1530  0.0911 -0.5677
 2778TIP3    H129969   3.444   4.126   7.852  0.3213  0.1720 -0.3200
 2778TIP3    H229970   3.387   3.986   7.842 -0.0252  0.1456  1.5968
 2779TIP3   OH229971   3.880   1.264   1.093  0.3853 -0.6560 -0.4986
 2779TIP3    H129972   3.974   1.273   1.076  0.2315 -0.1573 -1.1169
 2779TIP3    H229973   3.856   1.346   1.138  0.7483 -1.8669  2.0954
 2780TIP3   OH229974   5.246   4.945   7.381 -0.0920 -0.2851  0.0041
 2780TIP3    H129975   5.333   4.980   7.360 -0.5916  2.2960  1.8555
 2780TIP3    H229976   5.209   4.922   7.296  2.0026 -0.5487 -0.9101
 2781TIP3   OH229977   1.356   2.572   6.292  0.4119 -0.3125  0.3396
 2781TIP3    H129978   1.396   2.603   6.373 -0.6215  3.3614 -0.3685
 2781TIP3    H229979   1.262   2.575   6.308  0.1707  0.9490 -1.0562
 2782TIP3   OH229980   2.311   1.110   0.941  0.2848  0.0308 -0.1754
 2782TIP3    H129981   2.360   1.032   0.966  1.0065  1.2040  2.4043
 2782TIP3    H229982   2.369   1.183   0.965 -1.6947  1.4021  0.6545
 2783TIP3   OH229983   3.799   4.640   7.540  0.3189 -0.1759 -0.5038
 2783TIP3    H129984   3.746   4.636   7.461 -0.0565 -1.3303 -0.2087
 2783TIP3    H229985   3.781   4.726   7.577 -2.5353 -1.0678  0.3940
 2784TIP3   OH229986   2.127   2.713   8.195  0.4086  0.4865  0.8798
 2784TIP3    H129987   2.086   2.782   8.246  0.8115  1.9362 -0.6673
 2784TIP3    H229988   2.220   2.735   8.193  0.7970 -0.9609  1.6292
 2785TIP3   OH229989   2.854   0.553   6.194  0.6078  0.3143 -0.4923
 2785TIP3    H129990   2.766   0.577   6.222  0.7355  1.7049 -1.2063
 2785TIP3    H229991   2.871   0.468   6.235 -1.2907 -0.2569 -0.8254
 2786TIP3   OH229992   4.397   3.046   8.340  0.3849  0.7171  0.2164
 2786TIP3    H129993   4.469   3.089   8.386  0.8399  0.2224 -0.0124
 2786TIP3    H229994   4.423   3.048   8.248 -0.6622  1.9745 -0.0789
 2787TIP3   OH229995   3.352   3.369   8.415  0.3091 -0.0091 -0.2540
 2787TIP3    H129996   3.317   3.457   8.399 -1.1270 -0.8152 -1.8092
 2787TIP3    H229997   3.419   3.357   8.348 -0.7684 -0.7493 -1.2274
 2788TIP3   OH229998   2.479   2.411   7.494  0.1259  0.1233 -0.5666
 2788TIP3    H129999   2.482   2.343   7.562 -1.8444  2.7372  2.3937
 2788TIP3    H230000   2.570   2.436   7.481  0.6370 -1.2160  0.2543
 2789TIP3   OH230001   0.355   3.258   1.729 -0.4392  0.3678  0.3344
 2789TIP3    H130002   0.260   3.249   1.736 -0.1668 -1.7887  2.4424
 2789TIP3    H230003   0.373   3.346   1.763 -1.5881  0.3242  1.1207
 2790TIP3   OH230004   5.580   4.077   7.604 -0.6099  0.0784  0.4885
 2790TIP3    H130005   5.593   4.170   7.622  2.2971 -0.3180  0.8152
 2790TIP3    H230006   5.505   4.075   7.544 -1.3529  2.5243  1.2196
 2791TIP3   OH230007   3.376   0.237   7.089 -0.5393  0.0510 -0.2567
 2791TIP3    H130008   3.364   0.276   7.175 -0.2542 -0.3832 -0.0149
 2791TIP3    H230009   3.471   0.236   7.076 -0.4851 -1.3302  0.1118
 2792TIP3   OH230010   1.395   6.800   0.652  0.0886 -0.1967  0.2616
 2792TIP3    H130011   1.351   6.819   0.569 -0.4344  0.9246  0.7720
 2792TIP3    H230012   1.325   6.806   0.718  1.1518  2.9582  1.2841
 2793TIP3   OH230013   0.740   5.841   7.949 -0.8594  0.3040  0.2002
 2793TIP3    H130014   0.702   5.756   7.971 -0.7043  0.0040 -0.6446
 2793TIP3    H230015   0.777   5.828   7.862 -0.2499  1.0540  0.3419
 2794TIP3   OH230016   5.932   1.788   7.955 -0.4085 -0.3995  0.1716
 2794TIP3    H130017   5.994   1.801   8.027 -1.0411 -1.9544  1.0391
 2794TIP3    H230018   5.866   1.857   7.967  1.2590  1.5376 -0.9927
 2795TIP3   OH230019   5.613   1.078   8.639  0.3125 -0.3712  0.1759
 2795TIP3    H130020   5.681   1.106   8.701  0.0060 -0.0321  0.3581
 2795TIP3    H230021   5.626   1.133   8.563  0.7421 -0.8443 -0.0973
 2796TIP3   OH230022   3.260   4.100   5.981 -0.7537  0.5377 -0.3086
 2796TIP3    H130023   3.240   4.067   6.068 -0.7233 -1.8381 -1.1239
 2796TIP3    H230024   3.344   4.059   5.959 -0.0610  2.1976 -0.9502
 2797TIP3   OH230025   0.507   2.918   1.172 -0.5143  0.2391 -0.0011
 2797TIP3    H130026   0.439   2.851   1.179  0.6591 -1.2443 -1.9254
 2797TIP3    H230027   0.521   2.948   1.262 -1.4078 -1.7518  0.8492
 2798TIP3   OH230028   6.554   4.308   2.019  0.8608  0.2573 -0.0550
 2798TIP3    H130029   6.544   4.342   2.107  0.8759  0.7788 -0.2511
 2798TIP3    H230030   6.566   4.214   2.030  1.7310  0.4401  0.5467
 2799TIP3   OH230031   5.427   3.760   1.248 -0.6082 -0.5508  0.3303
 2799TIP3    H130032   5.348   3.812   1.234 -0.9220 -1.5013 -1.9429
 2799TIP3    H230033   5.400   3.670   1.227  1.4611 -0.6412 -2.4202
 2800TIP3   OH230034   0.635   3.567   0.901 -0.0362 -0.0218 -0.0437
 2800TIP3    H130035   0.596   3.628   0.964 -0.4620 -1.9657  1.6556
 2800TIP3    H230036   0.678   3.624   0.837  1.4563  2.0999  2.6089
 2801TIP3   OH230037   3.161   3.235   7.144 -0.1551 -0.2103 -0.1687
 2801TIP3    H130038   3.093   3.301   7.129  0.6518 -0.1314 -4.7795
 2801TIP3    H230039   3.123   3.153   7.113  0.7119 -0.8314  0.3593
 2802TIP3   OH230040   2.921   3.250   1.236  0.3498 -0.6232  0.0442
 2802TIP3    H130041   2.906   3.263   1.330 -1.5247 -0.6258 -0.2037
 2802TIP3    H230042   2.833   3.245   1.199  0.9199  2.7667 -2.2328
 2803TIP3   OH230043   4.900   6.047   1.093 -0.2691  0.0381 -0.6294
 2803TIP3    H130044   4.861   6.126   1.055 -0.5452 -0.0065 -0.4366
 2803TIP3    H230045   4.993   6.053   1.071 -0.6338 -0.7035 -2.6025
 2804TIP3   OH230046   1.931   6.745   7.440  0.2182 -0.0548 -0.2733
 2804TIP3    H130047   1.961   6.819   7.492  0.3635  0.1278 -0.6104
 2804TIP3    H230048   1.837   6.759   7.430  0.0494 -0.4917  0.5680
 2805TIP3   OH230049   5.059   2.527   1.157  0.3145  0.1818 -0.0112
 2805TIP3    H130050   5.136   2.548   1.211 -0.8607  0.6596  1.5744
 2805TIP3    H230051   5.002   2.603   1.169 -0.2313  0.0308 -1.5227
 2806TIP3   OH230052   3.253   5.926   8.288  0.1162  0.3430 -0.1777
 2806TIP3    H130053   3.342   5.940   8.257  0.5090 -1.4024  0.0717
 2806TIP3    H230054   3.197   5.955   8.216  0.9669 -1.5076 -1.6865
 2807TIP3   OH230055   4.512   2.950   0.469 -0.3658 -0.2005 -0.1022
 2807TIP3    H130056   4.416   2.947   0.475 -0.2730 -1.3455  1.1859
 2807TIP3    H230057   4.532   3.043   0.459 -1.5754  0.1282  0.3472
 2808TIP3   OH230058   2.277   1.081   6.413 -0.1014  0.2929 -0.1081
 2808TIP3    H130059   2.333   1.048   6.483  0.8153  0.8517 -0.5427
 2808TIP3    H230060   2.339   1.106   6.343 -1.0190 -0.9570 -1.4252
 2809TIP3   OH230061   5.291   4.462   1.237  0.0193  0.5484  0.1958
 2809TIP3    H130062   5.280   4.429   1.148 -0.3838 -0.1269  0.4846
 2809TIP3    H230063   5.217   4.522   1.250 -1.2002 -1.0232  0.8050
 2810TIP3   OH230064   1.692   4.437   1.849  0.4209 -0.0112 -0.0020
 2810TIP3    H130065   1.772   4.415   1.802  0.6071  0.9993 -0.1829
 2810TIP3    H230066   1.717   4.507   1.909 -0.3218  0.3012 -0.0438
 2811TIP3   OH230067   2.499   3.098   1.242  0.2997  0.0103  0.1609
 2811TIP3    H130068   2.540   3.130   1.162  0.0924 -1.1682 -0.4474
 2811TIP3    H230069   2.572   3.079   1.301  0.4198  1.6594  0.5930
 2812TIP3   OH230070   1.079   5.795   0.759 -0.1519 -0.3158 -0.2527
 2812TIP3    H130071   1.042   5.874   0.797 -0.9735 -0.7870 -0.0491
 2812TIP3    H230072   1.024   5.776   0.684  1.0921  0.2614 -1.3430
 2813TIP3   OH230073   4.705   6.102   2.042  0.6630 -0.2278 -0.3722
 2813TIP3    H130074   4.677   6.095   2.133  1.0317  1.5231 -0.0768
 2813TIP3    H230075   4.769   6.032   2.031  1.3177  0.1155  1.0141
 2814TIP3   OH230076   4.854   1.332   1.493 -0.0183  0.6210  0.4731
 2814TIP3    H130077   4.858   1.426   1.475  0.3879  0.5915  0.4059
 2814TIP3    H230078   4.915   1.318   1.565  0.3391  0.3276  0.1203
 2815TIP3   OH230079   1.527   4.380   7.743  0.4069  0.2872  0.2823
 2815TIP3    H130080   1.456   4.372   7.807  0.4223 -0.2063  0.2441
 2815TIP3    H230081   1.543   4.290   7.714  0.2754  0.5343 -0.5560
 2816TIP3   OH230082   0.753   4.475   2.012  0.3675  0.7466  0.1629
 2816TIP3    H130083   0.671   4.482   1.964  0.6486  0.7114 -0.3307
 2816TIP3    H230084   0.753   4.550   2.071 -0.1159  0.6272  0.3171
 2817TIP3   OH230085   2.545   1.539   8.425  0.5700  0.0585 -0.3159
 2817TIP3    H130086   2.469   1.595   8.442 -1.2360 -2.1731 -0.6390
 2817TIP3    H230087   2.508   1.453   8.408  3.2572 -2.6231  4.9607
 2818TIP3   OH230088   3.897   4.887   7.085 -0.2665 -0.0956 -0.0096
 2818TIP3    H130089   3.921   4.883   6.992  1.1642 -1.9867  0.3777
 2818TIP3    H230090   3.908   4.979   7.109 -2.6663  0.8679 -2.1539
 2819TIP3   OH230091   2.565   1.937   7.884  0.2147 -0.5840 -0.5430
 2819TIP3    H130092   2.656   1.934   7.855  1.5153  1.6790  2.6842
 2819TIP3    H230093   2.555   1.860   7.940  0.2908 -0.5442 -0.4754
 2820TIP3   OH230094   5.842   6.721   0.539  0.0435  0.3657  0.5067
 2820TIP3    H130095   5.923   6.673   0.527  0.1835  0.7883 -0.3029
 2820TIP3    H230096   5.868   6.805   0.575 -0.0668  0.3610  0.5985
 2821TIP3   OH230097   5.201   2.164   1.046  0.2066  0.0412  0.0032
 2821TIP3    H130098   5.292   2.196   1.045  0.1175  0.3127 -1.8052
 2821TIP3    H230099   5.190   2.120   0.962 -0.5389 -2.4288  1.2952
 2822TIP3   OH230100   3.858   3.246   7.351 -0.0801 -0.2959 -0.0290
 2822TIP3    H130101   3.843   3.181   7.282 -2.4471 -1.2777  1.2805
 2822TIP3    H230102   3.894   3.195   7.424 -0.2791  0.1723  0.4055
 2823TIP3   OH230103   4.675   3.799   8.254  0.2291 -0.6844 -0.6706
 2823TIP3    H130104   4.714   3.725   8.300  1.0894  0.0166 -0.2438
 2823TIP3    H230105   4.604   3.828   8.310  0.1187 -0.9594 -0.6657
 2824TIP3   OH230106   6.009   3.148   0.931  0.2708 -0.1282  0.2511
 2824TIP3    H130107   6.037   3.123   0.843  1.2523  0.8915  0.2587
 2824TIP3    H230108   5.916   3.167   0.922  0.4050  0.1638 -0.6186
 2825TIP3   OH230109   0.893   6.789   1.019  0.2470 -0.3190  0.6485
 2825TIP3    H130110   0.964   6.791   1.083 -1.4753  0.5620  2.6323
 2825TIP3    H230111   0.834   6.859   1.045 -1.6949 -1.4170 -0.5246
 2826TIP3   OH230112   5.382   3.632   7.671 -0.1848 -0.2558  0.0973
 2826TIP3    H130113   5.433   3.668   7.744  1.0026 -1.7784  0.0631
 2826TIP3    H230114   5.411   3.681   7.595  0.3442 -0.2861  0.2775
 2827TIP3   OH230115   0.258   3.785   0.875 -0.1454 -0.0852 -0.2723
 2827TIP3    H130116   0.348   3.810   0.857  0.4235 -0.3780  1.8921
 2827TIP3    H230117   0.213   3.868   0.891  0.0101 -0.0067 -0.2398
 2828TIP3   OH230118   0.129   6.127   0.928  0.5247  0.1654 -0.5158
 2828TIP3    H130119   0.066   6.196   0.950 -1.7602 -1.8992 -0.1778
 2828TIP3    H230120   0.147   6.141   0.835 -2.1228 -0.3635 -1.1875
 2829TIP3   OH230121   2.576   2.730   1.221 -0.3167  0.5897  0.1980
 2829TIP3    H130122   2.551   2.807   1.170 -1.5810 -0.3811 -0.7195
 2829TIP3    H230123   2.502   2.669   1.210  0.0087 -0.2176  2.0282
 2830TIP3   OH230124   6.865   1.640   0.965  0.0148 -0.0834  0.1725
 2830TIP3    H130125   6.935   1.591   0.922 -0.5784 -1.4486  0.7210
 2830TIP3    H230126   6.809   1.670   0.893 -0.1950 -1.1238 -0.1072
 2831TIP3   OH230127   0.775   2.276   1.583  0.3142 -0.5572  0.2203
 2831TIP3    H130128   0.815   2.336   1.647 -1.4844 -0.9626  1.8040
 2831TIP3    H230129   0.705   2.327   1.542 -0.4466 -1.1811  0.7133
 2832TIP3   OH230130   2.603   2.181   6.933 -0.7806  0.1953 -0.4623
 2832TIP3    H130131   2.659   2.209   6.860 -2.3514  0.0515 -1.7700
 2832TIP3    H230132   2.609   2.086   6.933 -0.3260  0.2196 -0.0130
 2833TIP3   OH230133   0.173   4.086   1.426 -0.8486 -0.7049 -0.7569
 2833TIP3    H130134   0.179   4.151   1.496 -0.4894 -1.3537 -0.1708
 2833TIP3    H230135   0.233   4.117   1.358  0.0928 -0.9453 -0.0432
 2834TIP3   OH230136   5.719   2.495   0.257  0.1053 -0.4201 -0.0447
 2834TIP3    H130137   5.735   2.566   0.319  1.1027  0.1107 -0.8788
 2834TIP3    H230138   5.740   2.416   0.306 -1.7407 -0.2226  1.1325
 2835TIP3   OH230139   6.641   1.651   0.187 -0.1729  0.1590 -0.2378
 2835TIP3    H130140   6.727   1.629   0.153  0.3284  0.2834  0.9005
 2835TIP3    H230141   6.656   1.670   0.280 -1.2871  1.0064 -0.2116
 2836TIP3   OH230142   1.312   1.009   6.766  0.0086 -0.5820  0.7846
 2836TIP3    H130143   1.389   0.956   6.747  0.9286  1.1129 -0.5621
 2836TIP3    H230144   1.346   1.099   6.769 -1.7519  0.1039  1.2878
 2837TIP3   OH230145   6.833   0.525   1.863  0.7030 -0.0103  0.1439
 2837TIP3    H130146   6.827   0.512   1.768  0.2828  0.8068  0.0495
 2837TIP3    H230147   6.925   0.512   1.884  0.7884 -0.2398 -0.3681
 2838TIP3   OH230148   5.834   4.603   0.052 -0.1559  0.5894  0.3830
 2838TIP3    H130149   5.911   4.641   0.011 -1.3253  1.3478 -1.2242
 2838TIP3    H230150   5.819   4.521   0.005 -1.3724  1.3493 -0.6205
 2839TIP3   OH230151   3.106   1.325   1.208  0.2909  0.0448 -0.1563
 2839TIP3    H130152   3.200   1.308   1.198  0.2366  0.1982 -0.9564
 2839TIP3    H230153   3.101   1.417   1.232  0.3188  0.1845 -0.6752
 2840TIP3   OH230154   4.711   2.663   7.158 -0.4586  0.4332 -0.2198
 2840TIP3    H130155   4.628   2.681   7.114 -1.5746 -1.7595  0.8168
 2840TIP3    H230156   4.747   2.749   7.178 -2.3244  1.4490 -0.9837
 2841TIP3   OH230157   5.431   2.405   8.435 -0.1507  0.5043 -0.4143
 2841TIP3    H130158   5.384   2.487   8.427 -1.6634  0.0663  2.6323
 2841TIP3    H230159   5.470   2.408   8.522 -1.8634 -2.6771  0.6359
 2842TIP3   OH230160   2.266   2.134   7.779 -0.6826 -0.7687 -0.0395
 2842TIP3    H130161   2.210   2.105   7.851 -0.9961 -1.0150 -0.3758
 2842TIP3    H230162   2.226   2.095   7.701 -0.4563 -0.3530 -0.3664
 2843TIP3   OH230163   5.982   1.786   7.214  0.0647 -0.3402 -0.4169
 2843TIP3    H130164   6.064   1.825   7.243 -0.0101 -0.7965  0.4588
 2843TIP3    H230165   6.008   1.710   7.162  0.2255  1.3466 -2.9315
 2844TIP3   OH230166   0.062   4.137   7.814 -0.2240  0.7383 -0.8275
 2844TIP3    H130167   0.126   4.179   7.871  0.2048  0.7372 -1.2985
 2844TIP3    H230168  -0.023   4.160   7.852  0.0515  0.7433 -0.1997
 2845TIP3   OH230169   3.332   5.912   6.783  0.3292 -0.2864 -0.2843
 2845TIP3    H130170   3.403   5.935   6.843  0.2120  0.6812 -0.5015
 2845TIP3    H230171   3.267   5.869   6.838  0.4888  0.0454  0.1684
 2846TIP3   OH230172   6.279   1.706   7.423 -0.9692 -0.2431  0.0772
 2846TIP3    H130173   6.373   1.711   7.410 -0.6315 -2.2546  1.3288
 2846TIP3    H230174   6.247   1.793   7.399  1.0309  0.1457 -1.4653
 2847TIP3   OH230175   2.433   4.555   0.955  0.2394 -0.5152  0.2069
 2847TIP3    H130176   2.472   4.641   0.938 -0.5185  0.1890  1.7791
 2847TIP3    H230177   2.373   4.571   1.028 -2.0309 -1.8264 -1.2959
 2848TIP3   OH230178   0.442   3.481   1.865 -0.0272  0.3579 -0.0758
 2848TIP3    H130179   0.533   3.506   1.851  0.1866  0.0847  0.7927
 2848TIP3    H230180   0.424   3.503   1.956 -1.2974  1.8197 -0.6241
 2849TIP3   OH230181   4.550   1.557   2.423  0.3610 -0.0152  0.7464
 2849TIP3    H130182   4.554   1.498   2.348  0.6595  0.3782  0.4493
 2849TIP3    H230183   4.640   1.567   2.452  0.1539 -0.9214  1.7663
 2850TIP3   OH230184   4.742   3.562   0.445  0.7393 -0.0911  0.5659
 2850TIP3    H130185   4.670   3.541   0.505 -0.2209 -0.4643 -0.6636
 2850TIP3    H230186   4.704   3.625   0.384  1.8903  0.7853  0.7183
 2851TIP3   OH230187   4.257   1.010   6.955  0.0997 -0.1554 -0.7925
 2851TIP3    H130188   4.300   0.944   6.899  0.9251  0.2427 -0.6334
 2851TIP3    H230189   4.329   1.061   6.992 -0.4585 -0.1887  0.3689
 2852TIP3   OH230190   2.820   1.102   7.804 -0.0410 -0.7097  0.5792
 2852TIP3    H130191   2.881   1.029   7.805  0.4411 -0.3156  0.0753
 2852TIP3    H230192   2.734   1.062   7.821  0.3056 -1.2992  0.9806
 2853TIP3   OH230193   5.555   4.531   8.334 -0.4966 -0.0357 -0.2705
 2853TIP3    H130194   5.562   4.464   8.266 -0.8121 -1.1973  0.7965
 2853TIP3    H230195   5.619   4.505   8.400 -3.4132 -1.7833  2.1443
 2854TIP3   OH230196   5.378   1.937   0.784  0.2794 -0.0226 -0.4083
 2854TIP3    H130197   5.378   1.898   0.872  0.3610 -0.4206 -0.5799
 2854TIP3    H230198   5.289   1.969   0.772  0.0769 -0.5888 -0.4441
 2855TIP3   OH230199   0.015   0.417   8.304 -0.1149  0.0992 -0.2675
 2855TIP3    H130200   0.001   0.417   8.210 -0.6526 -1.0395 -0.2077
 2855TIP3    H230201   0.088   0.357   8.318  0.1051  0.4302  0.0254
 2856TIP3   OH230202   3.886   2.489   7.833  0.1253  0.1417 -0.0129
 2856TIP3    H130203   3.944   2.450   7.768  1.0623 -1.0065  1.4460
 2856TIP3    H230204   3.870   2.419   7.896 -0.0767  1.4246  1.4283
 2857TIP3   OH230205   2.212   0.362   1.851  0.5789 -0.3797 -0.1995
 2857TIP3    H130206   2.173   0.358   1.938 -0.8330 -1.6555 -0.8585
 2857TIP3    H230207   2.281   0.296   1.852  0.3142 -0.6557 -0.1659
 2858TIP3   OH230208   6.331   4.373   6.626 -0.2735 -0.0915  0.2818
 2858TIP3    H130209   6.284   4.369   6.709 -0.8115  1.2490  0.0775
 2858TIP3    H230210   6.272   4.422   6.568  1.1234  1.1192 -0.1659
 2859TIP3   OH230211   5.035   0.403   8.221  0.8532 -0.0647  0.4498
 2859TIP3    H130212   5.051   0.325   8.168 -1.0380  0.8540 -1.6083
 2859TIP3    H230213   5.116   0.453   8.215  1.3087 -0.8406 -0.0236
 2860TIP3   OH230214   3.819   5.205   2.434 -0.2944  0.0754  0.1816
 2860TIP3    H130215   3.738   5.162   2.409  1.4299 -3.6834  0.4809
 2860TIP3    H230216   3.879   5.187   2.362  1.2004 -0.1396  1.4250
 2861TIP3   OH230217   2.093   5.907   1.883 -0.0595 -0.4759  0.2437
 2861TIP3    H130218   2.081   5.985   1.830  2.3750 -1.8688 -2.7373
 2861TIP3    H230219   2.006   5.869   1.892 -0.7983  0.7546 -1.3427
 2862TIP3   OH230220   1.902   2.843   0.326  0.2692 -0.0438 -0.0646
 2862TIP3    H130221   1.860   2.896   0.258 -0.8573 -1.2549 -0.3522
 2862TIP3    H230222   1.860   2.872   0.407  1.3527  1.1413  0.1088
 2863TIP3   OH230223   2.132   2.370   0.822 -0.7036 -0.0702  0.3748
 2863TIP3    H130224   2.046   2.337   0.850 -0.1831 -0.8675  1.0854
 2863TIP3    H230225   2.194   2.305   0.854  0.1297  0.1924 -0.6449
 2864TIP3   OH230226   0.143   5.807   7.125  0.4871 -0.1791 -0.7748
 2864TIP3    H130227   0.202   5.840   7.057  0.1032 -0.2421 -1.1485
 2864TIP3    H230228   0.199   5.790   7.200  0.8449  0.3566 -0.9187
 2865TIP3   OH230229   0.231   6.054   8.472  0.3418 -0.4591  0.3667
 2865TIP3    H130230   0.303   6.063   8.410 -0.2037  1.1252 -0.0989
 2865TIP3    H230231   0.222   6.141   8.511 -0.7557 -0.8480  1.0372
 2866TIP3   OH230232   5.730   3.162   0.894  0.7384  0.2913  0.1840
 2866TIP3    H130233   5.692   3.198   0.973  0.2455  0.4276 -0.1130
 2866TIP3    H230234   5.682   3.204   0.822  0.7718 -0.2728 -0.1767
 2867TIP3   OH230235   4.270   2.869   7.593  0.3101 -0.2466  0.2154
 2867TIP3    H130236   4.336   2.813   7.551 -0.7378 -1.0148 -0.4358
 2867TIP3    H230237   4.321   2.925   7.651  1.4888 -1.1923  0.1388
 2868TIP3   OH230238   6.483   3.982   0.844  0.2009 -0.3554 -0.8468
 2868TIP3    H130239   6.488   3.910   0.781  1.2903 -0.7329 -0.3638
 2868TIP3    H230240   6.465   3.939   0.928 -2.0783  0.2106 -0.9750
 2869TIP3   OH230241   3.507   6.115   7.838  0.0906 -0.0053 -0.6645
 2869TIP3    H130242   3.563   6.159   7.775 -0.8603 -1.3199 -2.5441
 2869TIP3    H230243   3.561   6.045   7.874  0.0628 -0.4509 -1.4803
 2870TIP3   OH230244   2.868   5.209   6.451  0.0817  0.0646 -0.2650
 2870TIP3    H130245   2.882   5.149   6.525  0.1565  1.1965  0.6735
 2870TIP3    H230246   2.791   5.260   6.476 -0.8025 -0.5243 -1.6616
 2871TIP3   OH230247   3.751   0.241   1.425 -0.0198 -1.0879 -0.1017
 2871TIP3    H130248   3.796   0.217   1.344  0.4397 -2.8275  0.6196
 2871TIP3    H230249   3.682   0.176   1.434  1.5138 -2.5636  2.1564
 2872TIP3   OH230250   3.740   6.864   1.666 -0.5553  0.7169  0.3077
 2872TIP3    H130251   3.675   6.903   1.607  0.0683  0.3320 -0.6697
 2872TIP3    H230252   3.738   6.919   1.744 -3.8417 -0.7147  1.4042
 2873TIP3   OH230253   1.458   1.995   0.908 -0.2155 -0.3420  0.4572
 2873TIP3    H130254   1.459   1.925   0.844  0.4983  0.7972 -0.8363
 2873TIP3    H230255   1.489   1.955   0.989  0.8148 -1.3599 -0.4155
 2874TIP3   OH230256   4.656   6.781   7.704 -0.3751  0.3115  0.4895
 2874TIP3    H130257   4.710   6.754   7.630  0.6868  0.1599  1.3056
 2874TIP3    H230258   4.579   6.725   7.699 -0.5550  0.6415 -0.7787
 2875TIP3   OH230259   2.898   0.978   6.729  0.2508  0.1304  0.3831
 2875TIP3    H130260   2.958   1.029   6.783  0.0161  1.3732 -0.4969
 2875TIP3    H230261   2.815   1.025   6.735 -0.2651 -0.7709  0.4440
 2876TIP3   OH230262   6.881   6.204   6.378  0.3066  0.3844  0.0497
 2876TIP3    H130263   6.791   6.171   6.379  0.3109  0.3692  0.8843
 2876TIP3    H230264   6.935   6.126   6.367  0.2130  0.4145 -0.6503
 2877TIP3   OH230265   5.765   4.126   8.309  0.4056 -0.6416 -0.0405
 2877TIP3    H130266   5.824   4.102   8.236  0.6051 -0.9427  0.2138
 2877TIP3    H230267   5.712   4.047   8.323  0.6161 -0.7142  0.3744
 2878TIP3   OH230268   4.458   3.647   1.050 -0.0647  0.4465  0.1308
 2878TIP3    H130269   4.428   3.675   1.137  1.1249  1.0949  0.3503
 2878TIP3    H230270   4.533   3.704   1.031  0.2466 -0.2944 -0.9396
 2879TIP3   OH230271   0.811   2.696   1.904 -0.1130  0.0993  0.0529
 2879TIP3    H130272   0.775   2.659   1.824 -2.0147  2.9933 -0.6044
 2879TIP3    H230273   0.896   2.731   1.878 -0.6359  0.8524 -0.6982
 2880TIP3   OH230274   2.780   0.266   7.445 -0.3185  0.8409  0.8900
 2880TIP3    H130275   2.820   0.289   7.528 -0.1486  0.0953  1.0151
 2880TIP3    H230276   2.688   0.293   7.454  0.3384  3.6823  0.1706
 2881TIP3   OH230277   0.438   1.061   0.157  0.2632  0.7351  0.3682
 2881TIP3    H130278   0.515   1.072   0.101 -0.9097  0.4175 -1.3914
 2881TIP3    H230279   0.414   0.969   0.147 -1.3141  1.2079 -0.4808
 2882TIP3   OH230280   4.871   6.477   0.754 -0.2453  0.5275  0.2696
 2882TIP3    H130281   4.782   6.490   0.788 -0.1234  0.3700  0.6456
 2882TIP3    H230282   4.859   6.470   0.659 -0.8878 -1.5585  0.4568
 2883TIP3   OH230283   4.692   2.759   8.230 -0.2799  0.2296  0.1800
 2883TIP3    H130284   4.610   2.722   8.198  0.1539 -1.0974  0.5629
 2883TIP3    H230285   4.699   2.729   8.321  0.9405 -0.2413 -0.0474
 2884TIP3   OH230286   2.820   4.051   8.102 -0.4875 -0.1399 -0.5469
 2884TIP3    H130287   2.890   3.989   8.120 -0.4365  0.0033 -0.2433
 2884TIP3    H230288   2.830   4.073   8.010  0.2075  0.2971 -0.3736
 2885TIP3   OH230289   2.898   2.027   1.217  0.4210  0.4187  0.1261
 2885TIP3    H130290   2.845   2.031   1.296 -1.8097  0.1951 -1.2683
 2885TIP3    H230291   2.988   2.040   1.247 -0.4599  1.4376  2.5315
 2886TIP3   OH230292   6.391   0.731   0.219  0.0908  0.3668  0.2307
 2886TIP3    H130293   6.330   0.787   0.266  0.3359  1.0193 -0.2058
 2886TIP3    H230294   6.343   0.704   0.141  0.5479  1.3958 -0.4353
 2887TIP3   OH230295   0.905   1.754   7.340  0.0827  0.4342 -0.2699
 2887TIP3    H130296   0.826   1.805   7.319 -0.1083 -0.3237 -1.5152
 2887TIP3    H230297   0.971   1.789   7.280 -0.2982 -1.3537 -1.8253
 2888TIP3   OH230298   3.180   1.361   6.511 -0.9548 -0.7466 -0.1783
 2888TIP3    H130299   3.197   1.409   6.592  1.8799  0.3858 -1.2766
 2888TIP3    H230300   3.147   1.427   6.450 -1.3051 -1.1772 -0.4634
 2889TIP3   OH230301   6.784   5.777   7.082 -0.5258  0.2874  0.3903
 2889TIP3    H130302   6.768   5.684   7.095 -0.6778  0.2101 -0.3280
 2889TIP3    H230303   6.875   5.789   7.110 -0.7424  0.0773  1.2149
 2890TIP3   OH230304   2.989   4.887   8.189 -0.0289 -0.1275  0.2145
 2890TIP3    H130305   2.939   4.874   8.108  0.7591  2.1092 -0.7175
 2890TIP3    H230306   2.923   4.894   8.258 -0.8490  0.3246 -0.6052
 2891TIP3   OH230307   0.621   5.214   8.063  0.0998  0.8468 -0.0475
 2891TIP3    H130308   0.665   5.261   7.992  1.0473  3.0621  1.8858
 2891TIP3    H230309   0.566   5.279   8.105 -0.1078 -0.2915  1.5212
 2892TIP3   OH230310   1.196   4.322   7.270 -0.5976  0.3919  0.3264
 2892TIP3    H130311   1.258   4.262   7.313  0.9678  0.7934 -1.2412
 2892TIP3    H230312   1.148   4.266   7.209  0.6608  0.6265 -0.9273
 2893TIP3   OH230313   5.542   4.286   7.841  0.1584  0.2651 -0.2175
 2893TIP3    H130314   5.604   4.327   7.780  0.4173  1.6273  0.9014
 2893TIP3    H230315   5.597   4.234   7.899 -0.1653 -1.7009 -1.5889
 2894TIP3   OH230316   3.289   2.860   7.317  0.3303 -0.4360 -0.0387
 2894TIP3    H130317   3.307   2.937   7.370 -0.8322  0.4922 -0.9403
 2894TIP3    H230318   3.341   2.872   7.237 -1.8077  0.7634 -1.3269
 2895TIP3   OH230319   0.550   3.050   7.116  0.0466  0.4280  0.0167
 2895TIP3    H130320   0.632   3.026   7.072 -0.2251  0.4000 -0.4744
 2895TIP3    H230321   0.565   3.027   7.208  0.1224 -0.7979 -0.2809
 2896TIP3   OH230322   1.713   0.788   2.121  0.1210  0.1313 -0.2950
 2896TIP3    H130323   1.770   0.728   2.072  0.4921 -1.0071  1.4572
 2896TIP3    H230324   1.768   0.820   2.192 -0.9808  0.2254  0.5291
 2897TIP3   OH230325   2.406   0.457   7.037  0.2466  0.5875  0.3655
 2897TIP3    H130326   2.439   0.459   6.948  1.1537  3.3283  0.6596
 2897TIP3    H230327   2.332   0.397   7.034  0.5891  0.1794 -2.0765
 2898TIP3   OH230328   3.248   0.137   1.897 -0.5835 -0.2555 -0.2758
 2898TIP3    H130329   3.330   0.185   1.888 -1.1715  0.9385  0.4533
 2898TIP3    H230330   3.258   0.061   1.840  1.2521 -0.4494  0.2315
 2899TIP3   OH230331   6.414   2.111   7.703 -0.2962 -0.0697 -0.4225
 2899TIP3    H130332   6.348   2.132   7.768  0.0462 -0.3352  0.0129
 2899TIP3    H230333   6.440   2.021   7.723  0.4232  0.1401 -0.3894
 2900TIP3   OH230334   0.615   3.176   0.508  0.1954 -0.2614 -0.5542
 2900TIP3    H130335   0.659   3.148   0.588  0.1622  3.3214  0.9417
 2900TIP3    H230336   0.522   3.160   0.524  0.1921  0.4238  0.1552
 2901TIP3   OH230337   2.864   3.537   7.824 -0.1321 -0.0560 -0.5781
 2901TIP3    H130338   2.927   3.594   7.779 -0.4070 -1.2732 -2.6767
 2901TIP3    H230339   2.841   3.584   7.904  3.5350  0.3826  0.4031
 2902TIP3   OH230340   5.668   0.938   7.113 -0.2634 -0.6822  0.0348
 2902TIP3    H130341   5.587   0.987   7.130 -0.5803 -1.2759  0.2407
 2902TIP3    H230342   5.643   0.846   7.121  0.1176 -0.9247 -1.2358
 2903TIP3   OH230343   3.862   2.754   0.910 -0.1777 -0.0811 -0.2575
 2903TIP3    H130344   3.819   2.772   0.993  1.8085  1.3076  0.5481
 2903TIP3    H230345   3.790   2.745   0.847 -1.6813 -0.0454  1.3861
 2904TIP3   OH230346   4.890   5.381   6.587 -0.2081 -0.3317 -0.2408
 2904TIP3    H130347   4.863   5.471   6.569 -0.8962 -0.4701  0.0373
 2904TIP3    H230348   4.979   5.375   6.553 -0.2755  0.3561 -0.5603
 2905TIP3   OH230349   5.087   3.164   1.516  0.2582  0.3717  0.0707
 2905TIP3    H130350   5.020   3.113   1.472 -0.0512 -0.1982  1.1740
 2905TIP3    H230351   5.039   3.233   1.561  0.4423  0.1797  0.5667
 2906TIP3   OH230352   4.584   5.313   7.156  0.4112 -0.0485  0.0036
 2906TIP3    H130353   4.574   5.241   7.219  0.5217  0.4436  0.6018
 2906TIP3    H230354   4.505   5.366   7.168  0.6876  0.3446  0.1286
 2907TIP3   OH230355   0.435   5.681   1.324 -0.3023  0.1846 -0.4056
 2907TIP3    H130356   0.498   5.612   1.345  0.0496  0.9914  1.4630
 2907TIP3    H230357   0.393   5.652   1.243  2.1069 -0.6295 -1.4610
 2908TIP3   OH230358   3.176   1.591   6.324 -0.2461  0.0004  0.0008
 2908TIP3    H130359   3.243   1.582   6.255  0.1430  0.6063  0.2907
 2908TIP3    H230360   3.102   1.540   6.291 -0.2335  0.6389 -1.0857
 2909TIP3   OH230361   4.837   3.114   1.371  0.4275  0.8852  0.5147
 2909TIP3    H130362   4.742   3.108   1.359  0.7477 -0.0879 -2.0869
 2909TIP3    H230363   4.864   3.182   1.309  1.4407  1.2205  1.3046
 2910TIP3   OH230364   6.873   1.097   7.244  0.0226  0.0688 -0.1589
 2910TIP3    H130365   6.879   1.154   7.321 -0.1545  1.2792 -1.0308
 2910TIP3    H230366   6.955   1.047   7.245 -1.2767 -2.3434  2.6219
 2911TIP3   OH230367   5.325   6.295   1.165  0.0327  0.5326  0.0534
 2911TIP3    H130368   5.381   6.250   1.229  1.4087  1.1419 -0.6786
 2911TIP3    H230369   5.294   6.372   1.212 -1.2343 -0.4209  0.8648
 2912TIP3   OH230370   0.062   5.841   1.099 -0.2768  0.4089  0.5002
 2912TIP3    H130371   0.010   5.906   1.147  2.6748  2.6993  0.9324
 2912TIP3    H230372   0.054   5.867   1.007 -1.0023 -0.1160  0.4136
 2913TIP3   OH230373   6.607   2.413   1.585 -0.1600 -0.6420  0.1481
 2913TIP3    H130374   6.594   2.370   1.670  0.0210 -0.7756  0.1086
 2913TIP3    H230375   6.701   2.408   1.570 -0.0498  0.3752  0.4570
 2914TIP3   OH230376   0.829   3.275   7.923  0.3514  0.0298 -0.8003
 2914TIP3    H130377   0.838   3.363   7.888 -1.2587  0.8126  0.6050
 2914TIP3    H230378   0.755   3.237   7.875  0.4102 -0.2085 -0.7062
 2915TIP3   OH230379   0.948   5.948   7.044  0.4133  0.4009  0.0995
 2915TIP3    H130380   0.913   5.860   7.058  2.2638 -0.3862  0.0490
 2915TIP3    H230381   0.922   5.970   6.954  1.4444 -0.8789 -0.5541
 2916TIP3   OH230382   6.483   6.839   8.414 -0.0936 -0.5643  0.0206
 2916TIP3    H130383   6.482   6.811   8.505  1.7960  1.1358  0.6431
 2916TIP3    H230384   6.560   6.896   8.407 -1.3522  1.0357 -2.1283
 2917TIP3   OH230385   3.908   1.279   8.294 -0.5927  1.2087  0.7216
 2917TIP3    H130386   3.940   1.249   8.379 -0.1522 -1.0565 -0.1963
 2917TIP3    H230387   3.975   1.340   8.263  2.7123 -2.7932 -0.7986
 2918TIP3   OH230388   4.089   5.227   0.982 -0.0879 -0.2763 -0.6966
 2918TIP3    H130389   4.057   5.143   1.016  2.1556 -1.3228 -1.0245
 2918TIP3    H230390   4.009   5.279   0.970 -1.4264 -1.8232  0.8752
 2919TIP3   OH230391   6.218   1.949   1.099 -0.1416 -0.0183  0.2480
 2919TIP3    H130392   6.137   1.998   1.086  1.1792  2.4222  0.7532
 2919TIP3    H230393   6.235   1.955   1.193 -0.4914 -2.4812  0.5354
 2920TIP3   OH230394   6.113   3.189   1.179  0.5174  0.3906  0.2329
 2920TIP3    H130395   6.080   3.138   1.253 -0.3062  1.8840  0.9521
 2920TIP3    H230396   6.057   3.164   1.106 -0.4273  0.8479  0.7788
 2921TIP3   OH230397   0.448   0.679   8.507 -0.0439  0.0100 -0.0294
 2921TIP3    H130398   0.378   0.614   8.517  0.0203 -0.1033 -0.3299
 2921TIP3    H230399   0.524   0.640   8.551 -0.7094  1.0028  2.1597
 2922TIP3   OH230400   4.123   4.690   0.227 -0.0535  0.1563  0.2743
 2922TIP3    H130401   4.094   4.601   0.207  2.9082 -0.5121 -1.7700
 2922TIP3    H230402   4.054   4.726   0.283 -3.5314 -1.8899 -2.2851
 2923TIP3   OH230403   0.926   6.359   6.523  0.2381  0.4197 -0.6065
 2923TIP3    H130404   0.846   6.329   6.478 -0.1370 -0.6371  0.6932
 2923TIP3    H230405   0.915   6.453   6.531 -2.1869  0.0789  1.8197
 2924TIP3   OH230406   3.578   0.983   7.613 -0.3104 -0.1715  0.3036
 2924TIP3    H130407   3.595   1.008   7.522  1.6320  0.5201  0.8057
 2924TIP3    H230408   3.647   0.919   7.633 -0.4508  0.0016  1.4040
 2925TIP3   OH230409   1.918   2.839   8.308  0.5296 -0.1863  0.2122
 2925TIP3    H130410   1.946   2.926   8.336  0.4054  0.3243 -1.1730
 2925TIP3    H230411   1.828   2.852   8.278  0.6192 -0.7171 -0.2956
 2926TIP3   OH230412   0.663   0.445   1.354  0.1343 -0.2280 -0.6203
 2926TIP3    H130413   0.606   0.499   1.408  0.5656 -1.0301  0.6746
 2926TIP3    H230414   0.750   0.457   1.391  0.3633 -1.1925 -0.8197
 2927TIP3   OH230415   6.310   3.802   2.467 -0.2116 -0.4869 -0.4677
 2927TIP3    H130416   6.296   3.710   2.444 -0.7882  0.0978 -2.7590
 2927TIP3    H230417   6.339   3.843   2.385  0.6049  1.2740  0.6299
 2928TIP3   OH230418   0.391   1.072   7.655 -0.4676 -0.1071  0.2385
 2928TIP3    H130419   0.438   1.126   7.719 -1.5579  1.3175 -0.1056
 2928TIP3    H230420   0.457   1.046   7.592 -0.0042  1.4144  0.0462
 2929TIP3   OH230421   2.674   1.703   6.652  0.1453  0.4072 -0.5331
 2929TIP3    H130422   2.638   1.616   6.669 -1.6508  1.0632 -0.7104
 2929TIP3    H230423   2.708   1.698   6.563  0.5743 -0.2732 -0.3363
 2930TIP3   OH230424   0.957   0.620   1.713 -0.6481  0.1203 -0.0839
 2930TIP3    H130425   0.906   0.700   1.724 -2.1618 -0.8149 -0.0775
 2930TIP3    H230426   0.923   0.560   1.779  0.4757 -0.5349 -0.0734
 2931TIP3   OH230427   4.401   2.531   8.433 -0.5805  0.1062 -0.1287
 2931TIP3    H130428   4.322   2.503   8.478 -0.1858 -0.5522  0.1729
 2931TIP3    H230429   4.407   2.625   8.451 -0.9601  0.0408  0.3678
 2932TIP3   OH230430   5.189   0.361   1.007 -0.3019 -0.8038 -0.0310
 2932TIP3    H130431   5.251   0.291   1.032  1.8164  1.3373  1.1454
 2932TIP3    H230432   5.244   0.438   0.994 -2.5516  0.7145 -1.2175
 2933TIP3   OH230433   0.078   1.718   1.226  0.3188 -0.2994  0.3468
 2933TIP3    H130434   0.052   1.703   1.135 -0.1315 -0.4473  0.5011
 2933TIP3    H230435   0.128   1.640   1.249  1.2854  0.1749 -0.0857
 2934TIP3   OH230436   0.525   3.540   8.407  0.1183  0.1086  0.1733
 2934TIP3    H130437   0.612   3.576   8.421  0.4712 -0.6587  0.0121
 2934TIP3    H230438   0.526   3.456   8.453 -1.2122  0.9624  1.9114
 2935TIP3   OH230439   3.828   4.353   6.387 -0.4307  0.7408  0.0474
 2935TIP3    H130440   3.754   4.313   6.433 -0.5950 -1.4765 -1.9561
 2935TIP3    H230441   3.896   4.285   6.387  0.4896  1.6286 -0.7694
 2936TIP3   OH230442   0.401   5.108   1.976  0.0986  0.5068 -0.1946
 2936TIP3    H130443   0.442   5.192   1.954  0.6498  0.5930  1.1210
 2936TIP3    H230444   0.474   5.048   1.989 -0.2111  0.3771  1.0325
 2937TIP3   OH230445   1.073   6.574   0.938  0.6619  0.1121  0.3234
 2937TIP3    H130446   1.121   6.500   0.973  2.2072  1.2956  0.8321
 2937TIP3    H230447   1.035   6.617   1.014  2.8086  1.8576  0.5027
 2938TIP3   OH230448   3.344   5.069   1.621  0.1820  0.6845 -0.4623
 2938TIP3    H130449   3.272   5.099   1.564 -0.3796  0.7341  0.2565
 2938TIP3    H230450   3.419   5.121   1.592 -0.0222  0.5275 -1.3289
 2939TIP3   OH230451   5.890   4.475   7.244 -0.0105 -0.6986 -0.9370
 2939TIP3    H130452   5.896   4.386   7.278  0.1379 -0.0089  0.9313
 2939TIP3    H230453   5.802   4.480   7.206 -0.2370 -1.4625 -0.5279
 2940TIP3   OH230454   6.643   2.317   1.857 -0.3086 -0.4236 -0.0791
 2940TIP3    H130455   6.720   2.374   1.854  0.1188 -1.0240 -1.1672
 2940TIP3    H230456   6.666   2.249   1.921  1.0153 -1.8358 -1.9157
 2941TIP3   OH230457   2.986   6.879   1.333 -0.0064 -0.4339  0.4601
 2941TIP3    H130458   2.978   6.922   1.248  1.8369  2.1247  1.4736
 2941TIP3    H230459   3.038   6.800   1.315  0.3308  0.0573 -0.7826
 2942TIP3   OH230460   1.160   3.180   7.324  0.4975 -0.0778 -0.2039
 2942TIP3    H130461   1.083   3.157   7.272  1.1170 -0.1402 -1.1029
 2942TIP3    H230462   1.164   3.276   7.320  0.2163 -0.0447  0.2188
 2943TIP3   OH230463   4.677   2.419   2.185  0.4041 -0.3722 -0.1788
 2943TIP3    H130464   4.750   2.395   2.242  0.7352 -0.7357 -0.7453
 2943TIP3    H230465   4.630   2.337   2.170  1.6260 -0.7703 -2.2469
 2944TIP3   OH230466   2.566   3.701   6.323  0.2033 -0.1302 -0.3023
 2944TIP3    H130467   2.575   3.787   6.365  1.5658 -0.5444  0.3096
 2944TIP3    H230468   2.473   3.682   6.328  0.1864  0.2721  1.7159
 2945TIP3   OH230469   5.473   1.258   0.659  0.1104 -0.2412  0.1116
 2945TIP3    H130470   5.533   1.270   0.733  0.4494  1.3617 -0.3615
 2945TIP3    H230471   5.529   1.227   0.588  0.2426  0.4236 -0.0871
 2946TIP3   OH230472   3.579   6.501   7.770 -0.2557 -0.1181 -0.2601
 2946TIP3    H130473   3.596   6.438   7.841  0.4112  0.2332 -0.0963
 2946TIP3    H230474   3.484   6.508   7.767 -0.2847  0.6633  1.3332
 2947TIP3   OH230475   3.516   1.153   6.952  0.5709  0.1360  0.4698
 2947TIP3    H130476   3.423   1.142   6.931  1.2735  0.4239 -3.6180
 2947TIP3    H230477   3.561   1.091   6.895  3.0625  3.3107 -1.3628
 2948TIP3   OH230478   5.265   1.544   0.964  0.0573  0.0281 -0.5289
 2948TIP3    H130479   5.275   1.467   1.020  0.2635 -0.1076 -0.7518
 2948TIP3    H230480   5.352   1.559   0.928 -0.2391 -0.3571 -1.4325
 2949TIP3   OH230481   2.428   3.521   8.546  0.3246  0.6249 -0.2380
 2949TIP3    H130482   2.456   3.430   8.537  0.2524  0.5332  0.4038
 2949TIP3    H230483   2.367   3.520   8.620 -0.3855  1.0392 -0.7982
 2950TIP3   OH230484   4.137   3.839   7.147  0.4769  0.2002  0.1177
 2950TIP3    H130485   4.044   3.829   7.126  0.8472  0.5622 -1.9219
 2950TIP3    H230486   4.148   3.932   7.166  0.5219  0.2821 -0.2924
 2951TIP3   OH230487   4.494   5.075   0.434 -0.3015 -0.5315 -0.6202
 2951TIP3    H130488   4.489   5.170   0.444 -0.8505 -0.7085  1.0766
 2951TIP3    H230489   4.404   5.044   0.442 -0.0127 -1.2816 -0.1266
 2952TIP3   OH230490   1.815   3.499   7.709 -0.0884 -0.2542  0.7704
 2952TIP3    H130491   1.886   3.449   7.750 -0.2441 -1.1279  0.0003
 2952TIP3    H230492   1.744   3.495   7.772  0.1797 -0.2874  1.0754
 2953TIP3   OH230493   5.796   4.334   0.205  0.1133  0.6474  0.4343
 2953TIP3    H130494   5.804   4.253   0.256  0.7526 -0.1341 -0.8682
 2953TIP3    H230495   5.731   4.314   0.138  1.0725  0.8462 -0.5708
 2954TIP3   OH230496   4.427   4.668   0.663 -0.5064 -0.0127 -0.0062
 2954TIP3    H130497   4.398   4.640   0.576  1.4729  1.4930 -1.2539
 2954TIP3    H230498   4.474   4.750   0.647  0.5314 -0.0578  2.3938
 2955TIP3   OH230499   1.422   0.204   8.280 -0.1810  0.1467 -0.0384
 2955TIP3    H130500   1.342   0.161   8.250  0.4557 -0.7803 -0.4651
 2955TIP3    H230501   1.476   0.133   8.315 -0.1981  0.9741  1.7673
 2956TIP3   OH230502   1.459   5.956   6.978 -0.2192  0.9326 -0.6746
 2956TIP3    H130503   1.376   5.942   7.023  1.7274  0.2568  3.1157
 2956TIP3    H230504   1.473   6.050   6.983  0.0074  0.8583  0.2993
 2957TIP3   OH230505   1.117   1.363   1.638 -0.1034  0.5852  0.3900
 2957TIP3    H130506   1.101   1.342   1.730 -0.8576 -1.8175 -0.2148
 2957TIP3    H230507   1.204   1.326   1.620 -1.8832 -3.4562 -0.9660
 2958TIP3   OH230508   3.125   4.116   8.481  0.7884 -0.2254  0.0625
 2958TIP3    H130509   3.072   4.116   8.561  1.6297  0.1306  0.6389
 2958TIP3    H230510   3.195   4.179   8.499  0.6609  0.2914 -1.1841
 2959TIP3   OH230511   4.258   3.849   1.692  0.3213 -0.1593  0.7466
 2959TIP3    H130512   4.184   3.894   1.731 -0.5597  0.0436 -1.0254
 2959TIP3    H230513   4.247   3.757   1.718 -1.3439 -0.3730 -0.5403
 2960TIP3   OH230514   5.123   3.460   1.432  0.3643  0.1782 -0.3489
 2960TIP3    H130515   5.132   3.551   1.406  0.4971  0.5162  0.8130
 2960TIP3    H230516   5.040   3.456   1.479  1.1775  0.1070  1.1535
 2961TIP3   OH230517   5.823   1.847   1.311 -0.0954  0.0110  0.5952
 2961TIP3    H130518   5.796   1.859   1.402  2.1339 -0.7403  1.4199
 2961TIP3    H230519   5.880   1.770   1.313  0.8258  0.5964 -1.2630
 2962TIP3   OH230520   3.044   4.730   7.599  0.4481 -0.2950 -0.0065
 2962TIP3    H130521   3.015   4.734   7.507 -0.5592 -0.6794  0.2789
 2962TIP3    H230522   2.993   4.799   7.643  0.6703 -0.3444  0.3307
 2963TIP3   OH230523   6.667   0.197   0.942 -0.0169  0.1596 -0.1438
 2963TIP3    H130524   6.591   0.194   1.001 -0.8730  0.6930 -1.1727
 2963TIP3    H230525   6.686   0.105   0.923 -0.6090  0.0289 -0.1246
 2964TIP3   OH230526   2.088   1.498   0.090 -0.5062  0.4451  0.3674
 2964TIP3    H130527   2.157   1.501   0.156  2.2525  0.7790 -2.2810
 2964TIP3    H230528   2.065   1.405   0.084 -0.4976  0.3578  1.4598
 2965TIP3   OH230529   3.636   6.625   0.633  0.3985  0.0050  0.1452
 2965TIP3    H130530   3.654   6.598   0.543 -0.7923  1.4696 -0.5863
 2965TIP3    H230531   3.665   6.717   0.637 -0.2254  0.1804  1.0470
 2966TIP3   OH230532   0.161   4.847   2.467  0.0599 -0.0537 -0.6102
 2966TIP3    H130533   0.111   4.766   2.473  0.7101 -0.6046 -2.0319
 2966TIP3    H230534   0.236   4.825   2.412  0.5811  1.3600 -0.5250
 2967TIP3   OH230535   4.911   6.020   7.723 -0.1160  0.0797 -0.5503
 2967TIP3    H130536   4.817   6.002   7.725 -0.7315  2.8922 -0.0599
 2967TIP3    H230537   4.917   6.113   7.701  2.4327  0.6208  1.9047
 2968TIP3   OH230538   2.751   0.384   2.088  0.0902  0.3435 -0.4420
 2968TIP3    H130539   2.745   0.407   2.181 -1.2826 -1.1701 -0.0983
 2968TIP3    H230540   2.757   0.468   2.043  3.3581  1.0976  1.0946
 2969TIP3   OH230541   6.299   1.235   7.691  0.0466  0.0037 -0.2187
 2969TIP3    H130542   6.384   1.195   7.710  0.1293  0.6445  0.8581
 2969TIP3    H230543   6.320   1.316   7.645 -0.0404 -0.3456 -0.8835
 2970TIP3   OH230544   5.233   0.470   1.922  0.1381  0.7380 -0.5920
 2970TIP3    H130545   5.323   0.460   1.890 -0.2764 -1.1967 -1.3221
 2970TIP3    H230546   5.223   0.401   1.987 -0.4351  1.7777  0.4385
 2971TIP3   OH230547   3.679   0.481   6.677 -0.1928 -0.4489  0.2643
 2971TIP3    H130548   3.761   0.520   6.648 -0.6031  0.2157 -0.0206
 2971TIP3    H230549   3.629   0.554   6.714 -0.7947 -0.7828  0.1288
 2972TIP3   OH230550   2.005   5.773   8.292  0.3808 -0.5220  0.1882
 2972TIP3    H130551   2.056   5.850   8.266  1.1342 -1.0197  0.1714
 2972TIP3    H230552   1.971   5.739   8.209  1.0951 -0.9262  0.0479
 2973TIP3   OH230553   1.994   4.529   6.228 -0.1868  0.4608  0.4912
 2973TIP3    H130554   1.967   4.452   6.279  1.3992  0.3674  1.2421
 2973TIP3    H230555   2.082   4.509   6.197 -0.1875  1.5225 -0.2672
 2974TIP3   OH230556   0.971   3.038   8.489 -0.2499 -0.4027  0.1233
 2974TIP3    H130557   0.911   3.087   8.546  1.5813  2.7757 -0.4175
 2974TIP3    H230558   1.056   3.045   8.532  0.8428  0.5403 -1.9960
 2975TIP3   OH230559   0.195   4.526   1.839  0.1199 -0.2721  0.3517
 2975TIP3    H130560   0.252   4.547   1.912  0.0603 -0.4272  0.4425
 2975TIP3    H230561   0.171   4.434   1.852 -0.4468 -0.1004  0.5121
 2976TIP3   OH230562   3.377   1.564   1.103 -0.4455 -0.6555  0.0565
 2976TIP3    H130563   3.317   1.633   1.130  0.9215  0.5945 -0.0071
 2976TIP3    H230564   3.351   1.543   1.013  0.0728  0.8592 -0.4698
 2977TIP3   OH230565   1.088   3.191   1.391 -0.0188 -0.2754 -0.4472
 2977TIP3    H130566   1.020   3.130   1.422  0.4906 -1.2203 -1.1423
 2977TIP3    H230567   1.149   3.197   1.464 -1.0996  1.0092  0.3980
 2978TIP3   OH230568   4.623   1.953   8.505  0.1777  0.1693 -0.0205
 2978TIP3    H130569   4.716   1.945   8.527  0.2251  2.0711  0.6667
 2978TIP3    H230570   4.580   1.964   8.590 -0.4632  0.9783 -0.4370
 2979TIP3   OH230571   2.357   5.811   7.095  0.1990 -0.0330  0.6788
 2979TIP3    H130572   2.447   5.778   7.094  0.0605 -0.4314 -0.8825
 2979TIP3    H230573   2.313   5.760   7.163  1.0405 -0.1407  1.1446
 2980TIP3   OH230574   6.241   4.192   7.602 -0.1476  0.4070  0.3039
 2980TIP3    H130575   6.270   4.104   7.580  0.8469  0.9408 -0.5910
 2980TIP3    H230576   6.163   4.178   7.656 -0.5473 -0.9963 -0.5762
 2981TIP3   OH230577   1.374   0.556   0.082 -0.0049  0.2883 -0.4194
 2981TIP3    H130578   1.329   0.473   0.098 -1.8028  1.4520  0.8346
 2981TIP3    H230579   1.358   0.575  -0.010  2.2002 -1.7075 -1.3220
 2982TIP3   OH230580   3.329   0.875   7.696  0.2174  0.1032 -0.3324
 2982TIP3    H130581   3.414   0.902   7.662  0.0708  1.6103  0.4323
 2982TIP3    H230582   3.349   0.803   7.756  1.2179  1.7315  1.3807
 2983TIP3   OH230583   3.934   4.775   8.157  0.1668  0.2869  0.2079
 2983TIP3    H130584   3.903   4.814   8.076  0.1854 -0.0610  0.0349
 2983TIP3    H230585   4.030   4.779   8.150  0.1683  0.3980  0.2820
 2984TIP3   OH230586   2.861   5.007   1.830 -0.3329 -0.1268  0.2242
 2984TIP3    H130587   2.779   5.046   1.800  0.7389  1.3083 -0.9879
 2984TIP3    H230588   2.892   5.067   1.898  0.1322 -0.1851  0.0651
 2985TIP3   OH230589   1.043   2.092   7.474  0.0927 -0.0866 -0.2460
 2985TIP3    H130590   1.093   2.020   7.512  0.1379 -1.2416 -2.3457
 2985TIP3    H230591   0.951   2.068   7.487  0.1080 -0.5599 -0.9684
 2986TIP3   OH230592   3.620   2.012   7.267 -0.5686 -0.6295  0.1552
 2986TIP3    H130593   3.617   2.086   7.205 -0.5216  0.5111  1.4699
 2986TIP3    H230594   3.707   2.019   7.306  0.9499 -3.6205 -2.2813
 2987TIP3   OH230595   0.313   5.466   8.489  0.4759 -0.3285  0.7196
 2987TIP3    H130596   0.408   5.468   8.505  0.3615  1.2407  1.4006
 2987TIP3    H230597   0.283   5.553   8.515 -1.1526 -0.7823  0.4437
 2988TIP3   OH230598   5.795   5.090   1.207  0.6035 -0.1812 -0.4745
 2988TIP3    H130599   5.823   5.046   1.287  0.8012  3.4370  1.6896
 2988TIP3    H230600   5.703   5.064   1.195  0.3817 -0.3207  1.3207
 2989TIP3   OH230601   0.102   3.268   6.548 -0.4950  0.3154 -0.2976
 2989TIP3    H130602   0.051   3.275   6.467  0.2630 -2.8566 -1.2037
 2989TIP3    H230603   0.036   3.251   6.616 -0.9013 -1.9430 -1.1610
 2990TIP3   OH230604   1.822   0.884   7.163  0.2449 -0.6022 -0.0934
 2990TIP3    H130605   1.902   0.831   7.159  0.8328  0.2907 -0.4740
 2990TIP3    H230606   1.831   0.947   7.091 -0.5230 -0.0967  0.2386
 2991TIP3   OH230607   5.458   4.447   8.077 -0.4679  0.6181  0.1518
 2991TIP3    H130608   5.550   4.422   8.062 -0.1837  1.1292  1.0100
 2991TIP3    H230609   5.408   4.367   8.058  0.3180 -0.2564  1.6440
 2992TIP3   OH230610   0.947   5.070   1.538  0.7882 -0.1891 -0.3525
 2992TIP3    H130611   1.038   5.097   1.551  0.9068 -0.9289  0.3722
 2992TIP3    H230612   0.948   5.021   1.456  1.1599 -0.7002 -0.0490
 2993TIP3   OH230613   0.801   0.178   0.063  0.5077 -0.0028  0.5247
 2993TIP3    H130614   0.835   0.228  -0.011 -0.1502  1.7646  1.3428
 2993TIP3    H230615   0.733   0.234   0.100 -1.6300 -2.3593  0.3844
 2994TIP3   OH230616   2.207   5.941   1.435 -0.0286 -0.2554 -0.1418
 2994TIP3    H130617   2.182   5.917   1.346  1.3278 -1.0383 -0.3346
 2994TIP3    H230618   2.301   5.924   1.439  0.2095  1.1800  0.9981
 2995TIP3   OH230619   0.868   5.310   0.553 -0.3694  0.3949 -0.0904
 2995TIP3    H130620   0.901   5.287   0.466 -1.2753  0.8692 -0.5694
 2995TIP3    H230621   0.931   5.374   0.586 -0.1712  0.4219 -0.5106
 2996TIP3   OH230622   4.136   5.572   2.184 -0.0923  0.2573  0.1924
 2996TIP3    H130623   4.041   5.570   2.172 -0.1422  1.0649  0.3966
 2996TIP3    H230624   4.150   5.626   2.262  0.5285  0.0026  0.2699
 2997TIP3   OH230625   3.655   1.507   1.053 -0.5263 -0.0517 -0.0102
 2997TIP3    H130626   3.630   1.417   1.077  0.5618 -0.1718  0.7593
 2997TIP3    H230627   3.579   1.560   1.075 -0.7120 -0.6165  0.7633
 2998TIP3   OH230628   2.396   2.597   0.083  0.3418 -0.5256  0.4505
 2998TIP3    H130629   2.374   2.669   0.142  1.7787 -0.3679  0.8493
 2998TIP3    H230630   2.320   2.539   0.086 -0.5199  0.5844  0.7156
 2999TIP3   OH230631   5.942   3.828   7.444 -0.0967  0.0573 -0.6315
 2999TIP3    H130632   5.884   3.901   7.469 -2.1652 -0.8718 -2.4392
 2999TIP3    H230633   6.001   3.819   7.519 -0.5388  2.7842  0.1777
 3000TIP3   OH230634   3.227   1.112   8.489 -0.5029  0.1007  0.5245
 3000TIP3    H130635   3.274   1.050   8.433  0.7302  1.2964  0.2058
 3000TIP3    H230636   3.175   1.056   8.547  0.3982 -1.2339  0.1008
 3001TIP3   OH230637   1.771   0.642   2.449 -0.0520 -0.7284  0.3300
 3001TIP3    H130638   1.832   0.570   2.437  1.5108  0.5664  0.1254
 3001TIP3    H230639   1.808   0.714   2.398 -1.3378  0.3468  0.8411
 3002TIP3   OH230640   4.734   4.480   0.190  0.4067  0.3628 -0.3177
 3002TIP3    H130641   4.771   4.556   0.236 -1.4896  0.3734  1.3742
 3002TIP3    H230642   4.741   4.409   0.254 -1.5115  0.1609 -0.2568
 3003TIP3   OH230643   4.806   5.850   0.662 -0.3064 -0.2380  0.1240
 3003TIP3    H130644   4.896   5.846   0.695 -0.7104  1.7467  1.6823
 3003TIP3    H230645   4.777   5.939   0.683 -2.5935 -0.7762 -0.4647
 3004TIP3   OH230646   0.112   2.479   2.621 -0.0305 -0.0896  0.2174
 3004TIP3    H130647   0.069   2.507   2.702  0.3802 -1.0163  0.7729
 3004TIP3    H230648   0.167   2.406   2.647 -2.8070 -3.0940 -1.4712
 3005TIP3   OH230649   2.564   1.772   2.300  0.0644  0.7523 -0.2724
 3005TIP3    H130650   2.505   1.772   2.224  1.0707 -1.9713 -1.1679
 3005TIP3    H230651   2.630   1.838   2.279 -0.4877  1.0570 -1.0893
 3006TIP3   OH230652   3.351   0.834   6.684 -0.1560 -0.3645  0.4825
 3006TIP3    H130653   3.353   0.903   6.751 -0.1655 -0.7966  0.9283
 3006TIP3    H230654   3.265   0.843   6.643  0.4535  0.9719 -0.6113
 3007TIP3   OH230655   6.203   2.118   7.514  0.1293  0.2931 -0.4368
 3007TIP3    H130656   6.285   2.101   7.561 -0.8020 -4.4233  0.0014
 3007TIP3    H230657   6.138   2.128   7.583 -0.1503  0.6781 -0.7572
 3008TIP3   OH230658   0.740   5.672   0.004  0.2066 -0.0849  0.2706
 3008TIP3    H130659   0.804   5.733  -0.032  0.8861 -0.0643  1.4771
 3008TIP3    H230660   0.792   5.611   0.056 -0.5785 -1.0845 -0.0837
 3009TIP3   OH230661   3.438   2.748   0.290 -0.7146 -0.2586  0.6108
 3009TIP3    H130662   3.366   2.741   0.351 -0.8198  0.6510  0.6067
 3009TIP3    H230663   3.463   2.840   0.293  2.0190 -0.9400  2.4112
 3010TIP3   OH230664   0.146   1.412   0.872  0.4125 -0.3292  0.1579
 3010TIP3    H130665   0.226   1.418   0.821  0.3349  0.0141  0.0746
 3010TIP3    H230666   0.132   1.318   0.885  0.9789 -0.3812  0.4150
 3011TIP3   OH230667   1.782   1.397   8.400  0.2978 -0.3729  0.1323
 3011TIP3    H130668   1.868   1.438   8.390 -0.6680  2.1803  1.4161
 3011TIP3    H230669   1.789   1.346   8.481 -0.0807  2.0010  1.7528
 3012TIP3   OH230670   5.082   4.779   1.567  0.5329  0.4636  0.6941
 3012TIP3    H130671   5.140   4.821   1.503  1.8219 -0.7217  1.0327
 3012TIP3    H230672   4.996   4.782   1.526  0.9604  1.5608 -0.1849
 3013TIP3   OH230673   5.300   3.778   0.187  0.5923 -0.0712 -0.5861
 3013TIP3    H130674   5.282   3.729   0.267 -0.0545 -1.3130 -1.4698
 3013TIP3    H230675   5.271   3.867   0.207  1.2251 -0.1562  0.8382
 3014TIP3   OH230676   4.529   1.229   1.905  0.8374  0.6168 -0.4366
 3014TIP3    H130677   4.577   1.147   1.899  0.9624  0.7928 -2.2806
 3014TIP3    H230678   4.466   1.215   1.976  0.3778 -1.3164 -1.1687
 3015TIP3   OH230679   1.786   0.259   7.465  0.4314  0.2089 -0.3562
 3015TIP3    H130680   1.743   0.309   7.534 -0.8522 -1.7343  0.3205
 3015TIP3    H230681   1.781   0.316   7.388 -0.7775  1.1984  0.4114
 3016TIP3   OH230682   4.114   4.710   0.987 -0.3239  0.5729  0.3243
 3016TIP3    H130683   4.060   4.688   1.063 -1.3510 -0.5154 -0.6844
 3016TIP3    H230684   4.133   4.803   0.998 -1.4691  0.7252  1.2850
 3017TIP3   OH230685   4.663   5.883   0.166 -0.5613 -0.0207 -0.0097
 3017TIP3    H130686   4.637   5.792   0.151 -0.3000 -0.1859  0.5537
 3017TIP3    H230687   4.726   5.879   0.237  1.3708  0.3384 -1.6250
 3018TIP3   OH230688   1.718   3.912   7.601  0.7145 -0.1706  0.4527
 3018TIP3    H130689   1.812   3.907   7.582  0.5518  0.0822 -0.4759
 3018TIP3    H230690   1.682   3.831   7.564  0.1523  1.0637 -1.9104
 3019TIP3   OH230691   5.138   6.572   8.429 -0.5683  0.0666 -0.2438
 3019TIP3    H130692   5.072   6.517   8.471  0.9438 -1.9990 -0.3975
 3019TIP3    H230693   5.110   6.575   8.337 -1.1180  0.2863 -0.0769
 3020TIP3   OH230694   2.503   4.112   1.510 -0.4267 -0.4117  0.1210
 3020TIP3    H130695   2.535   4.088   1.597 -0.1000 -0.1173  0.0856
 3020TIP3    H230696   2.565   4.179   1.480 -0.9376 -0.0132 -0.0521
 3021TIP3   OH230697   5.765   2.132   7.016  0.9169 -0.2121 -0.0346
 3021TIP3    H130698   5.837   2.071   7.000  0.5580 -0.6102 -0.1325
 3021TIP3    H230699   5.793   2.213   6.972  0.6267 -0.8256 -1.3992
 3022TIP3   OH230700   2.462   2.353   8.279  0.0328 -0.4277 -0.1473
 3022TIP3    H130701   2.551   2.375   8.250 -0.7113  3.2269 -0.2110
 3022TIP3    H230702   2.461   2.373   8.372 -0.6153 -0.7600 -0.0780
 3023TIP3   OH230703   4.385   0.636   1.831  0.0342 -0.0129  0.1379
 3023TIP3    H130704   4.406   0.543   1.834 -3.3642 -0.9027  3.0276
 3023TIP3    H230705   4.408   0.670   1.917 -2.0807  0.8810  0.4219
 3024TIP3   OH230706   1.332   5.806   2.596 -0.1218 -0.2637 -0.2831
 3024TIP3    H130707   1.308   5.751   2.671 -1.8645  0.6674 -0.1055
 3024TIP3    H230708   1.364   5.887   2.635  2.3592 -1.0548 -0.5439
 3025TIP3   OH230709   0.219   5.734   8.501  0.6382  0.2036 -0.4492
 3025TIP3    H130710   0.161   5.806   8.524  0.5507 -0.1012  0.3076
 3025TIP3    H230711   0.303   5.756   8.541 -0.0185 -1.2482  1.9362
 3026TIP3   OH230712   1.139   3.952   1.422  0.3656 -0.9772  0.1522
 3026TIP3    H130713   1.180   3.884   1.368 -1.9973 -3.5132  1.3141
 3026TIP3    H230714   1.180   3.941   1.508 -0.4561 -1.4205  0.5031
 3027TIP3   OH230715   4.545   1.339   0.346  0.0770  0.3249  0.0412
 3027TIP3    H130716   4.586   1.330   0.432 -0.7395  1.2406  0.5347
 3027TIP3    H230717   4.588   1.415   0.307 -1.1840  1.3585  0.6060
 3028TIP3   OH230718   5.104   4.312   0.327  0.0324 -0.4632  0.2597
 3028TIP3    H130719   5.061   4.302   0.242 -1.5228 -1.0542  1.0700
 3028TIP3    H230720   5.136   4.224   0.348  0.6458 -0.2639  0.1799
 3029TIP3   OH230721   4.364   1.627   6.401  0.7594 -0.2226 -0.3454
 3029TIP3    H130722   4.401   1.596   6.483 -0.1304 -0.5232 -0.0432
 3029TIP3    H230723   4.271   1.640   6.420  0.2815 -1.4830 -1.6215
 3030TIP3   OH230724   6.198   4.371   1.042 -0.2573 -0.4346  0.1973
 3030TIP3    H130725   6.134   4.370   0.971  0.4706  0.0885 -0.4900
 3030TIP3    H230726   6.224   4.462   1.050  1.3127 -0.7911 -0.4117
 3031TIP3   OH230727   6.062   3.298   0.610  0.0293 -0.1985  0.1771
 3031TIP3    H130728   6.087   3.217   0.655  2.6853  1.3123  1.6743
 3031TIP3    H230729   6.067   3.275   0.517  0.9351 -1.7057  0.5548
 3032TIP3   OH230730   4.393   0.479   6.869  0.3544  0.5377 -0.3879
 3032TIP3    H130731   4.315   0.500   6.819 -0.0267  1.2444  0.4753
 3032TIP3    H230732   4.386   0.533   6.948  0.4299 -1.2628  0.9077
 3033TIP3   OH230733   6.287   3.192   8.541  0.0302  0.0230  0.3665
 3033TIP3    H130734   6.197   3.201   8.574  1.1752  1.5677  3.3690
 3033TIP3    H230735   6.316   3.107   8.574  0.4255  0.5731  1.4718
 3034TIP3   OH230736   2.795   4.989   7.110  0.3170  0.2126 -0.3029
 3034TIP3    H130737   2.841   5.034   7.040  0.5048 -0.4692 -0.6315
 3034TIP3    H230738   2.702   4.998   7.088  0.2084  2.2666  0.7748
 3035TIP3   OH230739   4.339   1.985   0.859  0.8883  0.1141  0.0995
 3035TIP3    H130740   4.375   1.921   0.798  0.1686  0.8462 -1.1302
 3035TIP3    H230741   4.351   1.945   0.945  0.6910 -1.5502 -0.6102
 3036TIP3   OH230742   0.530   4.168   6.649  0.1558  0.0723 -0.2871
 3036TIP3    H130743   0.519   4.131   6.561  0.0483  0.2581 -0.3517
 3036TIP3    H230744   0.556   4.259   6.634  1.8677 -0.3609 -0.1399
 3037TIP3   OH230745   4.208   3.274   6.719 -0.0988 -0.0795 -0.4363
 3037TIP3    H130746   4.198   3.314   6.633  0.7162  1.3704  0.0967
 3037TIP3    H230747   4.283   3.215   6.709 -1.3206 -1.5785 -1.2326
 3038TIP3   OH230748   2.132   0.326   7.799  0.1322  0.0424  0.4708
 3038TIP3    H130749   2.188   0.348   7.873 -0.0195 -1.6587  1.1586
 3038TIP3    H230750   2.054   0.287   7.839 -0.7741  0.7841 -0.5308
 3039TIP3   OH230751   0.827   2.926   8.061 -0.6168 -0.3249 -0.2008
 3039TIP3    H130752   0.848   3.006   8.012 -0.9802  0.0508  0.2362
 3039TIP3    H230753   0.912   2.890   8.086 -0.4493  0.0049 -0.2898
 3040TIP3   OH230754   6.430   2.835   1.628 -0.5428 -0.1027  0.4934
 3040TIP3    H130755   6.442   2.904   1.562 -1.1964  0.4836  0.9683
 3040TIP3    H230756   6.336   2.816   1.626 -0.1574 -2.1474 -0.7520
 3041TIP3   OH230757   6.062   1.108   7.045  0.6810  0.1413 -0.0885
 3041TIP3    H130758   6.075   1.134   7.136  1.7435  0.5929 -0.3566
 3041TIP3    H230759   6.149   1.110   7.006  0.4368 -1.3818 -0.7773
 3042TIP3   OH230760   2.501   6.264   0.331  0.2265 -0.9015  0.1814
 3042TIP3    H130761   2.475   6.318   0.406  0.0822  1.0740 -1.2086
 3042TIP3    H230762   2.475   6.175   0.356  0.2396 -0.3327  2.4789
 3043TIP3   OH230763   3.091   1.815   1.433  0.4284 -0.1742 -0.4419
 3043TIP3    H130764   2.998   1.801   1.447  0.8659 -2.3369  0.8303
 3043TIP3    H230765   3.097   1.901   1.392 -1.9742  0.9295  1.3178
 3044TIP3   OH230766   2.178   1.593   6.585 -0.1414 -0.3609  0.4478
 3044TIP3    H130767   2.258   1.645   6.585 -1.1508  1.2901  1.6998
 3044TIP3    H230768   2.147   1.596   6.675 -0.6417 -2.5883  0.4126
 3045TIP3   OH230769   5.175   1.193   2.486 -0.2087 -0.1279  0.3252
 3045TIP3    H130770   5.149   1.158   2.401 -0.0471  0.8804 -0.1493
 3045TIP3    H230771   5.164   1.119   2.546 -0.4271 -0.8228 -0.5432
 3046TIP3   OH230772   1.397   6.151   2.445 -0.3380 -0.1237 -0.4699
 3046TIP3    H130773   1.416   6.103   2.526 -0.8646 -0.6588 -0.6546
 3046TIP3    H230774   1.470   6.211   2.435  1.1985 -2.0032 -1.0914
 3047TIP3   OH230775   4.369   3.366   0.809  0.2630 -1.2548 -0.4967
 3047TIP3    H130776   4.342   3.281   0.844 -0.5516 -0.3623  1.1437
 3047TIP3    H230777   4.325   3.430   0.865  1.2895  0.2558 -1.3565
 3048TIP3   OH230778   6.811   0.999   0.109  0.2690  0.4047  0.2327
 3048TIP3    H130779   6.902   0.968   0.117  0.5286  1.2538  0.6799
 3048TIP3    H230780   6.758   0.919   0.118  0.8615  0.2310  2.9047
 3049TIP3   OH230781   1.314   0.379   0.563  0.3690 -0.0862  0.2133
 3049TIP3    H130782   1.271   0.309   0.514 -0.0330  0.0482  0.3673
 3049TIP3    H230783   1.402   0.346   0.581  0.2954 -0.4077 -0.0191
 3050TIP3   OH230784   2.558   2.352   5.790  0.0955 -0.0929  0.6180
 3050TIP3    H130785   2.472   2.314   5.810 -0.3850  0.4745 -0.2926
 3050TIP3    H230786   2.605   2.282   5.745 -1.0191  0.5037 -1.6358
 3051TIP3   OH230787   0.561   5.826   8.274  0.1333 -0.1967 -0.0425
 3051TIP3    H130788   0.474   5.824   8.234 -0.1689  2.3002  0.3492
 3051TIP3    H230789   0.597   5.911   8.248  2.3269 -1.0131  0.1161
 3052TIP3   OH230790   1.068   1.831   7.585 -0.2350  0.2504  0.1828
 3052TIP3    H130791   1.088   1.739   7.598  0.7469  0.4990  0.5910
 3052TIP3    H230792   0.990   1.832   7.530 -1.0341 -0.8252  1.2574
 3053TIP3   OH230793   3.748   4.108   8.386 -0.2362 -0.0296  0.3252
 3053TIP3    H130794   3.766   4.043   8.454 -2.0868  0.2905  1.1905
 3053TIP3    H230795   3.654   4.100   8.369 -0.7412  2.9396  1.0923
 3054TIP3   OH230796   6.057   1.874   2.114 -0.7065 -0.4423 -0.2413
 3054TIP3    H130797   6.135   1.823   2.139 -0.9436 -0.7443 -0.1079
 3054TIP3    H230798   5.988   1.809   2.107 -1.1057 -0.0889  0.3218
 3055TIP3   OH230799   6.079   2.445   8.437 -0.0821 -0.2860  0.1927
 3055TIP3    H130800   6.168   2.431   8.407  1.0776  1.8398  2.2161
 3055TIP3    H230801   6.073   2.540   8.449 -2.0502 -0.5306  1.6858
 3056TIP3   OH230802   4.538   0.521   0.898 -0.1602 -0.6956  0.3698
 3056TIP3    H130803   4.578   0.477   0.973  2.7502  1.1478  0.0626
 3056TIP3    H230804   4.496   0.599   0.937 -0.2013 -0.6768  0.2874
 3057TIP3   OH230805   0.501   3.159   8.274 -0.0454 -0.0235  0.1364
 3057TIP3    H130806   0.422   3.116   8.241  0.2370  0.5023 -1.2710
 3057TIP3    H230807   0.512   3.235   8.218  0.0591  1.3474  1.9228
 3058TIP3   OH230808   2.784   1.525   2.447 -0.0354  0.3894 -0.0236
 3058TIP3    H130809   2.825   1.598   2.400  0.9805 -0.9187 -1.2574
 3058TIP3    H230810   2.713   1.496   2.390  0.4858 -0.4973 -0.2319
 3059TIP3   OH230811   1.133   0.787   1.947 -0.4427 -0.7964 -0.2601
 3059TIP3    H130812   1.110   0.877   1.923 -0.7318 -1.4783 -2.9670
 3059TIP3    H230813   1.090   0.773   2.031  1.0219  2.0829  1.1012
 3060TIP3   OH230814   3.043   3.373   1.775  0.3214 -0.3954  0.1125
 3060TIP3    H130815   3.072   3.332   1.856 -0.9064  0.5170  1.0484
 3060TIP3    H230816   3.113   3.436   1.754  1.6071 -1.9994 -0.6698
 3061TIP3   OH230817   4.928   2.621   6.925  0.2408  0.3878  0.5167
 3061TIP3    H130818   4.983   2.697   6.906 -0.1953  0.3865 -0.8865
 3061TIP3    H230819   4.839   2.650   6.902  0.3073 -1.1162 -1.8859
 3062TIP3   OH230820   5.661   5.868   0.185  0.3041 -0.5771 -0.1603
 3062TIP3    H130821   5.602   5.832   0.119  1.0451 -1.2088 -0.5022
 3062TIP3    H230822   5.748   5.863   0.144  0.5064  1.0904  0.0026
 3063TIP3   OH230823   6.651   6.728   7.422  0.3863  0.2627 -0.3485
 3063TIP3    H130824   6.709   6.757   7.352  0.8654  1.6389  0.5799
 3063TIP3    H230825   6.572   6.781   7.412  0.0670 -0.2209 -0.4259
 3064TIP3   OH230826   6.370   5.143   1.678 -0.1276  0.1905  0.0262
 3064TIP3    H130827   6.326   5.228   1.691 -2.5587 -0.9603 -0.1575
 3064TIP3    H230828   6.362   5.099   1.763 -0.0038 -0.3506 -0.2404
 3065TIP3   OH230829   6.088   2.938   7.958 -0.3846  0.5161  0.0460
 3065TIP3    H130830   6.111   2.958   7.868  1.8677  1.2883  0.7167
 3065TIP3    H230831   6.095   2.842   7.964 -0.8028  0.4399 -0.6511
 3066TIP3   OH230832   6.241   2.661   0.146 -0.7478  0.0237  0.0899
 3066TIP3    H130833   6.229   2.618   0.061  1.8773  0.0934 -0.3991
 3066TIP3    H230834   6.153   2.664   0.184 -1.9082 -0.5452 -2.3482
 3067TIP3   OH230835   4.184   5.739   1.539  0.0943  0.3658 -0.4096
 3067TIP3    H130836   4.252   5.676   1.514 -0.6427 -0.1684 -1.1144
 3067TIP3    H230837   4.102   5.691   1.528 -0.3913  0.8651  0.8302
 3068TIP3   OH230838   4.583   5.875   6.510 -0.3197 -0.1150  0.0789
 3068TIP3    H130839   4.547   5.951   6.465 -2.3242 -1.6595 -1.0781
 3068TIP3    H230840   4.542   5.877   6.597 -3.0519 -1.5828 -1.0551
 3069TIP3   OH230841   4.279   5.231   7.949 -0.2427  0.5379 -0.0356
 3069TIP3    H130842   4.364   5.219   7.992 -0.0533  1.9065  0.0100
 3069TIP3    H230843   4.281   5.171   7.875 -0.7285 -2.1821  2.0019
 3070TIP3   OH230844   3.509   1.607   5.976  0.4822  0.2262  0.2090
 3070TIP3    H130845   3.544   1.567   5.896 -0.7957 -2.1798  0.7578
 3070TIP3    H230846   3.546   1.556   6.047 -0.7177  0.4147  1.0055
 3071TIP3   OH230847   6.005   5.092   7.275  0.2212 -0.4290 -0.1136
 3071TIP3    H130848   6.098   5.093   7.250  0.3715  1.6064  0.3766
 3071TIP3    H230849   5.964   5.159   7.221 -1.3440 -2.3269 -1.4355
 3072TIP3   OH230850   5.639   3.582   2.301 -0.2487  0.3064 -0.6057
 3072TIP3    H130851   5.559   3.558   2.254 -0.9769  1.6159 -0.0598
 3072TIP3    H230852   5.648   3.516   2.369 -1.8271  1.1030  0.4186
 3073TIP3   OH230853   3.565   1.016   7.325 -0.4479  0.0501  0.0590
 3073TIP3    H130854   3.555   1.106   7.294  0.0892  0.1793  0.2410
 3073TIP3    H230855   3.480   0.975   7.310 -0.7515  0.6426  0.1492
 3074TIP3   OH230856   0.634   6.464   0.807  0.0459  0.3483  0.0795
 3074TIP3    H130857   0.679   6.390   0.767  0.5716  0.1667  0.9678
 3074TIP3    H230858   0.693   6.538   0.794  0.3650  0.2228  0.7744
 3075TIP3   OH230859   2.759   3.941   0.893  0.3003 -0.1561 -0.1480
 3075TIP3    H130860   2.852   3.954   0.875  0.3056 -0.1509 -0.1182
 3075TIP3    H230861   2.734   3.867   0.838  0.0598  0.5336 -0.9760
 3076TIP3   OH230862   0.220   1.501   0.432  0.0673  0.0676 -0.5407
 3076TIP3    H130863   0.226   1.479   0.339  1.0537  0.1121 -0.4952
 3076TIP3    H230864   0.126   1.516   0.447  0.0138  1.2983 -1.8208
 3077TIP3   OH230865   5.109   6.173   0.155  0.5203  0.3019  0.0478
 3077TIP3    H130866   5.142   6.111   0.090  1.1592 -0.2587  0.8800
 3077TIP3    H230867   5.181   6.236   0.165  0.3275  0.5238  0.0354
 3078TIP3   OH230868   3.616   5.963   8.297  0.6393 -0.0455 -0.3431
 3078TIP3    H130869   3.580   6.049   8.319 -1.3599  0.3631 -4.3071
 3078TIP3    H230870   3.697   5.983   8.250  0.4547 -0.3574 -0.7959
 3079TIP3   OH230871   1.094   5.865   2.106 -0.3920 -0.1940 -0.0169
 3079TIP3    H130872   1.078   5.923   2.181 -0.5396  1.2325 -1.1004
 3079TIP3    H230873   1.007   5.834   2.081 -0.2292 -1.7374  1.1609
 3080TIP3   OH230874   3.248   4.195   1.430 -0.2729  0.4537  0.1421
 3080TIP3    H130875   3.263   4.288   1.411  0.0981  0.1477 -1.1841
 3080TIP3    H230876   3.216   4.194   1.520 -0.0275  1.8435  0.2747
 3081TIP3   OH230877   6.715   5.870   6.583 -0.5180  0.6289 -0.4244
 3081TIP3    H130878   6.632   5.899   6.621 -0.8192 -1.7151  0.8854
 3081TIP3    H230879   6.776   5.869   6.656 -0.3796 -1.3238 -0.5094
 3082TIP3   OH230880   0.761   5.646   6.777 -0.6841  0.3662  0.3052
 3082TIP3    H130881   0.752   5.583   6.847 -0.1986 -0.8241 -0.6646
 3082TIP3    H230882   0.775   5.593   6.698 -0.4755  1.6705 -0.5733
 3083TIP3   OH230883   5.828   1.774   7.469  0.2076  0.0274 -0.0496
 3083TIP3    H130884   5.891   1.740   7.406 -0.4107 -0.3100 -0.5065
 3083TIP3    H230885   5.869   1.761   7.554  1.0211  0.4146 -0.3737
 3084TIP3   OH230886   4.490   2.245   1.229 -0.3675 -0.2792  0.0264
 3084TIP3    H130887   4.568   2.228   1.281 -0.1783 -2.4691 -0.8760
 3084TIP3    H230888   4.419   2.249   1.293  0.2272 -0.1143  0.6835
 3085TIP3   OH230889   0.742   0.885   8.461  0.3855 -0.2700 -0.5375
 3085TIP3    H130890   0.676   0.819   8.440 -0.9214  0.7929  0.0723
 3085TIP3    H230891   0.784   0.904   8.377 -0.9682 -0.0589 -1.1959
 3086TIP3   OH230892   3.329   6.840   0.348  0.7105  0.0857  0.3601
 3086TIP3    H130893   3.410   6.886   0.325  1.3596  0.2068  2.6543
 3086TIP3    H230894   3.346   6.748   0.324  1.5398  0.1111  0.8258
 3087TIP3   OH230895   5.994   5.718   0.874 -0.7370 -0.2994 -0.1460
 3087TIP3    H130896   5.998   5.645   0.812  1.8668 -2.1394  1.9881
 3087TIP3    H230897   5.925   5.694   0.935 -0.9524 -0.1659 -0.3325
 3088TIP3   OH230898   4.808   2.402   7.106  0.5757 -0.0419 -0.7278
 3088TIP3    H130899   4.776   2.486   7.138 -0.2949 -0.2280 -1.0872
 3088TIP3    H230900   4.867   2.425   7.033 -0.0938  0.2412 -1.1891
 3089TIP3   OH230901   0.960   6.207   0.409 -0.4591  0.5884 -0.0023
 3089TIP3    H130902   0.917   6.122   0.408  0.3411  0.1860 -1.4530
 3089TIP3    H230903   0.970   6.227   0.503 -0.9745 -0.7209  0.3559
 3090TIP3   OH230904   6.010   0.208   0.122 -0.0537  0.3387  0.2443
 3090TIP3    H130905   6.028   0.144   0.190 -0.2388 -0.0246 -0.0437
 3090TIP3    H230906   5.974   0.157   0.049 -2.2113  1.0066  0.7720
 3091TIP3   OH230907   2.352   0.650   1.248  0.5359 -0.2021 -0.7187
 3091TIP3    H130908   2.447   0.643   1.254  0.3639 -1.9281  3.2164
 3091TIP3    H230909   2.333   0.739   1.279  0.8568 -0.5317  0.4896
 3092TIP3   OH230910   0.789   4.182   2.034  0.3740  0.6134  0.2321
 3092TIP3    H130911   0.737   4.261   2.018  0.8263  1.4551  2.5493
 3092TIP3    H230912   0.756   4.147   2.117 -0.1862 -2.0191 -0.9888
 3093TIP3   OH230913   5.284   2.002   8.408 -0.4647  0.5107  0.0533
 3093TIP3    H130914   5.236   2.084   8.415  0.0518  0.6762  2.5843
 3093TIP3    H230915   5.234   1.941   8.463 -0.7664 -0.8863 -1.6653
 3094TIP3   OH230916   6.366   3.847   6.736 -0.1946 -0.2608  0.4403
 3094TIP3    H130917   6.281   3.819   6.770 -0.1082 -1.2140 -0.1126
 3094TIP3    H230918   6.371   3.810   6.648  0.1834  1.0056 -0.1051
 3095TIP3   OH230919   3.174   1.851   6.510  0.1147 -0.3691  0.2402
 3095TIP3    H130920   3.101   1.912   6.524  0.7577  0.0067  2.3853
 3095TIP3    H230921   3.137   1.780   6.459 -1.3136  0.6325 -0.1728
 3096TIP3   OH230922   6.462   0.363   6.448 -0.2616 -0.1051 -0.1727
 3096TIP3    H130923   6.377   0.370   6.405 -0.8207 -0.3271  0.8373
 3096TIP3    H230924   6.465   0.437   6.509  0.1766 -0.2172 -0.0490
 3097TIP3   OH230925   3.398   3.372   0.429  0.3121 -0.0966 -0.4181
 3097TIP3    H130926   3.431   3.447   0.379 -0.5801 -0.7367 -2.0389
 3097TIP3    H230927   3.477   3.328   0.460  1.0094 -0.3982 -2.4179
 3098TIP3   OH230928   0.059   3.568   7.991  0.1987 -0.0268  0.1436
 3098TIP3    H130929   0.107   3.614   8.060  0.8404 -0.0005 -0.3065
 3098TIP3    H230930   0.127   3.522   7.942 -0.3151 -0.5274 -0.1089
 3099TIP3   OH230931   0.770   0.589   0.772 -0.0206 -0.0224 -0.4445
 3099TIP3    H130932   0.758   0.505   0.816 -0.6392  0.1110 -0.3493
 3099TIP3    H230933   0.807   0.646   0.839 -1.1057  0.2237 -0.0216
 3100TIP3   OH230934   4.917   4.280   8.159  0.4540 -0.3269  0.0926
 3100TIP3    H130935   5.003   4.309   8.189  0.3642  0.9748 -0.8098
 3100TIP3    H230936   4.910   4.190   8.189  1.1349  0.2715  2.2861
 3101TIP3   OH230937   5.514   4.658   7.879 -0.6968  0.4934 -0.1299
 3101TIP3    H130938   5.487   4.596   7.948 -1.5208 -0.7361 -1.4962
 3101TIP3    H230939   5.467   4.738   7.899 -0.3659  0.3999  1.1396
 3102TIP3   OH230940   0.377   3.300   7.309  0.2936  0.3685  0.0270
 3102TIP3    H130941   0.320   3.362   7.354 -0.1717 -0.1738  0.1942
 3102TIP3    H230942   0.399   3.344   7.227 -1.5033  0.0433 -0.6823
 3103TIP3   OH230943   1.343   5.115   0.193 -0.2627  0.5838 -0.4698
 3103TIP3    H130944   1.319   5.161   0.273 -2.4424  0.5629 -1.0355
 3103TIP3    H230945   1.438   5.119   0.190 -0.0733  0.1328  2.3713
 3104TIP3   OH230946   0.958   0.280   0.283 -0.3713  0.0818  0.5098
 3104TIP3    H130947   0.904   0.213   0.243  1.7043 -1.1972 -0.3276
 3104TIP3    H230948   0.910   0.362   0.269 -0.9613 -0.6637 -2.2968
 3105TIP3   OH230949   2.883   4.071   1.619 -0.0520 -0.4326  0.0150
 3105TIP3    H130950   2.888   4.012   1.695  0.6201  0.4601  0.6756
 3105TIP3    H230951   2.943   4.032   1.555 -1.8159 -2.1006 -0.7580
 3106TIP3   OH230952   1.115   6.243   1.997 -0.3480  0.0406 -0.0669
 3106TIP3    H130953   1.149   6.159   1.966 -0.2489 -0.0744  0.3512
 3106TIP3    H230954   1.096   6.229   2.089  0.0307  0.5927  0.0987
 3107TIP3   OH230955   1.774   2.259   0.560  0.1140  0.0164  0.4593
 3107TIP3    H130956   1.746   2.173   0.528 -0.5122 -0.1411  1.4212
 3107TIP3    H230957   1.739   2.265   0.648  1.5956  0.5662  1.0408
 3108TIP3   OH230958   2.026   4.352   0.343 -0.6566 -0.1483 -0.2526
 3108TIP3    H130959   2.053   4.402   0.420  2.3110  0.5530 -1.6273
 3108TIP3    H230960   1.949   4.397   0.310  0.0571  1.6180  0.3863
 3109TIP3   OH230961   2.628   5.704   7.095 -0.0878 -0.1335 -0.5737
 3109TIP3    H130962   2.713   5.706   7.051 -0.1536  1.0911 -0.6819
 3109TIP3    H230963   2.642   5.649   7.172  0.9565  0.4680 -0.3146
 3110TIP3   OH230964   2.195   1.580   6.887  0.4350  0.5253 -0.5291
 3110TIP3    H130965   2.106   1.600   6.916  1.5153  3.1161  1.3050
 3110TIP3    H230966   2.210   1.490   6.916 -1.4156  0.1666 -0.5348
 3111TIP3   OH230967   4.609   0.827   1.270  0.1374 -0.4787 -0.4957
 3111TIP3    H130968   4.626   0.788   1.356  0.4932 -2.0560 -1.2370
 3111TIP3    H230969   4.519   0.859   1.275 -0.4115 -2.0132 -0.0315
 3112TIP3   OH230970   1.526   6.480   7.964 -0.1958  0.1638 -0.3589
 3112TIP3    H130971   1.551   6.566   7.933  0.8124 -0.8198 -2.4731
 3112TIP3    H230972   1.591   6.458   8.031  0.4582  0.4279 -0.9046
 3113TIP3   OH230973   5.850   3.793   0.033  0.6332 -0.3247 -0.3500
 3113TIP3    H130974   5.864   3.789  -0.061 -0.4842  0.3668 -0.5574
 3113TIP3    H230975   5.759   3.765   0.046  0.6774 -0.1200  0.4899
 3114TIP3   OH230976   4.279   0.537   1.254 -0.3137 -0.5765 -0.0788
 3114TIP3    H130977   4.297   0.549   1.347  0.5031  0.3117 -0.3325
 3114TIP3    H230978   4.185   0.551   1.245 -0.3574 -0.4465  0.5797
 3115TIP3   OH230979   2.771   3.953   0.354  0.1499  0.2307  0.0569
 3115TIP3    H130980   2.724   4.022   0.400 -1.3609 -0.7420  0.0608
 3115TIP3    H230981   2.710   3.924   0.285  0.9984 -0.6509 -0.3538
 3116TIP3   OH230982   4.019   0.186   7.008  0.2514 -0.9251  0.3353
 3116TIP3    H130983   3.962   0.231   6.945 -2.5895 -2.1687  1.8121
 3116TIP3    H230984   4.108   0.209   6.981 -0.9264  2.6213 -1.0589
 3117TIP3   OH230985   1.252   5.699   1.926 -0.2040 -0.5281  0.4813
 3117TIP3    H130986   1.183   5.682   1.990 -0.8284  2.3717  0.7255
 3117TIP3    H230987   1.207   5.704   1.842  0.5248 -3.6722 -0.2111
 3118TIP3   OH230988   5.752   6.577   0.780  0.3509 -0.3203 -0.4249
 3118TIP3    H130989   5.779   6.624   0.701 -0.5930 -0.5494 -0.9032
 3118TIP3    H230990   5.696   6.639   0.827 -1.7102 -1.2280 -1.5463
 3119TIP3   OH230991   4.870   2.374   1.738 -0.8375  0.0785 -0.0087
 3119TIP3    H130992   4.848   2.295   1.785  0.7894 -0.4180 -0.0270
 3119TIP3    H230993   4.922   2.426   1.800  0.4984 -0.1538 -0.8914
 3120TIP3   OH230994   5.743   6.035   0.650  0.0340  0.0563  0.8548
 3120TIP3    H130995   5.825   6.008   0.690  0.5178  0.7736  0.3691
 3120TIP3    H230996   5.716   6.112   0.699  0.6768  0.9939 -0.2343
 3121TIP3   OH230997   3.825   6.136   7.374  0.3771 -0.4200 -0.1946
 3121TIP3    H130998   3.802   6.047   7.404 -0.1021 -0.2065  0.0873
 3121TIP3    H230999   3.753   6.160   7.315  0.4042 -0.1431 -0.1156
 3122TIP3   OH231000   0.206   5.239   7.476  0.0585  0.4063 -0.5682
 3122TIP3    H131001   0.262   5.230   7.399  1.7260  1.5989  0.4380
 3122TIP3    H231002   0.214   5.154   7.521  0.6445  0.3877 -0.7036
 3123TIP3   OH231003   4.203   3.414   2.065  0.2970 -0.3081  0.1887
 3123TIP3    H131004   4.158   3.330   2.075  1.1219 -0.9508 -1.2491
 3123TIP3    H231005   4.177   3.464   2.143 -0.5266 -1.7299  0.8732
 3124TIP3   OH231006   1.804   6.700   1.906  0.0673 -0.0259  0.0586
 3124TIP3    H131007   1.866   6.722   1.836 -0.1200  0.4103  0.0264
 3124TIP3    H231008   1.751   6.779   1.917  0.0291 -0.1225  0.6270
 3125TIP3   OH231009   1.844   1.703   1.987 -0.2065  0.0426  0.2265
 3125TIP3    H131010   1.870   1.734   1.900 -0.4482  0.2859  0.2389
 3125TIP3    H231011   1.920   1.656   2.019 -0.4247 -0.8178 -0.4861
 3126TIP3   OH231012   0.254   6.010   7.556  0.0018  0.1204  0.0883
 3126TIP3    H131013   0.200   5.953   7.611  0.7713  0.4924  1.2782
 3126TIP3    H231014   0.299   5.951   7.496 -2.0662 -0.1673 -1.2995
 3127TIP3   OH231015   3.028   6.264   8.165 -0.0754  0.2604 -0.4015
 3127TIP3    H131016   2.994   6.287   8.251 -0.2825  0.8320 -0.6339
 3127TIP3    H231017   3.120   6.242   8.181  0.1753  1.3851 -0.1840
 3128TIP3   OH231018   5.195   3.359   0.517 -0.0241 -0.3392  0.2007
 3128TIP3    H131019   5.100   3.372   0.517  0.1657  1.5342  1.6179
 3128TIP3    H231020   5.213   3.310   0.598  0.2963  0.1914  0.4575
 3129TIP3   OH231021   6.302   3.905   7.548 -0.4045  0.3859 -0.0664
 3129TIP3    H131022   6.332   3.896   7.457 -0.6274 -0.9949 -0.0192
 3129TIP3    H231023   6.350   3.838   7.596 -2.1768 -0.6684  0.3345
 3130TIP3   OH231024   2.128   3.241   0.626  0.1262 -0.4130 -0.0438
 3130TIP3    H131025   2.115   3.335   0.614  1.3669 -0.2422 -0.1812
 3130TIP3    H231026   2.222   3.228   0.615 -0.1512 -1.8241 -1.0347
 3131TIP3   OH231027   1.223   4.212   0.261 -0.1118  0.2064 -0.1015
 3131TIP3    H131028   1.236   4.299   0.299 -0.1416  0.5078 -0.7631
 3131TIP3    H231029   1.311   4.174   0.259 -0.0528  0.3416 -0.0983
 3132TIP3   OH231030   3.474   2.504   6.206 -0.5548  0.4408 -0.4534
 3132TIP3    H131031   3.445   2.445   6.275  1.0387  0.4807  0.2862
 3132TIP3    H231032   3.513   2.446   6.140  0.4349  0.5857 -0.0179
 3133TIP3   OH231033   3.122   0.612   7.717 -0.0302  0.3188 -0.7065
 3133TIP3    H131034   3.172   0.625   7.798 -2.0176  0.6702  0.5420
 3133TIP3    H231035   3.049   0.672   7.724 -2.2334 -2.1366 -1.0449
 3134TIP3   OH231036   6.825   4.853   0.943  0.4547  0.3483  0.3536
 3134TIP3    H131037   6.769   4.869   1.019 -0.2682  0.3189 -0.1745
 3134TIP3    H231038   6.833   4.758   0.939  1.3289  0.3824  0.9910
 3135TIP3   OH231039   5.275   3.099   7.608 -0.3662 -0.2197  0.1680
 3135TIP3    H131040   5.223   3.065   7.535  1.4189 -0.6206 -0.9792
 3135TIP3    H231041   5.261   3.194   7.604  0.7763 -0.0897 -1.6065
 3136TIP3   OH231042   6.004   1.615   1.363  0.4134  0.5940 -0.2158
 3136TIP3    H131043   6.071   1.570   1.310  0.4723 -0.2098  0.5212
 3136TIP3    H231044   6.040   1.615   1.452 -1.1799 -1.1976  0.5113
 3137TIP3   OH231045   1.106   6.220   8.563  0.3817 -0.1854 -0.1454
 3137TIP3    H131046   1.160   6.191   8.637  2.0452  1.2971 -0.7077
 3137TIP3    H231047   1.073   6.139   8.524  0.7937 -1.0620  1.2357
 3138TIP3   OH231048   0.356   4.721   2.351 -0.1402 -1.0339 -0.1806
 3138TIP3    H131049   0.429   4.674   2.392 -1.0944 -0.9176  1.7697
 3138TIP3    H231050   0.390   4.809   2.336  0.3531 -1.1871  0.0036
 3139TIP3   OH231051   2.058   0.841   1.961  0.0357  0.0389 -0.2117
 3139TIP3    H131052   2.072   0.779   2.033 -0.6848 -0.7329 -0.7170
 3139TIP3    H231053   2.095   0.796   1.885  0.7801  0.8437 -0.3347
 3140TIP3   OH231054   4.711   0.279   0.375 -0.1062  0.2534 -0.1036
 3140TIP3    H131055   4.631   0.325   0.351 -0.2629 -0.0022 -0.0703
 3140TIP3    H231056   4.702   0.263   0.469  0.1028  0.4593 -0.0488
 3141TIP3   OH231057   2.549   0.221   7.173 -0.3528 -0.4144 -0.0864
 3141TIP3    H131058   2.478   0.263   7.124  0.0643  0.6874  0.2202
 3141TIP3    H231059   2.611   0.292   7.190  0.4475 -1.1988  0.3297
 3142TIP3   OH231060   1.138   6.179   0.205  0.1800  0.2604 -0.0851
 3142TIP3    H131061   1.104   6.177   0.295 -0.8432  0.4024 -0.4553
 3142TIP3    H231062   1.231   6.199   0.215 -0.3801  2.8095  0.8560
 3143TIP3   OH231063   2.968   5.775   0.604  0.0936  0.2887  0.2883
 3143TIP3    H131064   2.970   5.680   0.610 -0.6679  0.3269  1.7583
 3143TIP3    H231065   3.019   5.805   0.679 -0.4829  1.0240  0.4063
 3144TIP3   OH231066   6.695   3.577   1.284 -0.2991  0.5035  0.2465
 3144TIP3    H131067   6.776   3.588   1.233 -0.5877 -1.7299 -0.8198
 3144TIP3    H231068   6.630   3.550   1.219 -1.5875  0.9929  1.3018
 3145TIP3   OH231069   3.918   2.736   1.386  0.1494  0.0905  0.2185
 3145TIP3    H131070   4.013   2.722   1.391  0.4198  1.1927 -1.1842
 3145TIP3    H231071   3.883   2.685   1.459  1.8303 -0.1643  0.9078
 3146TIP3   OH231072   2.354   6.578   2.503 -0.2611  0.0845 -0.3161
 3146TIP3    H131073   2.264   6.567   2.535 -0.2580 -0.8285 -0.5842
 3146TIP3    H231074   2.353   6.662   2.457 -0.8856  0.2529 -0.0089
 3147TIP3   OH231075   6.630   5.574   6.916 -0.1275  0.1385 -0.9448
 3147TIP3    H131076   6.613   5.666   6.895 -0.0063  0.2189 -0.7021
 3147TIP3    H231077   6.576   5.558   6.994 -1.8074 -0.5920 -2.2008
 3148TIP3   OH231078   3.122   2.513   7.284 -0.4090 -0.5325  0.7498
 3148TIP3    H131079   3.162   2.584   7.336  1.4461 -0.4236 -0.7145
 3148TIP3    H231080   3.056   2.557   7.231  1.3821  0.3826 -0.8597
 3149TIP3   OH231081   2.541   4.425   1.933  0.0820  0.2738 -0.0487
 3149TIP3    H131082   2.583   4.408   1.849  1.3666 -0.3249  0.6728
 3149TIP3    H231083   2.599   4.383   1.997 -1.0289  0.4439  1.1049
 3150TIP3   OH231084   5.837   5.576   0.352 -0.3970  0.1303 -0.4312
 3150TIP3    H131085   5.802   5.615   0.433  1.3431 -0.9977  0.9403
 3150TIP3    H231086   5.780   5.501   0.336  0.9893 -1.4398  1.5374
 3151TIP3   OH231087   3.785   6.508   8.047 -0.2213  0.1632  0.0205
 3151TIP3    H131088   3.709   6.449   8.049 -1.4585  1.6632 -0.7044
 3151TIP3    H231089   3.859   6.450   8.028 -1.2177 -1.3044  0.4089
 3152TIP3   OH231090   4.179   6.096   7.655 -0.2127  0.0018  0.1822
 3152TIP3    H131091   4.231   6.159   7.705  0.7130 -0.7153  0.1703
 3152TIP3    H231092   4.135   6.043   7.721  1.4248 -1.2876  0.3115
 3153TIP3   OH231093   2.928   5.575   8.329  0.2177  0.0014 -0.1282
 3153TIP3    H131094   2.938   5.593   8.423  0.5535 -0.3425 -0.0923
 3153TIP3    H231095   2.989   5.503   8.312 -1.8469 -1.8691 -0.0445
 3154TIP3   OH231096   1.630   1.223   0.616 -0.9558 -0.0886  0.6543
 3154TIP3    H131097   1.672   1.296   0.661 -0.6185 -0.7762  1.4912
 3154TIP3    H231098   1.666   1.145   0.658 -0.9512 -0.7513 -0.5462
 3155TIP3   OH231099   5.723   2.594   6.707  0.2532  0.2199  0.5954
 3155TIP3    H131100   5.712   2.689   6.702 -0.4713  0.1635  0.9211
 3155TIP3    H231101   5.817   2.580   6.696  0.1542  0.8354 -1.3603
 3156TIP3   OH231102   2.144   3.241   2.140  0.0758  0.0005  0.7531
 3156TIP3    H131103   2.219   3.236   2.199  1.1472  1.3790 -0.3927
 3156TIP3    H231104   2.078   3.184   2.179  0.9005  0.4643  2.9945
 3157TIP3   OH231105   4.602   5.304   8.514  0.4163 -0.4808 -0.1530
 3157TIP3    H131106   4.597   5.399   8.505  0.1860 -0.5264 -0.5405
 3157TIP3    H231107   4.693   5.287   8.540  0.2291 -0.0928  0.7887
 3158TIP3   OH231108   2.506   5.657   7.871 -0.3355  0.4235 -0.1795
 3158TIP3    H131109   2.433   5.683   7.815 -0.3781  0.2691 -0.1960
 3158TIP3    H231110   2.582   5.701   7.833 -0.7387  2.3145  1.0705
 3159TIP3   OH231111   6.080   5.485   0.481  0.2768 -0.2550 -0.0452
 3159TIP3    H131112   6.065   5.392   0.464  0.1535 -0.2441 -0.0008
 3159TIP3    H231113   5.999   5.528   0.456  1.2181  0.1941 -2.6436
 3160TIP3   OH231114   0.113   2.999   7.026  0.6023 -0.0334 -0.2488
 3160TIP3    H131115   0.155   3.048   7.097  1.6890  0.6983 -1.3525
 3160TIP3    H231116   0.021   3.028   7.028 -0.3598 -2.7076  3.0961
 3161TIP3   OH231117   5.324   2.334   1.602  0.0924  0.2180 -0.3197
 3161TIP3    H131118   5.359   2.421   1.584 -3.9454  2.5817  1.7416
 3161TIP3    H231119   5.263   2.318   1.530 -0.6518  0.0870  0.3236
 3162TIP3   OH231120   2.215   5.024   8.540 -0.7049  0.5921 -0.3878
 3162TIP3    H131121   2.170   4.951   8.583 -0.0603  0.0216 -0.6667
 3162TIP3    H231122   2.224   5.090   8.608  0.8550 -0.5377  0.5765
 3163TIP3   OH231123   1.630   5.254   1.486  0.3852 -0.0216 -0.3307
 3163TIP3    H131124   1.724   5.249   1.470  0.7587  1.2616  1.1637
 3163TIP3    H231125   1.590   5.259   1.399  1.7854  0.6391 -0.9599
 3164TIP3   OH231126   2.842   6.098   7.918  0.0974 -0.0529  0.1739
 3164TIP3    H131127   2.778   6.079   7.987  1.0098 -0.4152  0.9493
 3164TIP3    H231128   2.806   6.056   7.840 -0.8641  0.1998  0.4671
 3165TIP3   OH231129   1.658   0.310   1.888 -0.1040  0.5170  0.0380
 3165TIP3    H131130   1.747   0.293   1.918 -0.3300  1.3360  1.2959
 3165TIP3    H231131   1.620   0.364   1.958 -0.6581  2.6903 -1.8046
 3166TIP3   OH231132   5.857   0.796   0.215  0.1318  0.2789 -0.8359
 3166TIP3    H131133   5.793   0.768   0.150  2.5375 -1.2741 -2.6899
 3166TIP3    H231134   5.864   0.723   0.275  0.4648  0.2726 -0.8825
 3167TIP3   OH231135   1.771   1.739   1.082 -0.3761 -0.1328 -0.0167
 3167TIP3    H131136   1.842   1.679   1.064 -0.4882  0.2609 -2.0149
 3167TIP3    H231137   1.788   1.771   1.171  1.9435 -0.0381 -0.4365
 3168TIP3   OH231138   5.985   0.637   7.411  0.2679 -0.1104  0.1194
 3168TIP3    H131139   5.929   0.674   7.479 -0.4823 -0.1551 -0.4700
 3168TIP3    H231140   6.050   0.585   7.459 -0.0330  0.1570  0.8177
 3169TIP3   OH231141   0.922   1.195   7.539 -0.0449  0.3422  0.3964
 3169TIP3    H131142   0.886   1.281   7.520  0.3875  0.8926  1.9183
 3169TIP3    H231143   0.869   1.162   7.612 -0.0980 -0.6044 -0.0525
 3170TIP3   OH231144   1.370   1.402   2.556  0.2312 -0.4462  0.1530
 3170TIP3    H131145   1.394   1.494   2.545 -0.4274 -0.3628 -0.7225
 3170TIP3    H231146   1.435   1.354   2.505  0.7443 -0.4948  0.8416
 3171TIP3   OH231147   6.838   2.737   8.381 -0.5273  0.2407  0.2198
 3171TIP3    H131148   6.874   2.707   8.465 -0.4177  1.2481  0.5512
 3171TIP3    H231149   6.775   2.669   8.356  1.9101 -1.8538 -0.6277
 3172TIP3   OH231150   0.169   1.845   1.982 -0.4962  0.4472 -0.1212
 3172TIP3    H131151   0.148   1.816   2.071 -0.1475 -0.5699 -0.3482
 3172TIP3    H231152   0.164   1.765   1.930 -2.7338  1.3464 -1.4263
 3173TIP3   OH231153   1.596   5.714   8.414 -0.1359 -0.0655  0.4244
 3173TIP3    H131154   1.578   5.762   8.334  0.5183  1.7673  1.3278
 3173TIP3    H231155   1.692   5.707   8.418 -0.2033 -1.1979  0.4641
 3174TIP3   OH231156   3.792   0.086   6.601  0.0437  0.0821 -0.4859
 3174TIP3    H131157   3.778   0.028   6.527 -0.6792 -1.4587  0.7848
 3174TIP3    H231158   3.843   0.033   6.663  1.1066  1.5113 -0.0962
 3175TIP3   OH231159   1.500   2.917   0.908  0.5388 -0.3515 -0.2685
 3175TIP3    H131160   1.472   2.872   0.828  0.2832 -1.4877  0.4359
 3175TIP3    H231161   1.472   3.008   0.895 -1.1717 -0.9067 -0.6949
 3176TIP3   OH231162   3.633   4.952   1.474  0.2562 -0.5862  0.2816
 3176TIP3    H131163   3.621   4.936   1.380 -1.2874  0.4899  0.2575
 3176TIP3    H231164   3.600   4.873   1.517  1.6911 -1.4127 -0.0734
 3177TIP3   OH231165   2.904   5.114   6.860  0.4193 -0.5301  0.0664
 3177TIP3    H131166   2.836   5.171   6.823  2.5747  1.6114 -0.8845
 3177TIP3    H231167   2.937   5.065   6.785  0.7643 -0.6437  0.2910
 3178TIP3   OH231168   2.578   0.835   8.111 -0.1930 -0.8172  0.5012
 3178TIP3    H131169   2.638   0.801   8.045 -0.3005 -0.7463  0.3658
 3178TIP3    H231170   2.551   0.757   8.161  1.0305 -0.6781  1.4166
 3179TIP3   OH231171   6.818   6.461   8.353  0.0195 -0.6359  0.2493
 3179TIP3    H131172   6.886   6.502   8.406  0.8930 -2.1776  0.3779
 3179TIP3    H231173   6.865   6.405   8.292 -1.1033 -1.2542 -0.0857
 3180TIP3   OH231174   2.075   4.299   8.579  0.1793  0.1295  0.2055
 3180TIP3    H131175   2.039   4.377   8.537  0.9880  0.9610  1.0069
 3180TIP3    H231176   2.150   4.275   8.525 -0.1750 -0.2065 -0.1413
 3181TIP3   OH231177   4.365   0.933   1.264 -0.1077 -0.1251  0.6651
 3181TIP3    H131178   4.307   0.904   1.194 -1.4608  2.2860  0.6808
 3181TIP3    H231179   4.306   0.952   1.337  1.0774 -0.7104  1.8148
 3182TIP3   OH231180   1.788   3.788   0.207  0.1104 -0.3907 -0.0996
 3182TIP3    H131181   1.764   3.696   0.204 -0.9730 -0.1079 -1.0915
 3182TIP3    H231182   1.883   3.789   0.209  0.1322 -1.5464  2.1106
 3183TIP3   OH231183   5.921   1.631   7.708 -0.3610 -0.1255 -0.0885
 3183TIP3    H131184   6.013   1.629   7.681  0.0901  2.2596  0.9891
 3183TIP3    H231185   5.923   1.666   7.797 -2.2827 -0.8785  0.2897
 3184TIP3   OH231186   0.265   5.288   0.408 -0.4997  0.3566 -0.3960
 3184TIP3    H131187   0.268   5.200   0.371  1.5312 -0.0889  0.6651
 3184TIP3    H231188   0.348   5.297   0.456 -1.7851  1.8778  1.7269
 3185TIP3   OH231189   3.395   6.673   1.424  0.1460  0.2016  0.5071
 3185TIP3    H131190   3.375   6.595   1.475 -0.1608  1.8427  3.0519
 3185TIP3    H231191   3.311   6.717   1.413  0.8040  2.2724  2.8887
 3186TIP3   OH231192   0.628   6.430   1.866  1.0739  0.0985  0.0085
 3186TIP3    H131193   0.614   6.415   1.959  0.0171 -0.5067 -0.2294
 3186TIP3    H231194   0.681   6.355   1.838 -1.9239 -2.0072 -0.6242
 3187TIP3   OH231195   3.019   4.867   7.327 -0.3277 -0.6067 -0.2892
 3187TIP3    H131196   3.105   4.887   7.361 -0.0679  0.0042 -1.2599
 3187TIP3    H231197   3.029   4.872   7.232 -1.3672 -0.7904 -0.4227
 3188TIP3   OH231198   1.079   2.091   1.666 -0.5002  0.0628  0.0728
 3188TIP3    H131199   1.155   2.079   1.609 -0.9266  1.4563 -0.8336
 3188TIP3    H231200   1.077   2.012   1.719  1.6886  0.0618  0.2544
 3189TIP3   OH231201   5.081   1.961   7.922  0.4755  0.0015 -0.4738
 3189TIP3    H131202   5.052   1.991   8.008  0.9173  0.2391 -0.4029
 3189TIP3    H231203   5.021   2.003   7.860 -0.2496 -0.6853 -0.2517
 3190TIP3   OH231204   2.439   2.196   2.037 -0.0455  0.2043  0.2716
 3190TIP3    H131205   2.460   2.264   1.973 -0.7518  0.7479  0.5998
 3190TIP3    H231206   2.523   2.170   2.073  0.1619  1.6784  0.9022
 3191TIP3   OH231207   3.387   6.809   0.810 -0.0170 -0.2328  0.2241
 3191TIP3    H131208   3.340   6.771   0.736 -0.3147 -0.6007  0.5999
 3191TIP3    H231209   3.477   6.821   0.778 -0.4258  0.7634 -0.5993
 3192TIP3   OH231210   0.128   4.760   7.346 -0.1542 -0.1919 -0.2201
 3192TIP3    H131211   0.104   4.746   7.254  0.0894  0.3683 -0.3746
 3192TIP3    H231212   0.149   4.673   7.379  0.3760 -0.3274 -0.8822
 3193TIP3   OH231213   6.119   4.222   0.160  0.3792  0.4707 -0.0640
 3193TIP3    H131214   6.085   4.269   0.236  2.0522 -1.3909  1.9494
 3193TIP3    H231215   6.048   4.225   0.096 -1.5651  1.0734  2.0018
 3194TIP3   OH231216   0.018   1.180   1.818  0.7533 -0.2040  0.0863
 3194TIP3    H131217  -0.044   1.108   1.807  0.4100  0.2669 -1.2595
 3194TIP3    H231218   0.045   1.175   1.910 -0.2214 -1.2660  0.3343
 3195TIP3   OH231219   2.756   2.872   7.492  0.0334  0.1548  0.0529
 3195TIP3    H131220   2.794   2.803   7.547  1.1632 -0.0381 -0.9267
 3195TIP3    H231221   2.819   2.883   7.420 -2.4909 -1.3374 -2.6090
 3196TIP3   OH231222   2.234   5.070   8.205 -0.0995 -0.3739 -0.1053
 3196TIP3    H131223   2.311   5.018   8.228  0.1640  1.2750  3.6246
 3196TIP3    H231224   2.161   5.024   8.247 -0.3746  0.4787  0.3720
 3197TIP3   OH231225   5.101   2.227   7.417  0.3947 -0.3806  0.4475
 3197TIP3    H131226   5.013   2.256   7.441  0.0411 -1.1566  0.1361
 3197TIP3    H231227   5.134   2.297   7.361  0.5548  0.6060  1.7228
 3198TIP3   OH231228   2.537   6.008   0.502  0.2489 -0.2406 -0.6368
 3198TIP3    H131229   2.533   6.016   0.597  0.0581  2.0907 -0.7724
 3198TIP3    H231230   2.630   6.015   0.481  0.2200  0.1605 -0.6504
 3199TIP3   OH231231   6.655   1.253   7.158  0.0624 -0.5880  0.1691
 3199TIP3    H131232   6.735   1.211   7.189 -0.4607 -2.3204 -0.6452
 3199TIP3    H231233   6.612   1.285   7.236  0.8170 -1.0214  0.7753
 3200TIP3   OH231234   6.781   6.347   1.111  0.0539 -0.1800 -0.2694
 3200TIP3    H131235   6.753   6.274   1.055  0.0781 -0.2133 -0.2378
 3200TIP3    H231236   6.775   6.312   1.200 -1.8964  0.4848 -0.0933
 3201TIP3   OH231237   4.967   0.397   2.406  0.2583  0.2184  0.5342
 3201TIP3    H131238   5.002   0.312   2.433 -0.7023 -0.2654  0.3005
 3201TIP3    H231239   4.956   0.390   2.311 -1.9318 -0.2462  0.7622
 3202TIP3   OH231240   4.702   6.648   7.043 -0.7397  0.2378 -0.3518
 3202TIP3    H131241   4.732   6.737   7.022 -2.4872  0.6445 -1.4084
 3202TIP3    H231242   4.643   6.660   7.118  0.2693 -0.2846  0.5491
 3203TIP3   OH231243   2.406   3.964   8.319 -0.2124  0.3972 -0.0335
 3203TIP3    H131244   2.314   3.990   8.322 -0.8026 -1.5475 -0.2597
 3203TIP3    H231245   2.424   3.932   8.408 -0.7075 -2.1798 -0.8033
 3204TIP3   OH231246   1.862   4.622   6.507 -0.0282  0.2126 -1.3097
 3204TIP3    H131247   1.943   4.658   6.544 -0.4662  0.3205 -0.4322
 3204TIP3    H231248   1.891   4.567   6.435  0.8157  0.4287 -1.1444
 3205TIP3   OH231249   3.550   2.892   1.446  0.2597 -0.1806  0.2671
 3205TIP3    H131250   3.514   2.917   1.361  1.7892  1.0639 -0.0574
 3205TIP3    H231251   3.528   2.965   1.504  0.9839 -0.0680  0.4132
 3206TIP3   OH231252   4.103   3.538   1.241 -0.6862  0.8198  0.2454
 3206TIP3    H131253   4.101   3.469   1.308 -0.3324 -0.2766 -0.8359
 3206TIP3    H231254   4.027   3.593   1.261 -0.9435  0.1533  1.1755
 3207TIP3   OH231255   2.524   0.020   8.366 -0.8991  0.5115 -0.2187
 3207TIP3    H131256   2.574  -0.034   8.305 -0.8897  0.1096  0.1425
 3207TIP3    H231257   2.569   0.010   8.449 -1.8412 -0.2290  0.2256
 3208TIP3   OH231258   0.863   4.373   6.699 -0.1912  0.0805  0.4473
 3208TIP3    H131259   0.861   4.357   6.794  2.3230  1.5797  0.8240
 3208TIP3    H231260   0.882   4.287   6.661  1.7443 -0.0463  1.5697
 3209TIP3   OH231261   2.492   1.121   8.383  0.3222 -0.0507  0.2424
 3209TIP3    H131262   2.548   1.045   8.397  1.9677  1.3449  1.8651
 3209TIP3    H231263   2.449   1.135   8.467 -2.5084 -1.0127 -0.9369
 3210TIP3   OH231264   0.787   5.700   8.203 -0.5763  0.6051 -0.1386
 3210TIP3    H131265   0.823   5.628   8.253 -0.5702  1.4551  1.1183
 3210TIP3    H231266   0.704   5.721   8.247 -0.6717  1.2390 -0.6016
 3211TIP3   OH231267   1.541   6.358   7.561 -0.1211 -0.3584  0.0989
 3211TIP3    H131268   1.581   6.310   7.634  1.1677 -0.3803 -0.5999
 3211TIP3    H231269   1.566   6.308   7.483 -0.7554  0.1461 -0.4398
 3212TIP3   OH231270   5.673   5.540   7.803 -0.2322  0.2738 -0.1436
 3212TIP3    H131271   5.764   5.518   7.818 -0.5954  0.2299  2.4069
 3212TIP3    H231272   5.624   5.484   7.862 -1.7748  1.7113  0.0369
 3213TIP3   OH231273   4.142   3.690   8.520 -0.2763 -0.4553 -0.0396
 3213TIP3    H131274   4.118   3.745   8.595 -1.7125  1.0094 -1.4830
 3213TIP3    H231275   4.237   3.684   8.524 -0.0883  1.9492  0.3487
 3214TIP3   OH231276   4.856   5.872   1.854  0.5999 -0.0462 -0.1813
 3214TIP3    H131277   4.847   5.817   1.932  3.3016 -0.5792 -0.1539
 3214TIP3    H231278   4.843   5.812   1.781 -2.2168  0.5068 -0.2569
 3215TIP3   OH231279   1.633   6.249   6.492  0.0193  0.3625  0.3111
 3215TIP3    H131280   1.586   6.301   6.557  0.1866  0.3067  0.4781
 3215TIP3    H231281   1.697   6.309   6.455 -1.4721  1.0446 -1.3544
 3216TIP3   OH231282   0.655   5.752   1.925  0.2759 -0.1178 -0.3709
 3216TIP3    H131283   0.663   5.725   1.834 -1.0251 -0.2425 -0.4712
 3216TIP3    H231284   0.619   5.675   1.969  0.8252 -0.0337  0.2471
 3217TIP3   OH231285   2.393   1.730   2.102  0.1552 -0.3337  0.4926
 3217TIP3    H131286   2.364   1.747   2.013  0.1900  1.2333  0.7556
 3217TIP3    H231287   2.312   1.714   2.151  0.0609 -0.2069  0.3791
 3218TIP3   OH231288   3.294   3.550   7.513 -0.0844 -0.4241 -0.2317
 3218TIP3    H131289   3.350   3.572   7.439  0.8554 -0.4199  0.4605
 3218TIP3    H231290   3.355   3.520   7.581 -0.8483  0.3201  0.8164
 3219TIP3   OH231291   0.692   4.175   1.208  0.0987  0.1466  0.1272
 3219TIP3    H131292   0.745   4.247   1.174  0.7893 -0.3628  0.1220
 3219TIP3    H231293   0.670   4.123   1.131 -0.9427  0.6908  0.0373
 3220TIP3   OH231294   1.178   0.137   8.257 -0.2974 -0.2721  0.1753
 3220TIP3    H131295   1.121   0.073   8.213 -2.9685  1.1889  1.2418
 3220TIP3    H231296   1.160   0.124   8.350  2.1617 -0.5775  0.6651
 3221TIP3   OH231297   1.462   5.141   2.044  0.5123  0.2031 -0.4536
 3221TIP3    H131298   1.544   5.118   2.088  1.6444  0.9173 -2.0695
 3221TIP3    H231299   1.447   5.232   2.069  0.7579  0.3775 -0.9239
 3222TIP3   OH231300   5.525   4.184   8.167  0.0530 -0.0239  0.8351
 3222TIP3    H131301   5.549   4.104   8.119 -0.7575 -0.1925  0.7073
 3222TIP3    H231302   5.606   4.209   8.212  0.7554 -0.0226 -0.3751
 3223TIP3   OH231303   1.938   2.455   6.711 -0.0702 -0.2816 -0.4792
 3223TIP3    H131304   1.893   2.539   6.712  2.2344  1.0365 -0.9399
 3223TIP3    H231305   1.937   2.428   6.619 -0.1355 -0.3856 -0.4486
 3224TIP3   OH231306   4.725   3.729   7.982  0.2606  0.0719 -0.2449
 3224TIP3    H131307   4.667   3.785   7.931 -0.4212  0.0232  0.4543
 3224TIP3    H231308   4.717   3.761   8.072  1.1760 -0.0635 -0.1045
 3225TIP3   OH231309   2.001   3.699   7.125 -0.3613  0.4068 -0.2550
 3225TIP3    H131310   1.996   3.622   7.181 -2.1962  1.7486  1.5769
 3225TIP3    H231311   1.948   3.676   7.048 -1.2885 -0.0034  0.4913
 3226TIP3   OH231312   5.601   6.820   0.910  0.1544  0.1231  0.1744
 3226TIP3    H131313   5.535   6.774   0.961  0.0660 -0.0564 -0.0974
 3226TIP3    H231314   5.560   6.902   0.885  0.7834  0.9885  1.8126
 3227TIP3   OH231315   2.707   1.572   0.607 -0.4142 -0.2707 -0.0724
 3227TIP3    H131316   2.736   1.659   0.634  0.8769 -0.8206  0.4171
 3227TIP3    H231317   2.788   1.524   0.590 -1.0882 -1.4544 -0.0718
 3228TIP3   OH231318   1.101   3.115   2.055 -0.4424 -0.0627  0.5163
 3228TIP3    H131319   1.051   3.079   2.128 -2.6950  1.7943  0.0201
 3228TIP3    H231320   1.076   3.207   2.052  0.9951  0.3288 -1.4627
 3229TIP3   OH231321   6.002   4.261   0.539 -0.4161 -0.4278 -0.1668
 3229TIP3    H131322   6.047   4.314   0.473  1.7647 -0.9808  0.8100
 3229TIP3    H231323   5.920   4.308   0.554 -0.5832  0.1841 -2.5927
 3230TIP3   OH231324   2.530   3.174   2.703  0.2539 -0.2153 -0.4504
 3230TIP3    H131325   2.503   3.084   2.719 -1.4084  0.1938 -0.7833
 3230TIP3    H231326   2.625   3.174   2.718  0.0744 -1.7102  0.8558
 3231TIP3   OH231327   0.565   5.395   1.602 -0.1700 -0.0463 -0.4307
 3231TIP3    H131328   0.633   5.403   1.668 -1.4387  0.8704  0.8298
 3231TIP3    H231329   0.613   5.380   1.520  1.4923 -0.0336  0.4898
 3232TIP3   OH231330   5.451   0.612   6.335 -0.2953 -0.3840 -0.5003
 3232TIP3    H131331   5.385   0.664   6.380  0.7716 -1.0397  2.0374
 3232TIP3    H231332   5.462   0.654   6.250 -3.5731  0.0130 -0.8531
 3233TIP3   OH231333   4.970   0.660   7.283 -0.2916  0.5564  0.0810
 3233TIP3    H131334   5.015   0.584   7.247  0.3631  0.5900  0.7902
 3233TIP3    H231335   5.002   0.666   7.373 -2.4133  0.0253  0.9503
 3234TIP3   OH231336   1.390   1.931   1.789  0.1406 -0.1026  0.1555
 3234TIP3    H131337   1.300   1.940   1.822  0.0691 -1.0637  0.2706
 3234TIP3    H231338   1.442   1.987   1.846 -0.2265 -0.4527  0.8614
 3235TIP3   OH231339   3.091   6.431   0.091  0.0130 -0.4278  0.2557
 3235TIP3    H131340   3.108   6.448   0.184 -0.2273 -0.8980  0.3890
 3235TIP3    H231341   3.016   6.372   0.090 -1.1258  0.9578 -0.3025
 3236TIP3   OH231342   0.767   3.003   6.957  0.2757  0.2859 -0.4155
 3236TIP3    H131343   0.860   3.001   6.981  0.1789 -2.1689  0.0313
 3236TIP3    H231344   0.766   2.995   6.862  0.5223  1.0955 -0.4909
 3237TIP3   OH231345   3.186   0.529   6.535  0.7035 -0.7308  0.5974
 3237TIP3    H131346   3.097   0.519   6.566  0.7791  0.7500  1.3701
 3237TIP3    H231347   3.224   0.597   6.590  1.1808  1.2955 -2.0472
 3238TIP3   OH231348   4.937   3.367   0.875  0.0808  0.4632  0.5510
 3238TIP3    H131349   5.017   3.325   0.906  0.2908  0.3743 -0.1071
 3238TIP3    H231350   4.964   3.456   0.851 -0.1892  0.7068  1.1164
 3239TIP3   OH231351   4.370   6.296   1.950 -0.5032  0.4101 -0.7851
 3239TIP3    H131352   4.462   6.298   1.924 -0.5993  0.0261 -1.1545
 3239TIP3    H231353   4.370   6.254   2.037 -0.6168 -2.6350 -2.1183
 3240TIP3   OH231354   4.737   6.803   0.718 -0.5177 -0.3931  1.0595
 3240TIP3    H131355   4.643   6.810   0.731 -0.7753  0.4208 -0.9220
 3240TIP3    H231356   4.748   6.741   0.646  0.4491 -0.3038  1.1131
 3241TIP3   OH231357   4.261   0.002   6.857 -0.3624  0.0316  0.1530
 3241TIP3    H131358   4.287  -0.020   6.767  1.4692 -0.3779  0.7375
 3241TIP3    H231359   4.199   0.074   6.847 -0.7954 -0.5103 -1.4686
 3242TIP3   OH231360   3.670   2.009   0.598 -0.1426  0.0784 -0.2571
 3242TIP3    H131361   3.698   1.925   0.562 -0.9757 -0.0784 -0.5805
 3242TIP3    H231362   3.713   2.015   0.683  0.3349 -0.4325 -0.4562
 3243TIP3   OH231363   5.083   0.507   7.072 -0.6147  0.1637  0.9265
 3243TIP3    H131364   5.110   0.581   7.017  2.3099 -1.3486  0.1549
 3243TIP3    H231365   5.155   0.494   7.133 -1.2347 -1.7952  1.3153
 3244TIP3   OH231366   2.843   4.134   7.185 -0.0320  0.3429  0.5883
 3244TIP3    H131367   2.773   4.162   7.244  1.1381  0.2739  2.0670
 3244TIP3    H231368   2.905   4.207   7.186 -0.1074  0.4373 -0.7674
 3245TIP3   OH231369   0.925   4.325   1.403 -0.0130 -0.1181  0.1602
 3245TIP3    H131370   0.913   4.326   1.308  2.0697  0.4859 -0.1573
 3245TIP3    H231371   0.875   4.250   1.433 -1.2389  0.0525 -1.3277
 3246TIP3   OH231372   6.173   1.511   1.120  0.0692  0.4889 -0.3327
 3246TIP3    H131373   6.249   1.552   1.078  0.6737 -0.3052 -0.0502
 3246TIP3    H231374   6.098   1.561   1.088  0.5238  0.1110 -2.1453
 3247TIP3   OH231375   3.784   4.821   0.925 -0.2237  0.0262  0.0411
 3247TIP3    H131376   3.734   4.873   0.861  0.1672  0.1120 -0.1960
 3247TIP3    H231377   3.717   4.780   0.980 -0.5447  1.9023  1.1372
 3248TIP3   OH231378   4.542   4.836   6.342  0.0410 -0.4313  0.2255
 3248TIP3    H131379   4.613   4.774   6.356  2.6075  2.0090 -0.8392
 3248TIP3    H231380   4.546   4.895   6.417  0.6298  0.9799 -0.8674
 3249TIP3   OH231381   2.100   6.730   7.748 -0.6355  0.5414 -0.1473
 3249TIP3    H131382   2.193   6.744   7.766 -0.6951 -0.2594  0.8574
 3249TIP3    H231383   2.072   6.809   7.701  0.7939  0.3326 -1.4192
 3250TIP3   OH231384   4.329   2.104   0.576  0.0675 -0.0136 -0.4965
 3250TIP3    H131385   4.343   2.059   0.659  1.1128  0.7293 -0.2487
 3250TIP3    H231386   4.235   2.125   0.575 -0.0704 -0.5827  0.2026
 3251TIP3   OH231387   2.088   0.904   0.498  0.4572  0.4120 -0.2626
 3251TIP3    H131388   2.144   0.909   0.575  2.4529  1.0772 -1.6684
 3251TIP3    H231389   2.028   0.832   0.517  0.9110  0.5247  1.8648
 3252TIP3   OH231390   0.212   5.494   6.697 -0.1061 -0.0928 -0.3234
 3252TIP3    H131391   0.289   5.468   6.647  0.2543  2.7600 -1.4542
 3252TIP3    H231392   0.242   5.501   6.787  0.4472 -0.8490 -0.4463
 3253TIP3   OH231393   4.856   3.346   7.269  0.2241  0.3955 -0.1003
 3253TIP3    H131394   4.775   3.294   7.273  0.8414 -0.5768  0.1013
 3253TIP3    H231395   4.913   3.296   7.210  2.1802 -1.1206  2.8565
 3254TIP3   OH231396   6.555   4.114   6.746  0.4494  0.2035  0.1458
 3254TIP3    H131397   6.650   4.107   6.743  0.6808  0.7052  3.2535
 3254TIP3    H231398   6.536   4.204   6.719  1.0044  0.5473  0.8751
 3255TIP3   OH231399   4.949   0.137   0.376  0.2474 -0.0243 -0.0979
 3255TIP3    H131400   4.859   0.169   0.375  0.0446 -0.5779 -0.0804
 3255TIP3    H231401   4.941   0.042   0.380  0.7811 -0.3557 -3.7388
 3256TIP3   OH231402   5.152   4.490   8.259 -0.1932 -0.1859 -0.8370
 3256TIP3    H131403   5.216   4.528   8.319  0.2302  1.2142 -2.1241
 3256TIP3    H231404   5.191   4.408   8.230  0.6507  0.2546 -0.9671
 3257TIP3   OH231405   5.166   2.731   1.832  0.8312 -0.1427 -0.1475
 3257TIP3    H131406   5.244   2.730   1.887  0.7378 -0.2576 -0.0168
 3257TIP3    H231407   5.139   2.639   1.826  0.9764 -0.1593 -0.5800
 3258TIP3   OH231408   1.564   4.625   2.014  0.7913 -0.2633  0.9336
 3258TIP3    H131409   1.604   4.711   1.998  2.5713 -1.3927 -1.4155
 3258TIP3    H231410   1.544   4.592   1.926 -0.0641 -2.1671  1.7979
 3259TIP3   OH231411   0.531   1.791   1.408  0.3180 -0.1245  0.0459
 3259TIP3    H131412   0.514   1.775   1.501  2.2336  0.4527  0.5553
 3259TIP3    H231413   0.586   1.870   1.408 -1.3339  1.0931 -1.7389
 3260TIP3   OH231414   6.869   2.418   1.488 -0.0141 -0.1024 -0.2171
 3260TIP3    H131415   6.892   2.497   1.537 -1.7684  1.5705 -1.9140
 3260TIP3    H231416   6.909   2.431   1.401  1.3377 -2.0557  0.0333
 3261TIP3   OH231417   6.345   5.665   6.533  0.3420 -0.3731 -0.0788
 3261TIP3    H131418   6.322   5.711   6.451  0.5114 -0.5633 -0.2324
 3261TIP3    H231419   6.311   5.723   6.602  0.4407 -0.0767 -0.2742
 3262TIP3   OH231420   6.470   1.023   0.810 -0.1693 -0.0034 -0.4674
 3262TIP3    H131421   6.409   1.072   0.866  1.1264 -0.4434  1.4231
 3262TIP3    H231422   6.435   0.934   0.808  1.3132 -0.7429  2.2133
 3263TIP3   OH231423   3.401   4.645   7.500  0.4685 -0.5445 -0.0517
 3263TIP3    H131424   3.456   4.690   7.435  0.8100 -0.3528  0.3637
 3263TIP3    H231425   3.433   4.678   7.584  0.7448 -1.6061  0.2643
 3264TIP3   OH231426   4.214   1.896   7.370  0.5512 -0.2556 -0.2375
 3264TIP3    H131427   4.208   1.990   7.353 -0.1140 -0.5421 -1.7942
 3264TIP3    H231428   4.302   1.883   7.405  0.3911  1.0333  0.6878
 3265TIP3   OH231429   0.300   1.832   0.435  0.1223  0.3255 -0.0331
 3265TIP3    H131430   0.249   1.826   0.516  0.3097  1.5059  0.1951
 3265TIP3    H231431   0.326   1.924   0.431  0.6580  0.1333 -1.1097
 3266TIP3   OH231432   2.201   1.671   1.852  0.1230  0.2966 -0.0882
 3266TIP3    H131433   2.191   1.622   1.933  1.2775 -0.7079 -0.5193
 3266TIP3    H231434   2.113   1.702   1.832 -1.0628 -3.0387 -0.6780
 3267TIP3   OH231435   3.402   3.685   1.957 -0.2332  0.3444  0.0205
 3267TIP3    H131436   3.490   3.723   1.961  0.3795 -1.0467  0.5712
 3267TIP3    H231437   3.347   3.747   2.006  0.6337  0.7600  0.5016
 3268TIP3   OH231438   1.732   2.163   8.022  0.4980  0.4233  0.1913
 3268TIP3    H131439   1.667   2.185   7.956 -1.1832 -0.9465  1.2743
 3268TIP3    H231440   1.815   2.156   7.974 -0.7624 -1.2431 -1.9424
 3269TIP3   OH231441   5.511   1.745   2.446 -0.1576  0.2266  0.2272
 3269TIP3    H131442   5.580   1.753   2.380  0.1012  3.1949  0.7101
 3269TIP3    H231443   5.542   1.798   2.520 -1.8055 -0.5075  1.5059
 3270TIP3   OH231444   4.037   1.661   0.191 -0.1752  0.5484  0.5260
 3270TIP3    H131445   3.947   1.626   0.188  0.7625 -2.1058  0.2611
 3270TIP3    H231446   4.049   1.705   0.107 -1.4563  1.6724  0.8932
 3271TIP3   OH231447   3.110   4.861   1.495  0.2337 -0.2737 -0.2337
 3271TIP3    H131448   3.038   4.862   1.433  0.2998  1.3093 -0.3269
 3271TIP3    H231449   3.105   4.946   1.539  0.9549 -0.8608  1.0316
 3272TIP3   OH231450   4.464   2.708   1.304  0.1281 -0.9405  0.2135
 3272TIP3    H131451   4.501   2.681   1.389 -0.1235 -1.5075  0.1503
 3272TIP3    H231452   4.490   2.637   1.244 -0.1939 -0.8326 -0.0535
 3273TIP3   OH231453   3.000   5.873   6.170  0.1480 -0.0983  0.0053
 3273TIP3    H131454   2.933   5.882   6.102 -0.2120  1.7211  0.5332
 3273TIP3    H231455   3.026   5.963   6.189  3.3554 -0.7458 -0.7199
 3274TIP3   OH231456   0.318   5.094   1.695  0.2696  0.1578  0.0526
 3274TIP3    H131457   0.344   5.087   1.787 -0.8598 -1.5012  0.3029
 3274TIP3    H231458   0.224   5.114   1.699  0.1667 -0.1300 -0.7155
 3275TIP3   OH231459   6.362   4.410   7.329 -0.4017  0.5949  0.2432
 3275TIP3    H131460   6.345   4.317   7.345  1.4177  0.0808 -0.4863
 3275TIP3    H231461   6.336   4.424   7.238 -0.7337  0.8151  0.3720
 3276TIP3   OH231462   6.349   0.572   7.396 -0.6325 -0.2486  0.3683
 3276TIP3    H131463   6.338   0.666   7.409 -0.3697  0.0627 -1.3466
 3276TIP3    H231464   6.395   0.565   7.312  1.2126 -1.8514  1.4320
 3277TIP3   OH231465   5.661   2.965   7.802  0.0068 -0.4038  0.3040
 3277TIP3    H131466   5.709   2.902   7.856 -0.6741 -0.5116  0.8060
 3277TIP3    H231467   5.588   2.915   7.766 -0.7002  0.1407  0.9306
 3278TIP3   OH231468   2.998   6.814   0.555  0.1340 -0.0634  0.5293
 3278TIP3    H131469   2.983   6.892   0.609  1.2733  0.3373  0.2888
 3278TIP3    H231470   2.934   6.750   0.587  1.5622 -0.2977  3.2791
 3279TIP3   OH231471   5.568   0.363   0.960 -0.0435  0.0717 -0.3508
 3279TIP3    H131472   5.613   0.423   0.901 -2.8663  1.0219 -1.6829
 3279TIP3    H231473   5.543   0.418   1.035  0.1438 -0.2275 -0.0645
 3280TIP3   OH231474   2.449   1.285   6.011 -0.9645 -0.3345 -0.1282
 3280TIP3    H131475   2.462   1.380   6.002 -0.0421 -0.4282  0.0494
 3280TIP3    H231476   2.510   1.247   5.948 -0.6943 -0.8250  0.4202
 3281TIP3   OH231477   5.227   2.085   7.664  0.0570 -0.4112 -0.3777
 3281TIP3    H131478   5.206   2.173   7.695  0.4607 -0.2368 -0.5972
 3281TIP3    H231479   5.292   2.052   7.727  1.3937  0.2021 -1.3961
 3282TIP3   OH231480   2.401   5.997   0.031 -0.3208  0.5797  0.5155
 3282TIP3    H131481   2.395   5.979   0.125 -0.3683 -0.1733  0.3774
 3282TIP3    H231482   2.319   6.042   0.010 -1.0552 -0.6629  0.5529
 3283TIP3   OH231483   4.526   4.585   0.042 -0.3028 -0.0360  0.2725
 3283TIP3    H131484   4.603   4.537   0.074  1.0798  0.7038 -1.7493
 3283TIP3    H231485   4.551   4.678   0.051 -1.1108  0.2155 -0.0446
 3284TIP3   OH231486   4.254   2.201   1.657  0.1532  0.0154 -0.3392
 3284TIP3    H131487   4.344   2.197   1.690 -0.8632 -1.5344  2.5220
 3284TIP3    H231488   4.237   2.113   1.623 -1.1527 -0.6380  1.8412
 3285TIP3   OH231489   6.568   0.359   8.575  0.4360 -0.1104 -0.0217
 3285TIP3    H131490   6.582   0.402   8.659 -0.8533  0.6141 -0.1524
 3285TIP3    H231491   6.613   0.415   8.512  0.8843 -0.3272  0.0962
 3286TIP3   OH231492   6.027   0.243   7.155 -0.1640  0.3367  0.9234
 3286TIP3    H131493   6.089   0.265   7.085 -3.1103  2.7552 -1.2029
 3286TIP3    H231494   6.065   0.281   7.234  1.1300  1.5973 -0.2578
 3287TIP3   OH231495   3.155   1.888   1.697 -0.3971  0.2546  0.0389
 3287TIP3    H131496   3.106   1.824   1.748 -0.6365  0.1621 -0.3030
 3287TIP3    H231497   3.131   1.870   1.606 -1.1178  1.3534 -0.0170
 3288TIP3   OH231498   6.595   5.258   8.185  0.3497 -0.2256 -0.1656
 3288TIP3    H131499   6.608   5.189   8.120  0.6805 -1.0711  0.7775
 3288TIP3    H231500   6.643   5.333   8.149 -0.1554 -0.4099 -1.2848
 3289TIP3   OH231501   2.608   1.410   7.948  0.5663  0.4148  0.0305
 3289TIP3    H131502   2.702   1.394   7.961  0.6370  1.6763  1.3636
 3289TIP3    H231503   2.603   1.456   7.864  1.2492  1.1396  0.3747
 3290TIP3   OH231504   3.467   0.305   0.606 -0.7268 -0.5330  0.1984
 3290TIP3    H131505   3.500   0.340   0.524  0.1752  0.6865  1.0404
 3290TIP3    H231506   3.536   0.247   0.638 -0.7507 -0.4217  0.4583
 3291TIP3   OH231507   5.899   5.500   1.747  0.1465 -0.0875  0.2724
 3291TIP3    H131508   5.818   5.534   1.708 -0.4846 -2.1577 -0.3566
 3291TIP3    H231509   5.906   5.545   1.831  0.1685  2.6074 -1.0623
 3292TIP3   OH231510   1.636   3.255   1.378  0.3511 -0.1149 -0.3125
 3292TIP3    H131511   1.596   3.232   1.295 -0.3537  0.5420 -0.1655
 3292TIP3    H231512   1.603   3.343   1.397  0.2990 -0.3617  0.7886
 3293TIP3   OH231513   0.926   3.096   7.723  0.0501 -0.2851  0.4804
 3293TIP3    H131514   0.952   3.034   7.791  1.0295  1.1139  1.4277
 3293TIP3    H231515   0.941   3.182   7.762 -4.4300  0.7579  0.5363
 3294TIP3   OH231516   1.244   1.740   0.555 -0.5575  0.1271 -0.3355
 3294TIP3    H131517   1.163   1.792   0.552  0.8759  2.6977  1.2094
 3294TIP3    H231518   1.314   1.805   0.547  1.3830 -1.6843  0.8798
 3295TIP3   OH231519   2.744   6.724   0.558  0.5623  0.5923  0.5778
 3295TIP3    H131520   2.794   6.651   0.521 -1.0271  0.3963 -1.4126
 3295TIP3    H231521   2.693   6.684   0.629  0.3275 -0.0635  0.0533
 3296TIP3   OH231522   6.146   1.904   1.604 -0.1823  0.9138 -0.1972
 3296TIP3    H131523   6.225   1.878   1.652 -1.3740  0.0282  1.3927
 3296TIP3    H231524   6.168   1.888   1.512  1.1989 -0.1125  0.2620
 3297TIP3   OH231525   5.294   3.276   6.780  0.5234 -0.2593 -0.0670
 3297TIP3    H131526   5.271   3.302   6.691 -0.3577 -0.6320  0.0415
 3297TIP3    H231527   5.274   3.183   6.784 -0.5068 -0.0271  0.8351
 3298TIP3   OH231528   0.523   6.099   7.649  0.1652 -0.0251 -0.4562
 3298TIP3    H131529   0.545   6.170   7.588 -0.2089  0.2071 -0.3204
 3298TIP3    H231530   0.442   6.062   7.615 -0.2698  0.3791  0.1372
 3299TIP3   OH231531   0.490   4.447   1.961  0.1865  0.5469  1.1838
 3299TIP3    H131532   0.465   4.402   2.041  0.3431 -0.9704  0.4184
 3299TIP3    H231533   0.433   4.410   1.894 -1.8700  3.7556  1.0058
 3300TIP3   OH231534   1.854   5.839   0.810  0.3467  0.5928 -0.3820
 3300TIP3    H131535   1.907   5.824   0.889 -0.1964 -2.3081 -0.4541
 3300TIP3    H231536   1.767   5.863   0.844  0.3007  0.0442 -0.0949
 3301TIP3   OH231537   3.931   2.967   2.394 -0.4431  0.4803  0.2950
 3301TIP3    H131538   3.909   2.883   2.355 -2.9279 -0.0975  2.6531
 3301TIP3    H231539   3.983   2.945   2.472  1.8403  1.4152 -0.8687
 3302TIP3   OH231540   1.061   1.205   0.899  0.4092 -0.2421 -0.5840
 3302TIP3    H131541   1.101   1.152   0.967 -1.7472 -0.8110  0.3298
 3302TIP3    H231542   1.111   1.286   0.899  0.0704  0.0644  2.2005
 3303TIP3   OH231543   6.282   0.034   1.630  0.7262  0.5084 -0.3470
 3303TIP3    H131544   6.201   0.024   1.581 -0.2256 -0.1896  1.2730
 3303TIP3    H231545   6.351   0.016   1.566 -0.4292 -0.0289 -1.4906
 3304TIP3   OH231546   2.916   4.402   7.750  0.5806  0.3095 -0.2171
 3304TIP3    H131547   2.954   4.373   7.666  0.6649 -0.2995  0.0254
 3304TIP3    H231548   2.835   4.446   7.725 -0.2696 -1.3295 -0.5420
 3305TIP3   OH231549   0.172   3.045   2.225 -0.4100  0.3423  0.5977
 3305TIP3    H131550   0.210   2.957   2.231  0.5206  0.6044 -1.0578
 3305TIP3    H231551   0.084   3.035   2.261 -0.2369 -1.2058  0.6603
 3306TIP3   OH231552   4.261   0.253   8.122  0.1194 -0.5543  0.0520
 3306TIP3    H131553   4.309   0.303   8.056 -0.2683  1.1022  0.9699
 3306TIP3    H231554   4.295   0.164   8.114  2.1514  0.2081 -0.4392
 3307TIP3   OH231555   0.033   5.126   8.327 -0.3192 -0.4005  0.0714
 3307TIP3    H131556  -0.000   5.205   8.370  0.4097  0.3430 -0.6710
 3307TIP3    H231557   0.037   5.060   8.396 -0.5209  0.3451  0.8089
 3308TIP3   OH231558   3.142   4.544   1.344 -0.5161  0.3819  0.1033
 3308TIP3    H131559   3.082   4.609   1.308 -1.3151  0.3864  1.3907
 3308TIP3    H231560   3.148   4.566   1.437  1.4866  0.3689  0.0099
 3309TIP3   OH231561   1.602   4.121   6.817  0.0730 -0.5063 -0.5023
 3309TIP3    H131562   1.678   4.065   6.832 -0.9520 -1.4822  1.3991
 3309TIP3    H231563   1.629   4.207   6.847  0.1434 -1.0627  1.0772
 3310TIP3   OH231564   2.662   0.117   2.242  0.3799  0.4908 -0.1418
 3310TIP3    H131565   2.724   0.087   2.309 -1.0775  1.6581  1.8399
 3310TIP3    H231566   2.650   0.042   2.185  0.6558 -1.0475  1.7222
 3311TIP3   OH231567   6.436   3.412   0.729 -0.3766 -0.1959 -0.1580
 3311TIP3    H131568   6.518   3.428   0.776 -0.0722  0.9554 -1.0637
 3311TIP3    H231569   6.397   3.337   0.775  1.0482 -0.5984  0.4450
 3312TIP3   OH231570   3.809   5.541   7.466 -0.0821  0.1906  0.0452
 3312TIP3    H131571   3.752   5.553   7.541 -0.5641 -0.3402 -0.2243
 3312TIP3    H231572   3.749   5.535   7.391  0.1479 -2.4865 -0.0014
 3313TIP3   OH231573   3.658   0.546   2.107 -0.3142  0.0943 -0.1483
 3313TIP3    H131574   3.739   0.584   2.142  0.4286  0.2294 -1.9198
 3313TIP3    H231575   3.588   0.592   2.153  0.6048  0.6222  0.7581
 3314TIP3   OH231576   4.423   2.939   0.775 -0.1261 -0.3098 -0.0199
 3314TIP3    H131577   4.349   2.893   0.735 -1.7854  3.0373 -1.2303
 3314TIP3    H231578   4.386   2.982   0.851  1.0295  0.0703  0.3464
 3315TIP3   OH231579   4.619   4.887   0.001  0.9526 -0.0369 -0.0308
 3315TIP3    H131580   4.573   4.902  -0.082  1.0223  0.6599  0.0506
 3315TIP3    H231581   4.711   4.901  -0.020  1.4781 -3.5230 -0.7132
 3316TIP3   OH231582   2.536   1.719   8.069 -0.0531  0.3033  0.4532
 3316TIP3    H131583   2.455   1.671   8.057  0.2010 -0.4137  1.4368
 3316TIP3    H231584   2.586   1.666   8.132  0.5135  1.5190  1.0622
 3317TIP3   OH231585   4.665   1.241   7.482 -0.8407  0.6178 -0.4431
 3317TIP3    H131586   4.597   1.181   7.451  0.2634  0.0090 -1.7613
 3317TIP3    H231587   4.623   1.289   7.554 -1.5402 -2.2315  1.2036
 3318TIP3   OH231588   4.218   2.683   1.139 -0.5631  0.1469  0.1035
 3318TIP3    H131589   4.235   2.590   1.150 -1.3956 -0.1926 -1.2874
 3318TIP3    H231590   4.303   2.720   1.114 -0.2830 -0.2751  0.4324
 3319TIP3   OH231591   3.830   2.869   2.044 -0.4068 -0.1823 -0.3198
 3319TIP3    H131592   3.735   2.864   2.036 -0.2594 -0.6857 -2.3252
 3319TIP3    H231593   3.848   2.840   2.133 -2.0516 -1.6190 -0.3960
 3320TIP3   OH231594   2.520   6.655   8.629  0.0011  0.9304  0.3020
 3320TIP3    H131595   2.485   6.599   8.699  1.4424  1.5262  1.5564
 3320TIP3    H231596   2.548   6.593   8.561 -1.4517  0.3490  0.1809
 3321TIP3   OH231597   2.061   1.900   0.945 -0.0391 -0.6444  0.2588
 3321TIP3    H131598   2.100   1.987   0.953 -0.1872 -0.4379 -1.0465
 3321TIP3    H231599   1.967   1.915   0.957 -0.3676 -0.1969 -2.3262
 3322TIP3   OH231600   6.856   5.472   7.059 -0.0187  0.3198 -0.3239
 3322TIP3    H131601   6.875   5.474   6.965 -1.6834 -0.8658 -0.7446
 3322TIP3    H231602   6.760   5.474   7.063  0.0409  1.3324  1.4038
 3323TIP3   OH231603   5.572   6.299   1.827 -0.1159 -0.1230 -0.3759
 3323TIP3    H131604   5.663   6.321   1.847 -0.6074  3.8975 -1.7940
 3323TIP3    H231605   5.533   6.283   1.913  1.6659 -1.0511  0.3333
 3324TIP3   OH231606   3.573   1.459   6.622 -0.2236 -0.5802 -0.6124
 3324TIP3    H131607   3.639   1.424   6.563 -0.9366 -1.6699 -0.7934
 3324TIP3    H231608   3.512   1.507   6.566 -0.4483 -0.9143 -0.6548
 3325TIP3   OH231609   4.367   2.954   1.521 -0.5979 -0.4941 -0.0902
 3325TIP3    H131610   4.431   2.960   1.592 -1.1246  0.2904  0.3391
 3325TIP3    H231611   4.284   2.979   1.562 -1.0760 -0.9466 -0.7671
 3326TIP3   OH231612   4.122   3.352   1.413 -0.0882 -0.4471  0.1589
 3326TIP3    H131613   4.085   3.268   1.388 -1.2051 -0.3801  1.4800
 3326TIP3    H231614   4.118   3.353   1.509 -3.4242  2.5043  0.1783
 3327TIP3   OH231615   1.973   2.004   8.572 -0.1094 -0.6019 -0.4471
 3327TIP3    H131616   1.899   1.998   8.512 -0.8242  0.9588  0.2138
 3327TIP3    H231617   2.013   2.089   8.552  0.3702 -0.6114  0.4443
 3328TIP3   OH231618   4.471   0.360   1.167  0.0184  0.2716 -0.3119
 3328TIP3    H131619   4.403   0.420   1.197  0.1979  0.3381 -0.0284
 3328TIP3    H231620   4.528   0.349   1.243  0.0986 -0.1021 -0.4243
 3329TIP3   OH231621   4.477   4.723   7.073  0.6136 -0.1032 -0.4236
 3329TIP3    H131622   4.452   4.743   7.163  1.1236  0.0868 -0.3252
 3329TIP3    H231623   4.495   4.629   7.074  3.0697  0.3019  0.2790
 3330TIP3   OH231624   1.396   5.142   7.919 -0.0476  0.1384  0.0922
 3330TIP3    H131625   1.311   5.170   7.885  0.3707  1.7683  0.3332
 3330TIP3    H231626   1.391   5.156   8.013  0.9634  1.6309 -0.0469
 3331TIP3   OH231627   1.680   4.722   6.680  0.2858 -0.3693  0.1502
 3331TIP3    H131628   1.725   4.672   6.613 -1.0812 -3.2037  1.1981
 3331TIP3    H231629   1.598   4.675   6.695 -0.9285  1.9668  1.5590
 3332TIP3   OH231630   4.665   3.021   0.216  0.5132  0.1092  0.6049
 3332TIP3    H131631   4.577   3.056   0.204 -0.0453 -1.8276 -1.5820
 3332TIP3    H231632   4.659   2.967   0.295 -0.7446 -1.2391 -0.3600
 3333TIP3   OH231633   0.261   1.234   7.394  0.3516 -0.5262  0.2151
 3333TIP3    H131634   0.321   1.274   7.456  1.1990 -0.4346 -0.6511
 3333TIP3    H231635   0.179   1.281   7.406  1.1619  1.0906 -0.3846
 3334TIP3   OH231636   4.007   2.874   7.227 -0.3095  0.0997  0.2185
 3334TIP3    H131637   4.000   2.852   7.319  1.4048 -0.7683  0.1784
 3334TIP3    H231638   3.948   2.949   7.215 -1.4827 -0.5506  1.7245
 3335TIP3   OH231639   4.189   4.185   8.331 -0.2871  0.3602  0.4018
 3335TIP3    H131640   4.099   4.194   8.298  0.6037 -0.2535 -2.4426
 3335TIP3    H231641   4.228   4.271   8.318 -0.1697  0.3542  0.7075
 3336TIP3   OH231642   6.122   4.501   1.671 -0.3080  0.1839 -0.3049
 3336TIP3    H131643   6.170   4.525   1.750  2.3777 -0.6254 -1.5403
 3336TIP3    H231644   6.038   4.468   1.702  0.8383 -0.5525  2.2580
 3337TIP3   OH231645   0.913   0.640   7.254  0.6471  0.3321  0.1289
 3337TIP3    H131646   0.939   0.686   7.175 -2.6555  0.0775 -1.2748
 3337TIP3    H231647   0.974   0.567   7.260  0.9409  0.2969 -2.2611
 3338TIP3   OH231648   1.820   1.342   7.066  0.5019  0.1544 -0.1359
 3338TIP3    H131649   1.837   1.380   6.979  2.8543 -0.1293  0.1251
 3338TIP3    H231650   1.791   1.416   7.119 -1.6858  0.2039 -1.2805
 3339TIP3   OH231651   1.939   2.034   7.669 -0.0189 -0.3208  0.1295
 3339TIP3    H131652   2.004   1.974   7.705  0.0047  0.3977  1.3221
 3339TIP3    H231653   1.855   1.988   7.677 -0.3887  0.7059  3.3883
 3340TIP3   OH231654   2.687   1.647   5.461 -0.3559 -0.1547 -0.1788
 3340TIP3    H131655   2.715   1.603   5.541 -1.8050 -1.0500 -0.1279
 3340TIP3    H231656   2.693   1.740   5.482  1.4301 -0.3102  0.1832
 3341TIP3   OH231657   6.289   6.268   8.427 -0.9095  0.0956 -0.7632
 3341TIP3    H131658   6.357   6.226   8.373  0.0073  1.3404 -0.6211
 3341TIP3    H231659   6.222   6.294   8.364 -0.7262 -0.1392 -1.0589
 3342TIP3   OH231660   4.408   1.625   7.189 -0.3233 -0.6122 -0.2271
 3342TIP3    H131661   4.445   1.541   7.216  0.5858 -0.1866 -0.1206
 3342TIP3    H231662   4.359   1.605   7.109 -0.4537 -1.3118  0.0224
 3343TIP3   OH231663   2.850   4.233   1.953  0.0103  0.0735 -0.6930
 3343TIP3    H131664   2.800   4.198   2.026 -0.2104 -0.8332 -1.2721
 3343TIP3    H231665   2.941   4.227   1.982 -0.1354  0.8229 -0.0320
 3344TIP3   OH231666   4.004   0.542   1.154  0.2684 -0.1502 -0.2125
 3344TIP3    H131667   4.020   0.568   1.063 -0.0602  2.6911  0.4641
 3344TIP3    H231668   3.911   0.522   1.157 -0.0317  1.1501 -0.2411
 3345TIP3   OH231669   4.420   2.349   2.323  0.2699 -0.4975  0.7570
 3345TIP3    H131670   4.476   2.311   2.391  0.4851 -2.3903 -0.4016
 3345TIP3    H231671   4.447   2.306   2.242  0.3205  1.9674 -0.6731
 3346TIP3   OH231672   3.959   2.004   1.879  0.0364 -0.2480  0.2356
 3346TIP3    H131673   3.882   1.982   1.931 -0.5881  1.2856  0.0034
 3346TIP3    H231674   3.951   1.950   1.800 -1.2126  0.4464 -0.1334
 3347TIP3   OH231675   4.385   5.997   0.680  0.0965 -0.2497 -0.5955
 3347TIP3    H131676   4.396   6.092   0.683  0.7711 -0.3452  0.7350
 3347TIP3    H231677   4.373   5.971   0.771 -2.4023 -1.2254 -1.1207
 3348TIP3   OH231678   5.796   4.934   0.404  0.1836  0.3441  0.8522
 3348TIP3    H131679   5.790   4.848   0.363 -1.7180 -0.5546  2.7943
 3348TIP3    H231680   5.860   4.923   0.474  1.0915  0.9903  0.1529
 3349TIP3   OH231681   1.868   0.268   0.874  0.1236 -0.3210  0.0009
 3349TIP3    H131682   1.809   0.220   0.816  1.0136 -0.8613 -0.4716
 3349TIP3    H231683   1.868   0.217   0.955  1.1785 -1.2336 -0.5466
 3350TIP3   OH231684   4.806   2.515   7.970 -0.0115  0.2156  0.3166
 3350TIP3    H131685   4.801   2.568   8.050  2.6232 -1.6427  1.8718
 3350TIP3    H231686   4.866   2.565   7.913  1.2686 -0.2876  1.1719
 3351TIP3   OH231687   5.298   2.792   0.463  0.0063 -0.4485  0.3774
 3351TIP3    H131688   5.282   2.698   0.457 -0.0474 -0.3958 -0.4556
 3351TIP3    H231689   5.233   2.831   0.404  0.2922  0.0830  0.4088
 3352TIP3   OH231690   0.139   6.613   8.131  0.4621  0.0535  0.0775
 3352TIP3    H131691   0.195   6.633   8.206  2.6729 -1.9314 -0.8937
 3352TIP3    H231692   0.122   6.519   8.140  1.2615 -0.3571 -2.1307
 3353TIP3   OH231693   4.229   6.787   1.788  0.3057  0.1766 -0.0082
 3353TIP3    H131694   4.304   6.751   1.742  0.1151 -0.4842  0.1825
 3353TIP3    H231695   4.255   6.876   1.810  1.4842 -0.3879  1.0313
 3354TIP3   OH231696   4.787   3.415   8.536  0.7354  0.3100 -0.9740
 3354TIP3    H131697   4.827   3.417   8.622  1.5214  1.7000 -1.3311
 3354TIP3    H231698   4.732   3.494   8.533 -0.7631 -0.7022 -1.0863
 3355TIP3   OH231699   6.628   1.907   1.361  0.4703 -0.2875  0.1944
 3355TIP3    H131700   6.682   1.858   1.423 -0.7343 -1.2070  0.5484
 3355TIP3    H231701   6.672   1.992   1.353  3.0459 -1.6068 -0.9729
 3356TIP3   OH231702   6.117   6.772   8.276 -0.3739  0.1900  0.2850
 3356TIP3    H131703   6.022   6.763   8.275 -0.3527 -0.0079 -0.4415
 3356TIP3    H231704   6.149   6.683   8.260 -0.0815  0.4234 -0.4838
 3357TIP3   OH231705   1.991   1.708   2.568  0.4170  0.3269  1.0109
 3357TIP3    H131706   2.045   1.778   2.603 -0.4195  1.4252  0.1543
 3357TIP3    H231707   1.929   1.688   2.638  0.6832  0.4010  1.2687
 3358TIP3   OH231708   0.430   5.390   7.265 -0.1703  0.2001  0.4678
 3358TIP3    H131709   0.334   5.392   7.268 -0.1494  0.0148  2.6401
 3358TIP3    H231710   0.452   5.298   7.256 -0.2061  0.0299  1.9265
 3359TIP3   OH231711   6.109   1.236   7.294  0.0328 -0.5547 -0.0269
 3359TIP3    H131712   6.204   1.253   7.300 -0.3188  2.0250 -0.4614
 3359TIP3    H231713   6.091   1.176   7.367  2.0163 -1.2720 -0.0628
 3360TIP3   OH231714   2.842   0.876   0.728  0.1151 -0.0314 -0.6147
 3360TIP3    H131715   2.789   0.807   0.768  1.7868 -0.8178  0.4070
 3360TIP3    H231716   2.903   0.829   0.671  0.0219  0.7987 -1.4270
 3361TIP3   OH231717   6.326   2.420   2.197 -0.4605  0.3008 -0.2540
 3361TIP3    H131718   6.281   2.487   2.247  0.7032  0.3487  0.7884
 3361TIP3    H231719   6.339   2.348   2.259 -2.1669 -1.1729 -1.4856
 3362TIP3   OH231720   4.065   6.773   1.279  0.7071 -0.1366 -0.3446
 3362TIP3    H131721   4.140   6.717   1.258 -0.6020 -1.5464 -1.4629
 3362TIP3    H231722   4.029   6.798   1.194 -0.4604  0.0001  0.1731
 3363TIP3   OH231723   5.926   4.923   7.819  0.4641  0.1453 -0.2442
 3363TIP3    H131724   5.936   5.017   7.802  0.1803  0.5596  1.6587
 3363TIP3    H231725   5.914   4.884   7.732  2.0316  1.6653 -1.2175
 3364TIP3   OH231726   2.475   4.151   8.065  0.5433 -0.1986 -0.2626
 3364TIP3    H131727   2.516   4.211   8.003  1.2461  0.5556  0.8888
 3364TIP3    H231728   2.407   4.203   8.107  0.2097 -0.6413 -0.2497
 3365TIP3   OH231729   0.020   1.883   8.094 -0.1821 -0.0670 -0.9473
 3365TIP3    H131730   0.051   1.898   8.183 -2.6366  1.6370 -0.2804
 3365TIP3    H231731   0.092   1.835   8.052  1.0362 -1.0248  1.9273
 3366TIP3   OH231732   4.783   1.437   0.028 -0.2160 -0.1422 -0.0748
 3366TIP3    H131733   4.801   1.418   0.120 -1.1962 -0.2849  0.0887
 3366TIP3    H231734   4.737   1.360  -0.004  1.4361 -0.7741 -1.1054
 3367TIP3   OH231735   2.907   0.243   7.219  0.1702  0.1131 -0.0292
 3367TIP3    H131736   2.860   0.172   7.176  0.5816 -0.1386 -0.0617
 3367TIP3    H231737   2.852   0.266   7.294 -0.0265 -0.1498 -0.0931
 3368TIP3   OH231738   1.992   5.384   0.107  0.1625  0.4719 -0.2814
 3368TIP3    H131739   1.976   5.438   0.184 -0.3689 -0.4658  0.2888
 3368TIP3    H231740   2.087   5.388   0.095  0.4109 -0.3246  1.1649
 3369TIP3   OH231741   3.003   1.667   0.002  0.2041  0.1889  0.3682
 3369TIP3    H131742   2.926   1.641  -0.047  0.0130  0.6654  0.4080
 3369TIP3    H231743   3.077   1.639  -0.051  0.0556  2.9246 -1.5030
 3370TIP3   OH231744   3.085   4.819   0.914 -0.1773 -0.0332 -0.0148
 3370TIP3    H131745   3.056   4.734   0.947  0.2182  0.1629  0.8634
 3370TIP3    H231746   3.112   4.867   0.992 -0.4376  0.9203 -0.4904
 3371TIP3   OH231747   0.522   2.465   6.526  0.3713  0.5140  0.3152
 3371TIP3    H131748   0.582   2.438   6.596  1.3154  0.0765 -0.6360
 3371TIP3    H231749   0.446   2.501   6.572  0.5488 -0.6456  1.5720
 3372TIP3   OH231750   3.421   1.406   6.846 -0.2192 -0.0726 -0.5944
 3372TIP3    H131751   3.446   1.322   6.885 -0.2846  0.4667  0.6427
 3372TIP3    H231752   3.492   1.425   6.784 -0.4217 -1.2337 -1.2168
 3373TIP3   OH231753   1.179   2.335   0.740  1.0605 -0.1633  0.0454
 3373TIP3    H131754   1.124   2.389   0.684  1.8610  1.2525  0.5638
 3373TIP3    H231755   1.237   2.289   0.680  1.5592  0.9334 -0.3260
 3374TIP3   OH231756   0.071   1.587   7.593 -0.0707  0.6920 -0.2042
 3374TIP3    H131757   0.069   1.502   7.549 -1.9009 -0.0698  1.2131
 3374TIP3    H231758   0.054   1.651   7.524 -0.1656 -0.2173 -1.0365
 3375TIP3   OH231759   4.091   4.261   1.174  0.1554 -0.6180 -0.3407
 3375TIP3    H131760   4.021   4.318   1.208  1.5265  1.5809 -1.0065
 3375TIP3    H231761   4.067   4.246   1.082  0.9301  0.8710 -0.8230
 3376TIP3   OH231762   4.691   5.887   8.534  0.1512 -0.1543 -0.0941
 3376TIP3    H131763   4.765   5.828   8.525 -0.9372 -1.9382  1.8397
 3376TIP3    H231764   4.684   5.904   8.628 -0.7976  1.4532 -0.4050
 3377TIP3   OH231765   2.440   0.592   7.358 -0.1608 -0.1718  0.4419
 3377TIP3    H131766   2.445   0.678   7.399 -2.1733 -0.0299  0.5101
 3377TIP3    H231767   2.484   0.603   7.274  1.1730  0.4028  1.1761
 3378TIP3   OH231768   6.472   2.850   0.692 -0.1570  0.0701  0.0092
 3378TIP3    H131769   6.520   2.933   0.689 -0.4611  0.3178  1.1944
 3378TIP3    H231770   6.450   2.832   0.601  0.9049  0.6990 -0.4033
 3379TIP3   OH231771   3.933   4.577   6.488  0.1250 -0.3267  0.3668
 3379TIP3    H131772   4.027   4.580   6.471 -0.2289  0.2729 -1.8272
 3379TIP3    H231773   3.901   4.507   6.432 -0.8271 -0.0480  0.5494
 3380TIP3   OH231774   1.737   3.583   2.614 -0.1950  0.0198  0.6160
 3380TIP3    H131775   1.662   3.579   2.674 -2.0235  0.0470 -1.5636
 3380TIP3    H231776   1.783   3.663   2.640 -1.9290  0.9791  0.8760
 3381TIP3   OH231777   2.502   3.942   7.295  0.0230  0.2243 -0.1537
 3381TIP3    H131778   2.587   3.908   7.267  1.2962  1.9264  1.3975
 3381TIP3    H231779   2.451   3.864   7.316  0.6459 -0.9043 -2.4595
 3382TIP3   OH231780   5.368   0.194   0.820 -0.0974 -0.3623  0.2396
 3382TIP3    H131781   5.449   0.242   0.840 -0.9525  1.4235 -0.4037
 3382TIP3    H231782   5.335   0.166   0.905 -0.4011  1.6405  0.8327
 3383TIP3   OH231783   1.618   0.512   6.968 -0.4330 -0.3362 -1.4171
 3383TIP3    H131784   1.670   0.522   6.889 -0.0109 -2.6573 -1.4991
 3383TIP3    H231785   1.536   0.557   6.949  0.9613  2.1914 -1.7966
 3384TIP3   OH231786   2.193   0.295   0.779  0.4671 -0.9163  0.5896
 3384TIP3    H131787   2.100   0.276   0.776  0.5543 -1.1861 -0.7807
 3384TIP3    H231788   2.228   0.238   0.848 -0.4682 -0.3188  1.5915
 3385TIP3   OH231789   5.591   3.478   7.067  0.1539  0.2734 -0.1525
 3385TIP3    H131790   5.512   3.425   7.075  0.1245  0.5178  1.4442
 3385TIP3    H231791   5.576   3.532   6.990 -1.3150  0.4445  0.2375
 3386TIP3   OH231792   0.880   5.046   8.126 -0.0038 -0.1090  0.0682
 3386TIP3    H131793   0.814   4.993   8.171  1.1460 -0.8211  0.9795
 3386TIP3    H231794   0.831   5.093   8.059 -1.5295 -0.1846  1.0769
 3387TIP3   OH231795   1.250   1.055   2.009 -0.2200  0.3533  0.4345
 3387TIP3    H131796   1.170   1.092   1.970  1.4429  0.7738 -2.9583
 3387TIP3    H231797   1.258   1.100   2.094 -2.4021  1.9486 -0.1070
 3388TIP3   OH231798   0.877   6.141   0.102  0.2761 -0.6439 -0.1611
 3388TIP3    H131799   0.967   6.159   0.130 -0.3843 -0.9079  2.3583
 3388TIP3    H231800   0.849   6.222   0.059  1.1393  0.1235  0.6597
 3389TIP3   OH231801   2.023   6.476   1.725 -0.1031 -0.5855  0.1763
 3389TIP3    H131802   1.943   6.447   1.682  0.6088 -1.0351 -0.8748
 3389TIP3    H231803   2.068   6.529   1.659  0.4701 -0.3324  0.7605
 3390TIP3   OH231804   3.669   1.071   0.639 -0.4208  0.4579 -0.4078
 3390TIP3    H131805   3.685   1.163   0.616 -0.5892  1.0033  1.4570
 3390TIP3    H231806   3.659   1.072   0.734 -1.5277 -1.3412 -0.4550
 3391TIP3   OH231807   0.087   5.729   1.377 -0.5068 -0.7160 -0.3176
 3391TIP3    H131808   0.053   5.783   1.306 -1.8725 -0.5284  0.4468
 3391TIP3    H231809   0.084   5.640   1.342  0.6391 -0.4393 -1.1597
 3392TIP3   OH231810   0.736   4.562   0.992  0.1586 -0.4268 -0.0724
 3392TIP3    H131811   0.679   4.637   0.975  0.5074  0.7758  3.2894
 3392TIP3    H231812   0.685   4.486   0.963 -3.1001  0.6179  2.2946
 3393TIP3   OH231813   5.783   3.446   0.256 -0.0678 -0.5055 -0.2611
 3393TIP3    H131814   5.848   3.456   0.187 -1.6522  0.3090 -1.7056
 3393TIP3    H231815   5.806   3.514   0.320  0.8720 -0.6620 -0.4164
 3394TIP3   OH231816   6.682   3.183   1.677 -0.0350 -0.5183  0.3425
 3394TIP3    H131817   6.664   3.196   1.583 -2.2510 -1.7868  0.5246
 3394TIP3    H231818   6.603   3.215   1.721  1.4703  1.2213  1.9277
 3395TIP3   OH231819   3.322   3.020   0.906  0.2807  0.2091  0.2111
 3395TIP3    H131820   3.348   3.080   0.976  0.6890 -1.2210  1.3374
 3395TIP3    H231821   3.230   3.041   0.890 -0.2619 -0.3562  2.2259
 3396TIP3   OH231822   1.984   5.060   1.846  0.6436  0.6044  0.6600
 3396TIP3    H131823   1.969   5.025   1.759  0.0894  2.3857 -0.0088
 3396TIP3    H231824   2.077   5.080   1.849  0.5406  1.1587  0.2260
 3397TIP3   OH231825   5.172   3.001   1.721  0.5792 -0.2018 -0.8189
 3397TIP3    H131826   5.153   3.007   1.627 -1.6011  0.3014 -0.3967
 3397TIP3    H231827   5.138   2.916   1.747 -1.2548  0.7236 -0.0295
 3398TIP3   OH231828   6.417   1.376   0.961  1.1593 -0.7580  0.4899
 3398TIP3    H131829   6.356   1.425   0.905 -0.9255 -0.8690  2.5139
 3398TIP3    H231830   6.497   1.370   0.909 -0.1573  0.4005 -1.8553
 3399TIP3   OH231831   2.552   5.552   1.205  0.1092 -0.2812  0.0849
 3399TIP3    H131832   2.508   5.469   1.189 -0.9042  0.3752 -0.6709
 3399TIP3    H231833   2.483   5.611   1.234  0.8078  0.3134  0.5866
 3400TIP3   OH231834   1.637   2.292   2.625 -0.1567  0.1420  0.3151
 3400TIP3    H131835   1.622   2.375   2.670  1.6543 -0.7133  2.7393
 3400TIP3    H231836   1.550   2.251   2.620 -0.9395  1.7934 -0.1922
 3401TIP3   OH231837   3.700   3.473   1.550 -0.4866 -0.2713 -0.1265
 3401TIP3    H131838   3.778   3.486   1.604 -1.1960 -3.0800  1.8471
 3401TIP3    H231839   3.628   3.471   1.613 -2.1589  1.7383 -1.8424
 3402TIP3   OH231840   4.575   5.136   7.355 -0.2557  0.0115  0.2169
 3402TIP3    H131841   4.508   5.077   7.321  0.9576 -1.8779  0.9437
 3402TIP3    H231842   4.594   5.104   7.443  1.6946  0.3780 -0.0201
 3403TIP3   OH231843   6.457   3.446   7.964 -0.2529 -0.0165  0.1114
 3403TIP3    H131844   6.530   3.507   7.970  0.1878 -0.1423 -2.6902
 3403TIP3    H231845   6.412   3.453   8.048  0.3885  3.3669  0.2858
 3404TIP3   OH231846   0.185   0.774   0.545 -0.1694 -0.2727  0.4756
 3404TIP3    H131847   0.126   0.848   0.527 -0.5948 -0.4937  0.9617
 3404TIP3    H231848   0.163   0.746   0.633  0.4841 -0.5351  0.5637
 3405TIP3   OH231849   4.819   0.029   7.032 -0.6489  0.1706 -0.3865
 3405TIP3    H131850   4.898   0.029   7.086 -1.7797  1.8335  1.4000
 3405TIP3    H231851   4.852   0.034   6.942  1.3038 -2.5064  0.0329
 3406TIP3   OH231852   6.335   5.260   0.736 -0.2405 -0.0875  0.5023
 3406TIP3    H131853   6.257   5.207   0.723 -0.8871  1.2260 -1.3963
 3406TIP3    H231854   6.408   5.199   0.725 -0.9833 -0.8989  0.0119
 3407TIP3   OH231855   6.769   2.515   0.662 -0.5277 -0.2021  0.0847
 3407TIP3    H131856   6.776   2.592   0.606  0.4551 -1.1146 -1.1107
 3407TIP3    H231857   6.857   2.503   0.697 -0.9857 -0.0117  1.3636
 3408TIP3   OH231858   5.473   4.504   2.646 -1.0098  0.2552 -0.1872
 3408TIP3    H131859   5.392   4.496   2.596 -0.8091 -0.0396 -0.4730
 3408TIP3    H231860   5.543   4.495   2.581 -0.7140 -1.8623  0.3297
 3409TIP3   OH231861   1.340   0.787   8.551 -0.4405  0.0746 -0.2006
 3409TIP3    H131862   1.269   0.782   8.488 -0.3838 -0.4253 -0.2236
 3409TIP3    H231863   1.304   0.837   8.624 -0.1691  1.6245 -1.0724
 3410TIP3   OH231864   3.059   4.153   2.335 -0.3715 -0.1951 -0.6189
 3410TIP3    H131865   3.006   4.155   2.415  0.9588  0.5511  0.2751
 3410TIP3    H231866   3.116   4.077   2.347 -0.3398 -0.2320 -0.9908
 3411TIP3   OH231867   0.925   1.690   7.812  0.0143  0.0839 -0.1402
 3411TIP3    H131868   0.918   1.719   7.903  0.0672  0.2257 -0.1815
 3411TIP3    H231869   0.854   1.736   7.767 -1.0076 -1.1687  0.1313
 3412TIP3   OH231870   0.701   2.366   0.409 -0.6420  0.8207  0.0217
 3412TIP3    H131871   0.729   2.429   0.476 -3.7525  3.0712 -0.5773
 3412TIP3    H231872   0.713   2.413   0.326  0.1292 -0.7042 -0.7653
 3413TIP3   OH231873   3.912   5.304   1.491  0.2057  0.3664 -0.3276
 3413TIP3    H131874   3.939   5.387   1.530  0.9081 -0.6854  1.5580
 3413TIP3    H231875   3.899   5.246   1.566 -0.7056 -1.1020 -1.5797
 3414TIP3   OH231876   4.205   2.967   2.186  0.3074 -0.0619  0.2803
 3414TIP3    H131877   4.214   2.984   2.280 -0.6515 -0.0309  0.3725
 3414TIP3    H231878   4.203   2.872   2.179  0.3862 -0.0644  0.2869
 3415TIP3   OH231879   6.267   0.389   0.823  0.3806  0.0747  0.1223
 3415TIP3    H131880   6.334   0.373   0.757  0.3849  0.6641 -0.0189
 3415TIP3    H231881   6.257   0.305   0.868 -0.7742 -0.7918 -1.6669
 3416TIP3   OH231882   6.341   1.684   1.452 -0.8474  0.0692 -0.1389
 3416TIP3    H131883   6.412   1.687   1.517 -1.4435  2.4023  0.4900
 3416TIP3    H231884   6.276   1.625   1.490  0.2490 -1.2308 -0.2174
 3417TIP3   OH231885   0.466   0.825   2.440  0.2800 -0.1419  0.2756
 3417TIP3    H131886   0.411   0.900   2.466  1.7943  0.3373  2.3213
 3417TIP3    H231887   0.403   0.759   2.412 -1.0956  2.0411 -2.1981
 3418TIP3   OH231888   0.210   3.743   2.543  0.0031  0.2288  0.1595
 3418TIP3    H131889   0.232   3.733   2.635  0.8549  1.2581  0.0860
 3418TIP3    H231890   0.212   3.837   2.528 -0.9770  0.1300 -0.7190
 3419TIP3   OH231891   2.365   1.889   6.386 -0.4129  0.0937  0.4682
 3419TIP3    H131892   2.452   1.911   6.354  1.0801 -3.1875  1.8352
 3419TIP3    H231893   2.308   1.897   6.309  1.2984  1.0796 -0.7641
 3420TIP3   OH231894   1.508   0.583   2.359 -0.1247  0.0628 -0.1838
 3420TIP3    H131895   1.482   0.573   2.450  0.4787 -0.3780 -0.0529
 3420TIP3    H231896   1.603   0.594   2.362 -0.4103  3.7409 -0.4885
 3421TIP3   OH231897   5.018   0.428   7.754 -0.1898 -0.4452 -0.0526
 3421TIP3    H131898   4.949   0.409   7.690 -0.0726 -2.5149  0.3740
 3421TIP3    H231899   5.094   0.381   7.721  0.3727 -0.0761  0.7051
 3422TIP3   OH231900   2.443   1.250   0.580 -0.1348  0.5692 -0.0708
 3422TIP3    H131901   2.467   1.305   0.655 -1.5476  0.9126  0.1731
 3422TIP3    H231902   2.419   1.166   0.619  0.3965  0.3219 -0.2749
 3423TIP3   OH231903   2.538   1.104   1.222  0.6661 -0.2819 -0.1587
 3423TIP3    H131904   2.616   1.122   1.170  0.3283  0.1112 -0.5299
 3423TIP3    H231905   2.484   1.182   1.213  1.0313  0.2206  1.5823
 3424TIP3   OH231906   2.035   1.977   2.137 -0.0098  0.3205  0.2575
 3424TIP3    H131907   2.065   1.995   2.226 -1.5164  1.9343  0.5038
 3424TIP3    H231908   2.019   1.883   2.135  0.1561  0.2374  1.6713
 3425TIP3   OH231909   6.289   6.592   0.155 -0.4438 -0.4248  0.2325
 3425TIP3    H131910   6.369   6.626   0.194 -0.9808  1.6215 -0.2895
 3425TIP3    H231911   6.259   6.662   0.097 -1.6797 -1.8423 -0.9383
 3426TIP3   OH231912   5.908   0.925   6.947 -0.1604  0.3916  0.2488
 3426TIP3    H131913   5.961   0.997   6.982 -0.9298  0.2874  1.7042
 3426TIP3    H231914   5.833   0.919   7.007 -1.4534  0.0524 -1.3235
 3427TIP3   OH231915   3.700   5.509   0.155 -0.0304 -0.1249  0.2146
 3427TIP3    H131916   3.755   5.439   0.119  1.0728  0.3079  1.0185
 3427TIP3    H231917   3.722   5.586   0.104  0.3023  0.1060  0.6984
 3428TIP3   OH231918   3.465   1.525   8.550 -1.0656 -0.9115  0.2890
 3428TIP3    H131919   3.525   1.555   8.481 -2.2072 -0.8289 -0.6887
 3428TIP3    H231920   3.518   1.530   8.630  0.9718 -2.9766 -0.8044
 3429TIP3   OH231921   3.941   6.008   8.387  0.2070  0.2998  0.1501
 3429TIP3    H131922   3.949   5.930   8.441  1.8994  0.5029  0.2377
 3429TIP3    H231923   3.894   6.071   8.443  1.8759  0.4897  1.4060
 3430TIP3   OH231924   2.519   5.535   8.130 -0.5471  0.4395 -0.3320
 3430TIP3    H131925   2.500   5.527   8.036  1.0513  0.5644 -0.6989
 3430TIP3    H231926   2.465   5.468   8.171  0.1560 -0.9485 -1.5645
 3431TIP3   OH231927   2.451   1.972   7.272  0.2865  0.1719 -0.3110
 3431TIP3    H131928   2.463   2.067   7.270  1.0441  0.0759 -1.5418
 3431TIP3    H231929   2.357   1.959   7.261  0.2090  0.7825 -0.3788
 3432TIP3   OH231930   4.354   0.761   0.725 -0.3993 -0.0885 -0.0712
 3432TIP3    H131931   4.437   0.765   0.679  0.3229 -0.8681  1.1169
 3432TIP3    H231932   4.377   0.773   0.818 -1.8785  2.3019  0.0880
 3433TIP3   OH231933   3.004   5.191   1.186 -0.0304  0.0565  0.3853
 3433TIP3    H131934   3.043   5.278   1.192  1.3563 -0.4632 -0.5295
 3433TIP3    H231935   2.938   5.189   1.255  1.6255  0.9827  2.0814
 3434TIP3   OH231936   0.507   0.288   7.601 -0.0332 -0.0519 -0.0191
 3434TIP3    H131937   0.544   0.373   7.625  0.9517 -0.2977 -0.5831
 3434TIP3    H231938   0.569   0.254   7.536 -0.4309 -1.1828  0.1875
 3435TIP3   OH231939   6.581   3.354   1.453 -0.3185 -0.4844 -0.0785
 3435TIP3    H131940   6.543   3.330   1.368 -0.4800  0.0526 -0.1585
 3435TIP3    H231941   6.626   3.437   1.437  0.7170 -0.9993  0.0680
 3436TIP3   OH231942   1.186   3.100   1.778  0.2983 -0.7133 -0.0707
 3436TIP3    H131943   1.269   3.058   1.755  0.9277  0.0008  0.8453
 3436TIP3    H231944   1.193   3.119   1.871 -0.2864  0.7097 -0.2921
 3437TIP3   OH231945   3.811   2.239   2.479 -0.5619 -0.2671 -0.2338
 3437TIP3    H131946   3.801   2.313   2.537  0.2276  0.2938 -0.8005
 3437TIP3    H231947   3.814   2.277   2.391 -0.3187 -0.9798 -0.5459
 3438TIP3   OH231948   1.198   3.912   1.049 -0.1722  0.0536  0.8551
 3438TIP3    H131949   1.221   3.871   1.133  0.0666  0.3423  0.9336
 3438TIP3    H231950   1.244   3.996   1.050 -0.4471  0.2103  0.5829
 3439TIP3   OH231951   2.403   5.572   7.548 -0.1548 -0.4883  0.7996
 3439TIP3    H131952   2.354   5.627   7.609 -2.0912  0.6075 -1.5773
 3439TIP3    H231953   2.339   5.506   7.520  1.3431 -2.3296  1.5460
 3440TIP3   OH231954   0.075   0.798   0.159 -0.0965 -0.2950  0.3086
 3440TIP3    H131955   0.169   0.804   0.176 -0.3398 -1.7229  2.5448
 3440TIP3    H231956   0.069   0.759   0.072  1.3346  0.4904 -0.1909
 3441TIP3   OH231957   3.858   3.805   7.105 -0.4649  0.3448  0.4479
 3441TIP3    H131958   3.826   3.720   7.138  0.7061 -0.5106 -0.5240
 3441TIP3    H231959   3.779   3.852   7.079 -1.0652 -1.2038 -0.7139
 3442TIP3   OH231960   3.357   2.536   0.610 -0.0687  0.0621  0.2638
 3442TIP3    H131961   3.311   2.615   0.581  1.5161  1.6676  1.8619
 3442TIP3    H231962   3.341   2.533   0.705  1.2204 -0.5846  0.4800
 3443TIP3   OH231963   6.105   1.600   1.611  0.2746  0.2409  0.0553
 3443TIP3    H131964   6.047   1.550   1.669  2.2007 -0.3317  1.5839
 3443TIP3    H231965   6.113   1.685   1.654 -0.3982  0.7759 -0.8308
 3444TIP3   OH231966   5.447   0.096   1.520  0.5952  0.2709  0.7938
 3444TIP3    H131967   5.476   0.125   1.607  1.7981  0.1791  0.4436
 3444TIP3    H231968   5.489   0.157   1.460  1.8294 -1.1609  0.1383
 3445TIP3   OH231969   3.456   1.720   7.602  0.2897 -0.3216 -0.0462
 3445TIP3    H131970   3.490   1.631   7.609  1.6510  0.1613 -0.2236
 3445TIP3    H231971   3.470   1.744   7.510  0.5747  0.3095  0.1530
 3446TIP3   OH231972   4.436   4.295   7.609 -0.1790  0.4028  0.3463
 3446TIP3    H131973   4.492   4.328   7.538  1.4937 -2.8678 -0.0453
 3446TIP3    H231974   4.354   4.343   7.598 -0.2440 -0.2399 -4.2090
 3447TIP3   OH231975   2.329   5.800   8.091 -0.0624  0.6831  0.6482
 3447TIP3    H131976   2.334   5.816   8.185 -0.4225 -0.4878  0.8834
 3447TIP3    H231977   2.385   5.724   8.076  0.9990  1.6076 -0.2962
 3448TIP3   OH231978   6.160   2.798   1.662  0.4867 -0.1121  0.0914
 3448TIP3    H131979   6.169   2.703   1.662  2.3559  0.0194  0.0831
 3448TIP3    H231980   6.139   2.820   1.571 -3.2786 -0.6817  0.6816
 3449TIP3   OH231981   3.262   1.832   2.294  1.1075 -0.1573  0.2677
 3449TIP3    H131982   3.228   1.922   2.290 -1.2626 -0.9013  1.9445
 3449TIP3    H231983   3.265   1.811   2.387 -1.1479 -2.7316 -0.1210
 3450TIP3   OH231984   2.706   2.307   6.696 -0.0082 -0.3225  0.1972
 3450TIP3    H131985   2.666   2.226   6.664  0.6083 -0.4707 -0.2237
 3450TIP3    H231986   2.658   2.377   6.651 -0.8310 -0.4281  0.8916
 3451TIP3   OH231987   5.687   1.620   7.234 -0.2869  0.5825 -0.3166
 3451TIP3    H131988   5.729   1.701   7.261  0.3461  0.3716 -0.6443
 3451TIP3    H231989   5.759   1.564   7.206 -0.8155  0.3443 -1.2345
 3452TIP3   OH231990   5.060   1.023   7.341 -0.0062  0.3750  0.1129
 3452TIP3    H131991   5.148   0.999   7.371 -0.1760 -0.9960 -0.3894
 3452TIP3    H231992   5.001   0.986   7.407 -0.3176 -1.4788 -1.1147
 3453TIP3   OH231993   2.594   4.222   7.742  0.0750 -0.4550 -0.0251
 3453TIP3    H131994   2.636   4.153   7.691 -1.3099 -1.1488 -0.2772
 3453TIP3    H231995   2.620   4.303   7.699 -1.5420 -1.0490 -2.2797
 3454TIP3   OH231996   1.731   5.175   7.074  0.0913  0.0446  0.5140
 3454TIP3    H131997   1.760   5.232   7.145 -2.4623  1.4566  0.5386
 3454TIP3    H231998   1.720   5.089   7.116  2.4185 -0.1807  0.8379
 3455TIP3   OH231999   0.545   0.327   8.455  0.2520  0.6277  0.4201
 3455TIP3    H132000   0.496   0.358   8.379 -0.5094 -0.8560  0.2638
 3455TIP3    H232001   0.528   0.233   8.457  2.3021  0.2226  0.9543
 3456TIP3   OH232002   5.203   2.256   0.547  0.0753  0.1162 -0.3394
 3456TIP3    H132003   5.291   2.219   0.550  0.2794  0.6300  1.2098
 3456TIP3    H232004   5.153   2.196   0.491  0.7218 -1.7787  1.0083
 3457TIP3   OH232005   2.598   5.937   1.766  0.1687  0.0455  0.3304
 3457TIP3    H132006   2.612   5.948   1.860  0.3811 -1.0509  0.4357
 3457TIP3    H232007   2.517   5.985   1.748 -0.4071 -0.5653  1.2557
 3458TIP3   OH232008   0.397   3.796   1.482 -0.2306  0.1349 -0.0107
 3458TIP3    H132009   0.472   3.790   1.541  0.4188  1.8011 -0.6082
 3458TIP3    H232010   0.436   3.812   1.396 -1.2105 -1.1423 -0.7205
 3459TIP3   OH232011   6.512   1.038   0.133 -0.0559 -0.3511 -0.0901
 3459TIP3    H132012   6.489   1.065   0.044 -0.1217 -1.6991 -0.5004
 3459TIP3    H232013   6.563   0.958   0.122  1.3746  0.3638  1.0198
 3460TIP3   OH232014   0.770   2.651   7.265 -0.2355 -0.2180 -0.2638
 3460TIP3    H132015   0.861   2.625   7.251  0.6249  2.0554  0.7195
 3460TIP3    H232016   0.729   2.573   7.303  1.7306 -0.7455  0.8985
 3461TIP3   OH232017   6.128   6.417   0.262  0.1907  0.1948  0.1664
 3461TIP3    H132018   6.202   6.469   0.229  0.8055  0.1319  1.3990
 3461TIP3    H232019   6.115   6.350   0.195  0.1657  1.1965 -0.8718
 3462TIP3   OH232020   3.216   0.600   7.469 -0.2850 -0.4256 -0.6598
 3462TIP3    H132021   3.180   0.606   7.557 -0.3004 -2.5961 -0.4491
 3462TIP3    H232022   3.174   0.670   7.420  0.5493  1.5398  1.2948
 3463TIP3   OH232023   6.865   3.532   7.385 -0.9544 -0.1175  0.5228
 3463TIP3    H132024   6.800   3.586   7.340  1.9495  2.0628 -1.4443
 3463TIP3    H232025   6.884   3.461   7.324  1.6099  1.7886 -1.1093
 3464TIP3   OH232026   1.359   5.824   7.300 -0.4428 -0.0062  0.0641
 3464TIP3    H132027   1.296   5.852   7.233 -1.5605 -0.2807  0.9575
 3464TIP3    H232028   1.381   5.734   7.275 -1.6634 -0.4840  0.5999
 3465TIP3   OH232029   1.651   4.992   1.519  0.3378 -0.4954  0.0596
 3465TIP3    H132030   1.618   5.081   1.523  1.4540 -0.0434 -0.4183
 3465TIP3    H232031   1.746   5.001   1.524  0.5602 -1.5269 -1.4482
 3466TIP3   OH232032   3.661   0.317   8.035 -0.1836  0.1928 -0.5927
 3466TIP3    H132033   3.751   0.343   8.057 -0.2901  0.8573 -0.9115
 3466TIP3    H232034   3.659   0.223   8.051  0.3358  0.3070  0.2092
 3467TIP3   OH232035   5.703   3.059   2.462  0.1169 -0.2346  0.1572
 3467TIP3    H132036   5.649   3.123   2.509  0.7336  1.3922 -1.2636
 3467TIP3    H232037   5.786   3.058   2.509  0.6883  1.2925 -0.7655
 3468TIP3   OH232038   5.351   1.872   1.511 -0.0200 -0.0649 -0.0145
 3468TIP3    H132039   5.428   1.923   1.538 -0.3766  0.6929 -0.3802
 3468TIP3    H232040   5.364   1.857   1.418  1.0401 -2.3798  0.4470
 3469TIP3   OH232041   3.864   6.226   8.557 -0.1025 -0.4870  0.1924
 3469TIP3    H132042   3.850   6.307   8.607  1.1848 -0.4569  0.5639
 3469TIP3    H232043   3.857   6.156   8.622  1.6746 -0.4423  0.5023
 3470TIP3   OH232044   2.865   1.737   7.561 -0.0789 -0.8082 -0.3185
 3470TIP3    H132045   2.812   1.695   7.629 -0.0853 -0.8507 -0.3501
 3470TIP3    H232046   2.805   1.798   7.518  0.2804  0.2529  0.6373
 3471TIP3   OH232047   5.274   2.436   0.787 -0.4788 -0.4396  0.9289
 3471TIP3    H132048   5.248   2.422   0.696  0.7532 -0.9742  0.6403
 3471TIP3    H232049   5.224   2.514   0.814  0.1708  0.5846 -0.6510
 3472TIP3   OH232050   5.292   4.502   0.778  0.5074  0.6557 -0.1526
 3472TIP3    H132051   5.366   4.453   0.741 -0.5138 -2.1992  1.3445
 3472TIP3    H232052   5.228   4.506   0.707  0.4258 -0.6698 -0.1820
 3473TIP3   OH232053   0.079   2.410   6.918  0.8082 -0.4998  0.1898
 3473TIP3    H132054   0.048   2.490   6.876  1.2205  0.0390  0.9196
 3473TIP3    H232055   0.172   2.405   6.897  1.0112 -0.2470  1.0014
 3474TIP3   OH232056   3.264   2.018   7.101 -0.5466 -0.5981  0.1043
 3474TIP3    H132057   3.197   1.974   7.048 -0.4233 -0.1741 -0.4145
 3474TIP3    H232058   3.347   1.985   7.066 -0.3379  1.8450 -2.0001
 3475TIP3   OH232059   1.288   4.915   8.501 -0.0080  0.4039  0.1764
 3475TIP3    H132060   1.378   4.948   8.509  0.2544 -0.1617 -0.3713
 3475TIP3    H232061   1.290   4.857   8.425 -0.4198 -1.0023  1.1980
 3476TIP3   OH232062   0.792   0.961   7.666  0.5798  0.0487  0.2633
 3476TIP3    H132063   0.700   0.952   7.643  0.7254 -0.1484 -0.2582
 3476TIP3    H232064   0.839   0.949   7.584  1.0273  1.1410  0.3447
 3477TIP3   OH232065   0.819   3.142   0.334 -0.2580 -0.0696 -0.0654
 3477TIP3    H132066   0.744   3.147   0.393 -0.1543 -1.3769  0.2123
 3477TIP3    H232067   0.868   3.065   0.365  0.1828 -0.3470 -1.4000
 3478TIP3   OH232068   1.618   0.668   8.521 -0.0866  0.2163 -0.2444
 3478TIP3    H132069   1.536   0.683   8.569  0.6699  1.4887  0.7161
 3478TIP3    H232070   1.654   0.756   8.509 -0.1061 -0.0871 -2.9679
 3479TIP3   OH232071   0.435   1.949   8.417  0.1651 -0.2332 -0.1353
 3479TIP3    H132072   0.490   1.935   8.494 -1.5447 -2.8170  0.7591
 3479TIP3    H232073   0.413   2.042   8.419  2.4322  0.3371  0.8646
 3480TIP3   OH232074   4.622   0.652   6.343 -0.3087  0.4142  0.6737
 3480TIP3    H132075   4.581   0.649   6.429 -0.1411  0.0159  0.7441
 3480TIP3    H232076   4.550   0.641   6.281 -0.4673  1.0129  0.7540
 3481TIP3   OH232077   6.709   5.647   1.234 -0.4163  0.0871 -0.1400
 3481TIP3    H132078   6.698   5.553   1.249  3.1549 -0.0529  2.9067
 3481TIP3    H232079   6.677   5.661   1.145 -0.5381 -4.1033 -0.9430
 3482TIP3   OH232080   0.815   3.037   6.707 -0.4357  0.7459  0.4244
 3482TIP3    H132081   0.774   3.044   6.620 -0.3970 -1.8953  0.0871
 3482TIP3    H232082   0.907   3.055   6.692 -0.4552  0.4514 -0.0728
 3483TIP3   OH232083   0.775   3.146   0.802 -0.3298 -0.6390 -0.3544
 3483TIP3    H132084   0.695   3.126   0.852  0.3915 -1.8798  0.3650
 3483TIP3    H232085   0.836   3.180   0.868  0.4590 -1.8039 -0.4454
 3484TIP3   OH232086   3.437   5.752   7.268 -0.0129  0.1674 -0.3449
 3484TIP3    H132087   3.410   5.693   7.198  0.7921  0.9658 -1.3754
 3484TIP3    H232088   3.533   5.743   7.270 -0.0145  0.2852  0.5494
 3485TIP3   OH232089   6.825   2.182   7.612  0.1140 -0.3140  0.3921
 3485TIP3    H132090   6.812   2.126   7.688  1.9032 -1.4067 -0.0558
 3485TIP3    H232091   6.837   2.270   7.647  2.2920 -0.9990  1.5398
 3486TIP3   OH232092   4.035   5.159   1.791 -0.0873 -0.1480  0.9258
 3486TIP3    H132093   4.040   5.136   1.884 -1.1079  0.2274  1.0806
 3486TIP3    H232094   4.051   5.253   1.789  1.7923 -0.4481  0.5184
 3487TIP3   OH232095   2.724   0.655   7.668 -0.8178  0.3799 -0.2716
 3487TIP3    H132096   2.663   0.703   7.723 -2.0059  1.2042 -2.1991
 3487TIP3    H232097   2.671   0.586   7.627  0.4160 -1.3508  0.8909
 3488TIP3   OH232098   5.444   3.653   7.950  0.2713  0.8624  0.2910
 3488TIP3    H132099   5.351   3.649   7.972  0.7606 -1.3486  2.3788
 3488TIP3    H232100   5.474   3.562   7.954  2.4091  1.4429 -0.9095
 3489TIP3   OH232101   0.775   5.316   7.862  0.5120  0.0216 -0.8055
 3489TIP3    H132102   0.766   5.335   7.768 -2.9693  2.5364 -0.1642
 3489TIP3    H232103   0.841   5.379   7.892 -0.0637  0.8444 -1.2177
 3490TIP3   OH232104   1.673   4.211   7.983 -0.3406 -0.0186 -0.1107
 3490TIP3    H132105   1.665   4.287   7.924 -0.3359  0.5004  0.5408
 3490TIP3    H232106   1.738   4.155   7.942  2.5427  2.0893  1.2075
 3491TIP3   OH232107   0.627   3.469   6.947  0.2748 -0.2694 -0.2147
 3491TIP3    H132108   0.719   3.484   6.925 -0.1519  0.7197 -1.4628
 3491TIP3    H232109   0.583   3.457   6.863 -0.7742 -0.5420  0.3468
 3492TIP3   OH232110   5.774   3.618   1.779  0.1194 -0.9282  0.3752
 3492TIP3    H132111   5.840   3.680   1.748 -1.3168  0.6226  0.2948
 3492TIP3    H232112   5.775   3.628   1.874  0.1545 -1.0856  0.3925
 3493TIP3   OH232113   3.956   2.123   8.361 -0.2975  0.1440  0.8039
 3493TIP3    H132114   3.934   2.135   8.453  0.1871  1.8756  0.7202
 3493TIP3    H232115   3.905   2.189   8.315  0.5814  0.2747 -0.0111
 3494TIP3   OH232116   5.962   4.162   0.830  0.1330 -0.3211 -0.3857
 3494TIP3    H132117   5.990   4.248   0.799 -0.9253  0.6353  1.1609
 3494TIP3    H232118   5.993   4.159   0.921  0.3001 -1.6564 -0.4728
 3495TIP3   OH232119   1.515   2.393   1.134  0.2385 -0.0883  0.7685
 3495TIP3    H132120   1.466   2.423   1.211  0.8732  1.2900  0.6599
 3495TIP3    H232121   1.508   2.465   1.071 -0.6277 -1.3541 -0.6624
 3496TIP3   OH232122   4.683   6.221   8.555  0.4217 -0.3168  0.1182
 3496TIP3    H132123   4.724   6.149   8.508  2.9596 -0.5856  2.4801
 3496TIP3    H232124   4.618   6.180   8.612  1.4729 -0.7193  1.0538
 3497TIP3   OH232125   2.528   3.290   1.916 -0.4688 -0.1944 -0.1381
 3497TIP3    H132126   2.457   3.348   1.886 -0.5746 -0.0617  0.3518
 3497TIP3    H232127   2.606   3.322   1.871 -0.7932 -0.6281 -1.0390
 3498TIP3   OH232128   4.361   5.188   1.845  0.4302 -0.0033 -0.0686
 3498TIP3    H132129   4.324   5.171   1.758 -1.1295 -1.0416  0.7339
 3498TIP3    H232130   4.427   5.255   1.830 -0.3102  0.3927 -1.9461
 3499TIP3   OH232131   4.321   6.006   8.578 -0.0069  0.8310  0.2036
 3499TIP3    H132132   4.250   6.018   8.640 -0.1419 -0.1756  0.2640
 3499TIP3    H232133   4.395   6.053   8.616 -0.0323  0.0565  1.2458
 3500TIP3   OH232134   4.746   6.315   7.033 -0.4706  0.0992  0.5151
 3500TIP3    H132135   4.813   6.260   7.073 -0.0301  1.1836  1.3348
 3500TIP3    H232136   4.771   6.320   6.941 -0.7929 -1.4326  0.3253
 3501TIP3   OH232137   5.373   1.006   0.729  0.2999  0.9911  0.6898
 3501TIP3    H132138   5.412   1.087   0.698 -0.8948  0.4911 -2.5643
 3501TIP3    H232139   5.446   0.955   0.764  2.1817  1.2220 -2.5123
 3502TIP3   OH232140   5.697   4.898   7.113  0.1930  0.4671 -0.5015
 3502TIP3    H132141   5.662   4.919   7.027 -1.4554  0.2136  0.0589
 3502TIP3    H232142   5.722   4.982   7.151  0.4969  0.6241 -1.0397
 3503TIP3   OH232143   1.371   4.306   6.990  0.5745  0.0061  0.2607
 3503TIP3    H132144   1.288   4.312   7.037  0.8825  0.6822  0.7297
 3503TIP3    H232145   1.437   4.334   7.053  0.9833  1.0623 -0.6057
 3504TIP3   OH232146   5.224   1.224   0.171  0.1759  0.0135  0.1656
 3504TIP3    H132147   5.146   1.263   0.134  0.5881  1.7344  1.0090
 3504TIP3    H232148   5.203   1.210   0.264  0.2078 -1.3628 -0.0146
 3505TIP3   OH232149   2.171   3.552   1.453  0.4262 -0.2720  0.1613
 3505TIP3    H132150   2.118   3.508   1.387  0.3304 -0.6199  0.4709
 3505TIP3    H232151   2.241   3.595   1.403 -0.0410  0.0389 -0.2278
 3506TIP3   OH232152   4.701   1.824   0.295 -0.3473 -0.1120  0.7365
 3506TIP3    H132153   4.622   1.843   0.345  0.8790 -0.0417  2.7410
 3506TIP3    H232154   4.750   1.906   0.294  0.0080 -0.3214  0.0839
 3507TIP3   OH232155   6.847   6.784   7.202  0.1482  0.5941  0.2083
 3507TIP3    H132156   6.903   6.768   7.125 -0.4580 -0.2913 -0.0604
 3507TIP3    H232157   6.909   6.804   7.272  0.7640  0.4606 -0.2836
 3508TIP3   OH232158   1.982   1.134   1.998  0.4506 -0.5157 -0.1610
 3508TIP3    H132159   2.009   1.101   2.084 -1.0448 -2.5213 -0.3740
 3508TIP3    H232160   1.972   1.056   1.944 -1.6765  0.4042 -1.2325
 3509TIP3   OH232161   1.845   4.763   8.429  0.2352 -0.1256  0.5090
 3509TIP3    H132162   1.772   4.801   8.477  0.7939  0.2215  1.1017
 3509TIP3    H232163   1.923   4.794   8.475  0.7919  0.1834 -0.5958
 3510TIP3   OH232164   5.384   1.517   2.529 -0.2088 -0.4378 -0.2772
 3510TIP3    H132165   5.429   1.592   2.491  0.1580 -0.3798  0.2595
 3510TIP3    H232166   5.442   1.487   2.600 -0.3085 -1.2709 -0.5296
 3511TIP3   OH232167   5.957   5.661   7.804  0.6077  0.3085  0.2681
 3511TIP3    H132168   5.975   5.567   7.800  0.9676  0.3803  0.1135
 3511TIP3    H232169   6.005   5.697   7.729  0.3603  0.5979  0.2486
 3512TIP3   OH232170   4.160   5.075   8.289 -0.3779 -0.3544  0.7279
 3512TIP3    H132171   4.090   5.126   8.249  0.2084 -1.1102 -1.3974
 3512TIP3    H232172   4.233   5.136   8.298  0.4226 -0.7527 -2.0808
 3513TIP3   OH232173   1.509   0.816   0.977  0.4192 -0.1631  0.2681
 3513TIP3    H132174   1.454   0.836   0.901  2.1447 -0.5688 -1.1538
 3513TIP3    H232175   1.450   0.770   1.038 -0.4512 -2.1113 -1.8878
 3514TIP3   OH232176   6.847   3.300   2.430  0.1234 -0.1723  0.6503
 3514TIP3    H132177   6.862   3.366   2.363  3.0029 -0.1509  1.1706
 3514TIP3    H232178   6.786   3.341   2.492 -0.5029  0.7982 -0.5722
 3515TIP3   OH232179   3.140   5.791   7.279 -0.2623  0.8349  0.0081
 3515TIP3    H132180   3.178   5.839   7.206 -0.6313  1.9291  0.5141
 3515TIP3    H232181   3.212   5.782   7.341 -0.0040  0.0853 -0.3836
 3516TIP3   OH232182   0.772   3.966   1.858  0.2541  0.6464  0.1220
 3516TIP3    H132183   0.785   4.030   1.788  1.2531 -0.3881 -0.6605
 3516TIP3    H232184   0.796   4.014   1.938 -1.0655  1.8848 -0.1696
 3517TIP3   OH232185   6.860   4.110   2.029 -0.0332 -0.5860 -0.2467
 3517TIP3    H132186   6.774   4.113   2.071 -1.1797  1.5854 -2.5171
 3517TIP3    H232187   6.853   4.039   1.965  0.2612 -1.0841  0.2586
 3518TIP3   OH232188   6.803   4.045   1.075  0.8341 -0.4140 -0.0796
 3518TIP3    H132189   6.758   4.111   1.022  1.1152 -0.7688 -0.7826
 3518TIP3    H232190   6.779   3.962   1.034  0.1293 -0.7948  1.0596
 3519TIP3   OH232191   1.650   3.256   1.811  0.2959  0.4359  0.5452
 3519TIP3    H132192   1.571   3.273   1.862 -0.5274  1.8550 -1.0878
 3519TIP3    H232193   1.643   3.163   1.787  0.1804  0.0213  2.0864
 3520TIP3   OH232194   5.887   0.676   1.340 -0.2990  0.4880 -0.4183
 3520TIP3    H132195   5.863   0.663   1.248  0.7149  0.2403 -0.6616
 3520TIP3    H232196   5.933   0.760   1.341  0.0786  0.2810 -0.2193
 3521TIP3   OH232197   1.180   2.039   6.908  0.3013  0.0375 -0.1248
 3521TIP3    H132198   1.272   2.047   6.882  0.7239 -0.2854  1.2392
 3521TIP3    H232199   1.155   2.128   6.933  0.9103 -0.2400  1.6018
 3522TIP3   OH232200   3.249   4.854   7.985 -0.0169 -0.1781  0.0547
 3522TIP3    H132201   3.232   4.901   7.903 -0.3808 -0.7604 -0.2025
 3522TIP3    H232202   3.178   4.880   8.043 -0.6467 -0.9864 -0.3361
 3523TIP3   OH232203   2.287   4.302   0.306  0.1579  0.2085  1.2310
 3523TIP3    H132204   2.193   4.316   0.321 -1.1261 -2.3959 -2.6850
 3523TIP3    H232205   2.299   4.208   0.318  1.8129  0.2178 -0.0419
 3524TIP3   OH232206   4.716   4.652   7.390 -0.2140 -0.2678  0.8242
 3524TIP3    H132207   4.770   4.709   7.334  0.9107 -1.2424  0.8580
 3524TIP3    H232208   4.779   4.612   7.450 -1.0417 -1.1651  1.1127
 3525TIP3   OH232209   3.427   2.712   8.342  0.0577  0.2210  0.0033
 3525TIP3    H132210   3.504   2.701   8.287  0.3774  0.6285  0.3624
 3525TIP3    H232211   3.450   2.670   8.425 -1.3691 -2.7723 -0.9579
 3526TIP3   OH232212   1.335   3.284   2.582  0.3902 -0.6345 -0.2178
 3526TIP3    H132213   1.398   3.303   2.651 -1.0587  0.3394  0.8866
 3526TIP3    H232214   1.318   3.369   2.541  1.7308 -1.2741 -2.3090
 3527TIP3   OH232215   3.810   3.186   0.674 -0.0902  0.1193 -0.0509
 3527TIP3    H132216   3.872   3.114   0.685  0.0991  0.3068  0.1089
 3527TIP3    H232217   3.864   3.265   0.677 -0.4822  0.3458  1.3043
 3528TIP3   OH232218   0.557   0.253   0.745 -0.1002 -0.1218  0.4763
 3528TIP3    H132219   0.638   0.208   0.724  0.1706  0.0973  1.0281
 3528TIP3    H232220   0.489   0.186   0.735  0.2097 -0.4452  0.5218
 3529TIP3   OH232221   4.216   1.467   1.422  0.2218 -0.1900 -0.5049
 3529TIP3    H132222   4.251   1.417   1.348 -1.4372  0.0768 -1.5084
 3529TIP3    H232223   4.129   1.494   1.395 -0.7326 -0.6515  1.8055
 3530TIP3   OH232224   2.785   3.083   0.814  0.0685  0.2600  0.0715
 3530TIP3    H132225   2.710   3.089   0.755  1.4903 -0.7468 -1.9032
 3530TIP3    H232226   2.784   2.993   0.846 -0.6430  0.7686  1.6251
 3531TIP3   OH232227   2.352   0.760   6.739 -0.6817 -0.8957 -0.0097
 3531TIP3    H132228   2.277   0.775   6.681  0.3842 -0.1420 -1.2661
 3531TIP3    H232229   2.347   0.668   6.762 -1.3096 -1.1453 -1.0820
 3532TIP3   OH232230   2.873   2.308   7.443  0.0267  0.3060  0.8251
 3532TIP3    H132231   2.796   2.256   7.467 -0.3460  1.4927  2.3713
 3532TIP3    H232232   2.946   2.248   7.453 -0.6038 -0.5800  0.2509
 3533TIP3   OH232233   5.972   1.234   0.518  0.1598  0.4982 -0.4994
 3533TIP3    H132234   5.973   1.195   0.431 -0.3759  0.3102 -0.4247
 3533TIP3    H232235   5.984   1.160   0.577  0.4102  0.6118 -0.4045
 3534TIP3   OH232236   6.489   2.495   2.762  0.3000 -0.2361  0.0442
 3534TIP3    H132237   6.398   2.475   2.738  1.0009 -0.1207 -3.0391
 3534TIP3    H232238   6.514   2.567   2.704  3.0935 -1.8515 -0.9257
 3535TIP3   OH232239   0.324   0.080   7.562 -0.2271  0.1008  0.6391
 3535TIP3    H132240   0.396   0.131   7.597 -0.8550  2.1057 -0.8143
 3535TIP3    H232241   0.365   0.013   7.508  0.5686  1.4019 -0.4121
 3536TIP3   OH232242   3.973   3.427   8.636  0.4121  0.6124 -0.5582
 3536TIP3    H132243   4.040   3.373   8.594 -0.6110 -0.5200 -0.7668
 3536TIP3    H232244   3.915   3.453   8.565 -1.1056 -0.9846  0.0375
 3537TIP3   OH232245   3.814   5.739   8.082 -0.4164  0.4707  0.7348
 3537TIP3    H132246   3.848   5.824   8.111 -0.1577  0.5564  0.2148
 3537TIP3    H232247   3.885   5.702   8.029 -1.2206  0.7765 -0.6121
 3538TIP3   OH232248   6.050   2.163   2.141 -0.7860  0.3779 -0.2160
 3538TIP3    H132249   6.038   2.068   2.138  0.7784  0.1869 -1.2187
 3538TIP3    H232250   6.107   2.177   2.216 -0.3350  0.4458 -0.5733
 3539TIP3   OH232251   5.395   6.759   8.074  0.0791 -0.3267  0.2182
 3539TIP3    H132252   5.467   6.711   8.035 -0.1166 -1.1670  0.8682
 3539TIP3    H232253   5.388   6.725   8.163 -1.1730 -0.3300  0.1361
 3540TIP3   OH232254   2.267   1.070   0.243 -0.1123  0.8331 -0.3332
 3540TIP3    H132255   2.228   1.122   0.313  1.4928  1.4104  0.1750
 3540TIP3    H232256   2.210   0.993   0.236 -2.0741  2.2269 -0.5381
 3541TIP3   OH232257   6.745   0.752   1.049  0.5875 -0.3700  0.3079
 3541TIP3    H132258   6.669   0.751   1.107 -1.3368  0.0974 -2.0885
 3541TIP3    H232259   6.798   0.825   1.083 -1.0283  0.6268  0.8411
 3542TIP3   OH232260   1.735   1.527   7.268 -0.3155 -0.2275 -0.3906
 3542TIP3    H132261   1.792   1.536   7.344 -1.8858 -0.2796  0.8572
 3542TIP3    H232262   1.678   1.604   7.271 -0.6243 -0.4029 -1.3184
 3543TIP3   OH232263   2.400   2.249   7.300 -0.1960  0.3632 -0.0952
 3543TIP3    H132264   2.308   2.274   7.288 -0.1572  0.2477 -0.6798
 3543TIP3    H232265   2.437   2.320   7.352 -0.9534 -0.3098  1.4278
 3544TIP3   OH232266   5.581   3.641   0.130 -0.4665 -0.5298  0.4888
 3544TIP3    H132267   5.572   3.647   0.225  0.0778 -0.1038  0.5210
 3544TIP3    H232268   5.600   3.549   0.114 -0.7310 -0.6377  0.7745
 3545TIP3   OH232269   3.786   2.446   6.658 -0.3110  0.2126 -0.5780
 3545TIP3    H132270   3.765   2.397   6.738 -0.7168  0.6327 -0.4242
 3545TIP3    H232271   3.877   2.422   6.639 -0.0719  0.4232  0.2394
 3546TIP3   OH232272   5.552   5.948   0.919 -0.3864  0.1415 -0.5186
 3546TIP3    H132273   5.578   5.895   0.844  0.6389  1.1889 -0.9491
 3546TIP3    H232274   5.470   5.910   0.949 -0.1083 -1.1440 -1.3192
 3547TIP3   OH232275   3.359   6.583   8.642  0.1038  0.2061 -0.2950
 3547TIP3    H132276   3.270   6.549   8.638 -0.4372  1.4656  0.3430
 3547TIP3    H232277   3.378   6.589   8.736  2.2755 -3.4376 -0.3020
 3548TIP3   OH232278   0.664   5.236   8.383 -0.3019 -0.4827 -0.2589
 3548TIP3    H132279   0.600   5.204   8.320 -0.3507 -0.1019 -0.4037
 3548TIP3    H232280   0.620   5.306   8.429  0.5351  0.9029 -1.4764
 3549TIP3   OH232281   6.853   4.011   8.098 -0.3421  0.1935  0.4860
 3549TIP3    H132282   6.919   4.036   8.162  0.9849 -1.3568 -0.2128
 3549TIP3    H232283   6.769   4.027   8.143  0.4928  1.5159  1.6443
 3550TIP3   OH232284   3.593   5.213   1.392  0.2387 -0.2055  0.1713
 3550TIP3    H132285   3.602   5.135   1.446 -0.3092  0.7160  1.6683
 3550TIP3    H232286   3.613   5.184   1.303 -0.1419 -2.0730  0.6615
 3551TIP3   OH232287   1.113   4.361   0.931 -0.5537 -0.0418  0.1440
 3551TIP3    H132288   1.043   4.379   0.869 -0.3694  1.1757  0.2539
 3551TIP3    H232289   1.187   4.414   0.899  0.0679 -0.6927  0.4675
 3552TIP3   OH232290   3.633   2.149   1.524 -0.3116  0.1810 -0.2278
 3552TIP3    H132291   3.578   2.107   1.590  1.3218 -0.3213  0.8559
 3552TIP3    H232292   3.675   2.221   1.571  1.0234 -0.2990 -0.6582
 3553TIP3   OH232293   4.614   6.221   7.264 -0.1814 -0.0756 -0.8898
 3553TIP3    H132294   4.650   6.235   7.176  0.6150 -0.0355 -0.5605
 3553TIP3    H232295   4.680   6.255   7.323 -0.8334  0.1373 -0.2733
 3554TIP3   OH232296   1.053   1.789   0.887  0.0578  0.1440 -0.0659
 3554TIP3    H132297   1.060   1.821   0.797 -1.2921  2.7456  0.6502
 3554TIP3    H232298   0.961   1.762   0.895  0.1612 -0.0308  0.5447
 3555TIP3   OH232299   1.924   3.187   0.428  0.4905  0.0265  0.8974
 3555TIP3    H132300   1.991   3.185   0.497  1.1167  0.8940  0.3325
 3555TIP3    H232301   1.974   3.194   0.346 -0.2179 -1.7595  0.2838
 3556TIP3   OH232302   2.146   3.867   7.788 -0.3037  0.9088 -0.3020
 3556TIP3    H132303   2.190   3.890   7.870 -1.9514  0.6775  0.6900
 3556TIP3    H232304   2.212   3.883   7.720  1.3810  0.3715  1.1138
 3557TIP3   OH232305   4.897   6.235   1.721 -0.1876 -0.2690 -0.5980
 3557TIP3    H132306   4.970   6.272   1.771 -0.2013 -0.5131 -0.3936
 3557TIP3    H232307   4.836   6.204   1.788 -0.3001 -0.4131 -0.7667
 3558TIP3   OH232308   2.218   0.783   1.040 -0.2425  0.6220 -0.5224
 3558TIP3    H132309   2.249   0.718   1.103  0.5641  0.4487 -1.0692
 3558TIP3    H232310   2.142   0.823   1.081 -0.8435 -0.7566 -0.2205
 3559TIP3   OH232311   0.459   5.371   8.219 -0.0006 -0.6277 -0.0251
 3559TIP3    H132312   0.409   5.426   8.278 -0.3663 -0.3005 -0.6301
 3559TIP3    H232313   0.415   5.286   8.220  0.6108 -0.9436  0.9686
 3560TIP3   OH232314   2.312   1.394   7.146 -0.6032  0.3169  0.0949
 3560TIP3    H132315   2.333   1.338   7.221 -1.4332  0.1827  0.2385
 3560TIP3    H232316   2.375   1.465   7.150  1.2390 -1.1885 -0.7551
 3561TIP3   OH232317   2.712   5.563   6.805  0.0433 -0.4854  0.4291
 3561TIP3    H132318   2.645   5.631   6.811  0.8582  0.2979  0.9514
 3561TIP3    H232319   2.750   5.574   6.717  0.4631  0.0185  0.6719
 3562TIP3   OH232320   5.858   6.147   8.334 -0.2289 -0.0168 -0.1089
 3562TIP3    H132321   5.944   6.129   8.371 -0.4391  0.2236  0.5085
 3562TIP3    H232322   5.850   6.242   8.339 -0.4244 -0.0170 -0.4074
 3563TIP3   OH232323   3.022   2.449   0.777 -0.3988 -0.1565 -0.0626
 3563TIP3    H132324   3.095   2.404   0.819 -0.3754  0.3377  0.4422
 3563TIP3    H232325   3.019   2.413   0.689 -0.2403 -0.9682  0.2587
 3564TIP3   OH232326   6.318   3.281   6.985 -0.8275  0.3559  0.0797
 3564TIP3    H132327   6.311   3.228   6.906  0.3152 -1.0639  0.8678
 3564TIP3    H232328   6.291   3.368   6.958 -0.1106  0.0065 -1.9727
 3565TIP3   OH232329   4.875   4.998   0.549 -0.1661 -0.0871 -0.5835
 3565TIP3    H132330   4.968   5.004   0.568 -0.1991 -1.7598  0.3475
 3565TIP3    H232331   4.854   5.079   0.504  1.2961  1.2447  1.0110
 3566TIP3   OH232332   3.976   3.530   8.016  0.7491  0.1036  0.0362
 3566TIP3    H132333   3.989   3.559   7.925  0.2309 -1.5865 -0.6245
 3566TIP3    H232334   4.030   3.589   8.068 -0.1065  2.0711 -1.2020
 3567TIP3   OH232335   5.692   6.095   1.096 -0.1226  0.0810  0.2202
 3567TIP3    H132336   5.646   6.066   1.018 -0.1875  0.5047  0.0961
 3567TIP3    H232337   5.751   6.164   1.065 -0.4560  0.5486  0.6114
 3568TIP3   OH232338   2.155   2.357   2.823  0.2643 -0.4123  0.0864
 3568TIP3    H132339   2.150   2.450   2.800 -0.8631 -0.1940  1.0833
 3568TIP3    H232340   2.076   2.319   2.785  0.0476 -0.6914  0.8002
 3569TIP3   OH232341   5.426   4.694   0.364 -0.5419  0.2663 -0.2622
 3569TIP3    H132342   5.432   4.737   0.449  0.6550 -1.6669  0.6994
 3569TIP3    H232343   5.440   4.765   0.301  3.8997  1.0793  1.2826
 3570TIP3   OH232344   5.641   6.662   7.210  0.5184 -0.0107 -0.1412
 3570TIP3    H132345   5.661   6.738   7.265  0.2843 -0.3311  0.3970
 3570TIP3    H232346   5.549   6.643   7.228  1.3234 -2.2793  2.0801
 3571TIP3   OH232347   5.141   0.763   8.254 -0.1591  0.7868 -0.6568
 3571TIP3    H132348   5.221   0.752   8.306  0.2077  0.6491 -1.2512
 3571TIP3    H232349   5.153   0.707   8.178 -1.7438 -0.9211  0.2602
 3572TIP3   OH232350   3.713   4.052   1.237  0.0133  0.1270  0.1050
 3572TIP3    H132351   3.631   4.087   1.272 -0.2689 -0.5296  0.1106
 3572TIP3    H232352   3.688   3.969   1.197  0.5520  0.2645 -0.5307
 3573TIP3   OH232353   3.667   3.573   0.084 -0.1632 -0.4690 -0.1136
 3573TIP3    H132354   3.636   3.503   0.027 -2.2069 -0.8435  1.3560
 3573TIP3    H232355   3.636   3.549   0.171 -0.0354  1.7458  0.6036
 3574TIP3   OH232356   5.640   6.658   0.114 -0.0508  0.3199  0.0794
 3574TIP3    H132357   5.628   6.621   0.202  1.9173  2.0406  1.1809
 3574TIP3    H232358   5.699   6.596   0.070  0.6980  0.5218  0.7727
 3575TIP3   OH232359   4.473   3.987   0.163 -0.4736 -0.2581  0.3979
 3575TIP3    H132360   4.434   3.904   0.191 -1.0651 -0.4320 -0.8579
 3575TIP3    H232361   4.426   4.009   0.082  2.6199 -0.9303 -1.7467
 3576TIP3   OH232362   5.585   1.206   7.952  0.7204  0.0778  0.5152
 3576TIP3    H132363   5.659   1.156   7.987  0.5354 -0.8688 -0.4007
 3576TIP3    H232364   5.616   1.237   7.867  0.6141  1.0315  0.8161
 3577TIP3   OH232365   0.974   6.097   0.670 -0.3051  0.4626  0.4285
 3577TIP3    H132366   1.061   6.108   0.707 -0.8596  1.3924  1.5120
 3577TIP3    H232367   0.966   6.002   0.654  0.6828  0.3062  0.8380
 3578TIP3   OH232368   5.375   5.956   1.796 -0.1381 -0.6526 -0.2935
 3578TIP3    H132369   5.287   5.944   1.833  0.2818  0.2446  1.0560
 3578TIP3    H232370   5.432   5.905   1.852  0.5770  1.1289  0.6712
 3579TIP3   OH232371   3.181   5.058   0.805  0.4722 -0.2554  0.0502
 3579TIP3    H132372   3.164   4.983   0.862 -0.4996  0.1577  0.3308
 3579TIP3    H232373   3.172   5.023   0.716  1.7170 -0.8388  0.1375
 3580TIP3   OH232374   6.888   3.297   7.207 -0.9125 -0.1046 -0.2745
 3580TIP3    H132375   6.835   3.256   7.139 -0.4482 -0.7406 -0.2557
 3580TIP3    H232376   6.956   3.233   7.228  0.7956  1.2488 -1.3598
 3581TIP3   OH232377   6.859   3.206   1.267 -0.2460 -0.1975  0.4624
 3581TIP3    H132378   6.891   3.234   1.353 -1.3335  2.5783  0.0474
 3581TIP3    H232379   6.790   3.142   1.287  0.1539 -0.2803  1.6188
 3582TIP3   OH232380   5.155   5.380   7.460 -0.1762 -0.6280  0.1509
 3582TIP3    H132381   5.173   5.286   7.450 -2.6194 -1.1621  0.1230
 3582TIP3    H232382   5.152   5.394   7.554 -0.8309 -0.8202  0.1635
 3583TIP3   OH232383   5.558   6.278   7.979 -0.4820  0.5154  0.1157
 3583TIP3    H132384   5.533   6.356   8.028 -2.2623  0.1624 -0.1684
 3583TIP3    H232385   5.475   6.243   7.945  0.4054 -0.8151 -0.7817
 3584TIP3   OH232386   6.698   0.207   8.139 -0.5284  0.9005  0.4826
 3584TIP3    H132387   6.627   0.194   8.076 -2.1124  0.8146  2.2088
 3584TIP3    H232388   6.751   0.277   8.101 -0.4989 -0.2405 -1.6976
 3585TIP3   OH232389   4.802   5.683   2.059 -0.0497 -0.3529  0.9780
 3585TIP3    H132390   4.844   5.611   2.106 -1.7146 -1.9440  0.1699
 3585TIP3    H232391   4.756   5.733   2.126 -0.8758 -1.5018  1.2920
 3586TIP3   OH232392   4.103   2.595   0.511 -0.2278  0.1706 -0.3786
 3586TIP3    H132393   4.163   2.528   0.479  0.1124  0.5189 -0.4648
 3586TIP3    H232394   4.021   2.548   0.525 -0.6443  0.1496 -2.5445
 3587TIP3   OH232395   6.373   3.509   0.479 -0.1101 -0.1679 -0.9005
 3587TIP3    H132396   6.400   3.600   0.473 -1.2979  0.2777  0.1173
 3587TIP3    H232397   6.393   3.482   0.568  0.0364 -0.8468 -1.1256
 3588TIP3   OH232398   4.994   1.128   8.056  0.6168  0.1003 -0.6955
 3588TIP3    H132399   4.945   1.068   8.113  1.1166  0.1513 -0.2003
 3588TIP3    H232400   5.067   1.158   8.111 -0.1948  1.9781 -0.5450
 3589TIP3   OH232401   0.210   6.109   2.051 -0.2062  0.2571  0.7531
 3589TIP3    H132402   0.228   6.166   1.976 -1.1837 -0.4038 -0.0091
 3589TIP3    H232403   0.294   6.067   2.069  0.1921  0.9067  0.4454
 3590TIP3   OH232404   5.181   2.440   8.058 -0.2236  0.1335 -0.2725
 3590TIP3    H132405   5.192   2.433   7.963 -1.8812  0.3107 -0.5080
 3590TIP3    H232406   5.220   2.525   8.080 -1.0608  0.7310 -1.0252
 3591TIP3   OH232407   4.939   3.533   7.799 -0.3477  0.6516  0.0601
 3591TIP3    H132408   4.862   3.501   7.846 -0.4938  0.1919 -0.4907
 3591TIP3    H232409   5.013   3.487   7.840 -0.6440 -1.3112 -1.4512
 3592TIP3   OH232410   6.421   0.860   1.958  0.2481 -0.2522  0.1213
 3592TIP3    H132411   6.395   0.782   1.910 -0.8410 -0.5107  1.0944
 3592TIP3    H232412   6.408   0.838   2.050  0.1273  0.9917  0.4250
 3593TIP3   OH232413   4.378   2.153   6.825 -0.1542  0.2844 -0.8046
 3593TIP3    H132414   4.457   2.160   6.879 -0.7956  1.2047  0.0589
 3593TIP3    H232415   4.393   2.076   6.770  0.8638 -0.2237  0.1403
 3594TIP3   OH232416   4.666   6.285   0.974 -0.5101  0.0010 -0.1256
 3594TIP3    H132417   4.578   6.248   0.973 -0.1448 -0.9022  0.5099
 3594TIP3    H232418   4.658   6.366   0.923 -1.9521  0.5262  0.8828
 3595TIP3   OH232419   5.768   1.618   1.718  0.2304  0.1649 -0.3271
 3595TIP3    H132420   5.816   1.543   1.754 -0.2905 -0.1179 -0.2086
 3595TIP3    H232421   5.683   1.582   1.694  0.5762  0.3328 -1.9086
 3596TIP3   OH232422   6.552   2.263   0.398 -0.6683 -0.3241 -0.4716
 3596TIP3    H132423   6.551   2.239   0.491 -1.6939 -1.3557 -0.7267
 3596TIP3    H232424   6.469   2.308   0.384 -0.6213 -0.3792 -0.9364
 3597TIP3   OH232425   3.335   3.434   0.704  0.1060  0.5011 -0.5062
 3597TIP3    H132426   3.420   3.446   0.747 -0.3711  1.9940  0.1019
 3597TIP3    H232427   3.356   3.407   0.615  1.2463  1.4865 -0.5554
 3598TIP3   OH232428   1.652   0.310   2.483 -0.6155  0.1532 -0.3951
 3598TIP3    H132429   1.728   0.259   2.511 -0.9610  0.0678  0.4122
 3598TIP3    H232430   1.665   0.396   2.524 -0.1521  0.6527 -1.5609
 3599TIP3   OH232431   0.263   6.553   0.872 -0.0322  0.6897 -0.4099
 3599TIP3    H132432   0.237   6.528   0.783 -2.4000  2.5995 -0.3537
 3599TIP3    H232433   0.296   6.642   0.862  2.5932 -0.1064  0.2616
 3600TIP3   OH232434   6.361   3.627   7.626 -0.2719  0.0526 -0.5063
 3600TIP3    H132435   6.289   3.564   7.630  0.1717 -0.4211  0.7394
 3600TIP3    H232436   6.394   3.621   7.537 -1.4179 -0.1186 -0.9381
 3601TIP3   OH232437   0.564   1.162   7.849  0.2848  0.1987  0.2300
 3601TIP3    H132438   0.623   1.224   7.806  0.0900 -0.7526 -1.5104
 3601TIP3    H232439   0.617   1.122   7.917  1.3333  0.1170 -0.6148
 3602TIP3   OH232440   6.430   6.122   1.244 -0.4575 -0.1905 -0.0600
 3602TIP3    H132441   6.435   6.217   1.256 -1.5901 -0.3635  2.5062
 3602TIP3    H232442   6.337   6.102   1.243 -0.3152 -1.4674  2.4328
 3603TIP3   OH232443   6.361   6.292   0.110  0.2747  1.0175  0.1426
 3603TIP3    H132444   6.439   6.283   0.056 -0.6418 -0.1039 -1.0662
 3603TIP3    H232445   6.329   6.381   0.092  2.0689  2.0736  1.8385
 3604TIP3   OH232446   2.581   0.048   7.959 -0.3129 -0.1543  0.1729
 3604TIP3    H132447   2.642   0.039   7.886  0.6518 -0.3776  0.9900
 3604TIP3    H232448   2.574   0.142   7.974 -0.4313 -0.1134 -0.1255
 3605TIP3   OH232449   5.276   0.300   7.625 -0.1230  0.5463 -0.1368
 3605TIP3    H132450   5.363   0.336   7.640  0.4009 -0.0318 -1.6689
 3605TIP3    H232451   5.286   0.205   7.639 -0.4562  0.4534 -0.4940
 3606TIP3   OH232452   0.713   5.502   6.473  0.6581 -0.6576  0.1063
 3606TIP3    H132453   0.644   5.455   6.519  0.2962 -0.2594 -0.0275
 3606TIP3    H232454   0.667   5.562   6.414  1.1174 -0.9225 -0.5344
 3607TIP3   OH232455   0.344   5.470   7.920  0.1167 -0.1080  0.5634
 3607TIP3    H132456   0.397   5.424   7.856  2.1787  1.4386  1.0265
 3607TIP3    H232457   0.335   5.558   7.885 -0.8294  0.0862  1.2543
 3608TIP3   OH232458   1.712   2.771   7.312  0.7314 -0.7254 -0.4909
 3608TIP3    H132459   1.695   2.680   7.335  4.0752 -1.4653 -0.4444
 3608TIP3    H232460   1.784   2.797   7.370 -0.4343  2.1480 -0.1727
 3609TIP3   OH232461   3.154   5.956   0.274  0.5200 -0.0249 -0.1484
 3609TIP3    H132462   3.238   5.920   0.246  0.1872  0.0133 -1.2186
 3609TIP3    H232463   3.110   5.981   0.193  1.1570  3.8560  0.4881
 3610TIP3   OH232464   6.653   4.702   0.529  0.1457  0.7993 -0.0930
 3610TIP3    H132465   6.736   4.670   0.566  0.3703 -0.2241 -1.4034
 3610TIP3    H232466   6.655   4.673   0.438 -2.4505 -0.8925  0.2800
 3611TIP3   OH232467   1.253   1.262   1.367  0.0514 -0.3104 -0.0101
 3611TIP3    H132468   1.207   1.257   1.283 -3.2852  0.9811  1.5402
 3611TIP3    H232469   1.244   1.174   1.405  0.6236 -0.5966 -0.5201
 3612TIP3   OH232470   1.332   6.231   7.104  0.2563 -0.5807  0.7128
 3612TIP3    H132471   1.362   6.282   7.029  1.3897 -0.3252  1.3217
 3612TIP3    H232472   1.250   6.272   7.130  0.6555  0.3119  0.5799
 3613TIP3   OH232473   3.019   3.241   1.512  0.1839 -0.2573  0.4065
 3613TIP3    H132474   3.114   3.235   1.514  0.4902  2.8053 -0.0737
 3613TIP3    H232475   2.996   3.291   1.591 -0.8235  0.5259 -0.3401
 3614TIP3   OH232476   1.340   4.933   7.295 -0.1242 -0.2279  0.0139
 3614TIP3    H132477   1.350   4.880   7.215  2.2060 -0.1523  0.1753
 3614TIP3    H232478   1.412   4.905   7.351 -0.7430  0.8943  1.4277
 3615TIP3   OH232479   5.839   6.499   7.105 -0.0870  0.3249  0.2078
 3615TIP3    H132480   5.777   6.536   7.168  1.1295  1.9613  0.5157
 3615TIP3    H232481   5.924   6.504   7.150  0.3933 -1.2041 -0.4688
 3616TIP3   OH232482   4.224   1.956   1.898 -0.3976  0.1314 -0.1784
 3616TIP3    H132483   4.130   1.966   1.886 -0.6504 -0.9393  0.7924
 3616TIP3    H232484   4.252   2.040   1.937 -0.8257  0.6815 -1.0251
 3617TIP3   OH232485   2.304   3.390   7.983 -0.4358 -0.2899  0.3894
 3617TIP3    H132486   2.331   3.475   8.018 -0.0210  0.1378 -0.8919
 3617TIP3    H232487   2.386   3.344   7.966 -0.6651 -1.2135  1.6274
 3618TIP3   OH232488   3.453   3.462   1.095 -0.3387  0.0702  0.0707
 3618TIP3    H132489   3.508   3.474   1.172  0.2395 -1.5024 -0.0595
 3618TIP3    H232490   3.514   3.436   1.026 -1.1141 -0.7647 -0.3194
 3619TIP3   OH232491   6.759   1.033   6.990 -0.6534 -0.4554  0.5759
 3619TIP3    H132492   6.838   1.074   7.026 -0.7598  2.1044 -1.8026
 3619TIP3    H232493   6.690   1.056   7.052 -0.3559  1.4885  0.2523
 3620TIP3   OH232494   5.424   5.905   8.205  0.0356 -0.3360 -0.0772
 3620TIP3    H132495   5.401   5.948   8.122 -1.6595 -0.8946  0.0645
 3620TIP3    H232496   5.510   5.866   8.188 -2.0730 -4.4062 -3.2765
 3621TIP3   OH232497   1.603   0.893   8.134 -0.3001 -0.0403  0.6724
 3621TIP3    H132498   1.680   0.871   8.186 -0.8386 -1.3077  0.9845
 3621TIP3    H232499   1.531   0.896   8.198 -0.2114  3.2972  0.7411
 3622TIP3   OH232500   3.612   4.611   7.323 -0.1106 -0.1404  0.5706
 3622TIP3    H132501   3.597   4.584   7.232 -1.5601  0.8444  0.4737
 3622TIP3    H232502   3.570   4.542   7.375 -0.5427  0.0148  0.4369
 3623TIP3   OH232503   4.948   1.877   0.906  0.1426 -0.0127  0.2488
 3623TIP3    H132504   4.868   1.925   0.925 -1.8962 -0.8499 -4.6337
 3623TIP3    H232505   4.931   1.788   0.939 -1.2939 -0.3265 -1.2125
 3624TIP3   OH232506   1.473   2.716   1.101 -0.5368 -0.4458 -0.0650
 3624TIP3    H132507   1.507   2.791   1.052 -0.9507  0.3881  0.8899
 3624TIP3    H232508   1.396   2.750   1.146 -1.0585 -1.6011 -0.0502
 3625TIP3   OH232509   5.050   1.171   2.224 -1.1901  0.5886  0.3308
 3625TIP3    H132510   4.994   1.111   2.176  0.2689 -0.4053 -0.2007
 3625TIP3    H232511   4.992   1.242   2.252 -2.4286  0.2948 -1.3608
 3626TIP3   OH232512   5.418   3.381   7.990  0.0563  0.0261  0.1557
 3626TIP3    H132513   5.454   3.308   7.940 -0.3594  1.7243 -2.9305
 3626TIP3    H232514   5.325   3.382   7.967  0.0549  1.4641  0.1245
 3627TIP3   OH232515   6.687   0.449   7.503  0.2431 -0.1873  0.2038
 3627TIP3    H132516   6.769   0.492   7.529 -0.3499  0.2276  1.4584
 3627TIP3    H232517   6.713   0.358   7.486  1.0696  0.0764 -0.0059
 3628TIP3   OH232518   4.362   4.644   7.899 -0.1898 -0.2997  0.8375
 3628TIP3    H132519   4.451   4.632   7.931  0.3746  1.0991 -0.0839
 3628TIP3    H232520   4.330   4.722   7.944 -0.7008 -0.4124  0.6799
 3629TIP3   OH232521   5.690   3.500   8.019 -0.2800  0.6580 -0.3854
 3629TIP3    H132522   5.717   3.555   7.946 -0.3419 -0.8011 -1.5497
 3629TIP3    H232523   5.595   3.493   8.010 -0.2707  0.3508 -0.2778
 3630TIP3   OH232524   6.615   0.956   2.510  0.2637  0.3839 -0.2578
 3630TIP3    H132525   6.663   0.966   2.428 -0.0426  0.5249 -0.4225
 3630TIP3    H232526   6.526   0.983   2.489  0.4244  1.4653  0.3863
 3631TIP3   OH232527   5.718   6.217   6.794  0.1829 -0.2810 -0.6888
 3631TIP3    H132528   5.654   6.223   6.723 -1.4528  0.1595  0.7557
 3631TIP3    H232529   5.726   6.123   6.810 -1.4310 -0.3174  0.1934
 3632TIP3   OH232530   2.393   3.329   0.255  0.4501 -0.2679 -0.3012
 3632TIP3    H132531   2.462   3.375   0.206 -0.1206 -0.9216 -1.7762
 3632TIP3    H232532   2.311   3.367   0.222  0.0632  0.0866  1.0057
 3633TIP3   OH232533   1.228   5.183   0.417 -0.3448  0.1509 -0.7576
 3633TIP3    H132534   1.133   5.192   0.415 -0.4578 -0.6543  0.3179
 3633TIP3    H232535   1.244   5.092   0.442  0.7031  0.4798 -0.1562
 3634TIP3   OH232536   6.364   0.284   8.102 -0.2037 -0.5119 -0.1490
 3634TIP3    H132537   6.364   0.189   8.108  3.5017 -0.5686  0.8909
 3634TIP3    H232538   6.381   0.314   8.191  0.6581  1.0189 -0.7890
 3635TIP3   OH232539   4.229   0.798   7.283 -0.5440 -0.4908  0.0153
 3635TIP3    H132540   4.221   0.892   7.300  1.2602 -0.2902  0.0356
 3635TIP3    H232541   4.254   0.760   7.367 -1.5837 -1.0570  0.0832
 3636TIP3   OH232542   6.278   4.211   1.686 -0.4836 -0.1333  0.4759
 3636TIP3    H132543   6.365   4.170   1.685 -0.9139 -1.0452 -0.5068
 3636TIP3    H232544   6.295   4.301   1.716  0.6098 -0.6960  1.6527
 3637TIP3   OH232545   5.282   3.337   8.296  0.5080  0.1161  0.1548
 3637TIP3    H132546   5.301   3.425   8.264  0.6442  0.3246  0.8067
 3637TIP3    H232547   5.186   3.334   8.302  0.4967  0.1732 -0.0002
 3638TIP3   OH232548   6.200   3.373   7.546 -0.2931 -0.3844 -0.3659
 3638TIP3    H132549   6.213   3.289   7.588  3.1940  0.0549 -0.2230
 3638TIP3    H232550   6.203   3.354   7.452  1.6122 -0.3836 -0.3434
 3639TIP3   OH232551   6.437   6.498   8.505  0.0207 -0.2824  0.0591
 3639TIP3    H132552   6.379   6.432   8.467 -0.8619 -0.1522  1.1330
 3639TIP3    H232553   6.483   6.536   8.430 -1.5409 -0.1445 -0.8826
 3640TIP3   OH232554   1.158   0.275   2.375 -0.3038 -0.0891 -0.1727
 3640TIP3    H132555   1.252   0.261   2.384 -0.4937 -0.9781  0.6346
 3640TIP3    H232556   1.121   0.241   2.457 -1.3978 -0.5193 -0.8247
 3641TIP3   OH232557   2.876   6.025   0.840  0.0841 -0.7378  1.0337
 3641TIP3    H132558   2.849   6.034   0.932 -0.9411 -0.8864  0.7577
 3641TIP3    H232559   2.802   6.059   0.790  0.5136 -0.9405  0.2487
 3642TIP3   OH232560   0.040   5.253   1.475  0.1054  0.3688 -0.3085
 3642TIP3    H132561  -0.021   5.180   1.464  0.9778 -0.3629 -0.4417
 3642TIP3    H232562   0.115   5.214   1.520 -0.2751  1.6546  1.5546
 3643TIP3   OH232563   2.138   6.701   2.611  0.0530  0.0140 -0.7555
 3643TIP3    H132564   2.211   6.728   2.666 -0.7721  1.3325 -0.2496
 3643TIP3    H232565   2.122   6.777   2.554 -1.1870 -0.0677 -0.5511
 3644TIP3   OH232566   3.494   4.914   0.306  0.0243 -0.0159 -0.1044
 3644TIP3    H132567   3.509   4.848   0.239 -0.1533 -2.0707  1.7435
 3644TIP3    H232568   3.488   4.997   0.259 -1.0611 -1.4668 -2.6701
 3645TIP3   OH232569   2.391   0.519   0.153  0.1853 -0.8189  0.1188
 3645TIP3    H132570   2.362   0.604   0.187 -0.7648 -1.1517  0.1876
 3645TIP3    H232571   2.486   0.528   0.142  0.0847  0.2846  0.0186
 3646TIP3   OH232572   3.144   2.625   6.147  0.3240  0.1225  0.1334
 3646TIP3    H132573   3.071   2.678   6.180 -1.0912 -1.0395 -0.9923
 3646TIP3    H232574   3.163   2.663   6.061  1.2972  0.6214  0.5547
 3647TIP3   OH232575   6.331   4.354   7.818 -0.7702 -0.1775  0.1300
 3647TIP3    H132576   6.422   4.369   7.793  0.3413 -1.9378  2.6256
 3647TIP3    H232577   6.298   4.292   7.753  0.8071 -1.7692  0.7670
 3648TIP3   OH232578   1.163   0.793   7.707  0.8857 -0.0215 -0.0032
 3648TIP3    H132579   1.143   0.859   7.641  1.7086 -0.3060 -0.5408
 3648TIP3    H232580   1.117   0.714   7.677  0.1680  0.1953  0.4733
 3649TIP3   OH232581   6.490   5.772   7.548  0.0324  0.3828 -0.0753
 3649TIP3    H132582   6.567   5.717   7.531  0.7628  1.2592  0.3365
 3649TIP3    H232583   6.523   5.843   7.602 -0.7897  1.5427 -1.0585
 3650TIP3   OH232584   0.274   3.715   7.573 -0.2953  0.8433  0.1170
 3650TIP3    H132585   0.314   3.766   7.643  1.5170 -0.1848 -0.1151
 3650TIP3    H232586   0.288   3.767   7.494  1.0646  0.2998 -0.0326
 3651TIP3   OH232587   6.457   1.406   7.957  0.9079  0.3620  0.0302
 3651TIP3    H132588   6.407   1.329   7.930  0.7180  1.1725 -2.1400
 3651TIP3    H232589   6.535   1.405   7.902  0.7906  1.8315 -0.2148
 3652TIP3   OH232590   4.873   3.630   7.281 -0.2127 -0.3672 -0.2520
 3652TIP3    H132591   4.865   3.574   7.203 -0.2712 -1.2968  0.4103
 3652TIP3    H232592   4.964   3.621   7.307  0.1836  1.0826 -1.0286
 3653TIP3   OH232593   2.646   5.339   6.491  0.8128  0.2533  0.7272
 3653TIP3    H132594   2.678   5.429   6.498  0.4687  0.7167 -2.1826
 3653TIP3    H232595   2.556   5.342   6.523 -0.6073  1.9928 -2.8604
 3654TIP3   OH232596   0.283   1.047   1.589 -0.2258 -0.2727 -0.1776
 3654TIP3    H132597   0.343   1.096   1.646 -0.5672 -0.9520  0.7860
 3654TIP3    H232598   0.229   0.996   1.649 -0.2116 -1.4636 -1.1302
 3655TIP3   OH232599   2.964   2.626   6.830  0.1537  0.9214 -0.3731
 3655TIP3    H132600   2.939   2.536   6.808  0.0585  0.9347 -0.3215
 3655TIP3    H232601   3.052   2.636   6.794  0.0824  0.8765 -0.5628
 3656TIP3   OH232602   4.605   4.623   0.956 -0.6956  0.0906  0.5816
 3656TIP3    H132603   4.577   4.544   0.910 -1.5120  0.0649  1.1167
 3656TIP3    H232604   4.663   4.590   1.025 -1.7905 -0.1360  1.4070
 3657TIP3   OH232605   5.860   0.903   0.935 -0.5346 -0.4998 -0.3543
 3657TIP3    H132606   5.828   0.961   1.004  0.7233  1.0606 -1.0344
 3657TIP3    H232607   5.932   0.854   0.976 -0.5283 -0.3922 -0.2361
 3658TIP3   OH232608   4.350   6.253   0.777  0.4632 -0.0265  0.1631
 3658TIP3    H132609   4.337   6.347   0.764  2.4887  0.5680  1.7788
 3658TIP3    H232610   4.269   6.223   0.817 -1.3654  0.3557 -2.9750
 3659TIP3   OH232611   5.013   4.341   7.125  0.2369  0.0977  0.4871
 3659TIP3    H132612   5.035   4.425   7.165 -0.5798  0.5178  0.0784
 3659TIP3    H232613   5.076   4.332   7.054 -0.6543  1.1469 -0.4806
 3660TIP3   OH232614   2.459   3.433   0.772  0.3179 -0.1546 -0.7725
 3660TIP3    H132615   2.429   3.500   0.710 -0.0930  0.2493 -0.1462
 3660TIP3    H232616   2.483   3.482   0.851  1.1104 -0.6381 -0.7009
 3661TIP3   OH232617   6.364   0.155   0.085 -0.2861  0.5038  0.3364
 3661TIP3    H132618   6.312   0.108   0.019 -0.7316 -1.4320  1.9457
 3661TIP3    H232619   6.320   0.239   0.095  0.2965  1.2236 -2.3872
 3662TIP3   OH232620   6.860   1.026   7.866  0.1069  0.0600 -0.2886
 3662TIP3    H132621   6.815   0.990   7.942 -0.0371 -1.3067 -0.9843
 3662TIP3    H232622   6.953   1.009   7.882  0.1234  0.2640 -0.1699
 3663TIP3   OH232623   0.047   3.013   8.065 -0.5747 -0.2210  0.1125
 3663TIP3    H132624   0.037   3.106   8.047  0.5901 -0.0423  0.2994
 3663TIP3    H232625   0.113   2.983   8.003 -0.6729 -0.8391  0.3001
 3664TIP3   OH232626   2.521   3.463   6.181  0.2274  0.0068  0.2623
 3664TIP3    H132627   2.567   3.390   6.222 -0.2756 -0.0496  0.7264
 3664TIP3    H232628   2.576   3.539   6.199  0.6423 -0.2163 -0.0394
 3665TIP3   OH232629   4.870   4.001   8.179  0.0734 -0.2887  0.3212
 3665TIP3    H132630   4.821   3.926   8.211 -0.3976  0.9208  2.5743
 3665TIP3    H232631   4.961   3.969   8.173 -0.3936 -1.5465 -0.6456
 3666TIP3   OH232632   4.152   3.701   0.584 -0.4930 -0.5467 -0.3408
 3666TIP3    H132633   4.155   3.731   0.493 -1.1220  0.3651 -0.0748
 3666TIP3    H232634   4.078   3.640   0.587 -0.7289 -0.2637 -0.3567
 3667TIP3   OH232635   6.178   1.957   7.303  0.2192  0.1295 -0.2349
 3667TIP3    H132636   6.168   1.999   7.388 -0.6470 -0.1357 -0.1961
 3667TIP3    H232637   6.161   2.025   7.239 -0.1758  0.0767 -0.1845
 3668TIP3   OH232638   0.878   4.887   0.905  0.0127  0.5409  0.0282
 3668TIP3    H132639   0.828   4.940   0.843  0.8338  0.0548 -1.0826
 3668TIP3    H232640   0.815   4.823   0.939 -0.1633  0.0235 -1.2486
 3669TIP3   OH232641   3.991   0.878   1.771  0.0193 -0.4600 -0.0367
 3669TIP3    H132642   3.897   0.891   1.774  0.1214  0.1907  0.5160
 3669TIP3    H232643   4.011   0.827   1.850  0.1976 -0.1211  0.1400
 3670TIP3   OH232644   3.957   5.814   0.586 -0.0603 -0.1371 -0.4171
 3670TIP3    H132645   4.005   5.854   0.659 -1.1139  0.3241  0.0448
 3670TIP3    H232646   3.975   5.871   0.511 -0.7530  0.6588  0.0100
 3671TIP3   OH232647   5.563   1.601   0.830 -0.0428  0.3400  0.2486
 3671TIP3    H132648   5.630   1.552   0.782  1.2314  0.7298  1.5561
 3671TIP3    H232649   5.590   1.596   0.922 -2.6637 -0.7624  1.0456
 3672TIP3   OH232650   6.178   1.377   8.550 -0.0802  0.2417 -0.2294
 3672TIP3    H132651   6.246   1.364   8.483 -0.2447 -0.6118 -0.2445
 3672TIP3    H232652   6.187   1.302   8.609  1.2068  1.8665  1.7556
 3673TIP3   OH232653   2.037   6.846   8.589  0.1068 -0.2134 -0.9420
 3673TIP3    H132654   2.119   6.825   8.545 -0.4861 -2.2782 -1.1763
 3673TIP3    H232655   2.057   6.843   8.682 -0.1733 -3.2708 -0.9007
 3674TIP3   OH232656   2.589   4.070   1.791 -0.1347 -0.0646  0.1647
 3674TIP3    H132657   2.678   4.057   1.761  0.3051  1.3253  0.7626
 3674TIP3    H232658   2.598   4.105   1.880 -1.3096 -1.2183  0.7695
 3675TIP3   OH232659   5.714   6.080   8.054  0.3752 -0.3878 -0.7630
 3675TIP3    H132660   5.667   6.162   8.039  0.0385 -0.7994 -2.0606
 3675TIP3    H232661   5.763   6.095   8.135 -1.0801  0.4596 -0.0075
 3676TIP3   OH232662   6.702   1.252   7.883 -0.4915 -0.2321 -0.2527
 3676TIP3    H132663   6.739   1.299   7.958 -1.9980  0.2634  0.2265
 3676TIP3    H232664   6.774   1.199   7.850  0.7683  1.0666  0.2988
 3677TIP3   OH232665   2.240   4.055   8.623  0.2335 -0.0513  0.0732
 3677TIP3    H132666   2.258   3.967   8.654  1.1505 -1.0900 -3.0129
 3677TIP3    H232667   2.153   4.049   8.583  0.4863  0.3250 -0.5455
 3678TIP3   OH232668   4.880   2.063   1.499 -0.0383  0.0883  0.7299
 3678TIP3    H132669   4.904   1.978   1.536 -2.1711 -0.1198  1.8082
 3678TIP3    H232670   4.882   2.123   1.573  1.8933  1.1537 -0.1069
 3679TIP3   OH232671   6.279   1.277   2.271 -0.4351  0.0021 -0.4263
 3679TIP3    H132672   6.314   1.353   2.224 -0.7938  0.1724 -0.4175
 3679TIP3    H232673   6.201   1.310   2.316  0.5756  0.1711  1.3145
 3680TIP3   OH232674   6.872   2.416   8.080  0.3006  0.4946 -0.0717
 3680TIP3    H132675   6.944   2.472   8.107  0.9135  0.5977 -1.7914
 3680TIP3    H232676   6.794   2.461   8.111  0.8342  1.7581 -0.5006
 3681TIP3   OH232677   6.245   3.850   7.064  0.0781  0.2505  0.2345
 3681TIP3    H132678   6.255   3.940   7.033  2.4525 -0.2825 -0.8201
 3681TIP3    H232679   6.198   3.805   6.994  1.2036  0.1240 -0.4638
 3682TIP3   OH232680   4.397   5.252   1.508 -0.1652 -0.0988  0.0622
 3682TIP3    H132681   4.314   5.243   1.461 -0.7908 -0.9514  1.2680
 3682TIP3    H232682   4.458   5.195   1.462  0.3003  1.8721 -1.9156
 3683TIP3   OH232683   3.493   2.093   1.749 -0.2161  0.1660 -0.3466
 3683TIP3    H132684   3.413   2.109   1.798  0.5329 -0.2440  1.0766
 3683TIP3    H232685   3.563   2.101   1.814  0.7218 -1.7747 -1.0258
 3684TIP3   OH232686   4.798   2.395   0.473  0.7617 -0.3011  0.1011
 3684TIP3    H132687   4.837   2.480   0.490  0.1854  0.1770 -0.8576
 3684TIP3    H232688   4.817   2.378   0.380  0.7822 -1.1646  0.2520
 3685TIP3   OH232689   4.728   6.423   1.537 -0.1963 -0.2549  0.0606
 3685TIP3    H132690   4.792   6.374   1.589  0.3849 -0.5979 -0.9424
 3685TIP3    H232691   4.724   6.376   1.453 -0.3194  0.8735 -0.5888
 3686TIP3   OH232692   0.601   1.073   2.576  0.0225 -0.8496  0.0960
 3686TIP3    H132693   0.507   1.076   2.557 -0.3189 -2.3458  1.3564
 3686TIP3    H232694   0.610   1.004   2.641  1.8944 -0.0969  0.7012
 3687TIP3   OH232695   4.218   5.150   0.397  0.3702 -0.0672 -0.1526
 3687TIP3    H132696   4.160   5.182   0.466 -0.6827  0.5143 -1.2857
 3687TIP3    H232697   4.270   5.227   0.372  0.3648 -0.1428 -0.3959
 3688TIP3   OH232698   4.345   0.063   2.311  0.3023 -0.9894 -0.0265
 3688TIP3    H132699   4.258   0.031   2.285 -0.4302 -0.1929  1.3291
 3688TIP3    H232700   4.360   0.139   2.256 -0.7571  0.0441  1.0602
 3689TIP3   OH232701   3.287   5.221   1.386 -0.0189  1.0733 -0.0054
 3689TIP3    H132702   3.219   5.271   1.341 -1.2523  0.9799  1.6536
 3689TIP3    H232703   3.359   5.283   1.396 -0.3082  1.5478 -0.7408
 3690TIP3   OH232704   5.527   5.128   1.329  0.4582 -0.2430 -0.3110
 3690TIP3    H132705   5.461   5.170   1.275  0.1256  0.7905  0.8371
 3690TIP3    H232706   5.584   5.200   1.357  1.0017 -0.8482  0.1733
 3691TIP3   OH232707   2.278   6.204   1.526  0.6029 -0.0910 -0.2331
 3691TIP3    H132708   2.265   6.115   1.494  0.7599 -0.0110 -0.5250
 3691TIP3    H232709   2.317   6.251   1.452  0.3132  0.2768 -0.1575
 3692TIP3   OH232710   1.214   4.649   2.635 -0.5641  0.5616 -0.3378
 3692TIP3    H132711   1.208   4.555   2.651  0.2323  0.7414  1.2709
 3692TIP3    H232712   1.206   4.689   2.722 -2.0876  2.0780 -1.1103
 3693TIP3   OH232713   0.988   0.602   8.456 -0.2751  0.2886  0.1570
 3693TIP3    H132714   0.950   0.678   8.413  0.0621  0.6097  0.4111
 3693TIP3    H232715   1.017   0.545   8.385  0.0443  0.6940 -0.0399
 3694TIP3   OH232716   3.664   4.734   6.876  0.8857 -0.0769  0.4606
 3694TIP3    H132717   3.692   4.824   6.860  2.7459 -0.5913  0.6086
 3694TIP3    H232718   3.721   4.681   6.822  1.0148 -1.2704  1.7108
 3695TIP3   OH232719   5.237   0.838   1.806 -0.0823  0.1109 -0.0100
 3695TIP3    H132720   5.189   0.758   1.782 -0.9970  1.1933 -2.0589
 3695TIP3    H232721   5.327   0.821   1.779 -0.3616 -0.0905 -0.8535
 3696TIP3   OH232722   6.454   1.340   1.266  0.2867 -0.1925 -0.0969
 3696TIP3    H132723   6.451   1.389   1.184  0.5677  1.9582  1.1006
 3696TIP3    H232724   6.362   1.321   1.286  0.2703 -1.7361 -1.4060
 3697TIP3   OH232725   5.439   2.184   0.656  0.1786  0.4794 -0.1912
 3697TIP3    H132726   5.377   2.235   0.708  0.5858  0.9336 -0.1444
 3697TIP3    H232727   5.436   2.097   0.695  0.5625  0.8398  0.6743
 3698TIP3   OH232728   1.727   1.985   0.582 -0.3189 -0.0375 -0.3182
 3698TIP3    H132729   1.764   1.967   0.669 -0.9219  3.2270  0.7608
 3698TIP3    H232730   1.801   1.975   0.522  0.2379 -1.8265  0.5679
 3699TIP3   OH232731   5.077   3.242   1.789 -0.3567  0.3814 -0.8000
 3699TIP3    H132732   5.124   3.258   1.871 -1.7889  0.5549  0.0304
 3699TIP3    H232733   5.111   3.158   1.759  2.3261  1.6419 -1.6294
 3700TIP3   OH232734   1.628   5.502   8.189 -0.2985 -0.0556 -0.4975
 3700TIP3    H132735   1.544   5.456   8.193  0.5159 -1.5599  0.0159
 3700TIP3    H232736   1.614   5.582   8.240 -1.6540  0.1266 -1.1174
 3701TIP3   OH232737   3.446   3.611   0.314 -0.1432 -0.4708  0.3771
 3701TIP3    H132738   3.507   3.679   0.343 -0.7199 -0.1702  0.9213
 3701TIP3    H232739   3.409   3.646   0.233  1.2804 -1.1955 -0.6304
 3702TIP3   OH232740   2.429   2.107   2.983  0.3507 -0.0687  0.2622
 3702TIP3    H132741   2.471   2.187   2.951  0.0468 -1.0793 -3.1253
 3702TIP3    H232742   2.341   2.109   2.946 -0.2694 -1.1735  1.5814
 3703TIP3   OH232743   0.452   6.576   6.757  0.3366  0.2471 -0.2157
 3703TIP3    H132744   0.377   6.592   6.815  0.2343  0.4208 -0.3939
 3703TIP3    H232745   0.423   6.506   6.699  0.7958 -0.6287  0.5838
 3704TIP3   OH232746   3.445   2.414   7.019 -0.3456 -0.5897  0.3615
 3704TIP3    H132747   3.505   2.346   7.051  2.2298  0.9068 -1.0508
 3704TIP3    H232748   3.427   2.468   7.096  0.2286 -0.9889  0.7848
 3705TIP3   OH232749   4.297   0.279   7.662  0.6990 -0.2064  0.1738
 3705TIP3    H132750   4.250   0.319   7.735  1.6488 -1.2288  1.3909
 3705TIP3    H232751   4.382   0.323   7.660  0.9809 -0.7359  0.2112
 3706TIP3   OH232752   2.299   6.800   8.511 -0.2353 -0.1158 -0.3935
 3706TIP3    H132753   2.361   6.750   8.564  0.3987 -1.9506 -2.6880
 3706TIP3    H232754   2.354   6.860   8.461 -0.7068  0.8068  0.1817
 3707TIP3   OH232755   0.494   4.937   2.249  0.0054  0.0734 -0.9575
 3707TIP3    H132756   0.490   5.029   2.275 -0.9725  0.0211 -0.8986
 3707TIP3    H232757   0.521   4.939   2.157 -0.9198  0.4683 -1.2275
 3708TIP3   OH232758   3.034   5.143   7.592 -0.3090  0.2430 -0.0068
 3708TIP3    H132759   2.949   5.162   7.631 -0.8093  1.5004 -1.6386
 3708TIP3    H232760   3.016   5.073   7.529  0.8401 -3.2580  3.1816
 3709TIP3   OH232761   3.366   3.726   1.006  0.4241  0.2484 -0.1614
 3709TIP3    H132762   3.291   3.706   0.949  1.0552 -0.2613 -0.8349
 3709TIP3    H232763   3.398   3.640   1.034  0.5698  0.4745  0.3721
 3710TIP3   OH232764   1.768   6.569   7.678 -0.0972 -0.6546 -0.0449
 3710TIP3    H132765   1.821   6.648   7.688  1.7097 -1.7858 -0.2565
 3710TIP3    H232766   1.766   6.530   7.765 -0.7346 -0.5457 -0.0064
 3711TIP3   OH232767   4.874   1.027   7.556  0.1604  0.2338 -0.3609
 3711TIP3    H132768   4.783   1.047   7.579  0.2831  0.7159 -0.2948
 3711TIP3    H232769   4.903   0.969   7.627 -0.4277 -0.8437 -0.9567
 3712TIP3   OH232770   0.820   5.262   1.676  0.6189  0.5388 -0.5079
 3712TIP3    H132771   0.877   5.323   1.629  3.4581  0.0774  2.0582
 3712TIP3    H232772   0.849   5.175   1.650  1.4123  0.2911  1.0639
 3713TIP3   OH232773   5.241   6.732   1.626  0.2830  0.3243  0.4317
 3713TIP3    H132774   5.211   6.667   1.562  0.8865  1.2742 -0.8556
 3713TIP3    H232775   5.336   6.733   1.616  0.4175  0.3023  1.5531
 3714TIP3   OH232776   2.307   5.926   0.341  0.3640 -1.0282 -0.5315
 3714TIP3    H132777   2.378   5.937   0.405  1.0675 -2.3885 -1.0383
 3714TIP3    H232778   2.227   5.933   0.392  0.9129 -1.9354  0.4812
 3715TIP3   OH232779   6.486   2.537   0.770 -0.5509  0.2198  0.9004
 3715TIP3    H132780   6.490   2.627   0.739 -1.9063 -0.1498 -0.4925
 3715TIP3    H232781   6.574   2.519   0.805 -0.6992  2.5366  2.6594
 3716TIP3   OH232782   3.692   6.698   7.588  0.7204 -0.5811  0.4916
 3716TIP3    H132783   3.761   6.748   7.631  2.3804 -1.9916 -0.3875
 3716TIP3    H232784   3.658   6.640   7.656 -2.2825  2.5355  1.9555
 3717TIP3   OH232785   1.604   0.416   0.704  0.0573 -0.2578 -0.2440
 3717TIP3    H132786   1.650   0.483   0.754 -1.9310  1.2045 -0.2206
 3717TIP3    H232787   1.670   0.380   0.645  1.3062  1.4490  0.0293
 3718TIP3   OH232788   6.176   0.624   1.239 -0.7668  0.0638 -0.2124
 3718TIP3    H132789   6.181   0.720   1.243  0.6751 -0.0201  0.5350
 3718TIP3    H232790   6.107   0.607   1.175 -0.5325  1.5965 -0.9185
 3719TIP3   OH232791   5.566   0.829   6.856  0.0839 -0.2140  0.3919
 3719TIP3    H132792   5.612   0.789   6.930  0.2678  1.5335  1.2827
 3719TIP3    H232793   5.634   0.846   6.791 -0.0848 -1.7892 -0.2348
 3720TIP3   OH232794   3.038   1.564   0.792  0.3932  0.4664  0.8923
 3720TIP3    H132795   3.020   1.480   0.836 -0.7334  0.1311 -0.1541
 3720TIP3    H232796   2.999   1.630   0.850 -2.0613 -0.0531 -0.0456
 3721TIP3   OH232797   3.901   2.065   1.462  0.3912 -0.3169  0.0868
 3721TIP3    H132798   3.823   2.095   1.509  0.5834  1.3673 -0.6051
 3721TIP3    H232799   3.971   2.068   1.527  0.2267 -0.0982  0.2553
 3722TIP3   OH232800   2.775   5.104   6.219 -0.1785 -0.8599  0.8548
 3722TIP3    H132801   2.801   5.162   6.291 -1.4254 -1.0118  1.4685
 3722TIP3    H232802   2.690   5.138   6.191  1.3485  0.6959 -2.2477
 3723TIP3   OH232803   0.748   1.253   0.693 -0.3705 -0.4852 -0.0799
 3723TIP3    H132804   0.769   1.299   0.774 -0.8756  1.4889 -0.9979
 3723TIP3    H232805   0.653   1.264   0.683 -0.3246 -0.7493 -0.9045
 3724TIP3   OH232806   2.052   3.042   8.461 -0.4598  0.9230  0.7954
 3724TIP3    H132807   2.084   3.129   8.487 -1.3775  0.4888  3.7706
 3724TIP3    H232808   2.071   2.986   8.536  0.1005 -1.5024 -1.0460
 3725TIP3   OH232809   5.134   2.407   8.641 -0.4651 -0.2711  0.2578
 3725TIP3    H132810   5.148   2.329   8.588 -0.7050 -1.5939  2.0843
 3725TIP3    H232811   5.153   2.480   8.581  0.8033 -1.7160 -1.1793
 3726TIP3   OH232812   0.017   3.402   8.584 -0.0027 -0.1228 -0.1576
 3726TIP3    H132813   0.001   3.428   8.674 -1.3795  2.5908 -1.0785
 3726TIP3    H232814   0.112   3.409   8.573  0.0237  1.0882  0.6615
 3727TIP3   OH232815   2.700   2.414   7.835 -0.1845 -0.0467  0.6772
 3727TIP3    H132816   2.649   2.353   7.782 -0.0754 -1.0779  1.7224
 3727TIP3    H232817   2.644   2.492   7.841 -1.2421 -0.8108  1.0331
 3728TIP3   OH232818   6.789   2.392   0.442  0.2155  0.0465  0.0161
 3728TIP3    H132819   6.761   2.438   0.521 -1.7413  1.9341 -1.6544
 3728TIP3    H232820   6.711   2.348   0.410  1.4379 -2.3150  0.1107
 3729TIP3   OH232821   2.846   5.090   0.996 -0.1560  0.7345 -0.0593
 3729TIP3    H132822   2.893   5.149   1.055  0.9032 -1.0813  1.0246
 3729TIP3    H232823   2.790   5.038   1.053  0.0922 -0.3528 -0.7679
 3730TIP3   OH232824   4.982   6.721   7.707  0.7228 -0.5703 -0.0179
 3730TIP3    H132825   5.027   6.737   7.790  1.3081  1.0144 -0.5856
 3730TIP3    H232826   4.897   6.763   7.719  1.4004  1.0978 -0.7231
 3731TIP3   OH232827   2.085   0.492   0.539 -0.0759 -0.0540  0.2969
 3731TIP3    H132828   2.127   0.550   0.476 -1.5521 -0.5013 -1.1511
 3731TIP3    H232829   2.158   0.458   0.592  1.0882  1.1050 -0.4922
 3732TIP3   OH232830   1.876   1.721   7.452 -0.5069 -0.0156 -0.1842
 3732TIP3    H132831   1.949   1.706   7.511  0.8279 -0.7251 -1.9279
 3732TIP3    H232832   1.800   1.686   7.499  0.7584 -2.1182  0.4540
 3733TIP3   OH232833   4.570   1.236   1.449  0.3193 -0.0684 -0.1958
 3733TIP3    H132834   4.657   1.265   1.422 -0.3307  0.3195 -2.0004
 3733TIP3    H232835   4.513   1.256   1.375 -1.1627 -1.1120  0.5908
 3734TIP3   OH232836   2.267   3.806   0.062 -0.1043  0.2167 -0.7524
 3734TIP3    H132837   2.239   3.715   0.078 -0.3139  0.0844 -1.8413
 3734TIP3    H232838   2.348   3.797   0.012 -0.4097  0.6327 -1.3283
 3735TIP3   OH232839   4.920   3.367   0.544  0.5087  1.2202 -0.0317
 3735TIP3    H132840   4.868   3.443   0.517 -1.4117  0.3015  0.9519
 3735TIP3    H232841   4.900   3.355   0.637 -0.0490 -1.1015 -0.4005
 3736TIP3   OH232842   3.499   3.917   0.557 -0.4626 -0.2019 -0.1184
 3736TIP3    H132843   3.573   3.858   0.544 -0.0043 -0.2763  2.3953
 3736TIP3    H232844   3.424   3.858   0.569 -0.7318 -0.1467 -1.3613
 3737TIP3   OH232845   5.930   5.382   1.468 -0.1071  0.5499  0.0082
 3737TIP3    H132846   5.951   5.294   1.438 -1.8159 -0.0328  0.4034
 3737TIP3    H232847   5.835   5.389   1.459 -0.6807  0.7027  4.1113
 3738TIP3   OH232848   6.874   1.318   8.574  0.8154  0.1405 -0.6549
 3738TIP3    H132849   6.871   1.363   8.490 -0.2274 -1.0648 -1.2938
 3738TIP3    H232850   6.968   1.301   8.589  1.0591  0.9010 -1.2569
 3739TIP3   OH232851   4.206   5.584   7.357 -0.3908 -0.1557  0.1310
 3739TIP3    H132852   4.221   5.504   7.307 -0.3453  0.1868 -0.4147
 3739TIP3    H232853   4.244   5.653   7.302 -0.6174  0.2626  0.5001
 3740TIP3   OH232854   3.597   3.106   0.173  0.6431  0.2036 -0.1126
 3740TIP3    H132855   3.562   3.096   0.261  1.9820 -0.6802  0.3334
 3740TIP3    H232856   3.656   3.181   0.179  2.9746 -1.5813  0.5086
 3741TIP3   OH232857   0.149   4.305   1.588  0.4126 -0.0327  0.6904
 3741TIP3    H132858   0.093   4.381   1.603  1.0358  0.5321  0.1698
 3741TIP3    H232859   0.237   4.340   1.579  0.3896 -0.4853 -2.2627
 3742TIP3   OH232860   2.256   3.708   0.384  0.3104 -0.4833  0.3217
 3742TIP3    H132861   2.281   3.631   0.334  0.5075 -0.8469  0.9661
 3742TIP3    H232862   2.191   3.753   0.330 -0.4262 -1.5442  0.3018
 3743TIP3   OH232863   6.488   0.987   7.170 -0.0567 -0.5423 -0.0564
 3743TIP3    H132864   6.487   1.028   7.083 -1.7152  0.9403  0.5944
 3743TIP3    H232865   6.485   0.893   7.152  0.1804 -0.2885 -1.5889
 3744TIP3   OH232866   1.964   2.976   1.242 -0.5268 -0.0827  0.4014
 3744TIP3    H132867   1.898   3.040   1.216 -0.1580  0.2429  0.2678
 3744TIP3    H232868   2.019   2.965   1.165 -0.1498 -0.0118  0.6589
 3745TIP3   OH232869   2.850   4.600   1.892  0.0187 -0.3822 -0.1472
 3745TIP3    H132870   2.806   4.625   1.973  0.8822 -1.5750  0.7296
 3745TIP3    H232871   2.933   4.561   1.920  0.5602 -0.3820 -1.6303
 3746TIP3   OH232872   2.261   5.469   0.039 -0.0629  0.4664 -0.4442
 3746TIP3    H132873   2.250   5.550   0.089 -3.5548 -0.4054  0.4897
 3746TIP3    H232874   2.220   5.487  -0.045  1.0163  0.2648 -1.0295
 3747TIP3   OH232875   4.889   5.272   2.479  0.3597  0.5309  0.0064
 3747TIP3    H132876   4.835   5.231   2.546 -1.2516  0.1333 -1.4659
 3747TIP3    H232877   4.976   5.276   2.518  0.0988 -2.2247  1.0727
 3748TIP3   OH232878   0.389   4.275   8.363 -0.0575  0.5623 -0.0801
 3748TIP3    H132879   0.348   4.340   8.421  0.7808 -0.4822  1.7835
 3748TIP3    H232880   0.454   4.325   8.313 -0.3486  1.3958  0.3503
 3749TIP3   OH232881   5.785   6.900   7.116  0.1930 -0.0412  0.0319
 3749TIP3    H132882   5.792   6.839   7.189 -0.5644  0.4570  0.5356
 3749TIP3    H232883   5.841   6.973   7.141 -2.6374  1.7100  1.7790
 3750TIP3   OH232884   5.610   1.862   0.515 -0.3901 -0.1085 -0.4235
 3750TIP3    H132885   5.524   1.906   0.515 -1.9537 -2.9247 -0.4275
 3750TIP3    H232886   5.635   1.861   0.608  0.1696  1.5634 -0.5195
 3751TIP3   OH232887   5.433   6.624   0.603  0.0496 -0.6459  0.1212
 3751TIP3    H132888   5.365   6.685   0.633  0.6455 -1.2464  3.0026
 3751TIP3    H232889   5.400   6.538   0.629  1.0345 -1.1511 -0.2521
 3752TIP3   OH232890   4.358   0.409   7.911  0.2533 -0.1528 -0.1321
 3752TIP3    H132891   4.400   0.494   7.924 -0.2704 -0.0650  1.1533
 3752TIP3    H232892   4.269   0.431   7.883 -0.2097 -0.2152  1.1885
 3753TIP3   OH232893   4.499   2.863   2.487  0.0139 -0.5044 -0.7907
 3753TIP3    H132894   4.592   2.873   2.508 -0.1660 -0.9426  0.2560
 3753TIP3    H232895   4.494   2.781   2.438 -0.2437 -2.4360  2.2441
 3754TIP3   OH232896   4.353   0.781   6.827 -0.2359 -0.5060 -0.5230
 3754TIP3    H132897   4.364   0.745   6.915  0.2484  0.9480  0.0505
 3754TIP3    H232898   4.292   0.722   6.783  0.4946 -1.9580  0.3624
 3755TIP3   OH232899   1.085   5.481   7.700 -0.4397 -0.0248 -0.3431
 3755TIP3    H132900   1.095   5.472   7.605 -2.3005  2.9757 -0.9525
 3755TIP3    H232901   1.149   5.548   7.725  0.3964 -1.1470  0.6837
 3756TIP3   OH232902   0.146   6.883   1.733 -0.2337  0.4231 -0.6177
 3756TIP3    H132903   0.055   6.910   1.728 -0.8479 -1.5920 -1.3914
 3756TIP3    H232904   0.147   6.813   1.799  0.6394  0.0837 -0.9666
 3757TIP3   OH232905   1.606   2.235   0.876  0.0188 -0.0804 -0.3863
 3757TIP3    H132906   1.537   2.169   0.871 -0.1478 -0.1377  1.7645
 3757TIP3    H232907   1.580   2.290   0.950  1.7559  0.5225 -0.1954
 3758TIP3   OH232908   3.632   3.795   7.893 -0.2877  0.0587  0.3063
 3758TIP3    H132909   3.597   3.883   7.877  2.6407  1.5567  1.3060
 3758TIP3    H232910   3.676   3.771   7.811  0.2551  0.2603  0.5306
 3759TIP3   OH232911   4.828   2.349   6.753  0.1580 -0.0257 -0.0197
 3759TIP3    H132912   4.746   2.352   6.803  0.0476 -1.8650 -0.0102
 3759TIP3    H232913   4.860   2.260   6.766  1.3903  0.2122 -1.2502
 3760TIP3   OH232914   3.488   1.272   7.213 -0.0889  0.1870  0.2255
 3760TIP3    H132915   3.466   1.245   7.124  0.9719  2.1408 -0.6808
 3760TIP3    H232916   3.405   1.305   7.249 -0.2255  0.7162 -0.5534
 3761TIP3   OH232917   2.988   6.383   7.881  0.5649  0.2169 -0.8261
 3761TIP3    H132918   3.066   6.359   7.932  1.3194  1.7157 -1.2300
 3761TIP3    H232919   2.926   6.312   7.899  1.4256 -0.1946  0.7917
 3762TIP3   OH232920   6.253   3.783   8.391  0.8487 -0.0418  0.3114
 3762TIP3    H132921   6.219   3.696   8.414  0.3080 -0.4660 -1.8675
 3762TIP3    H232922   6.339   3.787   8.433 -0.8226  0.1773  4.1173
 3763TIP3   OH232923   3.126   5.307   0.887 -0.0867  0.0855  0.4683
 3763TIP3    H132924   3.193   5.306   0.955 -1.5079 -1.8661  1.9414
 3763TIP3    H232925   3.127   5.219   0.850 -1.9750 -0.0948  0.7282
 3764TIP3   OH232926   0.612   5.567   7.941  0.2655 -0.2694  0.0431
 3764TIP3    H132927   0.583   5.556   8.032 -1.6550 -0.3116 -0.5296
 3764TIP3    H232928   0.691   5.514   7.935  1.1112  0.6501  1.9786
 3765TIP3   OH232929   1.272   1.865   8.175 -0.5551  0.1048 -0.0791
 3765TIP3    H132930   1.258   1.901   8.263  0.7354  1.7815 -0.5076
 3765TIP3    H232931   1.268   1.941   8.117 -0.5779 -0.8623 -1.3907
 3766TIP3   OH232932   1.157   6.787   8.089 -0.1599  0.4686  0.3506
 3766TIP3    H132933   1.244   6.826   8.090 -0.5877  1.4662  1.6034
 3766TIP3    H232934   1.172   6.694   8.106  0.9054 -0.0705 -2.9644
 3767TIP3   OH232935   2.409   4.408   7.242  0.8092 -0.4393  0.4444
 3767TIP3    H132936   2.369   4.485   7.202 -1.8050 -2.7760 -1.8345
 3767TIP3    H232937   2.352   4.386   7.316  0.1853 -1.4233 -0.3003
 3768TIP3   OH232938   4.690   3.907   1.464 -0.4322 -0.0007  0.3630
 3768TIP3    H132939   4.605   3.915   1.508 -1.9160  0.1461 -2.3210
 3768TIP3    H232940   4.673   3.935   1.374  2.7272  0.9861 -0.0399
 3769TIP3   OH232941   4.938   2.632   0.444  0.2769 -0.3270  0.0420
 3769TIP3    H132942   4.899   2.674   0.368 -0.4110 -0.5643  0.2528
 3769TIP3    H232943   4.968   2.704   0.499  1.6034 -0.1693 -0.8621
 3770TIP3   OH232944   3.480   3.626   8.023 -0.1315  0.1187 -0.4639
 3770TIP3    H132945   3.558   3.677   8.004  0.0115 -0.2055 -0.7548
 3770TIP3    H232946   3.410   3.670   7.973 -0.6633  1.8542  1.6372
 3771TIP3   OH232947   2.911   1.156   0.699 -0.1485 -0.2169  0.4194
 3771TIP3    H132948   2.884   1.065   0.715 -0.4821 -0.0810  0.6409
 3771TIP3    H232949   2.839   1.209   0.733 -0.6058  0.1071 -0.9976
 3772TIP3   OH232950   3.709   4.182   0.943  0.1364 -0.7288 -0.3247
 3772TIP3    H132951   3.705   4.093   0.907 -0.6862 -1.2070  0.8744
 3772TIP3    H232952   3.617   4.205   0.958  0.4172 -0.3308  0.8948
 3773TIP3   OH232953   6.498   6.223   0.335  0.1979  0.0907  0.0488
 3773TIP3    H132954   6.428   6.256   0.280 -0.1548  3.6887  2.3453
 3773TIP3    H232955   6.461   6.144   0.376 -0.7013 -0.7370 -2.1935
 3774TIP3   OH232956   4.462   5.568   7.701 -0.1603  0.2975  0.6299
 3774TIP3    H132957   4.554   5.545   7.689  0.1110  1.7146 -0.2394
 3774TIP3    H232958   4.463   5.645   7.758 -0.6413  1.4094 -0.7718
 3775TIP3   OH232959   6.031   1.950   8.356 -0.1407 -0.4026 -0.0720
 3775TIP3    H132960   6.119   1.986   8.343 -0.3269  0.3129  0.5568
 3775TIP3    H232961   6.009   1.975   8.446 -0.2962 -2.0730  0.3879
 3776TIP3   OH232962   3.158   5.418   8.226  0.3286 -0.3317 -0.1138
 3776TIP3    H132963   3.180   5.365   8.149  0.2328 -0.8288  0.1974
 3776TIP3    H232964   3.167   5.358   8.300  3.0781  0.7825  0.5984
 3777TIP3   OH232965   4.073   0.455   8.583  0.6511  0.2276 -0.2087
 3777TIP3    H132966   4.113   0.393   8.522 -0.3392  0.7470 -1.4326
 3777TIP3    H232967   4.106   0.429   8.669  1.4165 -1.0588 -0.8605
 3778TIP3   OH232968   3.621   4.902   6.139 -0.1988 -0.0250 -0.1854
 3778TIP3    H132969   3.690   4.909   6.206 -1.2145 -1.0227  1.0291
 3778TIP3    H232970   3.661   4.850   6.069  0.5676  0.1657  0.1008
 3779TIP3   OH232971   4.983   0.613   1.202  0.1756 -0.3349  0.1632
 3779TIP3    H132972   5.012   0.543   1.260 -1.7950  0.2901  2.0559
 3779TIP3    H232973   5.019   0.693   1.241  1.0038 -0.1218 -1.0075
 3780TIP3   OH232974   4.069   2.233   0.631 -0.9912  0.1864 -0.0648
 3780TIP3    H132975   4.117   2.306   0.669 -1.1481  0.1688  0.1713
 3780TIP3    H232976   4.005   2.208   0.698 -0.3605 -0.7371  0.2194
 3781TIP3   OH232977   1.143   4.400   8.287 -0.2200 -0.2105 -0.0368
 3781TIP3    H132978   1.213   4.367   8.343  0.0078  0.9033  0.3759
 3781TIP3    H232979   1.161   4.364   8.201  0.5871 -0.3310  0.1746
 3782TIP3   OH232980   0.961   6.300   7.521  0.6133 -0.3353  0.5905
 3782TIP3    H132981   0.991   6.325   7.608 -2.1150  0.4197  1.3934
 3782TIP3    H232982   1.038   6.260   7.480  3.2171  3.0194  1.7808
 3783TIP3   OH232983   6.444   2.205   1.220 -0.1397  0.0177 -0.0313
 3783TIP3    H132984   6.447   2.291   1.261  4.0825  0.5767 -1.0456
 3783TIP3    H232985   6.428   2.144   1.293  0.8589  1.4131  1.4320
 3784TIP3   OH232986   3.017   6.726   0.006  0.6796  0.0504 -0.3562
 3784TIP3    H132987   3.030   6.632   0.008  0.8019  0.0723 -0.0934
 3784TIP3    H232988   3.025   6.754   0.097  0.7202  0.3243 -0.4416
 3785TIP3   OH232989   2.750   3.615   0.286  0.0181  0.4168 -0.1710
 3785TIP3    H132990   2.837   3.614   0.246  0.3686 -0.7314  0.5986
 3785TIP3    H232991   2.699   3.673   0.229  0.5182 -1.0807 -2.2448
 3786TIP3   OH232992   3.074   3.876   1.139  0.7695 -0.0296  0.5407
 3786TIP3    H132993   3.129   3.804   1.171  0.3876 -1.0743 -1.0358
 3786TIP3    H232994   3.005   3.833   1.088  0.1291  1.4273  0.1124
 3787TIP3   OH232995   2.211   1.410   0.321  0.4633  0.4342 -0.1554
 3787TIP3    H132996   2.169   1.358   0.390 -0.5336  0.0350 -1.0542
 3787TIP3    H232997   2.296   1.367   0.309  0.1242 -0.2810 -0.0700
 3788TIP3   OH232998   3.199   2.284   7.409  0.7146 -0.2190  0.1709
 3788TIP3    H132999   3.169   2.370   7.380  0.0828 -0.3698  0.3622
 3788TIP3    H233000   3.245   2.247   7.334 -1.2218 -0.7694 -0.8101
 3789TIP3   OH233001   6.020   5.993   6.733  0.1490  0.6539  0.2188
 3789TIP3    H133002   5.970   6.049   6.673 -1.9447  0.1340  1.3483
 3789TIP3    H233003   6.069   6.054   6.787  0.8884  1.1926 -1.0083
 3790TIP3   OH233004   2.131   3.106   1.409  0.3728 -0.3211  0.3135
 3790TIP3    H133005   2.081   3.172   1.457 -0.1219 -0.0043 -0.6032
 3790TIP3    H233006   2.068   3.067   1.348  1.0845 -0.3537 -0.4300
 3791TIP3   OH233007   5.701   5.712   6.665  0.0309 -0.0111  0.0634
 3791TIP3    H133008   5.670   5.701   6.575  0.1938  0.3252 -0.0355
 3791TIP3    H233009   5.625   5.746   6.713  0.6443  2.4570 -0.5393
 3792TIP3   OH233010   6.434   5.941   0.377 -0.5256  0.5171 -0.8918
 3792TIP3    H133011   6.378   5.870   0.407 -0.3245  0.8141  0.2367
 3792TIP3    H233012   6.521   5.919   0.409  0.0766 -0.0447 -2.8111
 3793TIP3   OH233013   6.058   1.726   6.567  0.0033 -0.3470  0.2264
 3793TIP3    H133014   6.127   1.659   6.571  0.9407  0.6438  1.2166
 3793TIP3    H233015   6.044   1.740   6.473 -1.1145 -2.7877 -0.0629
 3794TIP3   OH233016   6.722   5.589   6.563 -0.2229 -0.0821 -0.0155
 3794TIP3    H133017   6.779   5.659   6.592 -0.2084  0.0021 -0.2456
 3794TIP3    H233018   6.674   5.625   6.488  1.4302 -1.0174 -1.6288
 3795TIP3   OH233019   4.205   4.089   6.999 -0.2669 -0.3791 -0.0160
 3795TIP3    H133020   4.250   4.155   6.946  1.4120 -1.3973  0.0681
 3795TIP3    H233021   4.114   4.095   6.972  0.0746  1.0538 -0.9665
 3796TIP3   OH233022   4.590   0.965   1.639 -0.1856  0.5845 -0.0193
 3796TIP3    H133023   4.667   0.912   1.618  0.9509  1.9177  0.6281
 3796TIP3    H233024   4.591   1.035   1.574  0.8003  2.1853  1.6065
 3797TIP3   OH233025   4.027   1.528   1.897  0.5194 -0.0299  0.0208
 3797TIP3    H133026   3.937   1.537   1.930 -0.9138 -1.8624 -2.8988
 3797TIP3    H233027   4.051   1.438   1.919  1.0603 -0.0110 -0.4751
 3798TIP3   OH233028   1.621   1.282   0.101 -0.0423 -0.2729  0.0310
 3798TIP3    H133029   1.582   1.330   0.174 -0.8078  1.3064 -1.3516
 3798TIP3    H233030   1.714   1.303   0.106  0.4401 -2.4765  2.1749
 3799TIP3   OH233031   6.501   4.752   8.249  0.3248  0.0957  0.1083
 3799TIP3    H133032   6.444   4.790   8.315  1.4572  0.3783  0.9535
 3799TIP3    H233033   6.564   4.821   8.229 -0.3797  0.2662 -1.7903
 3800TIP3   OH233034   4.955   4.161   1.407  0.1158 -0.4826  0.1246
 3800TIP3    H133035   5.015   4.190   1.339 -0.7962 -0.2599 -0.6051
 3800TIP3    H233036   4.917   4.241   1.442  1.1663 -0.5456  1.4718
 3801TIP3   OH233037   0.490   6.724   8.310  0.4790 -0.5879  0.7120
 3801TIP3    H133038   0.451   6.785   8.247  0.8841 -0.2408  0.7940
 3801TIP3    H233039   0.479   6.767   8.395  1.8192 -0.0600  0.6505
 3802TIP3   OH233040   6.409   3.555   7.365  0.5316  0.0809 -0.2035
 3802TIP3    H133041   6.337   3.497   7.339  0.9162  0.1331 -1.4330
 3802TIP3    H233042   6.417   3.618   7.293  1.8566  0.0247 -0.1277
 3803TIP3   OH233043   1.607   4.164   8.582  0.4063  0.6975  0.3240
 3803TIP3    H133044   1.649   4.250   8.582  2.0231  0.0737  3.9377
 3803TIP3    H233045   1.642   4.120   8.659 -0.7214 -3.0881 -1.1032
 3804TIP3   OH233046   6.362   4.387   1.859 -0.3591 -0.3147  0.2975
 3804TIP3    H133047   6.304   4.391   1.935 -0.2480 -0.5002  0.3931
 3804TIP3    H233048   6.443   4.347   1.893 -0.2143 -0.1569  0.1425
 3805TIP3   OH233049   1.022   6.637   7.490  0.2025 -0.8117 -0.1756
 3805TIP3    H133050   1.011   6.636   7.585 -0.2549  0.1448 -0.2120
 3805TIP3    H233051   1.083   6.565   7.472  2.1396  0.4495  1.0686
 3806TIP3   OH233052   4.186   6.306   1.500 -0.6462 -0.9253  0.2978
 3806TIP3    H133053   4.134   6.379   1.531 -1.5498 -1.1762 -0.5663
 3806TIP3    H233054   4.122   6.244   1.465  0.2196 -1.2222 -0.8335
 3807TIP3   OH233055   5.064   4.801   8.379  0.5549  0.1438 -0.0415
 3807TIP3    H133056   5.133   4.741   8.408  0.5266  1.8710  4.4448
 3807TIP3    H233057   4.984   4.767   8.421 -0.3472  0.9115 -1.0823
 3808TIP3   OH233058   1.536   4.659   1.717 -0.0404 -0.1363  0.9074
 3808TIP3    H133059   1.594   4.612   1.657 -0.5591  1.8468 -1.2933
 3808TIP3    H233060   1.454   4.608   1.716 -0.1274  0.0153 -0.2892
 3809TIP3   OH233061   1.824   2.393   2.065  0.3334 -0.1413  0.1488
 3809TIP3    H133062   1.839   2.329   1.995 -0.0557  1.7497 -1.7684
 3809TIP3    H233063   1.796   2.340   2.140 -1.1815 -2.1566 -1.6991
 3810TIP3   OH233064   5.229   4.165   2.829 -0.1239 -0.5404  0.6582
 3810TIP3    H133065   5.262   4.096   2.772  1.9648  1.7240 -1.1123
 3810TIP3    H233066   5.308   4.209   2.861 -1.3230  1.8040  0.6505
 3811TIP3   OH233067   4.404   2.064   7.206 -0.3852  0.0670  0.3411
 3811TIP3    H133068   4.460   2.107   7.141 -0.5652  0.7631  0.6297
 3811TIP3    H233069   4.315   2.088   7.180 -0.5249 -0.5963  0.1920
 3812TIP3   OH233070   4.377   1.649   1.076 -0.2535 -0.3484  0.0750
 3812TIP3    H133071   4.444   1.619   1.014  0.0297 -2.6617  1.4149
 3812TIP3    H233072   4.425   1.698   1.142 -0.4372  1.2974 -0.9545
 3813TIP3   OH233073   0.139   2.645   8.196 -0.1863 -0.0065  0.1647
 3813TIP3    H133074   0.123   2.580   8.265 -0.7181 -0.5622 -0.4670
 3813TIP3    H233075   0.092   2.723   8.226 -0.0866 -0.1170  0.6177
 3814TIP3   OH233076   6.326   5.527   1.264 -0.2246  0.1789 -0.1182
 3814TIP3    H133077   6.293   5.574   1.188 -1.5314 -1.6948 -0.7610
 3814TIP3    H233078   6.257   5.465   1.287  1.1280 -0.9645  1.1037
 3815TIP3   OH233079   1.140   2.356   7.205  0.6216  0.2191 -0.2336
 3815TIP3    H133080   1.137   2.352   7.110  0.9060  2.2590 -0.3721
 3815TIP3    H233081   1.054   2.389   7.231  1.2869  1.8789  0.0031
 3816TIP3   OH233082   1.436   5.501   0.902  0.2344 -0.0284  0.0535
 3816TIP3    H133083   1.470   5.549   0.826  1.7201  1.2653  1.4559
 3816TIP3    H233084   1.384   5.565   0.949  0.7697 -0.2945  1.0311
 3817TIP3   OH233085   2.236   4.577   1.469 -0.1051 -0.8382  0.1666
 3817TIP3    H133086   2.232   4.597   1.563 -2.7033  0.0652 -0.0532
 3817TIP3    H233087   2.218   4.483   1.464 -0.5769 -0.7683  0.5350
 3818TIP3   OH233088   3.040   5.603   7.501  0.0575 -0.0780 -0.3169
 3818TIP3    H133089   3.120   5.619   7.551 -0.0237  2.6254 -0.9015
 3818TIP3    H233090   3.031   5.680   7.445 -2.0290 -1.1327 -1.5641
 3819TIP3   OH233091   5.220   5.824   0.593  0.1203 -0.2068 -0.1003
 3819TIP3    H133092   5.245   5.894   0.532 -0.1899 -1.0766 -1.2615
 3819TIP3    H233093   5.301   5.775   0.608 -0.0905 -0.8711 -1.0134
 3820TIP3   OH233094   1.867   6.455   7.388 -0.4945 -0.1369  0.2596
 3820TIP3    H133095   1.787   6.467   7.438 -0.0285  1.2952  0.7231
 3820TIP3    H233096   1.926   6.524   7.420  0.9398 -1.1665 -0.0345
 3821TIP3   OH233097   2.678   1.600   7.727 -0.0103 -0.9126 -0.5933
 3821TIP3    H133098   2.711   1.641   7.807 -1.4182 -2.7436  1.0389
 3821TIP3    H233099   2.586   1.625   7.723 -0.5437 -2.6891 -0.3217
 3822TIP3   OH233100   5.357   5.423   1.514 -0.4373 -0.2683 -0.1658
 3822TIP3    H133101   5.388   5.491   1.454  0.9416  0.5967  1.4299
 3822TIP3    H233102   5.431   5.362   1.521 -0.6135 -0.4130  0.5344
 3823TIP3   OH233103   1.184   2.324   1.013  0.0260 -0.8646  0.3593
 3823TIP3    H133104   1.263   2.378   1.017 -0.5624  0.2040 -1.4104
 3823TIP3    H233105   1.176   2.301   0.920 -0.3747 -3.0944  0.8829
 3824TIP3   OH233106   4.577   4.116   0.682  0.5283  0.6457  0.1524
 3824TIP3    H133107   4.609   4.144   0.596  0.9183  2.0181  0.7249
 3824TIP3    H233108   4.498   4.066   0.663  1.7328 -0.8830 -1.1488
 3825TIP3   OH233109   2.852   1.861   0.686  0.1559 -0.1457  0.3448
 3825TIP3    H133110   2.887   1.821   0.607 -1.8104  0.7874 -1.1154
 3825TIP3    H233111   2.928   1.899   0.730  1.1381  1.1508 -2.2317
 3826TIP3   OH233112   3.139   5.733   6.362 -0.3597 -0.8719 -0.0098
 3826TIP3    H133113   3.083   5.754   6.287  0.3039 -0.9714 -0.5426
 3826TIP3    H233114   3.124   5.805   6.424  1.5016  1.0162 -1.5879
 3827TIP3   OH233115   0.366   6.718   1.330  0.0982 -0.0743  0.5693
 3827TIP3    H133116   0.382   6.743   1.421 -0.2665  0.2825  0.5387
 3827TIP3    H233117   0.346   6.625   1.333 -0.5911  0.0797  0.9379
 3828TIP3   OH233118   1.436   6.858   8.062  0.8389  0.5302  0.0787
 3828TIP3    H133119   1.531   6.847   8.055  0.6307 -1.5634 -0.0024
 3828TIP3    H233120   1.404   6.848   7.973  0.4300 -0.0552  0.2907
 3829TIP3   OH233121   2.891   2.521   8.041 -0.1301 -0.3994 -0.2305
 3829TIP3    H133122   2.805   2.478   8.034 -0.1224 -0.2728 -1.3283
 3829TIP3    H233123   2.924   2.495   8.127 -1.7489  0.4497  0.6917
 3830TIP3   OH233124   0.709   1.158   1.199  0.7949 -0.0236 -0.0030
 3830TIP3    H133125   0.702   1.170   1.104  2.2315  0.0620 -0.1080
 3830TIP3    H233126   0.620   1.175   1.231 -0.4960 -2.9357 -1.6122
 3831TIP3   OH233127   3.660   1.326   8.140 -0.0088  0.1574 -0.3925
 3831TIP3    H133128   3.588   1.318   8.202 -1.2414 -0.5921 -1.8391
 3831TIP3    H233129   3.739   1.314   8.192 -1.0536 -3.0725  0.6942
 3832TIP3   OH233130   5.065   1.768   8.334 -0.1415  0.0002  0.1002
 3832TIP3    H133131   5.018   1.713   8.397  0.2076 -1.5533 -0.9406
 3832TIP3    H233132   5.155   1.735   8.335  0.2198  0.9340 -0.1435
 3833TIP3   OH233133   3.123   2.087   1.390 -0.0265 -0.0534  0.0331
 3833TIP3    H133134   3.210   2.110   1.355  0.4049 -0.5235  0.7922
 3833TIP3    H233135   3.096   2.165   1.439  0.6387 -0.4522  1.0667
 3834TIP3   OH233136   1.855   3.983   6.822 -0.1318 -0.2658  0.2512
 3834TIP3    H133137   1.935   3.972   6.874  0.1197  1.7988  0.4018
 3834TIP3    H233138   1.886   4.002   6.734 -0.3048  2.1597  0.6253
 3835TIP3   OH233139   2.580   1.541   7.225  0.5440 -0.1256 -0.1538
 3835TIP3    H133140   2.659   1.488   7.217  0.4945 -0.2061 -0.1126
 3835TIP3    H233141   2.607   1.629   7.198  1.0058  0.1705  1.1939
 3836TIP3   OH233142   0.709   0.736   2.527  0.0999 -0.5963  0.2705
 3836TIP3    H133143   0.741   0.691   2.449 -0.2677 -1.3918  0.5675
 3836TIP3    H233144   0.622   0.769   2.502 -0.0614 -0.9390  0.3627
 3837TIP3   OH233145   2.287   4.864   6.093  0.4585  0.0013 -0.4654
 3837TIP3    H133146   2.211   4.833   6.143  2.1159  0.9821  3.0197
 3837TIP3    H233147   2.275   4.959   6.088  0.7863  0.0090 -1.1029
 3838TIP3   OH233148   1.860   2.515   1.171 -0.5838  0.3746  0.1254
 3838TIP3    H133149   1.793   2.560   1.223  1.5721  0.8131  2.6809
 3838TIP3    H233150   1.913   2.586   1.135  0.3161 -0.0099  0.6710
 3839TIP3   OH233151   0.451   4.806   1.942 -0.6600 -0.7533 -0.2504
 3839TIP3    H133152   0.404   4.872   1.893  1.5650  0.7533 -0.4982
 3839TIP3    H233153   0.490   4.749   1.876 -0.6762 -0.9257 -0.1136
 3840TIP3   OH233154   4.723   0.334   8.296 -0.0202  0.1323  0.0545
 3840TIP3    H133155   4.796   0.302   8.348 -0.2270  0.2234  0.3996
 3840TIP3    H233156   4.649   0.279   8.321 -0.3817  0.8768  0.6648
 3841TIP3   OH233157   3.799   6.481   8.625 -0.4743  0.6472 -0.3742
 3841TIP3    H133158   3.714   6.487   8.581 -0.6101 -2.0352 -0.6726
 3841TIP3    H233159   3.782   6.432   8.705  0.6810  0.5140 -0.1848
 3842TIP3   OH233160   4.309   1.946   7.743 -0.2867  0.0675  0.0465
 3842TIP3    H133161   4.361   2.024   7.724 -1.2876  1.0103  1.0455
 3842TIP3    H233162   4.306   1.941   7.838 -0.7284 -0.8756  0.0006
 3843TIP3   OH233163   3.138   5.835   2.101 -0.3746  0.5754  0.2749
 3843TIP3    H133164   3.230   5.809   2.103  0.2557  2.0501 -2.8408
 3843TIP3    H233165   3.090   5.753   2.098  1.0801 -0.2958 -1.2980
 3844TIP3   OH233166   1.137   3.591   1.527  0.3595 -0.6121 -0.2106
 3844TIP3    H133167   1.122   3.504   1.563  1.5158 -0.4132  0.8269
 3844TIP3    H233168   1.193   3.577   1.451  0.4330 -0.7856 -0.1248
 3845TIP3   OH233169   2.941   1.534   1.564  0.0142 -0.5519  0.6218
 3845TIP3    H133170   2.977   1.594   1.628 -1.1929 -0.2070  0.9987
 3845TIP3    H233171   2.995   1.547   1.486  1.7323 -1.2353  1.6364
 3846TIP3   OH233172   2.819   3.488   7.287 -0.2643 -0.0969 -0.2284
 3846TIP3    H133173   2.858   3.562   7.334 -3.4613  1.8367 -0.3820
 3846TIP3    H233174   2.845   3.411   7.339 -0.9208  1.5998  2.8788
 3847TIP3   OH233175   4.390   5.869   0.921  0.1216  0.0419  0.3561
 3847TIP3    H133176   4.423   5.779   0.912  0.1655  0.0849  0.0896
 3847TIP3    H233177   4.337   5.867   1.001 -0.2880 -0.3426  0.0751
 3848TIP3   OH233178   2.895   3.270   7.051  0.3629  0.4432 -0.0517
 3848TIP3    H133179   2.835   3.204   7.017 -1.0374 -0.8053  4.3011
 3848TIP3    H233180   2.848   3.353   7.041  0.0194  0.1440 -1.0238
 3849TIP3   OH233181   5.306   5.076   0.816  0.7558 -0.0714 -0.2642
 3849TIP3    H133182   5.227   5.047   0.861  1.6682 -2.2926  0.0363
 3849TIP3    H233183   5.360   5.118   0.884  0.5018  0.0670 -0.1476
 3850TIP3   OH233184   2.902   2.101   1.608 -0.1974 -0.1812 -0.1158
 3850TIP3    H133185   2.865   2.172   1.556  1.3766  0.0873 -0.9392
 3850TIP3    H233186   2.863   2.111   1.694 -0.3414  1.4298 -0.3440
 3851TIP3   OH233187   6.388   3.912   0.389 -0.2724 -0.2278 -0.5312
 3851TIP3    H133188   6.307   3.961   0.399  0.1384  1.2042 -3.2348
 3851TIP3    H233189   6.444   3.969   0.336  2.2533 -1.4639  0.6178
 3852TIP3   OH233190   1.350   5.822   8.524  0.1999 -0.0873  0.4394
 3852TIP3    H133191   1.291   5.767   8.473  0.4701  1.1079 -1.2641
 3852TIP3    H233192   1.437   5.784   8.508  0.3127  0.4262 -0.2353
 3853TIP3   OH233193   2.729   6.868   7.748  0.6730  1.2176  0.3147
 3853TIP3    H133194   2.694   6.860   7.660  0.4508 -1.3376  0.5618
 3853TIP3    H233195   2.821   6.894   7.736  0.1524  2.8146 -0.5306
 3854TIP3   OH233196   2.709   0.674   2.216 -0.0610 -0.4024  0.4067
 3854TIP3    H133197   2.703   0.646   2.125  0.6974 -0.0245  0.2296
 3854TIP3    H233198   2.712   0.593   2.266 -0.7498 -0.6104  0.1239
 3855TIP3   OH233199   0.478   5.743   1.641  0.6547  0.4378  0.2535
 3855TIP3    H133200   0.554   5.717   1.589 -0.7011  1.2545 -2.3290
 3855TIP3    H233201   0.475   5.839   1.633 -2.3027  0.3155 -2.4965
 3856TIP3   OH233202   2.867   2.626   8.372 -0.2829  0.3271  1.3321
 3856TIP3    H133203   2.941   2.649   8.429  0.8327 -0.1666  0.1283
 3856TIP3    H233204   2.842   2.709   8.331 -0.8610  0.6208  2.2582
 3857TIP3   OH233205   2.003   4.977   8.304  0.0006 -0.7205 -0.1477
 3857TIP3    H133206   2.027   5.012   8.390  0.2735 -0.3857 -0.3590
 3857TIP3    H233207   1.925   4.923   8.321 -0.0542 -0.5112  0.2779
 3858TIP3   OH233208   5.906   6.625   8.580  0.3953 -0.2014 -0.1927
 3858TIP3    H133209   5.854   6.557   8.624 -0.5994  0.7096  0.0784
 3858TIP3    H233210   5.941   6.581   8.502 -2.0086 -0.4994 -1.1937
 3859TIP3   OH233211   3.551   4.465   1.574  0.4781 -0.5316 -0.0658
 3859TIP3    H133212   3.544   4.472   1.478  0.2359  0.1905 -0.0009
 3859TIP3    H233213   3.521   4.377   1.594 -1.6005  0.0222 -0.4624
 3860TIP3   OH233214   4.342   3.918   0.952 -0.1660 -0.1720 -0.0320
 3860TIP3    H133215   4.299   3.923   1.038 -1.4549  1.6349 -0.7271
 3860TIP3    H233216   4.418   3.976   0.960 -0.0231 -0.3660  0.0224
 3861TIP3   OH233217   1.599   5.610   2.479  0.4186 -0.0717 -0.5102
 3861TIP3    H133218   1.593   5.701   2.507 -0.0030 -0.5607  1.0671
 3861TIP3    H233219   1.508   5.580   2.474  0.5905 -1.0716  1.3961
 3862TIP3   OH233220   0.959   5.513   7.966  0.5633  0.7487 -0.0693
 3862TIP3    H133221   1.029   5.493   7.904 -0.8593 -1.0234 -1.1947
 3862TIP3    H233222   0.961   5.608   7.974 -0.8869  1.4807 -5.0277
 3863TIP3   OH233223   0.419   2.602   8.290 -0.4204 -0.4802  0.1289
 3863TIP3    H133224   0.352   2.622   8.225 -0.0765  1.8129  0.3884
 3863TIP3    H233225   0.502   2.609   8.242 -0.2379 -0.3316  0.4573
 3864TIP3   OH233226   0.400   6.228   1.122 -0.2591  0.3689  0.8473
 3864TIP3    H133227   0.396   6.134   1.104 -1.0770 -0.2037  3.6546
 3864TIP3    H233228   0.316   6.261   1.091 -0.6955 -0.1590  1.4415
 3865TIP3   OH233229   6.133   1.647   8.180  0.4386 -0.2733  0.6784
 3865TIP3    H133230   6.222   1.649   8.215  1.4809 -3.2854 -1.3205
 3865TIP3    H233231   6.142   1.601   8.096 -2.7457  1.0869 -0.5639
 3866TIP3   OH233232   3.833   0.696   0.971  0.7092  0.4007 -0.3401
 3866TIP3    H133233   3.756   0.652   0.936 -1.1081  2.5635  0.6692
 3866TIP3    H233234   3.806   0.788   0.981  2.8256  0.9113  1.7190
 3867TIP3   OH233235   5.603   6.095   8.448 -0.1454 -0.1397 -0.1701
 3867TIP3    H133236   5.692   6.104   8.412 -0.2293 -2.0178 -0.9936
 3867TIP3    H233237   5.607   6.014   8.499 -0.6631  1.2637  2.2460
 3868TIP3   OH233238   3.685   5.910   0.980  0.1654  0.0647 -0.4659
 3868TIP3    H133239   3.701   5.989   0.928 -0.9908  2.6511  2.7439
 3868TIP3    H233240   3.598   5.923   1.017 -0.3108 -3.0773 -0.2804
 3869TIP3   OH233241   2.373   2.817   8.163 -0.6271 -0.0219  0.7547
 3869TIP3    H133242   2.411   2.801   8.076 -1.1603 -1.1229  0.7076
 3869TIP3    H233243   2.395   2.908   8.182  0.7977 -0.2043  0.1165
 3870TIP3   OH233244   1.606   1.125   7.996  0.5332  0.3754  0.4416
 3870TIP3    H133245   1.599   1.095   7.905 -2.4268 -0.1037  0.7277
 3870TIP3    H233246   1.628   1.046   8.045  0.2152  0.2171  0.3358
 3871TIP3   OH233247   0.913   4.744   6.479  0.1211 -0.2197 -0.2476
 3871TIP3    H133248   0.923   4.830   6.520 -0.0130  0.0570 -0.7788
 3871TIP3    H233249   0.993   4.697   6.502 -0.5232 -0.5528  1.4105
 3872TIP3   OH233250   2.259   5.060   0.690  0.0379 -0.2018 -0.0791
 3872TIP3    H133251   2.224   5.149   0.687 -2.5298 -1.1538 -0.7499
 3872TIP3    H233252   2.351   5.070   0.666 -0.5170  2.1248 -1.5840
 3873TIP3   OH233253   1.181   5.386   7.197  0.0676 -0.6061  0.2675
 3873TIP3    H133254   1.229   5.374   7.115  0.0721 -2.1315  0.4666
 3873TIP3    H233255   1.096   5.345   7.181  0.5424 -2.1623  1.4308
 3874TIP3   OH233256   2.962   0.042   7.617 -0.4898 -1.0677 -0.2629
 3874TIP3    H133257   2.895   0.029   7.550  1.2461 -1.0817 -2.0750
 3874TIP3    H233258   2.968   0.137   7.628 -1.5482 -1.0946  0.7396
 3875TIP3   OH233259   6.007   4.149   1.610 -0.1452 -0.3197  0.0264
 3875TIP3    H133260   5.933   4.210   1.609 -0.8057 -0.7534  3.8890
 3875TIP3    H233261   6.084   4.205   1.604 -0.7643  0.8167  1.8198
 3876TIP3   OH233262   4.331   5.242   7.006  0.1160 -0.2338  0.0762
 3876TIP3    H133263   4.410   5.226   6.954  0.1422  0.3724 -0.0834
 3876TIP3    H233264   4.314   5.159   7.051  0.8453 -0.3698  0.1130
 3877TIP3   OH233265   4.784   6.537   0.121  0.0823 -0.1620 -0.3405
 3877TIP3    H133266   4.864   6.508   0.165  1.2905  1.6504 -1.2121
 3877TIP3    H233267   4.730   6.575   0.191 -0.0620 -1.4119  0.2544
 3878TIP3   OH233268   5.554   2.960   0.083  0.1790 -0.4036 -0.1806
 3878TIP3    H133269   5.480   2.968   0.024 -0.2419  0.4581  0.4333
 3878TIP3    H233270   5.602   2.883   0.053  1.0313  1.0478 -2.8126
 3879TIP3   OH233271   1.917   2.574   7.661  0.1795  0.6229 -0.1980
 3879TIP3    H133272   1.848   2.551   7.724  1.6160  1.4748  1.7648
 3879TIP3    H233273   1.919   2.670   7.661  2.5562  0.6443  1.2328
 3880TIP3   OH233274   6.707   2.947   1.806  0.0299 -0.1319 -0.2496
 3880TIP3    H133275   6.762   2.984   1.876  0.1356 -0.0984 -0.3496
 3880TIP3    H233276   6.694   3.019   1.745 -0.0547 -0.1640 -0.2697
 3881TIP3   OH233277   3.057   2.351   2.129 -0.4190 -0.1269 -0.1457
 3881TIP3    H133278   3.005   2.397   2.194 -0.0163  0.1162  0.0074
 3881TIP3    H233279   3.011   2.268   2.117 -1.5529  0.5917 -0.9597
 3882TIP3   OH233280   6.050   3.591   1.980 -0.0799 -0.0323  0.0333
 3882TIP3    H133281   6.033   3.592   2.075  1.5373 -0.3232  0.3525
 3882TIP3    H233282   6.069   3.682   1.959  1.9371 -0.2966  0.4956
 3883TIP3   OH233283   0.275   2.305   7.555 -0.5141 -0.2793 -0.2776
 3883TIP3    H133284   0.254   2.345   7.639  0.0612  0.1077 -0.3121
 3883TIP3    H233285   0.247   2.369   7.490  2.0500  0.9474 -0.2993
 3884TIP3   OH233286   6.574   5.680   7.844 -0.1358  0.0987 -0.4023
 3884TIP3    H133287   6.520   5.660   7.922 -0.7583  1.3406 -0.4901
 3884TIP3    H233288   6.517   5.660   7.770 -0.1330  0.4741 -0.5096
 3885TIP3   OH233289   2.476   1.754   1.822 -0.0740  0.2426 -0.6457
 3885TIP3    H133290   2.394   1.710   1.800  0.8608 -0.4087 -3.1543
 3885TIP3    H233291   2.482   1.826   1.760  1.0632  0.5324 -0.2292
 3886TIP3   OH233292   5.272   0.157   6.798 -0.2416  0.1768 -0.0043
 3886TIP3    H133293   5.250   0.150   6.705  0.2915  1.8722 -0.2858
 3886TIP3    H233294   5.294   0.249   6.811  1.0063 -0.2955  1.5143
 3887TIP3   OH233295   4.697   6.665   7.424 -0.4174 -0.1063  0.2826
 3887TIP3    H133296   4.714   6.742   7.370  1.1386 -0.8444 -0.3441
 3887TIP3    H233297   4.637   6.611   7.372  1.2920 -0.9474 -0.9273
 3888TIP3   OH233298   6.792   6.262   1.421 -0.1115 -0.0534 -0.1952
 3888TIP3    H133299   6.709   6.268   1.468 -0.7988  0.0355 -1.3674
 3888TIP3    H233300   6.840   6.341   1.446  0.5746 -1.1227  2.1646
 3889TIP3   OH233301   2.284   1.582   8.060  0.2643 -0.2413 -0.5538
 3889TIP3    H133302   2.248   1.533   7.986 -0.1897 -0.7682 -0.0015
 3889TIP3    H233303   2.319   1.514   8.118  1.4902  0.2271 -0.7394
 3890TIP3   OH233304   4.183   1.759   0.434  0.0472  0.3365 -0.1778
 3890TIP3    H133305   4.125   1.751   0.358 -1.0543 -3.2164  0.8404
 3890TIP3    H233306   4.136   1.816   0.494  0.4294  2.2927 -1.6404
 3891TIP3   OH233307   5.024   5.429   1.013  0.2859  0.3043 -0.2464
 3891TIP3    H133308   5.106   5.379   1.009  0.5953  0.3018  3.3792
 3891TIP3    H233309   4.957   5.366   0.986  1.3469  0.5631 -4.2279
 3892TIP3   OH233310   1.209   5.710   7.790  0.1378  0.0647  0.7755
 3892TIP3    H133311   1.155   5.788   7.805  1.2689  0.6914  1.7927
 3892TIP3    H233312   1.257   5.730   7.710 -0.9739 -0.4282 -0.0443
 3893TIP3   OH233313   1.533   4.829   7.473  0.0131  0.1450 -0.3032
 3893TIP3    H133314   1.596   4.901   7.470  1.7637 -1.3637 -1.0693
 3893TIP3    H233315   1.525   4.807   7.565  0.6527  0.3175 -0.2030
 3894TIP3   OH233316   0.138   5.689   0.250 -0.2324 -0.0728 -0.4421
 3894TIP3    H133317   0.072   5.755   0.273  0.3468  0.2917  0.2138
 3894TIP3    H233318   0.204   5.739   0.202  1.1091  0.2289  1.6182
 3895TIP3   OH233319   1.421   4.605   8.413 -0.1385 -0.2826 -0.1746
 3895TIP3    H133320   1.466   4.554   8.346 -0.7025 -0.9945 -0.0273
 3895TIP3    H233321   1.352   4.652   8.365 -0.5173 -0.7617 -0.1033
 3896TIP3   OH233322   0.567   6.243   7.866 -0.0131  0.2636 -0.4220
 3896TIP3    H133323   0.563   6.211   7.776 -0.0933  0.8551 -0.6376
 3896TIP3    H233324   0.576   6.165   7.920 -0.6585 -0.1450 -0.8985
 3897TIP3   OH233325   5.518   5.842   1.593  0.3128 -0.0885 -0.2648
 3897TIP3    H133326   5.447   5.878   1.647 -0.0508 -0.7553 -0.2837
 3897TIP3    H233327   5.587   5.908   1.597 -1.2400  1.8250 -2.3271
 3898TIP3   OH233328   1.596   6.725   7.839 -0.1202  0.4027 -0.3173
 3898TIP3    H133329   1.504   6.735   7.815 -0.1160 -1.5889 -1.3323
 3898TIP3    H233330   1.644   6.739   7.758  0.4465  0.7620  0.0708
 3899TIP3   OH233331   3.827   4.322   1.161 -0.2203 -0.5042 -0.1772
 3899TIP3    H133332   3.801   4.233   1.187  0.4655 -0.9717 -1.0226
 3899TIP3    H233333   3.804   4.327   1.068 -1.2302  0.5936  0.1072
 3900TIP3   OH233334   6.246   3.559   1.425  0.6767 -0.0880 -0.2469
 3900TIP3    H133335   6.298   3.635   1.398  2.0327 -0.4655  1.1639
 3900TIP3    H233336   6.213   3.523   1.343  1.1721  1.1947 -1.0551
 3901TIP3   OH233337   6.831   2.817   0.821  0.3735 -0.3510 -0.1279
 3901TIP3    H133338   6.797   2.731   0.845  0.3090 -0.1766  0.4076
 3901TIP3    H233339   6.844   2.812   0.726 -1.1431 -0.4269 -0.3604
 3902TIP3   OH233340   4.112   5.330   8.142 -0.1883 -0.9618  0.2780
 3902TIP3    H133341   4.171   5.293   8.077 -0.9044  2.4986 -2.6580
 3902TIP3    H233342   4.164   5.398   8.185 -1.8453  2.5680 -2.7806
 3903TIP3   OH233343   2.644   5.240   7.384  0.3595 -0.0118 -0.3797
 3903TIP3    H133344   2.626   5.333   7.374 -2.2081 -0.4193 -0.1394
 3903TIP3    H233345   2.564   5.196   7.356 -0.1547 -1.9510  3.4551
 3904TIP3   OH233346   0.882   0.697   6.673 -0.4686  0.0702  0.1410
 3904TIP3    H133347   0.866   0.711   6.580 -1.2071 -0.0945  0.2370
 3904TIP3    H233348   0.977   0.703   6.682 -0.5169  3.1694 -0.1334
 3905TIP3   OH233349   0.619   1.773   7.769 -0.7387 -0.1606  0.4145
 3905TIP3    H133350   0.599   1.824   7.848 -1.8230  0.3149 -0.1444
 3905TIP3    H233351   0.567   1.692   7.780 -1.6890  0.3357 -0.2493
 3906TIP3   OH233352   2.003   3.204   7.699  0.2061  0.0263  0.0329
 3906TIP3    H133353   1.929   3.191   7.758 -0.4371  0.4178 -0.6713
 3906TIP3    H233354   2.073   3.150   7.736  0.3279  1.4541  2.0522
 3907TIP3   OH233355   4.512   3.565   6.844  0.3701  0.4459 -0.4180
 3907TIP3    H133356   4.519   3.661   6.843 -1.0600  0.5674 -1.5595
 3907TIP3    H233357   4.531   3.538   6.755  0.9799 -0.3762 -0.0554
 3908TIP3   OH233358   6.654   6.551   8.009  0.2550  0.1787 -0.9058
 3908TIP3    H133359   6.686   6.474   7.961  0.5450  0.0864 -0.5727
 3908TIP3    H233360   6.656   6.622   7.944 -0.0684 -0.1014 -1.2306
 3909TIP3   OH233361   1.622   1.678   7.558 -0.2348 -0.2873 -0.4059
 3909TIP3    H133362   1.632   1.769   7.588  0.4848 -0.2568 -0.7089
 3909TIP3    H233363   1.601   1.687   7.465  2.7644 -0.4273 -1.2257
 3910TIP3   OH233364   0.453   6.628   6.471 -0.1230 -0.7464 -0.1935
 3910TIP3    H133365   0.441   6.633   6.566  0.6220 -2.0075 -0.0190
 3910TIP3    H233366   0.543   6.658   6.457 -0.2653 -0.4642 -0.5200
 3911TIP3   OH233367   4.222   0.907   0.505 -0.3084 -0.1708  0.0018
 3911TIP3    H133368   4.274   0.876   0.579  1.0350  0.8482 -0.4797
 3911TIP3    H233369   4.248   0.850   0.432 -1.2815 -0.8664  0.1700
 3912TIP3   OH233370   5.523   5.513   8.422  0.1361 -0.0180 -0.3160
 3912TIP3    H133371   5.488   5.602   8.411  0.4041 -0.0135 -1.1962
 3912TIP3    H233372   5.513   5.495   8.516 -1.9344  0.0961 -0.4613
 3913TIP3   OH233373   0.815   4.601   7.670 -0.6041  0.1416 -0.1392
 3913TIP3    H133374   0.754   4.576   7.600 -0.3570 -0.2032 -0.2352
 3913TIP3    H233375   0.770   4.576   7.751  0.8391 -3.6111 -0.2701
 3914TIP3   OH233376   3.699   4.608   6.018 -0.4651  0.0064 -0.6937
 3914TIP3    H133377   3.782   4.591   6.063 -0.8891  1.0558  0.5457
 3914TIP3    H233378   3.634   4.560   6.069 -1.0627  1.8175  0.3672
 3915TIP3   OH233379   6.340   1.972   1.386 -0.5814  0.1985 -0.0398
 3915TIP3    H133380   6.356   1.989   1.479 -0.3848  1.1965 -0.2493
 3915TIP3    H233381   6.420   1.930   1.355 -0.1037  1.1153 -0.0652
 3916TIP3   OH233382   4.376   4.682   7.638 -0.9888 -0.2845  0.2687
 3916TIP3    H133383   4.464   4.643   7.632 -1.4244 -1.0542 -1.5693
 3916TIP3    H233384   4.346   4.657   7.725 -0.3757 -2.2194 -0.0224
 3917TIP3   OH233385   3.542   3.302   1.387  0.2143 -0.2197 -0.8193
 3917TIP3    H133386   3.534   3.263   1.474 -1.0076  1.5515 -0.0682
 3917TIP3    H233387   3.635   3.298   1.367  0.1516 -3.7666 -0.9886
 3918TIP3   OH233388   4.890   0.465   0.279 -0.1506 -0.2924 -0.2887
 3918TIP3    H133389   4.848   0.390   0.320  0.5856 -0.5116  0.0664
 3918TIP3    H233390   4.817   0.524   0.258 -0.7687 -1.1996 -0.8093
 3919TIP3   OH233391   5.476   0.594   1.470 -0.7237  0.4854  0.2546
 3919TIP3    H133392   5.544   0.659   1.489  1.3343 -0.6390 -2.6253
 3919TIP3    H233393   5.478   0.534   1.545  1.7195  0.3393  0.1336
 3920TIP3   OH233394   1.313   2.878   0.174  0.1203 -0.0176  0.1903
 3920TIP3    H133395   1.251   2.950   0.187  0.7813  0.4152  1.1427
 3920TIP3    H233396   1.338   2.884   0.082 -1.1536 -0.1339 -0.1739
 3921TIP3   OH233397   1.937   0.523   8.308  0.6350 -0.2048 -0.0330
 3921TIP3    H133398   1.907   0.446   8.259 -1.5596  0.8462 -0.5128
 3921TIP3    H233399   1.860   0.581   8.309  2.0021  1.6844  0.8911
 3922TIP3   OH233400   0.886   5.982   1.249  0.6367  0.5285  0.2899
 3922TIP3    H133401   0.808   5.935   1.279  0.6443 -0.8758 -1.6862
 3922TIP3    H233402   0.857   6.073   1.239 -0.0782  0.4906  1.7606
 3923TIP3   OH233403   0.513   1.401   0.751 -0.0584  0.1935 -0.0761
 3923TIP3    H133404   0.446   1.463   0.724  0.7974  0.2797 -2.2264
 3923TIP3    H233405   0.574   1.452   0.804  0.7696  1.3220 -2.0206
 3924TIP3   OH233406   1.267   0.870   7.429 -0.2833 -0.2201  0.4033
 3924TIP3    H133407   1.300   0.796   7.481  2.7125  0.9111  0.3445
 3924TIP3    H233408   1.266   0.944   7.491 -0.7398  0.2517 -0.1525
 3925TIP3   OH233409   5.027   0.677   8.594  0.0147 -0.4008  0.1415
 3925TIP3    H133410   4.942   0.652   8.558 -1.0906  0.5693  1.9680
 3925TIP3    H233411   5.079   0.701   8.517 -2.3552  1.9698 -0.8729
 3926TIP3   OH233412   0.439   6.856   0.614 -0.5494 -0.2893  0.6126
 3926TIP3    H133413   0.499   6.886   0.545  0.8793  1.7821  2.5964
 3926TIP3    H233414   0.455   6.761   0.619  1.0791 -0.1132 -0.2952
 3927TIP3   OH233415   0.021   6.860   8.551  0.7737  0.1141 -0.0131
 3927TIP3    H133416  -0.060   6.874   8.501  0.9145  0.2735 -0.1969
 3927TIP3    H233417   0.040   6.945   8.590  0.1831 -0.2136  1.0384
 3928TIP3   OH233418   6.505   5.954   1.032  0.0953 -0.3487 -0.2179
 3928TIP3    H133419   6.499   6.046   1.008  2.7747 -0.2814 -0.8510
 3928TIP3    H233420   6.498   5.954   1.128  0.1959  0.5142 -0.2047
 3929TIP3   OH233421   5.011   6.002   7.072 -0.4232  0.0943  0.2172
 3929TIP3    H133422   5.064   5.922   7.079  0.4350  0.8134  5.0773
 3929TIP3    H233423   4.921   5.972   7.084 -0.3072 -0.3401  0.0295
 3930TIP3   OH233424   1.658   0.579   8.238 -0.4670 -0.5265 -0.4903
 3930TIP3    H133425   1.588   0.618   8.185 -0.7770 -1.5325 -0.8441
 3930TIP3    H233426   1.622   0.574   8.326 -0.4309 -0.0406 -0.4450
 3931TIP3   OH233427   3.573   0.012   1.461 -0.3965 -0.2798 -0.2317
 3931TIP3    H133428   3.634  -0.052   1.425 -1.3701 -0.1700 -2.2225
 3931TIP3    H233429   3.492  -0.036   1.474 -1.3797  0.6141 -2.4916
 3932TIP3   OH233430   6.631   5.176   7.439  0.0405 -0.0676 -0.3047
 3932TIP3    H133431   6.643   5.107   7.374 -0.1537  0.6358 -1.1143
 3932TIP3    H233432   6.683   5.149   7.514  1.2981 -0.2990 -1.2280
 3933TIP3   OH233433   3.338   4.504   1.153 -0.4341 -0.2456  0.6393
 3933TIP3    H133434   3.265   4.503   1.214 -1.9164  1.0166 -1.0260
 3933TIP3    H233435   3.382   4.588   1.169  1.0742 -1.2421  2.0313
 3934TIP3   OH233436   1.223   2.061   7.803  0.5159  0.0859 -0.4578
 3934TIP3    H133437   1.134   2.077   7.771  1.1621  2.3450 -1.3038
 3934TIP3    H233438   1.278   2.067   7.726  1.6048  0.5178  0.3303
 3935TIP3   OH233439   1.229   3.140   1.166 -0.5197  0.2438 -0.2530
 3935TIP3    H133440   1.243   3.225   1.124  1.1112 -0.1583 -0.5985
 3935TIP3    H233441   1.187   3.160   1.250 -1.5003  1.2538 -0.9642
 3936TIP3   OH233442   5.430   2.054   0.021  0.6157 -0.3624  0.3953
 3936TIP3    H133443   5.391   2.122   0.076  0.2654 -1.1192  1.0970
 3936TIP3    H233444   5.380   2.057  -0.060 -2.6634 -2.8954  2.0721
 3937TIP3   OH233445   1.961   2.734   1.055  0.1953  0.3232 -0.2179
 3937TIP3    H133446   1.911   2.810   1.027 -0.6951  0.0047  0.4339
 3937TIP3    H233447   2.003   2.701   0.976 -0.3592  0.8072 -0.7182
 3938TIP3   OH233448   5.840   1.458   0.641  0.4732 -0.4372 -0.1095
 3938TIP3    H133449   5.876   1.377   0.605  1.6004  1.0121 -2.4867
 3938TIP3    H233450   5.900   1.526   0.612 -1.0065  1.3989  0.9212
 3939TIP3   OH233451   6.471   6.707   0.652 -0.0847 -0.5092 -0.5066
 3939TIP3    H133452   6.403   6.718   0.586 -0.9559 -1.6446  0.1732
 3939TIP3    H233453   6.514   6.624   0.630 -0.1897 -0.7554  0.1678
 3940TIP3   OH233454   5.977   4.150   2.193 -0.6038 -0.8446  0.2567
 3940TIP3    H133455   6.062   4.140   2.235 -0.1039  2.2032  0.2389
 3940TIP3    H233456   5.997   4.159   2.100 -0.8204  0.4809  0.3133
 3941TIP3   OH233457   6.080   0.024   1.165 -0.3766 -0.6298 -0.0154
 3941TIP3    H133458   6.034   0.064   1.238 -1.6484  0.8240 -1.5331
 3941TIP3    H233459   6.011  -0.008   1.107  0.5990 -1.9439 -0.5098
 3942TIP3   OH233460   1.549   1.786   8.048  0.3923  0.8474  0.4237
 3942TIP3    H133461   1.461   1.783   8.086  0.2797 -2.3338  0.1583
 3942TIP3    H233462   1.542   1.848   7.976 -2.2891 -0.9076 -0.9921
 3943TIP3   OH233463   3.570   2.711   0.705  0.0153 -0.2467 -0.3564
 3943TIP3    H133464   3.532   2.639   0.655  2.2212 -0.2035 -2.2749
 3943TIP3    H233465   3.532   2.790   0.668 -0.0181 -0.3042 -0.4441
 3944TIP3   OH233466   5.818   2.055   0.628 -0.0531 -0.4895 -0.4565
 3944TIP3    H133467   5.777   2.054   0.715  0.4786  0.5297 -0.1795
 3944TIP3    H233468   5.802   1.967   0.593  0.5462 -1.2501  1.0663
 3945TIP3   OH233469   2.863   1.773   6.963 -0.1752 -0.2445 -0.3537
 3945TIP3    H133470   2.791   1.774   6.901 -0.6398  0.2814  0.1762
 3945TIP3    H233471   2.941   1.784   6.910 -0.7455  3.9631 -0.6659
 3946TIP3   OH233472   4.121   1.337   0.920  0.1244 -0.4886 -0.0741
 3946TIP3    H133473   4.208   1.368   0.894  1.1620 -0.6432  2.8099
 3946TIP3    H233474   4.078   1.415   0.956 -0.6276 -0.5903 -0.7384
 3947TIP3   OH233475   3.952   6.069   0.448 -0.1908  0.6473  0.0187
 3947TIP3    H133476   3.934   6.051   0.356 -1.6451  0.9034  0.2199
 3947TIP3    H233477   3.870   6.046   0.493  0.9659 -0.9084  1.4562
 3948TIP3   OH233478   3.604   2.382   1.097  0.2938  0.8761 -0.1627
 3948TIP3    H133479   3.578   2.332   1.019 -0.5234 -0.9537  1.2114
 3948TIP3    H233480   3.538   2.451   1.104 -0.3755  0.2716 -0.3865
 3949TIP3   OH233481   2.960   2.753   1.269  0.2826  0.2839  0.4161
 3949TIP3    H133482   2.968   2.805   1.349 -2.1238  2.0947 -0.3738
 3949TIP3    H233483   2.947   2.818   1.200 -2.0409 -1.2619 -0.7484
 3950TIP3   OH233484   1.129   3.747   7.262 -0.2427  0.1680  0.6741
 3950TIP3    H133485   1.220   3.756   7.236 -0.6158  0.4885 -0.5846
 3950TIP3    H233486   1.086   3.706   7.187 -1.0020 -0.6477  1.5264
 3951TIP3   OH233487   6.736   1.109   0.869  0.2311 -0.6101 -0.0851
 3951TIP3    H133488   6.671   1.075   0.807  0.0695 -0.1410 -0.1775
 3951TIP3    H233489   6.703   1.084   0.955 -0.1658 -0.2251 -0.1214
 3952TIP3   OH233490   0.753   2.350   7.142 -0.4434 -0.1125  0.0891
 3952TIP3    H133491   0.703   2.422   7.103  1.8313  1.5750  0.0569
 3952TIP3    H233492   0.793   2.305   7.068 -0.0762  0.0046  0.2129
 3953TIP3   OH233493   3.874   6.041   2.182 -0.2251  0.0739  0.1289
 3953TIP3    H133494   3.793   6.081   2.150  0.2954 -0.2013 -1.7015
 3953TIP3    H233495   3.852   5.948   2.193 -0.0709 -0.0921 -0.8315
 3954TIP3   OH233496   0.424   3.225   0.690  0.5938  0.2371 -0.7459
 3954TIP3    H133497   0.343   3.196   0.731  0.2116  0.8679 -1.0329
 3954TIP3    H233498   0.427   3.319   0.707  1.4896  0.1512 -0.3648
 3955TIP3   OH233499   5.614   5.451   1.980 -0.1919 -0.7124 -0.3236
 3955TIP3    H133500   5.619   5.527   2.038  1.5537  0.6623 -2.1435
 3955TIP3    H233501   5.527   5.414   1.996 -0.6291  0.9453  1.4793
 3956TIP3   OH233502   6.342   0.423   2.499  0.0060  0.2124 -0.6701
 3956TIP3    H133503   6.319   0.496   2.442  0.2823  0.2084 -0.7904
 3956TIP3    H233504   6.406   0.373   2.448  1.1476  0.8514  0.0891
 3957TIP3   OH233505   0.951   2.883   7.315 -0.3637 -0.0111  0.3553
 3957TIP3    H133506   1.042   2.866   7.342 -0.0642  1.4796  0.3923
 3957TIP3    H233507   0.920   2.800   7.280  1.8012 -0.0339 -1.8168
 3958TIP3   OH233508   6.390   5.983   1.720  0.1364 -0.3927  0.0648
 3958TIP3    H133509   6.403   5.960   1.813  2.0213  0.1593 -0.0170
 3958TIP3    H233510   6.355   6.071   1.722  0.5751 -0.2166  0.2688
 3959TIP3   OH233511   6.048   2.975   7.638  0.6467  0.1543  0.0371
 3959TIP3    H133512   6.007   2.889   7.648  1.3182 -0.1990 -0.2001
 3959TIP3    H233513   5.985   3.036   7.678  0.3378 -0.4829  0.5549
 3960TIP3   OH233514   0.590   5.978   0.154 -0.1591 -0.0504 -0.1376
 3960TIP3    H133515   0.602   5.885   0.135  1.0742 -0.0621  0.5996
 3960TIP3    H233516   0.611   6.022   0.072 -0.8165 -0.4178 -0.5110
 3961TIP3   OH233517   5.752   3.872   2.904  0.7510  0.4323 -0.0894
 3961TIP3    H133518   5.773   3.825   2.824 -1.8176  1.2098 -1.3314
 3961TIP3    H233519   5.722   3.958   2.874 -1.6530  0.2481  1.5547
 3962TIP3   OH233520   0.873   3.897   2.133 -0.3962 -0.3311  0.5992
 3962TIP3    H133521   0.883   3.838   2.208  0.9686 -0.9740 -0.0510
 3962TIP3    H233522   0.934   3.968   2.150 -1.7893  0.7690  1.2101
 3963TIP3   OH233523   1.904   2.228   1.831 -0.4916 -0.3501 -0.0230
 3963TIP3    H133524   1.867   2.157   1.778 -0.9110 -0.2673  0.1562
 3963TIP3    H233525   1.993   2.199   1.851 -1.0886 -1.4331  1.1581
 3964TIP3   OH233526   6.160   2.314   2.431 -0.2736 -0.2408 -0.0027
 3964TIP3    H133527   6.159   2.405   2.402 -1.6722  0.1602  1.1352
 3964TIP3    H233528   6.087   2.309   2.494 -0.8978 -2.3934 -0.8119
 3965TIP3   OH233529   5.201   5.341   7.947 -0.1888 -0.4798 -0.3269
 3965TIP3    H133530   5.116   5.334   7.903  0.7840 -1.4895 -2.2057
 3965TIP3    H233531   5.263   5.358   7.876  1.2556 -0.3396  0.9210
 3966TIP3   OH233532   3.391   0.452   0.837  0.3216  0.1841 -0.3373
 3966TIP3    H133533   3.417   0.417   0.751 -1.2524 -1.9589 -0.0146
 3966TIP3    H233534   3.401   0.379   0.897 -0.0255  1.2279  1.0527
 3967TIP3   OH233535   2.817   2.747   7.881  0.4259 -0.2980  0.0057
 3967TIP3    H133536   2.904   2.768   7.847  0.2435 -0.1092 -0.3514
 3967TIP3    H233537   2.832   2.677   7.945  0.9784  0.4893  0.7608
 3968TIP3   OH233538   2.104   5.550   7.998  0.7007  0.0151  0.0831
 3968TIP3    H133539   2.081   5.468   8.041 -0.3709 -0.1598 -0.7688
 3968TIP3    H233540   2.031   5.609   8.018  1.6080  0.8825  0.9488
 3969TIP3   OH233541   0.484   1.878   0.096 -0.1321 -0.3241  0.1540
 3969TIP3    H133542   0.421   1.950   0.091 -0.2146 -0.4765 -1.9110
 3969TIP3    H233543   0.433   1.800   0.071  0.0605 -1.0764  1.9185
 3970TIP3   OH233544   6.621   4.866   0.153 -0.3257 -0.1269 -0.0213
 3970TIP3    H133545   6.589   4.799   0.214 -2.0391  0.4564 -0.2267
 3970TIP3    H233546   6.712   4.840   0.135 -1.1477 -2.8949 -0.7705
 3971TIP3   OH233547   0.815   3.060   1.204  0.2762  0.2756  0.1694
 3971TIP3    H133548   0.841   2.993   1.267  0.1487  1.8145  1.9780
 3971TIP3    H233549   0.733   3.095   1.240 -0.4364  0.4315 -1.5071
 3972TIP3   OH233550   6.380   5.155   7.657  0.6626  0.3319 -0.0798
 3972TIP3    H133551   6.369   5.221   7.588 -1.7798  2.2984  1.9771
 3972TIP3    H233552   6.420   5.203   7.729 -0.6169 -0.5559  1.2675
 3973TIP3   OH233553   3.674   5.155   6.464  0.6869 -0.1483 -0.7490
 3973TIP3    H133554   3.738   5.168   6.534 -0.8951  0.2155  0.7072
 3973TIP3    H233555   3.640   5.242   6.445 -0.3855 -0.4864 -0.4711
 3974TIP3   OH233556   3.639   3.308   8.333  0.2481 -0.3743 -0.2450
 3974TIP3    H133557   3.727   3.339   8.353  0.0334  0.0832 -0.0108
 3974TIP3    H233558   3.584   3.385   8.339  0.0361 -0.3955 -1.7723
 3975TIP3   OH233559   2.316   2.231   5.869 -0.3571 -0.3595  0.0031
 3975TIP3    H133560   2.283   2.141   5.867  1.8625 -1.2503  0.5887
 3975TIP3    H233561   2.283   2.267   5.951  0.0196 -1.2036  0.5442
 3976TIP3   OH233562   1.119   1.100   2.728 -0.7188  0.6903 -0.2690
 3976TIP3    H133563   1.038   1.138   2.763 -0.8868 -0.2997  0.4584
 3976TIP3    H233564   1.187   1.161   2.757 -1.2231  1.7528 -1.2426
 3977TIP3   OH233565   0.735   4.153   0.631 -0.3303 -0.0134 -0.2906
 3977TIP3    H133566   0.644   4.177   0.648 -0.7659 -2.2411  1.0440
 3977TIP3    H233567   0.786   4.226   0.665 -1.5809  0.2081  1.2498
 3978TIP3   OH233568   5.505   4.631   6.981  0.1000  0.2143  0.1854
 3978TIP3    H133569   5.442   4.577   7.029 -0.7860  1.8781  1.0373
 3978TIP3    H233570   5.453   4.707   6.953  1.4736  1.0843 -0.0904
 3979TIP3   OH233571   5.772   2.111   8.270  0.1545 -0.4169 -0.2870
 3979TIP3    H133572   5.805   2.067   8.348  0.3071 -1.0146 -0.6920
 3979TIP3    H233573   5.748   2.199   8.301 -0.0308 -0.7334  0.4902
 3980TIP3   OH233574   2.048   4.848   8.072 -0.4951  0.3843  0.2570
 3980TIP3    H133575   1.962   4.872   8.037 -1.1408  0.4915  1.8227
 3980TIP3    H233576   2.066   4.914   8.139  0.4045 -0.1470  0.5591
 3981TIP3   OH233577   6.542   5.256   7.158  0.4755  0.1710 -0.2261
 3981TIP3    H133578   6.594   5.249   7.238  1.8509 -0.3929 -1.1242
 3981TIP3    H233579   6.541   5.167   7.121 -1.3096  0.1248 -0.1532
 3982TIP3   OH233580   3.175   4.849   8.399 -0.3216 -0.0715 -0.5084
 3982TIP3    H133581   3.249   4.811   8.351  0.1019  1.9548 -1.5432
 3982TIP3    H233582   3.105   4.855   8.334  0.1464  2.3638 -0.8670
 3983TIP3   OH233583   6.077   2.888   1.909  0.6662 -0.0464  0.0353
 3983TIP3    H133584   6.011   2.942   1.865  0.3885 -0.7902 -0.4780
 3983TIP3    H233585   6.113   2.833   1.840 -0.7351 -2.2032  0.9315
 3984TIP3   OH233586   4.244   1.270   6.384  0.7339 -0.4342 -0.1945
 3984TIP3    H133587   4.338   1.252   6.388  1.5363  2.6086 -1.6406
 3984TIP3    H233588   4.226   1.324   6.461  1.0945  1.9576 -1.6652
 3985TIP3   OH233589   2.769   3.960   1.322  0.6434 -0.1781  0.9272
 3985TIP3    H133590   2.723   4.040   1.349 -0.4789 -0.6389  0.4457
 3985TIP3    H233591   2.858   3.989   1.304 -0.3585  1.6168 -1.9932
 3986TIP3   OH233592   5.285   2.865   8.492  0.0493  0.6254  0.3835
 3986TIP3    H133593   5.325   2.936   8.441 -0.4051  0.3180 -0.4050
 3986TIP3    H233594   5.192   2.884   8.491  0.0328  0.6330  1.1462
 3987TIP3   OH233595   4.718   4.638   6.402  0.0244  0.0997  0.4330
 3987TIP3    H133596   4.673   4.586   6.335  0.3166  1.0896 -0.5727
 3987TIP3    H233597   4.808   4.607   6.399  0.8558  2.3253 -2.0542
 3988TIP3   OH233598   1.838   4.536   7.085  0.3800 -0.3794  0.1512
 3988TIP3    H133599   1.855   4.533   7.179  0.4452  0.7764  0.1935
 3988TIP3    H233600   1.918   4.574   7.048 -0.1085  0.2894 -0.2319
 3989TIP3   OH233601   6.480   5.265   7.896  0.1780 -0.0046 -0.0714
 3989TIP3    H133602   6.544   5.201   7.926 -1.1087  0.0649  3.2119
 3989TIP3    H233603   6.488   5.339   7.956 -1.5392  0.8927 -0.8512
 3990TIP3   OH233604   4.280   3.123   0.941 -0.3676  0.3640  0.5276
 3990TIP3    H133605   4.232   3.050   0.981 -0.0391 -0.1423  0.0049
 3990TIP3    H233606   4.215   3.193   0.933 -1.2521 -0.5803 -0.9284
 3991TIP3   OH233607   4.915   0.081   6.788  0.0645  0.1203  0.0806
 3991TIP3    H133608   4.918   0.166   6.832  0.7012  0.4539 -0.5939
 3991TIP3    H233609   4.927   0.101   6.695  0.6316 -0.7339 -0.0442
 3992TIP3   OH233610   5.721   5.940   6.849  0.0708  0.6929  0.2689
 3992TIP3    H133611   5.784   5.895   6.794 -0.5571  1.3881 -1.0713
 3992TIP3    H233612   5.642   5.885   6.845 -0.6451  1.7484 -1.2425
 3993TIP3   OH233613   4.677   5.140   2.610  0.3274 -0.0741  0.2668
 3993TIP3    H133614   4.636   5.060   2.642  0.6670 -0.1196  0.5961
 3993TIP3    H233615   4.604   5.199   2.591  0.1230  0.1948  1.7508
 3994TIP3   OH233616   2.178   3.012   7.491 -0.4532 -0.4437 -0.1422
 3994TIP3    H133617   2.252   3.026   7.549  0.4632 -0.2304 -1.3284
 3994TIP3    H233618   2.105   2.992   7.550 -0.1160  1.9913  1.2310
 3995TIP3   OH233619   4.610   6.800   6.821 -0.3572  0.0057  0.7464
 3995TIP3    H133620   4.566   6.865   6.875 -0.5322 -0.7935  1.5948
 3995TIP3    H233621   4.593   6.829   6.731 -0.0834  1.3371  1.1024
 3996TIP3   OH233622   2.320   1.568   1.139  0.6050 -0.7508  0.0619
 3996TIP3    H133623   2.293   1.487   1.182 -1.0780 -0.1669  0.1828
 3996TIP3    H233624   2.329   1.631   1.211 -2.0145  0.1750 -0.3178
 3997TIP3   OH233625   1.898   0.728   0.556 -0.1773 -0.1067  0.6299
 3997TIP3    H133626   1.827   0.721   0.491  1.0272 -0.0547 -0.7421
 3997TIP3    H233627   1.904   0.639   0.593 -0.6480 -0.2258  0.4384
 3998TIP3   OH233628   5.878   4.735   0.851  0.4397  0.1912  0.3829
 3998TIP3    H133629   5.888   4.726   0.946  2.1041 -0.8279  0.1581
 3998TIP3    H233630   5.949   4.681   0.815  0.7337  1.6974 -1.4212
 3999TIP3   OH233631   4.451   0.043   0.295 -1.0017 -0.5322  0.2337
 3999TIP3    H133632   4.357   0.039   0.313 -1.2604  0.3334 -0.7875
 3999TIP3    H233633   4.479   0.129   0.327 -0.9027 -0.1384 -0.8519
 4000TIP3   OH233634   5.887   6.604   1.911  0.0825 -0.0882 -0.1607
 4000TIP3    H133635   5.951   6.537   1.935  0.0856 -0.0184  0.0237
 4000TIP3    H233636   5.905   6.677   1.970 -1.0302 -0.5657  0.8007
 4001TIP3   OH233637   2.714   2.421   8.250  0.2189 -0.0350  0.6294
 4001TIP3    H133638   2.740   2.343   8.300  0.5886 -0.0025  0.4916
 4001TIP3    H233639   2.758   2.494   8.294  0.1712  0.0490  0.5381
 4002TIP3   OH233640   6.557   1.978   6.456 -0.3411  0.5897  0.3792
 4002TIP3    H133641   6.465   1.955   6.442 -0.1967 -0.2394  0.7306
 4002TIP3    H233642   6.598   1.969   6.370 -0.3375 -0.2922  0.4588
 4003TIP3   OH233643   4.209   6.754   7.542 -0.0313  0.1910 -0.1356
 4003TIP3    H133644   4.156   6.727   7.468  1.4375 -1.6329 -0.6097
 4003TIP3    H233645   4.204   6.850   7.542 -0.1458  0.2406 -2.5310
 4004TIP3   OH233646   6.822   3.352   7.770 -0.9430  0.7629 -0.2614
 4004TIP3    H133647   6.798   3.443   7.752 -2.8531 -0.1229 -2.8338
 4004TIP3    H233648   6.791   3.336   7.859 -2.8107  1.9797 -0.6471
 4005TIP3   OH233649   4.582   1.386   2.211  0.1111 -0.3082  0.5394
 4005TIP3    H133650   4.643   1.316   2.235  1.3166  0.0919 -1.1704
 4005TIP3    H233651   4.511   1.341   2.166  0.1949 -0.5711  0.6690
 4006TIP3   OH233652   3.119   5.416   1.282 -0.6320 -0.2700 -0.6217
 4006TIP3    H133653   3.184   5.472   1.240 -1.0922 -1.0245 -2.4510
 4006TIP3    H233654   3.072   5.474   1.343  2.0127  0.1788  1.1486
 4007TIP3   OH233655   4.328   3.778   1.276  0.0948 -0.1684  0.7443
 4007TIP3    H133656   4.296   3.691   1.302  0.6745 -0.4296  0.6001
 4007TIP3    H233657   4.362   3.817   1.357 -0.4775  0.0629  0.8752
 4008TIP3   OH233658   1.919   0.267   8.170  0.1791  0.6007  0.2909
 4008TIP3    H133659   1.865   0.228   8.238  1.1577 -0.1571  0.6649
 4008TIP3    H233660   1.882   0.234   8.088  0.8093 -0.9152  0.5927
 4009TIP3   OH233661   2.905   4.961   1.353 -0.8614 -0.4804 -0.2640
 4009TIP3    H133662   2.894   5.050   1.387 -1.3546 -0.4989 -0.3751
 4009TIP3    H233663   2.840   4.953   1.283 -1.1701 -1.0977  0.0774
 4010TIP3   OH233664   3.659   5.126   0.869 -0.2613  0.0902 -0.6628
 4010TIP3    H133665   3.622   5.179   0.798  0.6898  2.3292  0.4252
 4010TIP3    H233666   3.747   5.105   0.839  0.6333  2.1628  0.2948
 4011TIP3   OH233667   5.464   2.976   0.645  0.5370  0.1972  0.0538
 4011TIP3    H133668   5.470   2.926   0.564 -1.4004 -0.6148  0.3624
 4011TIP3    H233669   5.379   3.019   0.640  0.4976  0.3367  1.5489
 4012TIP3   OH233670   2.397   2.477   1.135 -0.1583 -0.1854 -0.0375
 4012TIP3    H133671   2.389   2.431   1.051  1.8903  3.3130 -2.4076
 4012TIP3    H233672   2.312   2.519   1.146 -0.5284 -0.8674 -0.1688
 4013TIP3   OH233673   5.843   1.370   0.929  0.2152 -0.3845 -0.1754
 4013TIP3    H133674   5.834   1.393   0.837 -1.4346 -1.0317 -0.2095
 4013TIP3    H233675   5.862   1.453   0.972  1.7723 -0.1929 -1.1630
 4014TIP3   OH233676   1.943   0.603   2.127  0.0377  0.5396  0.9135
 4014TIP3    H133677   2.000   0.648   2.190 -0.3413  1.3788  0.6828
 4014TIP3    H233678   1.937   0.513   2.160 -0.3253  1.0070  2.2105
 4015TIP3   OH233679   2.901   3.302   6.439  0.2012  0.5639 -0.2340
 4015TIP3    H133680   2.870   3.386   6.404 -1.0314 -0.1981 -1.0286
 4015TIP3    H233681   2.866   3.300   6.528  1.1467  1.3509  0.1762
 4016TIP3   OH233682   2.789   1.491   8.542 -0.0200  0.3858  0.7965
 4016TIP3    H133683   2.786   1.407   8.588 -0.9278  0.8006  1.5359
 4016TIP3    H233684   2.697   1.511   8.523  0.2810  0.5956 -0.5511
 4017TIP3   OH233685   1.965   4.504   8.432 -0.4740  0.5153  0.1361
 4017TIP3    H133686   2.006   4.568   8.374  0.3581  0.0650  0.2189
 4017TIP3    H233687   1.871   4.516   8.418 -0.3038  1.1280 -0.5263
 4018TIP3   OH233688   0.794   3.240   8.314  0.3418  0.2401  0.3614
 4018TIP3    H133689   0.710   3.204   8.287  0.5227  1.0818 -1.4586
 4018TIP3    H233690   0.840   3.167   8.356 -0.1144 -1.0772 -1.3329
 4019TIP3   OH233691   6.344   1.969   7.946  0.0989  0.0306 -0.5277
 4019TIP3    H133692   6.375   1.902   8.008 -0.3236  0.5526  0.2548
 4019TIP3    H233693   6.275   1.925   7.896  0.9855 -0.6459 -1.2073
 4020TIP3   OH233694   2.457   6.404   0.560 -0.0934 -0.3343 -0.1646
 4020TIP3    H133695   2.382   6.434   0.610  0.6212 -0.7446  1.2058
 4020TIP3    H233696   2.532   6.420   0.617  1.2422  2.3611 -2.3978
 4021TIP3   OH233697   5.860   3.299   8.038 -0.7590 -0.3436 -0.2101
 4021TIP3    H133698   5.847   3.276   7.946  3.9617  1.7838 -1.7061
 4021TIP3    H233699   5.821   3.386   8.047  2.0380  1.1562 -1.4785
 4022TIP3   OH233700   5.806   1.230   7.470  0.0220  0.3024 -0.1672
 4022TIP3    H133701   5.873   1.253   7.535 -0.1671  0.3442  0.0125
 4022TIP3    H233702   5.837   1.147   7.434 -0.9318 -0.8157  1.4708
 4023TIP3   OH233703   3.244   6.867   7.657  0.4072 -0.0974  0.0035
 4023TIP3    H133704   3.153   6.871   7.627  0.6344  1.7664 -0.5761
 4023TIP3    H233705   3.281   6.792   7.611 -0.2645  0.4429 -1.4686
 4024TIP3   OH233706   2.560   4.879   1.649 -0.9071  0.5648  0.3331
 4024TIP3    H133707   2.574   4.973   1.662 -0.1586  0.3644  1.0704
 4024TIP3    H233708   2.647   4.842   1.639 -1.1640 -0.1150  0.5099
 4025TIP3   OH233709   5.844   6.060   7.058 -0.9919  0.1571  0.1624
 4025TIP3    H133710   5.808   6.018   6.980  0.6584 -1.1772  0.0522
 4025TIP3    H233711   5.789   6.137   7.072 -2.7163 -0.8135 -0.9790
 4026TIP3   OH233712   6.164   4.012   0.561  0.1603  0.1450 -0.4582
 4026TIP3    H133713   6.119   4.095   0.552  1.0905  0.4361 -3.3566
 4026TIP3    H233714   6.117   3.967   0.631 -1.2092  2.5271  0.2646
 4027TIP3   OH233715   1.527   4.745   7.117  0.0070  0.3491 -0.3432
 4027TIP3    H133716   1.604   4.690   7.097  1.5912  2.5360 -0.6241
 4027TIP3    H233717   1.452   4.690   7.095  1.5285 -1.0924 -2.2706
 4028TIP3   OH233718   0.278   3.552   2.372 -0.5061  0.5682 -0.0047
 4028TIP3    H133719   0.293   3.470   2.421  2.3126  0.3568 -1.0771
 4028TIP3    H233720   0.254   3.615   2.440 -0.3601 -0.5706  1.1649
 4029TIP3   OH233721   2.647   6.826   0.979  0.6708  0.4225  0.2312
 4029TIP3    H133722   2.652   6.814   1.074  3.2885  0.0256  0.1232
 4029TIP3    H233723   2.589   6.901   0.967 -0.2546  0.0621  2.0895
 4030TIP3   OH233724   5.357   0.737   8.424  0.0844  0.0975  0.0682
 4030TIP3    H133725   5.322   0.796   8.491  2.3277  1.5059  0.1012
 4030TIP3    H233726   5.445   0.770   8.407  0.4969 -1.7654 -1.7704
 4031TIP3   OH233727   4.113   2.796   8.217  0.0848  0.3962  0.1554
 4031TIP3    H133728   4.162   2.862   8.169  0.4331 -0.0517 -0.1109
 4031TIP3    H233729   4.025   2.833   8.226  0.7514  1.7515  1.6943
 4032TIP3   OH233730   0.829   5.489   8.368 -0.6148  0.4349 -0.2101
 4032TIP3    H133731   0.843   5.467   8.460 -0.0211  2.1175  0.1424
 4032TIP3    H233732   0.785   5.412   8.331  0.3138 -0.8088  1.1503
 4033TIP3   OH233733   0.574   0.699   1.480 -0.5416  0.0734 -0.1739
 4033TIP3    H133734   0.612   0.757   1.413 -0.5534 -0.1082 -0.3378
 4033TIP3    H233735   0.589   0.745   1.563  0.1447 -0.0553 -0.2249
 4034TIP3   OH233736   3.801   4.709   1.607  0.1611 -0.0925  0.2190
 4034TIP3    H133737   3.860   4.781   1.586  1.9611 -1.5417 -0.0120
 4034TIP3    H233738   3.743   4.703   1.531  2.2576 -1.0133 -1.4389
 4035TIP3   OH233739   3.531   2.956   0.445  0.0951 -0.0417 -0.6600
 4035TIP3    H133740   3.527   2.980   0.537  0.6787 -0.4894 -0.5114
 4035TIP3    H233741   3.591   2.881   0.442 -1.6258 -1.4731 -1.1084
 4036TIP3   OH233742   5.969   0.136   1.779 -0.0437 -0.2590 -0.5714
 4036TIP3    H133743   6.019   0.215   1.757  0.8004 -0.6911 -0.2821
 4036TIP3    H233744   6.037   0.071   1.798 -0.6897 -0.2298  2.1984
 4037TIP3   OH233745   5.263   5.609   7.322  0.1239 -0.4032 -0.0957
 4037TIP3    H133746   5.200   5.557   7.372 -0.7302 -0.8170 -1.5420
 4037TIP3    H233747   5.332   5.547   7.299  1.2863  0.1311  1.7894
 4038TIP3   OH233748   1.179   3.364   1.678  0.0471  0.0656 -1.0576
 4038TIP3    H133749   1.268   3.345   1.648 -0.7232 -0.9868 -2.7579
 4038TIP3    H233750   1.139   3.279   1.691  0.5097  0.2873  3.9850
 4039TIP3   OH233751   2.904   2.940   6.794 -0.1964  0.0502  0.6386
 4039TIP3    H133752   2.890   2.853   6.831 -2.7647  0.1707  0.1085
 4039TIP3    H233753   2.954   2.987   6.862 -0.0659 -1.3523  1.5560
 4040TIP3   OH233754   4.569   3.528   6.547  0.0783  0.5642 -0.2095
 4040TIP3    H133755   4.643   3.468   6.546  0.0348  0.5048 -1.4099
 4040TIP3    H233756   4.608   3.614   6.564  0.1171  0.1990  1.6930
 4041TIP3   OH233757   2.443   4.785   7.199  0.2422  0.2160  0.1026
 4041TIP3    H133758   2.500   4.776   7.275  0.2688  3.1087  0.5625
 4041TIP3    H233759   2.488   4.849   7.143 -1.3169  0.6070 -0.7702
 4042TIP3   OH233760   6.478   5.397   7.481 -0.1760 -0.4985 -0.2061
 4042TIP3    H133761   6.513   5.457   7.546 -0.7783  0.2680 -0.5666
 4042TIP3    H233762   6.551   5.339   7.460 -0.0169 -0.8541  1.2407
 4043TIP3   OH233763   0.257   1.935   1.258 -0.0280 -0.2835  0.5149
 4043TIP3    H133764   0.320   1.891   1.315 -0.5674 -1.4672  0.2192
 4043TIP3    H233765   0.194   1.868   1.235 -0.8370  0.6328 -0.0283
 4044TIP3   OH233766   4.929   6.757   0.395  0.4486 -0.3995 -0.2665
 4044TIP3    H133767   4.980   6.735   0.473  0.9664 -0.8169 -0.7085
 4044TIP3    H233768   4.841   6.725   0.413  0.2654  0.5289  0.6003
 4045TIP3   OH233769   4.455   4.870   1.076 -0.2364  0.0923 -0.1180
 4045TIP3    H133770   4.405   4.951   1.068  0.6408  0.6785  0.1064
 4045TIP3    H233771   4.538   4.888   1.031 -0.3081 -0.9307 -0.6936
 4046TIP3   OH233772   4.983   5.480   0.318 -0.5168  0.1558 -0.1253
 4046TIP3    H133773   5.017   5.495   0.230  1.2776 -0.5105  0.3914
 4046TIP3    H233774   5.047   5.523   0.376 -0.6046 -1.0499  0.9098
 4047TIP3   OH233775   5.897   1.951   6.580  0.6457 -0.1924 -0.7090
 4047TIP3    H133776   5.878   1.959   6.673  1.7334  0.3322 -0.5095
 4047TIP3    H233777   5.932   1.863   6.570 -0.7871 -0.7625 -0.8876
 4048TIP3   OH233778   4.272   1.612   1.635  0.4962  0.1503  0.3972
 4048TIP3    H133779   4.359   1.650   1.621 -0.6663  2.7749 -0.2694
 4048TIP3    H233780   4.254   1.562   1.556  0.5731  1.3561 -0.4029
 4049TIP3   OH233781   5.131   1.493   0.363  0.5998  0.3959  0.1597
 4049TIP3    H133782   5.158   1.574   0.407  0.5926 -0.7135  2.2970
 4049TIP3    H233783   5.167   1.423   0.417 -1.6011 -1.0749 -0.1855
 4050TIP3   OH233784   0.305   1.413   7.945  0.3997  0.3319 -0.0500
 4050TIP3    H133785   0.238   1.480   7.959 -0.0917 -0.3386  0.9028
 4050TIP3    H233786   0.265   1.353   7.882 -0.1977 -0.4386  1.0294
 4051TIP3   OH233787   2.265   6.607   6.386 -0.1986 -0.0151  0.2799
 4051TIP3    H133788   2.338   6.618   6.325 -0.5221 -3.0715 -0.8109
 4051TIP3    H233789   2.189   6.637   6.337 -0.4127 -2.1806 -0.8398
 4052TIP3   OH233790   2.518   5.371   7.781 -0.6846  0.4971 -0.1488
 4052TIP3    H133791   2.511   5.467   7.780 -0.0062  0.6448  2.5366
 4052TIP3    H233792   2.612   5.353   7.774 -0.8543 -0.0466 -1.3513
 4053TIP3   OH233793   1.254   6.437   7.533  0.0857 -0.2385 -0.3606
 4053TIP3    H133794   1.214   6.426   7.619 -1.0403  2.0802 -0.5091
 4053TIP3    H233795   1.349   6.439   7.551 -0.1506  1.3525  1.0372
 4054TIP3   OH233796   1.458   4.581   6.850 -0.0324  0.0716  0.1909
 4054TIP3    H133797   1.376   4.551   6.889  0.3744 -1.9358 -0.3993
 4054TIP3    H233798   1.449   4.562   6.757 -0.9120  4.5922 -0.8693
 4055TIP3   OH233799   2.785   2.491   0.088  0.8923  0.0830 -0.3748
 4055TIP3    H133800   2.877   2.482   0.109  1.0078  0.4431 -0.7201
 4055TIP3    H233801   2.754   2.401   0.076  0.6930 -0.1998  1.8433
 4056TIP3   OH233802   0.080   2.179   8.023 -0.7122  0.5822  0.4003
 4056TIP3    H133803   0.150   2.177   8.089  0.0817  0.4502 -0.4198
 4056TIP3    H233804   0.034   2.261   8.040  0.4837  1.3358  0.1339
 4057TIP3   OH233805   4.618   3.537   7.570  0.3197  0.4261  0.5917
 4057TIP3    H133806   4.576   3.490   7.642  1.3173  0.5289  1.2712
 4057TIP3    H233807   4.595   3.488   7.492  0.4103 -0.5439  1.1620
 4058TIP3   OH233808   0.320   5.734   0.920 -0.3763 -0.5473 -0.2756
 4058TIP3    H133809   0.322   5.792   0.997  0.6937  0.6581 -1.1866
 4058TIP3    H233810   0.240   5.760   0.874  0.3727  0.6507 -0.9692
 4059TIP3   OH233811   6.179   1.558   7.619  0.5880  0.1677  0.3525
 4059TIP3    H133812   6.271   1.532   7.621  0.9476  1.3940  1.1759
 4059TIP3    H233813   6.174   1.624   7.550  0.2379 -0.1595  0.0596
 4060TIP3   OH233814   0.495   0.938   6.851 -0.2445 -0.3216  0.8118
 4060TIP3    H133815   0.470   0.854   6.814  0.7622 -0.5561  0.6463
 4060TIP3    H233816   0.537   0.985   6.778  0.9468 -0.4410  1.3894
 4061TIP3   OH233817   5.348   0.014   0.368  0.2867  0.0751 -0.3747
 4061TIP3    H133818   5.341  -0.066   0.315  0.0710 -1.0355  1.2278
 4061TIP3    H233819   5.439   0.042   0.358  0.0184  0.4529 -2.0405
 4062TIP3   OH233820   1.065   6.255   8.022  0.2260 -0.4028 -0.4051
 4062TIP3    H133821   1.011   6.190   7.977 -0.3457 -0.1843 -0.0391
 4062TIP3    H233822   1.136   6.204   8.060  0.8728 -0.5581 -1.7725
 4063TIP3   OH233823   2.355   3.191   6.805 -0.3536 -0.6101 -0.0030
 4063TIP3    H133824   2.395   3.107   6.783  0.9294 -0.1531  0.4738
 4063TIP3    H233825   2.426   3.254   6.795 -1.9343  0.9154 -3.2768
 4064TIP3   OH233826   6.486   3.121   1.014 -0.1600  0.1799  0.2520
 4064TIP3    H133827   6.568   3.094   0.973  0.0856  0.8333  0.3040
 4064TIP3    H233828   6.429   3.143   0.940  0.3930  1.6806  0.2374
 4065TIP3   OH233829   0.541   6.109   0.597  0.4476  0.5526  0.0423
 4065TIP3    H133830   0.617   6.152   0.636 -0.5022  1.8515  0.5347
 4065TIP3    H233831   0.489   6.080   0.671  0.6499 -0.7056 -0.2943
 4066TIP3   OH233832   4.457   2.184   8.390  0.1038 -0.1000 -0.2977
 4066TIP3    H133833   4.440   2.150   8.478  0.0447 -1.4620 -0.8068
 4066TIP3    H233834   4.550   2.166   8.375 -0.4543 -2.2697 -1.4667
 4067TIP3   OH233835   1.503   0.096   0.336 -0.0748  0.3196  0.4531
 4067TIP3    H133836   1.459   0.118   0.419  2.8627  2.3634  1.6216
 4067TIP3    H233837   1.461   0.151   0.271 -0.0688  1.3734  1.3107
 4068TIP3   OH233838   2.780   0.798   0.027 -0.1793  0.1697  0.2623
 4068TIP3    H133839   2.744   0.713   0.000 -0.6320 -0.3205  2.2373
 4068TIP3    H233840   2.824   0.780   0.110  2.7429  1.2223 -0.9393
 4069TIP3   OH233841   4.711   3.244   1.753 -0.0447 -0.4590 -0.0488
 4069TIP3    H133842   4.750   3.303   1.689  0.8903 -1.0765 -0.0715
 4069TIP3    H233843   4.758   3.263   1.835  1.1272 -1.9547 -0.3202
 4070TIP3   OH233844   0.558   4.538   8.488 -0.1873 -0.0974  0.6903
 4070TIP3    H133845   0.649   4.566   8.489  0.1483 -1.0960 -0.1925
 4070TIP3    H233846   0.527   4.554   8.578  0.3875  1.6558  0.6042
 4071TIP3   OH233847   2.908   0.906   2.206 -0.4514 -0.1903 -0.1024
 4071TIP3    H133848   2.880   0.841   2.270 -1.8053 -0.2328 -0.7165
 4071TIP3    H233849   2.905   0.859   2.122 -0.9741  0.5288 -0.4886
 4072TIP3   OH233850   4.088   3.221   0.245  0.4821  0.2355  0.2242
 4072TIP3    H133851   4.056   3.283   0.310  0.6723  2.3034 -1.5256
 4072TIP3    H233852   4.119   3.276   0.173  0.5674 -1.9195 -1.4943
 4073TIP3   OH233853   5.741   6.027   1.929  0.2285  0.3625  0.1040
 4073TIP3    H133854   5.711   6.077   2.004  0.3171  0.1854  0.2570
 4073TIP3    H233855   5.683   5.951   1.925  1.0653 -0.3400  0.8084
 4074TIP3   OH233856   3.176   5.379   7.615  0.1162 -0.4150  0.4203
 4074TIP3    H133857   3.137   5.296   7.586 -1.0147 -0.1018  1.0168
 4074TIP3    H233858   3.130   5.446   7.566  0.5130 -0.0860  0.4924
 4075TIP3   OH233859   5.340   0.428   6.679  0.7397 -0.1807  0.0620
 4075TIP3    H133860   5.295   0.510   6.663  2.1768  0.4431 -1.0180
 4075TIP3    H233861   5.308   0.369   6.610  0.7254 -0.0899 -0.0096
 4076TIP3   OH233862   5.993   2.103   1.283 -0.5626  0.8136  0.3553
 4076TIP3    H133863   5.988   2.132   1.374  4.1208  1.1006  0.7562
 4076TIP3    H233864   5.990   2.007   1.289 -1.2473  0.8545  0.7027
 4077TIP3   OH233865   2.459   0.964   0.670  0.3790  0.1566 -0.4052
 4077TIP3    H133866   2.424   0.905   0.737  0.9431  0.0588 -0.1980
 4077TIP3    H233867   2.504   0.906   0.609 -2.6055 -0.1544 -2.5360
 4078TIP3   OH233868   1.993   3.712   1.936  0.5134 -0.3820 -0.7100
 4078TIP3    H133869   1.986   3.618   1.950 -0.6556 -0.4019 -1.3294
 4078TIP3    H233870   2.037   3.720   1.851  1.0964 -0.3556 -0.4093
 4079TIP3   OH233871   5.469   2.845   7.572 -0.2844  0.0966 -0.4159
 4079TIP3    H133872   5.389   2.807   7.608 -0.7747  0.4678 -1.0856
 4079TIP3    H233873   5.439   2.906   7.504  0.4438  1.9686  0.8503
 4080TIP3   OH233874   5.863   6.768   1.709 -0.1610 -0.3979  0.2832
 4080TIP3    H133875   5.872   6.723   1.793  0.4000  0.3685  0.6470
 4080TIP3    H233876   5.784   6.821   1.719  0.5835  0.6486  0.7992
 4081TIP3   OH233877   0.071   6.446   0.005 -0.3273 -0.8419  0.2326
 4081TIP3    H133878   0.075   6.528  -0.045 -2.2075 -1.3190 -0.7946
 4081TIP3    H233879   0.022   6.469   0.084  1.2551 -0.4567  1.1374
 4082TIP3   OH233880   6.726   6.881   0.707  0.4345  0.0252 -0.4108
 4082TIP3    H133881   6.634   6.900   0.692  0.5068 -0.0288 -0.9587
 4082TIP3    H233882   6.739   6.794   0.667  0.5652 -0.2785  0.2774
 4083TIP3   OH233883   3.373   4.182   8.108  0.8015  0.0049  0.0763
 4083TIP3    H133884   3.311   4.246   8.142 -1.0263 -1.6780  0.0566
 4083TIP3    H233885   3.436   4.234   8.058  0.7970  2.0112  2.0228
 4084TIP3   OH233886   6.414   5.666   0.640  0.6045  0.5458 -0.0626
 4084TIP3    H133887   6.404   5.675   0.545  0.8455  2.2024  0.0273
 4084TIP3    H233888   6.335   5.621   0.668  0.6058 -0.1209 -1.0548
 4085TIP3   OH233889   2.104   2.783   2.895  0.2906 -0.0479 -0.3908
 4085TIP3    H133890   2.163   2.771   2.820  0.9869 -0.8023  0.2451
 4085TIP3    H233891   2.151   2.843   2.953  0.6995 -1.0406  0.3489
 4086TIP3   OH233892   4.152   4.683   6.823  0.2926 -0.2000  0.5303
 4086TIP3    H133893   4.166   4.639   6.907 -0.5812 -0.0656  0.7535
 4086TIP3    H233894   4.240   4.710   6.795  0.4272  1.3317  2.2757
 4087TIP3   OH233895   1.620   1.186   1.773 -0.0173 -0.2750 -0.0273
 4087TIP3    H133896   1.651   1.166   1.862  0.3631  0.6001  0.0453
 4087TIP3    H233897   1.679   1.137   1.716 -0.2264 -0.7958  0.1987
 4088TIP3   OH233898   1.945   4.858   7.324 -0.1867  0.4724  0.5040
 4088TIP3    H133899   1.857   4.872   7.288 -0.0082  1.2179  0.3556
 4088TIP3    H233900   2.004   4.881   7.252  0.1740  1.8008  1.1923
 4089TIP3   OH233901   1.144   1.510   2.351  0.3802  0.5397  0.0534
 4089TIP3    H133902   1.060   1.544   2.320 -0.7882 -0.4950  1.9367
 4089TIP3    H233903   1.171   1.571   2.419  1.4135  1.0879 -0.8026
 4090TIP3   OH233904   4.394   1.498   7.873 -0.0613 -0.2505 -0.7076
 4090TIP3    H133905   4.475   1.541   7.903  0.8345 -0.5542 -2.5337
 4090TIP3    H233906   4.374   1.541   7.790 -1.7306 -0.2881 -0.3549
 4091TIP3   OH233907   1.091   5.468   0.172 -0.4423  0.2498  0.0332
 4091TIP3    H133908   1.139   5.511   0.243 -2.2560  0.1751  1.3766
 4091TIP3    H233909   1.154   5.463   0.100  0.4893  3.2882  0.4941
 4092TIP3   OH233910   5.102   2.018   0.436  0.3690  0.1270 -0.3579
 4092TIP3    H133911   5.090   1.929   0.405 -1.0936 -0.4842  1.7443
 4092TIP3    H233912   5.015   2.057   0.433  0.5097  0.6157  1.1476
 4093TIP3   OH233913   2.910   6.551   0.796 -0.2877 -0.0320 -0.3893
 4093TIP3    H133914   2.923   6.458   0.816 -0.3787  0.2865  1.3363
 4093TIP3    H233915   2.993   6.592   0.818 -1.0676  0.6490  1.4941
 4094TIP3   OH233916   4.154   2.142   7.140  0.4785 -0.3221 -0.3334
 4094TIP3    H133917   4.128   2.142   7.048  1.2575  1.2624 -0.5874
 4094TIP3    H233918   4.098   2.208   7.180 -1.3695 -2.4626  0.8477
 4095TIP3   OH233919   3.500   5.243   7.768  0.1554  0.5821 -0.1425
 4095TIP3    H133920   3.534   5.259   7.856 -1.4597 -1.4500  0.9734
 4095TIP3    H233921   3.413   5.282   7.768 -0.2494 -0.2788 -0.4604
 4096TIP3   OH233922   0.221   2.923   8.268  0.2271 -0.0287 -0.4410
 4096TIP3    H133923   0.282   2.893   8.201  0.1788 -0.2293 -0.3970
 4096TIP3    H233924   0.154   2.972   8.220 -1.1244 -2.1582 -0.8844
 4097TIP3   OH233925   6.051   1.721   1.871 -0.3364 -0.2740  0.1655
 4097TIP3    H133926   5.967   1.728   1.917 -0.3998  0.4178 -0.0476
 4097TIP3    H233927   6.107   1.671   1.931  0.5135  3.0110  2.3969
 4098TIP3   OH233928   2.896   0.776   0.298  0.0808 -0.2345 -0.3781
 4098TIP3    H133929   2.948   0.740   0.370  0.6805  0.8468 -0.2648
 4098TIP3    H233930   2.828   0.827   0.341  1.7382  2.2753 -0.5274
 4099TIP3   OH233931   0.263   2.385   8.628 -0.2731 -0.3526  0.2729
 4099TIP3    H133932   0.285   2.341   8.710 -2.9151 -0.6965  0.8965
 4099TIP3    H233933   0.271   2.317   8.561  1.1207 -0.2737  0.3402
 4100TIP3   OH233934   0.158   0.852   0.890  0.3132 -0.8862 -0.0376
 4100TIP3    H133935   0.130   0.846   0.982 -1.9182 -2.6000 -0.7484
 4100TIP3    H233936   0.183   0.763   0.867 -1.1098 -0.9053 -1.6424
 4101TIP3   OH233937   3.228   0.875   1.344  0.0184 -0.5384 -0.2776
 4101TIP3    H133938   3.153   0.923   1.378  0.3967 -0.0726 -0.1025
 4101TIP3    H233939   3.249   0.918   1.261 -0.1975 -0.9649 -0.5610
 4102TIP3   OH233940   5.558   0.998   0.261  0.2628 -0.0415 -0.6111
 4102TIP3    H133941   5.549   1.039   0.175 -1.9924 -1.6813 -1.2513
 4102TIP3    H233942   5.569   0.904   0.241  0.2630 -0.3692  0.8642
 4103TIP3   OH233943   0.749   2.454   0.150  0.0603  0.5159  0.4185
 4103TIP3    H133944   0.700   2.527   0.112  1.7141  0.9524 -0.9673
 4103TIP3    H233945   0.834   2.455   0.106  0.6505 -1.3954  1.3679
 4104TIP3   OH233946   1.924   0.246   1.231  0.1566  0.1958 -0.0454
 4104TIP3    H133947   1.972   0.184   1.176  0.3004  0.0164  0.2775
 4104TIP3    H233948   1.970   0.329   1.220 -1.0064  0.6769 -1.7789
 4105TIP3   OH233949   3.413   0.203   7.706  0.1042 -0.0495 -0.2265
 4105TIP3    H133950   3.356   0.278   7.723  1.1499  1.6317 -3.3183
 4105TIP3    H233951   3.356   0.139   7.662 -0.4066 -0.4246  0.9364
 4106TIP3   OH233952   0.175   3.409   6.842 -0.4416  0.3080 -0.4290
 4106TIP3    H133953   0.205   3.459   6.766  1.6419 -0.6648 -0.3041
 4106TIP3    H233954   0.128   3.335   6.805 -1.1890  0.8810 -0.6731
 4107TIP3   OH233955   6.081   4.623   1.198  0.3927  0.1045  0.4549
 4107TIP3    H133956   6.137   4.664   1.133  0.8407 -0.3053  0.5781
 4107TIP3    H233957   6.139   4.605   1.272 -0.1140  0.5881  0.9864
 4108TIP3   OH233958   4.255   1.970   1.142  0.2569 -0.4731  0.4897
 4108TIP3    H133959   4.182   1.937   1.089  0.2068 -0.3883  0.5048
 4108TIP3    H233960   4.224   2.055   1.174  1.7186  1.3314 -2.4848
 4109TIP3   OH233961   1.635   3.435   6.636  0.8973 -0.1544 -0.2183
 4109TIP3    H133962   1.642   3.426   6.731  1.7540 -1.7796 -0.4091
 4109TIP3    H233963   1.543   3.460   6.622  0.1730 -1.9616  0.9259
 4110TIP3   OH233964   3.959   5.299   8.450  0.0295  0.5032  0.1251
 4110TIP3    H133965   3.945   5.257   8.365  1.7421  1.5787 -0.7483
 4110TIP3    H233966   3.894   5.369   8.453  0.0868  0.5830 -0.4036
 4111TIP3   OH233967   3.162   3.443   0.309 -0.0573  0.4417  0.3919
 4111TIP3    H133968   3.187   3.450   0.217 -1.7863  0.9597 -0.0697
 4111TIP3    H233969   3.235   3.397   0.350  0.7883  0.2790 -1.2172
 4112TIP3   OH233970   6.826   1.212   1.236  0.8899 -0.2783 -0.3545
 4112TIP3    H133971   6.754   1.150   1.228  0.7626 -0.2735  0.6396
 4112TIP3    H233972   6.792   1.294   1.200  0.5328 -0.3795 -0.2493
 4113TIP3   OH233973   3.397   4.136   2.216  0.1035 -0.5922  0.2335
 4113TIP3    H133974   3.426   4.063   2.271  0.0195 -0.2916  0.6825
 4113TIP3    H233975   3.409   4.214   2.271 -0.8149 -0.3812  0.1490
 4114TIP3   OH233976   6.890   5.399   2.486  0.3351 -0.0316 -0.3012
 4114TIP3    H133977   6.812   5.354   2.456 -0.6800  1.1878  0.3936
 4114TIP3    H233978   6.955   5.330   2.497 -0.3109 -0.9381 -1.8695
 4115TIP3   OH233979   1.394   6.602   8.457  0.3264 -0.3285  0.3149
 4115TIP3    H133980   1.372   6.523   8.407 -0.5517 -0.2890  0.6259
 4115TIP3    H233981   1.351   6.590   8.542 -1.0421  1.1039 -0.1246
 4116TIP3   OH233982   2.077   5.122   2.351 -0.0337 -0.1436  0.3575
 4116TIP3    H133983   2.081   5.043   2.297 -3.3808 -0.0028 -0.2780
 4116TIP3    H233984   1.984   5.142   2.358  0.5496  2.3788  2.5725
 4117TIP3   OH233985   0.816   4.299   6.957  0.3349 -0.2356  0.8166
 4117TIP3    H133986   0.811   4.394   6.972 -1.0456  0.2611 -2.0646
 4117TIP3    H233987   0.760   4.261   7.024 -0.2743  1.1438  1.1182
 4118TIP3   OH233988   0.945   6.277   0.958  0.1204  0.7641  0.1172
 4118TIP3    H133989   0.896   6.286   0.876 -1.3440  0.8544  0.9723
 4118TIP3    H233990   0.884   6.303   1.026  1.1699  0.2742  1.2971
 4119TIP3   OH233991   5.714   2.046   8.555 -0.4167  0.4377  0.3284
 4119TIP3    H133992   5.651   2.033   8.626  0.4769  2.4971  1.5801
 4119TIP3    H233993   5.712   2.140   8.537 -1.1649 -0.0953 -2.9697
 4120TIP3   OH233994   0.709   4.128   2.302  0.0582  0.1995 -0.0183
 4120TIP3    H133995   0.704   4.214   2.342  0.3058 -0.3752  1.3127
 4120TIP3    H233996   0.620   4.093   2.308 -0.5323  1.1178 -2.4160
 4121TIP3   OH233997   6.788   4.219   0.583  0.1351 -0.7503 -0.4396
 4121TIP3    H133998   6.803   4.253   0.671  1.4661  0.2743 -1.0285
 4121TIP3    H233999   6.768   4.126   0.596  0.5620 -0.6703  0.9135
 4122TIP3   OH234000   1.317   3.574   0.457 -0.2663 -0.4169 -0.0325
 4122TIP3    H134001   1.256   3.521   0.508 -0.7688 -0.8947 -1.1016
 4122TIP3    H234002   1.292   3.559   0.366 -1.3366  2.7448 -0.3792
 4123TIP3   OH234003   0.742   5.172   1.086  0.2120 -0.6996 -0.6407
 4123TIP3    H134004   0.828   5.141   1.060 -0.1728 -0.8799 -1.7622
 4123TIP3    H234005   0.716   5.114   1.158  0.1785 -2.0091 -1.6564
 4124TIP3   OH234006   1.345   2.490   1.316  0.2994 -0.4727 -0.0966
 4124TIP3    H134007   1.307   2.442   1.390  2.3581  0.4024  1.6281
 4124TIP3    H234008   1.277   2.552   1.291 -0.5283 -0.9270  0.9163
 4125TIP3   OH234009   5.518   0.814   8.181 -0.4815  0.0903  0.1951
 4125TIP3    H134010   5.431   0.800   8.145 -0.3665  1.8105 -0.9086
 4125TIP3    H234011   5.570   0.740   8.150 -1.2394 -0.2529 -0.2552
 4126TIP3   OH234012   4.811   4.326   7.894  0.1600 -0.2888 -0.3131
 4126TIP3    H134013   4.886   4.374   7.859  0.5885 -0.6640  0.0875
 4126TIP3    H234014   4.829   4.318   7.987  0.2696 -1.5447 -0.4294
 4127TIP3   OH234015   3.221   5.134   8.062 -0.0277 -0.3087  0.0207
 4127TIP3    H134016   3.134   5.102   8.085  0.7558 -2.2777  0.4508
 4127TIP3    H234017   3.213   5.164   7.972 -0.8292 -1.7845 -0.4234
 4128TIP3   OH234018   2.779   6.206   7.288  0.0692 -0.2040 -0.2801
 4128TIP3    H134019   2.855   6.255   7.256  0.4391 -1.0910 -0.8133
 4128TIP3    H234020   2.705   6.241   7.240  0.7672 -2.3576 -3.1970
 4129TIP3   OH234021   0.921   3.143   7.245 -0.0547 -0.6139 -0.1842
 4129TIP3    H134022   0.932   3.048   7.248 -1.3173 -0.7529  1.1006
 4129TIP3    H234023   0.826   3.155   7.246  0.0985  0.6702 -0.1830
 4130TIP3   OH234024   4.355   4.350   2.138 -0.0438  0.4871  0.2182
 4130TIP3    H134025   4.296   4.348   2.213 -0.9357 -0.5276 -0.4783
 4130TIP3    H234026   4.375   4.258   2.122 -1.1423  0.5355 -1.7456
 4131TIP3   OH234027   6.223   4.883   0.848  0.2148 -0.0222  0.3589
 4131TIP3    H134028   6.306   4.890   0.895  0.0268  0.9298  0.5513
 4131TIP3    H234029   6.162   4.938   0.897 -0.6415 -0.9900  0.4342
 4132TIP3   OH234030   3.241   5.539   0.033 -0.3616 -0.8540  0.6594
 4132TIP3    H134031   3.199   5.469   0.084 -1.1437 -0.0824  1.1043
 4132TIP3    H234032   3.168   5.584  -0.011  0.1830 -0.6612 -0.0699
 4133TIP3   OH234033   6.440   2.536   1.809 -0.0005  0.3907  0.1097
 4133TIP3    H134034   6.508   2.582   1.759  0.4139  0.0869  0.3927
 4133TIP3    H234035   6.363   2.539   1.752  0.7042 -0.7238 -0.9569
 4134TIP3   OH234036   0.056   6.167   7.403  0.3165  0.2934  0.5049
 4134TIP3    H134037   0.022   6.090   7.357 -0.4255 -0.2181  1.8515
 4134TIP3    H234038   0.138   6.136   7.443  0.4234  0.4372  0.3989
 4135TIP3   OH234039   6.664   5.439   7.703  0.1996  0.0245  0.6080
 4135TIP3    H134040   6.697   5.499   7.770 -0.3361 -0.2090  1.0983
 4135TIP3    H234041   6.723   5.364   7.707  1.1484  0.7098 -0.3309
 4136TIP3   OH234042   5.526   3.824   6.522 -0.2133 -0.6841 -0.1860
 4136TIP3    H134043   5.577   3.792   6.595 -1.6185 -2.1573  0.2020
 4136TIP3    H234044   5.547   3.918   6.517  1.3441 -0.9457  0.8562
 4137TIP3   OH234045   2.909   5.432   8.614  0.1799  0.4165 -0.7042
 4137TIP3    H134046   2.863   5.516   8.611 -0.5175  0.0087 -1.9090
 4137TIP3    H234047   2.907   5.408   8.707 -2.1726  0.3574 -0.7174
 4138TIP3   OH234048   3.238   1.094   7.917 -0.5051  0.4042  0.6886
 4138TIP3    H134049   3.331   1.101   7.938 -0.3098  2.0523 -0.5033
 4138TIP3    H234050   3.235   1.060   7.828 -0.9028  2.3141 -0.0841
 4139TIP3   OH234051   6.457   5.641   0.372  0.5694 -0.1716  0.6599
 4139TIP3    H134052   6.465   5.682   0.285 -0.4052  0.8271  1.0204
 4139TIP3    H234053   6.471   5.548   0.356  3.4875  0.2754 -0.1205
 4140TIP3   OH234054   6.701   3.947   7.172 -0.1048 -0.2425 -0.6444
 4140TIP3    H134055   6.640   3.958   7.099 -0.3355  0.5072 -0.3501
 4140TIP3    H234056   6.748   4.030   7.176  1.1618 -0.9246 -1.0624
 4141TIP3   OH234057   4.424   5.783   7.852  0.8136  0.4808 -0.0668
 4141TIP3    H134058   4.401   5.868   7.816  0.2206 -0.4057 -1.9480
 4141TIP3    H234059   4.354   5.763   7.914  0.4831  1.0101 -0.2662
 4142TIP3   OH234060   4.006   4.939   1.597 -0.1649  0.2466  0.1207
 4142TIP3    H134061   3.991   5.012   1.657  2.7235  0.0315  1.2756
 4142TIP3    H234062   4.099   4.946   1.574  0.1886 -2.9603  0.1846
 4143TIP3   OH234063   1.338   3.222   1.501  0.2620 -0.1544  0.1591
 4143TIP3    H134064   1.397   3.297   1.508 -0.6128  0.4561  1.3695
 4143TIP3    H234065   1.393   3.151   1.468  1.0221  1.0913 -1.3471
 4144TIP3   OH234066   0.526   2.710   0.240  0.2833  0.1962 -0.1843
 4144TIP3    H134067   0.490   2.699   0.151 -0.5287  2.0138 -0.1232
 4144TIP3    H234068   0.533   2.805   0.251  2.3321 -0.0509  0.9584
 4145TIP3   OH234069   5.203   2.188   1.910 -0.5065 -0.0195  0.8569
 4145TIP3    H134070   5.275   2.232   1.956 -0.4968  1.4301 -0.4807
 4145TIP3    H234071   5.146   2.157   1.980 -0.1561  1.5471  1.8727
 4146TIP3   OH234072   0.472   0.451   2.350 -0.1388 -0.0780  0.0503
 4146TIP3    H134073   0.413   0.379   2.327  0.9755 -0.8628 -0.4074
 4146TIP3    H234074   0.433   0.488   2.430 -1.1848 -0.6423 -0.1688
 4147TIP3   OH234075   1.385   0.623   8.141  0.3519  0.4186 -0.0222
 4147TIP3    H134076   1.327   0.597   8.213 -0.9450  0.1718 -1.1197
 4147TIP3    H234077   1.328   0.671   8.081  1.6899  1.7488 -0.2929
 4148TIP3   OH234078   5.021   1.239   1.684  0.0303 -0.4843 -0.1303
 4148TIP3    H134079   5.023   1.191   1.767 -2.7579 -0.5474  0.0014
 4148TIP3    H234080   5.091   1.200   1.632  0.8160 -1.5348  1.6340
 4149TIP3   OH234081   6.195   0.395   7.888  0.2981 -0.6425 -0.0163
 4149TIP3    H134082   6.249   0.339   7.944  0.4462 -0.9869 -0.4948
 4149TIP3    H234083   6.166   0.466   7.946  2.3475  0.2958 -0.0384
 4150TIP3   OH234084   3.307   1.445   6.072  0.6220  0.8654 -0.3185
 4150TIP3    H134085   3.231   1.496   6.044  1.4940  1.7399 -1.1624
 4150TIP3    H234086   3.381   1.487   6.028  1.4532 -0.6962 -0.4510
 4151TIP3   OH234087   3.548   0.446   1.724 -0.3016 -0.0559  0.3253
 4151TIP3    H134088   3.561   0.354   1.747  0.1538 -0.5451 -1.6925
 4151TIP3    H234089   3.621   0.467   1.665 -0.7501  1.4184  0.2521
 4152TIP3   OH234090   3.915   4.410   0.599 -0.1765  0.5678 -0.1031
 4152TIP3    H134091   3.908   4.485   0.658 -1.5469  0.6333 -0.3055
 4152TIP3    H234092   3.829   4.405   0.558  0.0722 -0.8001 -0.4872
 4153TIP3   OH234093   2.664   2.183   7.979 -0.3164  0.7621 -0.3835
 4153TIP3    H134094   2.639   2.128   7.904  0.7862 -0.3930  0.0405
 4153TIP3    H234095   2.664   2.272   7.945 -1.2653  0.4100 -1.3556
 4154TIP3   OH234096   2.659   6.509   7.451  0.4097  0.3557  0.1911
 4154TIP3    H134097   2.689   6.551   7.370  0.0928  0.2422  0.0110
 4154TIP3    H234098   2.568   6.484   7.432  0.8682 -1.2330 -0.0373
 4155TIP3   OH234099   6.778   2.733   6.937  0.3276 -0.0860 -0.1831
 4155TIP3    H134100   6.689   2.712   6.906  0.2342 -0.3744  0.2747
 4155TIP3    H234101   6.831   2.732   6.858 -0.3643  1.7347 -0.7212
 4156TIP3   OH234102   1.339   6.888   1.785  0.0284  0.3786  0.1965
 4156TIP3    H134103   1.304   6.964   1.832 -1.1978  0.0404 -0.1211
 4156TIP3    H234104   1.339   6.914   1.693 -0.1161  0.0946  0.1161
 4157TIP3   OH234105   0.149   3.887   8.415  0.2258  0.0827 -0.3137
 4157TIP3    H134106   0.232   3.886   8.462  0.3257  2.5325 -0.3373
 4157TIP3    H234107   0.083   3.871   8.483  0.5027  1.6739  0.3611
 4158TIP3   OH234108   3.916   5.394   7.155 -0.2680 -0.5538  0.5405
 4158TIP3    H134109   3.865   5.441   7.090  1.1777 -1.3389 -1.2767
 4158TIP3    H234110   3.892   5.433   7.239 -3.4330 -0.5924 -0.2454
 4159TIP3   OH234111   2.694   4.944   1.173 -0.0798 -0.1171 -0.1787
 4159TIP3    H134112   2.628   5.001   1.213  0.8935  0.9420 -0.0196
 4159TIP3    H234113   2.652   4.859   1.166 -1.0337  0.2255  1.0802
 4160TIP3   OH234114   1.764   3.152   2.046  0.2171  0.3916  0.4202
 4160TIP3    H134115   1.732   3.241   2.033  1.8275  1.1138  1.1304
 4160TIP3    H234116   1.686   3.102   2.072 -0.6684  1.6356  0.2184
 4161TIP3   OH234117   3.408   0.417   6.801 -0.1868  0.4573  0.2519
 4161TIP3    H134118   3.447   0.426   6.714  1.2517 -1.4434  0.6252
 4161TIP3    H234119   3.454   0.480   6.856  2.1939 -1.3960  0.5685
 4162TIP3   OH234120   6.353   4.990   8.281 -0.2184  0.3748 -0.3471
 4162TIP3    H134121   6.381   5.059   8.341  0.6999 -0.0713 -0.2484
 4162TIP3    H234122   6.334   5.035   8.199  1.4599  0.6409 -0.6287
 4163TIP3   OH234123   2.257   1.302   6.903  0.3886  0.1485  0.3286
 4163TIP3    H134124   2.280   1.312   6.996 -0.6213 -3.0269  1.0534
 4163TIP3    H234125   2.238   1.209   6.893  0.3842  0.3840 -3.1044
 4164TIP3   OH234126   2.883   1.172   1.242 -0.1914  0.4175 -0.7652
 4164TIP3    H134127   2.968   1.217   1.243  0.2782 -0.4567  0.4866
 4164TIP3    H234128   2.899   1.092   1.192 -0.0393 -0.1536  0.1711
 4165TIP3   OH234129   4.897   6.274   7.611 -0.3982  0.3294  0.4196
 4165TIP3    H134130   4.841   6.310   7.543  0.6873  1.0534 -0.1026
 4165TIP3    H234131   4.978   6.324   7.606 -0.5895  1.0038  2.8224
 4166TIP3   OH234132   5.199   0.769   0.768 -0.5444  0.3695  0.2789
 4166TIP3    H134133   5.239   0.853   0.791  0.2581 -0.0854  0.5854
 4166TIP3    H234134   5.123   0.792   0.715  1.4136  1.2115 -2.3640
 4167TIP3   OH234135   3.916   5.763   7.315  0.3086  0.1800 -0.1091
 4167TIP3    H134136   4.003   5.803   7.308  0.2754  0.9191  2.6258
 4167TIP3    H234137   3.930   5.686   7.371 -0.5347 -0.6641 -1.0382
 4168TIP3   OH234138   5.710   0.065   8.040  1.0267  0.0997  0.2101
 4168TIP3    H134139   5.772   0.115   7.986 -0.2958  1.0783 -0.4652
 4168TIP3    H234140   5.639   0.043   7.980 -0.0834  0.4763  1.3406
 4169TIP3   OH234141   2.581   2.414   0.615  0.1024 -0.0992 -0.1244
 4169TIP3    H134142   2.573   2.329   0.659 -0.8596  0.4101  0.7439
 4169TIP3    H234143   2.653   2.457   0.660  0.0585 -0.1357 -0.0192
 4170TIP3   OH234144   4.949   4.800   0.862 -0.5841 -0.4768  0.0240
 4170TIP3    H134145   4.957   4.719   0.913  2.5890 -0.5899 -0.4024
 4170TIP3    H234146   4.996   4.782   0.781  1.3845  2.0981  0.4348
 4171TIP3   OH234147   2.296   6.470   7.799  0.4299 -0.1934  0.9069
 4171TIP3    H134148   2.301   6.457   7.894  0.0815  0.3782  1.0067
 4171TIP3    H234149   2.330   6.558   7.785 -0.4583  0.1139  0.6178
 4172TIP3   OH234150   2.644   3.807   7.795 -0.8923 -0.1632  0.0186
 4172TIP3    H134151   2.728   3.773   7.765 -1.0341  0.1963 -0.8219
 4172TIP3    H234152   2.586   3.797   7.720 -1.3382  0.5083  0.2634
 4173TIP3   OH234153   4.991   5.816   8.507 -0.2987 -0.1699  0.1599
 4173TIP3    H134154   4.995   5.841   8.415  2.0848  1.0695  0.5280
 4173TIP3    H234155   5.046   5.738   8.514  1.2163  0.8950  0.7950
 4174TIP3   OH234156   6.077   3.877   7.728 -0.2634 -0.1918 -1.0033
 4174TIP3    H134157   6.118   3.902   7.645 -0.2295 -0.0748 -0.9516
 4174TIP3    H234158   6.132   3.918   7.794 -1.1830  1.0352 -0.9640
 4175TIP3   OH234159   2.577   3.299   6.671  0.3467  0.1140  0.1678
 4175TIP3    H134160   2.568   3.311   6.576  0.6681 -0.7604  0.0213
 4175TIP3    H234161   2.625   3.217   6.681  0.9174  0.5479  1.0863
 4176TIP3   OH234162   5.893   2.091   1.815  0.4372  0.0174 -0.1328
 4176TIP3    H134163   5.839   2.029   1.864 -0.6750 -0.2560 -1.6078
 4176TIP3    H234164   5.975   2.044   1.798 -0.1874 -0.8812 -0.7788
 4177TIP3   OH234165   1.402   2.629   1.799 -0.0702  0.1985  0.3795
 4177TIP3    H134166   1.343   2.602   1.869  0.1468  0.2646  0.5914
 4177TIP3    H234167   1.476   2.570   1.806 -0.1864  0.0091  0.0076
 4178TIP3   OH234168   6.483   5.937   0.754  0.1140  0.3031 -0.2831
 4178TIP3    H134169   6.464   5.905   0.842 -0.1006  0.6325 -0.2032
 4178TIP3    H234170   6.534   5.868   0.713  2.0870  1.0230  0.8172
 4179TIP3   OH234171   4.460   3.893   8.381  0.4927 -0.2716  0.8217
 4179TIP3    H134172   4.385   3.900   8.440  0.5557 -0.2634  0.9017
 4179TIP3    H234173   4.428   3.926   8.297 -0.4089 -2.6938  0.1148
 4180TIP3   OH234174   4.195   4.323   2.358 -0.0385 -0.1324  0.2098
 4180TIP3    H134175   4.153   4.394   2.407 -0.9063 -0.9621  0.6995
 4180TIP3    H234176   4.161   4.243   2.398  1.9447 -0.8452  0.5634
 4181TIP3   OH234177   3.977   6.707   1.656  0.4772 -0.3697  0.4857
 4181TIP3    H134178   4.050   6.760   1.625  2.4239 -1.9282  2.1498
 4181TIP3    H234179   3.900   6.763   1.644  2.2162  2.2826  0.9227
 4182TIP3   OH234180   3.761   5.584   7.000  0.1821  0.5064  0.0507
 4182TIP3    H134181   3.782   5.677   7.006 -0.0062  0.5648 -0.2086
 4182TIP3    H234182   3.739   5.569   6.908  0.4257  0.1588  0.0445
 4183TIP3   OH234183   4.295   6.631   1.232  0.0730 -0.2058  0.2264
 4183TIP3    H134184   4.342   6.622   1.315  0.6353  0.9196  0.0512
 4183TIP3    H234185   4.338   6.705   1.188 -2.2795  1.3502  0.3482
 4184TIP3   OH234186   5.557   2.940   0.355 -0.2586 -0.1128 -0.4448
 4184TIP3    H134187   5.475   2.895   0.376  0.6647 -1.3249  0.7023
 4184TIP3    H234188   5.550   2.959   0.261 -2.3032  0.8271 -0.1637
 4185TIP3   OH234189   3.292   2.371   1.905 -0.0382 -0.4501 -0.0648
 4185TIP3    H134190   3.348   2.323   1.966 -0.5297 -0.0203  0.7446
 4185TIP3    H234191   3.209   2.324   1.907 -0.0999 -0.3500 -0.2920
 4186TIP3   OH234192   0.528   5.011   0.095  0.3535  0.0131  0.0531
 4186TIP3    H134193   0.465   5.062   0.044 -1.9513 -1.5062  1.2102
 4186TIP3    H234194   0.591   4.980   0.031  0.3167  2.0631 -1.0847
 4187TIP3   OH234195   6.558   3.315   7.420  0.2511  0.1442 -0.1337
 4187TIP3    H134196   6.514   3.398   7.437 -0.9609 -0.4498 -0.2711
 4187TIP3    H234197   6.536   3.294   7.329  1.0681 -0.0320 -0.3045
 4188TIP3   OH234198   2.193   3.264   8.532 -0.1172 -0.2816  0.7684
 4188TIP3    H134199   2.281   3.273   8.495 -0.7830  1.0382 -0.5730
 4188TIP3    H234200   2.182   3.342   8.587 -0.5388 -0.3135  0.7319
 4189TIP3   OH234201   3.931   3.632   0.414  0.2563  0.3429  0.0556
 4189TIP3    H134202   3.973   3.641   0.328  1.0608  0.3760  0.4367
 4189TIP3    H234203   3.936   3.538   0.432 -1.9191 -0.0108 -0.8913
 4190TIP3   OH234204   2.130   2.062   6.323  0.2064  0.0560  0.2506
 4190TIP3    H134205   2.118   1.972   6.354  0.2782  0.3234  1.0853
 4190TIP3    H234206   2.200   2.097   6.379 -1.0885  1.2202  1.1993
 4191TIP3   OH234207   4.103   2.874   0.971 -0.1470  0.0350  0.4990
 4191TIP3    H134208   4.017   2.841   0.945 -0.3263 -0.0574  1.1950
 4191TIP3    H234209   4.135   2.809   1.034 -0.9994  1.7072  2.8172
 4192TIP3   OH234210   2.313   1.304   1.269  0.1763  0.5421  0.1522
 4192TIP3    H134211   2.241   1.259   1.312 -0.2544  1.5250  0.4979
 4192TIP3    H234212   2.368   1.335   1.340  2.1704 -2.0499 -0.1271
 4193TIP3   OH234213   0.110   2.487   8.404 -0.4085 -0.2105 -0.2011
 4193TIP3    H134214   0.188   2.466   8.454 -0.3064 -0.9237 -0.6392
 4193TIP3    H234215   0.056   2.538   8.464  0.6466  0.8228 -0.0954
 4194TIP3   OH234216   4.039   4.206   7.254  0.4710  0.7632 -0.1427
 4194TIP3    H134217   3.999   4.274   7.308 -1.2912  0.3038 -0.7906
 4194TIP3    H234218   4.011   4.226   7.165  1.7463  0.4170 -0.6480
 4195TIP3   OH234219   6.063   1.438   2.007  0.1317 -0.1019 -0.2123
 4195TIP3    H134220   6.104   1.494   2.073  1.7398 -2.2786  0.7548
 4195TIP3    H234221   6.007   1.379   2.058 -0.8425  0.0008 -1.1257
 4196TIP3   OH234222   5.182   3.994   7.560 -0.0609 -0.2797  0.2144
 4196TIP3    H134223   5.099   3.966   7.599 -0.1610  1.2221  1.1253
 4196TIP3    H234224   5.158   4.065   7.501  0.6870  0.9433  1.3491
 4197TIP3   OH234225   0.173   4.869   8.324 -0.0408 -0.4352  0.5190
 4197TIP3    H134226   0.151   4.827   8.407  1.2362 -1.9953  0.1243
 4197TIP3    H234227   0.139   4.809   8.257  1.3712 -0.6343 -0.0594
 4198TIP3   OH234228   0.575   5.436   8.584  0.2754  0.0153  0.1273
 4198TIP3    H134229   0.637   5.509   8.586  0.6867 -0.3088  3.1883
 4198TIP3    H234230   0.574   5.402   8.673 -1.8772 -2.0992 -0.5873
 4199TIP3   OH234231   5.787   4.478   0.549  0.0740  0.2341  0.4161
 4199TIP3    H134232   5.703   4.453   0.512 -0.1321 -0.4906  1.3148
 4199TIP3    H234233   5.844   4.494   0.474 -0.5370 -0.4424 -0.1969
 4200TIP3   OH234234   1.962   1.373   1.634 -0.3218 -0.2615 -0.0814
 4200TIP3    H134235   1.901   1.447   1.637 -0.3579 -0.3010  0.1235
 4200TIP3    H234236   1.984   1.356   1.725 -0.7780 -0.8927 -0.0857
 4201TIP3   OH234237   4.945   6.228   7.219 -0.1852  0.1819 -0.3163
 4201TIP3    H134238   4.928   6.212   7.311  0.7527 -0.0929 -0.1752
 4201TIP3    H234239   4.981   6.145   7.186 -2.9767 -0.6397 -1.5944
 4202TIP3   OH234240   0.425   2.854   8.051  0.1604 -0.5093 -0.1133
 4202TIP3    H134241   0.504   2.803   8.069  0.2339  0.1326  1.5600
 4202TIP3    H234242   0.413   2.847   7.956  2.0497 -0.8579 -0.3615
 4203TIP3   OH234243   2.570   1.155   7.234  0.0926  0.2610 -0.1969
 4203TIP3    H134244   2.614   1.225   7.283 -1.6382 -0.7382  3.0563
 4203TIP3    H234245   2.477   1.166   7.254 -0.5665 -1.1057 -2.2042
 4204TIP3   OH234246   3.705   2.665   2.382  0.5811  0.3173  0.0092
 4204TIP3    H134247   3.782   2.703   2.340  0.6023  0.1315 -0.1179
 4204TIP3    H234248   3.727   2.573   2.396  0.8293  0.5114  1.0104
 4205TIP3   OH234249   1.688   3.345   0.466 -0.1638 -0.3633  0.1065
 4205TIP3    H134250   1.759   3.288   0.437 -0.6077 -0.1835 -1.3702
 4205TIP3    H234251   1.616   3.327   0.407 -0.1006  2.2045 -0.8935
 4206TIP3   OH234252   1.946   0.157   1.540  0.2059  0.4354  0.1035
 4206TIP3    H134253   1.984   0.238   1.573 -0.6208  0.2515  1.5918
 4206TIP3    H234254   1.974   0.152   1.449  1.6701  1.5310  0.4729
 4207TIP3   OH234255   6.627   6.047   6.415  0.2804 -0.3691  0.0806
 4207TIP3    H134256   6.681   5.999   6.477 -0.9012 -1.5680  0.2180
 4207TIP3    H234257   6.539   6.047   6.453  0.1014  1.3655 -0.2349
 4208TIP3   OH234258   2.156   6.759   1.897  0.8212 -0.0282 -0.7120
 4208TIP3    H134259   2.207   6.752   1.816 -0.8935 -0.9837 -1.7571
 4208TIP3    H234260   2.075   6.802   1.871  0.0186 -0.8184  0.3957
 4209TIP3   OH234261   6.480   5.812   6.850 -0.1799 -0.2426 -0.2674
 4209TIP3    H134262   6.405   5.783   6.798 -0.0027 -0.6350 -0.3038
 4209TIP3    H234263   6.504   5.896   6.811  2.2878 -2.1483 -3.3058
 4210TIP3   OH234264   3.560   1.081   0.279  0.1757  0.1265  0.2921
 4210TIP3    H134265   3.648   1.119   0.277 -0.8767  2.7631 -0.2638
 4210TIP3    H234266   3.540   1.061   0.188 -0.5003  1.4382  0.1233
 4211TIP3   OH234267   4.581   4.454   2.014 -0.4412  0.1640 -0.1969
 4211TIP3    H134268   4.509   4.405   2.056  0.0093  0.1558  0.5891
 4211TIP3    H234269   4.552   4.545   2.015  0.6926  0.6042  2.7189
 4212TIP3   OH234270   5.530   4.857   1.385 -0.2313 -0.0623 -0.3411
 4212TIP3    H134271   5.585   4.836   1.460 -0.6090 -1.4492 -0.4181
 4212TIP3    H234272   5.516   4.951   1.391  0.6157  0.0139  0.7245
 4213TIP3   OH234273   6.595   6.890   0.025  0.3401 -0.8299 -0.0463
 4213TIP3    H134274   6.517   6.943   0.038  0.9181 -0.1916  0.9871
 4213TIP3    H234275   6.666   6.953   0.018  1.2483 -1.4309  2.6546
 4214TIP3   OH234276   1.109   5.647   6.969 -0.2603 -0.1231 -0.1159
 4214TIP3    H134277   1.113   5.582   6.898 -1.4783  0.6815 -0.9583
 4214TIP3    H234278   1.019   5.642   7.001  0.6109 -1.4881  2.4234
 4215TIP3   OH234279   1.451   3.333   1.983  0.1431  0.8480 -0.2255
 4215TIP3    H134280   1.365   3.370   1.964  0.0636  0.3137 -0.9538
 4215TIP3    H234281   1.437   3.278   2.060 -0.1102  0.9745 -0.1787
 4216TIP3   OH234282   4.299   4.163   1.856 -0.2988 -0.0936 -0.1470
 4216TIP3    H134283   4.372   4.147   1.916  0.5918 -0.8546 -1.3818
 4216TIP3    H234284   4.233   4.097   1.880 -0.6369  0.6333  1.0081
 4217TIP3   OH234285   4.968   0.862   0.667 -0.3133  0.2956 -0.0470
 4217TIP3    H134286   4.946   0.777   0.706 -0.6879 -0.3045 -1.5002
 4217TIP3    H234287   4.885   0.909   0.663  0.1599  1.4770  2.3588
 4218TIP3   OH234288   3.036   3.588   7.421  0.1445  0.4283  0.2879
 4218TIP3    H134289   3.108   3.537   7.457 -0.2565 -2.3344 -2.3904
 4218TIP3    H234290   3.079   3.653   7.365  0.5869  0.3017  0.4773
 4219TIP3   OH234291   5.702   2.594   8.400  1.0946 -0.0928 -0.1652
 4219TIP3    H134292   5.655   2.532   8.345 -0.1176 -0.1577  0.8974
 4219TIP3    H234293   5.737   2.659   8.339 -1.0933  0.4244 -0.9594
 4220TIP3   OH234294   6.867   5.046   0.339 -0.3288 -0.4557 -0.5439
 4220TIP3    H134295   6.895   5.087   0.257 -0.5582 -0.6471 -0.7188
 4220TIP3    H234296   6.877   4.952   0.323  1.1345 -0.4584  0.1849
 4221TIP3   OH234297   5.341   5.543   1.797 -0.1654 -0.3992 -0.3966
 4221TIP3    H134298   5.348   5.482   1.870  3.2716  0.1052 -0.1641
 4221TIP3    H234299   5.343   5.488   1.719  0.3363 -0.7164 -0.1595
 4222TIP3   OH234300   2.813   3.144   2.644 -0.2094  0.0831  0.7573
 4222TIP3    H134301   2.908   3.137   2.641 -0.2657 -0.4086  0.0936
 4222TIP3    H234302   2.791   3.206   2.575 -0.3261  0.8049  1.4182
 4223TIP3   OH234303   0.910   0.915   6.527 -0.2645 -0.7044  0.0633
 4223TIP3    H134304   0.857   0.984   6.566  0.3058  0.2080 -0.7219
 4223TIP3    H234305   0.853   0.876   6.461  0.1834  0.6528 -1.1781
 4224TIP3   OH234306   1.543   1.671   0.485  0.1273 -0.0507 -0.0789
 4224TIP3    H134307   1.510   1.760   0.491 -2.5294 -1.0046  0.7867
 4224TIP3    H234308   1.551   1.642   0.576 -3.5220 -2.0912 -0.2008
 4225TIP3   OH234309   2.098   3.034   0.997 -0.1122  0.4614 -0.2819
 4225TIP3    H134310   2.141   2.976   0.935  1.9431 -1.0190  2.3597
 4225TIP3    H234311   2.089   3.117   0.949  0.7767 -0.7537 -2.7207
 4226TIP3   OH234312   6.338   0.611   1.864 -0.2886 -0.2029  0.4492
 4226TIP3    H134313   6.365   0.588   1.775  0.3399 -2.6482  1.2015
 4226TIP3    H234314   6.408   0.578   1.920 -0.9470  0.7514  1.9033
 4227TIP3   OH234315   1.177   2.815   1.552  0.0119  0.0311  0.2747
 4227TIP3    H134316   1.164   2.748   1.620  0.2074  0.2854  0.5640
 4227TIP3    H234317   1.262   2.854   1.573  0.4001 -0.3558 -0.5186
 4228TIP3   OH234318   1.319   1.328   0.300 -0.4451  0.1598 -0.5358
 4228TIP3    H134319   1.266   1.356   0.375 -1.0118 -0.2039 -0.7931
 4228TIP3    H234320   1.321   1.232   0.307  1.4846  0.2271  0.3484
 4229TIP3   OH234321   1.472   6.824   6.751 -0.0927  0.0830 -0.6304
 4229TIP3    H134322   1.454   6.850   6.661  0.9679 -0.5145 -1.0375
 4229TIP3    H234323   1.566   6.838   6.762 -0.0817 -0.4919  0.1604
 4230TIP3   OH234324   3.030   0.255   0.481 -0.0944  0.4719 -1.0520
 4230TIP3    H134325   3.030   0.324   0.548 -0.3613 -0.6449  0.1312
 4230TIP3    H234326   3.105   0.200   0.502 -0.1006  0.1833 -1.7582
 4231TIP3   OH234327   0.017   3.275   0.591  0.2257  0.1575  0.5097
 4231TIP3    H134328   0.101   3.292   0.549  0.6358 -1.6002  0.5300
 4231TIP3    H234329  -0.030   3.218   0.529 -0.0094 -0.7421  1.4895
 4232TIP3   OH234330   3.229   2.129   1.018 -0.0198 -0.2270 -0.5643
 4232TIP3    H134331   3.178   2.091   0.947  1.1870 -2.1821 -0.4705
 4232TIP3    H234332   3.274   2.204   0.979 -0.3751 -0.4973 -1.5053
 4233TIP3   OH234333   6.667   1.959   7.484 -0.2219  0.1431 -0.4146
 4233TIP3    H134334   6.713   2.034   7.523  2.0229 -1.8360  1.0522
 4233TIP3    H234335   6.737   1.897   7.463 -1.8869 -1.0882 -2.7112
 4234TIP3   OH234336   0.797   0.905   0.125  0.0931 -0.0952 -0.1427
 4234TIP3    H134337   0.832   0.822   0.090 -0.6921  0.0445 -1.2949
 4234TIP3    H234338   0.876   0.956   0.147  0.6153 -1.6074  1.8363
 4235TIP3   OH234339   5.606   5.114   0.302 -0.2608 -0.3404 -0.1877
 4235TIP3    H134340   5.656   5.072   0.371  1.7202 -0.4008 -1.5747
 4235TIP3    H234341   5.627   5.207   0.310  0.7407 -0.4511 -1.2376
 4236TIP3   OH234342   1.363   2.396   7.714 -0.3712 -0.0620 -0.2679
 4236TIP3    H134343   1.311   2.342   7.655 -1.3329 -0.4279  0.8521
 4236TIP3    H234344   1.305   2.412   7.789  0.1328  1.9297 -0.2229
 4237TIP3   OH234345   4.164   5.270   1.366  0.3176 -0.2322  0.3075
 4237TIP3    H134346   4.179   5.344   1.307  0.5748  1.1703  2.0315
 4237TIP3    H234347   4.078   5.286   1.403 -0.2195 -1.5712 -0.3066
 4238TIP3   OH234348   2.776   6.401   0.005 -0.2427 -0.0825  0.5059
 4238TIP3    H134349   2.737   6.327   0.051 -0.2499 -0.8555 -0.7018
 4238TIP3    H234350   2.730   6.478   0.039  0.5040 -0.4879  2.5717
 4239TIP3   OH234351   2.213   0.786   2.549  0.3882  0.3456  0.4936
 4239TIP3    H134352   2.226   0.865   2.496 -0.1644 -0.3576 -0.7278
 4239TIP3    H234353   2.154   0.814   2.619 -0.6832  0.7875 -0.5536
 4240TIP3   OH234354   1.499   4.335   7.244  0.1486  0.2516  0.0641
 4240TIP3    H134355   1.476   4.268   7.309 -1.1017  0.5111 -0.0751
 4240TIP3    H234356   1.492   4.418   7.291 -2.8138  0.6385 -0.7880
 4241TIP3   OH234357   6.670   3.731   0.284  0.4055 -0.0674 -0.4544
 4241TIP3    H134358   6.630   3.758   0.202  1.5280 -0.5102 -1.1713
 4241TIP3    H234359   6.745   3.790   0.296 -0.9930  1.4442  1.4092
 4242TIP3   OH234360   4.641   6.624   6.583 -0.4114  0.3996  0.4813
 4242TIP3    H134361   4.605   6.588   6.502 -2.0303 -0.4317  1.4974
 4242TIP3    H234362   4.607   6.713   6.588  0.2100  0.6707 -0.0467
 4243TIP3   OH234363   1.274   3.853   8.603 -0.2598 -0.2261 -0.1774
 4243TIP3    H134364   1.180   3.861   8.588 -0.1583  0.7523 -0.3821
 4243TIP3    H234365   1.287   3.762   8.629 -1.3337 -0.2377  0.3860
 4244TIP3   OH234366   5.558   3.826   1.480  0.1777  0.7542  0.1224
 4244TIP3    H134367   5.517   3.797   1.398 -0.5951  0.6182  0.5561
 4244TIP3    H234368   5.593   3.745   1.518  1.7984  1.0010 -0.7470
 4245TIP3   OH234369   1.888   2.266   8.432  0.4157 -0.1016 -0.1779
 4245TIP3    H134370   1.984   2.262   8.431  0.3664 -1.6829 -0.1066
 4245TIP3    H234371   1.866   2.295   8.520  0.8074 -0.4671  0.0398
 4246TIP3   OH234372   3.266   4.475   1.645  0.0164  0.3138  0.1663
 4246TIP3    H134373   3.343   4.478   1.701  1.4302  0.9639 -1.7275
 4246TIP3    H234374   3.216   4.400   1.676  1.8978 -0.7154  0.8136
 4247TIP3   OH234375   5.283   1.971   6.633 -0.5110  0.0319  0.2081
 4247TIP3    H134376   5.375   1.962   6.608 -0.3586 -2.1244  1.3129
 4247TIP3    H234377   5.258   2.058   6.602  1.4836  0.1090 -1.3801
 4248TIP3   OH234378   0.452   0.389   0.382 -0.1672 -0.9034  0.1308
 4248TIP3    H134379   0.400   0.426   0.454  0.0936  0.1440 -0.1962
 4248TIP3    H234380   0.535   0.436   0.386 -0.8042  0.5471 -1.9855
 4249TIP3   OH234381   5.476   3.873   8.120  0.1829  0.3551 -0.9097
 4249TIP3    H134382   5.390   3.913   8.131  0.4523  1.2116 -1.7987
 4249TIP3    H234383   5.459   3.795   8.067 -0.1934 -0.1183 -0.1100
 4250TIP3   OH234384   2.694   0.124   0.706  0.1128  0.3734  0.2024
 4250TIP3    H134385   2.754   0.133   0.780 -0.3098  0.1469  0.5774
 4250TIP3    H234386   2.710   0.035   0.674 -1.0056 -0.2147  1.1895
 4251TIP3   OH234387   1.821   4.415   2.698 -0.3509  0.1736  0.3569
 4251TIP3    H134388   1.815   4.386   2.789 -0.0184  0.8296  0.5914
 4251TIP3    H234389   1.756   4.485   2.692  1.1585  1.6513  0.6960
 4252TIP3   OH234390   4.386   0.714   1.555 -0.6336  0.1673 -0.1217
 4252TIP3    H134391   4.477   0.725   1.528 -0.6348  2.9977  0.6513
 4252TIP3    H234392   4.392   0.688   1.647 -0.5934  0.1906 -0.1173
 4253TIP3   OH234393   5.756   5.163   0.563  0.3856  0.7589  0.1020
 4253TIP3    H134394   5.801   5.119   0.636  0.8110  0.3376 -0.4013
 4253TIP3    H234395   5.666   5.132   0.569  1.0509 -1.8012 -1.3799
 4254TIP3   OH234396   5.103   0.572   0.448  0.3317 -0.5572  0.9065
 4254TIP3    H134397   5.054   0.568   0.529  2.4530 -0.2016  2.2809
 4254TIP3    H234398   5.038   0.553   0.380 -1.4980 -0.8882  2.6453
 4255TIP3   OH234399   6.346   6.331   7.589  0.7690 -0.4258  0.0697
 4255TIP3    H134400   6.381   6.416   7.562 -0.5134 -0.1036 -0.6846
 4255TIP3    H234401   6.355   6.276   7.511  0.1126 -0.4924  0.0345
 4256TIP3   OH234402   2.461   2.456   6.690 -0.5035  0.0361 -0.1273
 4256TIP3    H134403   2.492   2.531   6.740 -0.9892  0.1749 -0.0254
 4256TIP3    H234404   2.448   2.489   6.602 -2.8068  0.6667  0.3833
 4257TIP3   OH234405   6.468   3.292   1.829  0.0849  0.0996  0.5955
 4257TIP3    H134406   6.395   3.248   1.872  1.2744 -3.1317 -0.3885
 4257TIP3    H234407   6.427   3.347   1.763 -1.5577  1.9385  2.9831
 4258TIP3   OH234408   5.549   5.971   0.443 -0.2923  0.7164 -0.1304
 4258TIP3    H134409   5.577   5.897   0.388 -1.7260 -1.0127  1.3513
 4258TIP3    H234410   5.618   5.978   0.509  0.2855  1.3225 -0.7721
 4259TIP3   OH234411   4.620   3.614   8.529 -0.2160  0.5578 -0.4726
 4259TIP3    H134412   4.639   3.704   8.554 -0.3347  0.5342 -0.2951
 4259TIP3    H234413   4.537   3.594   8.572  0.0986  0.1767 -0.0370
 4260TIP3   OH234414   2.936   0.103   8.558  0.0465 -0.5225 -0.7008
 4260TIP3    H134415   3.010   0.046   8.578  0.7318  0.1285 -1.2901
 4260TIP3    H234416   2.939   0.114   8.463 -1.1221 -0.8920 -0.7961
 4261TIP3   OH234417   2.566   4.785   0.429  0.4754  0.2688 -0.3493
 4261TIP3    H134418   2.610   4.870   0.429  3.2073 -1.0430 -0.0827
 4261TIP3    H234419   2.636   4.722   0.414 -1.4983 -1.9504 -0.8039
 4262TIP3   OH234420   3.873   2.902   8.260  0.5605  0.0425  0.3770
 4262TIP3    H134421   3.839   2.834   8.318  1.6738  0.6885  1.8403
 4262TIP3    H234422   3.796   2.949   8.229 -0.1636 -1.3446  0.0024
 4263TIP3   OH234423   6.559   3.603   2.333 -0.5097  0.2344  0.3053
 4263TIP3    H134424   6.589   3.680   2.283 -0.3059 -1.3032 -2.0660
 4263TIP3    H234425   6.464   3.607   2.327 -0.5102  0.4397  0.4204
 4264TIP3   OH234426   3.345   5.136   7.505  0.1036  0.8907  0.1548
 4264TIP3    H134427   3.394   5.133   7.587  1.5218  1.1165 -0.6474
 4264TIP3    H234428   3.383   5.209   7.457  1.2052 -0.8745 -1.8277
 4265TIP3   OH234429   4.942   0.317   1.638 -0.5580 -0.3346  0.2926
 4265TIP3    H134430   4.906   0.297   1.551 -0.6323  1.3250 -0.0827
 4265TIP3    H234431   4.875   0.371   1.680  1.0290  2.0115 -0.0628
 4266TIP3   OH234432   3.350   2.006   7.384 -0.0456 -0.3720  0.1545
 4266TIP3    H134433   3.311   1.943   7.323  1.2515 -0.9456 -0.1199
 4266TIP3    H234434   3.439   2.019   7.352 -0.3430  1.8199  0.0609
 4267TIP3   OH234435   4.787   2.882   1.533  0.1046 -0.1064  0.3928
 4267TIP3    H134436   4.853   2.841   1.477 -0.4142  0.8234 -0.9555
 4267TIP3    H234437   4.789   2.974   1.508 -2.4751 -0.2269 -0.5085
 4268TIP3   OH234438   6.544   3.913   0.097 -0.0510  0.0647  0.0546
 4268TIP3    H134439   6.476   3.978   0.110 -0.5337 -0.1610 -1.1827
 4268TIP3    H234440   6.531   3.882   0.007  1.3652 -0.3464 -0.0379
 4269TIP3   OH234441   2.097   3.961   7.232  0.0574  1.3582  0.0966
 4269TIP3    H134442   2.075   3.880   7.188 -0.3186  1.4074  0.1856
 4269TIP3    H234443   2.044   4.028   7.188  0.4537  1.5727 -0.0553
 4270TIP3   OH234444   0.403   6.557   0.286 -0.1335 -0.4194 -0.0361
 4270TIP3    H134445   0.438   6.478   0.244  1.5914  0.6890 -0.7832
 4270TIP3    H234446   0.480   6.600   0.323 -0.8159  1.6008 -0.8486
 4271TIP3   OH234447   0.039   5.462   1.313  0.0956 -0.5771 -0.0178
 4271TIP3    H134448  -0.050   5.438   1.285  0.4657 -1.9890 -0.0339
 4271TIP3    H234449   0.070   5.386   1.362  1.7382 -0.5667 -1.0058
 4272TIP3   OH234450   3.679   6.146   0.806 -0.1429  0.1297 -0.4352
 4272TIP3    H134451   3.668   6.216   0.870 -0.5899 -0.2275 -0.1126
 4272TIP3    H234452   3.659   6.187   0.722 -0.8589  0.2798 -0.1997
 4273TIP3   OH234453   4.916   0.915   8.257 -0.0739 -0.5104 -0.2875
 4273TIP3    H134454   4.931   0.962   8.340 -0.0764 -0.0541 -0.5405
 4273TIP3    H234455   4.991   0.857   8.249 -0.1528 -0.6756  0.1139
 4274TIP3   OH234456   4.524   0.637   6.596  0.1989  0.2661  0.2134
 4274TIP3    H134457   4.455   0.586   6.638  1.1339 -0.5851  0.7548
 4274TIP3    H234458   4.598   0.633   6.657  1.1423  0.1201 -0.9095
 4275TIP3   OH234459   0.799   5.161   2.794 -0.2664 -0.3911 -0.4950
 4275TIP3    H134460   0.888   5.161   2.761  0.1047  0.7769  0.4015
 4275TIP3    H234461   0.787   5.075   2.834 -0.2427 -1.2821 -2.3249
 4276TIP3   OH234462   2.137   0.354   6.703 -0.3446  0.1778  0.0466
 4276TIP3    H134463   2.085   0.412   6.758 -0.6042  0.3507 -0.3717
 4276TIP3    H234464   2.227   0.387   6.711 -0.7228  1.7687 -1.5562
 4277TIP3   OH234465   6.515   4.712   7.547 -0.5147  0.4699  0.0751
 4277TIP3    H134466   6.528   4.805   7.568 -1.9420  0.7729 -0.2551
 4277TIP3    H234467   6.550   4.702   7.459 -1.5041  1.0184 -0.4022
 4278TIP3   OH234468   1.149   5.381   1.127 -0.1305 -0.0987  0.4718
 4278TIP3    H134469   1.118   5.324   1.056  0.7899 -0.0040 -0.0127
 4278TIP3    H234470   1.155   5.468   1.088 -1.1175  0.2747  1.0989
 4279TIP3   OH234471   3.403   6.696   7.510 -0.3898 -0.1907 -0.7496
 4279TIP3    H134472   3.492   6.729   7.508  0.1234 -1.4438  0.2081
 4279TIP3    H234473   3.369   6.711   7.422  0.6225  0.6733 -0.9998
 4280TIP3   OH234474   0.979   4.747   8.599 -0.1591 -0.6704 -0.0751
 4280TIP3    H134475   1.050   4.685   8.614  1.3175  0.6141 -1.4428
 4280TIP3    H234476   0.903   4.693   8.580  0.8249 -2.0725 -0.1567
 4281TIP3   OH234477   3.563   6.156   7.257 -0.0083  0.0286  0.1278
 4281TIP3    H134478   3.589   6.207   7.180 -1.3156  1.1994  0.4046
 4281TIP3    H234479   3.568   6.219   7.329 -1.6867 -0.1942  0.4829
 4282TIP3   OH234480   2.717   6.549   7.768  0.1822 -0.0220  0.4004
 4282TIP3    H134481   2.679   6.560   7.682  0.1763 -3.4852 -0.1947
 4282TIP3    H234482   2.788   6.485   7.755  1.4164  0.7577  2.6677
 4283TIP3   OH234483   5.309   3.766   7.133  0.0880 -0.6596 -0.5829
 4283TIP3    H134484   5.379   3.752   7.069  0.8319  0.2493 -0.0045
 4283TIP3    H234485   5.270   3.850   7.108  1.8530  0.8472  1.3935
 4284TIP3   OH234486   4.761   3.630   0.821 -0.0591 -0.7091 -0.4885
 4284TIP3    H134487   4.779   3.538   0.845  1.9245  0.1879  1.9431
 4284TIP3    H234488   4.750   3.674   0.905  1.3201  1.7063 -1.4928
 4285TIP3   OH234489   0.565   3.972   7.945  0.3333  0.5493 -0.5443
 4285TIP3    H134490   0.563   3.929   8.031 -0.3465 -0.2001 -0.9244
 4285TIP3    H234491   0.489   4.030   7.945  0.5578  0.8462 -0.4960
 4286TIP3   OH234492   3.744   3.616   6.710  0.4062  0.5018  0.1099
 4286TIP3    H134493   3.699   3.689   6.668  1.8347  1.3770  0.0454
 4286TIP3    H234494   3.776   3.562   6.637 -4.3411 -2.7980 -0.0276
 4287TIP3   OH234495   4.745   5.509   7.733 -0.1761  0.0196 -0.4801
 4287TIP3    H134496   4.770   5.439   7.673 -0.5225  0.3378 -1.0126
 4287TIP3    H234497   4.808   5.579   7.716  0.9118 -0.5829  0.8971
 4288TIP3   OH234498   2.832   6.262   6.208  0.1982  0.3106 -0.1674
 4288TIP3    H134499   2.837   6.225   6.296 -0.1940  1.4985  0.3674
 4288TIP3    H234500   2.742   6.294   6.200 -0.7632 -2.5290 -2.1675
 4289TIP3   OH234501   1.596   0.845   7.367 -0.1826 -0.8092 -0.2217
 4289TIP3    H134502   1.686   0.827   7.394 -0.4694 -0.9307  0.6995
 4289TIP3    H234503   1.547   0.768   7.396 -1.0460  0.4111  1.7484
 4290TIP3   OH234504   1.928   6.624   0.857  0.2612 -0.3183 -0.7902
 4290TIP3    H134505   1.896   6.663   0.776 -1.6258 -1.0419 -0.4275
 4290TIP3    H234506   1.870   6.657   0.925  1.8435  0.3128  0.3226
 4291TIP3   OH234507   3.064   4.516   8.391  0.3278  0.4067 -0.6356
 4291TIP3    H134508   2.993   4.577   8.411  0.7786  0.1136  2.2353
 4291TIP3    H234509   3.141   4.571   8.380  0.1323  0.5513 -1.3323
 4292TIP3   OH234510   1.012   1.223   0.603  0.7403 -0.0142  0.0169
 4292TIP3    H134511   0.922   1.246   0.626  0.4684 -1.1924  0.2029
 4292TIP3    H234512   1.043   1.297   0.551 -0.5973  0.0708 -0.7108
 4293TIP3   OH234513   3.585   4.167   1.592  0.1554 -0.4820 -0.6867
 4293TIP3    H134514   3.550   4.104   1.529 -2.9344  0.9469 -0.5719
 4293TIP3    H234515   3.551   4.138   1.677  0.8966 -0.0820 -0.2348
 4294TIP3   OH234516   0.131   2.526   0.726  0.0346 -0.3890 -0.6162
 4294TIP3    H134517   0.203   2.583   0.699 -1.0159  1.3940  0.1810
 4294TIP3    H234518   0.174   2.443   0.748  1.9748  0.8567  0.6323
 4295TIP3   OH234519   1.903   0.462   2.608 -0.9755 -0.4068  0.2758
 4295TIP3    H134520   1.848   0.528   2.652 -0.4272  0.5947 -0.5076
 4295TIP3    H234521   1.982   0.458   2.662 -1.7459 -1.7990  1.3652
 4296TIP3   OH234522   5.415   1.526   7.692  0.3572  0.1341  0.5577
 4296TIP3    H134523   5.370   1.520   7.608 -0.4674 -2.9092  1.1080
 4296TIP3    H234524   5.506   1.502   7.672  0.2730 -0.0883  0.4318
 4297TIP3   OH234525   5.379   5.095   8.615  0.7191 -0.4342 -0.3101
 4297TIP3    H134526   5.404   5.006   8.590  0.5432 -0.7831  0.7048
 4297TIP3    H234527   5.342   5.133   8.535 -0.6994 -1.8179 -0.3677
 4298TIP3   OH234528   2.613   1.002   8.641 -0.4188  0.1177 -0.3321
 4298TIP3    H134529   2.683   1.065   8.621 -0.3024  0.8432  2.0602
 4298TIP3    H234530   2.657   0.917   8.640  0.2667  0.4544  0.0524
 4299TIP3   OH234531   3.124   0.955   8.093 -0.0254 -0.1043  0.1448
 4299TIP3    H134532   3.163   1.011   8.026  0.5450  1.2781  1.5768
 4299TIP3    H234533   3.049   1.004   8.125 -0.1561 -0.6384  0.6763
 4300TIP3   OH234534   0.273   1.412   0.176 -0.1888 -0.2449 -0.5714
 4300TIP3    H134535   0.334   1.469   0.128  1.3391 -2.2668 -1.1768
 4300TIP3    H234536   0.212   1.381   0.109  0.0287 -0.6189 -0.6014
 4301TIP3   OH234537   1.469   5.514   6.687 -0.8781 -0.1198 -0.5393
 4301TIP3    H134538   1.537   5.459   6.647 -0.3159  0.8439 -0.9727
 4301TIP3    H234539   1.428   5.559   6.612 -1.4932 -0.1383 -0.2180
 4302TIP3   OH234540   6.822   3.552   0.661 -0.1517 -0.3401 -0.0011
 4302TIP3    H134541   6.866   3.474   0.627 -0.5339 -0.5598  0.0050
 4302TIP3    H234542   6.892   3.616   0.672  0.6353 -1.4527  2.3001
 4303TIP3   OH234543   5.870   4.048   7.573 -0.1812 -0.5364 -0.5430
 4303TIP3    H134544   5.775   4.053   7.568 -0.7280 -3.0514  3.3481
 4303TIP3    H234545   5.893   4.093   7.654  1.3830 -3.0832  0.5775
 4304TIP3   OH234546   2.958   2.452   7.754 -0.2463  0.1477 -0.0288
 4304TIP3    H134547   2.867   2.431   7.773 -0.7329  0.1606 -2.0908
 4304TIP3    H234548   2.997   2.469   7.840 -2.1284 -0.0226  0.9187
 4305TIP3   OH234549   0.024   0.029   7.583  0.0849  0.2739 -0.0880
 4305TIP3    H134550  -0.014  -0.047   7.628  1.1854  0.4845  1.2504
 4305TIP3    H234551   0.111   0.000   7.556 -0.6974  0.0269 -2.5016
 4306TIP3   OH234552   2.297   0.455   1.450  0.6168  0.4725 -0.0677
 4306TIP3    H134553   2.363   0.423   1.512  1.4682  1.0373 -0.6676
 4306TIP3    H234554   2.341   0.524   1.401 -0.3768  0.7479 -0.5995
 4307TIP3   OH234555   1.285   2.830   2.140  0.0702 -0.7498 -0.4010
 4307TIP3    H134556   1.238   2.830   2.224 -0.6344 -0.8030 -0.7916
 4307TIP3    H234557   1.218   2.851   2.075  0.6063 -0.7481 -0.9603
 4308TIP3   OH234558   1.062   4.518   7.656  0.1957 -0.3081  0.0958
 4308TIP3    H134559   0.982   4.558   7.690  0.0746  1.0410 -1.6823
 4308TIP3    H234560   1.067   4.546   7.565  1.4494 -2.3255 -0.5393
 4309TIP3   OH234561   3.413   2.810   6.909 -1.1130  0.1498 -0.3221
 4309TIP3    H134562   3.465   2.890   6.914  0.6246 -0.9734  0.8438
 4309TIP3    H234563   3.470   2.748   6.864 -1.5934 -1.0109  0.6200
 4310TIP3   OH234564   1.474   0.381   8.055 -0.7082 -0.0852  0.0484
 4310TIP3    H134565   1.442   0.468   8.081 -0.5549 -0.1194  0.3512
 4310TIP3    H234566   1.454   0.325   8.130 -1.0849 -0.3801 -0.2648
 4311TIP3   OH234567   4.632   6.322   1.904 -0.5759  0.2043 -0.0959
 4311TIP3    H134568   4.669   6.408   1.920 -0.4256  0.3364 -1.1133
 4311TIP3    H234569   4.676   6.265   1.967  1.9690  0.2113 -1.7496
 4312TIP3   OH234570   1.982   2.795   0.000  0.7226  0.3190  0.3069
 4312TIP3    H134571   1.898   2.761   0.033  0.8719  0.4060  0.7853
 4312TIP3    H234572   1.992   2.754  -0.086 -0.2531  1.0038 -0.1653
 4313TIP3   OH234573   0.223   1.209   0.635  0.0724 -0.2550 -0.4542
 4313TIP3    H134574   0.244   1.236   0.545 -1.0909 -0.1413 -0.7085
 4313TIP3    H234575   0.249   1.117   0.639 -0.1962 -0.3625 -1.0236
 4314TIP3   OH234576   0.754   2.707   6.740 -0.2885  0.3844 -0.1764
 4314TIP3    H134577   0.834   2.759   6.745 -0.1143  0.4238 -2.4506
 4314TIP3    H234578   0.721   2.705   6.830  1.5926  1.4004  0.5904
 4315TIP3   OH234579   5.499   1.013   2.137 -0.3226 -0.7057  0.2352
 4315TIP3    H134580   5.548   1.062   2.202  0.2283  0.8529 -1.3004
 4315TIP3    H234581   5.523   0.921   2.154  1.1621 -0.1953  1.0931
 4316TIP3   OH234582   2.329   0.401   2.481 -0.8450 -0.0206  0.0486
 4316TIP3    H134583   2.361   0.418   2.569 -1.1329 -0.1997  0.1886
 4316TIP3    H234584   2.310   0.307   2.479  0.6710 -0.3292 -0.7096
 4317TIP3   OH234585   4.975   0.129   7.971  0.3716  0.4090  0.0009
 4317TIP3    H134586   4.999   0.173   7.890  2.9554 -0.2500  0.3130
 4317TIP3    H234587   4.908   0.185   8.011 -0.5636  1.0147 -2.2878
 4318TIP3   OH234588   0.119   3.248   1.477 -0.5846 -0.3878 -0.3134
 4318TIP3    H134589   0.128   3.250   1.572  0.6863  1.1915 -0.4204
 4318TIP3    H234590   0.112   3.340   1.452 -1.2474 -0.7953 -1.7351
 4319TIP3   OH234591   1.164   3.543   8.376  0.2285 -0.1167 -0.0401
 4319TIP3    H134592   1.254   3.570   8.360  0.3792  0.1440  1.1545
 4319TIP3    H234593   1.166   3.504   8.463 -0.6428 -0.9402 -0.3719
 4320TIP3   OH234594   1.881   6.215   7.943 -0.1334  0.1149 -0.1546
 4320TIP3    H134595   1.886   6.288   8.005  0.3534 -0.6433  0.7326
 4320TIP3    H234596   1.962   6.166   7.958 -0.1523 -0.2453 -1.1986
 4321TIP3   OH234597   2.501   3.524   6.806  0.0681 -0.3760  0.2900
 4321TIP3    H134598   2.536   3.587   6.743 -1.2117 -0.1424 -0.2323
 4321TIP3    H234599   2.540   3.440   6.781  2.2672  0.2556  1.3579
 4322TIP3   OH234600   6.729   0.774   7.990 -0.1386  0.1501 -0.1711
 4322TIP3    H134601   6.670   0.699   7.985  3.5092 -2.9655 -0.7449
 4322TIP3    H234602   6.749   0.783   8.083 -0.5499  0.4339 -0.1064
 4323TIP3   OH234603   4.115   3.618   8.266  0.4234 -0.7988 -0.2566
 4323TIP3    H134604   4.115   3.647   8.358  1.6528 -0.3441 -0.3805
 4323TIP3    H234605   4.202   3.579   8.254  0.4982 -0.3007 -1.3975
 4324TIP3   OH234606   3.261   0.887   0.257 -0.3064 -0.2483 -0.3789
 4324TIP3    H134607   3.215   0.935   0.326 -0.6268 -0.6757 -0.2861
 4324TIP3    H234608   3.313   0.953   0.212 -0.4634  0.1202 -0.0290
 4325TIP3   OH234609   3.338   4.409   7.642  0.0683 -0.2924  0.0357
 4325TIP3    H134610   3.296   4.334   7.599  1.5405 -1.5819  0.7562
 4325TIP3    H234611   3.374   4.461   7.570 -0.9525 -0.2609 -0.4714
 4326TIP3   OH234612   0.680   0.064   1.049  0.2970 -0.1207  0.1310
 4326TIP3    H134613   0.589   0.094   1.050 -0.3879 -1.9929 -0.4894
 4326TIP3    H234614   0.713   0.086   1.136 -1.1149 -0.3790  0.7671
 4327TIP3   OH234615   2.999   5.414   1.635 -0.3706  0.7419  0.2982
 4327TIP3    H134616   3.004   5.507   1.659  0.8536  1.2031 -1.5329
 4327TIP3    H234617   3.084   5.394   1.597 -1.3406 -0.5375 -1.3363
 4328TIP3   OH234618   4.804   4.304   0.378 -0.2379  0.4156  0.3912
 4328TIP3    H134619   4.892   4.342   0.379  0.0419 -0.2099  1.1864
 4328TIP3    H234620   4.819   4.210   0.387 -0.9550  0.2103 -0.4645
 4329TIP3   OH234621   3.337   2.024   8.040 -0.1486 -0.1021 -0.7521
 4329TIP3    H134622   3.253   2.048   8.002 -0.2562 -1.0101 -1.0915
 4329TIP3    H234623   3.316   1.981   8.123  0.0915  2.0853  0.5294
 4330TIP3   OH234624   3.585   3.438   0.817  0.8614  0.1175 -0.1517
 4330TIP3    H134625   3.665   3.478   0.781  1.8547 -0.8861  0.8545
 4330TIP3    H234626   3.597   3.344   0.803 -0.0037 -0.0663  0.2995
 4331TIP3   OH234627   4.746   1.734   7.286 -0.5066 -0.0340 -0.2180
 4331TIP3    H134628   4.794   1.683   7.352  0.1652 -0.5029 -1.0545
 4331TIP3    H234629   4.663   1.755   7.329 -0.5602 -1.3210  0.3672
 4332TIP3   OH234630   4.467   1.849   7.324 -0.1281  0.0581 -0.3664
 4332TIP3    H134631   4.439   1.778   7.267 -1.2026 -0.1695  0.4154
 4332TIP3    H234632   4.459   1.928   7.271  0.7539 -0.3417 -1.1360
 4333TIP3   OH234633   4.232   2.447   7.586 -0.1361  0.1980 -0.0269
 4333TIP3    H134634   4.228   2.421   7.678 -1.4586  0.9463  0.1506
 4333TIP3    H234635   4.146   2.424   7.550  0.2165  0.2968 -0.9684
 4334TIP3   OH234636   4.638   2.117   0.828  0.2086 -0.1361 -0.3049
 4334TIP3    H134637   4.634   2.050   0.760  2.1405  0.6221 -1.2442
 4334TIP3    H234638   4.599   2.195   0.788 -1.1210 -0.3890  0.4379
 4335TIP3   OH234639   4.298   6.608   6.714  0.2864 -0.2315  0.2460
 4335TIP3    H134640   4.324   6.693   6.677 -0.7429 -0.2596 -0.6055
 4335TIP3    H234641   4.216   6.587   6.669 -0.2907 -0.9500  1.5782
 4336TIP3   OH234642   6.292   0.256   2.179  0.1500 -0.3235 -0.3766
 4336TIP3    H134643   6.363   0.270   2.242 -0.0849 -1.0271  0.0590
 4336TIP3    H234644   6.213   0.277   2.228 -0.2537 -3.2772  0.4188
 4337TIP3   OH234645   5.818   0.477   7.180 -0.2758  0.3522  0.6083
 4337TIP3    H134646   5.902   0.487   7.226 -0.5801 -0.4103  1.3638
 4337TIP3    H234647   5.798   0.384   7.187 -0.4826  0.2664 -0.8530
 4338TIP3   OH234648   3.101   5.263   8.481 -0.1637 -0.6342  0.1506
 4338TIP3    H134649   3.083   5.309   8.564 -2.9540 -0.2400 -0.5742
 4338TIP3    H234650   3.027   5.204   8.470  0.4582 -1.1145 -1.7871
 4339TIP3   OH234651   2.055   3.838   0.640  0.0285  0.0757 -0.1442
 4339TIP3    H134652   1.966   3.806   0.623  0.4179 -1.4920  0.5176
 4339TIP3    H234653   2.102   3.760   0.671  1.4546  1.0272  0.1611
 4340TIP3   OH234654   3.826   4.100   7.780 -0.2105  0.2883 -0.3243
 4340TIP3    H134655   3.763   4.067   7.716 -0.5095  1.2183 -0.5285
 4340TIP3    H234656   3.871   4.171   7.735  1.1280 -0.4796 -0.2389
 4341TIP3   OH234657   5.569   4.748   0.745  0.3817 -0.0466 -0.0063
 4341TIP3    H134658   5.638   4.703   0.697  0.2954 -1.4597  1.1367
 4341TIP3    H234659   5.585   4.725   0.837 -1.9286 -0.9084  0.2443
 4342TIP3   OH234660   4.848   4.594   8.514 -0.2380 -0.1690 -0.0602
 4342TIP3    H134661   4.924   4.591   8.573 -0.0539 -0.6902 -0.3155
 4342TIP3    H234662   4.778   4.634   8.566 -1.0911 -3.5742  1.6672
 4343TIP3   OH234663   0.953   0.909   1.421  0.8032 -0.3710 -0.3305
 4343TIP3    H134664   0.905   0.890   1.501 -0.6502  1.4488 -0.6948
 4343TIP3    H234665   0.966   0.824   1.379  0.3770 -1.1973  1.1512
 4344TIP3   OH234666   0.993   1.960   8.057  0.2784  0.3881 -0.5679
 4344TIP3    H134667   0.976   2.005   7.974  1.0569  0.8885 -0.4611
 4344TIP3    H234668   1.077   1.994   8.086 -0.1762  0.5315  0.6401
 4345TIP3   OH234669   1.629   4.465   1.141 -0.8029  0.3153 -0.1118
 4345TIP3    H134670   1.613   4.394   1.203  0.3983 -1.0312 -1.2934
 4345TIP3    H234671   1.594   4.434   1.058  1.5749  0.1556 -1.1401
 4346TIP3   OH234672   4.476   3.613   1.489 -0.1059 -0.2536  0.3681
 4346TIP3    H134673   4.512   3.525   1.476  0.3791  0.1085 -0.9043
 4346TIP3    H234674   4.544   3.672   1.457 -0.5542  0.5821  0.9136
 4347TIP3   OH234675   0.859   3.597   7.967 -0.5858  0.5384 -0.0250
 4347TIP3    H134676   0.896   3.681   7.993  1.1689 -0.4752  0.9719
 4347TIP3    H234677   0.897   3.534   8.028 -1.8459 -0.9972 -0.7398
 4348TIP3   OH234678   1.427   0.845   7.800  0.2660  0.7690 -0.0780
 4348TIP3    H134679   1.339   0.862   7.767  0.4853  0.8013 -0.6499
 4348TIP3    H234680   1.422   0.868   7.893 -0.6853 -0.4903  0.2091
 4349TIP3   OH234681   5.114   4.625   0.314 -0.0251  0.1375 -0.1124
 4349TIP3    H134682   5.087   4.564   0.384 -1.3522  0.9143  0.0957
 4349TIP3    H234683   5.207   4.639   0.329 -0.1269 -0.3023  1.0467
 4350TIP3   OH234684   1.332   0.919   0.787  0.2257 -0.5934 -0.2766
 4350TIP3    H134685   1.283   0.983   0.735  0.1476 -0.9725 -0.6787
 4350TIP3    H234686   1.375   0.863   0.722 -1.0485 -2.0001  0.0210
 4351TIP3   OH234687   5.929   2.961   0.027 -0.1865  0.2601 -0.3647
 4351TIP3    H134688   5.975   2.940   0.108  1.7371 -1.6791 -1.8431
 4351TIP3    H234689   5.872   2.886   0.011  0.0941  0.2087 -1.2045
 4352TIP3   OH234690   5.284   2.589   1.324 -0.0515  0.1911  0.2545
 4352TIP3    H134691   5.374   2.584   1.355  0.2208 -0.9359 -0.6819
 4352TIP3    H234692   5.262   2.682   1.330  0.6616  0.2861  1.8835
 4353TIP3   OH234693   5.545   6.690   1.652 -0.0859  0.5893 -0.6358
 4353TIP3    H134694   5.622   6.639   1.677 -1.3071 -0.2529  1.8972
 4353TIP3    H234695   5.555   6.773   1.698 -2.2605 -0.8946  3.0433
 4354TIP3   OH234696   2.485   4.485   0.308  0.6147 -0.2291  0.6323
 4354TIP3    H134697   2.407   4.429   0.301 -0.3207  0.6644  2.8466
 4354TIP3    H234698   2.461   4.564   0.260  0.1907 -0.0265  1.1600
 4355TIP3   OH234699   4.504   0.878   0.187  0.4573 -0.4230 -0.4921
 4355TIP3    H134700   4.430   0.919   0.142 -0.0749 -1.5495 -0.6759
 4355TIP3    H234701   4.466   0.803   0.233  1.5556 -1.3247 -1.0109
 4356TIP3   OH234702   4.524   4.996   6.585  0.1091  0.5988  0.5042
 4356TIP3    H134703   4.566   5.071   6.543 -2.4720  0.1038 -3.4846
 4356TIP3    H234704   4.433   5.021   6.595 -0.1707 -0.8613  2.3231
 4357TIP3   OH234705   3.035   1.349   0.254  0.2234  0.2712 -0.2064
 4357TIP3    H134706   3.129   1.338   0.267  0.3094 -1.2676 -1.6507
 4357TIP3    H234707   3.028   1.393   0.170 -0.3291 -0.1433 -0.3849
 4358TIP3   OH234708   1.616   2.206   0.003 -0.3557  0.1141  0.8806
 4358TIP3    H134709   1.697   2.255   0.016  0.5815 -0.3612 -2.2847
 4358TIP3    H234710   1.642   2.129  -0.048 -2.6102 -0.7462  0.8981
 4359TIP3   OH234711   6.529   3.554   7.066  0.3030  0.0582 -0.0909
 4359TIP3    H134712   6.445   3.549   7.022  0.7614  0.8178 -1.0787
 4359TIP3    H234713   6.548   3.464   7.092 -0.0925 -0.3598 -1.2306
 4360TIP3   OH234714   2.106   0.630   6.836 -0.2562 -0.5723  0.5210
 4360TIP3    H134715   2.118   0.684   6.758  0.4794 -1.0277  0.3198
 4360TIP3    H234716   2.150   0.680   6.906 -0.9634 -0.1372  0.6686
 4361TIP3   OH234717   2.740   0.522   1.546 -0.1181  0.5796 -0.4741
 4361TIP3    H134718   2.762   0.606   1.584  0.4182  0.4616 -0.5123
 4361TIP3    H234719   2.772   0.457   1.609 -1.1912  0.4079 -0.0905
 4362TIP3   OH234720   1.146   5.488   7.439  0.4459  0.4709  0.2699
 4362TIP3    H134721   1.205   5.562   7.454  0.9242  0.2044 -0.2455
 4362TIP3    H234722   1.167   5.459   7.350 -0.8064  0.6717 -0.1107
 4363TIP3   OH234723   0.173   1.044   8.216  1.0646  0.0419 -0.2392
 4363TIP3    H134724   0.139   1.131   8.199 -0.4937 -0.4693  0.0843
 4363TIP3    H234725   0.267   1.052   8.204  0.6511  0.8922 -4.0335
 4364TIP3   OH234726   6.778   3.716   8.565  0.4191  0.3497  0.0336
 4364TIP3    H134727   6.705   3.665   8.600 -0.9429  0.7976 -1.9731
 4364TIP3    H234728   6.855   3.663   8.585 -0.5706 -0.7870  1.0596
 4365TIP3   OH234729   2.263   5.695   0.190 -0.3196 -0.1580 -0.1686
 4365TIP3    H134730   2.224   5.738   0.114  0.2008  0.2926 -0.1930
 4365TIP3    H234731   2.268   5.764   0.256 -2.1302 -0.8995  0.8123
 4366TIP3   OH234732   4.567   3.358   1.395 -0.2373  0.4678  0.0398
 4366TIP3    H134733   4.497   3.357   1.330  1.7593  0.4650 -2.2405
 4366TIP3    H234734   4.590   3.266   1.407  1.2575  0.5882 -1.4820
 4367TIP3   OH234735   0.691   3.889   1.007 -0.2912  0.1317  0.1377
 4367TIP3    H134736   0.782   3.858   1.010 -0.0988  0.1739 -2.6399
 4367TIP3    H234737   0.649   3.847   1.081  2.2031  0.9098  2.1265
 4368TIP3   OH234738   6.305   1.932   8.229  0.0181  0.1081 -0.1411
 4368TIP3    H134739   6.354   1.850   8.242  1.0208  0.2721 -2.3325
 4368TIP3    H234740   6.339   1.991   8.295  1.9521 -0.1841 -0.7933
 4369TIP3   OH234741   1.903   2.257   0.261  0.4688 -0.2750 -0.1621
 4369TIP3    H134742   1.887   2.165   0.242 -0.2493 -1.1360  3.7547
 4369TIP3    H234743   1.990   2.259   0.302 -0.2923  0.4167  1.5186
 4370TIP3   OH234744   5.162   1.754   7.116 -0.1621  0.0721  0.5813
 4370TIP3    H134745   5.246   1.750   7.161  0.6270 -0.0783 -0.8431
 4370TIP3    H234746   5.146   1.848   7.103  1.3786  0.0810 -1.9017
 4371TIP3   OH234747   3.726   5.945   7.886 -0.0722 -0.4870  0.8469
 4371TIP3    H134748   3.776   5.969   7.964 -0.8346 -0.4015  1.3320
 4371TIP3    H234749   3.694   5.857   7.905  1.1812 -1.1873 -0.1341
 4372TIP3   OH234750   5.711   3.077   7.448  0.7160 -0.1941 -0.1046
 4372TIP3    H134751   5.710   3.150   7.511  1.0810 -0.5345  0.3049
 4372TIP3    H234752   5.727   3.118   7.363 -0.1844  0.3162 -0.0412
 4373TIP3   OH234753   4.046   3.292   0.926  0.1109  0.0275 -0.3400
 4373TIP3    H134754   4.015   3.234   0.995  1.9969 -0.4020  0.2223
 4373TIP3    H234755   4.037   3.380   0.962  0.5557 -0.1582  0.2428
 4374TIP3   OH234756   1.059   6.017   8.401  0.0560  0.4397 -0.2372
 4374TIP3    H134757   1.132   5.965   8.366 -0.4253 -0.5996  0.2399
 4374TIP3    H234758   1.031   6.071   8.327  2.4559  2.2537  0.0554
 4375TIP3   OH234759   1.708   0.663   0.795  0.0411 -0.0469  0.7076
 4375TIP3    H134760   1.800   0.676   0.818  0.5154 -4.1352  1.9782
 4375TIP3    H234761   1.659   0.717   0.857  1.4502  2.3285 -0.0921
 4376TIP3   OH234762   1.322   1.107   1.044  0.6325 -0.1802 -0.3088
 4376TIP3    H134763   1.356   1.078   1.129 -1.0714  0.8942  0.8143
 4376TIP3    H234764   1.394   1.092   0.983  2.2765 -0.0940  1.5004
 4377TIP3   OH234765   5.695   5.007   7.523  0.0632  0.2587  0.0110
 4377TIP3    H134766   5.721   5.053   7.603  0.5377 -3.3321  2.1354
 4377TIP3    H234767   5.603   4.984   7.538  0.0107  0.0060 -0.6963
 4378TIP3   OH234768   2.176   5.554   8.445  0.4437 -0.0625  0.3530
 4378TIP3    H134769   2.160   5.461   8.425  0.9816 -0.2021  0.5778
 4378TIP3    H234770   2.133   5.601   8.374  1.6375 -0.5346 -0.7190
 4379TIP3   OH234771   4.581   4.664   1.268  0.2797 -0.5845  0.4797
 4379TIP3    H134772   4.557   4.702   1.183  0.2392  1.2531  1.2763
 4379TIP3    H234773   4.677   4.655   1.263  0.6153  1.8295  1.0612
 4380TIP3   OH234774   3.064   2.747   8.540 -0.0583  0.3492  0.3149
 4380TIP3    H134775   3.120   2.726   8.615 -0.6186 -2.1128  0.1336
 4380TIP3    H234776   2.978   2.762   8.579 -0.3467 -0.9179  0.2019
 4381TIP3   OH234777   2.445   2.155   0.693  0.3005 -0.4996  0.3752
 4381TIP3    H134778   2.392   2.112   0.626  0.9415 -3.0730  1.4102
 4381TIP3    H234779   2.528   2.107   0.693  0.7123  0.1263  2.2494
 4382TIP3   OH234780   2.252   4.437   2.467  0.1965 -0.4218  0.6308
 4382TIP3    H134781   2.181   4.482   2.512  1.4864  2.5520 -0.0866
 4382TIP3    H234782   2.223   4.431   2.376  0.7690  0.7455  0.3481
 4383TIP3   OH234783   5.533   3.911   0.832  0.1918 -0.5917 -0.2065
 4383TIP3    H134784   5.568   3.933   0.746  0.8796 -1.3789 -0.1408
 4383TIP3    H234785   5.580   3.832   0.858  2.0740  1.1467  2.1673
 4384TIP3   OH234786   0.604   6.105   8.528 -0.1933  0.2356 -0.0326
 4384TIP3    H134787   0.612   6.200   8.520  0.8637  0.0976 -0.7789
 4384TIP3    H234788   0.551   6.079   8.452 -1.8297  0.3817  1.0269
 4385TIP3   OH234789   2.721   6.309   0.500 -0.1110  0.5977 -0.1989
 4385TIP3    H134790   2.712   6.259   0.582  0.4232 -0.6426 -0.8588
 4385TIP3    H234791   2.649   6.278   0.445  2.2404 -2.3615 -1.9928
 4386TIP3   OH234792   4.905   4.958   8.611 -0.1914  0.2243 -0.2537
 4386TIP3    H134793   4.966   4.938   8.682 -0.0409 -0.1951 -0.4952
 4386TIP3    H234794   4.949   5.028   8.562  0.4664 -0.5945 -0.8707
 4387TIP3   OH234795   5.958   3.898   8.153  0.1892 -0.5575  0.0792
 4387TIP3    H134796   6.042   3.879   8.110 -0.1110  1.0939 -1.3631
 4387TIP3    H234797   5.894   3.889   8.082 -0.5005  0.8792  0.4924
 4388TIP3   OH234798   1.191   3.468   7.321  0.7621 -0.3480 -0.2400
 4388TIP3    H134799   1.155   3.556   7.311  1.4433 -0.2671 -2.4959
 4388TIP3    H234800   1.276   3.472   7.277  1.9679 -1.4939  1.8273
 4389TIP3   OH234801   0.982   2.265   7.960  0.4034 -0.1682  0.3434
 4389TIP3    H134802   0.976   2.195   7.895  0.1063  0.8256 -0.7240
 4389TIP3    H234803   0.923   2.238   8.031 -0.2177 -0.6776 -0.3591
 4390TIP3   OH234804   3.413   1.329   0.765  0.4857 -0.0470 -0.4345
 4390TIP3    H134805   3.435   1.346   0.673  3.4276 -0.2436  0.1445
 4390TIP3    H234806   3.389   1.415   0.800  0.8784  0.3112 -1.0197
 4391TIP3   OH234807   2.483   5.656   0.412 -0.2472  0.2874  0.3484
 4391TIP3    H134808   2.451   5.575   0.452  1.6784 -0.8700 -0.3123
 4391TIP3    H234809   2.412   5.684   0.353 -0.9100 -0.9694  0.5228
 4392TIP3   OH234810   6.899   1.841   8.593 -0.1297  0.3466  0.3956
 4392TIP3    H134811   6.915   1.753   8.628 -3.2635 -0.3361  0.4107
 4392TIP3    H234812   6.931   1.838   8.503  0.1266 -0.6948  0.5118
 4393TIP3   OH234813   5.066   6.638   7.377 -0.2901 -0.3325  0.6040
 4393TIP3    H134814   4.976   6.634   7.411 -0.6279  0.2847 -0.1640
 4393TIP3    H234815   5.060   6.599   7.290  0.1871 -0.3073  0.5597
 4394TIP3   OH234816   3.191   2.858   7.728 -0.1678 -0.4131  0.2130
 4394TIP3    H134817   3.264   2.920   7.735 -1.4817  1.1548  0.7311
 4394TIP3    H234818   3.178   2.826   7.817 -1.1820  0.6432  0.4655
 4395TIP3   OH234819   6.765   3.918   7.865 -0.2742 -0.6329  0.0399
 4395TIP3    H134820   6.817   3.968   7.800 -0.6822  2.2202  1.7381
 4395TIP3    H234821   6.800   3.946   7.949 -1.7906 -1.9189  1.1418
 4396TIP3   OH234822   0.417   6.333   1.567 -0.0468  0.0475 -0.4859
 4396TIP3    H134823   0.500   6.296   1.596  0.4094  2.3664  1.4247
 4396TIP3    H234824   0.431   6.353   1.474  0.1971 -2.8915 -1.2022
 4397TIP3   OH234825   5.631   3.659   1.020 -0.5407 -0.1013 -0.1696
 4397TIP3    H134826   5.592   3.632   1.103  0.4267 -1.6145 -0.1742
 4397TIP3    H234827   5.678   3.740   1.040  0.5069 -0.9685  1.0116
 4398TIP3   OH234828   3.549   6.722   6.626 -0.3266  0.2402  0.2262
 4398TIP3    H134829   3.630   6.724   6.575  0.6024 -0.1772  1.6328
 4398TIP3    H234830   3.480   6.711   6.560  0.7728  0.2613 -0.9780
 4399TIP3   OH234831   5.708   3.637   0.450  0.4075 -0.2906  0.1637
 4399TIP3    H134832   5.720   3.635   0.545  1.3101  0.1969  0.0693
 4399TIP3    H234833   5.620   3.674   0.437  0.2898 -0.3400  0.8002
 4400TIP3   OH234834   4.774   5.807   1.043  0.0332  0.4450 -0.1860
 4400TIP3    H134835   4.864   5.788   1.015  0.7291 -1.0458  2.6439
 4400TIP3    H234836   4.772   5.902   1.055  0.8177  0.6475 -1.4128
 4401TIP3   OH234837   5.912   4.968   8.399  0.1259 -0.4081 -0.6699
 4401TIP3    H134838   5.861   5.047   8.380  1.6651  1.2794  1.6376
 4401TIP3    H234839   6.001   5.001   8.411  1.0467 -2.7133 -0.8116
 4402TIP3   OH234840   4.631   3.703   0.230  0.1998 -0.1650 -0.0753
 4402TIP3    H134841   4.548   3.690   0.184  0.0167  0.6020  0.0230
 4402TIP3    H234842   4.608   3.759   0.305  0.7694 -0.1026  0.0553
 4403TIP3   OH234843   4.551   2.708   0.086  0.2804  0.0578  0.0550
 4403TIP3    H134844   4.491   2.638   0.063 -1.1267  1.4221 -0.5448
 4403TIP3    H234845   4.566   2.696   0.180  0.4665 -1.3180 -0.1286
 4404TIP3   OH234846   0.524   2.274   1.322 -0.2329  0.6456  0.4151
 4404TIP3    H134847   0.545   2.325   1.400  0.6820 -0.1722  0.7372
 4404TIP3    H234848   0.484   2.194   1.356  1.3119 -0.2777  0.1626
 4405TIP3   OH234849   1.334   6.418   0.234 -0.5633 -0.4835 -0.1558
 4405TIP3    H134850   1.414   6.372   0.208 -0.2942  0.6212 -1.4284
 4405TIP3    H234851   1.288   6.435   0.152 -0.4150  1.8638  0.1682
 4406TIP3   OH234852   1.212   5.127   1.544 -0.3814 -0.2508  0.0649
 4406TIP3    H134853   1.277   5.097   1.607 -0.6991 -1.1189 -0.0058
 4406TIP3    H234854   1.255   5.120   1.459 -0.0681  0.5955  0.1494
 4407TIP3   OH234855   2.241   4.891   7.861  0.2210  0.1507 -0.4404
 4407TIP3    H134856   2.166   4.858   7.910 -0.6458 -1.8438 -2.8804
 4407TIP3    H234857   2.303   4.919   7.928 -2.3991  1.2716  1.6625
 4408TIP3   OH234858   5.938   0.229   0.916 -0.1542  0.1638  0.8877
 4408TIP3    H134859   5.949   0.279   0.835 -1.0470 -1.6995 -0.4489
 4408TIP3    H234860   6.024   0.191   0.933  0.1430  0.9016  1.0782
 4409TIP3   OH234861   4.170   5.543   0.923 -0.4907 -0.3973 -0.1354
 4409TIP3    H134862   4.197   5.589   0.843 -0.6476  1.2625  0.7165
 4409TIP3    H234863   4.215   5.459   0.918 -0.1136 -0.1426 -1.7349
 4410TIP3   OH234864   4.193   4.752   7.195  0.4407 -0.5497 -0.1737
 4410TIP3    H134865   4.213   4.680   7.135  1.5319 -0.5157  0.1351
 4410TIP3    H234866   4.111   4.726   7.237  0.3329 -1.1632 -0.7462
 4411TIP3   OH234867   4.036   0.359   1.396 -0.3718 -0.3038  0.2884
 4411TIP3    H134868   3.997   0.354   1.309 -0.6216 -1.5949  0.4574
 4411TIP3    H234869   4.040   0.453   1.415  0.3605  0.0592 -1.4026
 4412TIP3   OH234870   5.892   3.618   1.219  0.2434  0.4870 -0.0295
 4412TIP3    H134871   5.841   3.695   1.196  0.3147  0.3328 -0.7369
 4412TIP3    H234872   5.957   3.611   1.149  0.7649  0.2624  0.4702
 4413TIP3   OH234873   1.886   1.344   7.532  0.4342  0.3424  0.0856
 4413TIP3    H134874   1.801   1.361   7.574 -0.7051 -0.0869 -1.8912
 4413TIP3    H234875   1.905   1.253   7.552  1.6162  1.0039  2.3923
 4414TIP3   OH234876   3.851   1.216   1.461  0.6499  0.0850 -0.0529
 4414TIP3    H134877   3.800   1.296   1.447  0.5181 -0.5057 -4.0770
 4414TIP3    H234878   3.804   1.168   1.529 -0.9671  2.0273  0.2848
 4415TIP3   OH234879   4.525   2.523   1.550 -0.3101  1.2259  0.2958
 4415TIP3    H134880   4.554   2.600   1.599 -0.0468  0.6891  1.0028
 4415TIP3    H234881   4.606   2.486   1.513 -0.2646  0.5668  1.0329
 4416TIP3   OH234882   0.651   5.841   1.245  0.0049 -0.0008  0.3448
 4416TIP3    H134883   0.596   5.913   1.215 -0.1868 -0.8206 -1.3980
 4416TIP3    H234884   0.605   5.806   1.322 -0.7247  0.7465  0.2610
 4417TIP3   OH234885   5.360   1.112   1.337 -0.0445 -0.7916 -0.6321
 4417TIP3    H134886   5.451   1.126   1.311 -0.3586  2.6797 -0.3612
 4417TIP3    H234887   5.313   1.100   1.254  0.2940  0.4069 -1.0165
 4418TIP3   OH234888   3.718   4.907   0.668  0.3497  0.3837 -0.6126
 4418TIP3    H134889   3.727   4.821   0.627 -0.9915 -0.4370  0.7435
 4418TIP3    H234890   3.804   4.947   0.656  1.4880 -1.7122 -0.0217
 4419TIP3   OH234891   4.529   5.731   8.167 -0.2844  0.7513 -0.0415
 4419TIP3    H134892   4.451   5.720   8.113  0.0597  2.0809 -0.8664
 4419TIP3    H234893   4.500   5.783   8.241 -0.4880  0.0081  0.4019
 4420TIP3   OH234894   3.841   2.469   0.474 -0.0999  0.0796  0.1707
 4420TIP3    H134895   3.821   2.561   0.490 -0.5581  0.1078 -0.5170
 4420TIP3    H234896   3.758   2.423   0.491 -0.5899  0.0969 -1.9019
 4421TIP3   OH234897   2.590   4.997   0.095 -0.4250 -0.5733 -0.1674
 4421TIP3    H134898   2.606   5.090   0.083 -0.0542 -0.2046  2.4416
 4421TIP3    H234899   2.664   4.967   0.149 -1.0039 -2.1689 -0.1903
 4422TIP3   OH234900   5.276   5.969   1.506  0.1811 -0.0111 -0.1906
 4422TIP3    H134901   5.219   6.035   1.467  2.2738  2.1733  0.1525
 4422TIP3    H234902   5.340   5.949   1.438  0.3611 -0.6777  0.1630
 4423TIP3   OH234903   2.696   2.086   1.023 -0.1344 -0.3889 -0.3292
 4423TIP3    H134904   2.650   2.006   0.997 -1.0314 -1.2380  3.3622
 4423TIP3    H234905   2.774   2.055   1.070  0.4991  0.9632 -0.4261
 4424TIP3   OH234906   6.506   0.068   7.960 -0.1635 -0.0115 -0.6587
 4424TIP3    H134907   6.476   0.063   8.050  0.8840  2.5479 -0.0863
 4424TIP3    H234908   6.449   0.007   7.912 -2.0111  0.0096  1.3696
 4425TIP3   OH234909   1.725   4.561   6.237 -0.1980 -0.5150 -0.0931
 4425TIP3    H134910   1.723   4.652   6.268 -0.6945 -1.0363  1.4771
 4425TIP3    H234911   1.803   4.556   6.182  1.7694  0.0581  2.4494
 4426TIP3   OH234912   1.602   5.955   1.489 -0.3848 -0.0150 -0.0549
 4426TIP3    H134913   1.546   5.897   1.438 -0.1827 -0.6092  0.3819
 4426TIP3    H234914   1.545   6.027   1.515 -0.5945  0.0798 -0.7541
 4427TIP3   OH234915   2.217   2.057   7.498  0.3046  0.5114  0.2516
 4427TIP3    H134916   2.129   2.075   7.464 -0.1268  1.0686  1.6004
 4427TIP3    H234917   2.275   2.108   7.442 -0.2873  0.6313 -0.2681
 4428TIP3   OH234918   0.464   6.118   8.282 -0.3013  0.3752  0.0071
 4428TIP3    H134919   0.397   6.186   8.270 -0.0590  0.4945 -0.7345
 4428TIP3    H234920   0.514   6.119   8.200 -0.0191 -0.4031  0.1640
 4429TIP3   OH234921   1.297   4.215   2.306  0.1744  1.0543  0.2442
 4429TIP3    H134922   1.299   4.201   2.400  1.7267 -2.3198 -0.1350
 4429TIP3    H234923   1.375   4.268   2.288 -1.4899  3.9811  0.9716
 4430TIP3   OH234924   4.032   5.910   6.911 -0.0112 -0.4840  0.0579
 4430TIP3    H134925   3.958   5.967   6.930  0.1776 -0.3559  0.4137
 4430TIP3    H234926   4.057   5.931   6.821 -0.3234 -0.4354 -0.0176
 4431TIP3   OH234927   4.231   3.305   7.201 -0.5132  0.0441  0.0612
 4431TIP3    H134928   4.310   3.306   7.146 -0.9708  0.2640 -0.5982
 4431TIP3    H234929   4.228   3.393   7.240 -0.0489 -0.1948  0.6491
 4432TIP3   OH234930   3.278   2.235   2.293 -0.4772  0.3927  0.3723
 4432TIP3    H134931   3.223   2.313   2.285  0.4863  1.0918  0.3761
 4432TIP3    H234932   3.235   2.170   2.237 -0.3220  1.4956 -1.0882
 4433TIP3   OH234933   3.513   2.790   0.968  0.0637  0.2874 -0.1772
 4433TIP3    H134934   3.537   2.768   0.879 -1.5634 -1.9257 -0.1556
 4433TIP3    H234935   3.433   2.842   0.959  0.4882  0.9837 -0.0164
 4434TIP3   OH234936   3.492   6.267   7.506  0.0529  0.2248 -0.2985
 4434TIP3    H134937   3.434   6.307   7.571 -0.9277 -0.3317 -0.8069
 4434TIP3    H234938   3.553   6.337   7.483 -1.2772  1.2836 -0.7619
 4435TIP3   OH234939   6.307   0.864   7.486  0.0830 -0.0134  0.0659
 4435TIP3    H134940   6.256   0.879   7.406  0.5532 -1.9509 -0.6584
 4435TIP3    H234941   6.395   0.895   7.464 -0.1283  0.8594  0.3925
 4436TIP3   OH234942   6.840   2.732   1.399  0.2816 -0.0214  0.4105
 4436TIP3    H134943   6.837   2.754   1.492  0.4264  0.5830  0.2725
 4436TIP3    H234944   6.763   2.677   1.385  0.4946 -0.4832  0.9780
 4437TIP3   OH234945   0.748   0.787   6.336  0.3209 -0.5422 -0.6695
 4437TIP3    H134946   0.752   0.691   6.338 -0.5106 -0.6250  2.4703
 4437TIP3    H234947   0.666   0.809   6.381 -0.8110  1.6824 -3.5146
 4438TIP3   OH234948   1.759   1.917   0.871 -0.2229  0.0663  0.1991
 4438TIP3    H134949   1.765   1.848   0.937 -0.1165 -0.6203 -0.5068
 4438TIP3    H234950   1.719   1.991   0.917 -3.0932 -1.3979  0.2701
 4439TIP3   OH234951   5.009   4.000   6.900  0.0756  0.0911  0.6130
 4439TIP3    H134952   4.991   3.906   6.904  0.8299 -0.0206  1.7486
 4439TIP3    H234953   5.080   4.014   6.963  0.3068  1.3463  0.1035
 4440TIP3   OH234954   4.887   3.755   1.880 -0.6877 -0.2825 -0.4336
 4440TIP3    H134955   4.974   3.715   1.878 -0.8791 -1.0109  2.1695
 4440TIP3    H234956   4.846   3.728   1.798  1.6965  0.5858 -1.9971
 4441TIP3   OH234957   2.146   4.749   0.248 -0.4498 -0.2922  0.3206
 4441TIP3    H134958   2.140   4.789   0.334  2.1508  0.3168  0.3073
 4441TIP3    H234959   2.239   4.754   0.225 -0.8104 -1.8157 -1.8710
 4442TIP3   OH234960   4.833   0.749   0.884 -0.3572 -0.6170 -0.2129
 4442TIP3    H134961   4.850   0.655   0.888  2.7233 -0.1615 -0.3107
 4442TIP3    H234962   4.821   0.775   0.975 -0.4726 -0.9824 -0.1225
 4443TIP3   OH234963   6.767   4.389   2.323 -0.0786 -0.3764  0.3216
 4443TIP3    H134964   6.802   4.317   2.376  0.1980 -0.2489  0.3099
 4443TIP3    H234965   6.836   4.409   2.260  0.0972  0.3307  0.7366
 4444TIP3   OH234966   5.020   3.256   8.284  0.2982 -0.1680  0.1085
 4444TIP3    H134967   4.938   3.261   8.235 -0.2859  0.0680  1.0842
 4444TIP3    H234968   5.055   3.169   8.263  0.8475  0.5027 -1.9093
 4445TIP3   OH234969   0.783   1.986   7.541  0.2846  0.4169  0.0278
 4445TIP3    H134970   0.726   2.063   7.532  1.2652  1.0558 -0.9666
 4445TIP3    H234971   0.747   1.922   7.479 -0.7049 -0.0647  1.0628
 4446TIP3   OH234972   1.152   6.011   7.596 -0.0519  0.7221 -0.7219
 4446TIP3    H134973   1.111   6.034   7.513  0.8671  0.6648 -1.2023
 4446TIP3    H234974   1.245   6.031   7.584  0.0743  0.8626  0.3460
 4447TIP3   OH234975   5.869   3.032   8.098  0.3179  0.6476 -0.5543
 4447TIP3    H134976   5.930   3.008   8.027 -0.9529  0.7782 -1.7405
 4447TIP3    H234977   5.857   3.126   8.088  1.3523  0.9647  0.8829
 4448TIP3   OH234978   5.591   0.453   0.105 -0.2606 -0.1214 -0.0652
 4448TIP3    H134979   5.680   0.488   0.109  0.3077 -1.5972  3.0404
 4448TIP3    H234980   5.600   0.370   0.057  0.0443 -0.2960  0.2929
 4449TIP3   OH234981   5.959   6.441   6.331  0.1444  0.3906  0.3169
 4449TIP3    H134982   5.960   6.377   6.260 -0.7037  0.2156  0.4511
 4449TIP3    H234983   6.048   6.474   6.335  0.2476  0.2496 -0.6934
 4450TIP3   OH234984   1.316   6.757   7.813 -0.0953 -0.6529  0.3491
 4450TIP3    H134985   1.285   6.763   7.723 -2.8641  1.9746  1.2977
 4450TIP3    H234986   1.245   6.711   7.859  0.2964 -0.0855  1.5462
 4451TIP3   OH234987   0.304   6.177   0.229  0.1548 -0.0438  0.1943
 4451TIP3    H134988   0.337   6.224   0.152 -1.3422 -0.9395 -1.0578
 4451TIP3    H234989   0.235   6.235   0.264  0.0359 -0.1661  0.1624
 4452TIP3   OH234990   0.567   3.238   7.511  0.1254  0.4333 -0.1993
 4452TIP3    H134991   0.504   3.230   7.440 -1.1659  1.9130  0.7300
 4452TIP3    H234992   0.652   3.221   7.470 -0.7441 -0.5344 -1.6862
 4453TIP3   OH234993   1.629   1.817   0.186 -0.1378  0.1408 -0.0969
 4453TIP3    H134994   1.625   1.780   0.098  1.7854 -0.4162  0.0050
 4453TIP3    H234995   1.613   1.743   0.244  0.8292  0.0238  0.0434
 4454TIP3   OH234996   0.939   1.018   1.844  0.0431  0.4674 -0.1851
 4454TIP3    H134997   1.006   1.082   1.866  1.5749 -0.3941 -2.0713
 4454TIP3    H234998   0.863   1.044   1.897  0.8980  3.2323 -0.1518
 4455TIP3   OH234999   2.572   4.767   6.400  0.4821 -0.3597  0.4411
 4455TIP3    H135000   2.642   4.706   6.376  0.5615 -0.3168  0.5598
 4455TIP3    H235001   2.596   4.849   6.356  0.6542 -0.2665  0.7016
 4456TIP3   OH235002   3.676   3.723   0.446 -0.7052 -0.0789  0.5735
 4456TIP3    H135003   3.750   3.663   0.447 -0.0648  0.6818  0.2665
 4456TIP3    H235004   3.704   3.796   0.391 -2.0276 -0.1826 -0.2990
 4457TIP3   OH235005   3.835   2.183   0.454 -0.1204 -0.8466  0.4175
 4457TIP3    H135006   3.808   2.114   0.514  2.0692 -1.0775  1.2268
 4457TIP3    H235007   3.921   2.211   0.486  0.3714  0.1895 -1.6270
 4458TIP3   OH235008   0.752   3.998   6.733  1.2269 -0.1776  0.0494
 4458TIP3    H135009   0.671   4.032   6.696  1.1853  0.0228  0.3240
 4458TIP3    H235010   0.819   4.061   6.705  0.8740  1.1997  2.1243
 4459TIP3   OH235011   0.152   4.109   8.252 -0.4803 -0.0023 -0.2209
 4459TIP3    H135012   0.223   4.166   8.282 -1.5185  1.5654 -0.6184
 4459TIP3    H235013   0.158   4.032   8.309 -0.4312  1.4838  1.8884
 4460TIP3   OH235014   1.720   3.831   7.894 -0.5010 -0.2605 -0.1082
 4460TIP3    H135015   1.743   3.848   7.803 -0.5776 -3.6427 -0.8870
 4460TIP3    H235016   1.804   3.832   7.940 -0.4358  1.2045 -0.1974
 4461TIP3   OH235017   4.862   4.933   1.817  0.1578 -0.1086 -0.0573
 4461TIP3    H135018   4.806   4.966   1.747 -0.4927  1.7343  1.2656
 4461TIP3    H235019   4.949   4.969   1.797  0.3256 -0.8274 -0.6900
 4462TIP3   OH235020   5.034   6.510   1.716 -0.3799 -0.1729 -0.0491
 4462TIP3    H135021   5.047   6.558   1.797 -1.3690  0.2818 -0.1377
 4462TIP3    H235022   4.948   6.539   1.685 -0.3398 -0.8938 -0.8736
 4463TIP3   OH235023   5.050   5.003   7.963 -0.3259 -0.1197  0.1649
 4463TIP3    H135024   5.085   4.988   8.050 -1.9686 -0.2805  0.8343
 4463TIP3    H235025   5.045   5.098   7.956  0.6352 -0.0802 -0.1193
 4464TIP3   OH235026   4.988   6.172   8.322 -0.3315 -0.5043  0.6918
 4464TIP3    H135027   4.913   6.229   8.303  1.7366  1.5681 -2.1005
 4464TIP3    H235028   5.011   6.192   8.413 -2.2439 -0.1432  1.1459
 4465TIP3   OH235029   4.733   4.554   1.691 -0.6186  0.2549 -0.8988
 4465TIP3    H135030   4.670   4.550   1.619 -1.3184  0.1718 -0.2924
 4465TIP3    H235031   4.695   4.616   1.753 -0.9465 -1.0796  0.2733
 4466TIP3   OH235032   5.656   6.567   2.059 -0.3595 -0.4569 -0.4496
 4466TIP3    H135033   5.701   6.558   1.976 -0.7391  0.6405 -0.7899
 4466TIP3    H235034   5.650   6.477   2.093  1.9072 -0.6609 -0.4466
 4467TIP3   OH235035   1.379   3.258   7.684 -0.2025 -0.1411  0.4901
 4467TIP3    H135036   1.369   3.320   7.612  0.7591 -1.4344 -0.8041
 4467TIP3    H235037   1.300   3.204   7.681  0.6536 -1.3979 -0.8479
 4468TIP3   OH235038   1.935   0.034   1.805  0.4917  0.2434 -0.4994
 4468TIP3    H135039   1.929   0.123   1.839 -0.1970 -0.1352  0.3952
 4468TIP3    H235040   1.961   0.046   1.713  2.8531  1.2632  0.2198
 4469TIP3   OH235041   2.213   2.539   1.658  0.3182  0.4640  0.0289
 4469TIP3    H135042   2.141   2.505   1.710  0.0996 -0.8307 -1.0579
 4469TIP3    H235043   2.194   2.633   1.648 -0.2496  0.4882  1.2452
 4470TIP3   OH235044   0.728   4.500   6.468 -0.0208 -0.3857 -0.2511
 4470TIP3    H135045   0.773   4.479   6.550  1.4999  2.9855 -0.0579
 4470TIP3    H235046   0.643   4.532   6.495  0.8832  1.7854  0.2020
 4471TIP3   OH235047   5.117   0.135   1.425 -0.1195  0.8931 -0.2032
 4471TIP3    H135048   5.179   0.078   1.379  0.0830  1.2585 -0.3885
 4471TIP3    H235049   5.050   0.076   1.457 -0.0202  0.5722 -0.5738
 4472TIP3   OH235050   3.189   4.354   8.197  0.9803  0.0646  0.0126
 4472TIP3    H135051   3.161   4.410   8.126 -1.0592 -1.8310 -0.7954
 4472TIP3    H235052   3.154   4.395   8.276  0.2461  0.3777 -0.4706
 4473TIP3   OH235053   4.697   3.417   1.033 -0.2551  0.2254 -0.9001
 4473TIP3    H135054   4.610   3.456   1.027 -1.0103 -1.1928  0.2846
 4473TIP3    H235055   4.681   3.323   1.041  1.3391 -0.0026  0.0869
 4474TIP3   OH235056   3.474   0.816   1.104  0.3483 -0.2101 -0.7054
 4474TIP3    H135057   3.511   0.728   1.096  2.7238  0.6243  0.1239
 4474TIP3    H235058   3.467   0.831   1.198 -1.6928 -0.1157 -0.8439
 4475TIP3   OH235059   0.390   6.303   0.822 -0.1562  0.1240 -0.0012
 4475TIP3    H135060   0.360   6.371   0.882 -0.5278 -0.5297  0.5725
 4475TIP3    H235061   0.448   6.349   0.761 -0.6241  1.0023  0.1963
 4476TIP3   OH235062   1.716   2.282   7.625 -0.4857 -0.0427 -0.3340
 4476TIP3    H135063   1.690   2.283   7.533 -1.1162  0.1776 -0.1573
 4476TIP3    H235064   1.811   2.288   7.623 -0.5229  0.4269 -0.9628
 4477TIP3   OH235065   5.327   0.967   8.588  0.2817  0.0965  0.1077
 4477TIP3    H135066   5.259   1.022   8.549  1.2110  0.4571 -1.0930
 4477TIP3    H235067   5.397   1.028   8.611 -0.0409 -0.1859  1.9387
 4478TIP3   OH235068   4.531   0.404   1.443  0.0811 -0.6064  0.0488
 4478TIP3    H135069   4.572   0.466   1.382  0.0206 -1.2095 -0.6185
 4478TIP3    H235070   4.579   0.416   1.525  1.5070 -1.1602 -0.6530
 4479TIP3   OH235071   3.531   1.772   7.150  0.1525 -1.0611 -0.1657
 4479TIP3    H135072   3.564   1.858   7.176 -0.5298 -0.6184 -0.7463
 4479TIP3    H235073   3.576   1.752   7.068  1.5358 -2.0072  0.7640
 4480TIP3   OH235074   5.891   3.993   1.342  0.5135  0.4534  0.0877
 4480TIP3    H135075   5.823   3.981   1.408 -1.0459 -0.8738 -1.6354
 4480TIP3    H235076   5.968   3.949   1.379 -0.5524 -0.9634  0.7294
 4481TIP3   OH235077   5.127   2.334   2.356 -0.1749  0.1060 -0.3557
 4481TIP3    H135078   5.211   2.288   2.355 -0.6897 -0.8619 -1.5392
 4481TIP3    H235079   5.142   2.412   2.304  0.2415  0.4429  0.2507
 4482TIP3   OH235080   5.201   4.188   1.322 -0.6879  0.4454 -0.1707
 4482TIP3    H135081   5.256   4.213   1.396 -0.5819 -0.6662  0.1429
 4482TIP3    H235082   5.236   4.238   1.249  0.1124  0.4986  0.2362
 4483TIP3   OH235083   4.125   2.146   1.301 -0.5170 -0.4614  0.0676
 4483TIP3    H135084   4.116   2.238   1.327  0.1102 -0.5333  0.5769
 4483TIP3    H235085   4.102   2.097   1.380 -1.5930 -0.7682 -0.4228
 4484TIP3   OH235086   5.778   0.561   0.808 -0.2543 -0.4398 -0.7319
 4484TIP3    H135087   5.806   0.480   0.765  1.1246  0.2542 -1.2128
 4484TIP3    H235088   5.833   0.629   0.769  1.2179  0.2338  2.2001
 4485TIP3   OH235089   4.976   5.001   6.951 -0.1626 -0.4408  0.2473
 4485TIP3    H135090   4.906   5.050   6.993  0.9981  0.9745  0.6238
 4485TIP3    H235091   5.012   5.062   6.886  1.0161 -0.9539  0.3927
 4486TIP3   OH235092   3.648   5.262   6.895 -1.6314 -0.8179  0.0752
 4486TIP3    H135093   3.606   5.344   6.922  1.1824 -0.0324  2.5582
 4486TIP3    H235094   3.734   5.288   6.863  0.1622 -2.8412  2.8288
 4487TIP3   OH235095   1.873   5.696   8.055 -0.1338  0.0901 -0.1042
 4487TIP3    H135096   1.883   5.760   7.984  2.7026  1.5606  1.4477
 4487TIP3    H235097   1.778   5.694   8.072 -0.6256  1.5133 -2.2836
 4488TIP3   OH235098   0.376   1.641   6.576 -0.4182  0.0474  0.3853
 4488TIP3    H135099   0.420   1.587   6.510  0.0214  1.8764 -0.9285
 4488TIP3    H235100   0.291   1.661   6.537 -0.2243  1.0039  0.4197
 4489TIP3   OH235101   1.766   6.139   7.072 -0.1995  0.1582  0.1253
 4489TIP3    H135102   1.757   6.123   6.978  0.9093 -0.6425  0.1310
 4489TIP3    H235103   1.728   6.061   7.113  0.2687  0.0245  0.3082
 4490TIP3   OH235104   3.898   0.876   8.033  0.1271 -0.5615 -0.4694
 4490TIP3    H135105   3.806   0.874   8.008  0.4606 -0.5421 -1.7646
 4490TIP3    H235106   3.903   0.820   8.110 -0.7676 -1.5622 -1.1048
 4491TIP3   OH235107   6.577   4.451   7.730 -0.3861 -0.0309  0.2442
 4491TIP3    H135108   6.663   4.491   7.734  0.2946 -1.4102  0.0709
 4491TIP3    H235109   6.537   4.487   7.651  0.2198  0.2645  0.0735
 4492TIP3   OH235110   1.267   4.839   0.133 -0.6882  0.3231 -0.1939
 4492TIP3    H135111   1.244   4.917   0.184 -1.7963 -0.1294  0.0305
 4492TIP3    H235112   1.256   4.867   0.042 -2.2026  0.1227 -0.0933
 4493TIP3   OH235113   1.016   0.066   2.273 -1.1841 -0.0356 -0.0963
 4493TIP3    H135114   1.029  -0.006   2.335 -0.8791 -0.8800 -1.1164
 4493TIP3    H235115   1.075   0.135   2.304 -0.9275 -0.4973  0.4669
 4494TIP3   OH235116   3.791   2.418   1.345 -0.0652 -0.0572 -0.2295
 4494TIP3    H135117   3.772   2.507   1.376 -0.5863  0.4060 -1.7756
 4494TIP3    H235118   3.863   2.429   1.283 -1.1604 -0.4679 -1.6198
 4495TIP3   OH235119   4.387   6.528   0.289  0.0192  0.1356  0.5553
 4495TIP3    H135120   4.338   6.490   0.216 -0.8817  0.1868  1.1181
 4495TIP3    H235121   4.417   6.452   0.339 -1.6586  0.0922  1.5999
 4496TIP3   OH235122   2.631   3.230   8.634  0.1961  0.5010  0.0707
 4496TIP3    H135123   2.691   3.227   8.709  0.2295 -2.7594  0.0784
 4496TIP3    H235124   2.598   3.140   8.627 -0.3459  0.8454 -3.3955
 4497TIP3   OH235125   0.343   2.986   1.854  0.4260 -0.3326  0.4672
 4497TIP3    H135126   0.324   2.952   1.766  2.1925  0.2603 -0.1843
 4497TIP3    H235127   0.361   3.079   1.840  0.5437 -0.1962  1.4847
 4498TIP3   OH235128   2.912   3.932   7.653  0.0205 -0.4012  0.0316
 4498TIP3    H135129   2.888   3.961   7.741 -1.1434  1.8882 -0.9811
 4498TIP3    H235130   3.003   3.962   7.642  0.4236 -1.3207  0.6566
 4499TIP3   OH235131   4.945   6.898   1.617  0.3631 -0.2834  0.5979
 4499TIP3    H135132   5.016   6.917   1.679  1.5462 -1.7750 -0.2437
 4499TIP3    H235133   4.908   6.815   1.647 -0.5644  0.1125  0.5926
 4500TIP3   OH235134   1.227   6.284   0.688  1.0645  0.1123 -0.2290
 4500TIP3    H135135   1.275   6.358   0.651  1.9079 -0.6034 -0.6225
 4500TIP3    H235136   1.281   6.254   0.761 -1.4681  2.6730  3.0258
 4501TIP3   OH235137   1.827   2.019   1.664  0.2598 -0.3425 -0.2837
 4501TIP3    H135138   1.859   2.056   1.582  0.8195 -1.1211 -0.4241
 4501TIP3    H235139   1.764   1.953   1.638 -1.1083  0.8129 -0.0192
 4502TIP3   OH235140   4.894   3.922   7.252 -0.9659 -0.2718 -0.2026
 4502TIP3    H135141   4.886   4.015   7.271 -0.0190 -0.0183 -0.9599
 4502TIP3    H235142   4.967   3.916   7.190  0.1728 -1.6987  1.1955
 4503TIP3   OH235143   0.550   6.020   2.209 -0.8546  0.4659 -0.1156
 4503TIP3    H135144   0.552   5.966   2.288  3.4026  0.4686 -0.0213
 4503TIP3    H235145   0.572   6.108   2.240 -2.2121  1.1471 -0.9904
 4504TIP3   OH235146   0.922   5.870   6.527  0.3494 -0.5129 -0.0965
 4504TIP3    H135147   0.947   5.840   6.615 -2.5787  0.4183  1.1743
 4504TIP3    H235148   0.889   5.792   6.484 -1.3862 -0.4222  0.9463
 4505TIP3   OH235149   1.255   2.935   2.431 -0.2293  0.4773 -0.1298
 4505TIP3    H135150   1.349   2.952   2.435 -0.3573  0.9152  2.0294
 4505TIP3    H235151   1.249   2.840   2.417  0.5309  0.4538 -0.3317
 4506TIP3   OH235152   2.642   1.219   2.143 -0.4503 -0.1181  0.1579
 4506TIP3    H135153   2.627   1.259   2.057  0.9826 -0.4686 -0.2889
 4506TIP3    H235154   2.626   1.290   2.205 -2.5940 -0.1406 -0.2863
 4507TIP3   OH235155   2.898   1.355   0.499  0.7187 -0.0361  0.0594
 4507TIP3    H135156   2.917   1.279   0.554  1.0918  0.0744  0.0858
 4507TIP3    H235157   2.948   1.339   0.419 -0.2051 -0.4392 -0.4619
 4508TIP3   OH235158   0.710   5.410   7.343 -0.5714  0.0478  0.8731
 4508TIP3    H135159   0.715   5.315   7.354 -1.9585 -0.2384 -0.6316
 4508TIP3    H235160   0.617   5.429   7.340 -0.4078  0.9166 -2.6768
 4509TIP3   OH235161   4.412   3.131   0.190  0.0070  0.1418 -0.0466
 4509TIP3    H135162   4.341   3.186   0.223  0.0469 -0.1505  0.5533
 4509TIP3    H235163   4.368   3.067   0.134 -0.1211  0.3649 -0.2029
 4510TIP3   OH235164   3.639   3.013   7.695 -0.0582  0.2099 -0.3585
 4510TIP3    H135165   3.579   2.973   7.759  0.6898 -1.5086 -0.6646
 4510TIP3    H235166   3.583   3.070   7.642 -1.7815 -2.3798 -1.5430
 4511TIP3   OH235167   6.238   3.235   1.997 -0.1607  0.0987  0.0189
 4511TIP3    H135168   6.186   3.157   2.015  0.1556 -0.4045 -1.1239
 4511TIP3    H235169   6.258   3.272   2.083  1.6729 -2.3866  0.7901
 4512TIP3   OH235170   3.214   6.796   1.755 -0.8229 -0.2193 -0.0144
 4512TIP3    H135171   3.133   6.798   1.704  0.9967 -2.9313 -3.4593
 4512TIP3    H235172   3.251   6.710   1.737  2.9576  0.9748  1.1647
 4513TIP3   OH235173   6.652   6.246   8.382  0.0638 -0.0101  0.1128
 4513TIP3    H135174   6.684   6.336   8.382  1.7680 -0.5745  0.3158
 4513TIP3    H235175   6.731   6.193   8.373 -0.7693 -1.5274  1.2947
 4514TIP3   OH235176   5.150   1.475   1.619  0.3840  0.3494 -0.4130
 4514TIP3    H135177   5.125   1.521   1.700 -2.0872 -0.5102 -0.5816
 4514TIP3    H235178   5.120   1.385   1.633  0.4673  0.0434 -2.0397
 4515TIP3   OH235179   2.480   6.588   1.781  0.1147  0.0881 -0.3498
 4515TIP3    H135180   2.528   6.666   1.752  0.8641 -0.1957  0.0961
 4515TIP3    H235181   2.485   6.528   1.706 -1.6045  0.9449 -1.1979
 4516TIP3   OH235182   5.945   3.502   7.600 -0.4410  0.8579  0.1670
 4516TIP3    H135183   5.926   3.499   7.506  1.4320  1.0552 -0.2763
 4516TIP3    H235184   6.031   3.459   7.608 -0.8538  0.2699  1.8884
 4517TIP3   OH235185   1.443   4.010   1.736  0.0703 -0.2965  0.6732
 4517TIP3    H135186   1.447   4.101   1.705  1.4207 -0.4395  0.3857
 4517TIP3    H235187   1.349   3.995   1.751 -0.3041  0.7729 -0.3676
 4518TIP3   OH235188   1.322   1.508   1.119  0.4541  0.3752 -0.0106
 4518TIP3    H135189   1.364   1.475   1.039  0.5497  0.2993  0.0695
 4518TIP3    H235190   1.290   1.595   1.096 -2.1845 -0.7639 -1.0469
 4519TIP3   OH235191   5.940   6.167   6.504 -0.0228 -0.6040  0.2305
 4519TIP3    H135192   5.943   6.089   6.447 -1.5654 -0.2615 -0.3913
 4519TIP3    H235193   5.847   6.191   6.505  0.2785  0.5968  1.2989
 4520TIP3   OH235194   4.495   5.835   0.495 -0.2236  0.0692 -1.1756
 4520TIP3    H135195   4.444   5.882   0.561 -0.0790  2.0101 -2.3774
 4520TIP3    H235196   4.573   5.889   0.483  2.6690 -3.1441  1.1343
 4521TIP3   OH235197   4.194   0.247   6.721 -0.1640 -0.2940  0.0333
 4521TIP3    H135198   4.146   0.301   6.658  1.4441  1.8280  0.5238
 4521TIP3    H235199   4.285   0.253   6.694  0.1677 -2.3576  0.4852
 4522TIP3   OH235200   4.642   0.679   1.542 -0.3809  0.0788 -0.1507
 4522TIP3    H135201   4.663   0.623   1.468 -0.2523 -0.0546 -0.0145
 4522TIP3    H235202   4.712   0.663   1.605 -0.3980  0.3147 -0.0681
 4523TIP3   OH235203   3.556   0.800   1.508 -0.1760  0.4069 -0.2845
 4523TIP3    H135204   3.593   0.740   1.573  1.4854  0.9535 -0.6640
 4523TIP3    H235205   3.470   0.824   1.543 -0.5268 -1.5074  0.2862
 4524TIP3   OH235206   0.445   4.531   6.569 -0.1444 -0.2103 -0.3369
 4524TIP3    H135207   0.357   4.567   6.582 -0.6731 -1.6260  0.2135
 4524TIP3    H235208   0.481   4.524   6.658  0.1464 -0.5348 -0.4796
 4525TIP3   OH235209   3.563   3.198   6.843  0.2108  0.1648 -0.3654
 4525TIP3    H135210   3.593   3.111   6.818 -2.2008 -0.8610  0.0191
 4525TIP3    H235211   3.468   3.193   6.838 -0.0322  2.5311  0.5196
 4526TIP3   OH235212   6.555   6.394   1.480  0.5317  0.6516 -0.9143
 4526TIP3    H135213   6.511   6.390   1.395 -1.7392  1.2055  0.1570
 4526TIP3    H235214   6.514   6.469   1.524  2.2606  0.8989  0.3716
 4527TIP3   OH235215   6.615   4.584   6.664 -0.2738  0.6730 -0.0200
 4527TIP3    H135216   6.542   4.548   6.714  0.0486  0.6392  0.4342
 4527TIP3    H235217   6.582   4.590   6.575 -2.1211  4.0480  0.7278
 4528TIP3   OH235218   5.001   5.644   7.934 -0.0669 -0.6026 -0.3982
 4528TIP3    H135219   4.926   5.703   7.940 -0.9686 -1.7171 -0.3537
 4528TIP3    H235220   5.047   5.657   8.017 -0.7322 -0.5692 -0.0204
 4529TIP3   OH235221   2.291   4.552   1.183 -0.4488 -0.4201 -0.2596
 4529TIP3    H135222   2.234   4.597   1.246  1.4111 -0.8695  1.8745
 4529TIP3    H235223   2.286   4.460   1.207  0.1834 -0.6253 -0.8794
 4530TIP3   OH235224   2.963   3.352   8.011  0.4060  0.6450 -0.2974
 4530TIP3    H135225   2.905   3.413   8.057 -3.6185 -2.1355 -1.1690
 4530TIP3    H235226   2.933   3.355   7.920  2.2792 -0.3429 -0.9953
 4531TIP3   OH235227   2.233   3.426   2.861  0.7070 -0.5221  0.1271
 4531TIP3    H135228   2.231   3.473   2.777 -2.3689 -0.5208  0.0739
 4531TIP3    H235229   2.228   3.334   2.837  0.6318 -0.5601  0.2849
 4532TIP3   OH235230   3.441   5.665   0.591  0.0025  0.4063  0.5258
 4532TIP3    H135231   3.464   5.622   0.509 -1.1524 -0.0396  0.4052
 4532TIP3    H235232   3.524   5.681   0.635  0.5437 -0.7712 -0.0275
 4533TIP3   OH235233   0.756   0.467   0.228  0.0067  0.0365 -0.3255
 4533TIP3    H135234   0.741   0.521   0.306  0.2611 -0.0766 -0.1989
 4533TIP3    H235235   0.684   0.490   0.169  0.2127  0.6508 -0.3446
 4534TIP3   OH235236   4.999   5.517   1.814 -0.1390 -0.8373 -0.0620
 4534TIP3    H135237   5.061   5.485   1.749  0.6756  0.9178 -0.2176
 4534TIP3    H235238   4.919   5.535   1.765 -0.1423 -1.2703 -0.2197
 4535TIP3   OH235239   3.010   4.478   0.925 -0.0786 -0.3621  0.1853
 4535TIP3    H135240   3.022   4.428   1.006  0.4234  0.1094  0.4089
 4535TIP3    H235241   2.924   4.520   0.936 -0.2468 -0.7155  0.2422
 4536TIP3   OH235242   1.200   6.361   1.054 -0.4013  0.7689 -0.5792
 4536TIP3    H135243   1.126   6.301   1.061  0.9079 -1.0197 -1.2847
 4536TIP3    H235244   1.241   6.358   1.140  0.1599 -0.0813 -0.8581
 4537TIP3   OH235245   6.190   3.101   7.406  0.4144  0.2305  0.0920
 4537TIP3    H135246   6.148   3.051   7.476 -1.1753  0.3626 -0.7315
 4537TIP3    H235247   6.216   3.036   7.341 -1.0335  0.3565 -0.6588
 4538TIP3   OH235248   5.251   0.758   1.469  0.4747  0.0708  0.0196
 4538TIP3    H135249   5.322   0.695   1.458  0.4858 -0.0078  0.5320
 4538TIP3    H235250   5.192   0.718   1.533 -0.8594 -0.5799 -1.5185
 4539TIP3   OH235251   2.025   1.774   0.703  0.5672  0.1899  0.5860
 4539TIP3    H135252   2.026   1.815   0.789  1.7988 -0.3169  0.8367
 4539TIP3    H235253   2.059   1.841   0.644 -1.8430  1.1361  0.1576
 4540TIP3   OH235254   2.170   3.997   6.775 -0.3636 -0.4168 -0.0628
 4540TIP3    H135255   2.120   4.030   6.700  0.9816  0.1283 -0.7474
 4540TIP3    H235256   2.188   3.906   6.754 -1.2692 -0.6903  0.3079
 4541TIP3   OH235257   1.331   0.370   1.659 -0.3765  0.0016 -0.6006
 4541TIP3    H135258   1.413   0.387   1.613 -0.4288  1.3418 -0.2328
 4541TIP3    H235259   1.287   0.455   1.662 -0.5786 -0.1264  1.5270
 4542TIP3   OH235260   6.487   6.282   2.106 -0.2943  0.0222 -0.3928
 4542TIP3    H135261   6.413   6.224   2.091 -0.7493  0.3671  0.4205
 4542TIP3    H235262   6.557   6.225   2.138 -0.6101 -0.1486  0.0051
 4543TIP3   OH235263   2.727   2.199   7.205  0.3447 -0.6658  0.2575
 4543TIP3    H135264   2.814   2.232   7.184  0.5184 -1.6029 -0.6120
 4543TIP3    H235265   2.682   2.196   7.121  0.6743 -3.4678  0.0659
 4544TIP3   OH235266   2.728   1.826   8.507 -0.1582 -0.5481  0.1231
 4544TIP3    H135267   2.652   1.845   8.562 -0.5815 -1.6032 -0.0521
 4544TIP3    H235268   2.754   1.910   8.470 -1.8775 -0.2904 -0.5965
 4545TIP3   OH235269   3.883   4.635   6.766  0.1454 -0.0102  0.0810
 4545TIP3    H135270   3.971   4.655   6.798  0.1154 -1.7775  1.4106
 4545TIP3    H235271   3.897   4.581   6.689  0.2012  0.6291 -0.3688
 4546TIP3   OH235272   0.954   6.347   1.733 -0.2215 -0.8669  0.1057
 4546TIP3    H135273   0.980   6.259   1.761 -0.1500 -0.7214  0.4966
 4546TIP3    H235274   1.018   6.405   1.773 -1.6033 -0.4144  1.8106
 4547TIP3   OH235275   5.311   3.222   0.742  0.2009 -0.4680  0.3466
 4547TIP3    H135276   5.366   3.300   0.756  0.8544 -1.2012  2.0514
 4547TIP3    H235277   5.263   3.212   0.823 -0.5138 -1.3820 -0.1765
 4548TIP3   OH235278   4.912   0.048   0.873 -0.2461  0.0185  0.3624
 4548TIP3    H135279   4.857  -0.012   0.823 -1.4901  0.3785  1.2625
 4548TIP3    H235280   4.958   0.100   0.807  0.7774 -1.8010 -0.4495
 4549TIP3   OH235281   5.714   2.935   1.783  0.5416 -0.4868 -0.2662
 4549TIP3    H135282   5.619   2.948   1.782  0.4839 -0.9697 -1.3148
 4549TIP3    H235283   5.749   3.009   1.734  0.7250 -0.2591  0.1973
 4550TIP3   OH235284   5.650   1.862   0.771  0.6544  0.2520  0.2299
 4550TIP3    H135285   5.649   1.778   0.817  1.6350 -0.2748 -0.6713
 4550TIP3    H235286   5.571   1.906   0.801  1.5260  0.1880  2.8524
 4551TIP3   OH235287   3.810   3.267   6.687  0.1163  0.6294  0.7802
 4551TIP3    H135288   3.882   3.251   6.748  0.2885 -1.4466  0.0856
 4551TIP3    H235289   3.732   3.241   6.736  0.1559 -0.0695  0.4805
 4552TIP3   OH235290   5.688   2.453   6.451 -0.1722 -0.1105 -0.0685
 4552TIP3    H135291   5.756   2.482   6.389  0.6197 -1.0772  0.3257
 4552TIP3    H235292   5.718   2.486   6.536 -1.9854  2.4866 -0.3032
 4553TIP3   OH235293   6.005   5.592   2.005  0.1397 -0.1864 -0.1132
 4553TIP3    H135294   6.049   5.617   1.924  1.7812 -1.9009  0.1582
 4553TIP3    H235295   6.065   5.621   2.074 -0.7830  0.4221  0.4480
 4554TIP3   OH235296   2.919   5.983   1.127  0.0968  0.6522 -0.5960
 4554TIP3    H135297   3.006   6.021   1.135  0.4047  0.1598 -1.5481
 4554TIP3    H235298   2.926   5.898   1.171 -0.8833  2.0410  2.5333
 4555TIP3   OH235299   1.523   5.514   0.643 -0.4126 -0.4287 -0.4775
 4555TIP3    H135300   1.462   5.587   0.652 -2.0046 -1.7831  0.1641
 4555TIP3    H235301   1.484   5.458   0.576  1.1578 -0.3770 -1.4878
 4556TIP3   OH235302   3.502   0.941   0.011  0.2397  0.3776  0.2720
 4556TIP3    H135303   3.468   0.885  -0.059  0.1960  1.7660 -0.8612
 4556TIP3    H235304   3.593   0.914   0.022 -0.2806 -1.1337  1.0226
 4557TIP3   OH235305   1.735   5.271   8.368  0.2966 -0.0741  0.5888
 4557TIP3    H135306   1.748   5.218   8.446  0.3186  1.2812  1.5455
 4557TIP3    H235307   1.652   5.317   8.383  2.1347  3.2256  1.7228
 4558TIP3   OH235308   0.444   5.407   6.565 -0.0372 -0.0181  0.2250
 4558TIP3    H135309   0.484   5.351   6.631 -0.1876 -1.4889 -0.8705
 4558TIP3    H235310   0.416   5.347   6.497 -2.2317  1.1815 -0.0142
 4559TIP3   OH235311   5.368   4.766   0.011 -0.3842  0.0643 -0.0367
 4559TIP3    H135312   5.449   4.789  -0.032  0.9452  0.0683  2.2816
 4559TIP3    H235313   5.385   4.680   0.050 -2.0832 -0.6969 -0.8561
 4560TIP3   OH235314   6.543   3.837   8.473  0.2373 -0.2507  0.5901
 4560TIP3    H135315   6.558   3.864   8.383 -1.3455  1.1607  0.7005
 4560TIP3    H235316   6.609   3.770   8.490  1.3649  0.3572 -1.1995
 4561TIP3   OH235317   3.244   0.563   7.028  0.2134 -0.2643 -0.1399
 4561TIP3    H135318   3.188   0.521   7.093 -0.9163  2.0191  0.4986
 4561TIP3    H235319   3.331   0.525   7.042 -0.4531 -1.3364  1.2818
 4562TIP3   OH235320   6.305   0.312   7.063  0.3342 -0.3293 -0.0707
 4562TIP3    H135321   6.285   0.265   6.982  1.2988 -0.1678 -0.4178
 4562TIP3    H235322   6.389   0.354   7.046  0.7964 -0.7068  1.2012
 4563TIP3   OH235323   2.683   2.693   1.772 -0.8787 -1.0963 -0.4810
 4563TIP3    H135324   2.630   2.623   1.736 -2.4315  0.4303 -1.2580
 4563TIP3    H235325   2.688   2.759   1.703  0.5716 -0.4332  0.2055
 4564TIP3   OH235326   6.665   1.978   1.721 -0.3253 -0.0327 -0.0594
 4564TIP3    H135327   6.695   1.889   1.700 -1.3761 -0.3544 -0.2726
 4564TIP3    H235328   6.739   2.018   1.766  0.7018 -0.5212 -1.2619
 4565TIP3   OH235329   0.800   3.487   8.444  0.3035 -0.2151 -0.5339
 4565TIP3    H135330   0.788   3.410   8.388 -0.1459 -0.0233 -0.7071
 4565TIP3    H235331   0.827   3.452   8.528 -1.0869 -0.6492 -0.2457
 4566TIP3   OH235332   2.823   1.482   7.135  0.6058 -0.0146 -0.0667
 4566TIP3    H135333   2.808   1.389   7.152  1.5650 -0.0853  0.4266
 4566TIP3    H235334   2.833   1.487   7.039 -1.1183 -0.1506 -0.2895
 4567TIP3   OH235335   0.720   4.952   7.560  0.2696 -0.3915  0.0893
 4567TIP3    H135336   0.799   4.920   7.602 -0.4499 -1.0528  0.9764
 4567TIP3    H235337   0.649   4.931   7.621 -0.5699  0.4103 -0.5636
 4568TIP3   OH235338   0.213   2.265   8.284 -0.2656 -0.1103 -0.0690
 4568TIP3    H135339   0.300   2.300   8.303 -0.0192 -0.7025 -0.0914
 4568TIP3    H235340   0.153   2.322   8.332  0.1178  0.4239 -0.2151
 4569TIP3   OH235341   3.644   3.017   8.210  0.1735 -0.7024  0.2369
 4569TIP3    H135342   3.646   3.110   8.188 -1.8809  0.0218  2.6119
 4569TIP3    H235343   3.645   2.972   8.125 -1.3539  1.5796 -1.1003
 4570TIP3   OH235344   5.844   0.564   0.365 -0.0295  0.1266 -0.3938
 4570TIP3    H135345   5.755   0.530   0.378  0.0141 -0.1455 -0.7699
 4570TIP3    H235346   5.880   0.510   0.295  0.0913  0.8575 -0.9127
 4571TIP3   OH235347   2.315   0.014   0.158 -0.1793 -0.1138  0.2689
 4571TIP3    H135348   2.302  -0.080   0.154  1.2473 -0.2988 -1.0408
 4571TIP3    H235349   2.328   0.033   0.251 -0.2890 -1.2350  0.5176
 4572TIP3   OH235350   5.043   5.729   1.044 -0.1616  0.0728 -0.2565
 4572TIP3    H135351   5.085   5.770   0.969  1.7252  1.0512  1.2663
 4572TIP3    H235352   5.088   5.645   1.054 -0.0064  0.2052  0.1481
 4573TIP3   OH235353   3.805   0.985   8.615  0.2922  0.1519  0.0677
 4573TIP3    H135354   3.840   1.065   8.576 -0.8474  0.0065 -1.3778
 4573TIP3    H235355   3.882   0.938   8.647  1.1070  1.1920 -0.2987
 4574TIP3   OH235356   2.491   3.731   7.591 -0.3713  0.0823  0.1795
 4574TIP3    H135357   2.435   3.673   7.643  0.1838  0.2503  0.9766
 4574TIP3    H235358   2.488   3.694   7.502 -0.0539 -1.1474  0.6658
 4575TIP3   OH235359   4.102   1.823   7.611 -0.3166 -0.2801  0.0609
 4575TIP3    H135360   4.103   1.855   7.520  0.4238 -0.2542  0.0741
 4575TIP3    H235361   4.180   1.862   7.651 -0.8801  0.0794  0.8423
 4576TIP3   OH235362   5.954   6.457   2.219  0.3332  0.2899 -0.6509
 4576TIP3    H135363   6.016   6.478   2.149  2.4175 -1.7780  0.4360
 4576TIP3    H235364   5.953   6.534   2.274  0.6828  0.9636 -1.5632
 4577TIP3   OH235365   4.109   1.573   1.056 -0.6941  0.2574 -0.5290
 4577TIP3    H135366   4.053   1.600   1.129 -0.2395  0.0375 -0.0886
 4577TIP3    H235367   4.196   1.606   1.080 -0.4961 -0.0251 -0.8598
 4578TIP3   OH235368   2.785   1.661   1.262 -0.4664 -0.9525  0.3919
 4578TIP3    H135369   2.795   1.749   1.299 -1.3492 -1.5453  2.1571
 4578TIP3    H235370   2.715   1.670   1.197  2.4894  0.5522 -2.9202
 4579TIP3   OH235371   6.298   1.878   6.424  0.7677 -0.5241 -0.3178
 4579TIP3    H135372   6.215   1.853   6.384 -0.2138  0.9305  0.7217
 4579TIP3    H235373   6.351   1.798   6.421 -2.0549 -2.7831  2.5199
 4580TIP3   OH235374   6.063   3.718   0.182  0.4904 -0.2684  0.2007
 4580TIP3    H135375   5.993   3.740   0.120 -1.3625 -1.1841  1.8806
 4580TIP3    H235376   6.046   3.774   0.258  1.0985 -1.0861  0.9526
 4581TIP3   OH235377   5.863   0.832   2.168 -0.6201 -0.4631 -0.1867
 4581TIP3    H135378   5.794   0.829   2.235  0.1116 -0.9406  0.5623
 4581TIP3    H235379   5.944   0.840   2.218  0.0480 -2.0069 -0.9627
 4582TIP3   OH235380   1.745   0.540   6.713 -0.4950 -0.6661  0.2798
 4582TIP3    H135381   1.807   0.611   6.694 -0.8348 -0.3230  0.4430
 4582TIP3    H235382   1.677   0.550   6.647  0.1738 -1.7218 -0.5936
 4583TIP3   OH235383   4.105   5.430   2.753  0.6262  0.1491 -0.6738
 4583TIP3    H135384   4.122   5.436   2.847 -1.9005  1.8627 -0.2327
 4583TIP3    H235385   4.139   5.344   2.728  1.4992 -0.2850  1.7620
 4584TIP3   OH235386   4.327   5.053   7.731 -0.0595 -0.0425 -0.1092
 4584TIP3    H135387   4.379   4.975   7.750 -0.5420 -0.1190  0.9888
 4584TIP3    H235388   4.262   5.023   7.667 -1.3645 -1.0534  1.5825
 4585TIP3   OH235389   5.194   1.206   8.231  0.7925 -0.4539  0.5343
 4585TIP3    H135390   5.286   1.210   8.203  0.7058  1.4338  0.3876
 4585TIP3    H235391   5.199   1.192   8.326  1.2374 -0.1302  0.5605
 4586TIP3   OH235392   2.538   4.562   7.891 -0.1745  0.0098 -0.2663
 4586TIP3    H135393   2.474   4.491   7.888 -1.8544  1.3917  0.5273
 4586TIP3    H235394   2.619   4.521   7.919 -0.7093 -1.8130 -1.2324
 4587TIP3   OH235395   2.692   2.822   0.876 -0.1904 -0.3765  0.0622
 4587TIP3    H135396   2.705   2.777   0.793 -0.8533 -2.0846  0.8283
 4587TIP3    H235397   2.667   2.752   0.937 -0.4334  0.9345  1.5193
 4588TIP3   OH235398   2.548   5.217   8.012  0.2589  0.2358  0.2666
 4588TIP3    H135399   2.461   5.231   8.051 -0.2677  1.4901 -1.2570
 4588TIP3    H235400   2.542   5.257   7.926  2.2929  0.0951  0.0170
 4589TIP3   OH235401   6.657   4.690   2.307 -0.0776  0.3470 -0.3584
 4589TIP3    H135402   6.573   4.693   2.352  0.0815 -0.4147  0.0035
 4589TIP3    H235403   6.692   4.603   2.327  0.0837  0.0611 -1.8029
 4590TIP3   OH235404   0.801   1.718   0.553  0.5086 -0.3242  0.4758
 4590TIP3    H135405   0.775   1.782   0.487 -1.3022 -0.1008  1.3514
 4590TIP3    H235406   0.736   1.648   0.545 -0.0077 -0.0884  2.2680
 4591TIP3   OH235407   4.542   5.578   1.989 -0.6898 -0.6313  0.1766
 4591TIP3    H135408   4.529   5.569   2.083 -1.3805  0.2784  0.1780
 4591TIP3    H235409   4.630   5.614   1.980 -1.2576  0.9281  0.5760
 4592TIP3   OH235410   4.309   4.385   8.017  0.2918  0.1421 -0.3416
 4592TIP3    H135411   4.285   4.410   8.107  1.4010 -2.8119  0.8999
 4592TIP3    H235412   4.387   4.438   7.998  0.0054  0.8560  0.3789
 4593TIP3   OH235413   2.776   4.561   1.026  0.1092 -0.7354 -0.5085
 4593TIP3    H135414   2.713   4.543   1.096 -1.0669  2.2799 -0.6481
 4593TIP3    H235415   2.722   4.574   0.948  0.5281  3.4771 -0.3307
 4594TIP3   OH235416   0.522   6.080   1.713 -0.2015  1.4519  0.6313
 4594TIP3    H135417   0.541   6.048   1.801  1.0312 -1.7921 -0.6780
 4594TIP3    H235418   0.430   6.057   1.699  0.2141 -0.1710  0.3227
 4595TIP3   OH235419   6.203   2.125   6.790  0.7060  0.0883 -0.3018
 4595TIP3    H135420   6.244   2.180   6.856  1.9337  2.7105 -3.0613
 4595TIP3    H235421   6.269   2.059   6.768  0.0188 -1.2840  1.4652
 4596TIP3   OH235422   0.990   0.602   7.598  0.7624  0.1202 -0.0304
 4596TIP3    H135423   0.897   0.585   7.579 -0.0171  2.9535  0.6728
 4596TIP3    H235424   1.036   0.572   7.519 -1.2183  2.0172 -2.0776
 4597TIP3   OH235425   4.098   2.635   7.970 -0.4214 -0.1363 -0.0118
 4597TIP3    H135426   4.142   2.550   7.972  1.7921  0.8691 -1.4645
 4597TIP3    H235427   4.005   2.614   7.959  0.0598 -2.3596 -0.3451
 4598TIP3   OH235428   6.184   4.638   1.925  0.3907  0.0325  0.1524
 4598TIP3    H135429   6.258   4.607   1.977  0.9039  0.7140 -0.1696
 4598TIP3    H235430   6.122   4.671   1.990  0.4599 -0.3256  0.4060
 4599TIP3   OH235431   2.516   6.804   7.546 -0.1995  0.1793  0.2431
 4599TIP3    H135432   2.464   6.747   7.488  1.3581 -0.3406 -0.7014
 4599TIP3    H235433   2.496   6.892   7.515 -0.6864  0.0062  0.0414
 4600TIP3   OH235434   4.453   6.023   1.306 -0.3312  0.0879  0.0911
 4600TIP3    H135435   4.529   5.972   1.277 -0.6067  0.4100 -1.2297
 4600TIP3    H235436   4.430   6.078   1.231  0.5952  2.9858  1.7459
 4601TIP3   OH235437   4.437   5.712   6.944  0.2497  0.0905 -0.6903
 4601TIP3    H135438   4.411   5.804   6.951 -1.4704 -0.4929  2.6469
 4601TIP3    H235439   4.528   5.710   6.974  0.4260  0.7326 -1.1661
 4602TIP3   OH235440   6.897   4.135   7.239 -0.1322 -0.3875 -0.1274
 4602TIP3    H135441   6.946   4.122   7.320 -0.2563  2.4702  0.5149
 4602TIP3    H235442   6.865   4.225   7.245 -1.0405 -0.4417 -2.8919
 4603TIP3   OH235443   3.283   2.792   1.564 -0.5713 -0.2521  0.2326
 4603TIP3    H135444   3.288   2.772   1.470 -1.1974  0.4032  0.0531
 4603TIP3    H235445   3.286   2.887   1.568  1.2585 -0.3050  1.0081
 4604TIP3   OH235446   4.816   2.494   8.610  0.4127 -0.3815 -0.8785
 4604TIP3    H135447   4.782   2.474   8.698  1.2527 -1.5148 -0.7809
 4604TIP3    H235448   4.807   2.411   8.562  2.4241 -0.5657 -1.0240
 4605TIP3   OH235449   6.478   0.847   2.271 -0.1869 -0.2066 -0.4218
 4605TIP3    H135450   6.570   0.870   2.277  0.4659 -2.5165 -0.4181
 4605TIP3    H235451   6.431   0.925   2.298  1.8515  0.0161  3.0160
 4606TIP3   OH235452   2.405   3.649   7.037  0.5410  0.3827 -0.1108
 4606TIP3    H135453   2.458   3.604   6.971  0.3160  1.6926 -1.2482
 4606TIP3    H235454   2.315   3.643   7.004  0.2622  0.0584  0.6844
 4607TIP3   OH235455   1.591   6.533   0.374  0.1709  0.4644  0.3506
 4607TIP3    H135456   1.617   6.537   0.467  1.4121 -1.1569  0.1086
 4607TIP3    H235457   1.506   6.489   0.374 -1.5544  3.4529  0.9231
 4608TIP3   OH235458   4.928   0.138   7.413 -0.1686  0.5567  0.1527
 4608TIP3    H135459   4.846   0.093   7.395  0.1449  0.2104 -0.4231
 4608TIP3    H235460   4.926   0.216   7.358  0.2622  0.1112 -0.4980
 4609TIP3   OH235461   1.373   2.078   7.536 -0.5319  0.2188  0.2230
 4609TIP3    H135462   1.457   2.122   7.525  0.5590 -2.0312 -1.1905
 4609TIP3    H235463   1.336   2.075   7.448 -0.9043 -1.0052  0.4015
 4610TIP3   OH235464   4.867   5.792   1.370  0.1699 -0.1458 -0.3938
 4610TIP3    H135465   4.834   5.880   1.351 -0.3834 -0.1065  0.6785
 4610TIP3    H235466   4.962   5.804   1.382  0.2183  0.1601 -1.0448
 4611TIP3   OH235467   3.580   1.685   6.299 -0.0357 -0.1916 -0.0636
 4611TIP3    H135468   3.619   1.651   6.219  0.6204 -0.6022  0.4181
 4611TIP3    H235469   3.633   1.762   6.320  0.4449 -0.6673  0.5135
 4612TIP3   OH235470   1.218   5.894   7.089  0.0969  0.6037  0.2636
 4612TIP3    H135471   1.179   5.814   7.055  0.7787  0.2738  0.2243
 4612TIP3    H235472   1.145   5.944   7.124 -0.2788 -0.2840  0.7865
 4613TIP3   OH235473   0.120   2.000   7.164 -0.9192 -0.3798  0.4207
 4613TIP3    H135474   0.107   2.010   7.070  1.4210 -0.0332  0.0801
 4613TIP3    H235475   0.100   2.086   7.200  1.4605  0.5487 -0.2549
 4614TIP3   OH235476   6.268   3.108   0.315 -0.2374  0.1156 -0.3658
 4614TIP3    H135477   6.217   3.189   0.311  0.4484  0.5353 -0.7433
 4614TIP3    H235478   6.203   3.038   0.305 -0.8995  0.5915  0.4571
 4615TIP3   OH235479   2.669   1.289   7.630 -0.2374 -0.8360  0.0073
 4615TIP3    H135480   2.672   1.370   7.681 -0.6372 -0.7294 -0.1337
 4615TIP3    H235481   2.729   1.230   7.675 -0.0299 -0.5003  0.1779
 4616TIP3   OH235482   1.600   3.593   7.843  0.2030  0.7280 -0.0471
 4616TIP3    H135483   1.556   3.600   7.758  2.8956  0.1529 -1.6345
 4616TIP3    H235484   1.634   3.681   7.860  1.5500  0.3808 -0.7566
 4617TIP3   OH235485   4.954   3.880   7.871 -0.7772  0.1304 -0.4347
 4617TIP3    H135486   4.902   3.815   7.919  0.5040 -0.4980  0.1477
 4617TIP3    H235487   4.958   3.846   7.781  0.0334 -0.7264 -0.0970
 4618TIP3   OH235488   0.554   5.502   1.107 -0.1184  0.9810 -0.2854
 4618TIP3    H135489   0.461   5.484   1.092 -0.4815  2.0025  0.6110
 4618TIP3    H235490   0.589   5.523   1.020 -0.7120  0.5118 -0.6383
 4619TIP3   OH235491   0.561   0.776   0.650 -0.8065 -0.4250  0.1570
 4619TIP3    H135492   0.479   0.746   0.689 -0.4315 -1.0646  0.4812
 4619TIP3    H235493   0.626   0.764   0.720 -0.3719 -0.2717 -0.2133
 4620TIP3   OH235494   0.284   5.985   0.480  0.3245  0.0722  0.1982
 4620TIP3    H135495   0.257   6.028   0.399  0.2176  1.5564  0.9718
 4620TIP3    H235496   0.380   5.991   0.479  0.3199  0.1530  0.2038
 4621TIP3   OH235497   2.448   0.462   6.764  0.0198  0.2470 -0.1183
 4621TIP3    H135498   2.422   0.420   6.682  1.3183  1.1399 -1.0265
 4621TIP3    H235499   2.528   0.415   6.790  0.0292  0.4616  0.2354
 4622TIP3   OH235500   6.057   2.943   0.287 -0.0495 -0.1168 -0.3955
 4622TIP3    H135501   5.968   2.976   0.299 -0.3340 -1.1003  0.3500
 4622TIP3    H235502   6.062   2.867   0.345  0.7926 -0.9727 -1.5594
 4623TIP3   OH235503   6.037   3.168   8.354  0.2824 -0.5960 -0.1360
 4623TIP3    H135504   6.023   3.252   8.311  1.8649 -0.3946 -0.3268
 4623TIP3    H235505   6.043   3.189   8.447 -3.0550 -1.0212  0.3018
 4624TIP3   OH235506   2.191   2.132   0.985 -0.5252  0.5328  1.1051
 4624TIP3    H135507   2.167   2.199   1.049  0.6750  1.0852  1.0068
 4624TIP3    H235508   2.286   2.138   0.979 -0.5281 -0.2356  0.0550
 4625TIP3   OH235509   6.781   3.002   1.013 -0.7004 -0.8349 -0.3490
 4625TIP3    H135510   6.781   2.939   0.941 -0.3543 -2.1913  0.7979
 4625TIP3    H235511   6.820   3.081   0.976 -1.3578 -1.2021 -1.8820
 4626TIP3   OH235512   3.207   3.126   0.270  0.1792  0.6921 -0.3709
 4626TIP3    H135513   3.186   3.151   0.359 -3.4932  0.4785 -1.0146
 4626TIP3    H235514   3.177   3.035   0.263  0.2385  0.7627 -1.8560
 4627TIP3   OH235515   6.109   4.984   1.907  0.0242 -0.1851  0.2824
 4627TIP3    H135516   6.096   4.923   1.834  1.9115  0.9840 -1.1438
 4627TIP3    H235517   6.192   4.958   1.945  0.0613  0.5076  0.6853
 4628TIP3   OH235518   4.377   5.385   0.959  0.2244 -0.4808  0.4002
 4628TIP3    H135519   4.374   5.324   0.886 -0.1264 -0.3060  0.2630
 4628TIP3    H235520   4.431   5.458   0.928 -0.3328 -0.1745  0.1246
 4629TIP3   OH235521   0.463   4.774   0.409  0.6058  0.3207 -0.3835
 4629TIP3    H135522   0.413   4.798   0.487 -2.0650  1.4862 -2.2879
 4629TIP3    H235523   0.553   4.800   0.429  0.5979 -1.8357  3.2271
 4630TIP3   OH235524   6.291   2.220   0.906 -0.3585  0.2983  0.4359
 4630TIP3    H135525   6.213   2.214   0.962 -1.0165 -1.4753 -0.5930
 4630TIP3    H235526   6.365   2.214   0.967 -1.0362 -2.4185  1.1291
 4631TIP3   OH235527   0.341   1.579   0.663 -0.0613 -0.3078  0.5153
 4631TIP3    H135528   0.303   1.545   0.583  1.2144 -0.7710  0.0833
 4631TIP3    H235529   0.297   1.663   0.677 -1.1555 -0.7764  0.0110
 4632TIP3   OH235530   1.567   2.522   2.744  0.0373 -0.1424  0.3737
 4632TIP3    H135531   1.576   2.615   2.766  0.3778 -0.7356  3.0366
 4632TIP3    H235532   1.478   2.499   2.773 -1.0148 -0.1556 -2.5556
 4633TIP3   OH235533   6.277   2.925   0.880  0.0617  0.3681 -0.0696
 4633TIP3    H135534   6.354   2.895   0.832 -0.1462  1.3766 -1.0763
 4633TIP3    H235535   6.287   2.887   0.968  1.3189 -0.1178 -0.4007
 4634TIP3   OH235536   1.870   1.791   7.156 -0.2808  0.1544 -0.0029
 4634TIP3    H135537   1.873   1.732   7.231 -0.8481 -1.0436 -0.8888
 4634TIP3    H235538   1.891   1.736   7.081 -0.8486  1.0790 -0.8721
 4635TIP3   OH235539   0.057   3.433   8.291 -0.3504  0.6095  0.4234
 4635TIP3    H135540   0.050   3.454   8.384  0.5594 -0.3191  0.7207
 4635TIP3    H235541   0.042   3.516   8.246 -2.6129  0.7446  1.3129
 4636TIP3   OH235542   1.199   4.719   2.902  0.1632 -0.1986 -0.3986
 4636TIP3    H135543   1.208   4.814   2.898  0.9914 -0.2937 -0.9609
 4636TIP3    H235544   1.105   4.704   2.912  0.1277  0.7145  0.9800
 4637TIP3   OH235545   4.592   6.719   0.261  0.4992 -0.8404 -0.5219
 4637TIP3    H135546   4.515   6.662   0.250 -0.5144  0.6821 -1.6593
 4637TIP3    H235547   4.556   6.804   0.287  2.1398 -1.4584  5.1976
 4638TIP3   OH235548   1.822   0.460   1.528 -0.1201 -0.1999 -0.2367
 4638TIP3    H135549   1.908   0.421   1.545  0.0107  0.3631  0.4191
 4638TIP3    H235550   1.837   0.554   1.535 -1.4590 -0.1015  3.3851
 4639TIP3   OH235551   1.515   3.984   7.043 -0.2869  0.1540 -0.3642
 4639TIP3    H135552   1.469   4.027   7.115  1.5181  0.5728  0.5993
 4639TIP3    H235553   1.548   4.055   6.989  1.9682  0.0454  0.7613
 4640TIP3   OH235554   0.956   5.257   0.306 -0.1134  0.7394  0.0369
 4640TIP3    H135555   1.023   5.305   0.256 -0.5788  0.9728 -0.3685
 4640TIP3    H235556   0.935   5.182   0.251 -0.4714  0.8800 -0.0192
 4641TIP3   OH235557   6.256   5.624   7.168  0.3045  0.4443  0.2598
 4641TIP3    H135558   6.177   5.665   7.133 -0.3522 -0.0921  1.0716
 4641TIP3    H235559   6.300   5.693   7.217  1.1690  1.1722 -1.4410
 4642TIP3   OH235560   6.117   1.133   1.729 -0.3903 -0.0496 -0.3362
 4642TIP3    H135561   6.165   1.183   1.663 -1.2121 -0.0066 -0.9097
 4642TIP3    H235562   6.102   1.047   1.688 -1.0330  0.0272 -0.2683
 4643TIP3   OH235563   0.178   3.306   1.985 -0.3743 -0.0127 -0.1353
 4643TIP3    H135564   0.147   3.338   2.070 -0.2640  0.5185 -0.2951
 4643TIP3    H235565   0.249   3.365   1.961 -1.3273  0.7170 -1.2571
 4644TIP3   OH235566   0.539   1.645   0.441  0.0374  0.0313 -0.0619
 4644TIP3    H135567   0.492   1.562   0.447  0.3744 -0.2256 -0.8265
 4644TIP3    H235568   0.476   1.711   0.470 -0.3895 -0.4390  0.0931
 4645TIP3   OH235569   1.352   1.805   7.506  0.2823 -0.5586 -0.4524
 4645TIP3    H135570   1.400   1.883   7.535  1.5233 -1.4032 -0.1708
 4645TIP3    H235571   1.260   1.830   7.513  0.6419  0.6519  0.3021
 4646TIP3   OH235572   6.737   4.128   0.280 -0.4632  0.3740 -0.4317
 4646TIP3    H135573   6.730   4.064   0.351 -0.5607  0.4292 -0.3917
 4646TIP3    H235574   6.652   4.126   0.238  0.1540 -1.0307 -1.7277
 4647TIP3   OH235575   4.584   2.166   7.019  0.4841 -0.3139  0.5841
 4647TIP3    H135576   4.650   2.175   7.087  1.4211 -2.4064  0.0327
 4647TIP3    H235577   4.616   2.095   6.963 -0.1916  1.3699 -2.1393
 4648TIP3   OH235578   6.062   2.550   1.388  0.4247 -0.0948  0.0406
 4648TIP3    H135579   6.067   2.519   1.298 -1.4072  1.1272 -0.5190
 4648TIP3    H235580   6.082   2.643   1.384 -0.5391  0.1606  0.7618
 4649TIP3   OH235581   1.849   0.758   7.469  0.3995 -0.0587  0.2994
 4649TIP3    H135582   1.886   0.695   7.531 -1.6327 -0.3152  1.3651
 4649TIP3    H235583   1.924   0.803   7.433  1.8375 -1.9716  0.7240
 4650TIP3   OH235584   3.527   6.605   6.905  0.3834  0.0527 -0.1244
 4650TIP3    H135585   3.513   6.527   6.853 -1.5268  0.3585 -0.1255
 4650TIP3    H235586   3.501   6.678   6.848 -2.5108  0.3473  1.3688
 4651TIP3   OH235587   0.753   6.195   0.757 -0.6294  0.4239 -0.1441
 4651TIP3    H135588   0.841   6.187   0.719  0.1799  2.2947  1.1720
 4651TIP3    H235589   0.751   6.132   0.829 -0.1857  0.6952  0.1088
 4652TIP3   OH235590   2.830   6.302   7.523 -0.0159  0.0629  0.3884
 4652TIP3    H135591   2.782   6.384   7.535 -0.9271 -0.2112 -1.0463
 4652TIP3    H235592   2.784   6.258   7.451  1.5377 -0.8830 -0.0804
 4653TIP3   OH235593   6.021   6.719   0.824  0.1972  0.3188  0.1078
 4653TIP3    H135594   5.947   6.660   0.811  1.0831 -1.2572  1.8274
 4653TIP3    H235595   6.000   6.766   0.905  2.1132 -1.9791  2.0779
 4654TIP3   OH235596   3.414   3.542   1.404  0.0137 -0.4873  0.6135
 4654TIP3    H135597   3.447   3.598   1.473  0.0631  0.2833 -0.0256
 4654TIP3    H235598   3.476   3.469   1.400  2.2352  1.3426 -1.1302
 4655TIP3   OH235599   6.090   2.041   8.064  0.3061 -0.3549 -0.0849
 4655TIP3    H135600   6.150   1.996   8.124 -1.2812 -1.0184  1.0918
 4655TIP3    H235601   6.046   2.107   8.120 -0.4567 -0.2716 -0.7595
 4656TIP3   OH235602   4.757   3.831   0.023  0.0185  0.4578 -0.1954
 4656TIP3    H135603   4.722   3.918   0.041 -1.4665 -0.0152 -0.6151
 4656TIP3    H235604   4.722   3.777   0.094 -0.0998 -0.0304 -0.6186
 4657TIP3   OH235605   5.926   2.294   2.573 -0.2180  0.4651 -0.0626
 4657TIP3    H135606   5.888   2.206   2.568 -0.6130  0.6627 -0.6997
 4657TIP3    H235607   5.892   2.330   2.655  0.1781 -0.0783  0.3459
 4658TIP3   OH235608   1.957   0.568   1.861  0.4260  0.2304 -0.6471
 4658TIP3    H135609   2.044   0.599   1.836  1.7685 -3.0331 -0.5398
 4658TIP3    H235610   1.956   0.571   1.957 -0.5036  2.3433 -0.6742
 4659TIP3   OH235611   3.817   2.291   6.884  0.1486  0.1759 -0.2371
 4659TIP3    H135612   3.798   2.205   6.846  0.4033 -0.8903  1.9133
 4659TIP3    H235613   3.912   2.294   6.890  0.0902 -0.0245  1.0165
 4660TIP3   OH235614   0.293   6.345   8.207 -0.1035 -0.3214 -0.4843
 4660TIP3    H135615   0.365   6.397   8.170  3.2393 -3.4272  1.0670
 4660TIP3    H235616   0.231   6.336   8.135  2.5288  0.0232 -3.0009
 4661TIP3   OH235617   0.365   6.810   0.896 -0.2988 -0.0250  0.0334
 4661TIP3    H135618   0.408   6.882   0.849 -1.0725  0.2929 -0.2055
 4661TIP3    H235619   0.434   6.773   0.951  0.2351  0.5824 -0.2104
 4662TIP3   OH235620   1.540   6.123   0.151 -0.6200 -0.0592  0.2498
 4662TIP3    H135621   1.608   6.139   0.216  0.5287 -0.3525 -0.8403
 4662TIP3    H235622   1.506   6.036   0.172 -0.2442 -0.1574  0.4539
 4663TIP3   OH235623   2.715   4.390   2.168 -0.0131 -0.0445  0.2962
 4663TIP3    H135624   2.711   4.369   2.261  0.9692  0.3127  0.4324
 4663TIP3    H235625   2.760   4.475   2.164  0.8016 -0.4925 -0.5431
 4664TIP3   OH235626   1.563   5.926   2.074 -0.0756  0.4373 -0.0524
 4664TIP3    H135627   1.632   5.955   2.133 -0.9716 -0.0876  1.3249
 4664TIP3    H235628   1.562   5.831   2.084  0.3155  0.2446 -1.5966
 4665TIP3   OH235629   4.171   1.155   0.710 -0.0996 -0.4862  0.0848
 4665TIP3    H135630   4.264   1.148   0.734  0.5436  1.5534 -1.5011
 4665TIP3    H235631   4.132   1.208   0.780  0.5537  0.9049 -0.5801
 4666TIP3   OH235632   5.567   0.724   0.817 -0.4524 -0.3018 -0.4462
 4666TIP3    H135633   5.495   0.669   0.847 -0.8539  0.7337  0.5398
 4666TIP3    H235634   5.644   0.668   0.823 -1.3464 -2.0565 -3.2919
 4667TIP3   OH235635   4.390   1.816   8.412 -0.5898 -0.1480 -1.1719
 4667TIP3    H135636   4.471   1.860   8.437 -1.1695  0.5403 -0.4644
 4667TIP3    H235637   4.321   1.881   8.429 -1.2981 -0.7463 -1.6951
 4668TIP3   OH235638   2.117   1.844   7.653 -0.6378 -0.0902  0.1464
 4668TIP3    H135639   2.167   1.871   7.576 -0.5273  2.4171  0.9990
 4668TIP3    H235640   2.183   1.830   7.721 -0.8748  0.1265  0.4280
 4669TIP3   OH235641   0.514   4.556   6.848 -0.2900 -0.3522  0.2857
 4669TIP3    H135642   0.608   4.560   6.866  0.0513 -0.2438 -1.3566
 4669TIP3    H235643   0.479   4.637   6.884  0.0327 -0.9279  1.9574
 4670TIP3   OH235644   4.424   1.415   0.062 -0.0829 -0.0232  1.1763
 4670TIP3    H135645   4.469   1.499   0.052 -0.5498  0.2671  1.4752
 4670TIP3    H235646   4.360   1.430   0.132 -1.2695 -0.1577  0.1570
 4671TIP3   OH235647   1.774   3.772   0.566 -0.3451 -0.5421 -0.2496
 4671TIP3    H135648   1.692   3.725   0.554  0.9876 -3.2128  0.3563
 4671TIP3    H235649   1.817   3.767   0.481 -0.8012  0.9216 -0.5898
 4672TIP3   OH235650   1.039   3.921   0.151 -0.3899  1.0571  0.1331
 4672TIP3    H135651   1.131   3.949   0.159  0.4055 -1.0637 -0.9428
 4672TIP3    H235652   1.020   3.928   0.057 -1.2128  1.1073  0.2964
 4673TIP3   OH235653   1.766   5.955   2.268  0.2692  0.6677  0.7194
 4673TIP3    H135654   1.833   5.890   2.286  0.4228  0.2768 -1.1051
 4673TIP3    H235655   1.815   6.035   2.249  0.3245  0.2065 -1.3363
 4674TIP3   OH235656   4.299   2.666   0.275 -0.0159  0.1058 -0.1836
 4674TIP3    H135657   4.209   2.696   0.280  0.1480  0.6441 -0.4242
 4674TIP3    H235658   4.310   2.610   0.352 -0.9585 -1.0778 -0.8715
 4675TIP3   OH235659   6.720   4.860   1.197 -0.1502 -0.2318 -0.1480
 4675TIP3    H135660   6.719   4.927   1.266 -0.3041 -0.4117  0.0263
 4675TIP3    H235661   6.776   4.791   1.232 -1.0617 -0.7909  0.2502
 4676TIP3   OH235662   6.859   3.543   0.175  0.3017 -0.1313  0.1011
 4676TIP3    H135663   6.909   3.617   0.209  1.2194  0.9334 -3.1710
 4676TIP3    H235664   6.775   3.548   0.220  0.3875  2.8741  0.1203
 4677TIP3   OH235665   2.091   2.281   1.511 -0.2742 -0.1366  0.2294
 4677TIP3    H135666   2.125   2.361   1.550 -1.1370  0.0627  0.6120
 4677TIP3    H235667   2.131   2.210   1.562  1.6576 -0.0400 -1.0518
 4678TIP3   OH235668   4.745   2.291   8.452  0.3120  0.6002 -0.0914
 4678TIP3    H135669   4.798   2.253   8.383 -2.1412  0.4371 -2.0213
 4678TIP3    H235670   4.692   2.358   8.408  0.0109  1.8378  2.0026
 4679TIP3   OH235671   6.675   6.553   0.973  0.1605  0.0690  0.4428
 4679TIP3    H135672   6.707   6.481   1.027 -0.4149 -0.0684  0.6075
 4679TIP3    H235673   6.682   6.630   1.029 -0.6734 -0.1152  0.8018
 4680TIP3   OH235674   4.447   1.202   6.625 -0.1186 -0.2542  0.2229
 4680TIP3    H135675   4.488   1.153   6.696  1.0157 -0.2467 -0.4124
 4680TIP3    H235676   4.434   1.290   6.661  2.1827  0.2915 -0.1635
 4681TIP3   OH235677   3.866   1.998   0.222  0.4527  0.4335 -0.1786
 4681TIP3    H135678   3.818   1.920   0.251  0.1906  0.5770 -0.2224
 4681TIP3    H235679   3.887   2.044   0.303  1.8529 -0.3930 -0.0373
 4682TIP3   OH235680   4.457   2.616   8.148  0.5202 -0.2266 -0.3117
 4682TIP3    H135681   4.410   2.643   8.069  1.0579 -0.4672 -0.7145
 4682TIP3    H235682   4.408   2.656   8.220 -0.7525 -1.0970 -0.6683
 4683TIP3   OH235683   1.927   5.730   7.092  0.0312  0.4667  0.5419
 4683TIP3    H135684   2.001   5.781   7.059  0.8556  1.4994  3.6503
 4683TIP3    H235685   1.850   5.782   7.070  0.6192  1.5444  0.9543
 4684TIP3   OH235686   5.661   4.672   7.346 -0.4189  0.2135 -0.6362
 4684TIP3    H135687   5.708   4.755   7.354 -0.5245  0.2088  0.1446
 4684TIP3    H235688   5.620   4.675   7.259 -0.2372  0.8786 -0.7016
 4685TIP3   OH235689   4.669   1.638   0.542  0.4594 -0.3244 -0.4962
 4685TIP3    H135690   4.686   1.649   0.448 -1.4550  3.1793 -0.5828
 4685TIP3    H235691   4.749   1.668   0.585 -0.3876  3.0844 -1.0497
 4686TIP3   OH235692   4.655   0.311   7.426  0.4788  0.3623  0.3130
 4686TIP3    H135693   4.743   0.346   7.440 -0.0430  1.0317  2.2415
 4686TIP3    H235694   4.639   0.254   7.501 -0.3574 -0.6087 -0.5578
 4687TIP3   OH235695   6.125   3.662   7.224  0.5552  0.1758 -0.4786
 4687TIP3    H135696   6.092   3.681   7.312 -1.1236 -0.8687 -0.8394
 4687TIP3    H235697   6.171   3.741   7.198 -0.5704  1.2239  0.5998
 4688TIP3   OH235698   1.688   1.436   7.691 -0.0270  0.3584 -0.2178
 4688TIP3    H135699   1.655   1.496   7.624 -3.1176 -0.2910  0.5476
 4688TIP3    H235700   1.687   1.487   7.772 -1.6805 -0.3161  0.2476
 4689TIP3   OH235701   1.549   4.852   0.213 -0.0854 -0.5765  0.1000
 4689TIP3    H135702   1.460   4.873   0.182 -0.0430 -2.3973 -1.4470
 4689TIP3    H235703   1.584   4.792   0.146  2.2804 -0.0052  0.7328
 4690TIP3   OH235704   6.750   3.490   1.737 -0.3479 -0.3062  0.3946
 4690TIP3    H135705   6.829   3.498   1.791 -0.9331 -0.1002  1.2349
 4690TIP3    H235706   6.718   3.402   1.754 -0.5234 -0.2487  0.3620
 4691TIP3   OH235707   3.864   2.393   8.321  0.3857 -0.4281  0.5483
 4691TIP3    H135708   3.839   2.410   8.412  0.7004 -1.5622  0.8587
 4691TIP3    H235709   3.947   2.440   8.310 -0.1921  0.6046  0.5105
 4692TIP3   OH235710   0.066   5.119   1.764 -0.4289  0.1438 -0.1444
 4692TIP3    H135711   0.023   5.092   1.845  0.5027  1.4636  0.8151
 4692TIP3    H235712  -0.001   5.169   1.717 -1.1509 -1.1000 -0.4826
 4693TIP3   OH235713   2.264   1.914   5.865  0.1707 -0.4113 -0.5791
 4693TIP3    H135714   2.243   1.884   5.954  0.3125 -2.4167 -1.1781
 4693TIP3    H235715   2.178   1.931   5.825  0.0987  0.2837 -0.1535
 4694TIP3   OH235716   4.874   0.435   7.512 -0.1041  0.4607  0.1021
 4694TIP3    H135717   4.862   0.529   7.525 -0.8099  0.5724 -1.1893
 4694TIP3    H235718   4.949   0.428   7.454 -0.5197  0.2700 -0.4205
 4695TIP3   OH235719   4.338   0.012   7.983  0.1268 -1.0543 -0.9448
 4695TIP3    H135720   4.261  -0.008   7.930 -0.2686  0.8298 -1.1626
 4695TIP3    H235721   4.395   0.061   7.924 -0.2615  0.9751  0.2562
 4696TIP3   OH235722   5.022   3.755   8.606  0.3433  0.8970 -0.2576
 4696TIP3    H135723   5.069   3.765   8.689 -0.0270 -1.2772  0.2697
 4696TIP3    H235724   4.947   3.813   8.615 -0.8102 -0.7512  1.8608
 4697TIP3   OH235725   6.517   2.717   6.836 -0.5161 -0.2491  0.3777
 4697TIP3    H135726   6.449   2.751   6.894 -0.8331 -1.4817  0.7502
 4697TIP3    H235727   6.474   2.647   6.786  0.7311 -1.8590  1.4427
 4698TIP3   OH235728   5.914   5.746   8.072 -0.0622 -0.9422  0.0941
 4698TIP3    H135729   5.934   5.838   8.052 -0.2612 -0.7343  0.7992
 4698TIP3    H235730   5.923   5.700   7.989 -0.5949 -0.1735 -0.3915
 4699TIP3   OH235731   0.196   6.178   0.684  0.0375  0.3346 -0.6766
 4699TIP3    H135732   0.215   6.125   0.607 -0.6716  0.8823 -1.2464
 4699TIP3    H235733   0.273   6.234   0.694  0.1240  0.2783 -1.0013
 4700TIP3   OH235734   3.515   2.265   6.039  0.0723  0.6137 -0.1511
 4700TIP3    H135735   3.533   2.231   6.126  0.6349 -0.6390 -0.7393
 4700TIP3    H235736   3.453   2.203   6.001  1.4869 -0.0959 -1.4246
 4701TIP3   OH235737   3.878   5.377   0.693  0.1435 -0.3706 -0.7349
 4701TIP3    H135738   3.881   5.393   0.787  1.2837  0.8472 -0.9399
 4701TIP3    H235739   3.785   5.385   0.670 -0.3376 -2.0302  0.4681
 4702TIP3   OH235740   3.025   0.977   1.532 -0.2304  0.0020  0.5210
 4702TIP3    H135741   2.998   1.063   1.498 -2.7379 -0.2431  1.6352
 4702TIP3    H235742   3.037   0.992   1.626  1.1846 -0.4937  0.4329
 4703TIP3   OH235743   5.233   1.439   7.917  0.2778  0.6194 -0.4646
 4703TIP3    H135744   5.187   1.513   7.956 -0.1842  1.1365 -1.9069
 4703TIP3    H235745   5.288   1.477   7.849 -0.7935 -0.4129 -1.9869
 4704TIP3   OH235746   6.880   0.757   7.532 -0.0768  0.1458  0.2632
 4704TIP3    H135747   6.811   0.794   7.586  2.4304  0.1226  3.8307
 4704TIP3    H235748   6.941   0.829   7.517  0.4400 -0.4296 -0.5101
 4705TIP3   OH235749   0.356   0.827   2.133  0.1508 -0.0327  0.2627
 4705TIP3    H135750   0.365   0.915   2.097  0.1378 -0.3191 -0.4550
 4705TIP3    H235751   0.283   0.833   2.195  0.8408  0.7124  1.0347
 4706TIP3   OH235752   3.387   3.621   6.703 -0.1573 -0.9814 -0.3819
 4706TIP3    H135753   3.437   3.542   6.681 -0.8112 -1.6298  0.3840
 4706TIP3    H235754   3.442   3.693   6.673 -0.1228 -1.7461 -2.3023
 4707TIP3   OH235755   0.065   3.801   0.632  0.0403 -0.4725 -0.3907
 4707TIP3    H135756   0.116   3.874   0.597 -1.7831  1.7762  1.2558
 4707TIP3    H235757   0.115   3.770   0.707 -0.2398  0.7105  0.3099
 4708TIP3   OH235758   5.138   5.334   6.488  0.5297  0.2684 -0.3627
 4708TIP3    H135759   5.190   5.314   6.566 -0.8789 -0.4616  0.4460
 4708TIP3    H235760   5.193   5.309   6.414  0.8670 -1.7166  0.4943
 4709TIP3   OH235761   5.317   1.643   8.393  0.0410 -0.3128 -0.5268
 4709TIP3    H135762   5.380   1.604   8.332  0.5618  1.2247 -1.0099
 4709TIP3    H235763   5.371   1.693   8.454 -0.5399 -1.1147  0.6821
 4710TIP3   OH235764   6.141   1.851   7.791  0.4007 -0.4525 -0.1078
 4710TIP3    H135765   6.126   1.943   7.770  1.8861 -0.3161 -0.6582
 4710TIP3    H235766   6.057   1.821   7.826 -0.2025  1.0183 -0.2126
 4711TIP3   OH235767   4.063   6.568   8.525 -0.1381 -0.0728  0.2372
 4711TIP3    H135768   4.069   6.591   8.433  2.0359 -1.6637 -0.0960
 4711TIP3    H235769   3.969   6.559   8.542 -0.5483 -1.0053 -2.1680
 4712TIP3   OH235770   2.444   2.253   0.972 -0.1687 -0.5869  0.1202
 4712TIP3    H135771   2.483   2.274   0.887 -0.1302  2.0812  0.7030
 4712TIP3    H235772   2.518   2.221   1.025  0.6707  1.4884  0.2874
 4713TIP3   OH235773   1.471   3.436   0.187 -0.1918  0.4120 -0.4033
 4713TIP3    H135774   1.497   3.346   0.166  1.3079  1.1117 -1.7424
 4713TIP3    H235775   1.377   3.431   0.201 -0.0416 -1.4831  0.2061
 4714TIP3   OH235776   3.797   3.434   7.567  0.1186  0.4255  0.4415
 4714TIP3    H135777   3.892   3.427   7.577  0.3020  2.2511  0.3120
 4714TIP3    H235778   3.774   3.364   7.507  1.8354  1.6834 -1.8502
 4715TIP3   OH235779   6.875   2.856   7.806  0.4228 -0.1625 -0.0525
 4715TIP3    H135780   6.814   2.928   7.825 -0.5074 -0.9572  0.0240
 4715TIP3    H235781   6.918   2.882   7.724  0.2207  0.5447  0.0523
 4716TIP3   OH235782   6.071   5.142   1.421  0.2227  0.0959 -0.1373
 4716TIP3    H135783   6.087   5.079   1.351 -1.4129  0.7737 -1.1695
 4716TIP3    H235784   6.144   5.203   1.416 -0.2253  0.5361 -1.7397
 4717TIP3   OH235785   2.073   1.287   0.920 -0.3436  0.3803 -0.3844
 4717TIP3    H135786   2.157   1.241   0.928 -0.4452  0.3816  0.9936
 4717TIP3    H235787   2.096   1.372   0.882 -0.0660 -0.4949 -2.3072
 4718TIP3   OH235788   5.090   2.982   8.208 -0.2043  0.2985  0.3737
 4718TIP3    H135789   5.157   3.024   8.155 -1.1714  1.6836  0.1921
 4718TIP3    H235790   5.050   2.917   8.150  0.4800 -0.0330  0.2612
 4719TIP3   OH235791   5.999   0.337   1.265  0.4399 -0.0918 -0.0374
 4719TIP3    H135792   5.909   0.310   1.253  0.0867  0.4411  1.2327
 4719TIP3    H235793   5.995   0.433   1.268  1.1882 -0.0142 -0.9448
 4720TIP3   OH235794   4.666   2.447   0.209 -0.2792 -1.0712  0.1506
 4720TIP3    H135795   4.635   2.527   0.253 -1.7691 -1.9598  0.8005
 4720TIP3    H235796   4.619   2.376   0.253  2.0888 -2.4719  0.5682
 4721TIP3   OH235797   2.437   2.915   1.585  0.2052  0.1957  0.4418
 4721TIP3    H135798   2.389   2.906   1.503  1.3872  0.5947 -0.3235
 4721TIP3    H235799   2.515   2.860   1.574  0.9076  1.0694  0.8676
 4722TIP3   OH235800   2.097   0.748   2.299  0.5327  0.3465  0.0672
 4722TIP3    H135801   2.039   0.824   2.306  1.7872  1.3545 -0.1453
 4722TIP3    H235802   2.148   0.750   2.380  0.0750 -0.7110  0.3952
 4723TIP3   OH235803   5.116   4.013   0.139  0.0573 -0.3214 -0.5313
 4723TIP3    H135804   5.202   4.054   0.131  0.8469 -2.0427 -1.4079
 4723TIP3    H235805   5.074   4.030   0.055 -0.6035  0.7463 -0.0090
 4724TIP3   OH235806   3.761   3.441   1.281 -0.3891  0.0429 -0.3165
 4724TIP3    H135807   3.771   3.518   1.225 -3.9288 -1.1446 -3.0049
 4724TIP3    H235808   3.746   3.477   1.369 -0.0129  2.2977 -1.1119
 4725TIP3   OH235809   3.281   4.184   7.487  0.1883 -0.2373  0.0987
 4725TIP3    H135810   3.191   4.204   7.461 -0.1663 -1.5097  0.2889
 4725TIP3    H235811   3.307   4.112   7.430  0.0592 -1.8159  1.9562
 4726TIP3   OH235812   5.596   1.205   8.365 -0.8086  0.5903  0.8473
 4726TIP3    H135813   5.681   1.233   8.330 -0.4244  0.1047  1.3750
 4726TIP3    H235814   5.558   1.152   8.295  0.0296 -0.5155  1.1953
 4727TIP3   OH235815   3.764   2.943   7.398 -0.0085  0.2488  0.5554
 4727TIP3    H135816   3.679   2.962   7.439 -0.5503 -0.7043 -0.0767
 4727TIP3    H235817   3.828   2.975   7.461 -0.8339 -0.3448  1.7564
 4728TIP3   OH235818   5.103   6.138   1.373  0.2821 -0.7637 -0.0999
 4728TIP3    H135819   5.061   6.215   1.334  2.7483  2.0632  2.3942
 4728TIP3    H235820   5.145   6.094   1.299  2.2935  2.6794 -1.2092
 4729TIP3   OH235821   1.336   6.271   1.819  0.0276 -0.1771  0.0209
 4729TIP3    H135822   1.245   6.253   1.840  0.2176 -1.1065  0.0859
 4729TIP3    H235823   1.386   6.207   1.869  0.6523 -0.4103 -0.8623
 4730TIP3   OH235824   2.445   4.963   8.026 -0.0066  0.4336  0.0323
 4730TIP3    H135825   2.502   5.040   8.020 -0.0993  0.4594 -0.5672
 4730TIP3    H235826   2.490   4.904   8.086  0.3035  0.7527  0.1136
 4731TIP3   OH235827   0.438   2.628   8.630  0.0097  0.1499 -0.4372
 4731TIP3    H135828   0.393   2.544   8.618 -1.3371  0.6752  0.6925
 4731TIP3    H235829   0.419   2.677   8.550  1.2792 -0.7912 -1.3649
 4732TIP3   OH235830   6.677   1.490   6.988  0.3167 -0.1876 -0.0931
 4732TIP3    H135831   6.646   1.419   7.044  0.1706  1.5430  2.1364
 4732TIP3    H235832   6.770   1.498   7.008  0.4189 -0.0017 -0.6304
 4733TIP3   OH235833   0.812   1.383   6.932  0.2252  0.1978 -0.3734
 4733TIP3    H135834   0.760   1.419   7.004  2.2747  0.7381  0.9391
 4733TIP3    H235835   0.748   1.350   6.870 -1.6529  0.7370  1.1792
 4734TIP3   OH235836   4.511   2.252   0.390  0.0716 -0.5708  0.1325
 4734TIP3    H135837   4.441   2.224   0.448 -1.4660 -1.5915 -2.0753
 4734TIP3    H235838   4.591   2.246   0.444 -1.4043  0.0070  2.5244
 4735TIP3   OH235839   3.527   6.871   8.326 -0.7511 -0.2977  0.0202
 4735TIP3    H135840   3.557   6.890   8.415 -1.0833 -0.0307  0.0791
 4735TIP3    H235841   3.452   6.929   8.314 -0.1909  0.2728 -0.7450
 4736TIP3   OH235842   1.189   1.341   8.426  0.8691 -0.5831 -0.8482
 4736TIP3    H135843   1.219   1.260   8.467 -0.8514 -0.1645  1.4120
 4736TIP3    H235844   1.248   1.409   8.460 -0.7253 -0.1923  1.3343
 4737TIP3   OH235845   6.769   3.192   7.548 -0.2481  0.1658 -0.3030
 4737TIP3    H135846   6.801   3.236   7.626 -0.6686 -3.0365  1.8728
 4737TIP3    H235847   6.698   3.248   7.516 -1.0473  0.9227  2.5129
 4738TIP3   OH235848   5.515   2.722   8.601 -0.0872 -0.0091  0.8608
 4738TIP3    H135849   5.564   2.676   8.533  2.8498  0.3740  2.5385
 4738TIP3    H235850   5.443   2.765   8.554  1.4108 -0.2636 -1.8758
 4739TIP3   OH235851   0.819   0.340   1.005  0.5999 -0.6609  0.7541
 4739TIP3    H135852   0.731   0.312   1.031  0.6047 -1.3454  0.0696
 4739TIP3    H235853   0.858   0.262   0.966  1.5870 -0.4129  1.2150
 4740TIP3   OH235854   5.312   0.167   7.270 -0.5655  0.2217  0.5709
 4740TIP3    H135855   5.386   0.195   7.324 -0.1762  0.8708 -0.2895
 4740TIP3    H235856   5.277   0.090   7.316  0.4263  0.1112  1.1706
 4741TIP3   OH235857   1.803   5.006   8.022  0.2714  0.9178 -0.3036
 4741TIP3    H135858   1.780   4.946   7.951  1.7651 -0.5344  0.3683
 4741TIP3    H235859   1.729   5.003   8.081  0.3106 -0.2965 -0.2924
 4742TIP3   OH235860   5.004   2.179   2.116  0.1238  0.1690 -0.4020
 4742TIP3    H135861   5.036   2.257   2.160 -1.1110 -0.5030  1.8118
 4742TIP3    H235862   4.909   2.187   2.119 -0.0073 -0.6551 -1.6228
 4743TIP3   OH235863   2.578   3.276   6.395  0.0723  0.7545 -0.8260
 4743TIP3    H135864   2.644   3.225   6.348 -0.4646  1.7743 -2.8089
 4743TIP3    H235865   2.506   3.214   6.409  0.4989  0.2606 -0.7684
 4744TIP3   OH235866   3.932   2.125   6.466 -0.3718 -0.2145  0.3351
 4744TIP3    H135867   4.000   2.070   6.426 -0.8348 -0.6703  0.1660
 4744TIP3    H235868   3.981   2.198   6.504  0.2374 -0.6348  0.3920
 4745TIP3   OH235869   1.832   2.352   0.039 -0.3931 -0.2209 -0.0671
 4745TIP3    H135870   1.863   2.316   0.122 -1.2021  0.0231  0.3480
 4745TIP3    H235871   1.815   2.444   0.058 -0.1399 -0.0544 -0.6335
 4746TIP3   OH235872   0.178   2.756   1.999  0.0309  0.2897 -0.0106
 4746TIP3    H135873   0.247   2.820   2.019  0.8588 -0.0807 -1.5037
 4746TIP3    H235874   0.146   2.781   1.913  0.0477 -1.0205 -0.4217
 4747TIP3   OH235875   1.775   1.059   1.584 -0.0261 -0.1256 -0.5288
 4747TIP3    H135876   1.757   1.029   1.495 -0.8947 -2.2112  0.2777
 4747TIP3    H235877   1.759   0.981   1.638 -1.3066  1.5314  1.6192
 4748TIP3   OH235878   2.457   1.587   0.486  0.0759  0.0721  0.0684
 4748TIP3    H135879   2.548   1.590   0.516 -0.3521  0.9663  1.3606
 4748TIP3    H235880   2.456   1.517   0.421  2.1483  1.4331 -1.6092
 4749TIP3   OH235881   0.021   0.377   6.400 -0.4305  0.0273 -0.3426
 4749TIP3    H135882   0.096   0.406   6.348  0.4192  0.0169  0.8243
 4749TIP3    H235883  -0.045   0.445   6.387  0.5472  1.1231  0.2111
 4750TIP3   OH235884   5.567   0.944   1.001  0.5536 -0.1323  0.0381
 4750TIP3    H135885   5.578   0.917   1.092 -0.2865 -0.5109  0.0333
 4750TIP3    H235886   5.598   0.869   0.949  0.6295 -0.0820  0.0099
 4751TIP3   OH235887   2.014   3.047   8.050 -0.2964  0.1842  0.9600
 4751TIP3    H135888   2.059   3.006   7.976 -0.1910 -1.3767  1.8579
 4751TIP3    H235889   2.085   3.080   8.105 -0.3632  0.9333  0.6063
 4752TIP3   OH235890   2.693   2.892   6.468 -0.1136 -0.3605  0.3519
 4752TIP3    H135891   2.610   2.876   6.513 -0.2442 -1.3010 -0.1998
 4752TIP3    H235892   2.689   2.837   6.390  0.2399  1.0236 -0.6762
 4753TIP3   OH235893   3.896   4.951   8.511 -0.2388 -0.2435 -0.0679
 4753TIP3    H135894   3.983   4.945   8.551  0.1862 -0.4457 -0.9848
 4753TIP3    H235895   3.895   5.037   8.468 -0.5196 -0.2126 -0.0020
 4754TIP3   OH235896   6.397   6.809   6.386  0.6610 -0.2194  0.2738
 4754TIP3    H135897   6.485   6.771   6.383  1.3966  1.4375 -0.9995
 4754TIP3    H235898   6.352   6.772   6.310 -1.0537 -3.7209  2.6927
 4755TIP3   OH235899   1.834   5.112   7.669  0.1533  0.0611 -0.0736
 4755TIP3    H135900   1.751   5.096   7.714  0.0451  0.1026 -0.2573
 4755TIP3    H235901   1.867   5.025   7.648  0.7718 -0.0164  1.0963
 4756TIP3   OH235902   0.496   4.193   1.822  0.4823 -0.4198 -0.4730
 4756TIP3    H135903   0.586   4.213   1.796  0.0240  0.9730 -1.0906
 4756TIP3    H235904   0.466   4.128   1.759  0.7499 -0.1874 -0.8388
 4757TIP3   OH235905   5.213   4.004   8.390 -0.5720 -0.3376 -0.1665
 4757TIP3    H135906   5.277   4.075   8.393 -1.6336  0.7178 -1.2599
 4757TIP3    H235907   5.147   4.029   8.454 -0.3645 -0.9463  0.2874
 4758TIP3   OH235908   3.152   1.971   0.728 -0.6744 -0.6097 -0.8391
 4758TIP3    H135909   3.238   1.948   0.764 -1.2722 -0.6021  0.6252
 4758TIP3    H235910   3.164   1.964   0.633  1.2469  0.4281 -0.7186
 4759TIP3   OH235911   0.352   5.042   0.308 -0.1793 -0.9906 -0.1980
 4759TIP3    H135912   0.422   5.051   0.243 -1.3814  0.3565 -1.3496
 4759TIP3    H235913   0.356   4.949   0.333  1.8154 -1.0206 -0.4294
 4760TIP3   OH235914   2.904   6.891   1.856  0.3756  0.4166  0.0291
 4760TIP3    H135915   2.920   6.862   1.766 -1.5207  3.9603 -1.6418
 4760TIP3    H235916   2.862   6.816   1.898  1.0441 -1.2439 -2.0846
 4761TIP3   OH235917   6.171   6.595   6.437 -0.4563  0.0036  0.1583
 4761TIP3    H135918   6.259   6.607   6.472 -0.6480  1.2870  0.2504
 4761TIP3    H235919   6.114   6.637   6.502 -0.8663  2.0471 -1.4222
 4762TIP3   OH235920   5.060   3.945   2.578 -0.1034 -0.3734 -0.0310
 4762TIP3    H135921   5.022   4.033   2.583  1.9059  0.6222 -0.7736
 4762TIP3    H235922   5.147   3.955   2.618  0.1770 -2.0208 -0.1724
 4763TIP3   OH235923   6.807   2.242   7.032  0.0115  0.1701 -0.3686
 4763TIP3    H135924   6.722   2.284   7.042  0.6349  1.1345  1.2765
 4763TIP3    H235925   6.867   2.313   7.013  0.3228 -0.6330 -2.6395
 4764TIP3   OH235926   1.044   1.763   6.763  0.7318  0.0970 -0.2157
 4764TIP3    H135927   0.966   1.804   6.726 -0.9109 -2.0933  0.5966
 4764TIP3    H235928   1.037   1.780   6.857  1.5364  0.3188 -0.1903
 4765TIP3   OH235929   4.872   2.310   2.319  0.1241  0.1403  0.4300
 4765TIP3    H135930   4.831   2.239   2.368  0.4743 -0.6864 -0.4471
 4765TIP3    H235931   4.961   2.316   2.356  0.4641 -0.6334 -0.2268
 4766TIP3   OH235932   3.561   6.294   0.553  0.4313 -0.1085 -0.4907
 4766TIP3    H135933   3.570   6.316   0.461  1.0973  0.3443 -0.3297
 4766TIP3    H235934   3.505   6.363   0.589  0.0117 -0.3942 -0.5921
 4767TIP3   OH235935   6.289   0.509   8.505  0.0416 -0.2699  0.2244
 4767TIP3    H135936   6.270   0.474   8.592 -0.3064 -1.5903 -0.3511
 4767TIP3    H235937   6.328   0.435   8.458  1.6090  0.8343 -0.3044
 4768TIP3   OH235938   5.757   2.523   1.414 -0.3252 -0.5049 -0.4611
 4768TIP3    H135939   5.851   2.532   1.398 -0.3667  0.6965 -0.1353
 4768TIP3    H235940   5.749   2.521   1.509 -0.7313  1.1244 -0.4236
 4769TIP3   OH235941   2.530   0.898   6.891 -0.0986  0.3962  0.2426
 4769TIP3    H135942   2.603   0.860   6.843  0.4515  0.1265  1.2643
 4769TIP3    H235943   2.452   0.866   6.846  0.4051  0.4086 -0.6498
 4770TIP3   OH235944   2.795   6.542   1.709 -0.3221 -0.5682  0.4990
 4770TIP3    H135945   2.856   6.469   1.723  0.1043 -0.2943  0.0906
 4770TIP3    H235946   2.815   6.603   1.780 -0.4706 -0.7057  0.6613
 4771TIP3   OH235947   5.216   4.072   0.431  0.4921 -0.2846  0.1953
 4771TIP3    H135948   5.311   4.071   0.444  0.4541 -1.9335  0.5473
 4771TIP3    H235949   5.188   3.983   0.454 -0.8994 -0.3922 -1.7078
 4772TIP3   OH235950   5.426   5.490   0.477  0.3257 -0.6911  0.3943
 4772TIP3    H135951   5.453   5.533   0.559  1.4070  1.4437 -0.9727
 4772TIP3    H235952   5.332   5.476   0.488  0.3455  0.0085  1.8152
 4773TIP3   OH235953   2.635   3.000   8.053 -0.3697 -0.4556 -0.0829
 4773TIP3    H135954   2.614   2.940   7.982 -0.5419  0.3971 -0.7729
 4773TIP3    H235955   2.731   3.007   8.052 -0.4387  1.6535 -2.0892
 4774TIP3   OH235956   3.735   3.205   1.146  0.8769  0.4677 -0.5652
 4774TIP3    H135957   3.772   3.149   1.215  0.3538  1.0249  0.1910
 4774TIP3    H235958   3.748   3.294   1.180 -1.3652  0.6852 -0.1381
 4775TIP3   OH235959   6.725   3.314   1.985 -0.0985 -0.3257 -0.3213
 4775TIP3    H135960   6.658   3.278   1.927 -0.4753 -0.5206  0.2218
 4775TIP3    H235961   6.676   3.349   2.059  0.2771  1.0463 -0.6824
 4776TIP3   OH235962   5.549   4.113   1.919  0.2685 -0.5652 -0.1350
 4776TIP3    H135963   5.585   4.201   1.931 -1.1766  0.3924 -2.2629
 4776TIP3    H235964   5.625   4.056   1.912  1.2632  0.7075 -0.0445
 4777TIP3   OH235965   4.473   1.146   0.026  0.0109  0.2075  0.0593
 4777TIP3    H135966   4.401   1.113   0.080  0.6152 -0.3884  0.5144
 4777TIP3    H235967   4.474   1.240   0.041 -1.9980  0.5600 -1.5466
 4778TIP3   OH235968   0.096   4.566   8.136  0.6228 -0.0851  0.6697
 4778TIP3    H135969   0.059   4.540   8.220  0.1940 -0.9740  0.2189
 4778TIP3    H235970   0.028   4.621   8.096  0.3131 -0.6688  0.3865
 4779TIP3   OH235971   1.097   3.075   0.185 -0.2774 -0.8362  0.0015
 4779TIP3    H135972   1.039   3.077   0.109 -2.1246  1.7077  1.3524
 4779TIP3    H235973   1.047   3.030   0.253 -0.9263  1.5848  1.2502
 4780TIP3   OH235974   0.894   1.490   7.386 -0.3928  0.1053 -0.1563
 4780TIP3    H135975   0.957   1.496   7.458 -1.0210  0.5527  0.3726
 4780TIP3    H235976   0.897   1.576   7.344 -0.7990  0.2017  0.0061
 4781TIP3   OH235977   6.327   2.313   0.640  0.1513 -0.1565 -0.4817
 4781TIP3    H135978   6.418   2.344   0.650 -0.6051  1.7949  1.1466
 4781TIP3    H235979   6.296   2.300   0.730 -1.5223  0.3286 -0.9527
 4782TIP3   OH235980   5.332   2.803   0.994 -0.5577 -0.2439  0.2255
 4782TIP3    H135981   5.299   2.874   1.048  2.5846  2.3765 -0.9413
 4782TIP3    H235982   5.269   2.796   0.922 -0.2049  2.6185 -0.4864
 4783TIP3   OH235983   2.836   4.981   6.619 -0.1809 -0.2617 -0.2237
 4783TIP3    H135984   2.837   4.934   6.535 -0.4540  0.1124 -0.4386
 4783TIP3    H235985   2.845   4.912   6.685  0.2258 -0.5400 -0.5675
 4784TIP3   OH235986   3.275   1.090   6.802  0.2012 -0.0826  0.4391
 4784TIP3    H135987   3.183   1.116   6.795  0.2359  0.0620  0.5322
 4784TIP3    H235988   3.318   1.133   6.729 -0.0331 -1.1450 -0.3558
 4785TIP3   OH235989   3.403   3.399   7.184 -0.1818  0.4105  0.4667
 4785TIP3    H135990   3.371   3.460   7.118 -0.5408  0.3239  0.5581
 4785TIP3    H235991   3.339   3.328   7.185  0.8862 -0.6043 -0.5142
 4786TIP3   OH235992   4.439   1.399   8.277 -0.1752  0.7747  0.3398
 4786TIP3    H135993   4.496   1.437   8.344 -0.5245 -0.7023  1.5433
 4786TIP3    H235994   4.399   1.474   8.233  2.1222  1.8381 -0.0686
 4787TIP3   OH235995   3.519   6.785   7.153 -0.4642 -0.4993  0.5151
 4787TIP3    H135996   3.592   6.784   7.214 -0.6686  1.7170  0.8887
 4787TIP3    H235997   3.551   6.738   7.076  0.9264 -0.5997  1.1316
 4788TIP3   OH235998   5.991   4.928   7.029 -0.4091 -0.4401 -0.1382
 4788TIP3    H135999   6.065   4.975   6.992  0.5374  0.1981  2.3338
 4788TIP3    H236000   5.914   4.974   6.996  0.4624  2.4809  1.5205
 4789TIP3   OH236001   1.452   0.468   0.944 -0.0309  0.1617  0.0473
 4789TIP3    H136002   1.479   0.466   0.852 -0.0232  2.7912 -0.0756
 4789TIP3    H236003   1.533   0.487   0.992 -0.6294  2.9220  0.1409
 4790TIP3   OH236004   2.864   4.766   6.786  0.3765 -0.2411 -0.3704
 4790TIP3    H136005   2.814   4.732   6.860  0.5010  0.1642 -0.0937
 4790TIP3    H236006   2.918   4.692   6.757 -0.4970 -0.7246 -0.7785
 4791TIP3   OH236007   6.638   0.775   0.094 -0.9177 -0.4345  0.5116
 4791TIP3    H136008   6.699   0.702   0.084 -0.8050 -0.3311  0.4416
 4791TIP3    H236009   6.553   0.734   0.111 -0.7507 -0.5711  1.0225
 4792TIP3   OH236010   2.249   1.202   7.746  0.1626  0.2757  0.7650
 4792TIP3    H136011   2.297   1.179   7.667 -0.3610  0.9458  0.2330
 4792TIP3    H236012   2.201   1.122   7.769  0.9934 -0.1893  0.9199
 4793TIP3   OH236013   3.109   5.272   6.560 -0.5581  0.2898 -0.5038
 4793TIP3    H136014   3.174   5.341   6.564  0.1587 -0.4224  1.2639
 4793TIP3    H236015   3.038   5.308   6.507  0.2224  1.9887 -0.4415
 4794TIP3   OH236016   1.802   1.155   8.568  1.0397  0.6372 -0.0562
 4794TIP3    H136017   1.809   1.064   8.598  0.1326  0.4699 -0.3102
 4794TIP3    H236018   1.711   1.179   8.588 -0.0146  0.1752 -3.4979
 4795TIP3   OH236019   5.614   1.598   1.096  0.6345  0.0147  0.1265
 4795TIP3    H136020   5.641   1.688   1.116  1.5358 -0.3749  0.7656
 4795TIP3    H236021   5.652   1.546   1.167  0.3946 -0.9118 -0.4112
 4796TIP3   OH236022   3.906   5.299   6.856 -0.2735 -0.4839  0.8243
 4796TIP3    H136023   4.001   5.284   6.863 -0.0700  0.6986  0.7418
 4796TIP3    H236024   3.898   5.381   6.808 -1.3372 -0.2936  1.3066
 4797TIP3   OH236025   1.242   5.582   8.467  0.4145  0.1671 -0.3591
 4797TIP3    H136026   1.307   5.533   8.416 -1.1778 -1.7143 -0.6759
 4797TIP3    H236027   1.160   5.570   8.420 -0.3291  1.9286  0.4026
 4798TIP3   OH236028   6.719   6.153   6.869  0.2631 -0.0941 -0.4122
 4798TIP3    H136029   6.627   6.130   6.856 -0.0632  0.8503  0.1435
 4798TIP3    H236030   6.767   6.073   6.846 -0.7712 -1.0226  0.5647
 4799TIP3   OH236031   5.909   5.859   0.468 -0.0573  0.1169  0.5183
 4799TIP3    H136032   5.823   5.896   0.449 -0.2514 -0.5756  0.0303
 4799TIP3    H236033   5.893   5.792   0.534  0.0894 -0.0990  0.3366
 4800TIP3   OH236034   0.048   1.870   2.287 -0.1404 -0.2224 -0.3575
 4800TIP3    H136035   0.125   1.815   2.276  0.0463  0.1372 -0.9139
 4800TIP3    H236036   0.042   1.885   2.382 -0.0467 -0.9759 -0.2272
 4801TIP3   OH236037   0.134   0.684   1.484  0.5939 -0.2072 -0.1894
 4801TIP3    H136038   0.166   0.717   1.568 -1.5472  2.1696 -0.1739
 4801TIP3    H236039   0.160   0.750   1.420  1.8670 -1.8042 -1.4238
 4802TIP3   OH236040   3.781   5.516   8.471  0.3041 -0.0453  0.6540
 4802TIP3    H136041   3.687   5.500   8.460 -0.0575  1.8328  0.6804
 4802TIP3    H236042   3.787   5.608   8.495  1.9394 -0.7997  3.7213
 4803TIP3   OH236043   0.348   2.922   7.367 -0.2075 -0.4569 -0.0763
 4803TIP3    H136044   0.370   2.881   7.451  1.4208  0.1596 -0.1575
 4803TIP3    H236045   0.433   2.938   7.325 -0.9659 -0.4275 -1.6981
 4804TIP3   OH236046   6.121   0.836   7.271 -0.1661 -0.3842 -0.6007
 4804TIP3    H136047   6.110   0.746   7.301 -1.6494  0.1660  0.6721
 4804TIP3    H236048   6.157   0.828   7.183  1.2561 -2.1662  0.0834
 4805TIP3   OH236049   0.588   3.141   1.320 -1.0558  0.1312  0.5189
 4805TIP3    H136050   0.581   3.151   1.415 -0.4229 -0.6281  0.6503
 4805TIP3    H236051   0.498   3.133   1.290 -1.2071 -0.6993  1.1812
 4806TIP3   OH236052   6.839   2.773   0.518 -0.2269  0.3319 -0.0124
 4806TIP3    H136053   6.801   2.786   0.431  1.1527  1.0395 -0.5417
 4806TIP3    H236054   6.933   2.765   0.502 -0.0339 -0.3676  1.3458
 4807TIP3   OH236055   0.797   5.412   2.674 -0.2981 -0.3634  0.4709
 4807TIP3    H136056   0.889   5.425   2.650 -0.0538 -1.2527  0.8672
 4807TIP3    H236057   0.800   5.343   2.741 -1.3333 -1.0913 -0.2081
 4808TIP3   OH236058   4.230   1.605   7.404  0.2704  0.4860 -0.5986
 4808TIP3    H136059   4.234   1.605   7.308  2.0279 -0.7888 -0.5758
 4808TIP3    H236060   4.214   1.696   7.427 -0.8567  0.7101 -2.1039
 4809TIP3   OH236061   4.123   6.122   0.899 -0.2979  0.3481  0.0194
 4809TIP3    H136062   4.056   6.097   0.962  1.2346  0.0328  1.6105
 4809TIP3    H236063   4.134   6.046   0.843 -0.7707  0.1410  0.2064
 4810TIP3   OH236064   2.732   2.573   7.404  0.4244 -0.3212  0.2589
 4810TIP3    H136065   2.781   2.600   7.482 -0.9699 -1.9064  1.7937
 4810TIP3    H236066   2.783   2.500   7.368  2.2016  1.7335 -1.6770
 4811TIP3   OH236067   4.468   4.831   1.619  0.1914 -0.5658  0.4262
 4811TIP3    H136068   4.492   4.746   1.581 -1.0668 -1.1684  0.9466
 4811TIP3    H236069   4.516   4.834   1.702 -1.0923 -1.5688  1.2491
 4812TIP3   OH236070   2.940   3.975   1.876 -0.0585 -0.3937 -0.2085
 4812TIP3    H136071   2.886   4.053   1.887 -2.2434 -1.6451 -1.3257
 4812TIP3    H236072   2.999   3.976   1.951 -0.9059  1.6150  0.5095
 4813TIP3   OH236073   5.484   0.523   1.206  0.0412  0.4805  0.0843
 4813TIP3    H136074   5.414   0.578   1.170 -0.0650  0.4276  0.2075
 4813TIP3    H236075   5.503   0.561   1.292  0.7714  1.0219 -0.3044
 4814TIP3   OH236076   4.470   3.376   7.890  0.5155 -0.4907  0.1253
 4814TIP3    H136077   4.467   3.280   7.884 -0.5285 -0.4761  0.3004
 4814TIP3    H236078   4.378   3.403   7.885  0.8920  0.6525 -2.3534
 4815TIP3   OH236079   1.369   1.290   6.831  0.0064  0.4979 -0.0994
 4815TIP3    H136080   1.292   1.319   6.880 -0.2148 -0.7751  0.3608
 4815TIP3    H236081   1.435   1.358   6.847 -0.0273  0.0881  2.0968
 4816TIP3   OH236082   0.058   3.439   2.204 -0.5841  0.7875 -0.6395
 4816TIP3    H136083   0.047   3.527   2.171 -1.1638  1.9368  2.2780
 4816TIP3    H236084   0.139   3.442   2.255 -1.8262  0.4078  1.5044
 4817TIP3   OH236085   1.694   5.830   6.966 -0.1545  0.1099  0.3946
 4817TIP3    H136086   1.714   5.803   6.876  0.1583  1.4611  0.0440
 4817TIP3    H236087   1.602   5.857   6.963 -0.2830 -0.3018  0.5964
 4818TIP3   OH236088   5.405   4.534   1.471 -0.1778 -0.3966  0.4372
 4818TIP3    H136089   5.486   4.560   1.427 -0.4647 -0.8317 -0.3679
 4818TIP3    H236090   5.346   4.510   1.400 -0.8324 -0.6083  1.0430
 4819TIP3   OH236091   4.204   1.405   6.617 -0.0276 -0.3840 -0.4711
 4819TIP3    H136092   4.283   1.423   6.668 -0.8008  1.3946  0.1824
 4819TIP3    H236093   4.188   1.485   6.568 -2.0188 -0.2665  0.2637
 4820TIP3   OH236094   2.957   2.619   7.111  0.2502  0.1148  0.2359
 4820TIP3    H136095   2.959   2.593   7.019 -3.1760 -1.9145  0.5670
 4820TIP3    H236096   2.921   2.708   7.110 -1.9168 -0.7281 -0.3523
 4821TIP3   OH236097   4.071   0.364   0.801  0.4040  0.0696 -0.2726
 4821TIP3    H136098   4.045   0.454   0.783  2.8890  0.8994 -0.0133
 4821TIP3    H236099   4.167   0.366   0.802  0.5215 -2.1419  1.9118
 4822TIP3   OH236100   3.822   3.975   0.382  0.0025  0.1228  0.1459
 4822TIP3    H136101   3.859   4.053   0.341  0.3200  0.2336  0.6270
 4822TIP3    H236102   3.822   3.909   0.313 -1.2794  0.8535 -0.5770
 4823TIP3   OH236103   5.683   1.308   0.419  0.2691 -0.6190 -0.1468
 4823TIP3    H136104   5.680   1.221   0.460 -1.4800 -1.4920 -1.9660
 4823TIP3    H236105   5.713   1.366   0.489 -0.8795 -2.2835  1.8555
 4824TIP3   OH236106   6.806   6.255   0.351 -0.1289 -0.0863 -0.0418
 4824TIP3    H136107   6.723   6.299   0.335 -0.0242 -0.0952 -0.6038
 4824TIP3    H236108   6.801   6.228   0.443 -0.9834 -0.5890 -0.2216
 4825TIP3   OH236109   4.413   0.022   7.371  0.6264 -0.8125  0.2369
 4825TIP3    H136110   4.368   0.059   7.447  2.2928 -0.2329  0.9891
 4825TIP3    H236111   4.351   0.032   7.299  0.1851  1.4682  0.8711
 4826TIP3   OH236112   3.245   0.327   0.308 -0.5362  0.2028  0.7466
 4826TIP3    H136113   3.233   0.395   0.374 -0.8070  0.7703  0.1241
 4826TIP3    H236114   3.166   0.273   0.315 -1.1435  0.9797  0.0689
 4827TIP3   OH236115   3.968   2.893   1.809 -0.6441 -0.6101 -0.6132
 4827TIP3    H136116   3.925   2.886   1.894  2.5154  0.3590  1.2532
 4827TIP3    H236117   3.925   2.966   1.765  0.0627  1.4044  1.8429
 4828TIP3   OH236118   4.285   1.218   0.399  0.2088 -0.3893 -0.3709
 4828TIP3    H136119   4.377   1.229   0.379 -0.3641 -0.6981 -3.7632
 4828TIP3    H236120   4.262   1.295   0.450  2.1541  0.0551 -0.0920
 4829TIP3   OH236121   0.681   0.553   8.559 -0.0261 -0.3306  0.1357
 4829TIP3    H136122   0.756   0.506   8.596 -2.5720 -2.0362  3.7628
 4829TIP3    H236123   0.633   0.488   8.509 -0.2660  0.1514 -0.2732
 4830TIP3   OH236124   1.430   1.813   2.075  0.0955 -0.2081 -0.1039
 4830TIP3    H136125   1.407   1.790   1.985  0.9296 -1.0599 -0.1197
 4830TIP3    H236126   1.346   1.814   2.121 -0.2734 -0.4390 -0.7520
 4831TIP3   OH236127   4.048   0.630   1.429  0.2837  0.3384 -0.5748
 4831TIP3    H136128   3.956   0.643   1.405 -0.3119  1.9004  2.1254
 4831TIP3    H236129   4.081   0.718   1.447  2.3525 -0.1954 -1.4911
 4832TIP3   OH236130   1.357   5.401   6.893  0.6578 -0.4628 -0.1354
 4832TIP3    H136131   1.273   5.417   6.850  0.9729  1.1184 -0.2163
 4832TIP3    H236132   1.422   5.432   6.830  1.4288 -2.9398 -0.6682
 4833TIP3   OH236133   2.440   4.227   0.013  0.2019  0.1989 -0.5307
 4833TIP3    H136134   2.375   4.156   0.007 -0.9703  1.2952 -1.2148
 4833TIP3    H236135   2.401   4.300  -0.035  1.7384  1.0691 -0.5284
 4834TIP3   OH236136   5.015   6.858   8.185  0.0416 -0.0288  0.5147
 4834TIP3    H136137   4.973   6.913   8.119 -0.4105  0.0720  0.8787
 4834TIP3    H236138   4.970   6.879   8.266 -0.7437 -1.5647  0.5217
 4835TIP3   OH236139   2.828   1.784   0.341 -0.6379 -0.4376 -0.2320
 4835TIP3    H136140   2.882   1.717   0.382  0.8385  1.2810  0.7549
 4835TIP3    H236141   2.810   1.750   0.253 -0.2936 -2.2857  0.3745
 4836TIP3   OH236142   6.416   3.185   7.917 -0.3439  0.7090 -0.5068
 4836TIP3    H136143   6.459   3.138   7.988  1.9522  0.4942 -1.9353
 4836TIP3    H236144   6.429   3.277   7.938 -1.4941  0.6933  0.3602
 4837TIP3   OH236145   1.016   5.764   8.053 -0.2074 -0.1560  0.1407
 4837TIP3    H136146   0.936   5.794   8.096  1.0552  0.9397  1.8783
 4837TIP3    H236147   1.044   5.840   8.001  0.3984 -0.0396  0.6271
 4838TIP3   OH236148   5.908   1.435   8.519 -0.6816 -0.7425  0.1751
 4838TIP3    H136149   5.875   1.366   8.462  0.4846 -1.2161  0.0398
 4838TIP3    H236150   6.001   1.415   8.529 -0.3155  0.8222  0.1217
 4839TIP3   OH236151   2.688   3.003   8.487 -0.1040 -0.4524 -0.4199
 4839TIP3    H136152   2.749   2.934   8.511  1.6075  1.4285  0.9713
 4839TIP3    H236153   2.735   3.055   8.421  0.9376  2.3777  2.3276
 4840TIP3   OH236154   0.704   0.498   7.706 -0.1736 -0.1681  0.3509
 4840TIP3    H136155   0.628   0.539   7.747 -1.8753 -3.3556  0.7335
 4840TIP3    H236156   0.761   0.476   7.780 -0.3948 -0.5874  0.3988
 4841TIP3   OH236157   1.888   0.615   0.097  0.3562 -0.0642 -0.0472
 4841TIP3    H136158   1.806   0.660   0.077  1.3600  1.8561  0.0255
 4841TIP3    H236159   1.945   0.682   0.133  1.8189 -1.4684  0.3830
 4842TIP3   OH236160   5.241   3.237   2.007  0.1375  0.1378  0.6893
 4842TIP3    H136161   5.208   3.312   2.055 -0.1695 -0.4165  1.3530
 4842TIP3    H236162   5.331   3.227   2.037  0.0753  0.0436  0.8456
 4843TIP3   OH236163   4.423   6.427   8.507 -0.2903 -0.4028  0.2307
 4843TIP3    H136164   4.497   6.380   8.544  0.6478  0.2426 -0.7736
 4843TIP3    H236165   4.460   6.479   8.436 -1.6770  0.0746 -0.1827
 4844TIP3   OH236166   0.979   6.430   0.714  0.3805 -0.5612 -0.4311
 4844TIP3    H136167   1.049   6.388   0.664  0.0279 -2.6607  0.7223
 4844TIP3    H236168   1.022   6.461   0.794  0.2667 -0.5998 -0.3539
 4845TIP3   OH236169   4.909   4.617   7.597  0.1160  0.5936 -0.1293
 4845TIP3    H136170   4.978   4.641   7.536 -0.7055  0.6942 -1.0439
 4845TIP3    H236171   4.955   4.591   7.677  1.1748  1.4837 -0.4239
 4846TIP3   OH236172   0.191   3.427   7.759  0.2409 -0.4709 -0.2257
 4846TIP3    H136173   0.095   3.424   7.765  0.1032  1.3388 -1.0448
 4846TIP3    H236174   0.215   3.508   7.802  1.6674 -2.0408  2.1423
 4847TIP3   OH236175   4.125   3.251   8.447 -0.2854 -0.3366 -0.6016
 4847TIP3    H136176   4.187   3.229   8.516  0.2167  0.9879 -0.5909
 4847TIP3    H236177   4.164   3.216   8.367 -0.2263 -0.7412 -0.3961
 4848TIP3   OH236178   1.306   3.446   1.092  0.3847 -0.1871  0.4938
 4848TIP3    H136179   1.220   3.488   1.098 -0.5555 -1.9061 -0.2983
 4848TIP3    H236180   1.354   3.499   1.030  0.0278  0.9828  1.1766
 4849TIP3   OH236181   3.895   4.653   7.222  0.1146 -0.4879 -0.6852
 4849TIP3    H136182   3.893   4.733   7.169  1.7329  0.2083  0.2423
 4849TIP3    H236183   3.802   4.636   7.241 -0.3145  0.7512 -1.4953
 4850TIP3   OH236184   4.021   4.111   0.922 -0.3250  0.0841  0.3011
 4850TIP3    H136185   3.928   4.127   0.937 -0.5191 -0.7294  0.0429
 4850TIP3    H236186   4.023   4.025   0.880  0.5737 -0.0665  0.6425
 4851TIP3   OH236187   4.450   0.031   1.364  0.0528 -0.6426 -0.3095
 4851TIP3    H136188   4.434  -0.002   1.452 -0.9778 -0.7602 -0.5270
 4851TIP3    H236189   4.387   0.103   1.354 -0.4747 -1.2081 -1.2605
 4852TIP3   OH236190   5.256   0.017   7.714 -0.8300  0.5200 -0.3898
 4852TIP3    H136191   5.230  -0.015   7.800  1.0676  0.7910  0.3435
 4852TIP3    H236192   5.247  -0.060   7.657 -0.3659 -0.1876  0.4533
 4853TIP3   OH236193   0.588   4.752   7.313 -0.8704 -0.1236  0.2413
 4853TIP3    H136194   0.611   4.761   7.405  0.5943 -0.9622 -0.0123
 4853TIP3    H236195   0.552   4.837   7.288 -0.5915  0.3411  1.3903
 4854TIP3   OH236196   0.997   6.073   7.288 -0.0086  0.1782 -0.0350
 4854TIP3    H136197   0.934   6.040   7.352  1.7682 -5.0305 -0.4549
 4854TIP3    H236198   0.955   6.060   7.203  0.4884 -0.5026 -0.1878
 4855TIP3   OH236199   4.119   0.448   0.230  0.1442 -0.2345  1.2171
 4855TIP3    H136200   4.071   0.529   0.247  2.2954  1.0787  1.4838
 4855TIP3    H236201   4.117   0.401   0.313 -0.3812 -0.0422  1.3173
 4856TIP3   OH236202   0.669   3.059   2.001 -0.4383  0.4269 -0.5612
 4856TIP3    H136203   0.721   3.043   2.080  0.7142  1.9206 -0.9755
 4856TIP3    H236204   0.583   3.086   2.035  0.3199  1.9698  0.2515
 4857TIP3   OH236205   3.783   3.671   8.224 -0.4269  0.3325  0.6122
 4857TIP3    H136206   3.837   3.613   8.170 -1.2368 -0.4072  0.5608
 4857TIP3    H236207   3.712   3.614   8.255 -0.5932  1.0265  1.5261
 4858TIP3   OH236208   6.090   6.575   7.466  0.1485  0.1778 -0.9738
 4858TIP3    H136209   6.117   6.661   7.436  0.7354  0.1437 -0.5653
 4858TIP3    H236210   6.160   6.547   7.526 -0.7879  0.0764  0.1174
 4859TIP3   OH236211   1.655   2.884   7.787  0.0103 -0.5343 -0.4872
 4859TIP3    H136212   1.655   2.887   7.883  0.0456  1.9598 -0.4848
 4859TIP3    H236213   1.592   2.816   7.765 -0.9246 -0.3290  1.3320
 4860TIP3   OH236214   2.962   6.066   2.093  0.1553 -0.8468  0.5514
 4860TIP3    H136215   2.892   6.063   2.158 -0.7875  0.0884 -0.3783
 4860TIP3    H236216   3.020   5.994   2.116  0.4830  0.1470  3.1103
 4861TIP3   OH236217   0.795   2.281   8.471 -0.1303 -0.0231  0.1642
 4861TIP3    H136218   0.843   2.352   8.427  0.2598  0.2748  1.0342
 4861TIP3    H236219   0.784   2.214   8.404  0.7615  0.2655 -0.2891
 4862TIP3   OH236220   4.178   2.959   6.258  0.7183 -0.3022  1.1293
 4862TIP3    H136221   4.100   3.014   6.259  1.9389  1.6728 -1.3623
 4862TIP3    H236222   4.145   2.870   6.248 -1.2156  0.4600  0.4020
 4863TIP3   OH236223   3.246   3.049   1.627 -0.2613 -0.0312 -0.2642
 4863TIP3    H136224   3.323   3.105   1.634  0.0191 -0.1229 -2.2245
 4863TIP3    H236225   3.208   3.049   1.715  2.1434 -0.2457  0.8450
 4864TIP3   OH236226   1.087   4.115   8.149 -0.1113  0.6546  0.0758
 4864TIP3    H136227   1.103   4.082   8.060 -0.6602  0.9087 -0.1275
 4864TIP3    H236228   1.169   4.101   8.195  0.8985  2.3912 -1.0676
 4865TIP3   OH236229   3.667   5.062   1.741 -0.3132  0.0020  0.4284
 4865TIP3    H136230   3.681   5.019   1.657 -0.1468 -1.6153  1.2572
 4865TIP3    H236231   3.714   5.008   1.804 -0.8082  0.9337  1.6289
 4866TIP3   OH236232   4.837   0.713   7.588  0.0456 -0.5197 -0.6159
 4866TIP3    H136233   4.834   0.742   7.679 -0.3170  0.6691 -0.9868
 4866TIP3    H236234   4.918   0.752   7.553  0.6438 -1.6823 -0.5903
 4867TIP3   OH236235   6.089   5.442   0.123  0.1364  0.0543 -0.3563
 4867TIP3    H136236   6.164   5.501   0.127  0.9007 -0.9616  1.7234
 4867TIP3    H236237   6.124   5.357   0.149 -1.8765 -0.2363  1.7451
 4868TIP3   OH236238   3.670   5.987   0.575  0.0352  0.1064  0.0933
 4868TIP3    H136239   3.671   6.022   0.664  0.8116  0.2018  0.0565
 4868TIP3    H236240   3.667   5.892   0.585 -1.8046  0.1289  0.1967
 4869TIP3   OH236241   6.257   4.352   0.397 -0.4356  0.1143 -0.2736
 4869TIP3    H136242   6.289   4.419   0.336 -0.4082  1.4300  1.1148
 4869TIP3    H236243   6.312   4.275   0.379 -0.0723  0.6394 -1.5183
 4870TIP3   OH236244   1.252   3.746   1.269 -0.3011 -0.0521 -0.4131
 4870TIP3    H136245   1.190   3.682   1.235 -0.5297  0.2375 -0.5540
 4870TIP3    H236246   1.327   3.695   1.298 -0.6103 -0.4065 -0.2378
 4871TIP3   OH236247   6.229   3.369   7.284  0.0299 -0.3766  0.2267
 4871TIP3    H136248   6.220   3.401   7.194  0.5448  0.0972  0.3414
 4871TIP3    H236249   6.193   3.280   7.281 -0.0723 -0.3184 -0.4218
 4872TIP3   OH236250   6.428   0.427   1.220 -0.4176  0.4228  0.0048
 4872TIP3    H136251   6.369   0.495   1.187  0.3272  0.2730 -1.7525
 4872TIP3    H236252   6.503   0.430   1.161 -0.3454 -1.9141 -0.1111
 4873TIP3   OH236253   1.829   4.528   2.324 -0.1100 -0.7532 -0.4595
 4873TIP3    H136254   1.802   4.436   2.327 -1.6071 -0.3942 -1.8668
 4873TIP3    H236255   1.748   4.578   2.324  0.6610  0.7651  2.7616
 4874TIP3   OH236256   4.437   1.587   7.614  0.2197 -0.9037  0.5059
 4874TIP3    H136257   4.359   1.566   7.563  0.1574 -1.8386  0.9683
 4874TIP3    H236258   4.484   1.652   7.561 -0.2693 -1.2195 -0.3292
 4875TIP3   OH236259   1.193   2.782   7.357 -0.3633 -0.7131 -0.3062
 4875TIP3    H136260   1.244   2.833   7.420 -2.3270  0.4705  0.4096
 4875TIP3    H236261   1.195   2.693   7.391  0.3028 -0.4892  0.2797
 4876TIP3   OH236262   3.896   4.838   7.884  0.4982  0.6505  0.7790
 4876TIP3    H136263   3.860   4.925   7.866 -0.1571  1.3556  4.4995
 4876TIP3    H236264   3.838   4.778   7.839  0.3808  2.0827 -1.0882
 4877TIP3   OH236265   2.854   6.038   8.388 -0.1785 -0.2345 -0.0200
 4877TIP3    H136266   2.794   5.964   8.381 -0.8350  0.4259 -2.3092
 4877TIP3    H236267   2.797   6.115   8.387  0.6024  0.3554 -0.5403
 4878TIP3   OH236268   6.445   5.457   6.665  0.1092  0.5502 -0.5439
 4878TIP3    H136269   6.390   5.390   6.625  0.2239  0.9144 -1.3363
 4878TIP3    H236270   6.431   5.535   6.612 -0.9482  1.5305  1.0805
 4879TIP3   OH236271   6.063   1.135   2.430 -0.1010 -0.4312 -0.1075
 4879TIP3    H136272   6.057   1.212   2.374 -2.3901 -1.2863 -1.1727
 4879TIP3    H236273   5.981   1.135   2.479 -0.0575 -2.0772  0.0228
 4880TIP3   OH236274   4.632   0.887   8.248 -0.0764 -0.3389  0.0074
 4880TIP3    H136275   4.727   0.885   8.263 -0.2930  0.0532  1.7017
 4880TIP3    H236276   4.600   0.954   8.309 -1.3195  0.4111 -1.4220
 4881TIP3   OH236277   0.781   6.094   6.473 -0.3472  0.0853 -0.0754
 4881TIP3    H136278   0.698   6.091   6.520 -0.8585 -1.4311 -0.9808
 4881TIP3    H236279   0.833   6.022   6.510  0.7370  1.2482  0.7394
 4882TIP3   OH236280   1.492   2.665   7.818  0.0918  0.4692  0.3179
 4882TIP3    H136281   1.562   2.602   7.833  0.4322  1.3398  2.7609
 4882TIP3    H236282   1.443   2.629   7.743  1.8918 -1.2075 -0.1318
 4883TIP3   OH236283   1.852   3.172   7.463  0.3167  0.7082  0.4597
 4883TIP3    H136284   1.772   3.166   7.515  0.4616 -0.4143  0.5889
 4883TIP3    H236285   1.922   3.182   7.527  0.4787 -0.5043  0.4949
 4884TIP3   OH236286   4.036   2.055   7.749 -0.0117 -0.2661 -0.2636
 4884TIP3    H136287   4.048   1.994   7.822  0.8817 -0.8636 -0.8905
 4884TIP3    H236288   4.073   2.009   7.673 -0.3333  0.6103 -0.9644
 4885TIP3   OH236289   1.450   0.318   1.360 -0.1343 -0.1509  0.4275
 4885TIP3    H136290   1.513   0.313   1.288 -0.2340  0.0767  0.3275
 4885TIP3    H236291   1.505   0.323   1.439 -0.0237  1.1363  0.2753
 4886TIP3   OH236292   5.331   1.239   7.271  0.3480 -0.1119  0.1014
 4886TIP3    H136293   5.294   1.316   7.228 -2.3403 -0.6223  1.2704
 4886TIP3    H236294   5.299   1.244   7.361 -0.3477 -2.7938  0.0924
 4887TIP3   OH236295   6.222   1.512   0.217 -0.3810  0.4957 -0.1217
 4887TIP3    H136296   6.167   1.548   0.147  1.2964  1.5486 -0.9584
 4887TIP3    H236297   6.271   1.587   0.250  0.6119 -0.4208  0.5461
 4888TIP3   OH236298   3.508   1.135   7.984  0.1184 -0.4414  0.1913
 4888TIP3    H136299   3.516   1.092   8.069  0.2138  0.0654  0.4432
 4888TIP3    H236300   3.574   1.205   7.986 -0.4829  0.1444  0.0551
 4889TIP3   OH236301   2.920   2.384   6.167 -0.2420  0.6143 -0.3667
 4889TIP3    H136302   2.940   2.470   6.132 -0.6477  0.2611 -1.5143
 4889TIP3    H236303   3.006   2.341   6.174  0.0834  1.4384  1.1999
 4890TIP3   OH236304   0.318   5.947   1.391  0.6667  0.0264  0.1696
 4890TIP3    H136305   0.330   5.852   1.394  0.5251 -0.0194 -0.4505
 4890TIP3    H236306   0.275   5.969   1.474  2.8626 -0.1031  1.4204
 4891TIP3   OH236307   5.917   6.174   2.156  0.1890 -0.0737  0.1735
 4891TIP3    H136308   5.841   6.150   2.209 -0.7903  0.5633 -0.8875
 4891TIP3    H236309   5.941   6.260   2.187  0.7180 -0.4299  0.7614
 4892TIP3   OH236310   1.790   5.816   1.838 -0.1790  0.1850  0.3167
 4892TIP3    H136311   1.817   5.729   1.870 -1.0724 -0.5421 -0.8134
 4892TIP3    H236312   1.714   5.798   1.783  1.3412  1.3183 -2.3197
 4893TIP3   OH236313   5.353   1.802   6.352  0.5878  0.1566  0.2920
 4893TIP3    H136314   5.423   1.753   6.310  0.9639 -1.5545  2.7465
 4893TIP3    H236315   5.396   1.878   6.392  0.2340  1.7714 -2.1516
 4894TIP3   OH236316   6.504   6.432   0.521  0.2807 -0.0696 -1.0083
 4894TIP3    H136317   6.416   6.425   0.558  0.5602 -1.7415 -0.5690
 4894TIP3    H236318   6.527   6.342   0.497  2.1267  0.2079 -0.4674
 4895TIP3   OH236319   4.500   4.571   1.525 -0.0102 -0.4332 -0.0244
 4895TIP3    H136320   4.504   4.596   1.432  1.1400 -2.0928 -0.4648
 4895TIP3    H236321   4.486   4.476   1.523  0.2367 -0.5131  1.5070
 4896TIP3   OH236322   1.327   3.822   0.289  0.0069  0.2096 -0.4302
 4896TIP3    H136323   1.298   3.817   0.380  1.3888  3.8124  0.3681
 4896TIP3    H236324   1.262   3.772   0.240 -2.4017  0.5137  2.2268
 4897TIP3   OH236325   2.624   5.770   8.336 -0.6172  0.5513 -0.5140
 4897TIP3    H136326   2.663   5.707   8.397 -1.0508  0.2051 -0.5932
 4897TIP3    H236327   2.661   5.747   8.251  0.8528  1.7282 -0.2381
 4898TIP3   OH236328   2.612   6.019   2.078  0.7158  0.0274  0.2763
 4898TIP3    H136329   2.589   6.109   2.053  0.2383  0.0223  0.6625
 4898TIP3    H236330   2.671   6.030   2.153  0.7525  0.0266  0.2470
 4899TIP3   OH236331   0.766   0.517   6.377  0.1485  0.2184  0.6058
 4899TIP3    H136332   0.781   0.465   6.456 -0.3351  0.7183  1.0279
 4899TIP3    H236333   0.764   0.452   6.306 -0.9121 -0.4068  1.1789
 4900TIP3   OH236334   6.748   3.063   2.367 -0.1242  0.1247  0.7052
 4900TIP3    H136335   6.790   3.149   2.372  0.1286  0.0088  0.6026
 4900TIP3    H236336   6.672   3.070   2.425  1.2813 -0.3444  2.7332
 4901TIP3   OH236337   1.470   3.697   7.610 -0.1297 -0.0566 -0.0934
 4901TIP3    H136338   1.395   3.695   7.550 -0.6551  0.6272  0.5248
 4901TIP3    H236339   1.456   3.775   7.664  1.9198  1.1123 -1.1094
 4902TIP3   OH236340   6.311   5.335   2.057  0.1713 -0.4168 -0.2505
 4902TIP3    H136341   6.285   5.412   2.109  1.3949 -0.2901  0.1984
 4902TIP3    H236342   6.257   5.264   2.091 -0.5101  0.1001 -0.2226
 4903TIP3   OH236343   0.263   0.351   1.192 -0.1309  0.1518 -0.3271
 4903TIP3    H136344   0.332   0.407   1.157  0.5804  0.4104  1.3888
 4903TIP3    H236345   0.310   0.275   1.227 -0.6235  0.5501  1.2880
 4904TIP3   OH236346   1.163   3.659   7.553 -0.2480 -0.5031  0.3687
 4904TIP3    H136347   1.161   3.731   7.490 -3.4980  0.4849  1.4363
 4904TIP3    H236348   1.119   3.587   7.509  1.6497 -1.4354 -0.1256
 4905TIP3   OH236349   1.600   0.787   6.625  0.1766  0.0083  0.2151
 4905TIP3    H136350   1.692   0.763   6.619 -0.0278 -0.8156  0.2568
 4905TIP3    H236351   1.554   0.721   6.574 -0.4681 -0.0753  0.8807
 4906TIP3   OH236352   2.591   3.154   7.664 -0.1533 -0.0091  0.3663
 4906TIP3    H136353   2.606   3.238   7.707 -0.5416  0.9187 -1.2465
 4906TIP3    H236354   2.501   3.131   7.688 -0.2474  0.3192  0.3281
 4907TIP3   OH236355   4.274   1.979   8.018 -0.0046  0.1940 -0.3650
 4907TIP3    H136356   4.294   2.054   8.073  1.1782 -0.0033 -0.4945
 4907TIP3    H236357   4.186   1.953   8.043 -0.6786  1.9741 -0.7295
 4908TIP3   OH236358   4.672   1.628   1.026 -0.6934  0.3422  0.1277
 4908TIP3    H136359   4.686   1.721   1.011  0.5766  0.0233 -0.8210
 4908TIP3    H236360   4.747   1.585   0.985  0.2900 -0.9405  2.9656
 4909TIP3   OH236361   5.619   6.172   0.200  0.1877  1.2989  0.1221
 4909TIP3    H136362   5.624   6.078   0.218 -0.7582  0.8915 -1.5658
 4909TIP3    H236363   5.691   6.209   0.251  0.1279 -0.2289  1.4032
 4910TIP3   OH236364   3.007   1.659   2.395 -0.6078  0.2203 -0.3738
 4910TIP3    H136365   3.006   1.565   2.381 -2.1492  0.2633 -0.7415
 4910TIP3    H236366   3.070   1.673   2.465 -0.6559 -1.1185 -0.0503
 4911TIP3   OH236367   0.909   2.268   0.851  0.0754  0.8174 -0.2073
 4911TIP3    H136368   0.954   2.321   0.917 -0.4504  0.0403  0.8013
 4911TIP3    H236369   0.979   2.232   0.797  0.8214 -1.0414  1.8287
 4912TIP3   OH236370   5.385   6.634   8.313 -0.2564 -0.1358 -0.3484
 4912TIP3    H136371   5.302   6.666   8.348 -1.0640 -1.3763 -1.0559
 4912TIP3    H236372   5.451   6.667   8.374 -1.4897 -1.1965  1.6648
 4913TIP3   OH236373   1.048   2.621   0.589 -0.4726  0.4620  0.1764
 4913TIP3    H136374   0.965   2.667   0.599  0.9125  3.1685  0.1049
 4913TIP3    H236375   1.075   2.637   0.499  0.7883  0.8681  0.5995
 4914TIP3   OH236376   5.095   0.180   2.460 -0.3758  0.2966 -0.1066
 4914TIP3    H136377   5.170   0.230   2.491  1.5177 -1.9425 -0.7634
 4914TIP3    H236378   5.125   0.140   2.379 -2.7724  0.3524 -1.0943
 4915TIP3   OH236379   2.943   3.069   8.062  0.5644  0.2144 -0.4688
 4915TIP3    H136380   2.902   3.082   7.976 -0.6042  1.0540  0.1842
 4915TIP3    H236381   2.968   3.157   8.090 -0.9462  0.2428  0.9225
 4916TIP3   OH236382   2.642   6.179   6.852  0.2077 -0.2176  0.1998
 4916TIP3    H136383   2.652   6.265   6.811  1.6140 -1.2446 -1.7934
 4916TIP3    H236384   2.565   6.141   6.809  0.6042 -0.5968 -0.1833
 4917TIP3   OH236385   0.698   2.571   0.895  0.0449 -0.0875 -0.9579
 4917TIP3    H136386   0.689   2.501   0.960 -1.3474 -0.5058 -1.5605
 4917TIP3    H236387   0.707   2.651   0.947 -1.8974 -0.3085 -0.2063
 4918TIP3   OH236388   0.779   5.923   0.347  0.3525 -0.3330 -0.2867
 4918TIP3    H136389   0.858   5.943   0.297  0.5174 -1.6060 -0.5694
 4918TIP3    H236390   0.707   5.945   0.287  0.4743  0.7511 -0.0565
 4919TIP3   OH236391   3.251   1.800   2.555 -0.3476 -0.2403 -0.1933
 4919TIP3    H136392   3.253   1.884   2.601  1.6645 -0.8370  0.9595
 4919TIP3    H236393   3.232   1.736   2.623  1.4537 -1.0181 -0.3705
 4920TIP3   OH236394   6.701   1.284   6.650  0.7070  0.1561  0.7713
 4920TIP3    H136395   6.754   1.246   6.580 -0.1098 -0.0336  0.2533
 4920TIP3    H236396   6.715   1.379   6.643  1.1669  0.0928  0.8005
 4921TIP3   OH236397   2.314   4.368   8.422 -0.2566 -0.3104 -0.2015
 4921TIP3    H136398   2.270   4.349   8.338  0.0309 -0.1701 -0.3841
 4921TIP3    H236399   2.287   4.457   8.444  2.0063  0.8392 -1.6563
 4922TIP3   OH236400   4.087   3.915   1.444  0.3051 -0.3907  0.1877
 4922TIP3    H136401   4.000   3.887   1.415  0.6719 -0.0444 -1.3123
 4922TIP3    H236402   4.095   3.878   1.532 -1.2952 -0.5478  0.3027
 4923TIP3   OH236403   2.172   3.685   7.442 -0.3467 -0.9087  0.3736
 4923TIP3    H136404   2.085   3.678   7.481  0.2489 -1.1652  1.7145
 4923TIP3    H236405   2.190   3.779   7.440 -1.1667 -0.7468 -1.1616
 4924TIP3   OH236406   2.185   2.097   1.932  0.1091  0.2726 -0.2523
 4924TIP3    H136407   2.269   2.111   1.977 -0.2199  0.8105  0.2027
 4924TIP3    H236408   2.127   2.065   2.001  0.2752 -1.3547 -0.8343
 4925TIP3   OH236409   0.669   6.811   6.553 -0.4712  0.3342  0.2860
 4925TIP3    H136410   0.752   6.853   6.533 -0.5552  0.1249 -0.5553
 4925TIP3    H236411   0.605   6.883   6.556 -0.1441  0.6010  1.7726
 4926TIP3   OH236412   4.257   5.706   8.077  1.0774  0.0406 -0.2823
 4926TIP3    H136413   4.232   5.780   8.133  0.1999 -1.1227  0.9361
 4926TIP3    H236414   4.174   5.665   8.053  1.5697 -0.9378 -0.3803
 4927TIP3   OH236415   1.385   2.635   6.549 -0.2533 -0.9630 -0.3557
 4927TIP3    H136416   1.381   2.713   6.604  1.5937  0.1087 -1.6263
 4927TIP3    H236417   1.328   2.572   6.593  0.9671 -0.1416  2.6629
 4928TIP3   OH236418   2.879   0.420   0.114  0.4066  0.1192  0.0958
 4928TIP3    H136419   2.946   0.404   0.048 -0.2578  0.3855 -0.6680
 4928TIP3    H236420   2.928   0.443   0.193  1.2150  2.1122 -0.9127
 4929TIP3   OH236421   5.241   6.778   2.427 -0.3338  0.5187 -0.2685
 4929TIP3    H136422   5.248   6.852   2.365  0.3918  1.8449  1.3283
 4929TIP3    H236423   5.274   6.813   2.510 -0.7931 -1.3713  0.7594
 4930TIP3   OH236424   4.560   3.091   1.371  0.0348 -0.2988  0.3243
 4930TIP3    H136425   4.552   3.029   1.299 -0.5322 -1.4548  1.3355
 4930TIP3    H236426   4.506   3.053   1.441  1.1945  0.3786  1.6318
 4931TIP3   OH236427   5.105   5.221   8.220  0.3421 -0.1853  0.3441
 4931TIP3    H136428   5.148   5.229   8.135 -1.6489 -0.7833 -0.7622
 4931TIP3    H236429   5.035   5.286   8.218  0.3515 -0.1124  1.6013
 4932TIP3   OH236430   1.348   5.512   6.350 -0.7617 -0.3257 -0.0974
 4932TIP3    H136431   1.363   5.584   6.288 -1.0156 -0.4138 -0.2597
 4932TIP3    H236432   1.436   5.477   6.367 -0.8221 -1.2128 -1.4898
 4933TIP3   OH236433   3.246   1.694   8.499 -0.7638 -0.0067 -0.1480
 4933TIP3    H136434   3.303   1.617   8.489  1.2260  1.1867  1.3321
 4933TIP3    H236435   3.283   1.742   8.573 -3.7569  0.8701  0.9299
 4934TIP3   OH236436   0.860   5.691   7.118 -0.0236 -0.6340  0.0488
 4934TIP3    H136437   0.886   5.680   7.210  0.8637  1.5523  0.1214
 4934TIP3    H236438   0.765   5.684   7.119 -0.2066  1.1861  1.5021
 4935TIP3   OH236439   0.272   2.551   2.152 -0.0845  0.1330 -0.0969
 4935TIP3    H136440   0.291   2.497   2.076 -0.3596  0.3648 -0.3344
 4935TIP3    H236441   0.244   2.635   2.115 -1.6812 -0.2274  0.2291
 4936TIP3   OH236442   2.274   3.162   2.359  0.8173  0.7380 -0.6795
 4936TIP3    H136443   2.257   3.099   2.429  1.6365 -0.1347 -1.2351
 4936TIP3    H236444   2.311   3.238   2.403 -0.2320  0.8603  0.0098
 4937TIP3   OH236445   3.346   5.811   7.900  0.2771 -0.4046 -0.1557
 4937TIP3    H136446   3.286   5.748   7.940  1.5505 -1.2428  0.5123
 4937TIP3    H236447   3.298   5.893   7.899  0.0110 -0.4344  2.7193
 4938TIP3   OH236448   5.618   2.000   1.554  0.3907 -0.0306 -0.3137
 4938TIP3    H136449   5.694   1.941   1.553  0.4831  0.0848 -0.0854
 4938TIP3    H236450   5.641   2.070   1.494  0.8877  0.5325  0.5116
 4939TIP3   OH236451   1.299   1.307   8.033 -0.1801  0.1822 -0.3590
 4939TIP3    H136452   1.371   1.289   8.094  0.6498 -3.4917 -2.1114
 4939TIP3    H236453   1.341   1.351   7.959  0.8326 -3.2967 -2.0627
 4940TIP3   OH236454   1.768   5.565   0.748  0.5300 -0.0760  0.6099
 4940TIP3    H136455   1.683   5.566   0.704  0.8820 -2.3580 -0.2461
 4940TIP3    H236456   1.805   5.652   0.729 -0.9201  0.3658 -0.3742
 4941TIP3   OH236457   5.022   1.395   1.082  0.0121 -0.3713 -0.3718
 4941TIP3    H136458   5.116   1.374   1.085  0.0662 -0.4420 -1.9279
 4941TIP3    H236459   5.018   1.490   1.088  0.1066 -0.4094  0.5839
 4942TIP3   OH236460   0.366   3.978   8.603 -1.1450  0.4015  1.0267
 4942TIP3    H136461   0.433   4.019   8.549 -0.9259 -0.3425  0.7241
 4942TIP3    H236462   0.415   3.930   8.670 -1.3449 -0.7603  0.3586
 4943TIP3   OH236463   3.092   0.366   8.576 -0.2479 -0.3216 -0.4976
 4943TIP3    H136464   3.066   0.274   8.576  0.3736 -0.5149  0.6626
 4943TIP3    H236465   3.185   0.365   8.557 -0.1008  0.0242  0.1969
 4944TIP3   OH236466   5.920   5.009   2.599 -0.2659  0.2800 -0.3719
 4944TIP3    H136467   5.985   5.050   2.542  0.1872  0.0986  0.0126
 4944TIP3    H236468   5.875   5.083   2.640 -1.9638  0.5000 -2.4199
 4945TIP3   OH236469   4.882   6.418   8.548  0.5288 -0.7297 -0.1136
 4945TIP3    H136470   4.807   6.359   8.547 -1.1095  1.1461 -2.9617
 4945TIP3    H236471   4.861   6.482   8.616 -1.7680  1.0666 -2.2907
 4946TIP3   OH236472   2.545   3.833   0.217 -0.2333 -0.0558  0.4921
 4946TIP3    H136473   2.535   3.928   0.210 -0.1970 -0.0891 -0.0074
 4946TIP3    H236474   2.546   3.816   0.312  0.8171  0.5507  0.6056
 4947TIP3   OH236475   4.128   0.116   7.479  0.0585  0.4448 -0.0414
 4947TIP3    H136476   4.097   0.167   7.404  3.0381 -0.2781 -1.9749
 4947TIP3    H236477   4.182   0.177   7.529  0.9487  0.0710 -0.5184
 4948TIP3   OH236478   0.239   1.251   8.598  0.1598  0.7167 -0.9485
 4948TIP3    H136479   0.256   1.157   8.597  1.6505  0.9581 -0.9269
 4948TIP3    H236480   0.284   1.284   8.520  0.8565  1.5830 -0.2074
 4949TIP3   OH236481   3.128   5.976   6.519  0.4178  0.2108 -0.3260
 4949TIP3    H136482   3.156   6.023   6.440  1.1569  1.8117  0.8348
 4949TIP3    H236483   3.206   5.976   6.576 -0.3914 -0.0178  0.8162
 4950TIP3   OH236484   3.512   4.746   1.021  0.1151 -0.3037  0.2120
 4950TIP3    H136485   3.459   4.799   0.961 -0.8124 -0.7754  0.6115
 4950TIP3    H236486   3.544   4.674   0.966  0.9778  0.3769 -0.2109
 4951TIP3   OH236487   6.164   5.531   8.356  0.0366  0.1588  0.1101
 4951TIP3    H136488   6.121   5.610   8.389 -0.0603  0.0645  0.2112
 4951TIP3    H236489   6.115   5.508   8.277  1.1992  1.2466 -0.9670
 4952TIP3   OH236490   4.647   5.623   7.086  0.3549  0.2694 -0.5246
 4952TIP3    H136491   4.577   5.593   7.144  1.8013 -0.8814  0.7024
 4952TIP3    H236492   4.715   5.656   7.145  1.3506  0.2328 -1.6100
 4953TIP3   OH236493   3.667   1.974   8.636 -0.3182 -0.2279  0.3834
 4953TIP3    H136494   3.604   1.990   8.706  0.7861 -0.4249  1.4500
 4953TIP3    H236495   3.751   2.006   8.670  0.3047 -0.6150 -0.7191
 4954TIP3   OH236496   0.662   0.023   0.429  0.3868 -0.0567  0.1571
 4954TIP3    H136497   0.692  -0.066   0.411 -0.6439 -0.7442  1.5930
 4954TIP3    H236498   0.627   0.054   0.346  1.4716 -0.6878 -0.5562
 4955TIP3   OH236499   3.733   0.726   6.517  0.2761 -0.2784 -0.4646
 4955TIP3    H136500   3.808   0.736   6.575  0.2564 -1.5147 -0.1998
 4955TIP3    H236501   3.661   0.770   6.562  0.1790 -1.5241  0.6448
 4956TIP3   OH236502   3.370   2.499   1.630  0.6052 -0.0131 -0.3099
 4956TIP3    H136503   3.314   2.573   1.608 -0.2104 -0.7335 -0.6761
 4956TIP3    H236504   3.348   2.478   1.720 -0.9211 -1.3224 -0.9483
 4957TIP3   OH236505   0.082   1.279   1.571  0.0059 -0.3187 -0.0785
 4957TIP3    H136506   0.164   1.243   1.535  0.2478 -0.1208  0.2653
 4957TIP3    H236507   0.075   1.237   1.657  0.6476  0.9603  0.6199
 4958TIP3   OH236508   1.403   0.954   8.290  0.2787 -0.6103 -0.4209
 4958TIP3    H136509   1.320   0.936   8.335 -0.4490 -0.7859 -1.7453
 4958TIP3    H236510   1.435   1.035   8.329 -1.4153  0.4085 -1.0117
 4959TIP3   OH236511   0.207   6.551   6.864 -0.7494 -0.4131 -0.3777
 4959TIP3    H136512   0.151   6.626   6.885  1.0441  0.8332  0.2127
 4959TIP3    H236513   0.155   6.499   6.803 -2.1005  1.2647 -0.7477
 4960TIP3   OH236514   6.844   3.640   2.533  0.3328  0.2096  0.5092
 4960TIP3    H136515   6.935   3.669   2.532  0.7541 -1.0746  0.9151
 4960TIP3    H236516   6.805   3.682   2.456  1.2873  0.6828  0.2733
 4961TIP3   OH236517   0.155   6.443   1.097 -0.0463  0.0177 -0.3116
 4961TIP3    H136518   0.168   6.518   1.039  0.2523  0.7987  0.7288
 4961TIP3    H236519   0.060   6.432   1.101 -0.1072  0.5307 -0.2485
 4962TIP3   OH236520   3.296   3.776   0.125  0.1824 -0.4488 -0.1558
 4962TIP3    H136521   3.225   3.818   0.173 -0.6968 -1.3717 -0.6185
 4962TIP3    H236522   3.290   3.813   0.037  0.2923 -0.5083 -0.1878
 4963TIP3   OH236523   5.267   0.733   7.131  0.0008  0.2621  0.1917
 4963TIP3    H136524   5.203   0.803   7.120 -1.4750 -1.1421 -0.4548
 4963TIP3    H236525   5.315   0.731   7.049  1.2339  1.6067  0.8361
 4964TIP3   OH236526   2.596   3.442   0.494 -0.3960  0.9512  0.4152
 4964TIP3    H136527   2.512   3.487   0.498 -0.2584  1.3974 -0.9859
 4964TIP3    H236528   2.649   3.496   0.435 -0.1016 -0.8130 -1.0448
 4965TIP3   OH236529   3.813   0.632   7.819 -0.2971 -0.3800  0.0686
 4965TIP3    H136530   3.809   0.722   7.787 -1.6287  0.1764  1.7345
 4965TIP3    H236531   3.821   0.639   7.914  2.7443 -2.0117  0.0807
 4966TIP3   OH236532   4.481   5.579   2.246 -0.0026  0.6881 -0.1419
 4966TIP3    H136533   4.548   5.584   2.315  0.0504  2.2165 -0.2776
 4966TIP3    H236534   4.402   5.549   2.292  0.2405  0.8969  0.4262
 4967TIP3   OH236535   1.059   1.257   8.203 -0.0726 -1.0412  0.4062
 4967TIP3    H136536   1.090   1.301   8.283  0.1358  1.5519 -0.9928
 4967TIP3    H236537   1.134   1.260   8.144 -1.1226 -0.1801 -0.9207
 4968TIP3   OH236538   2.009   0.927   1.101 -0.0422 -0.5353  0.0837
 4968TIP3    H136539   2.013   1.013   1.059 -1.0688  0.2755  1.5381
 4968TIP3    H236540   1.971   0.944   1.187  1.9696 -2.1168  1.3826
 4969TIP3   OH236541   0.685   6.445   8.584  0.7071 -0.0808 -0.6806
 4969TIP3    H136542   0.692   6.540   8.574  1.8232 -0.1305 -0.4663
 4969TIP3    H236543   0.749   6.410   8.521 -0.3445 -0.7295 -1.4255
 4970TIP3   OH236544   2.585   6.537   8.349 -0.0727  0.1127  0.1414
 4970TIP3    H136545   2.511   6.590   8.316 -0.4484  0.4964  1.5511
 4970TIP3    H236546   2.656   6.556   8.288 -0.9612  0.2079 -0.8995
 4971TIP3   OH236547   2.185   6.496   0.499 -0.5507 -0.4961  0.1546
 4971TIP3    H136548   2.209   6.547   0.576 -2.8282 -0.0971  0.6827
 4971TIP3    H236549   2.172   6.407   0.532 -0.1111 -0.6345 -0.0489
 4972TIP3   OH236550   2.172   6.649   8.277 -0.0181  0.0385 -0.4455
 4972TIP3    H136551   2.161   6.739   8.307 -0.9241 -0.1901 -0.0787
 4972TIP3    H236552   2.219   6.657   8.194  1.5838  0.7292  0.4842
 4973TIP3   OH236553   1.891   3.559   1.581 -0.4627 -0.1739 -0.1080
 4973TIP3    H136554   1.813   3.543   1.634  0.8443  0.4370  2.1148
 4973TIP3    H236555   1.951   3.488   1.604 -0.8394 -1.5805 -2.9962
 4974TIP3   OH236556   0.975   1.162   1.263  0.0198 -0.0989 -0.4915
 4974TIP3    H136557   0.986   1.072   1.292  1.5842 -0.0302 -0.7509
 4974TIP3    H236558   0.887   1.165   1.225 -0.5039 -1.1917  0.5984
 4975TIP3   OH236559   0.861   2.798   0.098  0.2420 -0.1805 -0.0033
 4975TIP3    H136560   0.888   2.727   0.156  1.2543 -0.9999 -1.4019
 4975TIP3    H236561   0.825   2.753   0.021  1.1239  0.8093 -1.0238
 4976TIP3   OH236562   2.070   3.868   0.986 -0.0975 -0.1021 -0.1285
 4976TIP3    H136563   2.044   3.781   0.955 -0.7456  0.6603 -1.9019
 4976TIP3    H236564   1.991   3.921   0.976  0.2755  0.6876  0.9760
 4977TIP3   OH236565   4.950   0.481   0.956  0.5371  0.4358 -0.2019
 4977TIP3    H136566   5.023   0.420   0.956  1.1487  1.1377  0.9378
 4977TIP3    H236567   4.948   0.517   1.045 -1.9618 -0.4725  0.2073
 4978TIP3   OH236568   4.551   3.190   1.016 -0.5829 -0.5893 -0.2527
 4978TIP3    H136569   4.481   3.248   0.985 -0.2511  1.1542  1.9321
 4978TIP3    H236570   4.505   3.117   1.057 -1.1786  0.3048  0.7394
 4979TIP3   OH236571   3.451   5.832   1.456  0.4407 -0.4424 -0.4913
 4979TIP3    H136572   3.385   5.787   1.403  1.2512 -1.0880 -0.9704
 4979TIP3    H236573   3.452   5.784   1.539 -0.4651  0.2522 -0.0664
 4980TIP3   OH236574   6.839   6.029   1.263  0.9723 -0.7462 -0.3645
 4980TIP3    H136575   6.882   6.103   1.307  0.9659  0.8632 -2.8676
 4980TIP3    H236576   6.753   6.024   1.304  1.3522 -0.0511  0.5659
 4981TIP3   OH236577   3.994   3.014   0.075 -0.7181 -0.1991 -0.1143
 4981TIP3    H136578   3.940   3.041   0.000 -0.6915 -0.9576 -0.4182
 4981TIP3    H236579   4.025   3.096   0.113 -1.8557  0.2463 -0.1005
 4982TIP3   OH236580   0.422   4.064   1.580  0.4032 -0.0259 -0.2708
 4982TIP3    H136581   0.494   4.007   1.554  1.1949  1.5987 -1.8559
 4982TIP3    H236582   0.348   4.038   1.525 -0.3020 -1.7314  1.3951
 4983TIP3   OH236583   5.522   3.662   2.638  0.1240  0.1231  0.6934
 4983TIP3    H136584   5.585   3.734   2.633  0.1942  0.0188 -0.1408
 4983TIP3    H236585   5.567   3.588   2.598  0.1360 -0.4664  1.7580
 4984TIP3   OH236586   3.053   6.437   7.608  0.2939  0.5025 -0.3902
 4984TIP3    H136587   3.022   6.451   7.698  1.4901  0.2439  0.0788
 4984TIP3    H236588   2.984   6.385   7.567  1.1244 -2.2227  1.3485
 4985TIP3   OH236589   3.255   1.980   8.295 -0.0774 -0.0044 -0.0286
 4985TIP3    H136590   3.178   1.932   8.325 -0.5581  0.2668 -0.8116
 4985TIP3    H236591   3.228   2.072   8.298 -0.3098  0.0123 -1.7408
 4986TIP3   OH236592   1.870   2.539   2.551 -0.2568  0.5138  0.4439
 4986TIP3    H136593   1.824   2.623   2.559 -0.4236  0.3553  1.1692
 4986TIP3    H236594   1.860   2.497   2.636  0.0881 -0.1160  0.1835
 4987TIP3   OH236595   1.894   3.914   8.469 -0.3311  0.0708  0.2373
 4987TIP3    H136596   1.887   3.981   8.537 -0.0663  1.5407 -1.1040
 4987TIP3    H236597   1.909   3.833   8.516 -1.1375  0.8684  1.9637
 4988TIP3   OH236598   0.956   0.375   7.116  0.1059 -0.1163  0.1476
 4988TIP3    H136599   0.876   0.374   7.064 -1.7184 -1.2314  2.7556
 4988TIP3    H236600   0.951   0.295   7.169  3.8037 -1.1364 -0.6975
 4989TIP3   OH236601   1.587   6.213   7.306  0.0483 -0.6224 -0.0578
 4989TIP3    H136602   1.613   6.148   7.240 -0.3476 -0.4235 -0.4184
 4989TIP3    H236603   1.502   6.182   7.337  0.7124 -1.3023  1.1539
 4990TIP3   OH236604   3.445   4.510   2.149 -0.3070 -0.8099 -0.0076
 4990TIP3    H136605   3.530   4.483   2.114 -0.4185 -1.9037  0.5107
 4990TIP3    H236606   3.463   4.593   2.192  0.2547 -0.4583 -0.8770
 4991TIP3   OH236607   1.884   2.322   7.204  0.3210 -0.0128  0.2566
 4991TIP3    H136608   1.966   2.339   7.157 -1.0186  1.4419 -1.7228
 4991TIP3    H236609   1.829   2.277   7.139 -0.5573 -0.7349  1.4737
 4992TIP3   OH236610   4.647   0.632   7.419  0.0739 -0.0847  0.1605
 4992TIP3    H136611   4.716   0.645   7.484  0.8974 -1.0199 -0.4997
 4992TIP3    H236612   4.670   0.550   7.375 -2.4129 -1.3752  1.0813
 4993TIP3   OH236613   5.934   1.635   0.994 -0.0012 -0.2279 -0.3919
 4993TIP3    H136614   5.947   1.671   0.907  1.3841  0.0446 -0.1015
 4993TIP3    H236615   5.863   1.686   1.032  0.0176  0.2715 -1.0228
 4994TIP3   OH236616   6.214   0.908   0.325  0.1299  0.0719 -0.2481
 4994TIP3    H136617   6.127   0.920   0.287 -0.5221  0.1332  1.2068
 4994TIP3    H236618   6.254   0.995   0.319 -0.6606  0.5278  0.8411
 4995TIP3   OH236619   0.936   0.568   0.534 -0.2929 -0.3865  0.5227
 4995TIP3    H136620   0.994   0.493   0.548 -0.2900 -0.0609  2.5807
 4995TIP3    H236621   0.884   0.573   0.614 -0.6238  1.5202  0.2332
 4996TIP3   OH236622   2.425   0.679   8.551  0.0554  0.2770 -0.1774
 4996TIP3    H136623   2.475   0.684   8.632  0.9701 -0.2234 -0.6865
 4996TIP3    H236624   2.365   0.606   8.564 -0.3025  0.6527  0.3090
 4997TIP3   OH236625   6.239   0.145   7.722 -0.1542 -0.5716 -0.3587
 4997TIP3    H136626   6.222   0.230   7.764 -2.5625 -0.9861 -0.3506
 4997TIP3    H236627   6.281   0.168   7.639 -1.7165  0.7412 -0.8406
 4998TIP3   OH236628   3.978   5.575   1.426 -0.2917 -0.2648  0.0921
 4998TIP3    H136629   3.882   5.575   1.434 -0.4772 -0.6421 -1.5956
 4998TIP3    H236630   3.996   5.511   1.357  0.9722  1.4857 -1.3163
 4999TIP3   OH236631   4.257   1.382   6.999 -0.0314 -0.0858 -0.0842
 4999TIP3    H136632   4.297   1.415   6.918 -0.9972 -1.4094 -1.1514
 4999TIP3    H236633   4.325   1.392   7.065  1.2572 -0.1740 -1.3412
 5000TIP3   OH236634   2.803   6.027   0.465 -0.5609  0.4067  0.2013
 5000TIP3    H136635   2.855   6.107   0.473 -1.6178  1.1887 -0.5005
 5000TIP3    H236636   2.865   5.957   0.479  0.5206  1.3364  0.2195
 5001TIP3   OH236637   3.507   2.966   0.727  0.3732 -0.0521 -0.3731
 5001TIP3    H136638   3.584   3.011   0.761  0.4491 -0.0100 -0.5993
 5001TIP3    H236639   3.437   2.990   0.788  0.5413 -0.0997 -0.1617
 5002TIP3   OH236640   0.536   1.520   1.364  0.0148 -0.8473  0.1999
 5002TIP3    H136641   0.514   1.612   1.378 -1.9892 -1.4067  1.1823
 5002TIP3    H236642   0.593   1.497   1.438 -0.4319 -0.6825  0.5970
 5003TIP3   OH236643   5.978   4.481   8.197  0.2936 -0.2614 -0.5249
 5003TIP3    H136644   5.960   4.570   8.227 -2.3821  0.0819 -2.7310
 5003TIP3    H236645   6.022   4.492   8.113  0.0932 -0.9920 -0.7357
 5004TIP3   OH236646   1.773   4.155   8.331 -0.2623 -0.6933 -0.6697
 5004TIP3    H136647   1.801   4.109   8.410  0.8926 -0.3901 -0.8710
 5004TIP3    H236648   1.720   4.091   8.283  1.7924 -2.1076 -1.2379
 5005TIP3   OH236649   6.788   3.791   0.986 -0.2062 -0.1291 -0.6945
 5005TIP3    H136650   6.784   3.729   0.913  1.5835  0.5404 -1.4072
 5005TIP3    H236651   6.809   3.737   1.062 -1.4317 -0.7432 -0.7681
 5006TIP3   OH236652   1.432   2.619   0.042 -0.1052 -0.2624 -0.4781
 5006TIP3    H136653   1.350   2.663   0.017 -0.0763  0.7729  1.0749
 5006TIP3    H236654   1.405   2.555   0.108  0.2164 -0.5868 -0.6648
 5007TIP3   OH236655   0.299   3.487   0.605 -0.4878  0.3607 -0.5702
 5007TIP3    H136656   0.344   3.563   0.567  1.0349 -1.1606 -1.9712
 5007TIP3    H236657   0.251   3.449   0.531 -1.8742  0.3675  0.2993
 5008TIP3   OH236658   2.226   3.533   2.595  0.3014  0.0017  0.0785
 5008TIP3    H136659   2.152   3.541   2.534  0.1719  0.2942  0.2749
 5008TIP3    H236660   2.284   3.605   2.571  1.0513 -0.8524 -0.7904
 5009TIP3   OH236661   2.518   4.852   7.524  0.4954 -0.4438 -0.0120
 5009TIP3    H136662   2.434   4.894   7.502  0.5154  0.3358  1.3237
 5009TIP3    H236663   2.518   4.847   7.619  0.7565 -3.0016 -0.0920
 5010TIP3   OH236664   3.218   3.990   8.028 -0.0363 -0.5839 -0.2862
 5010TIP3    H136665   3.263   4.072   8.045  0.5169 -0.3050 -2.8278
 5010TIP3    H236666   3.151   3.985   8.097  1.0695  1.0711  0.9848
 5011TIP3   OH236667   1.617   1.103   0.344 -0.2801  0.1747  0.0706
 5011TIP3    H136668   1.699   1.133   0.304 -1.4696  0.8469 -1.9960
 5011TIP3    H236669   1.603   1.163   0.418  0.6757  0.5580 -0.0408
 5012TIP3   OH236670   1.084   2.677   0.305  0.5914 -0.0922 -0.1369
 5012TIP3    H136671   1.165   2.711   0.266 -1.1934  1.6580 -2.6744
 5012TIP3    H236672   1.056   2.607   0.246  0.2008 -0.5875  0.6272
 5013TIP3   OH236673   0.935   2.736   0.838  0.6141 -0.2791 -0.6459
 5013TIP3    H136674   1.016   2.727   0.887 -1.0222  0.3190  2.4529
 5013TIP3    H236675   0.878   2.667   0.872 -1.7381  2.2167  0.9421
 5014TIP3   OH236676   3.352   1.086   1.766 -0.4312  0.6071  0.3036
 5014TIP3    H136677   3.306   1.018   1.716  0.1616 -0.1642  0.7793
 5014TIP3    H236678   3.395   1.140   1.700 -0.0948 -0.0837 -0.0459
 5015TIP3   OH236679   3.718   0.905   2.167 -0.0851 -0.2217 -0.0900
 5015TIP3    H136680   3.787   0.956   2.209  0.1288 -0.1489 -0.5253
 5015TIP3    H236681   3.761   0.825   2.139 -0.4908 -0.7967  0.8828
 5016TIP3   OH236682   6.263   4.251   8.059 -0.4794 -0.3539 -0.4823
 5016TIP3    H136683   6.262   4.287   7.971 -2.2065 -1.1945 -0.8341
 5016TIP3    H236684   6.343   4.199   8.063  0.5800  1.1692 -0.8988
 5017TIP3   OH236685   2.019   3.553   2.395  0.3364 -0.2795 -0.0498
 5017TIP3    H136686   1.927   3.578   2.385 -0.0177 -1.3051  0.4731
 5017TIP3    H236687   2.068   3.621   2.349 -0.8176 -1.2135 -2.8181
 5018TIP3   OH236688   2.669   1.089   8.123  0.3183  0.0563  0.0204
 5018TIP3    H136689   2.639   1.000   8.139 -0.3752 -0.0007 -1.4540
 5018TIP3    H236690   2.620   1.142   8.186 -1.2368 -0.3119 -0.8392
 5019TIP3   OH236691   6.369   3.656   0.185 -0.1545  0.2218 -0.9059
 5019TIP3    H136692   6.397   3.729   0.240 -2.3198  0.3513  0.1412
 5019TIP3    H236693   6.274   3.654   0.194 -0.1858 -2.8928 -0.6787
 5020TIP3   OH236694   3.797   1.403   6.471 -0.1425 -0.4516 -0.2457
 5020TIP3    H136695   3.819   1.491   6.502 -2.2080  0.0890 -0.1816
 5020TIP3    H236696   3.851   1.391   6.393  2.1838 -0.2662  1.2227
 5021TIP3   OH236697   2.857   1.254   0.026  0.7123  0.7801  0.1715
 5021TIP3    H136698   2.835   1.249   0.119 -1.0345  1.0305 -0.1999
 5021TIP3    H236699   2.943   1.213   0.020  2.3065  3.4593  2.3529
 5022TIP3   OH236700   2.504   3.446   1.348  0.5778 -0.4156 -0.1355
 5022TIP3    H136701   2.467   3.528   1.382  1.0755 -0.1769 -0.1644
 5022TIP3    H236702   2.432   3.384   1.353  0.0610  0.1379 -0.5338
 5023TIP3   OH236703   3.037   2.164   0.129 -0.0079  0.6555 -0.2192
 5023TIP3    H136704   2.977   2.127   0.194  2.0142 -1.3664  0.6543
 5023TIP3    H236705   3.025   2.109   0.052  0.9366 -0.0394  0.1025
 5024TIP3   OH236706   4.488   2.907   2.101  0.1739 -0.2659  0.0830
 5024TIP3    H136707   4.461   2.816   2.087 -0.7913  0.0935 -0.4749
 5024TIP3    H236708   4.410   2.950   2.135  0.6723  0.3210  0.4974
 5025TIP3   OH236709   2.652   6.027   8.125  0.1446 -0.4045 -0.0513
 5025TIP3    H136710   2.648   5.977   8.207  1.6412  0.6639  0.7155
 5025TIP3    H236711   2.565   6.067   8.118 -0.8046 -2.3790 -0.2561
 5026TIP3   OH236712   6.569   1.092   0.558  0.3455 -0.1222 -0.3540
 5026TIP3    H136713   6.514   1.047   0.623  1.5824  0.3240  1.0545
 5026TIP3    H236714   6.656   1.053   0.569  0.5605 -0.1326 -1.8662
 5027TIP3   OH236715   4.581   2.814   6.370 -0.4515 -0.6639  0.1840
 5027TIP3    H136716   4.574   2.909   6.358 -1.9396 -0.7079  0.4959
 5027TIP3    H236717   4.628   2.803   6.452 -2.0594 -0.1307  1.2143
 5028TIP3   OH236718   6.819   0.426   1.614  0.0135 -0.7264  0.4687
 5028TIP3    H136719   6.749   0.361   1.622 -1.0013 -0.0970 -2.1436
 5028TIP3    H236720   6.885   0.383   1.559  0.5046 -0.4362  0.8291
 5029TIP3   OH236721   0.044   5.669   7.364  0.6923 -0.0175  0.3631
 5029TIP3    H136722   0.035   5.580   7.396  1.7315 -0.5011 -0.6107
 5029TIP3    H236723  -0.042   5.708   7.377  0.6622 -0.6104  2.3581
 5030TIP3   OH236724   3.123   4.263   0.560 -0.3507 -0.2570  0.0121
 5030TIP3    H136725   3.163   4.260   0.647 -1.0537  2.0323  0.4864
 5030TIP3    H236726   3.031   4.283   0.577 -0.6853 -0.6448 -1.2496
 5031TIP3   OH236727   2.166   3.096   6.968 -0.2768 -0.0585 -0.1897
 5031TIP3    H136728   2.097   3.162   6.964 -1.3982 -1.0881  1.0114
 5031TIP3    H236729   2.243   3.138   6.930 -0.1203  2.9699  2.9886
 5032TIP3   OH236730   0.449   2.349   8.392 -0.0841  0.0554 -0.6620
 5032TIP3    H136731   0.527   2.350   8.448 -0.2715 -0.2906 -0.3855
 5032TIP3    H236732   0.434   2.440   8.370 -0.0758  0.2097 -0.0486
 5033TIP3   OH236733   0.465   2.657   7.358 -0.6388  1.3945  0.3953
 5033TIP3    H136734   0.522   2.731   7.338 -2.0064  2.2891 -0.3846
 5033TIP3    H236735   0.396   2.661   7.291 -1.0869 -0.2238  0.7110
 5034TIP3   OH236736   0.939   0.088   7.193 -0.3612 -0.1887  0.3109
 5034TIP3    H136737   0.903   0.100   7.105 -0.1689  0.4907  0.3178
 5034TIP3    H236738   0.978   0.000   7.192 -0.3930 -0.1975 -0.2669
 5035TIP3   OH236739   0.936   2.171   0.561  0.7224  0.4359 -0.0822
 5035TIP3    H136740   0.868   2.238   0.554  0.8077  0.5801  0.4290
 5035TIP3    H236741   0.984   2.177   0.479  0.4443  0.6935 -0.2274
 5036TIP3   OH236742   6.304   2.617   7.515 -0.3133 -0.2357 -0.4145
 5036TIP3    H136743   6.328   2.709   7.511 -2.6220  0.4546 -0.0632
 5036TIP3    H236744   6.340   2.586   7.598  0.4062  0.3762 -0.4921
 5037TIP3   OH236745   4.856   0.033   8.391  0.1272  0.3056  0.2068
 5037TIP3    H136746   4.885   0.116   8.428  0.5639  0.7172 -1.0092
 5037TIP3    H236747   4.850  -0.026   8.466 -1.9822  1.9039  1.3755
 5038TIP3   OH236748   0.265   6.273   1.839  0.3269 -0.1857  0.0266
 5038TIP3    H136749   0.257   6.357   1.885 -1.3232 -0.7992  0.9474
 5038TIP3    H236750   0.336   6.286   1.777  0.0245  1.9300  0.0707
 5039TIP3   OH236751   2.739   5.843   7.730 -0.0203 -0.5865 -0.4484
 5039TIP3    H136752   2.793   5.843   7.808  1.9603  2.3359 -1.6347
 5039TIP3    H236753   2.762   5.762   7.684  2.0434 -0.2781 -0.0380
 5040TIP3   OH236754   1.988   2.285   7.912  0.3392  0.5753 -0.5803
 5040TIP3    H136755   2.013   2.205   7.958  2.2218  1.6123  0.3358
 5040TIP3    H236756   2.050   2.351   7.943 -0.7972  2.2746 -1.7149
 5041TIP3   OH236757   4.563   6.814   8.373 -0.3899 -0.2279  0.5151
 5041TIP3    H136758   4.591   6.724   8.390  2.3409  0.6348  1.0424
 5041TIP3    H236759   4.642   6.859   8.344 -1.9414  1.7459 -1.0148
 5042TIP3   OH236760   6.883   4.783   0.252 -0.3452 -0.0384  0.2564
 5042TIP3    H136761   6.828   4.709   0.276 -1.5836  0.7255 -0.1667
 5042TIP3    H236762   6.971   4.745   0.242 -0.3821 -0.9435  2.7552
 5043TIP3   OH236763   4.013   0.845   1.201 -0.3276 -0.0027 -0.0103
 5043TIP3    H136764   3.985   0.769   1.150  0.0590 -1.1608  1.4364
 5043TIP3    H236765   3.987   0.824   1.291  1.2691  0.8282  0.6720
 5044TIP3   OH236766   3.191   1.734   7.875 -0.3546 -0.0066  0.5379
 5044TIP3    H136767   3.160   1.784   7.950 -1.6349 -1.0487  0.7350
 5044TIP3    H236768   3.112   1.704   7.831  0.2831  2.2065 -2.4420
 5045TIP3   OH236769   5.700   6.330   0.676 -0.0220  0.5994 -0.2671
 5045TIP3    H136770   5.691   6.417   0.716  0.2023  0.8539 -0.7572
 5045TIP3    H236771   5.612   6.307   0.648  0.0210  0.9416 -0.6912
 5046TIP3   OH236772   1.828   1.015   0.617  0.5086  0.2265  0.0065
 5046TIP3    H136773   1.863   1.056   0.538 -0.3384  0.1540 -0.4175
 5046TIP3    H236774   1.824   0.922   0.595 -0.4313  0.2909 -0.1564
 5047TIP3   OH236775   4.335   1.237   1.273 -0.1311 -0.5461 -0.1542
 5047TIP3    H136776   4.251   1.214   1.313  0.1688 -0.4160  0.5809
 5047TIP3    H236777   4.356   1.163   1.215  0.1456 -1.4835  1.0935
 5048TIP3   OH236778   1.303   5.418   0.524  0.2503 -0.0147  0.4682
 5048TIP3    H136779   1.294   5.490   0.461  0.5615 -0.3842 -0.0027
 5048TIP3    H236780   1.305   5.339   0.471 -1.3679 -0.4960  1.0461
 5049TIP3   OH236781   6.386   0.605   2.284 -0.3407 -0.4392 -0.0020
 5049TIP3    H136782   6.400   0.698   2.300 -0.9317 -0.4947  0.9459
 5049TIP3    H236783   6.473   0.565   2.289 -0.1404  0.0016  0.0020
 5050TIP3   OH236784   3.418   5.202   8.226  0.5773 -0.3348 -0.3865
 5050TIP3    H136785   3.465   5.267   8.174 -0.8732  2.0516  1.0361
 5050TIP3    H236786   3.366   5.153   8.162  1.0857  0.4717 -1.4581
 5051TIP3   OH236787   6.588   3.693   0.536 -0.3954  0.3744  0.1040
 5051TIP3    H136788   6.638   3.703   0.455 -1.7288  0.0985 -0.7832
 5051TIP3    H236789   6.631   3.621   0.582 -0.1242 -0.0225 -0.7549
 5052TIP3   OH236790   2.981   5.981   1.524 -0.1951 -0.1492  0.2060
 5052TIP3    H136791   3.055   5.921   1.533  0.0687  0.1129 -0.1892
 5052TIP3    H236792   2.905   5.923   1.514  0.0507 -0.4231 -0.1234
 5053TIP3   OH236793   1.115   6.767   2.437 -0.1511  0.1141  0.5703
 5053TIP3    H136794   1.128   6.682   2.395 -2.7538  0.3201 -0.8452
 5053TIP3    H236795   1.203   6.807   2.439  0.3765 -0.3537 -3.8401
 5054TIP3   OH236796   1.673   4.380   6.937  0.0582  0.2923 -0.0074
 5054TIP3    H136797   1.639   4.439   6.871  1.4149  1.6990  0.4930
 5054TIP3    H236798   1.715   4.437   7.001 -0.3951 -1.0854  1.5915
 5055TIP3   OH236799   3.231   3.845   2.095 -0.0714 -0.0296 -0.6846
 5055TIP3    H136800   3.253   3.871   2.185 -1.0992  1.7056 -0.8989
 5055TIP3    H236801   3.176   3.767   2.106  1.7695 -1.3009  0.0423
 5056TIP3   OH236802   5.113   1.699   0.630 -0.1421 -0.5887  0.5462
 5056TIP3    H136803   5.182   1.638   0.605  1.2342  1.1731 -0.1781
 5056TIP3    H236804   5.089   1.674   0.718  0.4669 -2.0862  0.3076
 5057TIP3   OH236805   4.139   2.307   7.806  0.8373 -0.1565 -0.0114
 5057TIP3    H136806   4.115   2.222   7.769 -1.0580 -0.0104  0.7998
 5057TIP3    H236807   4.104   2.305   7.894  0.2298  1.7011 -0.1793
 5058TIP3   OH236808   1.026   1.219   7.845  0.3710 -0.2955  0.5635
 5058TIP3    H136809   1.086   1.166   7.792  1.0123  0.6946  0.2800
 5058TIP3    H236810   1.034   1.308   7.809 -1.1481 -0.1053  0.6230
 5059TIP3   OH236811   4.902   4.777   7.960 -0.3733 -0.2941  0.1172
 5059TIP3    H136812   4.939   4.864   7.969 -0.5191 -0.2492  0.2837
 5059TIP3    H236813   4.977   4.718   7.971  0.0609 -0.1548 -1.7762
 5060TIP3   OH236814   1.667   6.532   0.663 -0.2303 -0.5266 -0.3663
 5060TIP3    H136815   1.714   6.615   0.657  0.9121 -1.0178  1.2079
 5060TIP3    H236816   1.621   6.536   0.747  0.5749 -1.8337  0.1684
 5061TIP3   OH236817   1.029   3.296   6.756  0.1375 -0.1351  0.1938
 5061TIP3    H136818   1.119   3.328   6.746  0.3635 -1.0580 -1.0107
 5061TIP3    H236819   1.031   3.208   6.718 -1.0865 -0.5119  0.9453
 5062TIP3   OH236820   1.405   3.809   0.658 -0.3581 -0.2847 -0.2245
 5062TIP3    H136821   1.431   3.726   0.618 -0.4491 -0.1530 -0.5583
 5062TIP3    H236822   1.312   3.798   0.679  0.1465 -1.1327  1.9000
 5063TIP3   OH236823   3.422   2.639   6.595 -0.0267 -0.0009 -0.1489
 5063TIP3    H136824   3.423   2.569   6.660  0.7525  1.3040  1.3055
 5063TIP3    H236825   3.503   2.626   6.546  0.6599  0.4718  0.8197
 5064TIP3   OH236826   2.258   4.941   7.594  0.4803  0.4440 -0.4725
 5064TIP3    H136827   2.249   5.036   7.590 -0.8685  0.3236 -0.7471
 5064TIP3    H236828   2.269   4.922   7.687  2.3130  0.9617 -0.5386
 5065TIP3   OH236829   5.467   3.117   2.111  0.4599 -0.3037  0.1871
 5065TIP3    H136830   5.396   3.104   2.172  0.2338 -0.5004 -0.1176
 5065TIP3    H236831   5.488   3.030   2.077  2.8516 -0.7502  2.4619
 5066TIP3   OH236832   1.440   2.970   0.508  0.2297  0.2184 -0.0260
 5066TIP3    H136833   1.345   2.972   0.515  0.0502 -0.9713 -1.5323
 5066TIP3    H236834   1.462   3.044   0.451  0.1181 -0.0804 -0.4552
 5067TIP3   OH236835   0.702   2.905   7.647 -0.0413  1.1882 -0.4373
 5067TIP3    H136836   0.762   2.966   7.691 -0.2639  1.2126 -0.1670
 5067TIP3    H236837   0.742   2.819   7.660  0.8922  1.3790 -1.8184
 5068TIP3   OH236838   3.349   4.401   6.771 -0.3364  0.1582 -0.3027
 5068TIP3    H136839   3.308   4.411   6.685 -0.8851 -1.0679 -0.1991
 5068TIP3    H236840   3.368   4.491   6.799 -2.8437  0.7836 -0.4002
 5069TIP3   OH236841   4.274   2.421   0.731  0.5784 -0.4811  0.3597
 5069TIP3    H136842   4.205   2.456   0.786  0.0810 -1.4623  0.3906
 5069TIP3    H236843   4.305   2.343   0.778 -0.0739 -1.5285 -0.8571
 5070TIP3   OH236844   6.460   6.310   0.875  0.9144 -0.0038 -0.1324
 5070TIP3    H136845   6.481   6.291   0.784  2.8782  0.8139  0.0998
 5070TIP3    H236846   6.529   6.370   0.904 -1.5070  2.4612  0.9357
 5071TIP3   OH236847   5.351   0.142   1.085 -0.2767  0.4423  0.0165
 5071TIP3    H136848   5.352   0.049   1.063 -0.9738  0.9697 -2.4692
 5071TIP3    H236849   5.403   0.147   1.165 -1.0442 -2.1918  0.7983
 5072TIP3   OH236850   5.508   2.621   8.038 -0.1161 -0.0920  0.2457
 5072TIP3    H136851   5.497   2.689   8.104 -0.1753 -0.9815  1.1981
 5072TIP3    H236852   5.439   2.637   7.974  0.5337  1.3589 -0.1261
 5073TIP3   OH236853   5.543   1.960   6.533  0.1891 -0.4480 -0.4381
 5073TIP3    H136854   5.594   2.037   6.509  1.0459 -0.1971  1.9628
 5073TIP3    H236855   5.603   1.886   6.520  1.7377 -0.0791  3.3006
 5074TIP3   OH236856   4.395   6.088   0.342  0.2839  0.2478  0.0018
 5074TIP3    H136857   4.441   6.170   0.363 -1.4134  1.7447 -1.7429
 5074TIP3    H236858   4.332   6.078   0.412 -0.2427  1.0754 -0.3314
 5075TIP3   OH236859   6.877   4.960   8.554 -0.1829  0.2467  0.4386
 5075TIP3    H136860   6.931   4.995   8.625 -0.6684  1.8334  0.0643
 5075TIP3    H236861   6.794   5.009   8.561 -0.2848  0.3306 -1.1276
 5076TIP3   OH236862   1.842   1.365   0.272  0.7309  0.4785 -0.3215
 5076TIP3    H136863   1.899   1.439   0.251  0.5999  0.4725 -0.6955
 5076TIP3    H236864   1.756   1.405   0.284  0.7062  0.4164 -0.2973
 5077TIP3   OH236865   0.791   1.769   8.063  0.3801  0.2275 -0.6063
 5077TIP3    H136866   0.861   1.834   8.063 -0.6609  1.4694  1.7200
 5077TIP3    H236867   0.823   1.699   8.120 -0.3171  0.9323  0.6994
 5078TIP3   OH236868   1.938   5.301   8.189 -0.6312 -0.2331 -0.4858
 5078TIP3    H136869   1.860   5.307   8.245 -0.5643 -0.7688 -0.3213
 5078TIP3    H236870   1.926   5.218   8.142  1.1390 -1.7600  1.5687
 5079TIP3   OH236871   3.721   5.082   7.627 -0.0317 -0.4688 -0.3261
 5079TIP3    H136872   3.777   5.152   7.592  2.1504 -1.3566  1.1306
 5079TIP3    H236873   3.707   5.106   7.718 -0.8207 -1.0205 -0.2950
 5080TIP3   OH236874   5.177   3.838   6.670 -0.2491 -0.4979 -0.5560
 5080TIP3    H136875   5.179   3.934   6.668  0.8384 -0.4655  0.4942
 5080TIP3    H236876   5.138   3.817   6.755  0.3645 -0.9733 -0.3876
 5081TIP3   OH236877   5.037   2.631   1.561  0.4800 -1.1644 -0.1409
 5081TIP3    H136878   5.060   2.646   1.653  0.9824 -0.5626 -0.3624
 5081TIP3    H236879   4.976   2.557   1.564 -0.9360 -0.0117  0.8326
 5082TIP3   OH236880   2.252   4.824   0.866 -0.0586  0.0454  0.1737
 5082TIP3    H136881   2.229   4.884   0.795  0.0046 -0.1604 -0.0221
 5082TIP3    H236882   2.321   4.769   0.830 -0.8362 -0.8411 -0.0191
 5083TIP3   OH236883   3.023   4.720   0.254  0.7876  0.4154  0.3303
 5083TIP3    H136884   3.092   4.659   0.227  1.5597  0.6781  1.6014
 5083TIP3    H236885   3.058   4.761   0.333 -1.4723 -0.6081  1.9849
 5084TIP3   OH236886   4.931   4.329   8.459  0.3500  0.1871 -0.4444
 5084TIP3    H136887   4.939   4.425   8.461 -0.1940  0.2238  0.3733
 5084TIP3    H236888   4.849   4.313   8.413 -0.4965  0.1912  1.0026
 5085TIP3   OH236889   1.961   4.089   1.628 -0.3176  0.3041 -0.4253
 5085TIP3    H136890   1.884   4.032   1.631 -0.2538  0.2319 -0.1302
 5085TIP3    H236891   2.012   4.056   1.553 -0.0797 -0.2907 -0.0076
 5086TIP3   OH236892   2.081   3.433   6.945 -0.2803 -0.7208  0.4156
 5086TIP3    H136893   2.021   3.479   7.004 -1.5839 -3.0306  1.0240
 5086TIP3    H236894   2.153   3.406   7.001 -0.9794 -1.9451  0.7722
 5087TIP3   OH236895   3.248   5.710   7.629  0.0549 -0.0403  0.2522
 5087TIP3    H136896   3.227   5.731   7.720  0.4661 -0.0009  0.3393
 5087TIP3    H236897   3.325   5.764   7.609 -0.7047  0.8108 -0.4735
 5088TIP3   OH236898   0.359   4.624   7.519 -0.2292 -0.9042  0.1429
 5088TIP3    H136899   0.355   4.717   7.543  0.0211 -0.1979 -2.3140
 5088TIP3    H236900   0.426   4.588   7.578  2.1955  1.2628 -1.0785
 5089TIP3   OH236901   0.361   5.121   1.261 -0.1086 -0.0948  0.3590
 5089TIP3    H136902   0.269   5.142   1.273 -0.4425 -1.6912  0.7806
 5089TIP3    H236903   0.408   5.188   1.311 -0.9278  1.7389 -1.1904
 5090TIP3   OH236904   3.812   6.506   1.221  0.1649  0.0851 -0.4250
 5090TIP3    H136905   3.791   6.567   1.150  0.5896  2.0600  1.0709
 5090TIP3    H236906   3.848   6.429   1.177 -2.8767 -0.2838 -2.5895
 5091TIP3   OH236907   6.745   0.501   0.704  0.2330 -0.5060 -0.4984
 5091TIP3    H136908   6.824   0.465   0.743  0.3686  0.2851 -0.0449
 5091TIP3    H236909   6.751   0.595   0.716 -0.7331 -0.4206 -0.5425
 5092TIP3   OH236910   0.700   4.661   1.246  0.5637 -0.0781 -0.3695
 5092TIP3    H136911   0.776   4.649   1.303  0.0272 -3.5636 -0.1563
 5092TIP3    H236912   0.726   4.622   1.163  0.2458  2.1606 -1.5998
 5093TIP3   OH236913   5.780   5.487   8.312 -0.0150 -0.1602  0.1613
 5093TIP3    H136914   5.704   5.510   8.365  1.3831  0.4748  2.0055
 5093TIP3    H236915   5.800   5.397   8.336  1.3628  0.5097  1.8017
 5094TIP3   OH236916   4.067   3.969   1.902 -0.1785  0.2082  0.3002
 5094TIP3    H136917   4.095   4.003   1.987 -0.4548 -2.2872  1.4689
 5094TIP3    H236918   3.972   3.979   1.902 -0.2154 -0.1337  0.4506
 5095TIP3   OH236919   5.295   4.501   7.105 -0.5174  0.2956 -0.7057
 5095TIP3    H136920   5.207   4.522   7.074 -0.4838  1.3832 -0.1190
 5095TIP3    H236921   5.296   4.406   7.111 -1.0323  0.1408 -2.4768
 5096TIP3   OH236922   5.494   6.189   7.634  0.2059 -0.0892  0.4232
 5096TIP3    H136923   5.578   6.224   7.604  1.3315 -3.0812 -0.2421
 5096TIP3    H236924   5.516   6.139   7.713 -1.1754  0.0092  0.8953
 5097TIP3   OH236925   1.407   1.746   0.800  0.0146  0.8118 -0.1929
 5097TIP3    H136926   1.352   1.725   0.724 -0.2966 -2.9189  0.8598
 5097TIP3    H236927   1.488   1.697   0.785  0.5157  1.1719  1.2280
 5098TIP3   OH236928   2.314   5.768   1.743  0.9131  0.3936 -0.1291
 5098TIP3    H136929   2.337   5.801   1.830 -0.0749  1.2047 -0.1556
 5098TIP3    H236930   2.224   5.798   1.729  0.3867 -1.2929 -0.6727
 5099TIP3   OH236931   6.153   1.085   0.018  0.1385  0.2104 -0.1470
 5099TIP3    H136932   6.062   1.057   0.005  0.2814  0.3202 -1.5620
 5099TIP3    H236933   6.205   1.009  -0.006  0.4373 -0.0816  1.3155
 5100TIP3   OH236934   5.264   4.848   1.380  0.0411  0.5415 -0.4341
 5100TIP3    H136935   5.357   4.828   1.382  0.0538  0.6108 -0.3379
 5100TIP3    H236936   5.259   4.936   1.341  0.1293  1.2130  0.9866
 5101TIP3   OH236937   5.196   1.188   8.498  0.5953  0.0236  0.0892
 5101TIP3    H136938   5.113   1.144   8.517  1.1487 -0.6401  1.0510
 5101TIP3    H236939   5.189   1.272   8.542  0.3950  0.0131  0.0805
 5102TIP3   OH236940   1.644   1.435   1.178 -0.1437 -0.3563  0.4738
 5102TIP3    H136941   1.613   1.403   1.262 -1.3356  1.4176  0.7864
 5102TIP3    H236942   1.669   1.526   1.195  3.6815 -1.1396 -0.2104
 5103TIP3   OH236943   4.602   1.410   1.693 -0.6408 -0.2470  0.2233
 5103TIP3    H136944   4.598   1.345   1.763 -1.3889 -0.2427  0.1941
 5103TIP3    H236945   4.603   1.358   1.613 -1.4343 -0.2299  0.1936
 5104TIP3   OH236946   2.971   0.964   1.119  0.6222 -0.5054 -0.2845
 5104TIP3    H136947   3.018   0.920   1.049  1.2007 -1.7731  0.8499
 5104TIP3    H236948   2.920   0.895   1.162 -1.0162  0.5265 -0.4385
 5105TIP3   OH236949   3.355   5.113   7.048 -0.0588  0.2389  0.5298
 5105TIP3    H136950   3.354   5.206   7.070  1.7021  0.4142  0.0686
 5105TIP3    H236951   3.441   5.082   7.078  0.1358 -0.7952 -0.9481
 5106TIP3   OH236952   3.804   5.266   7.451  0.4513  0.2387  0.4226
 5106TIP3    H136953   3.835   5.356   7.438  0.5311  0.0687 -0.6526
 5106TIP3    H236954   3.758   5.245   7.370  0.1229 -0.5753  0.8098
 5107TIP3   OH236955   4.078   0.808   7.643  0.0109  0.2400  0.0601
 5107TIP3    H136956   4.162   0.831   7.603 -0.4856  0.2675 -0.9987
 5107TIP3    H236957   4.098   0.794   7.736  1.0576  0.9317 -0.0500
 5108TIP3   OH236958   4.829   3.396   0.185 -0.5702 -0.0311  0.0627
 5108TIP3    H136959   4.885   3.338   0.238 -2.5298 -0.3681  1.8831
 5108TIP3    H236960   4.747   3.401   0.234 -1.3596  2.2757 -1.3563
 5109TIP3   OH236961   0.256   5.573   0.478 -0.6379  0.1452  0.1619
 5109TIP3    H136962   0.241   5.479   0.482  0.7033 -0.1296 -0.6649
 5109TIP3    H236963   0.210   5.602   0.400 -1.3159  0.2484  0.5886
 5110TIP3   OH236964   4.536   1.818   0.740 -0.2300 -0.7477 -0.3612
 5110TIP3    H136965   4.551   1.784   0.652 -0.2656 -3.7901  0.7135
 5110TIP3    H236966   4.617   1.801   0.787  0.4031  2.3141 -0.1058
 5111TIP3   OH236967   1.847   0.845   8.545 -0.4329 -0.0372 -0.4467
 5111TIP3    H136968   1.829   0.874   8.456  0.6275 -1.1356 -1.0385
 5111TIP3    H236969   1.931   0.801   8.540 -1.5481 -2.4882  0.5272
 5112TIP3   OH236970   0.801   4.665   0.337  0.3197  0.2786 -0.3771
 5112TIP3    H136971   0.752   4.615   0.402 -0.8217  1.7029 -0.1014
 5112TIP3    H236972   0.875   4.608   0.314 -0.0694 -0.8633  1.0529
 5113TIP3   OH236973   6.791   6.733   7.689 -0.2552  0.0458  0.0710
 5113TIP3    H136974   6.855   6.664   7.709 -0.6251 -0.1830  0.4863
 5113TIP3    H236975   6.735   6.694   7.621  0.3990  0.4612 -0.7172
 5114TIP3   OH236976   4.446   0.149   0.998 -0.0600  0.1433  0.0183
 5114TIP3    H136977   4.461   0.206   1.074  0.1394  0.1330 -0.0111
 5114TIP3    H236978   4.534   0.132   0.964  0.1479 -2.2058  1.4977
 5115TIP3   OH236979   5.016   5.101   1.343 -0.3514 -0.5486 -0.4261
 5115TIP3    H136980   5.095   5.087   1.291  0.2358 -0.1146  0.3423
 5115TIP3    H236981   4.945   5.070   1.286  0.3420 -0.7705 -1.1951
 5116TIP3   OH236982   4.905   1.733   8.094 -0.4040  1.2206  0.2483
 5116TIP3    H136983   4.958   1.796   8.143  0.4079 -1.1980  2.7469
 5116TIP3    H236984   4.967   1.688   8.037 -0.4647  0.9787  0.3684
 5117TIP3   OH236985   3.290   0.860   1.630 -0.0184  0.1759  0.4354
 5117TIP3    H136986   3.312   0.767   1.632 -0.7293 -0.0015  2.0926
 5117TIP3    H236987   3.257   0.876   1.542  1.8681 -0.6804 -0.4832
 5118TIP3   OH236988   0.226   4.193   0.046 -0.1185 -0.0718 -0.3185
 5118TIP3    H136989   0.265   4.119   0.001  1.1052  0.5242 -0.2604
 5118TIP3    H236990   0.166   4.231  -0.018  0.5281 -0.0939 -0.9471
 5119TIP3   OH236991   1.480   6.594   0.863  0.4124 -0.1564 -0.0871
 5119TIP3    H136992   1.524   6.670   0.825 -0.4962  1.2384  1.5262
 5119TIP3    H236993   1.388   6.618   0.864 -0.0320 -1.7374 -0.5148
 5120TIP3   OH236994   1.807   6.771   0.662 -0.4139  0.2965 -0.1050
 5120TIP3    H136995   1.746   6.843   0.674  1.3757  2.1940 -1.5233
 5120TIP3    H236996   1.842   6.784   0.573 -1.5328 -3.6048 -1.3177
 5121TIP3   OH236997   6.800   6.048   0.534  0.0874  0.3356 -0.3033
 5121TIP3    H136998   6.860   6.037   0.460  0.2592 -2.1846  0.1303
 5121TIP3    H236999   6.743   5.971   0.531  1.1025 -0.7407  3.0157
 5122TIP3   OH237000   5.334   0.597   0.923 -0.5736 -0.1191 -0.6669
 5122TIP3    H137001   5.330   0.638   1.010 -1.7300 -1.5864  0.0175
 5122TIP3    H237002   5.270   0.646   0.871  0.9094  1.4878 -1.0642
 5123TIP3   OH237003   3.895   4.231   0.220  0.1992  0.7391  0.0046
 5123TIP3    H137004   3.918   4.322   0.203  1.0014  1.0768  2.4672
 5123TIP3    H237005   3.809   4.220   0.181  0.4308  2.2933 -1.0490
 5124TIP3   OH237006   3.456   4.451   1.832 -0.5261  0.3344 -0.7230
 5124TIP3    H137007   3.520   4.499   1.884 -2.6433  1.5508  0.9347
 5124TIP3    H237008   3.447   4.367   1.878  1.4653 -0.8066 -2.2813
 5125TIP3   OH237009   3.140   0.806   6.990 -0.1211 -0.2719  0.0597
 5125TIP3    H137010   3.200   0.861   7.039  0.2673  0.0783 -0.7837
 5125TIP3    H237011   3.181   0.720   6.989  0.2635 -0.0850 -0.3285
 5126TIP3   OH237012   2.842   5.045   7.440 -0.0976 -0.1258  0.5169
 5126TIP3    H137013   2.781   5.102   7.393  0.8635 -1.1937 -2.2076
 5126TIP3    H237014   2.854   4.969   7.383  4.2273  0.2800  0.5294
 5127TIP3   OH237015   3.880   1.669   7.674 -0.9140  0.5570  0.7935
 5127TIP3    H137016   3.860   1.669   7.768  0.8009  0.1172  1.1900
 5127TIP3    H237017   3.956   1.726   7.666  0.0447 -0.7761 -0.0575
 5128TIP3   OH237018   1.087   0.790   0.329 -0.2086  0.1716  0.5829
 5128TIP3    H137019   1.083   0.878   0.293 -0.6703  0.8840  2.2930
 5128TIP3    H237020   1.013   0.744   0.289 -0.5996  0.8862  0.4764
 5129TIP3   OH237021   5.423   3.866   2.136 -0.0634 -0.0753 -0.0017
 5129TIP3    H137022   5.368   3.944   2.139 -0.9606 -0.6561 -0.5899
 5129TIP3    H237023   5.363   3.793   2.154  0.5376 -0.7163 -0.4848
 5130TIP3   OH237024   0.312   5.901   0.140  0.3120  1.3460 -0.1556
 5130TIP3    H137025   0.319   5.989   0.177  0.8545  1.7069 -1.0963
 5130TIP3    H237026   0.387   5.894   0.080  1.7811 -0.6575  1.7513
 5131TIP3   OH237027   3.187   2.676   7.502  1.0922 -0.2337  0.4743
 5131TIP3    H137028   3.227   2.697   7.586  0.9658  0.6892  0.3146
 5131TIP3    H237029   3.213   2.748   7.444  1.8210 -1.2505 -0.4960
 5132TIP3   OH237030   1.233   5.684   0.998  0.2499  0.5424  0.5115
 5132TIP3    H137031   1.187   5.715   0.920 -0.4630  1.2061  1.1782
 5132TIP3    H237032   1.180   5.716   1.071  1.4017  0.7291  1.2845
 5133TIP3   OH237033   0.445   5.090   7.633  0.0762  0.2990 -0.0721
 5133TIP3    H137034   0.429   5.087   7.539 -1.7972 -1.5017  0.2359
 5133TIP3    H237035   0.482   5.005   7.654 -3.0004 -0.8579  1.2711
 5134TIP3   OH237036   6.006   4.171   8.064 -0.2716 -0.3090 -0.2647
 5134TIP3    H137037   6.082   4.225   8.086 -0.4819  0.0454 -0.3974
 5134TIP3    H237038   6.024   4.086   8.105 -0.7263  0.3814  1.4307
 5135TIP3   OH237039   3.266   5.347   7.873 -0.3553  0.4560  0.3765
 5135TIP3    H137040   3.228   5.335   7.785 -0.4610  4.5859 -0.3309
 5135TIP3    H237041   3.221   5.424   7.908  1.3061  0.2888  3.1626
 5136TIP3   OH237042   1.127   1.462   0.164 -0.2905 -0.4837 -0.1081
 5136TIP3    H137043   1.065   1.411   0.113 -0.2692 -0.0657 -0.5548
 5136TIP3    H237044   1.197   1.400   0.185 -0.3293 -0.6704 -0.5309
 5137TIP3   OH237045   4.982   2.258   1.149 -0.0452  0.2961 -0.3648
 5137TIP3    H137046   5.065   2.232   1.110 -0.0393  0.5494 -0.5221
 5137TIP3    H237047   4.987   2.354   1.154 -0.5490  0.3506 -0.8748
 5138TIP3   OH237048   0.257   3.262   0.078 -0.2594 -0.3830 -0.2317
 5138TIP3    H137049   0.313   3.303   0.010 -1.8013  2.1173 -0.1231
 5138TIP3    H237050   0.229   3.180   0.039  0.9675 -0.2204 -1.5633
 5139TIP3   OH237051   1.762   3.438   7.435  0.5063 -0.1135  0.3067
 5139TIP3    H137052   1.770   3.348   7.466 -1.2174  0.2105  1.8398
 5139TIP3    H237053   1.805   3.491   7.502 -0.2937  0.3480  0.4685
 5140TIP3   OH237054   2.640   2.968   0.157  0.4567 -0.1189 -0.0957
 5140TIP3    H137055   2.546   2.982   0.146  0.5885  0.6873 -0.2451
 5140TIP3    H237056   2.660   3.000   0.245  0.4444 -1.1018  0.2754
 5141TIP3   OH237057   5.322   3.949   2.681  0.3109 -0.0235 -0.1578
 5141TIP3    H137058   5.306   3.858   2.707  0.0558  0.5464  1.8182
 5141TIP3    H237059   5.390   3.943   2.614  2.1892 -1.5193  1.7478
 5142TIP3   OH237060   1.912   1.114   0.246 -0.6254 -0.9071  0.4884
 5142TIP3    H137061   1.981   1.131   0.182 -1.0244  0.7696  0.4794
 5142TIP3    H237062   1.883   1.200   0.275 -1.4711 -1.6056  1.8509
 5143TIP3   OH237063   6.338   4.136   6.948 -0.6253 -0.1578 -0.7280
 5143TIP3    H137064   6.297   4.213   6.910 -0.3759  0.7713  0.7781
 5143TIP3    H237065   6.413   4.117   6.891 -0.2410  1.2026 -0.7034
 5144TIP3   OH237066   5.918   1.330   8.011  0.6339  0.1437 -0.3338
 5144TIP3    H137067   5.843   1.383   7.984  0.8952  1.6112  1.5635
 5144TIP3    H237068   5.995   1.378   7.980  0.9133  1.5678  2.3026
 5145TIP3   OH237069   6.478   2.457   1.345 -0.4247  0.2142 -0.0705
 5145TIP3    H137070   6.393   2.493   1.371 -0.1703  0.7645  0.0232
 5145TIP3    H237071   6.518   2.427   1.426 -1.7049 -2.7578 -0.4007
 5146TIP3   OH237072   5.032   4.215   2.632  0.4347  0.0708 -0.0980
 5146TIP3    H137073   4.985   4.297   2.618 -0.7129 -0.1657  1.9516
 5146TIP3    H237074   5.109   4.240   2.682  1.4697  0.1878 -1.6885
 5147TIP3   OH237075   2.904   0.830   7.445  0.1358  0.6190  0.4521
 5147TIP3    H137076   2.926   0.743   7.413  0.0295 -0.6578  3.5890
 5147TIP3    H237077   2.809   0.837   7.432 -0.1671 -0.5235  1.8543
 5148TIP3   OH237078   2.565   3.804   8.070 -0.1215 -0.5413  0.0313
 5148TIP3    H137079   2.515   3.730   8.106 -0.7805 -0.4162 -0.6211
 5148TIP3    H237080   2.563   3.791   7.975 -1.1451  0.8754 -0.1752
 5149TIP3   OH237081   0.062   0.355   0.172  0.8841  0.1213 -0.1071
 5149TIP3    H137082   0.103   0.427   0.219  2.1686  0.5166 -1.7489
 5149TIP3    H237083   0.133   0.291   0.159  0.5901  0.0503 -1.5167
 5150TIP3   OH237084   3.303   5.967   0.546 -0.1064  0.7348 -0.3760
 5150TIP3    H137085   3.224   5.915   0.530 -0.5507  0.8660  1.3045
 5150TIP3    H237086   3.361   5.943   0.473 -1.1322 -0.4482 -0.8478
 5151TIP3   OH237087   4.048   1.889   0.626  0.0634 -0.5328  0.2523
 5151TIP3    H137088   4.009   1.968   0.663  0.7469 -0.3860  0.6878
 5151TIP3    H237089   4.041   1.823   0.695  2.8116  0.1933  1.3489
 5152TIP3   OH237090   3.870   6.009   8.115  0.5930  0.0493 -0.0479
 5152TIP3    H137091   3.916   6.015   8.199 -1.0196 -0.7268  0.9340
 5152TIP3    H237092   3.940   6.000   8.050  1.8592  0.2024  1.2437
 5153TIP3   OH237093   2.215   4.648   7.206 -0.2892  0.3397  0.5411
 5153TIP3    H137094   2.152   4.669   7.138 -0.9107 -1.3894  0.5285
 5153TIP3    H237095   2.285   4.712   7.195 -0.1766 -0.1441 -2.0099
 5154TIP3   OH237096   5.369   4.915   6.970  0.6625 -0.0162  0.1771
 5154TIP3    H137097   5.295   4.889   7.025 -0.5227  1.1016 -0.8312
 5154TIP3    H237098   5.383   5.007   6.991  2.2119 -0.3621  0.8070
 5155TIP3   OH237099   2.291   4.552   1.951 -0.2754 -0.1917 -0.0011
 5155TIP3    H137100   2.387   4.555   1.949 -0.2868  0.0051 -0.8106
 5155TIP3    H237101   2.269   4.516   2.036  0.4984  0.9643  0.7090
 5156TIP3   OH237102   0.980   4.953   7.704  0.5005  0.4413  0.4904
 5156TIP3    H137103   1.005   4.891   7.772  0.4570 -0.7532 -0.5527
 5156TIP3    H237104   1.062   4.994   7.677  0.8572 -0.7796 -0.3453
 5157TIP3   OH237105   4.164   2.195   0.923  0.5379 -0.2867 -0.1283
 5157TIP3    H137106   4.071   2.172   0.928  0.4608  0.0074 -0.1754
 5157TIP3    H237107   4.208   2.112   0.908  0.1680 -0.2769 -1.4142
 5158TIP3   OH237108   1.689   3.402   6.906  0.4903 -0.0573 -0.2721
 5158TIP3    H137109   1.608   3.412   6.955  0.2696  2.2516 -1.0165
 5158TIP3    H237110   1.730   3.488   6.909  2.4355 -0.9152 -0.7723
 5159TIP3   OH237111   2.857   4.862   6.355 -0.6790  0.1086  0.3362
 5159TIP3    H137112   2.837   4.939   6.302 -1.0049 -0.5322 -0.4967
 5159TIP3    H237113   2.952   4.852   6.350 -0.6149  0.5605  0.6064
 5160TIP3   OH237114   2.774   6.859   7.438 -0.1203 -0.0320  0.2315
 5160TIP3    H137115   2.724   6.903   7.369  0.1039  1.3358  0.9179
 5160TIP3    H237116   2.713   6.794   7.474 -0.8416  0.4735 -0.0503
 5161TIP3   OH237117   2.638   0.245   1.384  0.0233 -0.6897  0.2978
 5161TIP3    H137118   2.727   0.279   1.382 -0.3936  0.3931 -0.6193
 5161TIP3    H237119   2.643   0.168   1.441  1.0432  0.7996  2.3795
 5162TIP3   OH237120   5.957   3.811   0.693  0.0698 -0.5679 -0.3950
 5162TIP3    H137121   5.890   3.742   0.697 -1.5426  0.8496 -1.4980
 5162TIP3    H237122   6.022   3.785   0.757 -1.6423 -1.9244  0.8844
 5163TIP3   OH237123   0.982   0.135   0.802 -0.0430  0.1169  0.1790
 5163TIP3    H137124   1.008   0.224   0.778 -1.1010  0.7399  1.2424
 5163TIP3    H237125   0.924   0.107   0.732  1.4670 -0.3410 -0.9358
 5164TIP3   OH237126   4.991   0.096   1.117  0.4896 -0.1085  0.3349
 5164TIP3    H137127   4.945   0.178   1.134  1.6684  0.5800  0.2797
 5164TIP3    H237128   4.984   0.083   1.022 -0.5716 -0.6274  0.4628
 5165TIP3   OH237129   6.180   6.051   1.064  0.0875 -0.3597  0.3785
 5165TIP3    H137130   6.158   5.971   1.112 -2.5550  0.1865  0.2096
 5165TIP3    H237131   6.098   6.078   1.023  1.0831  2.0414 -0.2057
 5166TIP3   OH237132   1.885   6.191   7.311  0.0197  0.4113  0.1174
 5166TIP3    H137133   1.852   6.281   7.316  1.2392  0.9715 -1.2085
 5166TIP3    H237134   1.830   6.149   7.246  0.4267  0.6663 -0.3985
 5167TIP3   OH237135   5.720   2.702   7.881 -0.1066  0.7028 -0.1989
 5167TIP3    H137136   5.643   2.678   7.932 -0.3735 -0.5892 -1.1840
 5167TIP3    H237137   5.789   2.645   7.915 -0.4557 -0.6937 -1.7187
 5168TIP3   OH237138   4.293   5.720   8.619  0.5101  0.0674  0.1623
 5168TIP3    H137139   4.358   5.688   8.682  0.2713  0.4452  0.5983
 5168TIP3    H237140   4.317   5.812   8.605 -0.2361  0.3456  0.7054
 5169TIP3   OH237141   4.905   3.337   1.227  0.0395  0.8927  0.1647
 5169TIP3    H137142   4.846   3.333   1.152 -2.2449  2.3155  1.7478
 5169TIP3    H237143   4.965   3.409   1.206 -0.3902  1.0905 -0.4259
 5170TIP3   OH237144   5.834   3.574   7.362  0.3713  0.0237 -0.1497
 5170TIP3    H137145   5.750   3.608   7.332 -0.2164 -0.4947  0.8440
 5170TIP3    H237146   5.888   3.651   7.377 -0.5162  0.4712  0.8623
 5171TIP3   OH237147   5.188   2.842   7.690  0.2413  0.5626  0.2318
 5171TIP3    H137148   5.214   2.934   7.687 -0.6132  0.8746  1.5568
 5171TIP3    H237149   5.093   2.844   7.678  0.5262 -0.4745 -3.6230
 5172TIP3   OH237150   5.121   2.045   0.786  1.0074 -0.1006  0.0365
 5172TIP3    H137151   5.086   2.050   0.697  2.2060  0.1656 -0.4315
 5172TIP3    H237152   5.062   1.984   0.831 -0.4438  0.8271 -0.5261
 5173TIP3   OH237153   5.066   2.575   2.163  0.4127  0.8004 -0.1825
 5173TIP3    H137154   5.101   2.663   2.147 -0.0427  0.9572 -0.3427
 5173TIP3    H237155   5.130   2.516   2.123  0.1573  1.1151 -1.0944
 5174TIP3   OH237156   1.240   4.785   1.481  0.2791  0.4889  0.2529
 5174TIP3    H137157   1.191   4.762   1.559  1.7030  1.9812  1.6751
 5174TIP3    H237158   1.178   4.832   1.426 -0.6693 -0.3475  0.5835
 5175TIP3   OH237159   6.665   0.467   0.158 -0.6541 -0.1357 -0.2211
 5175TIP3    H137160   6.737   0.407   0.137 -0.4264  0.0642 -0.0225
 5175TIP3    H237161   6.672   0.480   0.253  0.4845  1.6925 -0.5165
 5176TIP3   OH237162   4.990   6.197   0.720 -0.4474  0.1096 -0.5408
 5176TIP3    H137163   5.038   6.180   0.801  0.6594  0.5243 -1.1016
 5176TIP3    H237164   4.935   6.273   0.741  1.2893  1.4909 -0.7263
 5177TIP3   OH237165   1.642   5.939   7.216 -0.0738 -0.3377 -0.1354
 5177TIP3    H137166   1.661   5.892   7.135  1.3708  0.0251 -0.0244
 5177TIP3    H237167   1.575   5.885   7.260  0.1697 -1.2786 -0.8940
 5178TIP3   OH237168   3.433   2.061   6.257  0.2782  0.4687 -0.6949
 5178TIP3    H137169   3.412   1.981   6.209  2.2963 -0.1361 -0.6613
 5178TIP3    H237170   3.384   2.053   6.338  1.6827 -1.6246  0.0651
 5179TIP3   OH237171   6.622   3.341   8.239  0.1755 -0.1155  0.0034
 5179TIP3    H137172   6.533   3.309   8.226  0.5154 -0.4962 -1.6118
 5179TIP3    H237173   6.645   3.312   8.327 -0.6044 -1.7377 -0.2902
 5180TIP3   OH237174   1.909   1.181   8.291  0.2024 -0.5117  0.9623
 5180TIP3    H137175   1.850   1.255   8.304 -1.7204 -1.8264  0.1632
 5180TIP3    H237176   1.957   1.174   8.374 -1.6808 -0.1625  2.1428
 5181TIP3   OH237177   3.564   2.148   6.789 -0.0248  0.1287  0.3341
 5181TIP3    H137178   3.483   2.097   6.793 -0.4398  0.7137 -0.3913
 5181TIP3    H237179   3.592   2.143   6.698  0.4262  0.4394  0.4494
 5182TIP3   OH237180   0.567   0.454   1.110 -0.5489 -0.1610 -0.5736
 5182TIP3    H137181   0.568   0.392   1.182  0.4501 -0.3159 -0.7021
 5182TIP3    H237182   0.578   0.539   1.152  0.8734 -0.3203 -0.5820
 5183TIP3   OH237183   4.846   1.599   1.998 -0.3493  0.5300 -0.6225
 5183TIP3    H137184   4.844   1.507   1.971  1.5646  0.4630 -0.6380
 5183TIP3    H237185   4.833   1.596   2.093 -0.3901  0.2600 -0.6368
 5184TIP3   OH237186   0.758   2.142   0.257  0.3477  0.1967  0.4007
 5184TIP3    H137187   0.842   2.117   0.295 -0.8207 -0.8304  2.4532
 5184TIP3    H237188   0.737   2.227   0.295 -0.1797 -0.2027  1.0341
 5185TIP3   OH237189   2.584   0.314   8.023  0.3568  0.1498 -0.7177
 5185TIP3    H137190   2.501   0.362   8.017  0.2378 -0.1720 -1.9440
 5185TIP3    H237191   2.606   0.316   8.116 -0.5601  1.0279 -0.5014
 5186TIP3   OH237192   6.708   3.700   1.561  0.1088 -0.1031  0.0920
 5186TIP3    H137193   6.713   3.622   1.617 -1.4506  0.4836  1.1078
 5186TIP3    H237194   6.696   3.665   1.473 -2.2464 -1.0736  0.7123
 5187TIP3   OH237195   5.981   1.093   1.210  0.2548 -0.1324 -1.1378
 5187TIP3    H137196   6.034   1.022   1.246 -0.9280 -1.3028 -1.6039
 5187TIP3    H237197   5.898   1.087   1.257 -0.1597  0.3858 -1.7822
 5188TIP3   OH237198   1.627   4.511   1.510 -0.3472 -0.2436 -0.1328
 5188TIP3    H137199   1.609   4.424   1.477 -3.5660  0.0644  0.5234
 5188TIP3    H237200   1.592   4.570   1.444  0.1406  0.5330  0.2784
 5189TIP3   OH237201   2.082   1.750   8.515 -0.3585  0.0102 -0.0345
 5189TIP3    H137202   2.162   1.769   8.465  1.2365  0.2673  2.4600
 5189TIP3    H237203   2.056   1.834   8.551  0.2980 -0.5733  1.9561
 5190TIP3   OH237204   4.941   2.179   0.599  0.2934  0.4761  0.2294
 5190TIP3    H137205   4.865   2.230   0.569 -0.9186 -1.2067  0.3289
 5190TIP3    H237206   4.992   2.241   0.651 -0.9043  1.6990  0.0141
 5191TIP3   OH237207   3.147   6.287   8.451  0.0391 -0.0654 -0.0821
 5191TIP3    H137208   3.074   6.348   8.438  0.4320 -0.0636 -3.0474
 5191TIP3    H237209   3.165   6.291   8.544 -1.8412  2.1433  0.2939
 5192TIP3   OH237210   5.222   2.573   8.425 -0.2582  0.1387  0.7163
 5192TIP3    H137211   5.236   2.661   8.459  0.4418 -0.2571  1.4932
 5192TIP3    H237212   5.141   2.579   8.375  0.6356  1.6048 -0.6275
 5193TIP3   OH237213   4.028   2.783   7.504 -0.0468  0.0241  0.0837
 5193TIP3    H137214   3.979   2.780   7.586 -0.4356  1.7319 -0.0324
 5193TIP3    H237215   4.116   2.810   7.530 -0.0897  0.2641 -0.0104
 5194TIP3   OH237216   3.582   0.670   1.878  0.1258  1.0655 -0.0024
 5194TIP3    H137217   3.603   0.619   1.956 -0.6990  0.5227 -0.1193
 5194TIP3    H237218   3.546   0.606   1.817 -0.6736  1.7310 -0.2517
 5195TIP3   OH237219   2.379   4.662   8.346  0.4173  0.1181 -0.0292
 5195TIP3    H137220   2.467   4.627   8.336  0.9179  1.0995  0.8209
 5195TIP3    H237221   2.363   4.663   8.441 -0.9306 -1.0431 -0.2035
 5196TIP3   OH237222   0.219   3.889   7.779 -0.6869  0.8859 -0.0616
 5196TIP3    H137223   0.239   3.846   7.862  2.9291  0.2726 -1.0685
 5196TIP3    H237224   0.155   3.956   7.801  0.5255  1.1145  3.3359
 5197TIP3   OH237225   5.347   0.522   7.251  0.0588  0.1788  0.3493
 5197TIP3    H137226   5.320   0.602   7.206 -1.2368 -0.7567 -0.5868
 5197TIP3    H237227   5.270   0.494   7.300  0.5203 -0.4730  0.7208
 5198TIP3   OH237228   1.208   6.021   1.422  0.6919  0.4077 -0.5454
 5198TIP3    H137229   1.142   6.090   1.417  0.7044  0.3545 -1.7143
 5198TIP3    H237230   1.284   6.063   1.461  0.0736  0.5450  0.5434
 5199TIP3   OH237231   5.465   0.666   7.610 -0.6462 -0.1826 -0.1287
 5199TIP3    H137232   5.515   0.711   7.678 -0.9988  1.5824 -0.9664
 5199TIP3    H237233   5.520   0.671   7.532 -0.0188 -2.6443  0.0893
 5200TIP3   OH237234   3.651   6.848   8.569 -0.0207 -0.4108 -0.8130
 5200TIP3    H137235   3.615   6.786   8.632 -0.3470  0.7972  0.2195
 5200TIP3    H237236   3.740   6.816   8.552  0.9609  0.4986  2.0745
 5201TIP3   OH237237   3.221   1.537   0.104 -0.4625  0.4429 -0.6710
 5201TIP3    H137238   3.131   1.564   0.089 -0.3447  0.6782 -0.9563
 5201TIP3    H237239   3.241   1.478   0.031 -1.2027 -1.6403  0.7176
 5202TIP3   OH237240   3.045   3.528   1.266  0.4436 -0.3245  0.1276
 5202TIP3    H137241   2.973   3.516   1.328 -1.4155  1.1273 -1.6182
 5202TIP3    H237242   3.088   3.443   1.263 -0.4999 -0.9399  2.0166
 5203TIP3   OH237243   0.200   1.601   8.238 -0.1593  0.4045  0.5042
 5203TIP3    H137244   0.280   1.653   8.230  1.2706 -1.7510 -0.0989
 5203TIP3    H237245   0.152   1.618   8.157  0.8758 -0.0913 -0.2359
 5204TIP3   OH237246   3.870   0.149   1.202 -0.5843  0.0830 -0.0683
 5204TIP3    H137247   3.954   0.117   1.169 -0.0097  0.7494  0.7007
 5204TIP3    H237248   3.819   0.169   1.124  0.6294  1.3606 -0.5771
 5205TIP3   OH237249   3.771   2.793   1.165  0.8386  0.1003 -0.4801
 5205TIP3    H137250   3.861   2.796   1.199  0.4212  0.6884  0.6285
 5205TIP3    H237251   3.734   2.713   1.203  0.7915  0.0386 -0.6580
 5206TIP3   OH237252   1.750   1.060   1.267 -0.0419 -0.0767 -0.3878
 5206TIP3    H137253   1.668   1.085   1.225 -0.7892 -1.1819  0.3464
 5206TIP3    H237254   1.811   1.131   1.245 -0.8458  0.1796 -1.9308
 5207TIP3   OH237255   6.617   1.061   1.129 -0.0748 -0.3913 -0.4063
 5207TIP3    H137256   6.531   1.096   1.108 -0.1339 -0.0070  0.4344
 5207TIP3    H237257   6.601   0.970   1.154 -0.4474  0.0464  1.0710
 5208TIP3   OH237258   4.216   3.923   7.675 -0.7972 -0.2099  0.4187
 5208TIP3    H137259   4.287   3.924   7.612  0.3048  0.0641  1.6222
 5208TIP3    H237260   4.150   3.982   7.639  0.7046  1.5950  0.5184
 5209TIP3   OH237261   5.831   5.160   8.125  0.2676 -0.2049 -0.2945
 5209TIP3    H137262   5.771   5.216   8.175 -1.4109 -1.2622 -1.0243
 5209TIP3    H237263   5.909   5.153   8.180 -0.5694  0.5936  1.0588
 5210TIP3   OH237264   1.549   1.719   7.297 -0.3149  0.0342 -0.0697
 5210TIP3    H137265   1.588   1.782   7.236 -0.7540 -0.7366 -1.1850
 5210TIP3    H237266   1.468   1.761   7.327  0.7862  1.1922  1.4427
 5211TIP3   OH237267   2.082   1.191   8.077  0.5123  0.2177 -0.1459
 5211TIP3    H137268   2.022   1.202   8.002 -0.2151 -2.1290  0.0186
 5211TIP3    H237269   2.024   1.192   8.153  0.9676  0.1599  0.1994
 5212TIP3   OH237270   3.383   3.969   7.362  1.3635 -0.1853  0.2690
 5212TIP3    H137271   3.308   3.909   7.363 -1.5289  2.9739 -1.8288
 5212TIP3    H237272   3.432   3.946   7.284 -0.2992  0.6512 -1.0891
 5213TIP3   OH237273   6.206   4.897   0.540  0.0673  0.0319  0.3344
 5213TIP3    H137274   6.224   4.888   0.634  1.1661 -1.6771  0.0015
 5213TIP3    H237275   6.128   4.843   0.525 -0.5094  0.8374  0.3525
 5214TIP3   OH237276   6.277   3.230   0.885  0.0822 -0.0806  0.0824
 5214TIP3    H137277   6.195   3.248   0.931  0.6604 -0.2648  1.2187
 5214TIP3    H237278   6.267   3.142   0.850 -0.3292  0.0319 -0.0901
 5215TIP3   OH237279   6.391   1.327   0.598  0.3601 -0.3035 -0.0369
 5215TIP3    H137280   6.325   1.279   0.648  0.1885  0.3061  0.3384
 5215TIP3    H237281   6.471   1.275   0.607  0.8007  0.6402  2.3909
 5216TIP3   OH237282   5.473   4.938   8.411 -0.8175 -0.2582 -0.2932
 5216TIP3    H137283   5.500   4.890   8.333 -0.2355  1.7444 -1.4064
 5216TIP3    H237284   5.554   4.973   8.448 -1.2534  0.3066  0.1668
 5217TIP3   OH237285   1.198   6.474   8.636  0.2255 -0.1572 -0.1412
 5217TIP3    H137286   1.167   6.392   8.598 -1.4982 -0.3847  1.6174
 5217TIP3    H237287   1.121   6.512   8.679  1.4759  1.3107  0.9203
 5218TIP3   OH237288   5.346   1.946   6.912 -0.1331 -0.3335  0.0445
 5218TIP3    H137289   5.327   1.852   6.919  0.1768 -0.3246  1.3813
 5218TIP3    H237290   5.330   1.967   6.821 -0.3005 -1.6754 -0.2628
 5219TIP3   OH237291   5.984   3.696   1.465  0.0844  0.5565 -0.2952
 5219TIP3    H137292   6.066   3.648   1.478  1.1341  1.8239 -1.8524
 5219TIP3    H237293   5.932   3.640   1.408 -0.5489 -0.6488  1.3893
 5220TIP3   OH237294   2.489   2.009   1.332  0.0162  0.6295  0.1129
 5220TIP3    H137295   2.526   1.999   1.244 -2.1994 -1.9461 -0.6902
 5220TIP3    H237296   2.448   2.095   1.331  0.5327  0.8938 -1.1760
 5221TIP3   OH237297   3.468   4.251   6.956  0.4694  0.2817  0.0372
 5221TIP3    H137298   3.406   4.275   6.887 -0.3406 -3.9910 -0.9984
 5221TIP3    H237299   3.554   4.270   6.918 -0.0399  0.8777 -0.8591
 5222TIP3   OH237300   3.562   3.383   7.460  0.6272 -0.1105  0.3256
 5222TIP3    H137301   3.616   3.438   7.516  0.4383 -0.2713  0.6657
 5222TIP3    H237302   3.558   3.430   7.377 -0.2380  0.8244  0.8691
 5223TIP3   OH237303   1.145   0.700   6.620 -0.1174 -0.8158 -0.4705
 5223TIP3    H137304   1.176   0.619   6.580  1.2579 -1.4525  1.7266
 5223TIP3    H237305   1.168   0.768   6.556 -0.6956 -2.0259 -2.0458
 5224TIP3   OH237306   5.297   5.446   0.811 -0.3660 -0.6469 -0.4531
 5224TIP3    H137307   5.329   5.390   0.881  0.1379  1.5003  1.1460
 5224TIP3    H237308   5.376   5.489   0.777 -0.9554  1.1016  0.2472
 5225TIP3   OH237309   3.949   2.334   7.217 -0.6233 -0.7297 -0.2787
 5225TIP3    H137310   3.943   2.358   7.310  1.9708  2.3275 -0.7468
 5225TIP3    H237311   3.903   2.403   7.171  2.1307  0.5360 -1.3968
 5226TIP3   OH237312   3.144   3.230   0.774  0.9728 -0.4315  0.0427
 5226TIP3    H137313   3.216   3.291   0.787  0.0217  0.5374  0.8984
 5226TIP3    H237314   3.079   3.254   0.839 -1.0180  0.0434 -1.9785
 5227TIP3   OH237315   0.739   2.612   8.562 -0.4352 -0.1237  0.1922
 5227TIP3    H137316   0.799   2.594   8.490 -0.3111  1.5809 -0.1509
 5227TIP3    H237317   0.674   2.672   8.525  0.5077  2.0474  1.8424
 5228TIP3   OH237318   3.495   6.236   1.084  0.0670 -0.4611  0.3490
 5228TIP3    H137319   3.456   6.270   1.165 -2.8709 -0.2429 -1.0219
 5228TIP3    H237320   3.447   6.154   1.068 -1.1108  0.6386 -2.2951
 5229TIP3   OH237321   2.056   6.466   8.127 -0.2237  0.2987 -0.2224
 5229TIP3    H137322   2.141   6.430   8.103 -0.5599  0.6716 -2.1409
 5229TIP3    H237323   2.076   6.532   8.194  0.5262 -2.3537  2.4031
 5230TIP3   OH237324   6.419   5.099   1.195  0.1516 -0.3699  0.4921
 5230TIP3    H137325   6.458   5.177   1.156 -0.3679  0.0324  0.7685
 5230TIP3    H237326   6.480   5.073   1.263  1.1645 -1.1877 -0.6954
 5231TIP3   OH237327   2.861   2.073   0.359  0.1818 -0.6386 -0.0400
 5231TIP3    H137328   2.778   2.114   0.336 -0.6000 -2.3247 -0.3679
 5231TIP3    H237329   2.843   1.979   0.356  2.1559 -1.0483 -0.3200
 5232TIP3   OH237330   4.738   0.221   0.072 -0.1214 -0.3613 -0.3108
 5232TIP3    H137331   4.748   0.159   0.145  0.7203  2.3500  2.0571
 5232TIP3    H237332   4.824   0.222   0.029  0.3412  0.2585  0.6065
 5233TIP3   OH237333   2.924   4.689   8.552 -0.2390  0.0513  1.1198
 5233TIP3    H137334   2.838   4.732   8.552 -0.4432 -0.3364  0.5014
 5233TIP3    H237335   2.985   4.756   8.522 -0.4981  0.0348  0.5330
 5234TIP3   OH237336   0.966   1.639   8.259  0.1901 -0.2894 -0.3236
 5234TIP3    H137337   0.938   1.576   8.325 -0.1042 -0.5170 -0.6594
 5234TIP3    H237338   1.061   1.635   8.261  0.2448  0.7555  1.0924
 5235TIP3   OH237339   2.094   3.474   7.812 -0.3413 -0.6375 -0.1717
 5235TIP3    H137340   2.094   3.395   7.759  1.7030 -0.2976 -0.7631
 5235TIP3    H237341   2.153   3.455   7.885  1.7981  0.8980 -1.3701
 5236TIP3   OH237342   2.709   3.334   1.483 -0.4561  0.0592  0.2154
 5236TIP3    H137343   2.646   3.371   1.421 -1.0276 -0.7223  0.3052
 5236TIP3    H237344   2.770   3.405   1.501  0.6872 -0.1564 -2.4694
 5237TIP3   OH237345   2.400   0.697   6.047  0.0538  0.2973 -0.0330
 5237TIP3    H137346   2.374   0.618   6.094  2.1268  0.1869  1.0095
 5237TIP3    H237347   2.369   0.769   6.102 -1.5677  0.2628 -0.8353
 5238TIP3   OH237348   5.150   4.672   8.027  0.5180  0.3713 -0.4556
 5238TIP3    H137349   5.168   4.634   8.112 -0.8554 -0.4908 -0.5225
 5238TIP3    H237350   5.218   4.739   8.015  3.6937 -2.6779 -0.8047
 5239TIP3   OH237351   1.722   6.864   0.937  0.1635 -0.1759 -0.0181
 5239TIP3    H137352   1.667   6.884   0.862  0.9597  0.7754 -0.3681
 5239TIP3    H237353   1.665   6.878   1.013 -0.0622  0.8956 -0.3638
 5240TIP3   OH237354   2.057   1.816   6.460 -0.7958 -0.2703  0.8041
 5240TIP3    H137355   2.107   1.740   6.490  0.0456 -0.1455 -0.1926
 5240TIP3    H237356   2.017   1.852   6.539 -1.0237 -1.6060  1.3286
 5241TIP3   OH237357   4.530   5.338   0.482 -0.2199 -0.0388  0.2933
 5241TIP3    H137358   4.525   5.431   0.462 -1.8382 -0.2900 -0.6182
 5241TIP3    H237359   4.618   5.313   0.457 -0.5119  0.7690 -1.6935
 5242TIP3   OH237360   4.763   1.120   0.048 -0.0550 -0.2595 -0.4204
 5242TIP3    H137361   4.673   1.153   0.048  0.0646  0.0752 -1.1976
 5242TIP3    H237362   4.778   1.092   0.138 -0.9927 -0.4680 -0.3198
 5243TIP3   OH237363   6.489   0.752   0.729 -0.1405  0.1347 -0.1002
 5243TIP3    H137364   6.475   0.735   0.636 -0.3478 -0.9800  0.1190
 5243TIP3    H237365   6.583   0.746   0.742  0.0832  2.0174 -0.5332
 5244TIP3   OH237366   1.955   0.431   8.565  0.1707 -0.3414 -0.3062
 5244TIP3    H137367   1.936   0.472   8.480  0.8015  1.0025  0.1655
 5244TIP3    H237368   1.920   0.492   8.630  0.8642 -0.6949  0.4244
 5245TIP3   OH237369   2.540   4.672   6.687 -0.1306 -0.5393  0.1600
 5245TIP3    H137370   2.544   4.576   6.694  2.4121 -0.4890  0.1740
 5245TIP3    H237371   2.569   4.691   6.598 -1.2754  0.2191 -0.0717
 5246TIP3   OH237372   1.607   6.110   1.100 -0.2337 -0.3127  0.2578
 5246TIP3    H137373   1.672   6.114   1.170 -1.5453 -0.1692  1.5260
 5246TIP3    H237374   1.546   6.042   1.128 -2.2617  1.5524  0.6221
 5247TIP3   OH237375   1.616   0.302   7.152  0.8508  0.4469  0.2578
 5247TIP3    H137376   1.607   0.382   7.100 -2.1863  0.6834  0.9706
 5247TIP3    H237377   1.610   0.332   7.243 -1.8952 -0.6356  0.5183
 5248TIP3   OH237378   6.494   5.713   1.389 -0.2777  0.3053 -0.0077
 5248TIP3    H137379   6.567   5.704   1.327 -1.3429  1.6748 -1.5640
 5248TIP3    H237380   6.430   5.648   1.359  0.0667 -0.5282  1.0267
 5249TIP3   OH237381   0.793   5.427   7.618 -0.3271  0.2605  0.5080
 5249TIP3    H137382   0.804   5.472   7.534  1.6590  0.9014  1.0398
 5249TIP3    H237383   0.849   5.349   7.610 -2.1639 -1.1044  0.3343
 5250TIP3   OH237384   0.342   4.274   1.329  0.4799 -0.5741 -0.3486
 5250TIP3    H137385   0.344   4.328   1.249 -0.9467 -0.8277 -0.5876
 5250TIP3    H237386   0.413   4.309   1.383  0.5784  0.5228 -1.1494
 5251TIP3   OH237387   0.162   3.416   2.661  0.0922 -0.5389 -0.6205
 5251TIP3    H137388   0.129   3.327   2.675 -0.9851  0.1079  1.2915
 5251TIP3    H237389   0.093   3.460   2.612  0.0072 -0.3811 -0.3623
 5252TIP3   OH237390   4.196   2.772   0.699 -0.0307  0.4627 -0.3137
 5252TIP3    H137391   4.158   2.701   0.648  0.8317 -0.1740 -0.0954
 5252TIP3    H237392   4.164   2.757   0.788  0.8610 -0.1892 -0.0907
 5253TIP3   OH237393   4.931   1.652   6.938 -0.4044  0.4342 -0.8490
 5253TIP3    H137394   4.916   1.734   6.987 -0.0791  0.0612 -0.1087
 5253TIP3    H237395   4.946   1.681   6.848  4.5679  1.7488  0.0688
 5254TIP3   OH237396   4.388   0.725   7.537 -0.1898  0.1974 -0.0526
 5254TIP3    H137397   4.420   0.672   7.610  2.4481  1.9164  0.2210
 5254TIP3    H237398   4.451   0.710   7.467 -2.3538 -0.9700 -1.8809
 5255TIP3   OH237399   3.159   2.068   2.125 -0.3046  0.5082 -0.5887
 5255TIP3    H137400   3.069   2.078   2.094 -0.2592 -2.4053 -2.0633
 5255TIP3    H237401   3.213   2.084   2.047  0.1230 -1.9416 -0.8828
 5256TIP3   OH237402   6.126   2.083   6.482 -0.1037 -0.0573 -0.2372
 5256TIP3    H137403   6.076   2.042   6.553 -0.3938 -1.5617 -1.2730
 5256TIP3    H237404   6.205   2.030   6.475 -0.3076 -0.2301 -1.3699
 5257TIP3   OH237405   2.598   4.993   2.018  0.2403 -0.1088  0.3562
 5257TIP3    H137406   2.674   4.953   1.975  0.0124  1.0282 -1.1922
 5257TIP3    H237407   2.631   5.076   2.052 -0.5994  1.1987 -1.7909
 5258TIP3   OH237408   3.450   2.302   6.389  0.0088 -0.1026 -0.1333
 5258TIP3    H137409   3.422   2.231   6.330  1.9323 -0.9830 -0.0471
 5258TIP3    H237410   3.475   2.257   6.469 -0.9234  0.9332  0.7774
 5259TIP3   OH237411   1.144   3.722   6.749  0.1216 -0.0439 -0.3789
 5259TIP3    H137412   1.134   3.649   6.687 -0.0620 -0.2611 -0.0974
 5259TIP3    H237413   1.135   3.800   6.695 -0.6536 -0.2317 -0.5441
 5260TIP3   OH237414   4.986   0.241   0.631  0.6181  0.0774  0.4929
 5260TIP3    H137415   5.003   0.213   0.541  0.7124 -0.5941  0.7089
 5260TIP3    H237416   5.052   0.308   0.648  0.2349  0.6225 -0.1255
 5261TIP3   OH237417   2.726   1.613   0.148  0.2907  0.1034  0.3775
 5261TIP3    H137418   2.650   1.556   0.161  0.1760  0.0769 -0.3735
 5261TIP3    H237419   2.755   1.595   0.059  1.3749 -0.1150  0.7551
 5262TIP3   OH237420   5.739   2.648   1.673 -0.8493  0.2378 -0.5904
 5262TIP3    H137421   5.808   2.639   1.739 -2.9925 -0.9066  1.6170
 5262TIP3    H237422   5.741   2.741   1.650  1.3274  0.2659 -0.5488
 5263TIP3   OH237423   1.517   4.759   7.734  0.1737  0.0791  0.2540
 5263TIP3    H137424   1.493   4.667   7.730  2.3790 -0.5641  0.5990
 5263TIP3    H237425   1.613   4.759   7.739  0.2988  2.4084 -0.6291
 5264TIP3   OH237426   6.710   1.376   8.344  0.2008  1.0942 -0.1588
 5264TIP3    H137427   6.679   1.436   8.412 -2.5049  1.4623 -1.5690
 5264TIP3    H237428   6.650   1.301   8.349  2.6449 -0.9561  0.6389
 5265TIP3   OH237429   1.115   4.884   2.065 -0.0641  0.7216 -0.4796
 5265TIP3    H137430   1.147   4.967   2.029  2.0964  0.2556  0.1909
 5265TIP3    H237431   1.074   4.908   2.148  0.3582  1.1539 -0.3896
 5266TIP3   OH237432   0.956   0.468   1.957 -0.1366 -0.6730  0.0061
 5266TIP3    H137433   1.019   0.515   2.012  0.1459 -1.0674  0.0225
 5266TIP3    H237434   0.871   0.485   1.997  0.0679 -0.9596  0.5636
 5267TIP3   OH237435   1.908   0.143   7.837  0.1344  0.6751 -0.3436
 5267TIP3    H137436   1.822   0.174   7.809 -0.0434 -0.4064 -1.0638
 5267TIP3    H237437   1.891   0.091   7.916  0.1153  0.4022 -0.5268
 5268TIP3   OH237438   6.898   0.561   7.166  0.2879 -0.1119 -0.4184
 5268TIP3    H137439   6.857   0.596   7.245 -1.8759 -1.8954 -0.6806
 5268TIP3    H237440   6.855   0.606   7.094 -1.0779 -1.7780 -0.6879
 5269TIP3   OH237441   6.563   3.798   7.477  0.0271 -0.0058  0.4000
 5269TIP3    H137442   6.513   3.863   7.426 -0.9467 -0.3071  0.9616
 5269TIP3    H237443   6.574   3.725   7.417  0.4313  0.3459  0.0337
 5270TIP3   OH237444   1.924   1.402   7.884 -0.3808  0.1335  0.2636
 5270TIP3    H137445   1.877   1.444   7.956  0.3565  1.1695  0.1693
 5270TIP3    H237446   1.856   1.381   7.820 -0.9957 -0.4528  1.0784
 5271TIP3   OH237447   6.479   1.466   7.605 -0.0825 -0.2625 -0.0103
 5271TIP3    H137448   6.547   1.502   7.661 -2.0923  4.3595 -0.1319
 5271TIP3    H237449   6.520   1.462   7.518  0.7085  0.2724  0.3251
 5272TIP3   OH237450   3.342   0.690   7.911 -0.0175 -0.5646  0.0147
 5272TIP3    H137451   3.357   0.751   7.983 -3.5437  1.5076 -0.7660
 5272TIP3    H237452   3.346   0.603   7.952 -1.9786  0.5198  2.8438
 5273TIP3   OH237453   5.953   0.846   8.608  0.7114 -0.2855 -0.2653
 5273TIP3    H137454   6.048   0.848   8.592  1.0495  2.9249  1.3142
 5273TIP3    H237455   5.945   0.830   8.702 -0.2403  0.5927 -0.1785
 5274TIP3   OH237456   4.210   6.421   0.042  0.3517  0.5846  0.2544
 5274TIP3    H137457   4.286   6.409  -0.015 -1.0609 -0.2286 -1.5575
 5274TIP3    H237458   4.154   6.482  -0.005 -1.3065 -0.8628  0.2369
 5275TIP3   OH237459   5.970   0.070   0.613 -0.0071 -1.0968 -0.3179
 5275TIP3    H137460   5.994   0.141   0.554 -0.6758  0.1228  0.8192
 5275TIP3    H237461   6.054   0.036   0.645  0.4416  1.6904  1.9480
 5276TIP3   OH237462   1.469   2.643   1.534 -0.4124  0.1176 -0.2063
 5276TIP3    H137463   1.462   2.657   1.629  0.5439 -0.6193 -0.0110
 5276TIP3    H237464   1.450   2.550   1.522  2.6123 -0.5953 -0.3103
 5277TIP3   OH237465   3.786   2.069   8.086 -0.0005 -0.1653  0.8150
 5277TIP3    H137466   3.730   2.093   8.159 -1.3402  0.7296 -0.4475
 5277TIP3    H237467   3.738   1.999   8.041 -1.0067  1.6611 -1.1813
 5278TIP3   OH237468   5.722   3.336   7.622 -0.5619  0.7241  0.0379
 5278TIP3    H137469   5.627   3.350   7.626 -0.5952  0.2334  2.1286
 5278TIP3    H237470   5.759   3.423   7.609 -1.3011  0.7790 -2.1233
 5279TIP3   OH237471   6.084   5.067   7.562  0.8791 -0.0286  0.3538
 5279TIP3    H137472   6.159   5.111   7.522  0.4885 -0.7816 -1.2695
 5279TIP3    H237473   6.037   5.027   7.489  1.0658 -2.9165  1.6624
 5280TIP3   OH237474   3.333   5.089   8.461 -0.4591  0.2619 -0.8094
 5280TIP3    H137475   3.355   5.145   8.387 -1.0079  1.9180  0.2350
 5280TIP3    H237476   3.240   5.104   8.476 -0.5506 -0.7062 -0.2961
 5281TIP3   OH237477   1.339   1.518   1.381 -0.3562  0.0058  0.2041
 5281TIP3    H137478   1.300   1.431   1.390 -1.3018  0.4636  0.6555
 5281TIP3    H237479   1.344   1.533   1.287  0.3415 -0.7602  0.1063
 5282TIP3   OH237480   3.736   2.157   7.785 -0.7186  0.1986  0.0962
 5282TIP3    H137481   3.826   2.142   7.755 -0.3709  0.3193  1.0247
 5282TIP3    H237482   3.706   2.071   7.814  0.0223  0.5625  2.1358
 5283TIP3   OH237483   5.519   2.530   1.589  0.0355  0.3401 -0.4007
 5283TIP3    H137484   5.524   2.580   1.507 -1.3403  2.2459  0.6025
 5283TIP3    H237485   5.576   2.578   1.649 -1.6978  1.0964  0.7307
 5284TIP3   OH237486   2.790   6.168   1.871 -0.0916  0.0624  0.0244
 5284TIP3    H137487   2.818   6.180   1.961 -2.0265  0.9010  0.5575
 5284TIP3    H237488   2.713   6.224   1.862 -0.3576 -0.5455 -1.9445
 5285TIP3   OH237489   5.836   3.772   2.648  0.3228 -0.0932  0.2142
 5285TIP3    H137490   5.925   3.797   2.674  0.5456 -0.0565 -0.5572
 5285TIP3    H237491   5.821   3.819   2.567 -1.0539  1.2377  1.1790
 5286TIP3   OH237492   5.300   1.595   6.848  0.0729 -0.5680  0.6193
 5286TIP3    H137493   5.381   1.644   6.864 -0.6182  0.5854  0.7548
 5286TIP3    H237494   5.276   1.618   6.758 -1.3205  1.0393  1.3221
 5287TIP3   OH237495   6.535   4.079   1.549 -0.4641 -0.1241  0.3122
 5287TIP3    H137496   6.526   4.074   1.454  0.0663 -0.5111  0.2768
 5287TIP3    H237497   6.623   4.045   1.567  0.0573  1.4073  0.8220
 5288TIP3   OH237498   4.560   2.679   0.361  0.1534 -0.2748 -0.0104
 5288TIP3    H137499   4.470   2.696   0.333 -0.0042  0.2412  0.7840
 5288TIP3    H237500   4.564   2.713   0.450  1.1231 -0.3504 -0.0190
 5289TIP3   OH237501   5.831   3.070   0.298 -0.1191  0.0680 -0.1649
 5289TIP3    H137502   5.759   3.042   0.354 -0.1441  0.4774  0.0106
 5289TIP3    H237503   5.790   3.123   0.230  0.0708  0.6866  0.2019
 5290TIP3   OH237504   3.940   1.971   7.244 -0.2443  0.1840 -0.2453
 5290TIP3    H137505   4.008   2.032   7.212  1.7191 -2.2584 -1.0162
 5290TIP3    H237506   3.928   1.995   7.336  1.6789  0.7120 -0.0813
 5291TIP3   OH237507   6.859   3.743   2.281 -0.1353 -0.0063 -0.9759
 5291TIP3    H137508   6.791   3.811   2.286 -0.2624 -0.1752 -0.1944
 5291TIP3    H237509   6.941   3.791   2.273 -0.2989  0.2137 -1.3507
 5292TIP3   OH237510   2.360   3.444   7.628  0.8165  0.6350 -0.8417
 5292TIP3    H137511   2.439   3.431   7.680 -1.2616 -0.8913  2.1902
 5292TIP3    H237512   2.303   3.370   7.650 -2.5035  2.9729 -0.7769
 5293TIP3   OH237513   1.947   3.734   7.619 -0.5595  0.4209 -0.4252
 5293TIP3    H137514   1.931   3.650   7.661 -1.3454  0.4852 -0.5820
 5293TIP3    H237515   1.993   3.786   7.685  0.3553 -0.2838 -0.4898
 5294TIP3   OH237516   4.320   2.801   7.919  0.4558  0.6110  0.2385
 5294TIP3    H137517   4.240   2.749   7.928  0.9981 -0.1085  0.9982
 5294TIP3    H237518   4.381   2.744   7.873  0.6133  1.0722 -0.1292
 5295TIP3   OH237519   6.600   2.499   0.158  0.2600 -0.0136 -0.8343
 5295TIP3    H137520   6.530   2.434   0.154  0.5164 -0.2669 -1.4922
 5295TIP3    H237521   6.556   2.582   0.172 -0.1417 -0.2243 -0.8441
 5296TIP3   OH237522   1.334   1.032   0.088  0.4597  0.5682  0.3136
 5296TIP3    H137523   1.385   1.060   0.012  0.6395  0.6947  0.4788
 5296TIP3    H237524   1.396   1.036   0.161  0.1532  0.9451  0.5548
 5297TIP3   OH237525   5.063   0.965   7.071 -1.0852  0.0060 -0.2947
 5297TIP3    H137526   5.039   1.046   7.026 -0.5664 -0.0134 -0.6194
 5297TIP3    H237527   5.066   0.989   7.164 -2.4986 -0.0408 -0.2235
 5298TIP3   OH237528   6.747   6.123   0.948  0.5564  0.3190 -0.5681
 5298TIP3    H137529   6.830   6.078   0.937  0.4646 -0.0455  0.1650
 5298TIP3    H237530   6.681   6.059   0.922  0.4194 -0.0388  0.5829
 5299TIP3   OH237531   0.950   4.443   0.310  0.1937  0.5314  0.4016
 5299TIP3    H137532   0.924   4.351   0.314 -1.2370  0.9557  1.9902
 5299TIP3    H237533   1.019   4.451   0.376 -1.1140  0.9732  1.7743
 5300TIP3   OH237534   3.083   1.380   7.764  0.6097  0.3615 -0.4692
 5300TIP3    H137535   3.045   1.425   7.688 -0.6250 -0.0472 -0.1233
 5300TIP3    H237536   3.124   1.302   7.727 -0.7976 -0.3293 -0.6474
 5301TIP3   OH237537   3.617   2.798   1.708 -0.2891 -0.3183  0.4211
 5301TIP3    H137538   3.635   2.882   1.749  0.7615 -0.1713 -0.2968
 5301TIP3    H237539   3.587   2.821   1.620  0.1759 -0.6892  0.1610
 5302TIP3   OH237540   4.787   6.019   8.092  0.4268  0.3734 -0.0575
 5302TIP3    H137541   4.738   6.022   8.175  0.7797 -0.3016  0.1826
 5302TIP3    H237542   4.794   6.111   8.066 -0.1810  0.5521  0.3682
 5303TIP3   OH237543   5.290   1.584   0.139 -0.3759  0.0530  0.2753
 5303TIP3    H137544   5.223   1.550   0.198  1.0233 -1.3568  1.1282
 5303TIP3    H237545   5.304   1.674   0.168 -0.0980 -0.4504  1.7647
 5304TIP3   OH237546   3.396   1.198   6.560  0.0076  0.3740  0.0109
 5304TIP3    H137547   3.329   1.262   6.535 -0.8147 -0.7522 -0.7602
 5304TIP3    H237548   3.466   1.209   6.495 -0.4014  0.0890 -0.4842
 5305TIP3   OH237549   5.456   1.349   0.104 -0.3008  0.2403 -0.1321
 5305TIP3    H137550   5.377   1.295   0.104 -0.9987  1.2000  0.8299
 5305TIP3    H237551   5.423   1.439   0.113  0.9072  0.6326  0.6384
 5306TIP3   OH237552   3.541   1.134   0.923 -0.2089  0.2499 -0.0533
 5306TIP3    H137553   3.481   1.193   0.876 -1.1510  0.5378  1.4137
 5306TIP3    H237554   3.553   1.177   1.008  0.7590 -0.6636  0.2821
 5307TIP3   OH237555   2.957   0.720   8.175 -0.5095 -0.1069 -0.2810
 5307TIP3    H137556   3.045   0.727   8.139 -0.1341 -1.6255  0.2693
 5307TIP3    H237557   2.956   0.778   8.251  0.4364 -1.0216  0.4585
 5308TIP3   OH237558   1.375   6.464   1.614  0.1170 -0.0094 -0.0724
 5308TIP3    H137559   1.344   6.546   1.651  0.1521  0.5627 -1.2821
 5308TIP3    H237560   1.366   6.401   1.686  0.9368  1.2235  1.1685
 5309TIP3   OH237561   3.610   5.191   1.125 -0.8146  0.2259  0.2008
 5309TIP3    H137562   3.578   5.144   1.048 -1.6772  0.3172  0.4977
 5309TIP3    H237563   3.595   5.283   1.105 -1.7236  0.2154  0.7647
 5310TIP3   OH237564   0.826   3.929   0.324  0.2961 -0.3663 -0.0124
 5310TIP3    H137565   0.904   3.935   0.268  0.1278 -0.9653 -0.3175
 5310TIP3    H237566   0.834   3.845   0.369 -1.7534 -2.0682 -2.5055
 5311TIP3   OH237567   2.970   1.632   0.541 -0.3695  0.0142  0.1312
 5311TIP3    H137568   3.006   1.558   0.492 -0.6213 -0.4494  0.6424
 5311TIP3    H237569   3.010   1.626   0.627  0.1487  0.8886 -0.0430
 5312TIP3   OH237570   1.025   4.912   8.324  0.0228 -0.7397 -0.6028
 5312TIP3    H137571   0.982   4.939   8.405  0.7449 -3.0478  0.6644
 5312TIP3    H237572   0.977   4.957   8.255 -0.6274  1.3109  1.0883
 5313TIP3   OH237573   2.706   0.784   6.729  0.5190 -0.6863 -0.9856
 5313TIP3    H137574   2.757   0.734   6.792  1.8827  1.7964  0.0385
 5313TIP3    H237575   2.751   0.869   6.723 -0.7254 -0.0930 -3.7883
 5314TIP3   OH237576   1.120   0.458   7.393 -0.2102 -0.4600 -0.1319
 5314TIP3    H137577   1.177   0.471   7.317 -0.9319 -0.7153 -0.7341
 5314TIP3    H237578   1.106   0.363   7.396  2.1294 -0.8507  2.0736
 5315TIP3   OH237579   3.396   0.176   2.326  0.1690 -0.3153 -0.3546
 5315TIP3    H137580   3.472   0.175   2.384  0.8197 -1.7284 -1.1762
 5315TIP3    H237581   3.433   0.172   2.238 -0.8112 -2.5342 -0.7496
 5316TIP3   OH237582   4.031   2.461   0.193  0.4191 -0.4763  0.3675
 5316TIP3    H137583   4.002   2.551   0.179  0.2693 -0.2004  2.1818
 5316TIP3    H237584   3.950   2.411   0.202  0.4066 -0.1566  2.7835
 5317TIP3   OH237585   2.331   5.212   0.076  0.6672  0.0518 -0.1605
 5317TIP3    H137586   2.311   5.305   0.089 -0.4692 -0.1908 -0.0607
 5317TIP3    H237587   2.409   5.197   0.129 -0.4621  0.4552  1.7173
 5318TIP3   OH237588   6.125   2.413   6.629  0.0284  0.4798  0.5976
 5318TIP3    H137589   6.217   2.437   6.626  0.1729  0.0068  1.2184
 5318TIP3    H237590   6.093   2.448   6.712 -0.4871  1.0871  0.1650
 5319TIP3   OH237591   6.100   2.446   6.943 -0.2257 -0.1531  0.6768
 5319TIP3    H137592   6.176   2.388   6.936  0.1148  0.4801 -2.0890
 5319TIP3    H237593   6.121   2.505   7.015  1.2138 -0.9456  0.9383
 5320TIP3   OH237594   0.428   6.760   1.609  0.2352 -0.4528  0.2133
 5320TIP3    H137595   0.363   6.691   1.624  0.7897 -0.7869  1.2245
 5320TIP3    H237596   0.512   6.718   1.630  0.5867  0.4992  0.7735
 5321TIP3   OH237597   4.667   4.648   7.925  0.3964 -0.6578  0.1537
 5321TIP3    H137598   4.751   4.693   7.928  0.0351  0.0959 -0.7431
 5321TIP3    H237599   4.675   4.578   7.990  0.8658  0.8703  1.8016
 5322TIP3   OH237600   2.853   6.357   7.064 -0.0252 -0.1951 -0.0154
 5322TIP3    H137601   2.899   6.386   6.985  0.0177 -0.4170 -0.0723
 5322TIP3    H237602   2.800   6.283   7.036 -2.5537  1.6996 -0.5724
 5323TIP3   OH237603   3.015   2.355   1.427  0.0054  0.3458  0.1886
 5323TIP3    H137604   3.000   2.410   1.503 -0.7590  0.5451 -0.1048
 5323TIP3    H237605   2.943   2.375   1.367  1.0476  0.8249 -0.9557
 5324TIP3   OH237606   5.184   5.794   7.139  0.2867  0.1103  0.2792
 5324TIP3    H137607   5.218   5.758   7.221 -0.4179  0.7401  0.8672
 5324TIP3    H237608   5.236   5.751   7.071  0.9160 -0.3946  1.0499
 5325TIP3   OH237609   3.661   1.519   0.351  0.0975  0.1377 -0.6854
 5325TIP3    H137610   3.595   1.586   0.339 -1.5780 -0.5154  3.2788
 5325TIP3    H237611   3.732   1.563   0.399  0.1747 -0.3329 -0.3593
 5326TIP3   OH237612   3.421   1.025   0.494  0.0707  0.2619  0.0638
 5326TIP3    H137613   3.475   1.038   0.573  0.1396 -1.8716  0.4302
 5326TIP3    H237614   3.473   1.064   0.423 -0.0599  2.3743  1.0427
 5327TIP3   OH237615   4.725   2.211   0.082  0.6812 -0.3788  0.3619
 5327TIP3    H137616   4.630   2.216   0.072  0.6869 -0.3902  0.3054
 5327TIP3    H237617   4.759   2.213  -0.007  0.8234  1.3912  0.4383
 5328TIP3   OH237618   2.715   1.749   2.009  0.4571 -0.0997  0.0921
 5328TIP3    H137619   2.733   1.811   2.080 -1.2165 -1.7832  2.1332
 5328TIP3    H237620   2.625   1.766   1.984  0.1210 -1.3804  0.3687
 5329TIP3   OH237621   1.880   6.100   0.115  0.2095  0.1423  0.1590
 5329TIP3    H137622   1.896   6.123   0.206  2.1356 -0.1665 -0.0554
 5329TIP3    H237623   1.852   6.182   0.073 -0.7996  0.2573  1.0276
 5330TIP3   OH237624   1.917   0.300   1.931 -0.4753  0.1368 -0.4788
 5330TIP3    H137625   1.914   0.388   1.893 -2.9078  0.8895  1.2458
 5330TIP3    H237626   1.987   0.305   1.996  0.4289  0.2843 -1.4279
 5331TIP3   OH237627   2.415   1.803   0.658 -0.1999  0.1333  0.3849
 5331TIP3    H137628   2.413   1.720   0.609 -0.3641  0.8377 -0.8305
 5331TIP3    H237629   2.486   1.853   0.617 -1.7328  1.5980 -0.6274
 5332TIP3   OH237630   1.324   0.086   1.499  0.0654 -0.0333  0.4604
 5332TIP3    H137631   1.351   0.155   1.439  0.5218 -0.2417  0.4238
 5332TIP3    H237632   1.232   0.105   1.517  0.2161  0.6461  0.5359
 5333TIP3   OH237633   0.700   3.264   7.241  0.4000  0.2233 -0.2212
 5333TIP3    H137634   0.619   3.287   7.195  0.0940  0.6314  0.5063
 5333TIP3    H237635   0.754   3.343   7.238  1.7501 -0.6872 -2.6494
 5334TIP3   OH237636   3.950   0.176   0.645  0.9068 -0.5619  0.3892
 5334TIP3    H137637   3.862   0.152   0.675  0.8783  0.3665  1.1092
 5334TIP3    H237638   3.977   0.246   0.704  2.5174 -1.4456  0.7666
 5335TIP3   OH237639   2.071   0.439   2.371  0.1221 -0.1819  0.1240
 5335TIP3    H137640   2.013   0.427   2.446  0.5548 -0.0346  0.4847
 5335TIP3    H237641   2.157   0.457   2.409  0.5083 -0.8737 -0.4083
 5336TIP3   OH237642   6.297   6.682   2.238  0.0262 -0.0958 -0.2850
 5336TIP3    H137643   6.367   6.623   2.267  1.3969  1.8773  0.5931
 5336TIP3    H237644   6.233   6.681   2.310  1.4073  1.5900  1.0230
 5337TIP3   OH237645   5.920   3.814   0.411  0.5224 -0.7604  0.8921
 5337TIP3    H137646   5.841   3.762   0.407  0.0371 -0.0030  0.0726
 5337TIP3    H237647   5.922   3.851   0.499  0.0492 -0.9197  0.9679
 5338TIP3   OH237648   0.940   5.024   0.109 -0.1188 -0.1933  0.0602
 5338TIP3    H137649   0.946   4.992   0.199  1.7961 -0.4682 -0.1162
 5338TIP3    H237650   0.939   4.945   0.055  1.6877 -0.0505 -0.2507
 5339TIP3   OH237651   1.778   3.141   1.085  0.5783 -0.7478 -0.2182
 5339TIP3    H137652   1.738   3.082   1.149  0.2799  0.1521  0.4596
 5339TIP3    H237653   1.727   3.222   1.093  0.4420 -0.6615 -1.7165
 5340TIP3   OH237654   3.415   4.864   0.769  0.3767  0.1314 -0.4353
 5340TIP3    H137655   3.410   4.920   0.691 -1.0996 -0.1975 -0.6090
 5340TIP3    H237656   3.388   4.922   0.841 -2.1681 -0.5501 -0.7559
 5341TIP3   OH237657   6.350   3.228   8.262 -0.1270 -0.4196  0.3877
 5341TIP3    H137658   6.322   3.229   8.353  0.3169 -4.4530  0.7685
 5341TIP3    H237659   6.269   3.215   8.212 -0.0279 -2.0927  0.6124
 5342TIP3   OH237660   1.856   3.654   6.888  0.2812 -0.2691 -0.2090
 5342TIP3    H137661   1.768   3.680   6.915  0.0433 -0.7608 -0.4783
 5342TIP3    H237662   1.856   3.666   6.793  0.2737 -0.9035 -0.2978
 5343TIP3   OH237663   6.712   2.361   2.699 -0.3650 -0.2265  0.6415
 5343TIP3    H137664   6.729   2.411   2.619  0.6968 -1.1430  0.2581
 5343TIP3    H237665   6.629   2.395   2.731 -0.4044  0.7455 -0.3934
 5344TIP3   OH237666   4.348   0.139   1.861 -0.9150  0.1626  0.3477
 5344TIP3    H137667   4.412   0.183   1.806 -0.4156  0.6401  1.2833
 5344TIP3    H237668   4.370   0.167   1.950 -0.3411 -2.2073  1.0418
 5345TIP3   OH237669   4.391   4.142   7.836 -0.1858  0.4041 -0.0033
 5345TIP3    H137670   4.398   4.197   7.757  2.7524  0.8919  0.4783
 5345TIP3    H237671   4.336   4.193   7.895 -0.7164  1.0119 -0.9794
 5346TIP3   OH237672   5.251   5.982   1.197  0.0494 -0.3663  0.2293
 5346TIP3    H137673   5.273   6.026   1.115  0.1271  0.5954  0.7558
 5346TIP3    H237674   5.227   5.893   1.171 -1.0571  0.2565 -0.9576
 5347TIP3   OH237675   0.634   6.068   8.077 -0.1552 -0.0978  0.1147
 5347TIP3    H137676   0.711   6.067   8.133 -0.5155 -1.7777  0.6249
 5347TIP3    H237677   0.633   5.983   8.035 -2.8111 -0.9696  1.6909
 5348TIP3   OH237678   3.757   1.320   1.851  0.3355  0.3172 -0.0875
 5348TIP3    H137679   3.750   1.412   1.876 -0.8935  0.1793  0.1522
 5348TIP3    H237680   3.724   1.272   1.928 -0.5875 -0.2406 -0.8087
 5349TIP3   OH237681   3.848   5.292   8.119 -0.1339  0.2856  0.2348
 5349TIP3    H137682   3.824   5.218   8.176  0.2071 -0.4146 -0.5238
 5349TIP3    H237683   3.943   5.289   8.114 -0.1799  0.0826 -0.7051
 5350TIP3   OH237684   4.302   0.819   8.388 -0.1108  0.5987 -0.2079
 5350TIP3    H137685   4.365   0.803   8.458  1.4616 -0.9666 -1.8490
 5350TIP3    H237686   4.321   0.908   8.358  1.2558  0.2060 -0.5698
 5351TIP3   OH237687   2.219   2.358   2.119 -0.4150 -0.0318 -0.3873
 5351TIP3    H137688   2.169   2.419   2.064  0.4022  1.0307  0.0223
 5351TIP3    H237689   2.272   2.308   2.058 -1.3170 -0.5526 -0.7551
 5352TIP3   OH237690   1.061   5.332   2.217  0.5503 -0.0832  0.5037
 5352TIP3    H137691   1.074   5.295   2.305 -0.7649 -0.7192  0.4512
 5352TIP3    H237692   1.110   5.274   2.159  2.8618  1.2943  0.9330
 5353TIP3   OH237693   4.836   2.913   7.254  0.2814 -0.0353  0.3579
 5353TIP3    H137694   4.881   2.876   7.330  0.6444 -1.5553 -0.5402
 5353TIP3    H237695   4.901   2.908   7.183 -0.6496 -0.4589 -0.4957
 5354TIP3   OH237696   3.953   6.553   0.497  0.1132  0.3003  0.8648
 5354TIP3    H137697   3.938   6.481   0.558  1.8149 -0.5756  0.3115
 5354TIP3    H237698   3.866   6.575   0.463 -0.4160 -1.7316  0.7897
 5355TIP3   OH237699   6.655   6.205   2.405 -0.1679 -0.0990 -0.8161
 5355TIP3    H137700   6.698   6.290   2.405 -0.4793  0.0650 -0.0915
 5355TIP3    H237701   6.722   6.144   2.374  1.0843 -0.0793  1.6000
 5356TIP3   OH237702   5.671   3.726   2.055  0.4823 -0.5135 -0.2540
 5356TIP3    H137703   5.585   3.764   2.073  0.8478  0.2265 -0.0141
 5356TIP3    H237704   5.678   3.652   2.114  0.1345 -0.3852 -0.0511
 5357TIP3   OH237705   0.151   5.124   2.145  0.6311  0.7325 -0.1246
 5357TIP3    H137706   0.230   5.123   2.092 -0.3483  0.3902 -1.6315
 5357TIP3    H237707   0.098   5.195   2.110 -0.7901 -0.6081 -0.8131
 5358TIP3   OH237708   6.037   2.264   1.068  0.1648  0.5268 -0.1092
 5358TIP3    H137709   6.044   2.354   1.100  1.4749  0.1986  0.6029
 5358TIP3    H237710   6.007   2.214   1.145  1.4726  0.0369  0.1038
 5359TIP3   OH237711   5.002   4.266   0.835 -0.5696  0.3297  0.2975
 5359TIP3    H137712   4.934   4.219   0.788 -0.9057 -0.1123  1.1936
 5359TIP3    H237713   5.078   4.265   0.776 -1.4146  1.1098 -0.8438
 5360TIP3   OH237714   2.762   6.369   8.154 -0.2754 -0.5796  0.0361
 5360TIP3    H137715   2.744   6.330   8.239 -1.1084 -1.1665 -0.3839
 5360TIP3    H237716   2.857   6.366   8.145 -0.1109  0.2035  1.2535
 5361TIP3   OH237717   5.126   2.698   7.335  0.0197 -0.0040 -0.4021
 5361TIP3    H137718   5.141   2.623   7.277  0.2751 -0.2019 -0.0843
 5361TIP3    H237719   5.185   2.766   7.302 -0.2878  0.0948 -0.7543
 5362TIP3   OH237720   2.279   5.736   7.362 -0.0022 -0.6756 -0.3388
 5362TIP3    H137721   2.355   5.744   7.419 -0.8565 -1.0998  0.9037
 5362TIP3    H237722   2.288   5.650   7.322  0.1059 -0.7744 -0.1032
 5363TIP3   OH237723   5.628   6.572   7.863  0.1041 -0.2494  0.0517
 5363TIP3    H137724   5.627   6.658   7.819  1.2852  0.7401  1.8356
 5363TIP3    H237725   5.647   6.510   7.793  1.5736  1.2233 -0.9342
 5364TIP3   OH237726   4.609   0.910   7.737  0.0609 -0.3380 -0.0801
 5364TIP3    H137727   4.527   0.955   7.718 -2.5246 -3.5835  2.2277
 5364TIP3    H237728   4.629   0.861   7.656  1.6059  2.7031 -1.7321
 5365TIP3   OH237729   2.939   3.599   1.017 -0.1506  0.1723  0.3162
 5365TIP3    H137730   3.019   3.601   0.965 -0.2681 -1.3875  0.0138
 5365TIP3    H237731   2.968   3.585   1.107 -0.0053  1.8139  0.5653
 5366TIP3   OH237732   5.532   2.419   0.036  0.3788  0.0877  0.4343
 5366TIP3    H137733   5.457   2.399   0.092 -0.5348  0.4156 -0.6430
 5366TIP3    H237734   5.597   2.457   0.096 -0.6998  0.7494  1.2232
 5367TIP3   OH237735   1.389   6.835   2.450  0.3752  0.4579 -0.0789
 5367TIP3    H137736   1.479   6.812   2.469  0.3191 -0.3867 -0.7825
 5367TIP3    H237737   1.388   6.931   2.449  1.2648  0.4695 -0.0820
 5368TIP3   OH237738   1.977   5.750   7.722  0.0117  0.7059  0.1365
 5368TIP3    H137739   2.017   5.793   7.646  0.3655  0.8525  0.4030
 5368TIP3    H237740   2.021   5.788   7.798 -2.5316  2.9279  0.6380
 5369TIP3   OH237741   1.232   5.991   1.918 -0.5017  0.1124  0.4196
 5369TIP3    H137742   1.326   5.973   1.909 -0.8510 -1.2476 -0.9039
 5369TIP3    H237743   1.201   5.924   1.979 -1.0954 -1.3534 -1.4111
 5370TIP3   OH237744   0.309   1.869   1.690 -0.2784 -0.6854 -0.0608
 5370TIP3    H137745   0.226   1.855   1.736 -0.1252 -0.6199  0.2385
 5370TIP3    H237746   0.370   1.896   1.758 -0.2063  0.0349 -0.3953
 5371TIP3   OH237747   0.379   0.731   6.726  0.1981  0.2362 -0.2131
 5371TIP3    H137748   0.386   0.640   6.758  0.1402  1.0909  2.4969
 5371TIP3    H237749   0.286   0.752   6.732  0.0198  0.1070 -2.0887
 5372TIP3   OH237750   1.440   5.488   1.836 -0.3197 -0.1025 -0.7566
 5372TIP3    H137751   1.454   5.454   1.924  0.8013 -2.0390 -1.5895
 5372TIP3    H237752   1.426   5.582   1.847  2.1440  0.1125  1.2794
 5373TIP3   OH237753   1.382   5.284   7.460  0.1678 -0.3628 -0.1202
 5373TIP3    H137754   1.446   5.318   7.522 -1.3342  0.0979  1.2395
 5373TIP3    H237755   1.418   5.306   7.374  1.5369  0.3979  0.6124
 5374TIP3   OH237756   2.635   4.180   0.949  0.2749 -0.7595  0.2864
 5374TIP3    H137757   2.674   4.265   0.927 -0.0435 -0.3871  1.1292
 5374TIP3    H237758   2.700   4.116   0.921  0.9709 -0.1947  0.5805
 5375TIP3   OH237759   2.578   5.049   6.474  0.2246  0.4250 -0.1836
 5375TIP3    H137760   2.582   5.137   6.436  0.7140  0.4313 -0.1230
 5375TIP3    H237761   2.647   5.048   6.541 -0.3641  0.2863  0.4385
 5376TIP3   OH237762   3.114   5.739   8.447  0.2872 -0.2240  0.1275
 5376TIP3    H137763   3.055   5.699   8.383 -0.0618  0.2511  0.1514
 5376TIP3    H237764   3.160   5.807   8.398 -2.0352  2.1401  0.9864
 5377TIP3   OH237765   6.593   5.946   7.756  0.3136  0.0597 -0.1991
 5377TIP3    H137766   6.679   5.989   7.758  0.7887 -0.8839  0.2907
 5377TIP3    H237767   6.602   5.873   7.818 -1.0768  0.3893  0.4182
 5378TIP3   OH237768   4.438   4.006   1.537  0.1873 -0.2673  0.6238
 5378TIP3    H137769   4.387   3.954   1.599  1.1016 -1.6897  0.2255
 5378TIP3    H237770   4.372   4.054   1.487 -0.7296 -1.4512  0.6536
 5379TIP3   OH237771   4.023   0.268   7.267 -0.4100  0.1667  0.1786
 5379TIP3    H137772   3.973   0.347   7.248 -2.9432 -1.5635 -0.8299
 5379TIP3    H237773   4.025   0.220   7.184  0.0162 -1.3991  1.0528
 5380TIP3   OH237774   0.342   6.390   7.109 -0.0449  0.1444  0.0984
 5380TIP3    H137775   0.259   6.432   7.085 -0.7869 -1.0055  0.5855
 5380TIP3    H237776   0.316   6.316   7.164  1.1612 -1.6032 -1.6018
 5381TIP3   OH237777   5.081   1.120   0.571 -0.9269 -0.1295 -0.2382
 5381TIP3    H137778   5.175   1.127   0.560 -0.6838 -0.4420  1.3431
 5381TIP3    H237779   5.057   1.038   0.528 -0.3434 -0.4799  0.1089
 5382TIP3   OH237780   4.795   5.271   7.607 -0.1053  0.2670 -0.3504
 5382TIP3    H137781   4.703   5.246   7.603 -0.1389  0.4410 -0.6505
 5382TIP3    H237782   4.835   5.228   7.532 -0.1439  1.0323 -0.8191
 5383TIP3   OH237783   4.406   6.122   1.042 -0.0179  0.3607  0.4669
 5383TIP3    H137784   4.314   6.135   1.017 -0.0495  0.5806  0.6883
 5383TIP3    H237785   4.437   6.052   0.985 -1.0854 -1.6130  2.1899
 5384TIP3   OH237786   0.308   2.477   1.280  0.0780 -0.2289  0.3123
 5384TIP3    H137787   0.343   2.501   1.365  0.0892  2.5251 -0.3785
 5384TIP3    H237788   0.370   2.414   1.245  0.9903 -0.0887  1.6272
 5385TIP3   OH237789   4.934   1.076   1.420  0.1106 -0.2660  0.0485
 5385TIP3    H137790   4.918   1.016   1.492  1.2306 -0.2707  0.3155
 5385TIP3    H237791   4.909   1.162   1.454  0.5039 -0.2886  0.4040
 5386TIP3   OH237792   1.662   6.579   1.465  0.1043 -0.2751 -0.1755
 5386TIP3    H137793   1.571   6.547   1.459 -0.4641  1.2321 -0.0532
 5386TIP3    H237794   1.654   6.666   1.504  1.3995  0.7332 -2.0049
 5387TIP3   OH237795   2.321   2.694   8.470  0.8494  0.0046  0.0197
 5387TIP3    H137796   2.324   2.732   8.382  0.9150 -1.4935 -0.6422
 5387TIP3    H237797   2.412   2.699   8.501  0.9054  0.1331 -0.1608
 5388TIP3   OH237798   3.877   1.208   0.461  0.5065  0.2821  0.1088
 5388TIP3    H137799   3.845   1.272   0.523 -1.6399 -1.2246  0.6733
 5388TIP3    H237800   3.843   1.236   0.376 -1.6293 -0.7343  0.5514
 5389TIP3   OH237801   0.657   5.004   2.009 -0.4747 -0.3316 -0.3201
 5389TIP3    H137802   0.734   5.060   2.017 -0.6216 -0.4208  2.5578
 5389TIP3    H237803   0.687   4.930   1.956  1.2924 -0.1359  0.3426
 5390TIP3   OH237804   3.691   1.838   0.873 -0.1909 -0.3388  0.3912
 5390TIP3    H137805   3.747   1.912   0.850 -1.0713  0.2078 -0.0680
 5390TIP3    H237806   3.707   1.823   0.967 -0.8685  1.2041  0.7731
 5391TIP3   OH237807   1.090   0.366   0.713 -0.0391 -0.1331  0.1159
 5391TIP3    H137808   1.084   0.427   0.787  0.6053 -1.0577  0.9549
 5391TIP3    H237809   1.165   0.397   0.662 -0.4832  0.5060 -0.1535
 5392TIP3   OH237810   0.052   3.643   1.159 -0.4101 -0.6874  0.1256
 5392TIP3    H137811   0.100   3.616   1.081 -1.7038  2.8151 -2.0893
 5392TIP3    H237812   0.109   3.708   1.200 -0.8656 -0.6082  0.6468
 5393TIP3   OH237813   3.307   6.122   8.074  0.3172  0.4338  0.2868
 5393TIP3    H137814   3.389   6.116   8.024  0.6690 -0.0354  0.9065
 5393TIP3    H237815   3.322   6.195   8.134 -0.4654  1.6310 -0.9123
 5394TIP3   OH237816   5.904   5.295   8.563 -0.5163 -0.0760  0.2153
 5394TIP3    H137817   5.882   5.223   8.622  0.8855  0.1472  1.0412
 5394TIP3    H237818   5.942   5.362   8.620 -0.7495  0.8623 -0.7020
 5395TIP3   OH237819   0.007   6.371   6.759  0.2548 -0.1200 -0.1395
 5395TIP3    H137820   0.031   6.392   6.669 -0.5463 -1.0246 -0.5810
 5395TIP3    H237821   0.055   6.291   6.779 -0.9859 -0.9641 -0.4266
 5396TIP3   OH237822   3.967   1.567   1.290  0.1808 -0.0262 -0.6886
 5396TIP3    H137823   3.883   1.529   1.314 -0.1173  0.4793 -0.9107
 5396TIP3    H237824   3.966   1.655   1.329  0.7130 -0.1094 -0.4718
 5397TIP3   OH237825   4.951   6.524   7.161  0.4226  0.0405  0.0747
 5397TIP3    H137826   4.944   6.436   7.197  1.7204 -0.0036  0.2766
 5397TIP3    H237827   4.871   6.536   7.110 -0.2635 -0.8442  0.9041
 5398TIP3   OH237828   6.760   4.455   1.934  0.3799 -0.1339  0.1717
 5398TIP3    H137829   6.677   4.422   1.968 -0.2435 -0.3235 -1.4457
 5398TIP3    H237830   6.784   4.393   1.865  1.1052  0.7464 -0.3903
 5399TIP3   OH237831   4.442   6.343   0.484  0.3501 -0.2241  0.2488
 5399TIP3    H137832   4.491   6.325   0.564 -0.7567  0.7595  1.1910
 5399TIP3    H237833   4.353   6.312   0.503  0.3199 -0.9308 -0.9938
 5400TIP3   OH237834   5.652   0.184   0.075 -0.6149 -0.1915  0.3967
 5400TIP3    H137835   5.626   0.122   0.143  0.6513 -0.7954  0.3603
 5400TIP3    H237836   5.689   0.129   0.005 -0.7131  0.5108 -0.2211
 5401TIP3   OH237837   4.835   3.550   2.544 -0.1811  0.0800 -0.4083
 5401TIP3    H137838   4.803   3.630   2.588 -2.1420 -1.0558  0.3554
 5401TIP3    H237839   4.929   3.550   2.562 -0.3907  1.3866  0.9681
 5402TIP3   OH237840   5.415   0.983   7.190  0.2706  0.1181  0.3033
 5402TIP3    H137841   5.375   0.916   7.245 -1.5261  0.3842 -0.5782
 5402TIP3    H237842   5.385   1.066   7.228 -1.0378  0.3047 -1.0337
 5403TIP3   OH237843   2.686   5.975   6.600  0.3826  0.9072 -0.0199
 5403TIP3    H137844   2.605   5.978   6.651 -0.0956 -0.4441 -0.6547
 5403TIP3    H237845   2.736   5.903   6.639  1.7268  2.3236  0.9703
 5404TIP3   OH237846   3.425   2.374   1.400 -0.8299  0.0407  0.1118
 5404TIP3    H137847   3.407   2.386   1.493 -2.7783 -1.4367 -0.0178
 5404TIP3    H237848   3.400   2.458   1.361 -1.7790  0.0726  0.7286
 5405TIP3   OH237849   0.926   4.328   8.490  0.0027  0.1868 -0.6495
 5405TIP3    H137850   0.978   4.375   8.425 -0.5651  0.8501 -0.6429
 5405TIP3    H237851   0.873   4.396   8.532  0.0039 -0.3026  0.1711
 5406TIP3   OH237852   2.239   2.914   7.218  0.0463 -0.7972  0.3068
 5406TIP3    H137853   2.192   2.970   7.280 -0.4347  0.0729 -0.8099
 5406TIP3    H237854   2.170   2.877   7.162  0.5997 -0.1270 -0.8475
 5407TIP3   OH237855   3.430   4.103   0.339  0.8481  0.2542  0.2745
 5407TIP3    H137856   3.481   4.079   0.417  1.3429 -1.7047 -0.5928
 5407TIP3    H237857   3.450   4.035   0.275 -2.1251 -0.0625 -0.4704
 5408TIP3   OH237858   0.824   2.676   7.691  0.1652  0.1884  0.3008
 5408TIP3    H137859   0.916   2.658   7.672 -0.3163  0.5304 -2.8982
 5408TIP3    H237860   0.789   2.593   7.725  0.6083 -1.5450 -3.1197
 5409TIP3   OH237861   3.797   2.657   7.435 -0.8791 -0.6679  0.0860
 5409TIP3    H137862   3.885   2.634   7.464 -1.4435 -1.7542  1.0596
 5409TIP3    H237863   3.802   2.749   7.411  0.3709 -0.5563  0.7118
 5410TIP3   OH237864   0.005   0.347   0.905  0.2867 -0.1404  0.3089
 5410TIP3    H137865   0.043   0.267   0.941  0.3886 -0.8383 -1.2775
 5410TIP3    H237866  -0.089   0.328   0.899  0.3301 -0.2167 -0.2063
 5411TIP3   OH237867   3.066   6.809   0.280  0.0287  0.8969  0.0615
 5411TIP3    H137868   3.029   6.799   0.368  0.8811 -0.4677  0.2917
 5411TIP3    H237869   3.157   6.836   0.296  0.4085 -0.0847 -0.3548
 5412TIP3   OH237870   4.628   2.136   1.437 -0.2438 -0.6183 -0.0108
 5412TIP3    H137871   4.578   2.061   1.469  0.2450 -0.0856  2.1157
 5412TIP3    H237872   4.720   2.109   1.446 -0.0691  0.1715  0.6351
 5413TIP3   OH237873   0.693   4.662   2.207  0.1682 -0.4484  0.1654
 5413TIP3    H137874   0.613   4.698   2.170 -0.4268 -0.8352  1.0512
 5413TIP3    H237875   0.690   4.685   2.300  0.0141 -2.3143  0.6599
 5414TIP3   OH237876   5.282   3.102   8.086  0.6923 -0.0104  0.4429
 5414TIP3    H137877   5.290   3.194   8.112  0.1906  0.0533  0.3863
 5414TIP3    H237878   5.318   3.099   7.997  0.5531  0.1706  0.3785
 5415TIP3   OH237879   1.022   6.570   1.217 -0.3024  0.1609 -0.5467
 5415TIP3    H137880   1.086   6.515   1.263 -1.0747 -1.3907 -1.2685
 5415TIP3    H237881   0.943   6.564   1.270  0.1284  2.1588  0.3976
 5416TIP3   OH237882   4.415   3.748   0.717  0.2520  0.3592 -0.3672
 5416TIP3    H137883   4.323   3.723   0.712  0.1297  0.5136  0.8293
 5416TIP3    H237884   4.420   3.806   0.793  0.9191  2.2302 -1.7510
 5417TIP3   OH237885   4.350   6.574   2.071 -0.4324  0.2796  0.8248
 5417TIP3    H137886   4.370   6.484   2.096  1.9996  0.0387 -1.5189
 5417TIP3    H237887   4.254   6.581   2.080 -0.5022 -1.9773  2.5731
 5418TIP3   OH237888   5.319   5.776   0.947 -0.4654 -0.4774 -0.2059
 5418TIP3    H137889   5.346   5.706   1.007  1.8175 -0.0793 -0.6702
 5418TIP3    H237890   5.351   5.747   0.861 -0.4175  0.6498 -0.5870
 5419TIP3   OH237891   4.715   4.301   0.917 -0.1314  0.5962  0.3248
 5419TIP3    H137892   4.624   4.317   0.895 -0.4884  0.3312  1.5193
 5419TIP3    H237893   4.764   4.328   0.839 -1.3184 -0.6246 -0.9160
 5420TIP3   OH237894   4.496   0.134   8.562 -0.6807  0.4665  0.0668
 5420TIP3    H137895   4.516   0.057   8.510  0.1668  1.2547 -0.8296
 5420TIP3    H237896   4.577   0.151   8.611 -1.3172 -0.0026  1.3325
 5421TIP3   OH237897   4.191   6.530   7.982  0.0632 -0.1025 -0.2066
 5421TIP3    H137898   4.186   6.621   7.955  0.2893 -0.0806 -0.1741
 5421TIP3    H237899   4.142   6.483   7.914 -2.7732  0.3602  1.3871
 5422TIP3   OH237900   3.503   2.341   8.129  0.1927  0.1274  0.0381
 5422TIP3    H137901   3.464   2.335   8.042 -1.6073  1.3727  0.6960
 5422TIP3    H237902   3.542   2.255   8.145 -1.2789 -0.8002 -1.1716
 5423TIP3   OH237903   6.757   2.595   0.987 -0.2321 -0.6725  0.9563
 5423TIP3    H137904   6.749   2.500   0.976  0.0298 -0.5460 -0.5186
 5423TIP3    H237905   6.845   2.608   1.021  1.1764 -0.7733 -2.3331
 5424TIP3   OH237906   6.334   0.963   8.045  0.1753 -0.1453 -0.1080
 5424TIP3    H137907   6.346   0.942   7.953 -1.3616  0.6486 -0.5227
 5424TIP3    H237908   6.391   0.902   8.091  2.5268  0.7850 -1.6341
 5425TIP3   OH237909   0.343   4.620   8.037  0.0199  0.1464  0.2611
 5425TIP3    H137910   0.372   4.619   8.128 -1.3628 -1.3516  0.7202
 5425TIP3    H237911   0.249   4.605   8.041 -0.5191  2.4465 -1.3214
 5426TIP3   OH237912   2.168   6.830   0.624  0.4710 -0.0276 -0.1319
 5426TIP3    H137913   2.122   6.873   0.696  0.0540  0.1401 -0.4911
 5426TIP3    H237914   2.230   6.771   0.666  0.5661  0.4253  0.3619
 5427TIP3   OH237915   3.033   3.439   0.580 -0.0354  0.1667  1.2247
 5427TIP3    H137916   3.081   3.442   0.497 -1.4999  0.9706  0.3488
 5427TIP3    H237917   3.074   3.368   0.629  0.3560 -0.9009 -0.5291
 5428TIP3   OH237918   5.528   6.425   2.359  0.0841 -0.7336  0.1827
 5428TIP3    H137919   5.436   6.401   2.353 -0.1804  0.4753 -1.0051
 5428TIP3    H237920   5.528   6.509   2.405  0.5428 -0.4982 -0.2358
 5429TIP3   OH237921   2.241   5.296   2.149  0.3334  0.1627  0.4290
 5429TIP3    H137922   2.285   5.357   2.089  0.0543  0.2590  0.3168
 5429TIP3    H237923   2.275   5.210   2.125 -0.6254  0.0635 -0.6524
 5430TIP3   OH237924   6.088   0.614   1.727  0.4266 -0.0510  0.1661
 5430TIP3    H137925   6.162   0.586   1.781  1.0480 -1.5033 -1.3607
 5430TIP3    H237926   6.104   0.574   1.641 -2.5593 -1.1641  0.0143
 5431TIP3   OH237927   2.313   5.591   0.973 -0.5758  0.2243  0.6278
 5431TIP3    H137928   2.271   5.540   1.043  0.8845 -1.4358  0.3827
 5431TIP3    H237929   2.332   5.527   0.905 -0.2077  1.4440 -0.4522
 5432TIP3   OH237930   2.839   4.670   1.370 -0.5311  0.5939  0.1310
 5432TIP3    H137931   2.749   4.645   1.350 -0.4753 -3.0842  3.3008
 5432TIP3    H237932   2.833   4.720   1.451  0.2870 -0.5310  0.9101
 5433TIP3   OH237933   5.100   0.904   0.348 -0.4314  0.6079  0.2880
 5433TIP3    H137934   5.130   0.897   0.257 -1.1238  2.4828 -0.1401
 5433TIP3    H237935   5.137   0.827   0.391  2.7888  1.4013 -0.7727
 5434TIP3   OH237936   4.239   1.588   8.432  0.3575  0.1189 -1.1760
 5434TIP3    H137937   4.268   1.680   8.433 -0.2054  0.2964 -0.7464
 5434TIP3    H237938   4.318   1.538   8.451  0.4278  0.5911 -0.1484
 5435TIP3   OH237939   3.948   1.841   8.325  0.3048  0.4082 -0.3839
 5435TIP3    H137940   4.015   1.791   8.279  2.5030  2.3340  0.5032
 5435TIP3    H237941   3.971   1.933   8.309 -1.3593  1.1485  1.0441
 5436TIP3   OH237942   3.314   1.563   0.831 -0.1612  0.4746  0.4963
 5436TIP3    H137943   3.346   1.642   0.787 -0.7612  0.9373  0.8723
 5436TIP3    H237944   3.229   1.547   0.792  0.4021 -0.6106 -0.3251
 5437TIP3   OH237945   4.885   5.379   8.195  0.1643  0.0866 -0.0968
 5437TIP3    H137946   4.862   5.434   8.270  1.0063  0.5913 -0.1916
 5437TIP3    H237947   4.824   5.405   8.127  0.4150  0.7662 -0.0717
 5438TIP3   OH237948   4.016   0.755   8.406 -0.5119  0.0429  0.1906
 5438TIP3    H137949   4.109   0.776   8.410 -0.4943 -0.1872  3.2055
 5438TIP3    H237950   4.013   0.669   8.365  0.2963  1.1369 -2.3957
 5439TIP3   OH237951   1.354   3.933   8.202  0.0439  0.4057  0.1511
 5439TIP3    H137952   1.421   3.889   8.150  0.3032 -1.3503  1.8349
 5439TIP3    H237953   1.400   3.966   8.279 -0.1736  3.7090 -0.9944
 5440TIP3   OH237954   1.151   3.367   8.610 -0.1079  0.1027  0.0221
 5440TIP3    H137955   1.183   3.281   8.586 -2.1872 -0.7803  0.2018
 5440TIP3    H237956   1.056   3.361   8.601 -0.2622  2.7955 -1.3076
 5441TIP3   OH237957   0.240   4.052   0.597  0.1230 -0.2348 -0.0123
 5441TIP3    H137958   0.156   4.092   0.622 -0.7395 -0.7154 -1.9573
 5441TIP3    H237959   0.287   4.121   0.550 -0.8076 -0.9890 -2.1958
 5442TIP3   OH237960   6.667   1.462   1.452 -0.3692 -0.6829 -0.1266
 5442TIP3    H137961   6.739   1.452   1.389 -0.8244 -1.3074 -0.5659
 5442TIP3    H237962   6.588   1.462   1.398 -0.7293 -0.5752  0.3944
 5443TIP3   OH237963   4.073   4.649   7.612  0.3019  0.2287 -0.4807
 5443TIP3    H137964   4.076   4.584   7.683 -0.0095 -0.3352 -0.9688
 5443TIP3    H237965   3.980   4.652   7.587  0.4007  0.4740 -0.8162
 5444TIP3   OH237966   6.157   0.813   1.049  0.2021 -0.2860  0.2381
 5444TIP3    H137967   6.185   0.815   0.958  0.4478 -0.3113  0.3146
 5444TIP3    H237968   6.217   0.871   1.095 -1.0804  1.2708  0.0534
 5445TIP3   OH237969   2.664   4.496   7.670  0.3355 -0.5076 -0.3719
 5445TIP3    H137970   2.641   4.558   7.601  1.1555 -0.8957 -1.0220
 5445TIP3    H237971   2.623   4.531   7.749 -0.2518  0.1843 -0.9679
 5446TIP3   OH237972   6.344   1.136   0.318 -0.0759  0.3640 -0.4414
 5446TIP3    H137973   6.418   1.102   0.268 -0.4630 -0.0553 -0.7391
 5446TIP3    H237974   6.383   1.175   0.396  0.4705  0.3162 -0.6885
 5447TIP3   OH237975   0.739   4.201   1.713 -0.0639  0.3039  0.5336
 5447TIP3    H137976   0.791   4.276   1.743 -0.1982 -0.1297  1.9186
 5447TIP3    H237977   0.800   4.148   1.663  0.4673  0.5166  0.9466
 5448TIP3   OH237978   6.185   5.371   1.538 -0.1055  0.5332  0.0855
 5448TIP3    H137979   6.107   5.419   1.509  0.6015  1.8234  0.2303
 5448TIP3    H237980   6.173   5.362   1.632 -0.5492 -0.1765 -0.0322
 5449TIP3   OH237981   6.041   5.355   6.859 -0.0975 -0.1714 -0.6550
 5449TIP3    H137982   6.125   5.401   6.864 -0.2483 -0.0121  0.6677
 5449TIP3    H237983   5.985   5.399   6.923 -0.1249 -2.4264  0.9565
 5450TIP3   OH237984   4.390   1.165   8.074  0.7202 -0.4306  0.4213
 5450TIP3    H137985   4.366   1.253   8.102  1.5370 -0.2863  0.7115
 5450TIP3    H237986   4.350   1.108   8.139  0.1660 -0.2833  0.2181
 5451TIP3   OH237987   2.592   5.874   7.429  0.5747  0.1297 -1.0649
 5451TIP3    H137988   2.537   5.939   7.475  2.1966  1.3132 -0.7130
 5451TIP3    H237989   2.608   5.806   7.494  0.6194  0.4470 -0.7394
 5452TIP3   OH237990   5.174   2.729   0.758 -0.1032  0.8012 -0.1342
 5452TIP3    H137991   5.159   2.791   0.686  0.1563  0.3896 -0.5518
 5452TIP3    H237992   5.088   2.691   0.775 -0.0175  0.2783 -0.8126
 5453TIP3   OH237993   6.618   4.082   1.284  0.2470 -0.1056 -0.4201
 5453TIP3    H137994   6.554   4.034   1.232  0.3158 -0.7214  0.0536
 5453TIP3    H237995   6.693   4.094   1.225  0.6795 -1.5832 -0.1946
 5454TIP3   OH237996   3.956   5.457   0.361 -0.0904 -0.3567  0.3584
 5454TIP3    H137997   3.954   5.404   0.281  2.0370 -2.0588  1.3274
 5454TIP3    H237998   3.992   5.541   0.333  0.8482 -1.0118 -0.4521
 5455TIP3   OH237999   2.087   1.759   0.181 -0.2313  0.1254 -0.7594
 5455TIP3    H138000   2.003   1.783   0.221 -0.7500  0.3132 -1.9185
 5455TIP3    H238001   2.065   1.695   0.114  0.4766  0.5942 -1.4624
 5456TIP3   OH238002   3.081   1.751   8.290 -0.1247 -0.5463  0.1152
 5456TIP3    H138003   3.148   1.752   8.359  0.2657  1.1976 -0.2380
 5456TIP3    H238004   3.053   1.660   8.286  2.1427 -1.3383  0.3617
 5457TIP3   OH238005   5.980   3.491   0.081  0.1658  0.3846 -0.2125
 5457TIP3    H138006   6.029   3.566   0.114 -0.4029  1.2351 -1.2322
 5457TIP3    H238007   5.951   3.517  -0.007 -0.0633 -1.0194 -0.5894
 5458TIP3   OH238008   6.653   5.816   0.455 -0.5970 -0.5875  0.2287
 5458TIP3    H138009   6.612   5.748   0.401 -0.2330 -1.0706  0.5648
 5458TIP3    H238010   6.680   5.772   0.535  1.2690 -0.4481 -0.2777
 5459TIP3   OH238011   1.138   6.566   0.356 -0.1759  0.7053 -0.0598
 5459TIP3    H138012   1.062   6.533   0.309 -0.1750  2.7159 -1.6458
 5459TIP3    H238013   1.214   6.530   0.310 -0.1659  0.8313 -0.1412
 5460TIP3   OH238014   3.328   2.964   8.193  0.6477 -0.2132 -0.7924
 5460TIP3    H138015   3.270   2.963   8.269 -0.6978 -0.7939 -1.7870
 5460TIP3    H238016   3.400   2.905   8.216 -0.2770 -1.1853 -0.3612
 5461TIP3   OH238017   6.735   3.949   0.529  0.3303 -0.1075 -0.6641
 5461TIP3    H138018   6.784   3.876   0.567  1.0555  1.5016  1.6884
 5461TIP3    H238019   6.643   3.925   0.542  0.5237 -1.2222 -1.2421
 5462TIP3   OH238020   4.352   3.329   1.228 -0.2519  0.1393  0.0655
 5462TIP3    H138021   4.270   3.364   1.262  1.0006  3.6178 -0.1586
 5462TIP3    H238022   4.328   3.243   1.192 -3.8933  1.2575 -0.5549
 5463TIP3   OH238023   2.422   0.073   6.553  0.1698 -0.3042 -1.0394
 5463TIP3    H138024   2.485   0.019   6.506  1.4845  0.3442 -0.0797
 5463TIP3    H238025   2.465   0.094   6.635 -1.6359 -0.4935  0.0063
 5464TIP3   OH238026   0.065   5.208   0.605  0.1274 -0.0570 -0.0432
 5464TIP3    H138027   0.103   5.236   0.522 -0.0270  0.9726  0.2205
 5464TIP3    H238028   0.035   5.118   0.589  1.1714 -0.2978 -0.7370
 5465TIP3   OH238029   1.572   1.469   0.293  0.1724  0.1458 -0.2564
 5465TIP3    H138030   1.486   1.435   0.316  0.7034 -0.9356  0.1835
 5465TIP3    H238031   1.580   1.550   0.345 -0.2189 -0.2260  0.3987
 5466TIP3   OH238032   1.886   1.088   7.636 -0.1624 -0.1907  0.4248
 5466TIP3    H138033   1.935   1.080   7.717 -1.0901 -0.5936  0.9612
 5466TIP3    H238034   1.795   1.072   7.661 -0.3612 -1.2279 -0.8330
 5467TIP3   OH238035   6.572   5.451   6.305 -0.2053  0.1892  0.0098
 5467TIP3    H138036   6.628   5.405   6.243 -0.9965  0.0659 -0.6321
 5467TIP3    H238037   6.557   5.389   6.376 -0.4508 -0.1883 -0.3675
 5468TIP3   OH238038   4.839   2.079   0.308 -0.4441 -0.7440 -0.1018
 5468TIP3    H138039   4.890   2.159   0.321 -0.3377 -0.5466 -1.5853
 5468TIP3    H238040   4.788   2.096   0.228 -1.9932 -1.3681  0.7177
 5469TIP3   OH238041   2.161   5.501   7.728  0.3717  0.3905  0.2683
 5469TIP3    H138042   2.186   5.489   7.820  0.3210  0.1445  0.2515
 5469TIP3    H238043   2.096   5.571   7.729  0.1108  0.1484  0.4614
 5470TIP3   OH238044   3.900   0.495   7.615 -0.1635  0.2264 -0.2300
 5470TIP3    H138045   3.940   0.560   7.556  1.2869 -0.9429 -0.6092
 5470TIP3    H238046   3.868   0.546   7.689  0.5308  1.4292 -0.7233
 5471TIP3   OH238047   6.424   4.294   8.315  0.1893  0.0097 -0.1332
 5471TIP3    H138048   6.359   4.229   8.339 -0.6327  0.7678 -0.2366
 5471TIP3    H238049   6.375   4.359   8.264  1.0295  0.5735 -0.2391
 5472TIP3   OH238050   6.391   5.069   6.811 -0.1663 -0.1687 -0.5157
 5472TIP3    H138051   6.391   4.976   6.788  2.8575 -0.3464 -0.1489
 5472TIP3    H238052   6.354   5.073   6.898 -2.4534 -0.6913 -1.4004
 5473TIP3   OH238053   0.974   2.236   0.032  0.2092 -0.3654 -0.1096
 5473TIP3    H138054   0.910   2.255  -0.037 -1.8171 -1.4648  1.3612
 5473TIP3    H238055   0.962   2.143   0.051  0.2132  0.0387  2.1567
 5474TIP3   OH238056   4.930   0.495   6.617 -0.2871 -0.2379 -0.0819
 5474TIP3    H138057   4.889   0.521   6.700  1.3814  1.1666  0.3479
 5474TIP3    H238058   4.946   0.401   6.628 -1.6190 -0.4294  0.4850
 5475TIP3   OH238059   3.251   6.744   0.597 -0.2004 -0.6631 -0.3138
 5475TIP3    H138060   3.158   6.762   0.588 -0.2720 -1.7967 -2.3267
 5475TIP3    H238061   3.279   6.717   0.510  1.9981 -0.4799  0.2750
 5476TIP3   OH238062   5.543   4.442   0.440  0.6117  0.1039  0.3543
 5476TIP3    H138063   5.506   4.524   0.407  1.8641  0.7743  0.5459
 5476TIP3    H238064   5.535   4.381   0.366  2.3709  1.2744 -0.8948
 5477TIP3   OH238065   6.257   4.526   1.382  0.3506 -0.8074  0.2326
 5477TIP3    H138066   6.345   4.488   1.394  0.4110 -0.4134  1.1345
 5477TIP3    H238067   6.214   4.513   1.467 -0.6783 -1.5170 -0.3740
 5478TIP3   OH238068   3.958   4.412   7.410  0.1514  0.4248  0.2776
 5478TIP3    H138069   3.909   4.494   7.410 -1.4642 -0.4213  2.4494
 5478TIP3    H238070   4.042   4.434   7.451  0.7599  1.4467 -1.4341
 5479TIP3   OH238071   5.668   3.924   3.166  0.5517 -0.1747 -0.2747
 5479TIP3    H138072   5.592   3.872   3.192 -0.2297 -0.0095 -2.1260
 5479TIP3    H238073   5.704   3.878   3.091  3.3000 -1.1384  1.4756
 5480TIP3   OH238074   1.404   6.111   1.590 -0.1515  0.1553  0.1639
 5480TIP3    H138075   1.408   6.206   1.599  1.4741  0.1589 -0.2427
 5480TIP3    H238076   1.397   6.079   1.680  1.3825  0.6173  0.4792
 5481TIP3   OH238077   5.344   3.490   7.230 -0.0389 -0.2343  0.3356
 5481TIP3    H138078   5.336   3.431   7.154 -1.2660 -0.8692  0.9376
 5481TIP3    H238079   5.292   3.567   7.206  0.3756 -0.0116  0.1417
 5482TIP3   OH238080   3.431   0.458   0.149 -0.2537  0.1920 -0.3668
 5482TIP3    H138081   3.450   0.392   0.082 -2.2169 -0.6138 -0.2151
 5482TIP3    H238082   3.364   0.417   0.204 -0.6625  1.8749  0.4630
 5483TIP3   OH238083   3.396   1.242   1.278  0.6872 -0.2394 -0.1882
 5483TIP3    H138084   3.489   1.253   1.259  0.4536  1.1052 -0.6733
 5483TIP3    H238085   3.364   1.182   1.211  1.3147 -1.1937  0.3477
 5484TIP3   OH238086   6.836   5.164   7.099  0.0269  0.3991 -0.0145
 5484TIP3    H138087   6.857   5.138   7.010  4.1322  0.2530  0.7907
 5484TIP3    H238088   6.878   5.250   7.110 -0.0645  0.2556  1.8357
 5485TIP3   OH238089   6.493   4.252   0.917  0.2451  0.2970 -0.3639
 5485TIP3    H138090   6.491   4.156   0.914  0.6867  0.2684  0.1408
 5485TIP3    H238091   6.404   4.278   0.893 -0.4040 -0.3004  1.2443
 5486TIP3   OH238092   1.140   2.557   8.167 -0.0755 -0.4207  0.5539
 5486TIP3    H138093   1.186   2.637   8.139 -0.4393 -0.5310 -0.3854
 5486TIP3    H238094   1.053   2.588   8.191 -0.2350 -0.5379  0.1335
 5487TIP3   OH238095   2.144   4.510   1.716  0.4098  0.0155 -0.5358
 5487TIP3    H138096   2.207   4.513   1.788  0.8759 -0.9655 -0.9007
 5487TIP3    H238097   2.067   4.555   1.752  0.5245 -0.7046  0.6839
 5488TIP3   OH238098   5.265   5.275   8.454 -0.3587  0.4932  0.0303
 5488TIP3    H138099   5.267   5.368   8.430  2.9475  0.4991 -0.1054
 5488TIP3    H238100   5.246   5.230   8.371  0.1217  0.9621 -0.3412
 5489TIP3   OH238101   2.449   3.354   2.524 -0.2641 -0.0460  0.5136
 5489TIP3    H138102   2.356   3.365   2.545 -0.1730  0.9371  0.4569
 5489TIP3    H238103   2.483   3.299   2.595 -0.8830 -0.4292  0.5267
 5490TIP3   OH238104   0.933   5.452   1.280 -0.1199 -0.2055  0.6291
 5490TIP3    H138105   0.992   5.387   1.241  0.0516 -1.4514  2.8033
 5490TIP3    H238106   0.988   5.498   1.343 -0.4670  1.5372 -0.2710
 5491TIP3   OH238107   4.590   4.042   8.071 -0.4356  0.5583 -0.0848
 5491TIP3    H138108   4.683   4.050   8.092 -0.4971  0.6360  0.1676
 5491TIP3    H238109   4.587   3.993   7.989 -0.1056  1.6563 -0.7827
 5492TIP3   OH238110   4.168   5.534   0.148  0.0162 -0.5247  0.1827
 5492TIP3    H138111   4.209   5.578   0.074  0.2690  0.5597  0.9507
 5492TIP3    H238112   4.160   5.601   0.215  0.2595 -1.6018  1.3385
 5493TIP3   OH238113   0.360   1.574   6.837 -0.5871 -0.0164  0.5957
 5493TIP3    H138114   0.389   1.586   6.746 -0.9153  1.1175  0.6366
 5493TIP3    H238115   0.264   1.569   6.831 -0.5950 -0.2133  0.8565
 5494TIP3   OH238116   3.732   6.301   0.201  0.1373 -0.2058 -0.5633
 5494TIP3    H138117   3.641   6.286   0.226  0.1526 -1.1735 -1.0550
 5494TIP3    H238118   3.775   6.216   0.212  1.1511  0.3897  0.3177
 5495TIP3   OH238119   2.446   2.379   8.579 -0.0563 -0.4679 -0.3136
 5495TIP3    H138120   2.360   2.357   8.614  0.9728 -1.4307  1.8620
 5495TIP3    H238121   2.470   2.460   8.625 -0.3350  0.5607 -1.9322
 5496TIP3   OH238122   2.434   4.784   0.669 -0.3502 -0.6043  0.5414
 5496TIP3    H138123   2.460   4.876   0.673 -2.3897  0.0662 -0.3429
 5496TIP3    H238124   2.477   4.750   0.591 -0.6058 -0.0194  0.1339
 5497TIP3   OH238125   1.959   3.705   1.349  0.0562  0.2338 -0.6981
 5497TIP3    H138126   1.906   3.655   1.412 -0.6559  0.2736 -1.2451
 5497TIP3    H238127   2.007   3.767   1.403 -1.5887  1.2165 -0.2769
 5498TIP3   OH238128   1.614   4.372   2.919 -0.6410  0.2578 -0.3941
 5498TIP3    H138129   1.556   4.436   2.876 -0.5265  0.2084 -0.6223
 5498TIP3    H238130   1.563   4.292   2.923  0.1059 -0.3782 -2.4288
 5499TIP3   OH238131   5.900   1.715   8.303  0.2018 -0.1665  0.1957
 5499TIP3    H138132   5.968   1.682   8.246 -0.1087  0.6323 -0.6634
 5499TIP3    H238133   5.924   1.807   8.319 -1.6058  0.7349 -1.6937
 5500TIP3   OH238134   1.898   5.242   1.409 -0.2543  0.1625 -0.0656
 5500TIP3    H138135   1.961   5.299   1.454 -0.5503  0.7849 -0.4327
 5500TIP3    H238136   1.941   5.221   1.326 -0.6138  0.7466 -0.3993
 5501TIP3   OH238137   4.572   4.923   7.900  0.1018  0.0390 -0.0234
 5501TIP3    H138138   4.636   4.958   7.962  1.6330  1.7978 -2.4157
 5501TIP3    H238139   4.590   4.829   7.897  0.8969  0.1324  1.1522
 5502TIP3   OH238140   6.524   0.832   8.212 -0.9379  0.3729  0.3511
 5502TIP3    H138141   6.589   0.812   8.280 -0.7442  0.5984  0.2339
 5502TIP3    H238142   6.503   0.748   8.173 -1.5353  0.1445  1.1259
 5503TIP3   OH238143   1.765   2.079   2.115 -0.4435 -0.3862  0.1128
 5503TIP3    H138144   1.765   2.155   2.174  1.1110  0.5575 -1.0133
 5503TIP3    H238145   1.834   2.022   2.150 -0.2306 -0.3119 -0.1772
 5504TIP3   OH238146   5.413   3.060   1.047  0.1507 -0.2871 -0.2705
 5504TIP3    H138147   5.455   2.997   0.989 -2.1402 -1.6344 -0.5776
 5504TIP3    H238148   5.446   3.038   1.134  1.4783 -0.0577 -0.6897
 5505TIP3   OH238149   5.729   5.170   7.746  0.1661 -0.2736 -0.3455
 5505TIP3    H138150   5.681   5.140   7.824 -0.3577 -0.3568 -0.6951
 5505TIP3    H238151   5.665   5.223   7.698  0.6955  0.3269 -0.3842
 5506TIP3   OH238152   1.402   5.412   2.401  0.4988 -0.1930  0.2279
 5506TIP3    H138153   1.341   5.382   2.468  0.2275 -2.3428 -0.8909
 5506TIP3    H238154   1.470   5.345   2.398  0.6118 -0.0505 -1.4981
 5507TIP3   OH238155   4.482   2.368   7.907  0.3631 -1.2314  0.1116
 5507TIP3    H138156   4.505   2.300   7.971 -1.3468 -2.2411 -0.2870
 5507TIP3    H238157   4.446   2.320   7.833 -1.7375  0.1382  0.1796
 5508TIP3   OH238158   4.776   1.320   1.235 -0.4218 -0.7539 -0.2339
 5508TIP3    H138159   4.837   1.333   1.163 -0.0473 -2.2336 -0.2215
 5508TIP3    H238160   4.831   1.316   1.313 -0.7765  0.2741  0.0921
 5509TIP3   OH238161   2.676   1.241   5.871  0.2910 -0.2377  0.1885
 5509TIP3    H138162   2.740   1.258   5.940  0.2067 -1.2518  0.5398
 5509TIP3    H238163   2.699   1.301   5.801  0.2476  0.9662  1.1818
 5510TIP3   OH238164   1.265   1.666   1.622  0.5131 -0.0224  0.3114
 5510TIP3    H138165   1.278   1.603   1.692  0.8409 -1.8202 -1.2905
 5510TIP3    H238166   1.271   1.615   1.542  0.8079  2.0581 -1.0845
 5511TIP3   OH238167   1.227   0.638   1.669 -0.1946 -0.2489 -0.3368
 5511TIP3    H138168   1.132   0.649   1.675  0.0338  2.4256 -0.4418
 5511TIP3    H238169   1.263   0.715   1.712  1.9135 -0.0536 -2.2610
 5512TIP3   OH238170   2.669   5.878   0.030 -0.1194  0.4089  0.3095
 5512TIP3    H138171   2.590   5.933   0.029 -0.6815 -0.3625  1.2763
 5512TIP3    H238172   2.682   5.856   0.122  0.2146 -0.9054 -0.0370
 5513TIP3   OH238173   6.819   2.276   8.547  0.0036  0.4302 -0.3311
 5513TIP3    H138174   6.909   2.251   8.525 -0.1879 -3.1024  2.0470
 5513TIP3    H238175   6.819   2.283   8.643 -2.4334 -0.9667 -0.1361
 5514TIP3   OH238176   4.695   4.052   2.486 -0.3342  0.1606 -0.3831
 5514TIP3    H138177   4.668   4.103   2.563  1.0517 -2.5439  2.0530
 5514TIP3    H238178   4.614   4.040   2.436 -1.4340  1.3350  1.0293
 5515TIP3   OH238179   2.431   1.172   7.546  0.2358  0.1373  0.4772
 5515TIP3    H138180   2.480   1.096   7.575  0.6069 -0.2058 -0.9789
 5515TIP3    H238181   2.492   1.245   7.555  0.8291 -0.1965 -0.7845
 5516TIP3   OH238182   0.842   4.216   8.008  0.0954  0.6245  0.6327
 5516TIP3    H138183   0.925   4.187   8.046 -0.6787 -0.6299  1.4636
 5516TIP3    H238184   0.791   4.135   7.998  0.1827  0.8649 -3.0465
 5517TIP3   OH238185   2.386   1.757   6.626 -0.0508 -0.1897 -0.1934
 5517TIP3    H138186   2.481   1.754   6.632  0.0542  1.7806 -0.2171
 5517TIP3    H238187   2.369   1.814   6.551 -1.1686  2.9809  2.2570
 5518TIP3   OH238188   6.143   2.914   8.250  0.0729 -0.1799 -0.1244
 5518TIP3    H138189   6.106   2.984   8.303  0.8925 -0.2777  0.5959
 5518TIP3    H238190   6.137   2.946   8.160 -0.2403  0.4913  0.1311
 5519TIP3   OH238191   1.860   2.251   1.191  0.1158  0.1660 -1.0169
 5519TIP3    H138192   1.841   2.341   1.219 -0.1557  0.5909 -2.4960
 5519TIP3    H238193   1.912   2.261   1.111  1.5918 -1.0092 -0.2598
 5520TIP3   OH238194   1.343   5.508   0.060  0.3179  0.2313  0.1334
 5520TIP3    H138195   1.438   5.497   0.048  0.8549  3.2024  0.8945
 5520TIP3    H238196   1.312   5.541  -0.024  0.0760 -0.1255  0.0829
 5521TIP3   OH238197   3.908   3.409   8.341 -0.0235  0.1224 -0.0114
 5521TIP3    H138198   3.958   3.489   8.322  0.8974 -0.5474 -0.5133
 5521TIP3    H238199   3.973   3.348   8.374 -0.8041 -0.2775  0.8088
 5522TIP3   OH238200   2.120   1.076   6.820 -0.7589 -0.1421 -0.1208
 5522TIP3    H138201   2.124   0.993   6.772  0.0993  0.5682 -1.3671
 5522TIP3    H238202   2.057   1.061   6.890 -1.2523 -1.5822 -0.8305
 5523TIP3   OH238203   0.487   2.432   1.557  0.1401  0.0437  0.4561
 5523TIP3    H138204   0.444   2.508   1.594  0.2667  0.9155 -1.0953
 5523TIP3    H238205   0.494   2.370   1.629 -0.1873  1.3995  1.6848
 5524TIP3   OH238206   1.531   4.370   0.898  0.3848  0.1089 -0.2176
 5524TIP3    H138207   1.463   4.393   0.835  0.7224  0.1687 -0.5582
 5524TIP3    H238208   1.608   4.351   0.845  0.2693 -1.2837  0.0809
 5525TIP3   OH238209   1.877   2.855   7.615 -0.1464 -0.5571  0.0902
 5525TIP3    H138210   1.795   2.874   7.661 -0.8159 -0.8801 -0.9250
 5525TIP3    H238211   1.945   2.878   7.678 -0.9651  1.4612  0.3323
 5526TIP3   OH238212   4.236   4.130   1.375 -0.2646  0.1467 -0.0773
 5526TIP3    H138213   4.169   4.180   1.330  0.0412 -1.4359 -2.5028
 5526TIP3    H238214   4.196   4.044   1.389  0.6195 -0.2458  0.1030
 5527TIP3   OH238215   2.291   1.178   7.318 -0.5628  0.4764  0.1637
 5527TIP3    H138216   2.213   1.125   7.327  0.2645 -0.7189  0.5025
 5527TIP3    H238217   2.336   1.168   7.402  0.6710 -0.0229 -0.5390
 5528TIP3   OH238218   3.549   6.475   8.476  0.0851 -0.1351  0.2557
 5528TIP3    H138219   3.554   6.523   8.393  0.2543 -1.2048 -0.3730
 5528TIP3    H238220   3.483   6.522   8.527 -0.3491  0.2845 -0.6644
 5529TIP3   OH238221   6.611   0.370   7.169  0.1113  0.2417  0.1665
 5529TIP3    H138222   6.678   0.384   7.236  0.2451 -0.1509  0.1168
 5529TIP3    H238223   6.594   0.276   7.170 -0.3024  0.3114  0.0451
 5530TIP3   OH238224   4.125   5.650   6.960  0.0958  0.1163  0.6353
 5530TIP3    H138225   4.058   5.585   6.941 -0.4998  0.2439  2.2036
 5530TIP3    H238226   4.087   5.733   6.930  0.4667 -0.0939 -0.4750
 5531TIP3   OH238227   1.778   3.393   6.386 -0.2758  0.3917  1.0511
 5531TIP3    H138228   1.715   3.378   6.316 -0.9104  0.4500  1.5890
 5531TIP3    H238229   1.729   3.372   6.466  0.2428  0.8909  1.5074
 5532TIP3   OH238230   3.039   1.970   8.569  0.3449 -0.3460  0.1538
 5532TIP3    H138231   3.009   1.883   8.593 -0.9219 -0.1364 -0.5630
 5532TIP3    H238232   2.961   2.012   8.531  1.3674  0.4920 -1.0761
 5533TIP3   OH238233   4.999   5.558   6.806 -0.2531 -0.1339 -0.4339
 5533TIP3    H138234   5.089   5.592   6.806 -0.1546 -0.3199  1.0170
 5533TIP3    H238235   4.944   5.636   6.814 -0.1243 -0.1500  0.6844
 5534TIP3   OH238236   2.617   1.482   2.214  0.0412  0.2147  0.1279
 5534TIP3    H138237   2.597   1.575   2.202  1.3250  0.4890 -0.0013
 5534TIP3    H238238   2.664   1.457   2.135  1.9850  0.1464  1.2383
 5535TIP3   OH238239   3.603   3.335   8.629  0.4718  0.0656 -0.2799
 5535TIP3    H138240   3.558   3.260   8.666  3.1855 -1.9640 -0.7866
 5535TIP3    H238241   3.611   3.316   8.535 -0.0578  1.7019 -0.6923
 5536TIP3   OH238242   2.683   5.551   0.967 -0.0385 -0.4280  0.0517
 5536TIP3    H138243   2.645   5.534   1.053  1.0664  3.8913  1.6225
 5536TIP3    H238244   2.777   5.555   0.983  0.1198  1.5369 -1.0685
 5537TIP3   OH238245   3.007   0.184   1.129 -0.0796  0.5488 -0.0796
 5537TIP3    H138246   3.068   0.210   1.060  0.8367  1.1964  0.9373
 5537TIP3    H238247   2.956   0.263   1.146  1.2429  1.1131  1.5215
 5538TIP3   OH238248   4.354   6.612   1.510 -0.2078 -0.1399  0.8333
 5538TIP3    H138249   4.324   6.590   1.599 -0.2342 -0.9897  0.6224
 5538TIP3    H238250   4.284   6.665   1.474 -0.8167 -0.9004  0.8622
 5539TIP3   OH238251   5.676   2.433   1.102  1.3034  0.7683 -0.1115
 5539TIP3    H138252   5.641   2.517   1.071 -3.3392  0.1805  2.5211
 5539TIP3    H238253   5.702   2.449   1.192 -0.5407 -0.6231  0.7586
 5540TIP3   OH238254   3.416   3.963   7.051 -0.2048  0.0326 -0.2910
 5540TIP3    H138255   3.433   3.951   6.958 -0.1097  0.8759 -0.3859
 5540TIP3    H238256   3.365   4.043   7.057 -2.1136 -1.1462  0.2070
 5541TIP3   OH238257   4.955   5.294   7.837  0.0900 -0.1255  0.6322
 5541TIP3    H138258   4.898   5.354   7.884 -0.5094 -0.3120  0.1462
 5541TIP3    H238259   4.921   5.292   7.748 -0.0036 -1.3179  0.6848
 5542TIP3   OH238260   5.883   0.468   0.109 -0.4212 -0.4768  0.9300
 5542TIP3    H138261   5.905   0.510   0.025 -0.8920  0.5726  1.3054
 5542TIP3    H238262   5.917   0.379   0.102  1.1561  0.1434  0.3175
 5543TIP3   OH238263   4.896   0.941   7.830  0.1085 -0.0785 -0.2690
 5543TIP3    H138264   4.947   0.984   7.899 -0.5620 -2.9756  2.2576
 5543TIP3    H238265   4.806   0.946   7.860 -0.1477 -1.7678 -0.6758
 5544TIP3   OH238266   1.659   0.236   1.212 -0.2754  0.2009 -0.1519
 5544TIP3    H138267   1.632   0.159   1.263 -1.4235  0.6887  0.0062
 5544TIP3    H238268   1.753   0.243   1.228 -0.6899  0.7660  2.5685
 5545TIP3   OH238269   2.906   6.619   1.107 -0.1979  0.3633 -0.1465
 5545TIP3    H138270   2.950   6.660   1.032  0.4434  0.9085  0.5096
 5545TIP3    H238271   2.868   6.539   1.072  0.8157  0.1818 -0.8714
 5546TIP3   OH238272   5.378   4.199   2.467 -0.0344 -0.0719  0.2118
 5546TIP3    H138273   5.310   4.147   2.423 -0.8515  0.0332  1.2996
 5546TIP3    H238274   5.342   4.287   2.470  0.5137  0.1585  0.0921
 5547TIP3   OH238275   1.361   5.229   8.523  0.2520  0.0562 -0.5798
 5547TIP3    H138276   1.267   5.211   8.522 -0.1324  1.6653 -2.9204
 5547TIP3    H238277   1.375   5.280   8.603 -0.6444 -1.0766  0.3241
 5548TIP3   OH238278   6.163   0.321   7.417 -0.0334 -0.6290 -0.2196
 5548TIP3    H138279   6.214   0.396   7.386 -2.3527  0.8622 -0.6750
 5548TIP3    H238280   6.154   0.336   7.511 -0.0564 -0.6253 -0.2222
 5549TIP3   OH238281   0.824   0.774   7.863  0.0379  0.1821 -0.3915
 5549TIP3    H138282   0.885   0.705   7.835  1.0447  0.7799  0.2490
 5549TIP3    H238283   0.815   0.830   7.786  0.9778  0.5532 -0.2448
 5550TIP3   OH238284   2.207   1.860   2.380 -0.1123 -0.1870 -0.5111
 5550TIP3    H138285   2.197   1.831   2.470  0.6881  0.3782 -0.2277
 5550TIP3    H238286   2.166   1.791   2.327 -3.1029  0.7547  0.3832
 5551TIP3   OH238287   4.621   5.095   1.924  0.1222 -0.4969 -0.7882
 5551TIP3    H138288   4.572   5.176   1.911 -0.3817 -0.8798 -1.3473
 5551TIP3    H238289   4.555   5.030   1.945  0.4144 -0.9542 -1.2486
 5552TIP3   OH238290   0.176   1.746   0.194 -0.9522  0.3925  0.1978
 5552TIP3    H138291   0.128   1.827   0.180 -1.3617  0.2232  0.5889
 5552TIP3    H238292   0.228   1.762   0.273  0.3244  0.8836 -0.7290
 5553TIP3   OH238293   1.633   6.774   2.533  0.1535  0.1471 -0.4185
 5553TIP3    H138294   1.721   6.779   2.571  0.0994  1.6457 -0.4295
 5553TIP3    H238295   1.646   6.733   2.448  0.6735 -0.6610  0.0355
 5554TIP3   OH238296   1.125   2.894   0.962 -0.1540  0.1181  0.0114
 5554TIP3    H138297   1.179   2.958   1.009  0.9860 -0.3757 -0.5706
 5554TIP3    H238298   1.051   2.945   0.928 -0.1363  0.7932  0.9297
 5555TIP3   OH238299   0.519   0.161   6.500 -0.4423  0.5263 -0.3021
 5555TIP3    H138300   0.443   0.211   6.470 -0.7115  0.0041 -0.4868
 5555TIP3    H238301   0.587   0.227   6.512 -1.1252  1.0976  0.5408
 5556TIP3   OH238302   0.246   3.148   7.577  0.0383  0.3158 -0.0714
 5556TIP3    H138303   0.204   3.234   7.580  1.8543  1.3033 -0.9471
 5556TIP3    H238304   0.314   3.157   7.510 -2.2505 -3.0066 -3.3446
 5557TIP3   OH238305   6.570   1.661   6.604  0.1225  0.1038 -0.1505
 5557TIP3    H138306   6.649   1.609   6.618 -0.1383 -0.8520 -2.0098
 5557TIP3    H238307   6.564   1.671   6.509 -2.5462 -0.7359 -0.1467
 5558TIP3   OH238308   4.861   4.067   1.664 -0.2865 -0.1752  0.2209
 5558TIP3    H138309   4.913   4.082   1.586 -0.9564  1.5815  0.0782
 5558TIP3    H238310   4.832   3.976   1.657 -0.0644 -0.1408 -1.4040
 5559TIP3   OH238311   6.145   3.357   0.303 -0.2677 -0.4155 -1.0111
 5559TIP3    H138312   6.085   3.411   0.252 -1.5545  0.1705  0.9999
 5559TIP3    H238313   6.172   3.412   0.376 -1.3106 -2.2840  0.9032
 5560TIP3   OH238314   5.579   6.287   2.119  0.2097 -0.0090 -0.6829
 5560TIP3    H138315   5.493   6.246   2.117  0.2360 -0.1101 -0.0901
 5560TIP3    H238316   5.580   6.335   2.202  1.7867 -2.4188  0.8472
 5561TIP3   OH238317   2.426   0.810   1.685 -0.0963  0.3158 -0.0695
 5561TIP3    H138318   2.381   0.890   1.713 -0.3281  0.0385  0.3638
 5561TIP3    H238319   2.513   0.816   1.725  0.4526  1.0912 -1.3137
 5562TIP3   OH238320   1.205   3.627   0.111  0.1686  0.2536 -0.1303
 5562TIP3    H138321   1.127   3.608   0.164  0.1880  1.5278  0.3967
 5562TIP3    H238322   1.211   3.554   0.049 -2.1598  0.7482 -1.0191
 5563TIP3   OH238323   4.056   1.552   8.226  0.0021 -0.5381  0.3378
 5563TIP3    H138324   4.105   1.598   8.293 -0.0388 -1.1795  0.8192
 5563TIP3    H238325   4.119   1.493   8.186  0.3143  0.6348 -0.9783
 5564TIP3   OH238326   3.910   3.239   1.928 -0.1281  0.5279  0.7067
 5564TIP3    H138327   3.950   3.200   2.005  2.4862  4.1958  1.4725
 5564TIP3    H238328   3.984   3.259   1.870 -1.9311 -1.4584 -2.5651
 5565TIP3   OH238329   0.562   3.180   0.189  0.1039 -0.2177  0.2016
 5565TIP3    H138330   0.633   3.235   0.223 -0.3251  0.6339 -0.2557
 5565TIP3    H238331   0.529   3.134   0.266  0.4513  0.1777  0.5970
 5566TIP3   OH238332   5.623   3.894   8.344 -0.2354  0.7416 -0.7835
 5566TIP3    H138333   5.572   3.888   8.264 -0.8898  1.0367 -0.3980
 5566TIP3    H238334   5.560   3.879   8.415  0.1243  1.4888 -0.2836
 5567TIP3   OH238335   6.555   4.962   7.169  0.9017 -0.7526  0.3707
 5567TIP3    H138336   6.643   4.954   7.208  1.9669  0.1541 -1.6906
 5567TIP3    H238337   6.556   4.900   7.095  0.3655  0.3373 -0.5777
 5568TIP3   OH238338   1.007   3.929   7.722 -0.1077  0.1460 -0.0716
 5568TIP3    H138339   0.949   3.950   7.796  0.3352  0.8893  0.0692
 5568TIP3    H238340   1.057   3.853   7.752 -1.2676 -0.7586 -0.3418
 5569TIP3   OH238341   4.125   5.452   1.730  0.6269 -0.0228 -0.4222
 5569TIP3    H138342   4.180   5.448   1.808  0.6082  1.1041 -0.3411
 5569TIP3    H238343   4.186   5.447   1.657  0.5503 -2.9124 -0.4308
 5570TIP3   OH238344   1.684   5.344   0.849  0.2093 -0.1085 -0.1228
 5570TIP3    H138345   1.594   5.344   0.817  0.0904 -0.1899  0.2067
 5570TIP3    H238346   1.725   5.420   0.807  0.2367 -0.5806 -0.9650
 5571TIP3   OH238347   3.526   3.002   1.204  0.2693 -0.5359 -0.1783
 5571TIP3    H138348   3.530   3.082   1.151  0.8271 -0.4896 -0.0795
 5571TIP3    H238349   3.599   2.950   1.172  0.3694 -0.6779  0.2777
 5572TIP3   OH238350   5.172   1.035   6.579  0.1272  0.6217  0.4630
 5572TIP3    H138351   5.121   0.961   6.548  0.6407 -0.7840  2.7102
 5572TIP3    H238352   5.125   1.066   6.657  0.6172  1.8172  0.3007
 5573TIP3   OH238353   6.602   1.571   0.692 -0.0757 -0.0728  0.1297
 5573TIP3    H138354   6.589   1.639   0.758  0.3998  0.6713 -0.5331
 5573TIP3    H238355   6.638   1.497   0.742 -0.2352  0.2837  0.7940
 5574TIP3   OH238356   4.233   2.182   8.219  0.3714 -0.3999  0.2808
 5574TIP3    H138357   4.143   2.155   8.241 -0.0229 -0.7075 -1.5645
 5574TIP3    H238358   4.279   2.181   8.303 -1.8458  1.8614  1.6535
 5575TIP3   OH238359   2.731   6.388   6.690 -0.3989  0.2515 -0.4817
 5575TIP3    H138360   2.686   6.471   6.705  0.2215  0.7498 -1.3352
 5575TIP3    H238361   2.821   6.404   6.716  0.2446  0.5436 -2.7130
 5576TIP3   OH238362   6.151   6.347   8.222  0.2074  0.2505  0.3296
 5576TIP3    H138363   6.168   6.438   8.196 -1.3701  0.1981 -1.0173
 5576TIP3    H238364   6.191   6.294   8.153  1.5626 -0.1418  1.3661
 5577TIP3   OH238365   6.862   5.610   8.295 -0.7699  0.3233 -0.3060
 5577TIP3    H138366   6.808   5.688   8.283 -1.2786  0.3664  1.9254
 5577TIP3    H238367   6.945   5.633   8.254 -1.5040  1.3251 -1.3023
 5578TIP3   OH238368   5.041   5.101   7.491  0.2706  0.3007 -0.4729
 5578TIP3    H138369   5.125   5.058   7.478  0.1400 -0.2968  0.5595
 5578TIP3    H238370   4.990   5.040   7.543  0.1156  1.7107  1.1401
 5579TIP3   OH238371   2.347   0.091   1.919 -0.2508 -0.0297 -0.1302
 5579TIP3    H138372   2.305   0.100   2.005 -0.5234  1.1367 -0.3668
 5579TIP3    H238373   2.304   0.015   1.880 -1.4476  0.5323  0.0429
 5580TIP3   OH238374   3.772   5.902   7.572 -0.2087  0.0781  0.4569
 5580TIP3    H138375   3.765   5.821   7.520  1.2425 -1.0245  1.8474
 5580TIP3    H238376   3.706   5.893   7.640 -1.2880  0.9550 -0.4457
 5581TIP3   OH238377   6.302   0.954   1.249  0.2086  0.3422 -0.3285
 5581TIP3    H138378   6.369   0.982   1.311 -0.0247 -0.7946  0.4824
 5581TIP3    H238379   6.307   1.017   1.178  1.3632  0.9358  0.2473
 5582TIP3   OH238380   4.578   2.774   1.641  0.6883  0.2386  0.0946
 5582TIP3    H138381   4.541   2.858   1.669 -1.1847  0.1376 -1.8501
 5582TIP3    H238382   4.669   2.794   1.620  1.1413  1.0706  2.5797
 5583TIP3   OH238383   0.287   6.691   7.916 -0.1942  0.1364 -0.2124
 5583TIP3    H138384   0.242   6.633   7.977 -0.0407  0.8285  0.5889
 5583TIP3    H238385   0.235   6.771   7.917  0.0305  0.2923 -0.6992
 5584TIP3   OH238386   2.891   5.814   7.947  0.0805 -0.4802 -0.2435
 5584TIP3    H138387   2.931   5.891   7.987  1.5420 -0.7462 -1.1360
 5584TIP3    H238388   2.864   5.760   8.022 -2.5016  1.5523  0.4584
 5585TIP3   OH238389   5.069   5.031   0.951 -0.1483  0.0521  0.0617
 5585TIP3    H138390   4.997   5.091   0.932 -0.8731 -1.3756 -1.9730
 5585TIP3    H238391   5.038   4.945   0.924  3.0844 -0.3260 -3.3065
 5586TIP3   OH238392   5.807   6.680   1.312  0.4625 -0.3113 -0.3026
 5586TIP3    H138393   5.887   6.649   1.355  1.3775  1.1727 -0.8345
 5586TIP3    H238394   5.759   6.601   1.288  0.9594 -1.2034  1.5131
 5587TIP3   OH238395   0.575   3.138   1.622 -0.0222  0.4245  0.2232
 5587TIP3    H138396   0.651   3.194   1.637  0.5778  0.1657 -1.5662
 5587TIP3    H238397   0.512   3.163   1.689  0.1822  3.3116 -0.5602
 5588TIP3   OH238398   0.627   1.532   0.997  0.0984 -0.1228 -0.1133
 5588TIP3    H138399   0.598   1.535   1.088  0.6374 -3.0660  0.2544
 5588TIP3    H238400   0.709   1.484   0.999  0.6223  0.5822 -2.0718
 5589TIP3   OH238401   0.995   5.587   2.054 -0.4958 -0.1156 -0.8567
 5589TIP3    H138402   1.009   5.497   2.083  0.0754 -0.1677 -1.2670
 5589TIP3    H238403   0.913   5.584   2.005 -1.7679  0.0876  1.1744
 5590TIP3   OH238404   2.079   3.367   1.654 -0.3651 -0.0015 -0.1916
 5590TIP3    H138405   2.138   3.403   1.588 -0.9155 -1.4266 -1.5169
 5590TIP3    H238406   2.136   3.343   1.727  0.5016 -0.0395 -0.8688
 5591TIP3   OH238407   2.694   6.304   1.286  0.3550 -0.6715 -0.4456
 5591TIP3    H138408   2.717   6.397   1.279 -2.4521  0.0588 -1.4542
 5591TIP3    H238409   2.725   6.278   1.372  1.1495  1.2279 -0.1041
 5592TIP3   OH238410   1.700   1.606   7.900  0.3318 -0.0382  0.0710
 5592TIP3    H138411   1.765   1.598   7.969 -0.0533 -0.5728  0.3834
 5592TIP3    H238412   1.645   1.679   7.928  1.2261  0.8992 -0.5657
 5593TIP3   OH238413   2.997   4.786   0.649  0.5647 -0.2565  0.3648
 5593TIP3    H138414   3.077   4.772   0.599  1.6295  2.6278  1.0415
 5593TIP3    H238415   3.027   4.807   0.737 -1.0432 -0.5470  1.0171
 5594TIP3   OH238416   3.171   0.543   0.944 -0.1446  0.3519  0.8197
 5594TIP3    H138417   3.170   0.635   0.918 -0.9601 -0.2199 -1.3598
 5594TIP3    H238418   3.253   0.509   0.910 -0.1516  0.1218  1.0308
 5595TIP3   OH238419   2.988   5.974   8.156 -0.3370 -0.0553 -0.1515
 5595TIP3    H138420   2.952   5.961   8.243 -1.7050 -1.1559 -0.8493
 5595TIP3    H238421   2.987   6.069   8.144 -0.4405  0.0856  0.8956
 5596TIP3   OH238422   5.050   5.565   0.790 -0.1666 -0.5431  0.1418
 5596TIP3    H138423   5.146   5.556   0.791 -0.2468 -1.7413  2.0909
 5596TIP3    H238424   5.022   5.531   0.875 -2.3023  0.2863 -0.1730
 5597TIP3   OH238425   3.371   6.293   8.274 -0.0859 -0.2775 -0.1827
 5597TIP3    H138426   3.450   6.269   8.322  0.5362  2.9684  0.6543
 5597TIP3    H238427   3.301   6.284   8.339 -0.4582 -2.8611 -0.8412
 5598TIP3   OH238428   3.497   6.604   0.951 -0.7224 -0.2475  0.4925
 5598TIP3    H138429   3.517   6.634   1.039 -0.1559  1.8178 -0.2681
 5598TIP3    H238430   3.458   6.681   0.908  1.1916 -0.3976 -1.7232
 5599TIP3   OH238431   5.146   5.566   7.727  0.8981  0.3148  0.0121
 5599TIP3    H138432   5.220   5.533   7.777  1.0490  1.1713  0.3785
 5599TIP3    H238433   5.081   5.589   7.794  0.4108 -0.1652 -0.2902
 5600TIP3   OH238434   6.264   6.399   0.667  0.0367  0.2310 -0.0990
 5600TIP3    H138435   6.240   6.310   0.692 -3.2529  0.3958 -2.1583
 5600TIP3    H238436   6.248   6.451   0.746  1.0643 -0.8068  0.8299
 5601TIP3   OH238437   2.164   5.299   0.718 -0.2009 -0.3472 -0.3368
 5601TIP3    H138438   2.077   5.338   0.705 -0.6793 -1.6087 -1.1168
 5601TIP3    H238439   2.215   5.330   0.644  0.2880  1.0346  0.5345
 5602TIP3   OH238440   2.917   0.907   8.387 -0.3564 -0.6788 -0.0808
 5602TIP3    H138441   2.961   0.936   8.467  1.0189  0.0876 -1.0801
 5602TIP3    H238442   2.901   0.987   8.337 -4.1273 -0.7158  0.7330
 5603TIP3   OH238443   4.239   0.865   2.131  0.0169 -0.0836 -0.4953
 5603TIP3    H138444   4.324   0.863   2.087 -1.1609 -0.1416 -2.9218
 5603TIP3    H238445   4.233   0.955   2.165  0.6984  0.1891 -1.0514
 5604TIP3   OH238446   2.375   3.640   0.602  0.0281  0.2007  0.0642
 5604TIP3    H138447   2.306   3.646   0.668 -1.7077  0.6891 -1.7046
 5604TIP3    H238448   2.335   3.675   0.523  2.6039  1.3001 -0.8413
 5605TIP3   OH238449   1.485   2.289   2.276 -0.6786  0.0824 -0.0613
 5605TIP3    H138450   1.436   2.364   2.309 -0.9421 -0.4212  0.7116
 5605TIP3    H238451   1.420   2.220   2.265 -0.8441  0.5534 -2.8237
 5606TIP3   OH238452   3.923   2.297   8.026 -0.8903 -0.2236 -0.3553
 5606TIP3    H138453   3.918   2.204   8.047  1.5179 -0.4517 -0.4767
 5606TIP3    H238454   3.890   2.341   8.104 -0.9819 -1.1776  0.1565
 5607TIP3   OH238455   5.455   2.552   2.735  0.4267  0.3161 -0.3225
 5607TIP3    H138456   5.486   2.462   2.750  1.0824  0.7106  0.7724
 5607TIP3    H238457   5.396   2.570   2.808 -1.4310  0.0426 -1.6932
 5608TIP3   OH238458   2.745   3.099   6.637 -0.0091 -0.1073  0.5545
 5608TIP3    H138459   2.720   3.036   6.570 -1.1608  1.1337 -0.2327
 5608TIP3    H238460   2.787   3.046   6.705  1.8727 -1.3403 -1.4161
 5609TIP3   OH238461   2.499   5.139   2.298  0.0783  0.0079 -0.6771
 5609TIP3    H138462   2.460   5.076   2.238 -3.3431  0.6076  0.6814
 5609TIP3    H238463   2.433   5.208   2.307  0.3972  0.0168  3.6298
 5610TIP3   OH238464   2.794   4.473   6.479  0.0296 -0.0017  0.1236
 5610TIP3    H138465   2.711   4.443   6.516 -0.1840 -1.0140 -1.1345
 5610TIP3    H238466   2.768   4.525   6.403  0.5223  0.7859  0.4799
 5611TIP3   OH238467   2.382   1.455   1.489 -0.2369 -0.1351 -0.4705
 5611TIP3    H138468   2.323   1.530   1.480  0.4092  0.3575 -0.6575
 5611TIP3    H238469   2.469   1.491   1.472  0.1255 -0.8439 -0.1451
 5612TIP3   OH238470   6.668   5.137   8.435  0.3459  0.0556  0.4325
 5612TIP3    H138471   6.711   5.205   8.486 -0.3713 -0.5133  1.8475
 5612TIP3    H238472   6.601   5.183   8.385  2.2020  0.8943 -1.4889
 5613TIP3   OH238473   3.987   1.176   8.028 -0.1382 -0.4786 -0.0821
 5613TIP3    H138474   3.918   1.217   8.080  1.6109 -1.7704  3.6001
 5613TIP3    H238475   3.949   1.093   7.999 -1.3800  0.5755 -1.6922
 5614TIP3   OH238476   3.702   0.921   0.969 -0.2055 -0.4075 -0.6418
 5614TIP3    H138477   3.624   0.890   1.016 -1.3505  0.7454 -1.7054
 5614TIP3    H238478   3.681   1.012   0.946  1.9424  0.3160  0.0539
 5615TIP3   OH238479   3.285   1.931   0.451  0.5967  0.3679 -0.0132
 5615TIP3    H138480   3.241   1.928   0.366 -1.4659  0.9660  0.9916
 5615TIP3    H238481   3.354   1.997   0.440  0.6667  0.1087 -1.3354
 5616TIP3   OH238482   0.808   2.522   8.075 -0.4984  0.1180  0.2404
 5616TIP3    H138483   0.889   2.552   8.034  0.6861  0.1096  2.4356
 5616TIP3    H238484   0.811   2.427   8.068 -1.6490  0.1739 -1.9590
 5617TIP3   OH238485   3.571   1.943   7.936  0.4224 -0.3013 -0.5107
 5617TIP3    H138486   3.542   1.865   7.890  2.5176 -2.8354  2.0157
 5617TIP3    H238487   3.491   1.986   7.966 -0.8001 -2.1844 -0.9477
 5618TIP3   OH238488   2.475   1.308   1.046  0.2181  0.4618  0.3549
 5618TIP3    H138489   2.416   1.333   1.118 -0.4947 -0.3272  0.0574
 5618TIP3    H238490   2.556   1.354   1.065  0.2039 -0.0907  1.9514
 5619TIP3   OH238491   4.496   0.121   6.945  0.4189  0.7731 -0.8028
 5619TIP3    H138492   4.492   0.139   7.039  2.0514  0.3860 -0.6130
 5619TIP3    H238493   4.416   0.073   6.926  0.6406 -0.2842  0.6829
 5620TIP3   OH238494   2.746   0.322   1.776 -0.4613  0.2490 -0.0097
 5620TIP3    H138495   2.739   0.405   1.822 -0.6228  0.2238  0.0129
 5620TIP3    H238496   2.656   0.287   1.775 -0.2636 -0.3140  0.7228
 5621TIP3   OH238497   0.139   4.250   7.553  0.3745 -0.1470  0.2650
 5621TIP3    H138498   0.211   4.193   7.526 -0.3794 -1.5076  1.0499
 5621TIP3    H238499   0.096   4.203   7.624 -0.9518  0.9004  0.1949
 5622TIP3   OH238500   2.051   5.866   7.483 -0.6583  0.3400  0.2787
 5622TIP3    H138501   2.077   5.951   7.448 -2.9501  0.8449 -0.3799
 5622TIP3    H238502   2.112   5.803   7.443 -0.4196  1.4159 -1.1137
 5623TIP3   OH238503   4.364   3.748   7.965  0.4001  0.3284 -0.3579
 5623TIP3    H138504   4.387   3.693   8.041 -1.7719 -0.7147 -0.3711
 5623TIP3    H238505   4.429   3.725   7.899  0.2051 -1.4754  0.0123
 5624TIP3   OH238506   6.313   5.416   1.775  0.0396  0.3086  0.1325
 5624TIP3    H138507   6.284   5.506   1.761  0.4937  0.0646 -3.1088
 5624TIP3    H238508   6.328   5.410   1.869 -1.1296  3.2463  0.6146
 5625TIP3   OH238509   5.861   6.282   1.895  0.3534  0.2236 -0.3291
 5625TIP3    H138510   5.835   6.190   1.892 -1.2130  0.6515 -1.6980
 5625TIP3    H238511   5.886   6.297   1.986  0.2622 -1.4607  0.0015
 5626TIP3   OH238512   2.924   1.413   2.652  0.4420  0.2657  0.3821
 5626TIP3    H138513   3.004   1.368   2.626 -0.2130 -0.2736 -0.7732
 5626TIP3    H238514   2.884   1.440   2.569 -0.9046 -0.0590  0.9033
 5627TIP3   OH238515   3.240   5.670   0.905  0.8132  0.7394  0.2066
 5627TIP3    H138516   3.228   5.675   1.000 -0.6353  1.0232  0.0198
 5627TIP3    H238517   3.181   5.736   0.870 -0.5390 -1.0394 -1.0204
 5628TIP3   OH238518   6.186   4.559   7.944 -0.0073 -0.0648 -0.8742
 5628TIP3    H138519   6.127   4.553   7.870  0.7320 -2.2291 -1.3576
 5628TIP3    H238520   6.274   4.557   7.905  0.3918 -1.1322  0.0216
 5629TIP3   OH238521   2.388   1.255   8.005 -0.7729  0.0316 -0.1262
 5629TIP3    H138522   2.340   1.238   7.924 -0.1330  0.7390 -0.6619
 5629TIP3    H238523   2.462   1.309   7.979 -0.5203  0.2239  0.9277
 5630TIP3   OH238524   5.009   4.078   8.531 -0.1675  0.0046  0.2890
 5630TIP3    H138525   4.932   4.025   8.510  0.1301  0.0513 -1.0132
 5630TIP3    H238526   4.975   4.168   8.532 -0.9465 -0.1852  3.7614
 5631TIP3   OH238527   0.139   4.151   1.076  0.1004 -0.1024 -0.3981
 5631TIP3    H138528   0.066   4.091   1.061  0.4806 -0.0785 -2.7295
 5631TIP3    H238529   0.098   4.237   1.085 -0.3495 -0.4909  1.5932
 5632TIP3   OH238530   5.999   2.353   1.912 -0.2698  0.6721 -0.5722
 5632TIP3    H138531   6.048   2.301   1.976 -0.7711  0.4546 -0.3635
 5632TIP3    H238532   5.933   2.294   1.877 -1.7626  1.5201  0.6893
 5633TIP3   OH238533   2.638   6.767   8.152 -0.1613  0.1361 -0.4635
 5633TIP3    H138534   2.621   6.835   8.087  1.6883 -0.0734 -1.2295
 5633TIP3    H238535   2.632   6.685   8.104 -0.5301 -0.1378  0.0380
 5634TIP3   OH238536   3.293   4.071   1.122 -0.3702 -0.3817 -0.1985
 5634TIP3    H138537   3.227   4.006   1.097 -0.4861 -1.5526  2.7253
 5634TIP3    H238538   3.242   4.150   1.143 -0.4961 -0.2245 -1.0571
 5635TIP3   OH238539   6.266   1.936   0.810 -0.2140 -0.1865  0.0014
 5635TIP3    H138540   6.219   2.019   0.802 -0.5138 -0.4746 -1.6450
 5635TIP3    H238541   6.284   1.927   0.904  1.6010  2.6810  0.0202
 5636TIP3   OH238542   2.574   1.226   2.437 -0.2157  0.4047  0.0640
 5636TIP3    H138543   2.492   1.237   2.391 -0.6678 -1.7745  0.2671
 5636TIP3    H238544   2.562   1.273   2.520 -1.0285  0.5655 -0.1438
 5637TIP3   OH238545   1.202   1.424   7.568  0.5331  0.2697  0.0664
 5637TIP3    H138546   1.268   1.479   7.611 -0.2199  0.9065  0.4439
 5637TIP3    H238547   1.126   1.429   7.626 -0.2907  0.6255 -1.0063
 5638TIP3   OH238548   2.642   3.435   8.239 -0.2496  0.3047  0.3786
 5638TIP3    H138549   2.687   3.367   8.288 -1.0246  0.6769  1.6724
 5638TIP3    H238550   2.573   3.465   8.298 -0.1526  1.9641 -0.2839
 5639TIP3   OH238551   0.520   1.922   7.982  0.3881  0.3027  0.5443
 5639TIP3    H138552   0.604   1.968   7.981 -0.1023  1.2665  1.7624
 5639TIP3    H238553   0.454   1.991   7.987 -0.5596 -0.3849 -1.2784
 5640TIP3   OH238554   5.870   1.040   1.977 -0.4937 -0.0708  0.3583
 5640TIP3    H138555   5.882   1.113   2.038 -1.2229 -0.3718  0.8674
 5640TIP3    H238556   5.892   0.962   2.027 -2.2122 -0.4259  0.6143
 5641TIP3   OH238557   3.267   6.446   0.999  0.9446 -0.4768 -0.1962
 5641TIP3    H138558   3.349   6.494   1.010  0.9089 -0.4740  0.0729
 5641TIP3    H238559   3.256   6.399   1.082 -0.5156  1.3431  0.7015
 5642TIP3   OH238560   6.538   4.047   7.666 -0.0118 -0.0129  0.0394
 5642TIP3    H138561   6.471   4.112   7.687 -0.0423  0.2275 -0.7844
 5642TIP3    H238562   6.614   4.098   7.641 -0.7564 -0.2133 -3.0067
 5643TIP3   OH238563   3.179   3.567   6.870 -0.0833 -0.4250 -0.3111
 5643TIP3    H138564   3.254   3.575   6.811  0.7270  0.2063  0.7593
 5643TIP3    H238565   3.158   3.474   6.871  1.3972 -0.7824  0.1911
 5644TIP3   OH238566   0.164   6.761   2.541 -0.0262 -0.1882 -0.3641
 5644TIP3    H138567   0.162   6.795   2.630  0.3375  0.4209 -0.5805
 5644TIP3    H238568   0.219   6.822   2.493 -0.1548 -0.5516 -0.9934
 5645TIP3   OH238569   3.764   0.200   8.452  0.0715 -0.1474  0.2737
 5645TIP3    H138570   3.823   0.275   8.460 -1.4638  0.9415  2.8112
 5645TIP3    H238571   3.818   0.130   8.416  1.5012  2.1968 -2.5939
 5646TIP3   OH238572   5.986   3.759   2.342  0.2529 -0.1986  0.3249
 5646TIP3    H138573   6.000   3.815   2.266 -1.7863  1.6277  1.1669
 5646TIP3    H238574   6.022   3.674   2.317 -0.5532  0.2478 -2.7894
 5647TIP3   OH238575   2.670   1.117   6.737  0.7330 -0.2164 -0.2909
 5647TIP3    H138576   2.586   1.072   6.735  0.6818 -0.1062 -1.2337
 5647TIP3    H238577   2.674   1.164   6.653  1.1114  0.9369  0.3465
 5648TIP3   OH238578   6.215   3.050   2.448 -0.3806 -0.2463  0.0528
 5648TIP3    H138579   6.187   3.002   2.370 -0.6545  1.2660 -0.8239
 5648TIP3    H238580   6.133   3.083   2.487 -0.0858  1.8402 -0.9554
 5649TIP3   OH238581   5.088   2.927   7.084 -0.0662 -0.2379 -0.3070
 5649TIP3    H138582   5.181   2.943   7.067  0.5715 -0.7344  2.2658
 5649TIP3    H238583   5.058   2.878   7.008  1.3088  1.3948 -2.0128
 5650TIP3   OH238584   6.106   6.487   7.198  0.1456  0.1342  0.5984
 5650TIP3    H138585   6.111   6.490   7.293 -1.4238  0.4448  0.6971
 5650TIP3    H238586   6.180   6.539   7.168  0.7060 -0.0537  1.6459
 5651TIP3   OH238587   1.348   1.148   7.446  0.3758 -0.1983  0.0175
 5651TIP3    H138588   1.443   1.152   7.461  0.6067 -1.8484 -0.7617
 5651TIP3    H238589   1.322   1.240   7.437  1.8038  0.3185  0.7652
 5652TIP3   OH238590   0.664   5.067   2.538 -0.0700  1.1001  0.4387
 5652TIP3    H138591   0.720   5.099   2.609  0.5786 -1.7640  1.3323
 5652TIP3    H238592   0.575   5.087   2.567  0.1925  0.1138  2.0664
 5653TIP3   OH238593   2.197   6.779   1.045 -0.8647  1.3510  0.1607
 5653TIP3    H138594   2.107   6.768   1.014 -1.3905  1.9990  1.3627
 5653TIP3    H238595   2.187   6.806   1.136  0.5392  2.3876  0.0331
 5654TIP3   OH238596   6.163   4.204   7.237  0.0031 -0.0867  0.2091
 5654TIP3    H138597   6.138   4.145   7.166  1.4070 -2.7406  1.7358
 5654TIP3    H238598   6.095   4.193   7.302  1.0049 -1.2841  1.1161
 5655TIP3   OH238599   1.342   4.830   0.972  0.1576 -0.5489 -0.1019
 5655TIP3    H138600   1.397   4.789   1.038  0.0238  0.8215  0.9005
 5655TIP3    H238601   1.390   4.820   0.890  0.4086 -2.1174  0.2043
 5656TIP3   OH238602   2.003   0.727   7.956 -0.5925 -0.0418 -0.3933
 5656TIP3    H138603   2.024   0.730   8.050  2.4806  0.4072 -0.9873
 5656TIP3    H238604   1.923   0.675   7.951 -0.0061 -1.4188  2.3615
 5657TIP3   OH238605   4.816   5.269   0.937 -0.3037  0.3906 -0.0664
 5657TIP3    H138606   4.741   5.230   0.981  0.0435 -0.0385  0.1513
 5657TIP3    H238607   4.792   5.268   0.844 -0.5539  0.2214 -0.0013
 5658TIP3   OH238608   4.329   3.116   1.939  0.1523  0.0321 -0.0554
 5658TIP3    H138609   4.277   3.059   1.996 -2.8584  2.0622 -0.5505
 5658TIP3    H238610   4.380   3.170   1.999 -0.6634  0.0885  0.6032
 5659TIP3   OH238611   4.513   3.798   0.484  0.2915  0.0388 -0.0499
 5659TIP3    H138612   4.429   3.836   0.458  0.8643  1.8030  0.5341
 5659TIP3    H238613   4.501   3.776   0.577  0.4218  0.1065 -0.0178
 5660TIP3   OH238614   2.568   4.698   1.437  0.0613 -0.0141  0.7647
 5660TIP3    H138615   2.567   4.789   1.407 -0.5410 -0.4506 -0.6216
 5660TIP3    H238616   2.512   4.699   1.515 -1.9597  0.4085 -0.6065
 5661TIP3   OH238617   0.889   2.258   6.928 -0.2670 -0.0731  0.4770
 5661TIP3    H138618   0.979   2.291   6.926 -0.6542  1.0087  0.4270
 5661TIP3    H238619   0.872   2.233   6.837 -0.9534  2.3948 -0.1375
 5662TIP3   OH238620   3.243   6.714   7.293  0.5581 -0.3225 -0.4854
 5662TIP3    H138621   3.150   6.734   7.306  1.4306  2.0985  3.8348
 5662TIP3    H238622   3.245   6.619   7.279 -2.5171 -0.5001 -0.4706
 5663TIP3   OH238623   2.304   0.183   8.190  0.6177 -0.2986  0.4699
 5663TIP3    H138624   2.243   0.155   8.121  0.5138  1.1071 -0.0462
 5663TIP3    H238625   2.381   0.126   8.178 -0.6947 -2.3652  1.3875
 5664TIP3   OH238626   4.064   2.548   0.871  0.5188  0.0483 -0.7224
 5664TIP3    H138627   3.979   2.588   0.890 -0.2896 -1.7380 -0.3612
 5664TIP3    H238628   4.084   2.497   0.949  1.7419  0.1049 -0.9755
 5665TIP3   OH238629   3.694   4.729   0.438  0.2906 -0.1689  0.4687
 5665TIP3    H138630   3.613   4.780   0.429  0.5065  0.2242  0.7322
 5665TIP3    H238631   3.666   4.649   0.482  0.0319 -0.0707  0.4887
 5666TIP3   OH238632   3.274   1.813   1.096 -0.1127 -0.5100  0.0198
 5666TIP3    H138633   3.305   1.868   1.025  1.0395 -0.6154  0.4207
 5666TIP3    H238634   3.331   1.834   1.170 -1.6906  0.0670  1.1185
 5667TIP3   OH238635   4.336   3.565   6.275 -0.0024  0.3477 -0.0835
 5667TIP3    H138636   4.365   3.646   6.317  1.5966 -1.4224  2.5734
 5667TIP3    H238637   4.404   3.546   6.210 -0.2158  0.9463 -0.4901
 5668TIP3   OH238638   2.210   4.964   7.268  0.0200 -0.3681  0.2492
 5668TIP3    H138639   2.300   4.994   7.284 -0.8842  2.9423 -0.2904
 5668TIP3    H238640   2.174   4.947   7.355  1.0062 -1.4508  0.4833
 5669TIP3   OH238641   3.532   2.197   0.908  0.3495  0.1194 -0.4036
 5669TIP3    H138642   3.614   2.152   0.924  0.3078  0.3613  0.6239
 5669TIP3    H238643   3.541   2.236   0.821  1.2718  0.0558 -0.3390
 5670TIP3   OH238644   3.553   3.744   8.493  0.2681 -0.1180 -0.1371
 5670TIP3    H138645   3.608   3.717   8.567 -2.2619 -1.8722  1.2916
 5670TIP3    H238646   3.497   3.812   8.529 -0.2640 -0.2263 -0.7540
 5671TIP3   OH238647   0.017   3.546   7.030 -0.0458  0.3695 -0.4356
 5671TIP3    H138648   0.074   3.491   6.976 -1.0456  0.1840 -1.3403
 5671TIP3    H238649   0.005   3.496   7.111  0.1984 -0.0847 -0.6760
 5672TIP3   OH238650   3.885   3.114   1.607  0.0257 -0.2755 -0.0841
 5672TIP3    H138651   3.875   3.095   1.514  1.0624  2.5470 -0.8871
 5672TIP3    H238652   3.796   3.116   1.641 -0.4966  0.3389 -1.4264
 5673TIP3   OH238653   6.033   5.389   1.178 -0.1633 -0.3007 -0.9534
 5673TIP3    H138654   5.960   5.346   1.133  1.1330 -1.6174 -1.8814
 5673TIP3    H238655   6.002   5.478   1.194 -1.6805 -0.5948 -2.0178
 5674TIP3   OH238656   0.911   4.609   1.458 -0.2335 -0.1472  0.3417
 5674TIP3    H138657   0.944   4.524   1.430  2.1424  0.5422  0.8020
 5674TIP3    H238658   0.969   4.635   1.530  1.0400  3.1098 -1.6343
 5675TIP3   OH238659   0.557   4.955   1.549 -0.2210  0.3381 -0.1603
 5675TIP3    H138660   0.493   4.999   1.605  0.8256  1.1851  0.4223
 5675TIP3    H238661   0.583   4.877   1.599  1.0709  1.3438  0.8312
 5676TIP3   OH238662   4.099   2.830   2.582  0.3133  0.0555  0.3137
 5676TIP3    H138663   4.053   2.747   2.568  1.6805 -0.8046  0.7683
 5676TIP3    H238664   4.154   2.815   2.659  0.9656  1.2261  0.1042
 5677TIP3   OH238665   4.837   5.682   1.650 -0.0106  0.3508 -0.1360
 5677TIP3    H138666   4.918   5.716   1.611  0.5190 -0.2307  0.4340
 5677TIP3    H238667   4.767   5.715   1.594  0.5760  1.4013 -0.2704
 5678TIP3   OH238668   6.078   2.490   0.540 -0.0449 -0.4532 -0.0605
 5678TIP3    H138669   6.075   2.414   0.481 -0.8735  0.5448 -1.3453
 5678TIP3    H238670   6.050   2.455   0.624 -1.8831 -1.2978 -0.9725
 5679TIP3   OH238671   1.620   1.839   1.659 -0.4933  0.1893 -0.0349
 5679TIP3    H138672   1.542   1.849   1.713  0.0622 -0.8251  1.0071
 5679TIP3    H238673   1.593   1.778   1.590 -1.1231  1.2701 -0.7798
 5680TIP3   OH238674   0.966   1.444   7.695 -0.0670 -0.0594  0.3206
 5680TIP3    H138675   0.887   1.396   7.719 -1.3724  0.8068 -1.8850
 5680TIP3    H238676   0.953   1.531   7.732 -0.7863  0.4446 -1.0191
 5681TIP3   OH238677   5.848   3.355   1.417 -0.4161  0.2374 -0.0928
 5681TIP3    H138678   5.911   3.420   1.386 -0.0262  1.2065  2.4811
 5681TIP3    H238679   5.841   3.370   1.511 -1.6683 -2.3236  0.3421
 5682TIP3   OH238680   5.477   3.699   6.932  0.1892  0.1301  0.1897
 5682TIP3    H138681   5.524   3.745   6.863 -0.1475  0.6945  0.3253
 5682TIP3    H238682   5.415   3.644   6.885 -0.0356  0.5087  0.0318
 5683TIP3   OH238683   5.549   0.274   6.754  0.6915 -0.0345  0.3896
 5683TIP3    H138684   5.532   0.312   6.840 -0.0559 -0.2851  0.3596
 5683TIP3    H238685   5.482   0.313   6.697  0.5338 -0.6521  0.1476
 5684TIP3   OH238686   5.377   3.932   7.761  0.4601  0.3278 -0.2794
 5684TIP3    H138687   5.292   3.952   7.722 -0.1067 -1.1359  0.1540
 5684TIP3    H238688   5.379   3.983   7.842  0.6466  1.5086 -0.9922
 5685TIP3   OH238689   5.978   6.832   7.371 -0.2429 -0.5079  0.1136
 5685TIP3    H138690   5.988   6.844   7.466  0.1011  1.9045 -0.1499
 5685TIP3    H238691   6.067   6.836   7.337 -0.4331  5.2326 -0.7732
 5686TIP3   OH238692   2.365   1.113   8.633  0.1159 -0.4520 -0.3788
 5686TIP3    H138693   2.331   1.082   8.717  0.9260 -1.1731 -0.2965
 5686TIP3    H238694   2.454   1.078   8.629 -0.1534 -1.0461 -1.8663
 5687TIP3   OH238695   2.510   6.327   7.184  0.2120  0.6949 -0.6839
 5687TIP3    H138696   2.483   6.237   7.164  1.5561  0.1665 -0.2135
 5687TIP3    H238697   2.488   6.339   7.276  1.3703  0.3231 -0.3464
 5688TIP3   OH238698   5.766   1.905   6.219 -0.1439  0.6933 -0.0976
 5688TIP3    H138699   5.693   1.844   6.229  0.1499 -0.0450 -2.1388
 5688TIP3    H238700   5.744   1.978   6.277 -0.9702 -0.8773  1.6890
 5689TIP3   OH238701   2.707   3.650   6.639 -0.2964  0.4000  0.2964
 5689TIP3    H138702   2.741   3.614   6.556  1.5123 -0.5237  1.3723
 5689TIP3    H238703   2.654   3.725   6.612 -0.2947 -0.2541 -1.7384
 5690TIP3   OH238704   3.444   1.928   2.082 -0.1945  0.2319 -0.5825
 5690TIP3    H138705   3.381   1.913   2.153 -2.6017  0.8405 -2.4532
 5690TIP3    H238706   3.490   1.845   2.073 -0.4664 -0.1369  1.0799
 5691TIP3   OH238707   3.060   5.128   1.661 -0.1550 -0.0312 -0.4009
 5691TIP3    H138708   3.007   5.092   1.732  0.2378  0.9844  0.4248
 5691TIP3    H238709   3.078   5.218   1.687  1.4091 -0.1468 -0.9668
 5692TIP3   OH238710   5.171   3.059   0.395  0.1447 -0.3484  0.1482
 5692TIP3    H138711   5.223   3.139   0.401 -0.0055 -0.2208 -0.2208
 5692TIP3    H238712   5.184   3.029   0.305 -2.0268  0.7951 -0.6097
 5693TIP3   OH238713   1.198   1.751   1.099  0.1965  0.0017  0.4215
 5693TIP3    H138714   1.140   1.765   1.025  0.3859 -3.6218 -0.6195
 5693TIP3    H238715   1.167   1.811   1.167 -2.2791  0.8755 -1.3651
 5694TIP3   OH238716   1.089   2.535   0.061  0.0282 -0.0862  0.2207
 5694TIP3    H138717   1.121   2.569  -0.023 -2.1084  0.5386 -0.4109
 5694TIP3    H238718   1.095   2.440   0.052  2.0232 -0.0136  0.3174
 5695TIP3   OH238719   5.520   2.003   7.740  0.1166 -0.2748 -0.3078
 5695TIP3    H138720   5.477   1.950   7.807 -0.9555  0.0769 -0.7084
 5695TIP3    H238721   5.506   1.954   7.659  1.3220 -0.6476 -0.3152
 5696TIP3   OH238722   2.351   6.187   8.257  0.3688 -0.0927 -0.0356
 5696TIP3    H138723   2.379   6.253   8.321  1.7951 -0.5236 -0.1706
 5696TIP3    H238724   2.352   6.105   8.305  1.1287 -0.3733 -0.5099
 5697TIP3   OH238725   6.196   5.307   7.132 -0.1307 -0.5699 -0.3046
 5697TIP3    H138726   6.256   5.336   7.063 -0.4696 -0.4413 -0.5506
 5697TIP3    H238727   6.181   5.386   7.185  0.2782 -0.7154  0.0296
 5698TIP3   OH238728   2.039   1.537   1.331 -0.3179  0.0280  0.9862
 5698TIP3    H138729   2.016   1.579   1.248  0.2338  2.0598  1.7904
 5698TIP3    H238730   1.957   1.534   1.380 -0.5677 -0.8368  0.5470
 5699TIP3   OH238731   2.073   4.278   7.464 -0.4433  0.0007 -0.5845
 5699TIP3    H138732   2.107   4.365   7.482  1.1594 -0.6035 -0.5840
 5699TIP3    H238733   1.985   4.293   7.428  0.7652  1.7311 -3.0423
 5700TIP3   OH238734   1.610   2.290   8.280 -0.0430  0.6041  0.2651
 5700TIP3    H138735   1.690   2.325   8.320 -0.0048  1.4644 -0.5289
 5700TIP3    H238736   1.638   2.259   8.194 -0.3707 -0.0826  0.3956
 5701TIP3   OH238737   2.649   4.774   8.555 -0.2770 -0.2411  0.1926
 5701TIP3    H138738   2.632   4.822   8.636 -2.0653  0.2804 -0.4340
 5701TIP3    H238739   2.697   4.835   8.500 -0.4259 -0.0358  0.2899
 5702TIP3   OH238740   4.067   3.401   0.445 -0.1896  0.3242  0.4002
 5702TIP3    H138741   4.081   3.374   0.536  1.1561 -0.5147 -0.0264
 5702TIP3    H238742   4.142   3.458   0.425  0.6313 -1.0780 -0.7510
 5703TIP3   OH238743   3.948   1.784   8.603 -0.0535  0.1732  0.3105
 5703TIP3    H138744   3.937   1.803   8.510 -0.6114 -1.4769  0.0069
 5703TIP3    H238745   3.869   1.819   8.644 -0.4787 -0.3351 -0.0564
 5704TIP3   OH238746   5.128   1.471   2.430  0.1395  0.8379  0.1661
 5704TIP3    H138747   5.120   1.378   2.455 -0.8506  1.1941  1.2441
 5704TIP3    H238748   5.201   1.503   2.483 -0.1522  0.9111  0.5249
 5705TIP3   OH238749   0.021   0.189   0.612 -0.6299 -0.2077 -0.0862
 5705TIP3    H138750  -0.058   0.175   0.663 -0.1975  0.7945  0.9056
 5705TIP3    H238751  -0.009   0.192   0.521 -1.5139 -1.2871  0.1513
 5706TIP3   OH238752   1.600   4.597   2.618 -0.1474 -0.5449  0.0230
 5706TIP3    H138753   1.564   4.519   2.577 -0.6888 -1.1010  1.4921
 5706TIP3    H238754   1.561   4.599   2.705 -0.9278  1.9145 -0.2917
 5707TIP3   OH238755   4.506   5.653   7.428  0.0710 -0.7709  0.5667
 5707TIP3    H138756   4.424   5.647   7.377  0.1047  0.9392  0.2494
 5707TIP3    H238757   4.488   5.603   7.507 -2.8442  2.6978  2.4352
 5708TIP3   OH238758   0.633   3.989   7.517  0.4004 -0.0785 -0.2047
 5708TIP3    H138759   0.620   3.902   7.554 -0.2759 -0.0383 -0.3345
 5708TIP3    H238760   0.717   3.984   7.471  0.6100 -0.5076  0.2259
 5709TIP3   OH238761   1.354   0.969   1.743  0.3866 -0.6023  0.1576
 5709TIP3    H138762   1.335   1.054   1.784  1.2172  0.0342 -0.7388
 5709TIP3    H238763   1.313   0.975   1.656 -0.2992 -1.4661  0.4119
 5710TIP3   OH238764   0.006   5.880   7.628 -0.0082 -0.4186  0.1227
 5710TIP3    H138765   0.048   5.794   7.635 -0.3558 -0.6125 -0.0972
 5710TIP3    H238766  -0.056   5.870   7.556  1.0203  0.4798 -0.9202
 5711TIP3   OH238767   4.614   1.523   1.282  0.3240  0.6433 -0.5986
 5711TIP3    H138768   4.670   1.449   1.260 -0.8258 -0.5012  0.1733
 5711TIP3    H238769   4.632   1.588   1.215  1.4812 -0.2695 -1.2074
 5712TIP3   OH238770   0.451   6.040   0.833 -0.2409 -0.1640  0.6390
 5712TIP3    H138771   0.394   6.009   0.903 -1.0317 -0.6663 -0.1962
 5712TIP3    H238772   0.452   6.135   0.843 -1.3557 -0.1315  0.5936
 5713TIP3   OH238773   0.073   3.240   1.751  0.4698  0.0076  0.0379
 5713TIP3    H138774   0.097   3.268   1.840 -2.4398  0.0652  0.9168
 5713TIP3    H238775   0.021   3.161   1.765 -0.2339  0.1540 -1.5967
 5714TIP3   OH238776   1.402   1.501   8.550 -0.6780 -0.2456 -0.0231
 5714TIP3    H138777   1.477   1.557   8.530  1.2999 -2.0859  1.8195
 5714TIP3    H238778   1.364   1.539   8.630 -0.2260 -0.6987  0.4073
 5715TIP3   OH238779   5.065   5.899   0.819  0.2836  0.1131  0.4090
 5715TIP3    H138780   5.103   5.978   0.856  1.2260  0.0992 -0.4977
 5715TIP3    H238781   5.138   5.854   0.776 -0.6299 -0.1802 -0.9083
 5716TIP3   OH238782   5.841   5.000   0.776  0.7461  0.1982  0.3299
 5716TIP3    H138783   5.860   4.908   0.795  1.2988 -0.3253 -2.3396
 5716TIP3    H238784   5.758   5.016   0.820  1.3759 -1.1052  2.1206
 5717TIP3   OH238785   3.056   3.200   6.206  0.3019 -0.9720  0.2710
 5717TIP3    H138786   3.032   3.222   6.296 -0.9545 -0.5769 -0.1387
 5717TIP3    H238787   3.147   3.169   6.212  0.6355  0.1557  1.5051
 5718TIP3   OH238788   0.099   5.598   2.637 -0.1298  0.0552  0.2999
 5718TIP3    H138789   0.073   5.531   2.573  0.4467  1.4965 -1.5463
 5718TIP3    H238790   0.047   5.579   2.714  0.0374 -2.5406 -0.1227
 5719TIP3   OH238791   6.160   0.517   7.172 -0.5645  0.5424 -0.1469
 5719TIP3    H138792   6.202   0.439   7.135 -1.1699 -0.2588  0.8174
 5719TIP3    H238793   6.200   0.590   7.125  2.2965 -0.1334  1.0074
 5720TIP3   OH238794   5.923   2.953   1.267 -0.6259  0.2827 -0.4118
 5720TIP3    H138795   5.863   3.028   1.267 -0.2306  0.6396 -2.3637
 5720TIP3    H238796   5.929   2.926   1.176  0.8592 -0.8396 -0.0309
 5721TIP3   OH238797   4.608   2.760   7.631 -0.1331 -0.2164 -0.2511
 5721TIP3    H138798   4.567   2.717   7.557 -3.8180  2.1227  0.1804
 5721TIP3    H238799   4.607   2.694   7.701 -1.1480 -0.9421 -0.9252
 5722TIP3   OH238800   6.663   1.363   0.874  0.4422  0.3469  0.1267
 5722TIP3    H138801   6.708   1.280   0.865 -0.8709 -0.5735  1.4828
 5722TIP3    H238802   6.694   1.398   0.958 -0.8554 -0.0307  0.7974
 5723TIP3   OH238803   4.858   5.302   8.634  0.3973 -0.0461  0.8795
 5723TIP3    H138804   4.824   5.244   8.703  1.3900 -0.3085  1.1533
 5723TIP3    H238805   4.947   5.272   8.618  0.4057  0.4445 -0.0549
 5724TIP3   OH238806   2.022   2.123   2.582  0.6491  0.4398 -0.7524
 5724TIP3    H138807   2.020   2.159   2.494 -2.7277  0.0054 -1.0014
 5724TIP3    H238808   1.997   2.196   2.638  1.2634  0.3299 -0.3270
 5725TIP3   OH238809   3.625   6.362   1.364  0.1600 -0.8127  0.2505
 5725TIP3    H138810   3.650   6.278   1.328 -0.5527 -0.4610 -1.1235
 5725TIP3    H238811   3.689   6.424   1.329  0.5137 -0.7176  1.0287
 5726TIP3   OH238812   5.726   0.964   7.856  0.1748 -0.5535 -0.7286
 5726TIP3    H138813   5.818   0.978   7.836  0.0098  0.5373 -0.7891
 5726TIP3    H238814   5.716   0.996   7.946 -0.4196  0.6229 -1.1992
 5727TIP3   OH238815   0.296   0.349   6.466  0.5096 -0.7521  0.0428
 5727TIP3    H138816   0.204   0.354   6.494  0.9816  1.6334  1.4457
 5727TIP3    H238817   0.296   0.387   6.378  0.4824  2.1718  1.1946
 5728TIP3   OH238818   4.515   1.845   1.210  0.4839  0.6424 -0.8195
 5728TIP3    H138819   4.522   1.866   1.303  1.4414  0.4192 -0.8380
 5728TIP3    H238820   4.434   1.889   1.182  0.6096  1.3785 -0.0669
 5729TIP3   OH238821   2.284   1.788   0.386 -0.5060 -0.1759 -0.4671
 5729TIP3    H138822   2.251   1.787   0.296  0.6223  1.3574 -0.9444
 5729TIP3    H238823   2.292   1.696   0.410  0.6068 -0.6737 -2.5009
 5730TIP3   OH238824   0.900   6.809   2.606 -0.2189  0.1025 -0.1097
 5730TIP3    H138825   0.841   6.734   2.610  1.3350 -1.1451  0.8133
 5730TIP3    H238826   0.972   6.781   2.549 -0.2771  1.4272 -0.8782
 5731TIP3   OH238827   0.576   0.510   7.126 -0.1679 -0.1294  0.3830
 5731TIP3    H138828   0.502   0.557   7.165 -2.2237 -0.1927 -3.0273
 5731TIP3    H238829   0.613   0.572   7.063  0.4503 -1.2955 -0.4228
 5732TIP3   OH238830   3.377   4.661   6.868  0.4681 -0.1042  0.0323
 5732TIP3    H138831   3.468   4.666   6.894  0.4425  1.6960 -0.0516
 5732TIP3    H238832   3.353   4.752   6.847 -1.7935 -0.2422  1.6077
 5733TIP3   OH238833   0.478   5.811   8.559  0.1792 -0.3672 -0.0550
 5733TIP3    H138834   0.517   5.841   8.477 -0.3081 -1.1824 -0.6077
 5733TIP3    H238835   0.550   5.767   8.605  0.2128 -0.8113 -0.5210
 5734TIP3   OH238836   6.454   1.332   6.853 -0.1841 -0.7037  0.2322
 5734TIP3    H138837   6.483   1.298   6.768  0.3143 -0.5275  0.3251
 5734TIP3    H238838   6.532   1.374   6.889 -1.0217  1.4465 -0.3213
 5735TIP3   OH238839   3.494   5.901   6.987  0.2956  0.2613  0.1072
 5735TIP3    H138840   3.451   5.828   7.031 -0.9340  0.5367 -0.5997
 5735TIP3    H238841   3.575   5.915   7.036 -0.8585  0.3437  2.0742
 5736TIP3   OH238842   1.936   4.169   7.156  0.3203  0.1137 -0.2171
 5736TIP3    H138843   1.878   4.210   7.092  0.2031 -0.6617 -0.6261
 5736TIP3    H238844   1.897   4.191   7.241 -0.8044 -0.6752 -0.4971
 5737TIP3   OH238845   3.987   3.189   6.489 -0.2472  0.2415 -0.8174
 5737TIP3    H138846   4.035   3.272   6.488 -0.1939  0.4524  3.1840
 5737TIP3    H238847   3.911   3.206   6.545  1.1613 -2.9240  2.4602
 5738TIP3   OH238848   3.882   1.626   0.435 -0.0467  0.3372  0.0971
 5738TIP3    H138849   3.929   1.659   0.511  2.4219  2.7639 -2.2410
 5738TIP3    H238850   3.936   1.554   0.403 -0.1864  0.3860 -0.2497
 5739TIP3   OH238851   0.612   5.171   0.383  0.3656  0.6926  0.9522
 5739TIP3    H138852   0.549   5.102   0.366  2.6946 -1.5963  0.9527
 5739TIP3    H238853   0.587   5.207   0.468 -0.6319 -0.4867  1.1823
 5740TIP3   OH238854   0.182   3.535   0.862  0.1923 -0.0941 -0.2985
 5740TIP3    H138855   0.228   3.618   0.848 -0.4204  0.1832 -0.7089
 5740TIP3    H238856   0.237   3.469   0.820 -0.2863  0.3766 -1.6990
 5741TIP3   OH238857   3.916   6.101   1.901  0.0221 -0.5739 -0.6770
 5741TIP3    H138858   3.950   6.160   1.834 -0.0103 -1.3824 -1.4205
 5741TIP3    H238859   3.847   6.150   1.944  1.9665  1.0821  0.7745
 5742TIP3   OH238860   5.459   3.808   8.596 -0.4326  0.3376  0.0523
 5742TIP3    H138861   5.520   3.760   8.652 -1.5231  0.7485  1.6794
 5742TIP3    H238862   5.374   3.795   8.638 -1.1735  1.3513 -1.0757
 5743TIP3   OH238863   3.318   5.305   1.075 -0.1767 -0.1255  0.5062
 5743TIP3    H138864   3.335   5.256   1.156 -0.8531  0.4867  1.0267
 5743TIP3    H238865   3.373   5.382   1.082 -0.3241 -0.0144  0.4388
 5744TIP3   OH238866   4.500   3.016   1.752  0.5010  0.0081 -0.2141
 5744TIP3    H138867   4.547   3.099   1.761  0.0128  0.2923 -0.2074
 5744TIP3    H238868   4.422   3.027   1.807 -0.4120  0.1851 -1.4820
 5745TIP3   OH238869   1.016   0.482   1.117  0.0497 -0.0458  0.4713
 5745TIP3    H138870   1.028   0.428   1.195 -0.8954 -0.0611  0.6174
 5745TIP3    H238871   0.939   0.443   1.073  2.0969 -1.7511 -1.9033
 5746TIP3   OH238872   3.966   2.391   7.492  0.1636  0.2744  0.4167
 5746TIP3    H138873   3.921   2.476   7.491  0.6833  0.5613 -0.2246
 5746TIP3    H238874   3.901   2.329   7.522 -0.9834  0.4989 -1.4647
 5747TIP3   OH238875   2.604   6.633   6.717 -0.2487 -0.4501  0.7662
 5747TIP3    H138876   2.651   6.703   6.762 -0.7292  0.1914  0.2997
 5747TIP3    H238877   2.518   6.670   6.699 -0.5209 -1.1754  0.5205
 5748TIP3   OH238878   2.161   4.836   1.354 -0.1269  1.1935 -0.1750
 5748TIP3    H138879   2.124   4.820   1.268 -1.6758  2.8341  0.1292
 5748TIP3    H238880   2.203   4.754   1.378 -2.2555 -0.2867 -1.2198
 5749TIP3   OH238881   4.454   3.907   7.530  0.5096 -0.4732  0.2075
 5749TIP3    H138882   4.508   3.981   7.559  0.1152 -0.0807 -0.0404
 5749TIP3    H238883   4.495   3.877   7.449  0.4089 -0.2308  0.0652
 5750TIP3   OH238884   5.846   5.660   2.318  0.2670  0.0860 -0.3345
 5750TIP3    H138885   5.915   5.716   2.282 -0.5942  0.4767 -1.4494
 5750TIP3    H238886   5.773   5.670   2.256 -0.8490 -0.1812  0.8990
 5751TIP3   OH238887   5.514   4.246   0.239 -0.0552  0.1789 -0.4165
 5751TIP3    H138888   5.572   4.181   0.278  1.0628  1.4945  0.2291
 5751TIP3    H238889   5.480   4.205   0.160  0.4434 -1.2518  0.0957
 5752TIP3   OH238890   4.495   4.425   0.812 -0.5117 -0.3774  0.2836
 5752TIP3    H138891   4.424   4.362   0.799 -0.6211  0.0678 -1.6816
 5752TIP3    H238892   4.502   4.469   0.727  2.9826 -1.3152 -0.0570
 5753TIP3   OH238893   5.284   0.387   2.511  0.1148 -0.1331  0.1891
 5753TIP3    H138894   5.344   0.336   2.457 -0.5551 -1.9148  1.0317
 5753TIP3    H238895   5.330   0.400   2.593  0.4453  1.0413 -0.1604
 5754TIP3   OH238896   1.717   4.426   8.568  0.1175 -0.3816  0.4221
 5754TIP3    H138897   1.681   4.503   8.612  0.6065  0.3313 -0.3704
 5754TIP3    H238898   1.812   4.435   8.577  0.3030  0.3833 -1.6433
 5755TIP3   OH238899   4.904   1.561   7.750  0.0229  1.0263  0.5180
 5755TIP3    H138900   4.934   1.471   7.737 -2.2605  0.4647 -1.5458
 5755TIP3    H238901   4.848   1.557   7.827  0.4244  0.8306  0.8047
 5756TIP3   OH238902   3.409   5.347   7.317 -0.1233  0.4118  0.4156
 5756TIP3    H138903   3.369   5.348   7.230  1.2436  1.2103 -0.2341
 5756TIP3    H238904   3.492   5.302   7.304  0.8725  2.0398  0.9152
 5757TIP3   OH238905   0.419   3.492   2.133 -0.0101 -0.5126 -0.0861
 5757TIP3    H138906   0.500   3.524   2.173  0.2051 -1.2737  0.1055
 5757TIP3    H238907   0.351   3.514   2.196  0.2827 -1.4086  0.5687
 5758TIP3   OH238908   0.115   0.143   1.038  0.2653 -0.0741 -0.1531
 5758TIP3    H138909   0.115   0.051   1.066 -2.7328 -0.1963 -0.2939
 5758TIP3    H238910   0.158   0.190   1.110  1.0258 -1.4602  0.3296
 5759TIP3   OH238911   6.862   0.784   1.947 -0.3491  0.1313  0.6094
 5759TIP3    H138912   6.892   0.779   2.038  0.0986 -2.8014  0.3694
 5759TIP3    H238913   6.856   0.694   1.918 -0.4452  0.9762 -2.3295
 5760TIP3   OH238914   0.861   0.022   7.618  0.0206 -0.2918 -0.0078
 5760TIP3    H138915   0.785   0.029   7.560  0.4718  0.4982 -0.5258
 5760TIP3    H238916   0.913   0.100   7.598 -0.2979  0.5512  2.1671
 5761TIP3   OH238917   4.054   3.243   6.996 -0.1175  0.0339  0.2190
 5761TIP3    H138918   4.113   3.243   7.071  0.2938  0.1610 -0.0977
 5761TIP3    H238919   4.113   3.244   6.920 -0.5186  1.0391 -0.0998
 5762TIP3   OH238920   1.485   3.956   8.461  0.0950  0.1567  0.1212
 5762TIP3    H138921   1.519   4.042   8.486  1.3139 -0.1767 -0.3131
 5762TIP3    H238922   1.401   3.949   8.508  0.3099  1.2776  0.7222
 5763TIP3   OH238923   0.219   1.678   2.281  0.5728  0.4412  0.2755
 5763TIP3    H138924   0.312   1.669   2.262  0.4074  0.8824 -0.7903
 5763TIP3    H238925   0.207   1.631   2.364  1.9656  1.4661  1.1046
 5764TIP3   OH238926   6.874   2.618   2.129 -0.4133  0.8642 -0.0741
 5764TIP3    H138927   6.856   2.647   2.218  2.1823 -2.5143  1.8103
 5764TIP3    H238928   6.939   2.679   2.095  0.5819  0.6825  1.4410
 5765TIP3   OH238929   1.469   6.056   6.542 -0.5110  0.2440  0.4134
 5765TIP3    H138930   1.526   6.119   6.497  3.4230 -2.7114  0.6957
 5765TIP3    H238931   1.471   6.083   6.633  0.5755  0.1551  0.4290
 5766TIP3   OH238932   6.033   1.136   6.706 -0.4404  0.0549 -0.2050
 5766TIP3    H138933   6.012   1.073   6.775 -0.8126  0.4217  0.0219
 5766TIP3    H238934   6.116   1.175   6.734 -1.4310  1.4298  0.9268
 5767TIP3   OH238935   6.060   0.820   7.887  0.2863  0.5556  0.2327
 5767TIP3    H138936   6.145   0.816   7.844  1.2357  0.8349  2.0227
 5767TIP3    H238937   6.026   0.907   7.866  0.3205  0.3738 -0.6395
 5768TIP3   OH238938   6.032   5.725   7.523  0.2391 -0.1422  0.6488
 5768TIP3    H138939   5.984   5.659   7.472  1.2438 -0.1362 -0.3514
 5768TIP3    H238940   5.996   5.809   7.493  0.0527 -0.1808  0.7653
 5769TIP3   OH238941   4.498   1.358   7.197  0.5763  0.6737  0.1493
 5769TIP3    H138942   4.512   1.287   7.134  2.5907  2.4905 -1.6153
 5769TIP3    H238943   4.541   1.328   7.277  0.9693 -0.2944 -0.4084
 5770TIP3   OH238944   6.542   3.251   0.092 -0.1765 -0.7317  0.1236
 5770TIP3    H138945   6.560   3.319   0.158  2.1286 -0.1010 -1.0629
 5770TIP3    H238946   6.449   3.231   0.105 -0.4642  1.2369  1.8208
 5771TIP3   OH238947   3.217   2.651   6.792 -0.0920  0.0181  0.3281
 5771TIP3    H138948   3.281   2.653   6.721  0.3588 -0.1860  0.7218
 5771TIP3    H238949   3.265   2.687   6.868 -0.2912 -0.5823  0.7434
 5772TIP3   OH238950   6.465   0.621   7.121  0.0734 -0.1354 -0.0058
 5772TIP3    H138951   6.549   0.575   7.129  0.9943  1.4986  0.2170
 5772TIP3    H238952   6.451   0.627   7.026  0.8531  0.6818 -0.0763
 5773TIP3   OH238953   4.767   6.034   1.338 -0.1876 -0.0459  0.1889
 5773TIP3    H138954   4.765   6.129   1.340 -0.5707 -0.0177 -0.9681
 5773TIP3    H238955   4.806   6.012   1.253 -2.4812 -0.9185 -0.7201
 5774TIP3   OH238956   3.167   6.427   7.334 -0.0418 -0.1412 -0.4653
 5774TIP3    H138957   3.235   6.373   7.374  1.1407  1.2686 -0.4606
 5774TIP3    H238958   3.125   6.472   7.407  0.5057  0.6252 -0.6068
 5775TIP3   OH238959   6.586   5.982   1.393 -0.4480 -0.6484 -0.4505
 5775TIP3    H138960   6.536   5.902   1.405 -0.8470 -0.4947 -1.0340
 5775TIP3    H238961   6.529   6.038   1.340  0.5349 -0.6593 -1.5537
 5776TIP3   OH238962   2.655   4.203   8.314 -0.2710  0.1551  0.1904
 5776TIP3    H138963   2.695   4.215   8.400  1.2024 -0.5011 -0.3751
 5776TIP3    H238964   2.714   4.249   8.254 -0.0682 -1.2432 -0.7272
 5777TIP3   OH238965   1.037   6.046   1.747 -0.2867 -0.3431 -0.0225
 5777TIP3    H138966   1.007   5.960   1.715 -0.0891 -0.5136  0.2453
 5777TIP3    H238967   1.120   6.027   1.790 -0.2190 -0.0059 -0.0058
 5778TIP3   OH238968   0.844   6.593   7.865 -0.3945  0.1193  0.0693
 5778TIP3    H138969   0.798   6.528   7.917 -1.1044 -0.1410 -0.8637
 5778TIP3    H238970   0.791   6.673   7.873 -0.2645  0.2038  0.1016
 5779TIP3   OH238971   3.628   5.316   1.679 -0.2888 -0.1465 -0.3134
 5779TIP3    H138972   3.665   5.236   1.715  1.3420  0.1483 -1.2453
 5779TIP3    H238973   3.603   5.294   1.589 -0.5861  0.1745 -0.3135
 5780TIP3   OH238974   0.227   0.982   7.883  0.1936  0.3134 -0.1310
 5780TIP3    H138975   0.249   0.914   7.946  0.7469 -0.8207 -1.4837
 5780TIP3    H238976   0.304   0.988   7.826 -0.5596  0.7496 -1.1444
 5781TIP3   OH238977   6.059   0.875   2.345  0.0144 -0.2378  0.4677
 5781TIP3    H138978   6.082   0.967   2.358  1.6009 -0.7020  1.1734
 5781TIP3    H238979   6.027   0.846   2.430 -1.8574 -0.0228 -0.1015
 5782TIP3   OH238980   0.504   2.546   2.445  0.1756  0.1549 -0.1374
 5782TIP3    H138981   0.546   2.470   2.485 -1.8569 -1.1488 -0.2882
 5782TIP3    H238982   0.568   2.579   2.383  0.9850 -1.7445 -0.3947
 5783TIP3   OH238983   3.245   4.780   0.402 -0.1999  0.0681  0.9009
 5783TIP3    H138984   3.240   4.689   0.372 -2.0135  0.2342  0.5264
 5783TIP3    H238985   3.337   4.803   0.396  0.1027 -1.3134 -0.3328
 5784TIP3   OH238986   1.516   6.613   7.467  0.1823  0.5196  0.0927
 5784TIP3    H138987   1.566   6.539   7.500 -2.5185 -0.4516  2.4465
 5784TIP3    H238988   1.572   6.689   7.485  1.8698 -0.6819  0.1543
 5785TIP3   OH238989   5.853   4.657   1.613  0.5932  0.2819  0.1316
 5785TIP3    H138990   5.767   4.693   1.593  0.7958  0.5007 -0.3679
 5785TIP3    H238991   5.839   4.600   1.689  0.2336  1.2765  0.8255
 5786TIP3   OH238992   1.240   3.500   8.003  0.4160 -0.2893 -0.3972
 5786TIP3    H138993   1.168   3.480   8.063  0.2825  1.9011  0.2671
 5786TIP3    H238994   1.205   3.569   7.946  1.2333 -0.8814 -1.6712
 5787TIP3   OH238995   0.721   0.148   2.210 -0.0293  0.2867 -0.6061
 5787TIP3    H138996   0.717   0.235   2.251 -1.4145 -0.5479  1.1895
 5787TIP3    H238997   0.809   0.143   2.173  0.0893  2.4332 -0.7349
 5788TIP3   OH238998   2.300   0.177   1.352 -0.0766 -0.2959 -0.0238
 5788TIP3    H138999   2.297   0.170   1.256  0.9949 -0.7518 -0.0336
 5788TIP3    H239000   2.256   0.260   1.371  1.8665  1.0691 -1.1050
 5789TIP3   OH239001   3.616   2.539   1.788 -0.7500 -0.1348  0.0805
 5789TIP3    H139002   3.544   2.516   1.729 -0.1382 -0.6802 -0.4724
 5789TIP3    H239003   3.612   2.634   1.794 -1.5824 -0.1603  0.1521
 5790TIP3   OH239004   3.288   2.548   8.139 -0.3845  0.2910 -0.4714
 5790TIP3    H139005   3.322   2.571   8.225  1.5219  1.4692 -1.4658
 5790TIP3    H239006   3.321   2.460   8.122 -2.3666 -0.7547  0.7209
 5791TIP3   OH239007   2.849   2.017   7.785  0.1430 -0.1954 -0.3974
 5791TIP3    H139008   2.883   2.088   7.839 -0.1018  1.5464 -2.4209
 5791TIP3    H239009   2.916   2.005   7.718 -0.3016 -1.2159 -0.6760
 5792TIP3   OH239010   0.274   4.648   0.901 -0.0179  0.3355  0.3869
 5792TIP3    H139011   0.364   4.659   0.871 -0.4675  1.3647 -0.6900
 5792TIP3    H239012   0.259   4.721   0.961 -0.2251  0.3554  0.3133
 5793TIP3   OH239013   1.365   3.362   2.274  0.1612  0.2551 -0.2283
 5793TIP3    H139014   1.423   3.403   2.210 -0.2694  1.6289  0.2163
 5793TIP3    H239015   1.358   3.427   2.345  0.0277 -0.9041  0.8559
 5794TIP3   OH239016   1.806   2.605   0.648 -0.4454 -0.0906  1.0300
 5794TIP3    H139017   1.779   2.570   0.734  0.6559  0.7542  1.7379
 5794TIP3    H239018   1.861   2.680   0.669  0.4818 -0.3392 -0.4178
 5795TIP3   OH239019   6.890   4.955   0.706  0.0462 -0.0512 -0.1468
 5795TIP3    H139020   6.870   4.924   0.794 -1.2471  0.9799 -0.0490
 5795TIP3    H239021   6.850   4.890   0.648  0.5535 -0.5202  0.0299
 5796TIP3   OH239022   6.610   2.335   1.035 -0.5695  0.0494  0.7044
 5796TIP3    H139023   6.534   2.303   1.084 -0.5440 -0.8092  0.1847
 5796TIP3    H239024   6.662   2.257   1.017  1.5388  0.8345  2.8439
 5797TIP3   OH239025   1.208   0.190   0.416 -0.4449  0.2664  0.2463
 5797TIP3    H139026   1.118   0.214   0.392 -0.7829  0.0059  1.1761
 5797TIP3    H239027   1.208   0.094   0.419 -0.1167  0.2626  0.1841
 5798TIP3   OH239028   6.026   2.302   0.349  0.7864  0.3801  0.0259
 5798TIP3    H139029   6.019   2.326   0.256 -0.2541  2.6688  0.6177
 5798TIP3    H239030   5.943   2.259   0.368  0.7567  0.4338  0.0199
 5799TIP3   OH239031   6.390   2.050   0.107 -0.2227  0.2246 -0.2607
 5799TIP3    H139032   6.433   1.973   0.071 -0.5689 -0.3915  0.6005
 5799TIP3    H239033   6.322   2.015   0.165 -1.2580  1.1704 -0.8494
 5800TIP3   OH239034   5.113   6.474   7.612  0.2024  0.3676  0.4344
 5800TIP3    H139035   5.044   6.539   7.625 -1.4716 -1.3640  0.7075
 5800TIP3    H239036   5.194   6.525   7.608 -0.9670  2.3994  1.1390
 5801TIP3   OH239037   4.501   6.047   7.796  0.6626  0.3999 -0.2887
 5801TIP3    H139038   4.501   6.058   7.701 -0.8566  1.9441 -0.1467
 5801TIP3    H239039   4.534   6.130   7.830 -2.2065  1.2891  0.5758
 5802TIP3   OH239040   4.774   2.828   0.945  0.5921  0.0373  0.2622
 5802TIP3    H139041   4.863   2.839   0.912  0.4153  4.1074  0.6395
 5802TIP3    H239042   4.719   2.873   0.881 -1.1995 -1.7823  0.4006
 5803TIP3   OH239043   2.692   3.696   1.163  0.2013 -0.3894  0.3731
 5803TIP3    H139044   2.766   3.655   1.119  0.1002  0.2098 -0.3631
 5803TIP3    H239045   2.693   3.787   1.134  0.6135  0.2387  2.2273
 5804TIP3   OH239046   0.242   0.485   8.517 -0.0959 -0.1522  0.0628
 5804TIP3    H139047   0.258   0.413   8.455  0.1994 -0.5968  0.6520
 5804TIP3    H239048   0.157   0.519   8.491  0.2662  0.0439 -0.9587
 5805TIP3   OH239049   5.122   6.701   0.932  0.0532  0.1333  0.3490
 5805TIP3    H139050   5.204   6.749   0.943 -0.1460  0.1711  1.8404
 5805TIP3    H239051   5.056   6.757   0.972 -0.5654 -0.3146 -0.0287
 5806TIP3   OH239052   4.629   3.037   7.015 -0.3217  0.6208  0.0873
 5806TIP3    H139053   4.675   2.956   7.038 -0.6971  0.6385  0.9259
 5806TIP3    H239054   4.630   3.038   6.919  0.6537  0.1858  0.0785
 5807TIP3   OH239055   1.088   5.448   6.769 -0.0611  0.6425  0.3634
 5807TIP3    H139056   1.049   5.516   6.714  0.6553  0.7392 -0.0263
 5807TIP3    H239057   1.042   5.368   6.744  1.5529  0.3106 -1.8001
 5808TIP3   OH239058   5.897   2.605   0.942 -0.4065 -0.3548  0.0846
 5808TIP3    H139059   5.802   2.604   0.933 -0.4936 -1.2226  0.9581
 5808TIP3    H239060   5.918   2.694   0.969 -0.6875  0.6194 -2.6449
 5809TIP3   OH239061   0.131   4.192   0.295  0.0169  0.3732  0.1704
 5809TIP3    H139062   0.214   4.176   0.339 -0.9203 -0.1057  1.8635
 5809TIP3    H239063   0.151   4.188   0.202  1.9252  0.5433  0.5459
 5810TIP3   OH239064   1.057   3.616   7.034 -0.2692  0.0553  0.7294
 5810TIP3    H139065   1.067   3.658   6.949  2.0823  0.0720  0.9418
 5810TIP3    H239066   1.065   3.522   7.017 -0.2806  0.0257  0.8803
 5811TIP3   OH239067   3.607   4.161   0.603  0.1859  0.0508 -0.1003
 5811TIP3    H139068   3.544   4.089   0.606 -0.4315  0.6082  1.7659
 5811TIP3    H239069   3.691   4.120   0.621  0.5349 -0.7919 -3.1707
 5812TIP3   OH239070   6.623   1.830   0.812  0.1727  0.3780 -0.1993
 5812TIP3    H139071   6.575   1.863   0.888  0.6832  2.0640 -0.5572
 5812TIP3    H239072   6.671   1.906   0.779  1.6490 -0.8103 -0.9484
 5813TIP3   OH239073   4.441   2.591   7.780 -0.4556  0.0417  0.0988
 5813TIP3    H139074   4.403   2.560   7.698  2.7164  1.5767 -2.1898
 5813TIP3    H239075   4.469   2.511   7.825  0.5103 -0.7891 -1.8587
 5814TIP3   OH239076   2.036   5.337   2.556  0.2269 -0.0273  0.1273
 5814TIP3    H139077   1.944   5.362   2.546 -0.2111 -1.9488 -1.5372
 5814TIP3    H239078   2.032   5.245   2.584  1.6704  0.1792  1.0846
 5815TIP3   OH239079   6.039   1.625   0.060 -0.1511 -0.4701 -0.1462
 5815TIP3    H139080   5.993   1.687   0.004 -0.8783  1.0143  1.9592
 5815TIP3    H239081   6.000   1.540   0.039 -2.3050  0.4222 -0.0215
 5816TIP3   OH239082   5.173   2.752   0.208  0.9609  0.5863 -0.0133
 5816TIP3    H139083   5.189   2.842   0.180  0.8295  0.5335 -0.2585
 5816TIP3    H239084   5.094   2.726   0.161  0.8993  0.4021  0.1919
 5817TIP3   OH239085   2.345   6.811   0.405  0.1419  0.1304 -0.3395
 5817TIP3    H139086   2.373   6.721   0.421  2.4782  0.6916 -0.8512
 5817TIP3    H239087   2.307   6.840   0.487 -0.0776 -1.1315  0.0192
 5818TIP3   OH239088   5.131   3.708   7.664 -0.2453 -0.1461 -0.0561
 5818TIP3    H139089   5.224   3.691   7.680 -0.4541 -0.5909  0.7541
 5818TIP3    H239090   5.085   3.653   7.728 -1.0531  0.4185 -0.1333
 5819TIP3   OH239091   6.752   5.384   0.626 -0.2111 -0.0368 -0.0258
 5819TIP3    H139092   6.711   5.347   0.548 -0.8570 -2.3740  1.3155
 5819TIP3    H239093   6.837   5.339   0.633  0.4037  1.0878 -0.0583
 5820TIP3   OH239094   1.707   0.353   7.930 -0.4912 -0.1947  0.0058
 5820TIP3    H139095   1.629   0.351   7.985 -0.4511  1.0031  0.1243
 5820TIP3    H239096   1.750   0.436   7.951  0.5675 -0.6143 -0.4096
 5821TIP3   OH239097   1.397   2.931   1.767 -0.3666 -0.7581  0.0161
 5821TIP3    H139098   1.492   2.935   1.777 -0.3724 -1.1366  0.2407
 5821TIP3    H239099   1.372   2.847   1.806 -0.7321 -0.9024 -0.5065
 5822TIP3   OH239100   5.280   4.195   7.888 -0.5868 -0.6191  1.1421
 5822TIP3    H139101   5.228   4.253   7.832  0.1757 -0.0751  0.9788
 5822TIP3    H239102   5.369   4.230   7.882 -0.4888 -0.5214  2.7182
 5823TIP3   OH239103   5.333   4.479   0.143 -0.0010  0.1215  0.0231
 5823TIP3    H139104   5.273   4.458   0.215  0.6310 -0.5254  0.3781
 5823TIP3    H239105   5.410   4.424   0.160  1.0227  1.5055  0.0255
 5824TIP3   OH239106   5.607   1.201   1.286 -0.4960  0.1193  0.0549
 5824TIP3    H139107   5.627   1.287   1.250 -0.9961 -0.1708 -0.9495
 5824TIP3    H239108   5.685   1.177   1.337 -0.6301  1.4545  0.9355
 5825TIP3   OH239109   0.158   1.641   1.760 -0.0046  0.0801 -0.6044
 5825TIP3    H139110   0.144   1.567   1.819 -0.8002  1.2411  0.7375
 5825TIP3    H239111   0.158   1.602   1.673 -0.9479 -1.4300  0.0204
 5826TIP3   OH239112   4.480   4.299   8.575 -0.0993 -0.5825 -0.4102
 5826TIP3    H139113   4.481   4.328   8.484  0.0521 -1.7647 -0.7995
 5826TIP3    H239114   4.450   4.376   8.624 -0.4632 -0.0178 -1.4793
 5827TIP3   OH239115   6.234   0.183   6.816  0.6668  0.0427  0.1499
 5827TIP3    H139116   6.219   0.126   6.741 -0.1578  1.0585 -0.4851
 5827TIP3    H239117   6.283   0.257   6.781  0.6329  0.3302  0.6927
 5828TIP3   OH239118   4.125   0.674   1.957 -0.3567 -0.1836 -0.4661
 5828TIP3    H139119   4.158   0.735   2.023 -1.7219  2.1658 -1.7793
 5828TIP3    H239120   4.166   0.591   1.978 -0.0795  0.6314  2.8057
 5829TIP3   OH239121   6.763   4.755   1.674  0.7693 -0.3051  0.1224
 5829TIP3    H139122   6.692   4.815   1.696  0.3445 -0.5471 -0.5584
 5829TIP3    H239123   6.719   4.673   1.651  1.1775 -0.1477 -1.3507
 5830TIP3   OH239124   2.353   6.098   7.177  0.3833 -0.0667 -0.1511
 5830TIP3    H139125   2.334   6.017   7.129 -2.2259 -0.5995  1.5404
 5830TIP3    H239126   2.309   6.086   7.262  2.0436  2.1373  1.1211
 5831TIP3   OH239127   0.145   6.898   8.137  0.4685 -0.1488  0.4040
 5831TIP3    H139128   0.139   6.917   8.043  1.3088  0.1897  0.4057
 5831TIP3    H239129   0.067   6.847   8.156  0.9041 -1.2884 -0.7377
 5832TIP3   OH239130   5.562   3.985   0.389 -0.4871  0.4253 -0.2918
 5832TIP3    H139131   5.607   4.012   0.469 -0.5669 -0.3134  0.0086
 5832TIP3    H239132   5.518   3.904   0.413  1.3117 -1.0285 -1.6765
 5833TIP3   OH239133   0.553   6.120   1.350 -0.4285 -0.1268  0.0860
 5833TIP3    H139134   0.504   6.162   1.279 -0.6669 -0.9388 -0.2498
 5833TIP3    H239135   0.486   6.074   1.401 -0.6547  2.5671  2.4635
 5834TIP3   OH239136   1.644   5.068   7.421 -0.2749  0.1531 -0.0766
 5834TIP3    H139137   1.719   5.124   7.403 -1.0253  0.1481 -4.2718
 5834TIP3    H239138   1.588   5.120   7.478  0.9219  1.9703 -0.4648
 5835TIP3   OH239139   2.082   6.459   8.515  0.1258 -0.0116 -0.4831
 5835TIP3    H139140   1.995   6.499   8.524  1.2158  2.0188  2.4549
 5835TIP3    H239141   2.127   6.514   8.450  0.6654  2.0033  1.4578
 5836TIP3   OH239142   4.922   2.763   1.185  0.1551  0.9122  0.4206
 5836TIP3    H139143   4.858   2.712   1.236 -1.6590  0.2088 -2.3229
 5836TIP3    H239144   4.871   2.800   1.113  2.9791 -1.1034 -2.9735
 5837TIP3   OH239145   0.826   3.690   0.470 -0.3262 -0.0843  0.3019
 5837TIP3    H139146   0.761   3.619   0.462 -0.5852  0.1782  0.0206
 5837TIP3    H239147   0.812   3.725   0.558  0.0171 -0.5826  0.5632
 5838TIP3   OH239148   0.673   3.565   6.495  0.2172  0.1545  0.3129
 5838TIP3    H139149   0.641   3.534   6.410  1.0062  0.9386 -0.2867
 5838TIP3    H239150   0.731   3.637   6.473 -0.4001  1.0674  1.5959
 5839TIP3   OH239151   4.627   4.622   7.655  0.5943 -0.1391 -0.1154
 5839TIP3    H139152   4.630   4.654   7.745  0.5485  2.2328 -0.8907
 5839TIP3    H239153   4.718   4.622   7.627  0.6961 -1.6494  0.1467
 5840TIP3   OH239154   3.160   2.229   8.349  0.5855  0.4296 -0.1281
 5840TIP3    H139155   3.215   2.307   8.347  1.5170 -0.1672  0.8592
 5840TIP3    H239156   3.072   2.262   8.363  1.1963  1.2679  2.1343
 5841TIP3   OH239157   6.605   1.923   0.427  0.1900  0.1886 -0.1484
 5841TIP3    H139158   6.598   2.017   0.438  1.6040  0.1227  2.0720
 5841TIP3    H239159   6.698   1.904   0.438 -0.3462 -1.6749  1.9806
 5842TIP3   OH239160   3.250   4.617   0.063  0.6545  0.5314  0.4966
 5842TIP3    H139161   3.277   4.707   0.046 -2.3175  1.2525 -1.1101
 5842TIP3    H239162   3.241   4.577  -0.023 -2.0548  0.0432  0.9264
 5843TIP3   OH239163   4.168   0.509   7.169  0.1234 -0.1704 -0.2744
 5843TIP3    H139164   4.227   0.584   7.168  1.6521 -1.3209  0.2507
 5843TIP3    H239165   4.091   0.539   7.216  1.0033  0.8693  0.5347
 5844TIP3   OH239166   1.232   4.017   7.130  0.0565  0.3320 -0.3268
 5844TIP3    H139167   1.234   4.102   7.087 -0.5852 -0.3818 -1.8268
 5844TIP3    H239168   1.154   3.974   7.095 -0.0539 -0.5858  0.9803
 5845TIP3   OH239169   1.367   2.343   8.132  0.3393 -0.2207 -0.1087
 5845TIP3    H139170   1.342   2.435   8.140 -0.5878 -0.4646  0.0191
 5845TIP3    H239171   1.446   2.334   8.184 -0.4382  0.1877  1.1863
 5846TIP3   OH239172   2.460   2.558   7.742 -0.9948  0.3065 -0.5329
 5846TIP3    H139173   2.367   2.552   7.765 -0.8797 -1.6897 -0.3460
 5846TIP3    H239174   2.470   2.496   7.669  0.6725 -1.7812  1.3244
 5847TIP3   OH239175   3.898   3.718   1.330 -0.0478  0.8121 -0.4646
 5847TIP3    H139176   3.865   3.807   1.342  0.3152  1.1337 -1.7468
 5847TIP3    H239177   3.843   3.681   1.260 -1.3473 -0.5913  1.2112
 5848TIP3   OH239178   1.511   4.775   1.411 -0.0672 -0.2245 -0.5696
 5848TIP3    H139179   1.422   4.772   1.447  0.7619 -1.1629  1.5504
 5848TIP3    H239180   1.554   4.844   1.461  0.5062  0.0169 -1.3813
 5849TIP3   OH239181   1.142   4.049   2.133 -0.5170  0.0408  0.5985
 5849TIP3    H139182   1.201   4.108   2.179 -0.3524  0.9767 -0.7379
 5849TIP3    H239183   1.170   3.961   2.158  0.6769  0.4933  0.8982
 5850TIP3   OH239184   2.617   2.565   0.335  0.2050  0.3669 -0.2345
 5850TIP3    H139185   2.628   2.543   0.242  1.3242 -0.0306 -0.0222
 5850TIP3    H239186   2.597   2.658   0.335  1.5130  0.6835 -0.8239
 5851TIP3   OH239187   1.816   3.068   0.163 -0.6264 -0.2254  0.3620
 5851TIP3    H139188   1.878   3.132   0.130 -0.9414 -1.2539 -2.6006
 5851TIP3    H239189   1.730   3.107   0.147 -0.7809 -0.6319  0.1628
 5852TIP3   OH239190   2.285   0.337   0.328 -0.1359  0.3973  0.5908
 5852TIP3    H139191   2.203   0.292   0.305 -1.2535  1.3862  2.3432
 5852TIP3    H239192   2.298   0.400   0.257  0.6009 -1.5347 -1.0742
 5853TIP3   OH239193   3.071   3.318   6.807  0.3299 -0.3391  0.2405
 5853TIP3    H139194   3.033   3.275   6.884  1.8563  1.0770  1.8625
 5853TIP3    H239195   2.996   3.362   6.766 -0.5076 -1.0661  0.9258
 5854TIP3   OH239196   5.022   0.352   0.053 -0.2070 -0.2039  0.2675
 5854TIP3    H139197   4.968   0.373   0.129 -0.1304  1.2672 -0.0700
 5854TIP3    H239198   5.112   0.372   0.080 -0.0373 -0.7755  0.1610
 5855TIP3   OH239199   6.759   0.078   1.274  0.0042  0.2285 -0.1932
 5855TIP3    H139200   6.841   0.063   1.321 -1.4045 -1.3251  1.9128
 5855TIP3    H239201   6.749   0.173   1.274  1.2702  0.3898  0.4552
 5856TIP3   OH239202   5.913   6.160   1.468  0.3978 -0.1653 -0.0608
 5856TIP3    H139203   5.961   6.216   1.530  0.5567  1.8734 -1.9015
 5856TIP3    H239204   5.909   6.212   1.387 -0.3379 -2.4503 -1.5901
 5857TIP3   OH239205   0.954   2.789   8.326 -0.1160 -0.4653  0.3152
 5857TIP3    H139206   0.889   2.832   8.382  0.2529  0.3889  0.1106
 5857TIP3    H239207   1.023   2.855   8.316  0.9237 -1.4483  0.7717
 5858TIP3   OH239208   6.167   0.630   8.048  0.1880  0.6526 -0.0438
 5858TIP3    H139209   6.139   0.697   7.985  0.1732  0.4428 -0.2656
 5858TIP3    H239210   6.189   0.679   8.127 -2.7895  0.6800  0.8696
 5859TIP3   OH239211   0.206   2.771   0.408 -0.1657  0.0882 -0.5728
 5859TIP3    H139212   0.286   2.725   0.437  0.0622  1.1275  0.5203
 5859TIP3    H239213   0.188   2.735   0.321 -0.1766 -2.3010  0.3362
 5860TIP3   OH239214   1.037   4.136   0.436 -0.1549 -0.2531  0.4733
 5860TIP3    H139215   0.955   4.134   0.386 -0.8180  1.1503  1.4483
 5860TIP3    H239216   1.103   4.163   0.372 -0.6005 -0.5451 -0.1247
 5861TIP3   OH239217   3.369   5.806   0.163 -0.4209  0.1076  0.3911
 5861TIP3    H139218   3.379   5.824   0.070 -0.3565 -0.8179  0.2110
 5861TIP3    H239219   3.436   5.859   0.205  0.6009 -0.6683 -0.2280
 5862TIP3   OH239220   0.052   5.293   8.104  0.4591  0.5068  0.1193
 5862TIP3    H139221   0.088   5.250   8.026 -1.1374 -0.7376  0.0079
 5862TIP3    H239222   0.040   5.222   8.167 -2.9778  0.5204 -0.3394
 5863TIP3   OH239223   6.526   3.357   2.199  0.1829  0.0201 -0.4942
 5863TIP3    H139224   6.438   3.349   2.237  0.0072  1.9428 -0.3995
 5863TIP3    H239225   6.563   3.435   2.239  3.1538 -2.2480  1.6702
 5864TIP3   OH239226   6.026   1.309   7.628 -0.1658  0.5819 -0.4206
 5864TIP3    H139227   6.043   1.403   7.633 -0.6518  0.7314 -1.3875
 5864TIP3    H239228   6.111   1.268   7.643  0.1321  1.1850 -0.4503
 5865TIP3   OH239229   5.610   3.225   0.659  1.0491 -0.3134  0.6504
 5865TIP3    H139230   5.552   3.150   0.644  0.2558  0.5320 -0.6994
 5865TIP3    H239231   5.604   3.277   0.579  1.7270  1.0969  1.4660
 5866TIP3   OH239232   2.298   5.262   7.628 -0.0943 -0.0290  0.5484
 5866TIP3    H139233   2.224   5.323   7.633 -0.4149 -0.4319  0.8538
 5866TIP3    H239234   2.368   5.304   7.678  0.3677  1.0023 -0.8997
 5867TIP3   OH239235   2.164   3.578   0.745  0.0742 -0.2733  0.1639
 5867TIP3    H139236   2.157   3.563   0.839 -1.1028 -0.2924  0.0786
 5867TIP3    H239237   2.080   3.551   0.709  0.2411  0.4361 -0.8122
 5868TIP3   OH239238   5.435   5.141   7.649 -0.3950  0.8894  0.0571
 5868TIP3    H139239   5.435   5.113   7.557  0.4121  2.3228 -0.4065
 5868TIP3    H239240   5.361   5.094   7.688 -1.4187  1.0654 -1.5893
 5869TIP3   OH239241   0.607   3.298   7.776  0.2288 -0.6971 -0.2092
 5869TIP3    H139242   0.526   3.265   7.816 -0.1094 -0.1864 -0.4657
 5869TIP3    H239243   0.599   3.277   7.683  0.5780 -1.0051 -0.1745
 5870TIP3   OH239244   0.409   2.072   1.511  0.3697 -0.7509  0.3154
 5870TIP3    H139245   0.359   2.001   1.552  0.0614 -0.0997  1.1062
 5870TIP3    H239246   0.500   2.048   1.526  0.2755 -1.2203  0.1545
 5871TIP3   OH239247   1.935   3.072   2.232  0.3837  0.0776 -0.0487
 5871TIP3    H139248   1.946   2.978   2.220  1.7299  0.3262 -0.9598
 5871TIP3    H239249   1.880   3.100   2.159  1.6289  0.2896 -0.9250
 5872TIP3   OH239250   3.764   3.652   1.105 -0.3329  0.4026 -0.1013
 5872TIP3    H139251   3.802   3.595   1.039  0.2406  0.8708 -0.1766
 5872TIP3    H239252   3.727   3.726   1.056 -1.0261  0.1386  0.0013
 5873TIP3   OH239253   4.472   1.069   7.325  0.3425 -0.1341  0.6728
 5873TIP3    H139254   4.437   1.057   7.413 -0.7242 -0.4612  0.2221
 5873TIP3    H239255   4.397   1.098   7.274  0.3501 -2.3006 -0.6680
 5874TIP3   OH239256   1.735   4.018   1.925 -0.1866 -0.2070  0.0654
 5874TIP3    H139257   1.682   4.096   1.914 -0.0245 -0.0580  0.3143
 5874TIP3    H239258   1.760   4.019   2.018  1.1717  0.3297 -0.2877
 5875TIP3   OH239259   0.340   5.279   1.492  0.8968  0.0934 -0.3415
 5875TIP3    H139260   0.339   5.209   1.558  0.8470  0.0518 -0.3858
 5875TIP3    H239261   0.424   5.323   1.505  1.4239 -0.6711 -1.0405
 5876TIP3   OH239262   1.591   0.072   0.670 -0.0189  0.3223  0.3414
 5876TIP3    H139263   1.547   0.155   0.691 -0.7697 -0.2067  0.9002
 5876TIP3    H239264   1.520   0.010   0.655  0.5394 -0.2604  0.0575
 5877TIP3   OH239265   0.056   2.223   7.326  0.1185  0.4312 -0.0105
 5877TIP3    H139266   0.034   2.195   7.415 -1.1356 -0.5460 -0.6011
 5877TIP3    H239267   0.093   2.311   7.338  0.2635  0.2044  1.4947
 5878TIP3   OH239268   1.897   5.399   0.577 -0.9517 -0.0300  0.0004
 5878TIP3    H139269   1.873   5.450   0.654 -0.3851 -0.8759  0.7609
 5878TIP3    H239270   1.964   5.452   0.533 -1.5335  0.6233 -0.1170
 5879TIP3   OH239271   6.344   6.583   7.908 -0.0378 -0.4103 -0.4582
 5879TIP3    H139272   6.343   6.638   7.829 -0.3269 -1.5292 -1.2465
 5879TIP3    H239273   6.391   6.504   7.882 -1.6397 -1.5463 -0.0489
 5880TIP3   OH239274   5.642   0.278   7.776 -0.4763 -0.0170 -0.3270
 5880TIP3    H139275   5.728   0.312   7.754 -0.6372 -0.4552 -1.7237
 5880TIP3    H239276   5.596   0.351   7.818  0.0068  0.7233 -1.0808
 5881TIP3   OH239277   3.617   6.474   7.399  0.0994 -0.9370  0.2999
 5881TIP3    H139278   3.603   6.505   7.310 -0.3472 -0.6209  0.4784
 5881TIP3    H239279   3.603   6.551   7.454 -0.5987 -1.3557  0.7192
 5882TIP3   OH239280   1.562   4.938   8.243  0.5007  0.4034 -0.5213
 5882TIP3    H139281   1.563   4.986   8.326  0.6523 -1.7572  0.8171
 5882TIP3    H239282   1.469   4.930   8.221  0.2248 -1.5118  1.0641
 5883TIP3   OH239283   0.246   6.528   1.641  0.4563  0.2562  0.3946
 5883TIP3    H139284   0.310   6.458   1.630  0.1310 -0.3874  2.2492
 5883TIP3    H239285   0.225   6.527   1.734 -0.5073  2.0081  0.2388
 5884TIP3   OH239286   5.301   2.110   7.240  0.1602  0.1490  0.3539
 5884TIP3    H139287   5.372   2.174   7.248  0.9609 -0.7863  1.1504
 5884TIP3    H239288   5.253   2.137   7.162  1.2412  0.9691 -0.0624
 5885TIP3   OH239289   2.093   0.317   7.517  0.2797  0.0271 -0.4791
 5885TIP3    H139290   2.171   0.338   7.466  1.5251  1.0624  1.7192
 5885TIP3    H239291   2.119   0.330   7.608 -2.1440 -0.7082  0.4029
 5886TIP3   OH239292   3.751   0.491   1.556 -0.4022  0.2121 -0.2094
 5886TIP3    H139293   3.782   0.558   1.495  0.5894  0.4432  0.5322
 5886TIP3    H239294   3.729   0.417   1.500  0.5746  0.3842 -0.8448
 5887TIP3   OH239295   0.088   2.957   1.201 -0.3824 -0.7226 -0.1720
 5887TIP3    H139296   0.047   2.875   1.231 -2.6999 -0.3561 -1.9812
 5887TIP3    H239297   0.014   3.018   1.193  1.2774  1.5937  1.0931
 5888TIP3   OH239298   3.860   0.476   6.363  0.2340  0.0580 -0.3823
 5888TIP3    H139299   3.798   0.545   6.384  0.4841  0.7556 -1.7630
 5888TIP3    H239300   3.945   0.510   6.390  0.4372  0.5800 -1.5984
 5889TIP3   OH239301   2.168   4.448   2.189  0.4277 -0.7594  0.1662
 5889TIP3    H139302   2.114   4.370   2.173 -0.6829  0.0433 -0.1349
 5889TIP3    H239303   2.115   4.520   2.155  1.8713  0.0199 -0.4885
 5890TIP3   OH239304   1.146   0.177   7.326  0.1967 -0.6057  0.1284
 5890TIP3    H139305   1.073   0.159   7.267  0.8096 -1.3637 -0.4175
 5890TIP3    H239306   1.218   0.126   7.291  0.0405 -2.8240  2.7414
 5891TIP3   OH239307   2.025   0.818   0.235  0.0035 -0.1252 -0.0219
 5891TIP3    H139308   2.074   0.834   0.315 -0.9012  0.0894  0.5047
 5891TIP3    H239309   1.995   0.904   0.206 -0.5221 -0.3068 -0.0330
 5892TIP3   OH239310   0.282   2.384   1.929  0.1949  0.6300  0.4062
 5892TIP3    H139311   0.371   2.355   1.948 -0.0627 -0.7192 -0.3166
 5892TIP3    H239312   0.266   2.353   1.840 -1.3554 -0.0955  0.9006
 5893TIP3   OH239313   4.963   3.188   7.906  0.4366  0.0621  0.0636
 5893TIP3    H139314   4.980   3.094   7.908  0.2257  0.0293  0.3473
 5893TIP3    H239315   4.902   3.200   7.832  0.7404  0.0242 -0.1958
 5894TIP3   OH239316   2.300   6.017   0.748 -0.5827 -0.1045  0.2943
 5894TIP3    H139317   2.391   5.988   0.747 -0.4265  0.3498  0.7601
 5894TIP3    H239318   2.275   6.017   0.841 -0.9456  0.1096  0.2000
 5895TIP3   OH239319   5.812   3.357   1.678 -0.2992  0.3134 -0.0466
 5895TIP3    H139320   5.806   3.430   1.739 -0.7298  1.5511 -1.5150
 5895TIP3    H239321   5.730   3.309   1.689 -0.2366  0.3490  0.5692
 5896TIP3   OH239322   4.063   4.058   7.474  0.2572  0.1140 -0.4367
 5896TIP3    H139323   3.982   4.007   7.464 -0.9274  1.9879 -0.8015
 5896TIP3    H239324   4.081   4.091   7.386  1.4783 -0.3101 -0.3665
 5897TIP3   OH239325   2.400   1.635   2.468  0.6609  0.5337 -0.7188
 5897TIP3    H139326   2.473   1.679   2.424  1.0789  0.2149 -0.3537
 5897TIP3    H239327   2.401   1.672   2.557  1.3068 -0.5248 -0.2639
 5898TIP3   OH239328   5.657   5.425   7.531  0.4352 -0.2891 -0.2264
 5898TIP3    H139329   5.743   5.432   7.489  0.8853  1.3921  0.8765
 5898TIP3    H239330   5.666   5.476   7.611 -1.3120 -0.9150  0.4052
 5899TIP3   OH239331   0.125   4.984   7.710  0.1674  0.2772 -0.0639
 5899TIP3    H139332   0.150   5.068   7.672 -1.5280  1.4604  1.2400
 5899TIP3    H239333   0.199   4.926   7.692  0.4992  1.4255 -2.8633
 5900TIP3   OH239334   3.420   2.086   1.216  0.3830 -0.2519 -0.3237
 5900TIP3    H139335   3.350   2.104   1.153 -1.7690 -1.3813  1.5604
 5900TIP3    H239336   3.423   1.991   1.222 -0.7933 -0.2313  2.4707
 5901TIP3   OH239337   2.779   1.178   1.754  0.0493 -0.9293 -0.2656
 5901TIP3    H139338   2.723   1.251   1.780  1.1872  0.0729 -0.4930
 5901TIP3    H239339   2.749   1.156   1.666 -1.2983 -1.7776  0.3775
 5902TIP3   OH239340   2.313   1.844   7.837 -0.5345 -0.0184  0.7571
 5902TIP3    H139341   2.352   1.771   7.789 -1.7424  0.2753 -0.7564
 5902TIP3    H239342   2.388   1.897   7.865  0.2882 -1.1886  0.8408
 5903TIP3   OH239343   4.062   2.941   6.957 -0.3432 -0.3704  0.6452
 5903TIP3    H139344   3.978   2.986   6.964  0.6596  1.3599  2.4502
 5903TIP3    H239345   4.069   2.889   7.037  0.6526  0.1706  0.9291
 5904TIP3   OH239346   2.481   3.537   1.054 -0.3718  0.3361  0.0922
 5904TIP3    H139347   2.488   3.490   1.137 -0.5451  0.6837  0.3065
 5904TIP3    H239348   2.531   3.618   1.068 -0.0718  0.2168 -0.2742
 5905TIP3   OH239349   6.640   1.533   8.563 -0.0252  0.1703 -0.5810
 5905TIP3    H139350   6.634   1.624   8.591  0.6140 -0.0948  0.4722
 5905TIP3    H239351   6.709   1.496   8.617  0.0689 -0.8153 -1.3546
 5906TIP3   OH239352   1.259   5.939   6.398  0.0741 -0.6957 -0.9453
 5906TIP3    H139353   1.331   5.985   6.442 -0.2875  0.4563 -1.5053
 5906TIP3    H239354   1.297   5.907   6.317  0.0142 -0.2519 -1.1529
 5907TIP3   OH239355   1.961   4.862   7.586  0.5296 -0.0423 -0.3129
 5907TIP3    H139356   1.959   4.866   7.490  1.5872  1.1919 -0.3172
 5907TIP3    H239357   2.054   4.866   7.608  0.3243 -0.8167  0.7670
 5908TIP3   OH239358   4.865   4.141   1.063 -0.4786 -0.2601 -0.1450
 5908TIP3    H139359   4.937   4.201   1.082  0.1150 -1.1073  0.3909
 5908TIP3    H239360   4.810   4.188   1.001  1.4780 -0.2719 -2.0011
 5909TIP3   OH239361   1.534   3.156   0.055  0.7940 -0.6634 -0.1914
 5909TIP3    H139362   1.513   3.076   0.007 -1.1520 -0.4879  0.2673
 5909TIP3    H239363   1.570   3.215  -0.012  1.9312 -1.7641 -0.5910
 5910TIP3   OH239364   1.606   1.096   7.493 -0.1286  0.0184  0.1130
 5910TIP3    H139365   1.597   1.006   7.460 -0.8923  0.6253 -1.4225
 5910TIP3    H239366   1.690   1.126   7.458  0.0507 -0.0331  0.4918
 5911TIP3   OH239367   6.503   0.751   1.467  0.1330  0.3232 -0.3072
 5911TIP3    H139368   6.593   0.731   1.493  0.3851 -0.3381 -1.5791
 5911TIP3    H239369   6.451   0.730   1.544  0.8781 -1.1165 -0.1547
 5912TIP3   OH239370   4.515   3.510   0.615  0.2258  0.1029 -0.4921
 5912TIP3    H139371   4.502   3.592   0.663  1.0765 -0.6058  1.0262
 5912TIP3    H239372   4.500   3.441   0.679  2.8039 -0.8608 -0.8004
 5913TIP3   OH239373   2.451   0.121   7.436 -0.2646 -0.3359 -0.1983
 5913TIP3    H139374   2.423   0.186   7.500 -1.3217 -0.0526 -0.9184
 5913TIP3    H239375   2.476   0.173   7.359  0.3069 -0.7077 -0.2730
 5914TIP3   OH239376   2.278   4.581   6.786  0.2247  0.5181 -0.1164
 5914TIP3    H139377   2.286   4.486   6.784 -0.8871  0.4219 -0.9284
 5914TIP3    H239378   2.368   4.613   6.779  0.6124 -0.4706  0.2188
 5915TIP3   OH239379   2.539   5.510   8.570 -0.5418  0.1038  0.4218
 5915TIP3    H139380   2.547   5.599   8.605 -1.6200  0.2160  0.4305
 5915TIP3    H239381   2.445   5.491   8.578 -0.5061 -0.5715 -0.7083
 5916TIP3   OH239382   3.349   1.857   6.023 -0.2893 -0.0403 -0.1759
 5916TIP3    H139383   3.283   1.793   5.999 -0.3443 -1.1832  2.5938
 5916TIP3    H239384   3.432   1.815   6.001 -0.3886 -0.2881 -0.0848
 5917TIP3   OH239385   0.919   1.295   2.294  0.0451 -0.3696  0.1298
 5917TIP3    H139386   0.889   1.386   2.289 -1.6785 -0.9545 -1.0288
 5917TIP3    H239387   0.983   1.295   2.366  0.8252  1.9309 -0.4610
 5918TIP3   OH239388   2.243   5.551   1.489 -0.0340 -0.2647 -0.2539
 5918TIP3    H139389   2.181   5.557   1.417 -0.4115 -1.2927 -0.0337
 5918TIP3    H239390   2.212   5.615   1.553  1.8460  2.7324 -2.0339
 5919TIP3   OH239391   1.347   6.356   7.811  0.2129  0.4942 -0.1606
 5919TIP3    H139392   1.381   6.283   7.759  0.2716  0.7641 -0.5097
 5919TIP3    H239393   1.413   6.369   7.879 -0.3957 -0.5724  0.6711
 5920TIP3   OH239394   3.009   4.383   7.115  0.1544  0.7113 -0.3974
 5920TIP3    H139395   2.992   4.453   7.177 -0.0754  0.2890  0.0244
 5920TIP3    H239396   3.046   4.427   7.038  2.0354  1.0822  0.6580
 5921TIP3   OH239397   2.581   3.356   7.322 -0.1297 -0.3506  0.0434
 5921TIP3    H139398   2.633   3.431   7.352  1.3434 -1.0719 -0.5751
 5921TIP3    H239399   2.586   3.361   7.227  1.4392 -2.1297 -0.0296
 5922TIP3   OH239400   0.478   0.839   0.394  0.3630  0.3725 -0.0907
 5922TIP3    H139401   0.388   0.815   0.416  0.2974  0.1184 -0.6313
 5922TIP3    H239402   0.523   0.841   0.479 -0.3729  1.4761  0.3095
 5923TIP3   OH239403   4.030   5.746   8.534 -0.2880 -0.1676 -0.0900
 5923TIP3    H139404   3.990   5.731   8.620  0.3084 -2.1272 -0.0931
 5923TIP3    H239405   4.121   5.767   8.554 -0.4510  0.7080 -0.2205
 5924TIP3   OH239406   1.438   2.627   8.346  0.6256 -0.3478 -0.0042
 5924TIP3    H139407   1.499   2.624   8.419  2.2642  0.0032 -1.3110
 5924TIP3    H239408   1.470   2.697   8.290 -1.9547  1.0130  0.0455
 5925TIP3   OH239409   0.472   0.705   7.857  0.1399  0.3142  0.3153
 5925TIP3    H139410   0.565   0.723   7.871 -0.1561  2.5790 -0.1958
 5925TIP3    H239411   0.462   0.704   7.762 -0.5796  1.6334  0.3555
 5926TIP3   OH239412   0.981   1.946   0.059 -0.5124  0.0146  0.6425
 5926TIP3    H139413   1.037   1.943   0.137 -2.4419 -1.4593  2.0498
 5926TIP3    H239414   1.011   1.873   0.005  0.1736  0.4353  0.4324
 5927TIP3   OH239415   3.310   3.212   1.128 -0.9785  0.5864 -0.3909
 5927TIP3    H139416   3.372   3.285   1.133  1.0711 -0.9718 -1.3114
 5927TIP3    H239417   3.306   3.179   1.218 -0.1573  0.5105 -0.3674
 5928TIP3   OH239418   2.348   5.524   7.213 -0.1095 -0.3295  0.1801
 5928TIP3    H139419   2.282   5.455   7.215 -1.0585  0.4905 -1.3707
 5928TIP3    H239420   2.406   5.500   7.140 -0.6264  0.6331 -0.5755
 5929TIP3   OH239421   2.230   4.397   6.200 -0.1778 -0.0961  0.8027
 5929TIP3    H139422   2.280   4.315   6.198 -1.3209 -0.8121 -1.3087
 5929TIP3    H239423   2.266   4.445   6.275  1.8055 -1.7158  0.9799
 5930TIP3   OH239424   4.376   5.276   8.330 -0.3777  0.8040  0.2384
 5930TIP3    H139425   4.440   5.292   8.398 -1.3823 -1.2390  1.7895
 5930TIP3    H239426   4.428   5.258   8.251  0.8465  1.7867  0.7946
 5931TIP3   OH239427   4.255   5.833   0.329 -0.0567  0.2694  0.8904
 5931TIP3    H139428   4.334   5.831   0.383  1.5591 -0.7301 -1.3711
 5931TIP3    H239429   4.269   5.906   0.268 -0.1597 -0.8262 -0.4917
 5932TIP3   OH239430   6.088   5.008   8.070  0.3943  0.5881 -0.3898
 5932TIP3    H139431   6.080   4.915   8.091 -1.6075  1.0179  1.0640
 5932TIP3    H239432   6.131   5.046   8.147  1.8466  0.8139 -1.2709
 5933TIP3   OH239433   6.247   2.473   8.024  0.1038 -0.2001  0.1361
 5933TIP3    H139434   6.285   2.396   8.068  2.0956  0.9647  0.5910
 5933TIP3    H239435   6.255   2.543   8.088 -0.4521  0.6990 -0.7490
 5934TIP3   OH239436   1.459   3.184   0.341 -0.2846  0.1575  0.6700
 5934TIP3    H139437   1.471   3.173   0.247  1.9857  3.2628  0.4479
 5934TIP3    H239438   1.373   3.225   0.350 -1.9518 -2.9906  0.3459
 5935TIP3   OH239439   6.090   1.115   8.260 -0.5171  0.1495 -0.0347
 5935TIP3    H139440   6.158   1.080   8.204  0.3056 -2.3077  2.3138
 5935TIP3    H239441   6.126   1.197   8.294  2.2884 -2.0371  2.7110
 5936TIP3   OH239442   2.887   4.343   8.244 -0.3430  0.5909  0.0968
 5936TIP3    H139443   2.904   4.406   8.315  0.1983 -0.3177  0.7969
 5936TIP3    H239444   2.969   4.296   8.234 -0.6968  0.0924 -0.5196
 5937TIP3   OH239445   2.953   5.184   0.431  0.5013  0.4412 -0.0686
 5937TIP3    H139446   2.978   5.271   0.400  1.6453  0.8803  1.9255
 5937TIP3    H239447   3.031   5.130   0.415  0.2750  0.1152 -0.0787
 5938TIP3   OH239448   6.389   2.704   8.190  0.3102 -0.0701 -0.1974
 5938TIP3    H139449   6.381   2.774   8.255 -0.8627 -1.6500  1.4478
 5938TIP3    H239450   6.396   2.750   8.106 -2.1375  2.0339  0.6157
 5939TIP3   OH239451   1.476   4.573   2.295  0.4019 -0.7821 -0.3783
 5939TIP3    H139452   1.485   4.607   2.206  2.5018  0.2786  0.1688
 5939TIP3    H239453   1.485   4.478   2.286 -0.2196 -0.7635 -1.3672
 5940TIP3   OH239454   0.814   1.878   1.163 -0.5220  0.2789  0.1999
 5940TIP3    H139455   0.843   1.825   1.238 -0.8693 -1.3348 -0.7579
 5940TIP3    H239456   0.817   1.968   1.195 -0.1215 -0.3199  1.9771
 5941TIP3   OH239457   4.097   1.255   7.754  0.5047 -0.1596  0.0637
 5941TIP3    H139458   4.166   1.194   7.781 -0.3398 -1.6809 -1.0876
 5941TIP3    H239459   4.019   1.224   7.801  0.4368  1.1785  0.8836
 5942TIP3   OH239460   6.188   0.803   8.250 -0.0801 -0.2891 -0.4084
 5942TIP3    H139461   6.221   0.832   8.335 -2.8069 -0.0315  0.6607
 5942TIP3    H239462   6.213   0.872   8.189 -0.5062  0.9617  0.7729
 5943TIP3   OH239463   5.518   2.171   7.981  0.0881  0.0480 -0.1872
 5943TIP3    H139464   5.567   2.200   7.904 -0.6338  0.7440 -0.3963
 5943TIP3    H239465   5.464   2.099   7.949  0.9120 -0.6984  0.0356
 5944TIP3   OH239466   3.466   5.473   8.505 -0.0630 -0.1834 -0.4730
 5944TIP3    H139467   3.388   5.462   8.451  0.1145 -2.3052 -0.3699
 5944TIP3    H239468   3.435   5.516   8.584 -1.2905 -1.5828 -0.1533
 5945TIP3   OH239469   6.827   6.555   0.213 -0.1674 -0.5231 -0.4581
 5945TIP3    H139470   6.842   6.644   0.247  0.3686  0.8824 -3.9519
 5945TIP3    H239471   6.751   6.564   0.156  0.2426 -2.1759 -1.3116
 5946TIP3   OH239472   6.536   1.672   1.243 -0.1798  0.3156 -0.5042
 5946TIP3    H139473   6.552   1.766   1.252  0.2839  0.4449 -2.2600
 5946TIP3    H239474   6.453   1.657   1.288 -1.0823  1.8777 -1.5595
 5947TIP3   OH239475   6.035   5.945   2.007 -0.4795 -0.2716  0.0742
 5947TIP3    H139476   6.020   5.926   1.914 -0.9803 -0.4060  0.1795
 5947TIP3    H239477   5.969   6.010   2.029  1.2353  1.6914 -0.2841
 5948TIP3   OH239478   5.244   3.355   7.484  0.4419  0.5122  0.2791
 5948TIP3    H139479   5.157   3.395   7.488  0.0674 -0.2243 -0.3383
 5948TIP3    H239480   5.275   3.374   7.396  0.8163  0.5764  0.4231
 5949TIP3   OH239481   5.095   5.372   1.601 -0.0781  0.1678  0.2271
 5949TIP3    H139482   5.037   5.346   1.529  0.4723 -1.4833  0.3345
 5949TIP3    H239483   5.175   5.401   1.557  0.2568 -0.8368  0.1273
 5950TIP3   OH239484   0.625   2.133   8.630 -0.4654 -0.1834  0.3429
 5950TIP3    H139485   0.610   2.203   8.693  1.7863 -0.7508  1.6239
 5950TIP3    H239486   0.681   2.172   8.563  0.7935 -0.6942  1.0590
 5951TIP3   OH239487   0.275   4.477   2.532  0.3002  0.2047  0.1524
 5951TIP3    H139488   0.348   4.539   2.527  0.3203  0.1306 -0.5738
 5951TIP3    H239489   0.311   4.395   2.497 -0.2702  0.3105 -0.7141
 5952TIP3   OH239490   5.851   2.034   2.423  0.2127 -0.0111  0.1473
 5952TIP3    H139491   5.947   2.025   2.422  0.1624 -0.9458  1.2879
 5952TIP3    H239492   5.826   2.029   2.331  1.2519  0.2210 -0.1715
 5953TIP3   OH239493   2.726   5.060   8.182  0.2785  0.1876 -0.3728
 5953TIP3    H139494   2.768   5.117   8.246  1.5607 -1.2716  0.1385
 5953TIP3    H239495   2.658   5.114   8.142  0.3556  1.5401  1.2563
 5954TIP3   OH239496   2.773   6.116   2.298 -0.6897  0.3703  0.7833
 5954TIP3    H139497   2.839   6.098   2.365  1.9110  1.1184 -1.3968
 5954TIP3    H239498   2.735   6.200   2.323 -2.9344 -1.2831  3.5254
 5955TIP3   OH239499   2.048   3.904   0.194 -0.5074 -0.5450 -0.6601
 5955TIP3    H139500   2.009   3.969   0.136 -0.1269  0.1247 -0.1667
 5955TIP3    H239501   2.118   3.864   0.141 -0.9147 -0.7532 -1.0520
 5956TIP3   OH239502   2.778   0.285   0.383  0.7984  0.1734  0.0345
 5956TIP3    H139503   2.846   0.318   0.442  0.3157  0.0430  0.6793
 5956TIP3    H239504   2.819   0.211   0.338  1.3564  0.6284 -0.2180
 5957TIP3   OH239505   0.305   2.818   8.496  0.4374 -0.2732 -0.3864
 5957TIP3    H139506   0.282   2.849   8.408  2.2428  2.3002 -0.0932
 5957TIP3    H239507   0.289   2.893   8.553  1.8103 -0.9816  1.0234
 5958TIP3   OH239508   5.382   5.403   7.751 -0.2777  0.4092 -0.0795
 5958TIP3    H139509   5.434   5.475   7.715  0.1483 -0.3359 -0.9762
 5958TIP3    H239510   5.409   5.326   7.701 -1.9047 -0.0854 -0.2495
 5959TIP3   OH239511   1.661   6.524   1.092  0.1187  0.4283  0.6241
 5959TIP3    H139512   1.584   6.538   1.037 -0.0911 -0.8710  0.5557
 5959TIP3    H239513   1.665   6.602   1.148 -0.9770  0.7233  0.3174
 5960TIP3   OH239514   1.440   0.974   1.266 -0.3234 -0.0960 -0.5295
 5960TIP3    H139515   1.529   0.991   1.298 -0.0501  0.0017 -1.3039
 5960TIP3    H239516   1.387   0.966   1.345  0.9883 -3.9462  0.1346
 5961TIP3   OH239517   1.747   2.987   8.512  0.2260 -0.1003 -0.0433
 5961TIP3    H139518   1.824   2.987   8.568  0.3058 -2.3691 -0.0252
 5961TIP3    H239519   1.757   3.063   8.455  1.1193  1.1398  1.7013
 5962TIP3   OH239520   1.934   0.738   0.913 -0.4057  0.2532  0.3433
 5962TIP3    H139521   2.004   0.674   0.901 -0.3966  0.3034  0.1261
 5962TIP3    H239522   1.975   0.810   0.960 -0.2190  0.4419 -0.1065
 5963TIP3   OH239523   5.414   1.853   1.248  0.3343 -0.4941 -0.3575
 5963TIP3    H139524   5.347   1.835   1.182 -0.0399  1.7261 -0.6484
 5963TIP3    H239525   5.495   1.862   1.197  0.0627  1.1191 -0.5522
 5964TIP3   OH239526   5.924   0.716   0.591  0.1273 -0.8526 -0.2929
 5964TIP3    H139527   6.019   0.710   0.575  0.2367 -1.4263  0.5115
 5964TIP3    H239528   5.885   0.702   0.504  0.7971  0.8730 -0.9171
 5965TIP3   OH239529   6.212   0.030   8.529  0.1952 -0.7623  0.1489
 5965TIP3    H139530   6.239  -0.008   8.445  1.9363 -1.4177  0.9590
 5965TIP3    H239531   6.117   0.038   8.522 -0.1852 -4.4282 -0.4419
 5966TIP3   OH239532   4.676   0.893   7.270  0.1070  0.8103  0.2957
 5966TIP3    H139533   4.609   0.957   7.295 -1.8000 -0.4406 -1.2656
 5966TIP3    H239534   4.645   0.810   7.307  1.9329  0.5334  1.3171
 5967TIP3   OH239535   5.101   1.688   7.906  0.2722  0.5197 -0.8292
 5967TIP3    H139536   5.042   1.652   7.839 -0.2666  1.1207 -0.6840
 5967TIP3    H239537   5.105   1.781   7.886 -1.5327  1.1016  1.1713
 5968TIP3   OH239538   3.288   0.054   8.183 -0.3269 -0.3551 -0.0533
 5968TIP3    H139539   3.265   0.147   8.179 -2.8261 -0.9388 -1.6448
 5968TIP3    H239540   3.321   0.034   8.096  0.2976 -0.9413  0.3146
 5969TIP3   OH239541   1.646   4.891   1.802 -0.0361  0.2421 -0.0850
 5969TIP3    H139542   1.702   4.897   1.724  0.4659 -0.2770  0.2323
 5969TIP3    H239543   1.593   4.813   1.788  2.4703 -1.9479  1.6129
 5970TIP3   OH239544   3.761   2.711   8.424  0.0978  0.3206  0.1801
 5970TIP3    H139545   3.716   2.763   8.490 -2.4716 -1.3210 -0.1463
 5970TIP3    H239546   3.790   2.633   8.472 -0.8708 -0.4043 -0.3942
 5971TIP3   OH239547   5.248   1.505   7.228 -0.3821  0.4086  0.3276
 5971TIP3    H139548   5.299   1.586   7.235  1.7302 -0.8906  0.8139
 5971TIP3    H239549   5.193   1.504   7.306 -0.1445  1.1558  0.5150
 5972TIP3   OH239550   1.563   4.284   1.336  0.2224  0.3989 -0.1975
 5972TIP3    H139551   1.470   4.297   1.349  0.2636  1.3311 -0.7272
 5972TIP3    H239552   1.569   4.212   1.273 -0.1538  0.6137 -0.4809
 5973TIP3   OH239553   3.432   1.681   6.533 -0.0535  0.4575  0.0439
 5973TIP3    H139554   3.471   1.662   6.448 -1.7518 -0.3367 -0.5924
 5973TIP3    H239555   3.352   1.730   6.513 -1.4491 -1.3173  1.0369
 5974TIP3   OH239556   4.969   3.268   2.226 -0.3922 -0.2520 -0.3897
 5974TIP3    H139557   4.999   3.177   2.235 -0.3123 -0.1504  0.4415
 5974TIP3    H239558   5.050   3.318   2.212 -0.0653  0.0520  2.0785
 5975TIP3   OH239559   4.263   0.282   7.017  0.0169 -0.1197 -0.4155
 5975TIP3    H139560   4.205   0.348   7.055  1.7453  0.5880  1.1508
 5975TIP3    H239561   4.337   0.333   6.982  0.2353 -1.0636 -1.3735
 5976TIP3   OH239562   3.326   4.363   6.027  0.2293 -0.1207 -0.2899
 5976TIP3    H139563   3.296   4.279   5.991 -1.6541  1.2263 -2.0495
 5976TIP3    H239564   3.258   4.389   6.088  1.0754 -0.0723  0.6717
 5977TIP3   OH239565   6.572   3.581   0.021  0.4395 -0.1576 -0.1019
 5977TIP3    H139566   6.490   3.598   0.068  1.4413  0.5553  1.5007
 5977TIP3    H239567   6.601   3.496   0.054  0.8272  0.0504  0.1077
 5978TIP3   OH239568   3.501   0.792   7.070 -0.1681  0.8309 -0.3797
 5978TIP3    H139569   3.486   0.707   7.110  0.4232 -0.0517 -1.9280
 5978TIP3    H239570   3.458   0.855   7.128  0.6385 -0.3457  1.5858
 5979TIP3   OH239571   0.543   3.068   0.946 -0.6102  0.3048 -0.0311
 5979TIP3    H139572   0.511   3.019   1.022 -0.9045  0.1344 -0.2604
 5979TIP3    H239573   0.481   3.047   0.877  0.3648 -0.5634 -0.6738
 5980TIP3   OH239574   2.809   3.646   8.087  0.0637 -0.1714  0.2040
 5980TIP3    H139575   2.742   3.712   8.067  0.9471  0.5232 -0.5795
 5980TIP3    H239576   2.769   3.591   8.154 -0.4865  1.5522  1.3785
 5981TIP3   OH239577   3.163   0.096   0.833  0.0926  0.7789 -0.3193
 5981TIP3    H139578   3.244   0.117   0.880  0.4394  2.0379 -1.3956
 5981TIP3    H239579   3.183   0.119   0.742 -1.7610  1.9627 -0.4683
 5982TIP3   OH239580   4.199   1.969   1.510 -0.3360  0.3847  0.3121
 5982TIP3    H139581   4.256   1.933   1.442  1.4284  2.3676  0.6419
 5982TIP3    H239582   4.165   1.892   1.556  0.3453 -0.9199 -1.2625
 5983TIP3   OH239583   1.510   3.259   1.115 -0.5567  0.0594  0.1989
 5983TIP3    H139584   1.450   3.332   1.125  1.5161  2.1125 -1.2864
 5983TIP3    H239585   1.470   3.205   1.046 -0.2222  2.0234 -1.6437
 5984TIP3   OH239586   3.261   5.603   1.857  0.1079  0.1122 -0.2242
 5984TIP3    H139587   3.231   5.556   1.934  1.3046 -0.8670 -0.3344
 5984TIP3    H239588   3.254   5.539   1.786  2.8159 -0.3485 -0.1813
 5985TIP3   OH239589   1.814   2.960   6.792  0.5146 -0.1326 -0.0726
 5985TIP3    H139590   1.759   2.998   6.723  0.8178  0.5079  0.0380
 5985TIP3    H239591   1.821   3.028   6.859 -0.6693 -1.1333  1.1206
 5986TIP3   OH239592   2.196   1.894   7.270  0.2152 -0.9220  0.5113
 5986TIP3    H139593   2.173   1.813   7.316 -2.2844 -0.4699  0.1790
 5986TIP3    H239594   2.123   1.953   7.287  0.2027  0.0129 -2.2924
 5987TIP3   OH239595   2.067   6.041   8.565  0.1880  0.1970  0.2557
 5987TIP3    H139596   1.986   6.063   8.612 -0.7931 -1.9429 -0.2773
 5987TIP3    H239597   2.048   6.063   8.473 -0.8160 -2.4338 -0.2908
 5988TIP3   OH239598   4.518   1.688   0.067 -0.0332  0.0615 -0.1682
 5988TIP3    H139599   4.475   1.773   0.070 -0.8804 -0.3786  0.8712
 5988TIP3    H239600   4.592   1.697   0.128  1.7085  0.9586 -2.2839
 5989TIP3   OH239601   1.465   2.076   6.831  0.0676 -0.0235 -0.0705
 5989TIP3    H139602   1.551   2.045   6.803 -0.2382 -0.9023 -0.0522
 5989TIP3    H239603   1.431   2.123   6.754  0.6973  0.6346  0.0403
 5990TIP3   OH239604   2.833   5.762   1.679  0.5473  0.1233 -0.2021
 5990TIP3    H139605   2.925   5.785   1.693 -0.0832  3.0933 -0.1392
 5990TIP3    H239606   2.786   5.810   1.747 -1.2373  1.2622 -2.1077
 5991TIP3   OH239607   1.032   0.016   2.000 -0.0346  0.3728 -0.6514
 5991TIP3    H139608   1.028   0.044   2.092 -2.8135  1.7869 -1.0634
 5991TIP3    H239609   1.082   0.085   1.956  1.3798 -0.3538 -0.2359
 5992TIP3   OH239610   2.857   1.432   6.441  0.4555  0.2386 -0.2360
 5992TIP3    H139611   2.839   1.526   6.440  3.5454  0.9625  0.8704
 5992TIP3    H239612   2.900   1.415   6.357  0.2553 -0.0980 -0.2718
 5993TIP3   OH239613   1.894   5.982   1.549 -0.1822  0.0010  0.7004
 5993TIP3    H139614   1.953   5.915   1.583  0.7919 -0.2894 -1.3914
 5993TIP3    H239615   1.814   5.935   1.526  0.5869 -0.5495 -0.9895
 5994TIP3   OH239616   0.538   5.626   7.068 -0.4063  0.0963 -0.3318
 5994TIP3    H139617   0.551   5.569   7.143 -0.5159  0.7236  0.1715
 5994TIP3    H239618   0.523   5.567   6.995  1.4601 -0.5844 -0.2148
 5995TIP3   OH239619   5.841   6.781   8.203 -0.3232 -0.7913 -0.0730
 5995TIP3    H139620   5.786   6.851   8.168  0.2478  0.2719  1.0606
 5995TIP3    H239621   5.781   6.725   8.253 -0.4437  0.2170  0.9501
 5996TIP3   OH239622   0.788   2.800   0.564  0.2288  0.8115  0.2120
 5996TIP3    H139623   0.728   2.783   0.637  2.2942  1.6518  2.2167
 5996TIP3    H239624   0.731   2.807   0.487 -2.0436 -0.0456  1.7267
 5997TIP3   OH239625   0.176   4.448   7.377  0.0419 -0.0559  0.1136
 5997TIP3    H139626   0.265   4.474   7.399 -0.0853  1.6780 -1.2669
 5997TIP3    H239627   0.149   4.391   7.450  2.2113 -0.5570  0.5961
 5998TIP3   OH239628   1.398   3.275   7.950 -0.2877  0.2089 -0.3545
 5998TIP3    H139629   1.381   3.243   7.862  0.1127  0.1111 -0.3961
 5998TIP3    H239630   1.355   3.361   7.953 -1.6949 -0.4761 -0.1219
 5999TIP3   OH239631   3.306   6.438   6.555  0.5270 -0.0492 -0.0887
 5999TIP3    H139632   3.223   6.465   6.595 -0.4334 -2.2362 -0.4321
 5999TIP3    H239633   3.333   6.513   6.503 -1.3085  0.6936 -0.0472
 6000TIP3   OH239634   6.437   0.280   1.911 -0.4276  0.0647 -0.8411
 6000TIP3    H139635   6.485   0.356   1.944  0.4579 -1.1626  0.8805
 6000TIP3    H239636   6.403   0.237   1.990 -3.8655  0.4862 -1.9363
 6001TIP3   OH239637   0.134   2.582   1.008  0.5371 -0.2451  0.1252
 6001TIP3    H139638   0.147   2.542   0.922 -0.1128 -0.8065  0.2825
 6001TIP3    H239639   0.123   2.509   1.068 -0.7496  0.1542  0.3983
 6002TIP3   OH239640   1.729   5.552   2.223 -0.3340  0.1014 -0.3102
 6002TIP3    H139641   1.678   5.578   2.300 -0.4715  0.1590 -0.4196
 6002TIP3    H239642   1.665   5.550   2.151 -0.0313  0.9759 -0.6152
 6003TIP3   OH239643   4.125   5.325   0.588  0.3450  0.0303 -0.0608
 6003TIP3    H139644   4.143   5.406   0.540  0.5399  0.3657  0.5674
 6003TIP3    H239645   4.035   5.336   0.619 -0.0901 -0.5589 -1.0646
 6004TIP3   OH239646   6.047   4.416   0.792 -0.0240  0.1649  0.3868
 6004TIP3    H139647   6.126   4.428   0.739  1.4204  0.2983  2.4434
 6004TIP3    H239648   5.975   4.438   0.733  0.9125 -4.7326 -3.2548
 6005TIP3   OH239649   5.448   3.481   0.661 -0.1032 -0.4593 -0.2622
 6005TIP3    H139650   5.514   3.451   0.598 -2.0052  0.2652 -2.7465
 6005TIP3    H239651   5.364   3.457   0.621 -1.4216 -0.0635  2.1018
 6006TIP3   OH239652   4.670   1.133   8.040 -0.1687  0.1115  0.8145
 6006TIP3    H139653   4.578   1.147   8.059 -0.1040  0.8611  0.6008
 6006TIP3    H239654   4.702   1.081   8.113 -0.9340 -0.8173  0.5006
 6007TIP3   OH239655   3.187   3.159   0.009 -0.4672 -0.2085 -0.2341
 6007TIP3    H139656   3.193   3.138   0.102  0.2005 -0.3205 -0.2940
 6007TIP3    H239657   3.255   3.225  -0.005 -1.3274  0.6614 -0.4126
 6008TIP3   OH239658   2.308   4.890   6.470 -0.2193 -0.6551  0.2888
 6008TIP3    H139659   2.401   4.873   6.461 -0.3853 -0.6369 -1.7383
 6008TIP3    H239660   2.301   4.942   6.550  1.2226 -2.6214  1.7981
 6009TIP3   OH239661   0.213   3.349   0.371 -0.4891 -0.7047  0.6497
 6009TIP3    H139662   0.290   3.299   0.344  0.2246  0.9722 -0.5563
 6009TIP3    H239663   0.176   3.382   0.289 -0.0292  2.0303  1.4520
 6010TIP3   OH239664   6.095   5.030   1.033 -0.3809 -0.0113  0.1582
 6010TIP3    H139665   6.130   5.010   1.120  0.3570 -2.2457 -0.5963
 6010TIP3    H239666   6.015   5.081   1.051  0.6307  1.0392  2.0509
 6011TIP3   OH239667   5.345   5.746   8.496  0.1309  0.3641 -0.5510
 6011TIP3    H139668   5.308   5.826   8.458  0.9191  1.0452  0.0553
 6011TIP3    H239669   5.312   5.745   8.586  1.6333  1.0855  0.0639
 6012TIP3   OH239670   2.309   0.888   7.362 -0.0013 -0.3450  0.0130
 6012TIP3    H139671   2.284   0.880   7.270 -1.1295 -0.7142  0.3431
 6012TIP3    H239672   2.228   0.909   7.407  0.7221  0.8617  0.8073
 6013TIP3   OH239673   5.680   3.613   0.725 -0.2916 -0.4383  0.7313
 6013TIP3    H139674   5.636   3.633   0.808  0.9380  0.3921  1.2118
 6013TIP3    H239675   5.735   3.537   0.745  1.2596  0.7459  1.1732
 6014TIP3   OH239676   3.841   1.992   6.773  0.0298  0.1951  0.3654
 6014TIP3    H139677   3.895   1.974   6.696  0.3087  0.2063  0.5594
 6014TIP3    H239678   3.762   1.939   6.760 -0.1387  0.5665 -0.1662
 6015TIP3   OH239679   5.268   5.473   8.201  0.0872  0.2435 -0.2152
 6015TIP3    H139680   5.260   5.567   8.185 -0.3520  0.2393 -0.0337
 6015TIP3    H239681   5.226   5.431   8.126  0.0384  0.1949 -0.1616
 6016TIP3   OH239682   5.360   6.004   0.068 -0.0098 -0.4991 -0.4989
 6016TIP3    H139683   5.442   6.042   0.101  0.3088 -0.3945 -1.4030
 6016TIP3    H239684   5.352   6.037  -0.021  0.2245 -2.4665 -1.2897
 6017TIP3   OH239685   6.390   1.797   0.613 -0.4364  0.0766  0.5657
 6017TIP3    H139686   6.464   1.856   0.597  2.2864 -2.5149  2.3380
 6017TIP3    H239687   6.337   1.842   0.678  0.0123  1.6801 -0.1367
 6018TIP3   OH239688   3.346   2.057   6.520 -0.2076  0.1780 -0.2052
 6018TIP3    H139689   3.315   1.967   6.531 -1.6005  0.5743 -0.7054
 6018TIP3    H239690   3.276   2.111   6.555  0.9213  1.0885  0.7573
 6019TIP3   OH239691   0.273   3.352   1.166  0.0142  0.2564  0.5507
 6019TIP3    H139692   0.347   3.352   1.105 -0.8034  1.3755 -0.4970
 6019TIP3    H239693   0.268   3.261   1.197 -0.0053 -0.5595 -1.6512
 6020TIP3   OH239694   1.539   2.205   7.802  0.3917 -0.1617  0.2902
 6020TIP3    H139695   1.612   2.244   7.755 -0.7742  0.7370 -0.8528
 6020TIP3    H239696   1.481   2.279   7.822 -2.0129 -1.1691 -2.1705
 6021TIP3   OH239697   4.189   3.398   7.798 -0.0627 -0.0638  0.1450
 6021TIP3    H139698   4.119   3.464   7.799  0.0967  0.1237 -0.6978
 6021TIP3    H239699   4.223   3.400   7.709  0.9370 -0.2427  0.5104
 6022TIP3   OH239700   4.306   4.027   8.120 -0.0460  0.4569  0.0308
 6022TIP3    H139701   4.400   4.043   8.128  0.0041 -0.3267  1.2226
 6022TIP3    H239702   4.265   4.096   8.172 -0.0034 -0.6010  1.5362
 6023TIP3   OH239703   0.598   5.767   7.565  0.2623 -0.2436 -0.3072
 6023TIP3    H139704   0.536   5.760   7.638 -0.1868 -0.0634 -0.6687
 6023TIP3    H239705   0.681   5.735   7.601  0.0485 -0.1431  0.2860
 6024TIP3   OH239706   6.795   2.124   1.485  0.2234 -0.2798 -0.6901
 6024TIP3    H139707   6.773   2.215   1.505 -1.6231 -0.6710 -0.7171
 6024TIP3    H239708   6.753   2.074   1.555 -1.3565 -1.2741 -2.2737
 6025TIP3   OH239709   4.545   5.299   2.158  0.0847 -0.1823 -0.1750
 6025TIP3    H139710   4.606   5.332   2.091 -0.1635  0.3578 -0.1386
 6025TIP3    H239711   4.558   5.357   2.233  0.5235 -0.9179  0.3444
 6026TIP3   OH239712   3.235   1.343   2.174 -0.6411 -0.2813 -0.5994
 6026TIP3    H139713   3.242   1.255   2.137  1.8879 -0.1248 -0.6862
 6026TIP3    H239714   3.160   1.338   2.233 -0.2440 -2.6600 -0.1847
 6027TIP3   OH239715   2.027   6.156   1.038  0.0414 -0.0683  0.2769
 6027TIP3    H139716   2.022   6.216   0.964  1.6790  0.8508  0.8551
 6027TIP3    H239717   1.964   6.190   1.102  0.8315  0.9538  0.5298
 6028TIP3   OH239718   2.437   0.522   7.746  0.5953  0.3299  0.2764
 6028TIP3    H139719   2.459   0.503   7.837  0.0043  2.4162  0.9055
 6028TIP3    H239720   2.370   0.590   7.750  0.2951  0.2414 -1.7257
 6029TIP3   OH239721   6.618   4.106   8.299  0.2366 -0.2092 -0.1942
 6029TIP3    H139722   6.625   4.085   8.392  0.5234  1.2709  0.1483
 6029TIP3    H239723   6.534   4.152   8.292 -0.2759 -1.2141 -0.8681
 6030TIP3   OH239724   2.663   1.058   0.485  0.2701 -0.2253  0.0952
 6030TIP3    H139725   2.698   1.037   0.572 -0.5232 -0.0838  0.4538
 6030TIP3    H239726   2.574   1.086   0.502  0.4588  0.8541 -0.6617
 6031TIP3   OH239727   1.991   1.809   1.714 -0.2740  0.2743  0.2497
 6031TIP3    H139728   1.929   1.878   1.692 -2.1725 -1.1637  0.7391
 6031TIP3    H239729   2.036   1.789   1.632 -2.2541 -0.3053 -0.7552
 6032TIP3   OH239730   2.954   3.280   8.596  0.2902 -0.3701  0.2762
 6032TIP3    H139731   2.905   3.265   8.676  0.1141 -1.5153 -0.0240
 6032TIP3    H239732   3.038   3.236   8.611 -0.3327 -2.0135 -0.7278
 6033TIP3   OH239733   3.141   3.347   7.602 -0.4171 -0.3708  0.2253
 6033TIP3    H139734   3.220   3.400   7.596 -0.9111  0.3497 -0.0109
 6033TIP3    H239735   3.164   3.276   7.662 -0.2941  1.0694  1.9386
 6034TIP3   OH239736   1.379   0.070   6.531 -0.6901  0.0201 -0.0059
 6034TIP3    H139737   1.287   0.076   6.506 -0.4182  0.9243 -0.8834
 6034TIP3    H239738   1.420   0.146   6.488  0.3422 -0.0159  0.8807
 6035TIP3   OH239739   3.682   2.044   1.916  0.0006 -1.0488  0.0221
 6035TIP3    H139740   3.616   2.038   1.985 -0.1428 -0.5233 -0.0706
 6035TIP3    H239741   3.704   1.952   1.897 -0.0085 -1.2023  0.7143
 6036TIP3   OH239742   4.427   6.354   1.407 -0.3645 -0.0531 -0.5031
 6036TIP3    H139743   4.356   6.298   1.438  0.1788  0.6307  2.2721
 6036TIP3    H239744   4.422   6.431   1.463  1.3575  0.9131 -1.5919
 6037TIP3   OH239745   6.274   2.270   1.860 -0.3287  0.1770 -0.0670
 6037TIP3    H139746   6.196   2.313   1.825 -0.9423  0.5309  1.6208
 6037TIP3    H239747   6.241   2.189   1.899 -0.0202  0.6800  1.3197
 6038TIP3   OH239748   5.147   3.832   0.499 -0.1242 -0.2147  0.1072
 6038TIP3    H139749   5.084   3.778   0.451 -1.2315  1.0149  0.1058
 6038TIP3    H239750   5.102   3.854   0.581 -0.8850  2.8492 -0.9718
 6039TIP3   OH239751   3.396   0.444   8.005 -0.4907  0.0461  0.1851
 6039TIP3    H139752   3.459   0.376   7.981 -1.9385 -0.5801 -2.1294
 6039TIP3    H239753   3.337   0.401   8.067  0.6333  0.3117  1.4981
 6040TIP3   OH239754   6.358   6.042   8.619  0.3762 -0.2004 -0.1917
 6040TIP3    H139755   6.394   6.030   8.707  3.6998  0.2932 -1.3418
 6040TIP3    H239756   6.372   6.135   8.601 -0.9746 -0.1415 -0.9800
 6041TIP3   OH239757   1.592   0.326   1.591  0.3185 -0.8783 -0.0623
 6041TIP3    H139758   1.674   0.367   1.563  0.5056 -0.2552  1.2890
 6041TIP3    H239759   1.620   0.258   1.653 -0.1985  1.5486  3.1207
 6042TIP3   OH239760   2.760   4.927   0.780 -0.4721  0.4586  0.1653
 6042TIP3    H139761   2.797   4.985   0.846 -2.0848  0.3173  1.2454
 6042TIP3    H239762   2.832   4.868   0.757  0.4263  1.2088  0.9917
 6043TIP3   OH239763   1.948   3.469   0.636 -0.0348  0.0391  0.3036
 6043TIP3    H139764   1.862   3.427   0.632  0.1934 -0.4428  0.5093
 6043TIP3    H239765   1.944   3.536   0.567 -0.5260 -0.0640  0.2241
 6044TIP3   OH239766   0.677   5.135   7.330  0.1434  0.5873  0.3498
 6044TIP3    H139767   0.586   5.131   7.299  1.2359 -1.3169 -3.1172
 6044TIP3    H239768   0.679   5.077   7.406 -1.4746  0.3462  0.2477
 6045TIP3   OH239769   4.903   3.929   1.234  0.5061  0.4360 -0.3809
 6045TIP3    H139770   4.886   3.992   1.164  1.6765  0.4404 -0.6911
 6045TIP3    H239771   4.899   3.981   1.314 -0.1093  0.5803 -0.5000
 6046TIP3   OH239772   1.752   0.176   6.915 -0.7757 -0.2242 -0.6370
 6046TIP3    H139773   1.746   0.148   7.006 -0.0545  0.0344 -0.5042
 6046TIP3    H239774   1.771   0.095   6.866 -0.8346 -0.3108 -0.5156
 6047TIP3   OH239775   3.599   5.293   0.649  0.2603  0.3041 -0.0751
 6047TIP3    H139776   3.640   5.344   0.579  0.6864  0.3970  0.2385
 6047TIP3    H239777   3.546   5.357   0.697 -0.3845  0.1515 -0.5788
 6048TIP3   OH239778   2.839   4.043   2.176  0.3696 -0.1229  0.1514
 6048TIP3    H139779   2.871   3.953   2.165  1.1476  0.2128 -0.4524
 6048TIP3    H239780   2.905   4.085   2.230 -1.7045 -0.8093  3.5136
 6049TIP3   OH239781   5.413   3.850   7.393  0.1935 -0.4222  0.8031
 6049TIP3    H139782   5.372   3.887   7.315  0.0532  1.1083  1.5674
 6049TIP3    H239783   5.341   3.838   7.455  0.4768 -0.5317  1.1150
 6050TIP3   OH239784   5.286   3.719   6.455 -0.7756  0.8872  0.4623
 6050TIP3    H139785   5.378   3.739   6.470 -0.5298  0.2817 -0.1986
 6050TIP3    H239786   5.239   3.773   6.519  0.0882  0.3853  1.5488
 6051TIP3   OH239787   1.971   6.758   0.424  0.9573  0.1976  0.2452
 6051TIP3    H139788   2.032   6.751   0.497  0.1818 -1.0239  0.8077
 6051TIP3    H239789   1.994   6.685   0.366  0.3707  0.0439  0.2021
 6052TIP3   OH239790   0.092   2.223   0.568  0.1585  0.1955  0.6491
 6052TIP3    H139791   0.023   2.288   0.557  0.0348  0.2609  1.7488
 6052TIP3    H239792   0.056   2.159   0.630 -0.1369 -1.5335 -1.1978
 6053TIP3   OH239793   0.381   2.730   0.895  0.1798  0.9162 -0.5063
 6053TIP3    H139794   0.386   2.714   0.989  2.7456 -0.0645 -0.7201
 6053TIP3    H239795   0.317   2.800   0.886 -0.1737  1.0092  1.9572
 6054TIP3   OH239796   4.520   1.174   7.001  0.2570  0.3246 -0.0688
 6054TIP3    H139797   4.516   1.259   6.957  1.3128  0.6306  0.4171
 6054TIP3    H239798   4.587   1.125   6.954  0.6875  0.2944  0.5574
 6055TIP3   OH239799   2.984   4.694   1.144  0.6797 -0.3536  0.2434
 6055TIP3    H139800   2.940   4.703   1.228  0.6447 -1.5822  0.3767
 6055TIP3    H239801   2.920   4.648   1.088  0.0516  1.8861 -0.9889
 6056TIP3   OH239802   3.567   0.045   0.228 -0.5577 -0.1793  0.7738
 6056TIP3    H139803   3.600   0.071   0.314 -0.3815  2.5458 -0.0262
 6056TIP3    H239804   3.600   0.112   0.168 -1.7340 -1.2776 -1.2241
 6057TIP3   OH239805   5.446   0.568   0.605 -0.0476  0.9027  0.2735
 6057TIP3    H139806   5.511   0.539   0.669 -0.3874 -1.2034 -0.2633
 6057TIP3    H239807   5.444   0.663   0.614  0.7639  0.7571  2.5462
 6058TIP3   OH239808   2.801   2.766   0.037  1.0150  0.2085 -0.2211
 6058TIP3    H139809   2.778   2.673   0.033 -0.5085  0.5897 -3.2598
 6058TIP3    H239810   2.729   2.806   0.086  1.4840 -0.1203  0.7660
 6059TIP3   OH239811   5.137   0.391   7.412  0.1223  0.1246 -0.1495
 6059TIP3    H139812   5.180   0.379   7.496 -0.7354 -0.7151  0.1956
 6059TIP3    H239813   5.156   0.311   7.364 -1.3675 -0.4578  0.1754
 6060TIP3   OH239814   2.763   3.961   8.619 -0.1509  0.0623  0.3557
 6060TIP3    H139815   2.833   4.026   8.617  2.3382 -2.4232  0.5380
 6060TIP3    H239816   2.763   3.929   8.709 -1.5597  0.0096  0.3593
 6061TIP3   OH239817   0.177   1.264   7.750 -0.4779  0.0502 -0.2232
 6061TIP3    H139818   0.162   1.171   7.764 -3.9560  0.6391  0.7376
 6061TIP3    H239819   0.122   1.287   7.675 -1.0851  1.6364  0.6639
 6062TIP3   OH239820   0.958   1.490   8.500  0.8046 -0.2173  0.3924
 6062TIP3    H139821   0.979   1.553   8.570  0.5029  1.7298 -1.1653
 6062TIP3    H239822   1.041   1.446   8.482  1.6065  1.3437  0.0449
 6063TIP3   OH239823   1.505   2.875   8.214  0.5056 -0.0348 -1.0162
 6063TIP3    H139824   1.499   2.946   8.279 -3.4214 -1.3412  0.3444
 6063TIP3    H239825   1.581   2.898   8.160  2.2312  2.6821  2.2044
 6064TIP3   OH239826   2.825   3.408   6.716 -0.1455  0.1240  0.0391
 6064TIP3    H139827   2.784   3.494   6.713 -1.2292 -0.4037 -2.2917
 6064TIP3    H239828   2.751   3.347   6.716  0.6084 -0.8340 -1.4988
 6065TIP3   OH239829   3.037   1.817   7.184  0.5245 -0.4527 -0.7454
 6065TIP3    H139830   2.961   1.791   7.131  1.3041 -1.3814 -1.4457
 6065TIP3    H239831   3.106   1.756   7.157  1.9291  1.2512 -1.1276
 6066TIP3   OH239832   5.999   4.114   2.878  0.2230  0.2948  0.8741
 6066TIP3    H139833   5.949   4.151   2.952 -0.5262  2.3717 -0.5788
 6066TIP3    H239834   6.064   4.180   2.858  1.0774 -0.7018  0.2797
 6067TIP3   OH239835   0.779   2.209   7.382 -0.4668 -0.6547 -0.1325
 6067TIP3    H139836   0.790   2.231   7.289 -1.0221  0.5220  0.0609
 6067TIP3    H239837   0.691   2.239   7.403 -0.3038 -0.8260  0.8053
 6068TIP3   OH239838   6.737   5.514   8.033  0.4625  0.0099 -0.1252
 6068TIP3    H139839   6.762   5.521   8.126  1.2246 -0.1331 -0.3072
 6068TIP3    H239840   6.642   5.507   8.034  0.5656 -1.8672  0.7607
 6069TIP3   OH239841   2.726   1.171   1.481 -0.2894 -0.0063  0.3947
 6069TIP3    H139842   2.655   1.236   1.485 -0.4796 -0.1262 -0.7852
 6069TIP3    H239843   2.765   1.183   1.395 -0.0169 -1.1372  0.3469
 6070TIP3   OH239844   6.755   5.495   0.150  0.0142 -0.1496  0.2021
 6070TIP3    H139845   6.826   5.431   0.165 -0.7578 -0.7843  1.2394
 6070TIP3    H239846   6.784   5.574   0.196  0.1611 -0.3228  0.4110
 6071TIP3   OH239847   2.007   3.350   8.243  0.1039 -0.5159  0.5951
 6071TIP3    H139848   2.083   3.357   8.300 -0.5077  1.9557  1.2505
 6071TIP3    H239849   2.041   3.318   8.160  1.5590 -1.0237  1.3572
 6072TIP3   OH239850   0.189   2.725   7.018 -0.0270 -0.7493  0.3172
 6072TIP3    H139851   0.155   2.679   6.941 -1.5438 -0.6674  0.9200
 6072TIP3    H239852   0.132   2.801   7.029  1.0830  0.0703  0.6674
 6073TIP3   OH239853   0.637   6.350   6.458 -0.0779 -0.0601 -0.2181
 6073TIP3    H139854   0.546   6.381   6.457 -0.0577  0.0780 -2.3843
 6073TIP3    H239855   0.634   6.268   6.407  0.8876 -0.4876  0.3964
 6074TIP3   OH239856   3.635   2.610   8.193 -0.0457 -0.0468 -0.4660
 6074TIP3    H139857   3.619   2.516   8.197  1.4523 -0.3190 -0.3086
 6074TIP3    H239858   3.689   2.629   8.270 -1.3181  1.1691  0.1666
 6075TIP3   OH239859   0.844   6.732   7.060  0.6397 -0.1010  0.4094
 6075TIP3    H139860   0.779   6.744   6.990  1.3347  1.4675 -0.0187
 6075TIP3    H239861   0.792   6.715   7.138 -0.1627 -2.0212 -0.4703
 6076TIP3   OH239862   0.770   0.148   1.307  0.3114 -0.0564  0.0653
 6076TIP3    H139863   0.854   0.147   1.354  0.5296  0.7373 -0.2905
 6076TIP3    H239864   0.713   0.203   1.361  0.5321  0.7756 -0.5334
 6077TIP3   OH239865   5.742   0.126   1.596  0.7454 -0.0185 -0.0141
 6077TIP3    H139866   5.665   0.146   1.649 -0.0190 -1.8653 -0.3651
 6077TIP3    H239867   5.816   0.143   1.654  0.0361  0.5558  0.7501
 6078TIP3   OH239868   2.639   5.507   7.337 -0.3513 -0.2904 -0.2625
 6078TIP3    H139869   2.659   5.533   7.427 -0.4803  2.2705 -0.8743
 6078TIP3    H239870   2.548   5.534   7.323  0.1739  0.9571 -1.6173
 6079TIP3   OH239871   6.733   4.953   1.961 -0.0796 -0.6758  0.4726
 6079TIP3    H139872   6.729   5.047   1.943  1.3705 -0.7772 -0.5774
 6079TIP3    H239873   6.700   4.911   1.881  0.4277 -1.0658  0.4602
 6080TIP3   OH239874   1.766   4.557   0.338 -0.0779 -0.4668  0.5698
 6080TIP3    H139875   1.708   4.481   0.348 -0.5854  0.0105  1.3162
 6080TIP3    H239876   1.731   4.622   0.399  0.0799  0.5361 -0.3914
 6081TIP3   OH239877   2.817   4.938   8.401 -0.1945 -0.2725 -0.3393
 6081TIP3    H139878   2.824   5.029   8.431  0.6127 -0.2758 -0.4890
 6081TIP3    H239879   2.758   4.942   8.326  1.2075  0.4204 -1.4549
 6082TIP3   OH239880   2.911   0.478   6.583  0.3090 -0.2749  0.6818
 6082TIP3    H139881   2.871   0.402   6.625 -0.1647  0.0357  0.8005
 6082TIP3    H239882   2.838   0.525   6.544  0.5246  0.4040  1.0734
 6083TIP3   OH239883   6.225   2.524   2.679  0.3758 -0.0222 -0.2745
 6083TIP3    H139884   6.187   2.479   2.604 -1.1184  0.4457  0.1631
 6083TIP3    H239885   6.171   2.603   2.689  0.3956 -0.2008  1.4312
 6084TIP3   OH239886   4.246   4.447   8.271 -0.2453  0.7464 -0.2553
 6084TIP3    H139887   4.288   4.483   8.349  0.0664  0.3393 -0.2281
 6084TIP3    H239888   4.152   4.456   8.288 -0.1812  0.4700  0.2622
 6085TIP3   OH239889   1.229   3.720   7.818  0.0530  0.2487 -0.1497
 6085TIP3    H139890   1.217   3.695   7.726 -1.1350 -0.9418  0.3076
 6085TIP3    H239891   1.320   3.749   7.823  0.3881 -0.4858 -1.5163
 6086TIP3   OH239892   3.183   6.679   8.016  0.4470 -0.0822  0.2967
 6086TIP3    H139893   3.116   6.733   7.974 -0.4984 -0.8118  0.7894
 6086TIP3    H239894   3.171   6.694   8.110  2.0439  0.9733  0.3611
 6087TIP3   OH239895   4.970   6.394   0.288  0.2143 -0.6562  0.4088
 6087TIP3    H139896   5.009   6.308   0.275  0.6162 -0.3605 -0.3860
 6087TIP3    H239897   5.014   6.429   0.366 -1.0665 -1.7829  1.7071
 6088TIP3   OH239898   2.355   1.042   6.088 -0.1895 -0.1684  0.3150
 6088TIP3    H139899   2.380   1.116   6.033  0.3716 -0.7161 -0.1841
 6088TIP3    H239900   2.259   1.041   6.086 -0.1923  0.3943  0.1338
 6089TIP3   OH239901   1.624   6.702   8.222 -0.0889 -0.4754 -0.0437
 6089TIP3    H139902   1.639   6.650   8.301 -0.7924  0.2468  0.5848
 6089TIP3    H239903   1.528   6.709   8.216 -0.0419 -0.5961 -1.0134
 6090TIP3   OH239904   0.068   3.729   8.209  0.0079 -0.0431 -0.5590
 6090TIP3    H139905   0.041   3.799   8.150  1.4185  0.9946 -0.0311
 6090TIP3    H239906   0.115   3.773   8.280 -1.6115 -1.2370  1.3862
 6091TIP3   OH239907   1.638   2.628   1.298 -0.4565  0.0009 -0.0469
 6091TIP3    H139908   1.578   2.644   1.371 -0.9145 -1.2529 -0.1170
 6091TIP3    H239909   1.587   2.645   1.220  0.2612  2.1088 -0.1136
 6092TIP3   OH239910   2.204   3.142   8.224  0.5010  0.4396  0.1733
 6092TIP3    H139911   2.294   3.109   8.222  0.1625 -0.6078  1.1420
 6092TIP3    H239912   2.175   3.128   8.314 -0.7614  0.4071 -0.2130
 6093TIP3   OH239913   2.687   5.804   0.293 -0.5492  0.3798 -0.1344
 6093TIP3    H139914   2.690   5.857   0.373 -2.0764  0.7360 -0.2780
 6093TIP3    H239915   2.634   5.728   0.317  1.4463 -1.0457  0.0068
 6094TIP3   OH239916   0.858   3.308   0.018  0.2539  0.0347  0.3849
 6094TIP3    H139917   0.810   3.230  -0.011  0.4480  0.5120 -1.3606
 6094TIP3    H239918   0.817   3.332   0.101 -0.9507 -0.9345  0.0982
 6095TIP3   OH239919   6.881   1.920   0.481  0.5098 -0.7344 -0.4831
 6095TIP3    H139920   6.859   1.828   0.495 -0.1081 -0.5196  0.0291
 6095TIP3    H239921   6.896   1.955   0.569 -1.2352  0.1132 -0.4589
 6096TIP3   OH239922   0.494   1.600   7.371  0.7553 -0.0064  0.4321
 6096TIP3    H139923   0.466   1.573   7.284  2.4280  0.9432 -0.4435
 6096TIP3    H239924   0.476   1.694   7.375  1.0271  0.0277  0.9700
 6097TIP3   OH239925   4.839   3.708   1.598 -0.2840 -0.3235  0.3378
 6097TIP3    H139926   4.803   3.766   1.531 -0.9818  1.8227  2.4021
 6097TIP3    H239927   4.932   3.704   1.578 -0.6220 -0.6154 -1.3357
 6098TIP3   OH239928   3.316   1.049   1.110 -0.2310 -0.4039 -0.0117
 6098TIP3    H139929   3.367   0.984   1.062  0.2474  0.3715 -0.5883
 6098TIP3    H239930   3.236   1.060   1.059  0.3207  0.4916 -0.7072
 6099TIP3   OH239931   3.027   2.427   0.189 -0.5732 -0.2233 -0.4912
 6099TIP3    H139932   3.018   2.341   0.148 -0.1526 -1.4202  1.7663
 6099TIP3    H239933   3.111   2.460   0.157 -1.1709 -0.1707 -2.1139
 6100TIP3   OH239934   4.805   6.783   8.606 -0.2976  0.8285 -0.1498
 6100TIP3    H139935   4.735   6.751   8.664 -0.0478  1.3142  0.4354
 6100TIP3    H239936   4.883   6.734   8.633 -0.0432  1.5052  0.3551
 6101TIP3   OH239937   3.944   4.158   6.898 -0.2011 -0.4417 -0.2072
 6101TIP3    H139938   3.918   4.235   6.948  0.6052 -0.7250  0.6778
 6101TIP3    H239939   3.990   4.194   6.822 -0.0372 -0.0402  0.0754
 6102TIP3   OH239940   5.873   4.568   7.873 -0.2457  0.6931 -0.1948
 6102TIP3    H139941   5.851   4.489   7.922  2.9265 -0.0072  0.2980
 6102TIP3    H239942   5.867   4.638   7.938  2.8015 -0.0697  1.0655
 6103TIP3   OH239943   2.153   2.428   6.500 -0.4802  0.3072 -0.5496
 6103TIP3    H139944   2.059   2.411   6.488 -0.1657 -1.9387 -0.1928
 6103TIP3    H239945   2.172   2.499   6.439 -2.7626  2.0940  0.6448
 6104TIP3   OH239946   0.355   0.826   8.080 -0.5523 -0.2053  0.1849
 6104TIP3    H139947   0.400   0.765   8.020  0.0478 -2.4477  2.7149
 6104TIP3    H239948   0.425   0.863   8.133 -1.0245  2.1597 -0.7004
 6105TIP3   OH239949   4.224   4.459   7.493  0.2196 -0.2837  0.2130
 6105TIP3    H139950   4.289   4.495   7.433  0.2722 -0.7769 -0.0340
 6105TIP3    H239951   4.203   4.531   7.551  0.7222 -0.0127  0.0694
 6106TIP3   OH239952   4.923   1.419   7.150 -0.7561  0.5508 -0.3098
 6106TIP3    H139953   4.880   1.454   7.228  0.3479 -1.4277  1.2882
 6106TIP3    H239954   4.889   1.330   7.141 -1.4975  0.9929 -2.6565
 6107TIP3   OH239955   3.168   2.292   6.179  0.0567 -0.5405  0.4021
 6107TIP3    H139956   3.230   2.237   6.132  0.1725 -0.4763  0.4785
 6107TIP3    H239957   3.214   2.375   6.191 -1.1117  0.5871 -2.2076
 6108TIP3   OH239958   4.003   4.969   1.070 -0.1574 -0.2309 -0.0815
 6108TIP3    H139959   3.984   4.943   1.161 -0.1535 -0.7356 -0.2249
 6108TIP3    H239960   3.938   4.921   1.018  0.7201 -1.0204 -0.4690
 6109TIP3   OH239961   4.673   3.028   7.575 -0.8023 -0.0341  0.1905
 6109TIP3    H139962   4.647   3.024   7.483 -2.6306 -1.0110  0.7152
 6109TIP3    H239963   4.642   2.946   7.613  0.1530  0.2374  1.6474
 6110TIP3   OH239964   1.612   3.592   1.207  0.2761  0.1329  0.1038
 6110TIP3    H139965   1.601   3.554   1.121  0.4225  0.7890 -0.2120
 6110TIP3    H239966   1.671   3.666   1.193  1.7826 -0.8244  1.0516
 6111TIP3   OH239967   1.207   1.967   0.226  0.4885 -1.0149  0.1702
 6111TIP3    H139968   1.273   2.029   0.197  0.3757 -1.5938 -1.4824
 6111TIP3    H239969   1.252   1.882   0.226 -0.4671 -1.6103 -2.1665
 6112TIP3   OH239970   6.001   6.695   2.366  0.3252  0.4871  0.1856
 6112TIP3    H139971   5.989   6.725   2.456 -2.1310  0.6716 -0.1311
 6112TIP3    H239972   5.971   6.768   2.311 -1.7715 -0.9073 -0.6621
 6113TIP3   OH239973   0.443   4.260   7.304 -0.0497  0.1855  0.3364
 6113TIP3    H139974   0.441   4.277   7.398  2.5282 -1.6577  0.8405
 6113TIP3    H239975   0.394   4.178   7.293 -0.1438  0.2690  0.1344
 6114TIP3   OH239976   4.904   4.711   0.599  0.2420 -0.0676 -0.8439
 6114TIP3    H139977   4.996   4.705   0.570  0.4748 -0.2742 -0.0916
 6114TIP3    H239978   4.879   4.801   0.580 -0.0900 -0.5724 -3.0256
 6115TIP3   OH239979   1.846   5.033   0.239  0.3002 -0.0390  0.0764
 6115TIP3    H139980   1.919   5.081   0.277  0.4324 -0.8000  0.8481
 6115TIP3    H239981   1.846   4.949   0.287 -0.9981 -0.0965  0.0205
 6116TIP3   OH239982   1.194   4.678   8.279  0.6476  0.1669 -0.1377
 6116TIP3    H139983   1.126   4.745   8.280  0.2116 -0.2674  1.2859
 6116TIP3    H239984   1.147   4.596   8.267  0.9015 -0.1350  0.8371
 6117TIP3   OH239985   5.222   0.641   8.033  0.4934  0.6383  0.5449
 6117TIP3    H139986   5.223   0.676   7.943 -1.2554  0.3993  0.4054
 6117TIP3    H239987   5.272   0.560   8.028 -1.1861 -0.3745 -0.6739
 6118TIP3   OH239988   6.684   3.677   7.247 -0.1052 -0.4185  0.4278
 6118TIP3    H139989   6.629   3.661   7.171 -0.0738  0.8548  0.1235
 6118TIP3    H239990   6.720   3.764   7.233  1.6905 -1.0603  0.8128
 6119TIP3   OH239991   5.699   4.277   2.554  0.2007  0.1381  0.0592
 6119TIP3    H139992   5.734   4.193   2.583  1.4092  0.3909 -0.5972
 6119TIP3    H239993   5.613   4.283   2.596 -1.4687 -2.9524 -2.5199
 6120TIP3   OH239994   5.243   4.291   1.047  0.1866  0.3370 -0.2315
 6120TIP3    H139995   5.161   4.272   1.001 -0.2354 -0.4627  0.8190
 6120TIP3    H239996   5.297   4.213   1.033 -0.2900 -0.3150  1.3321
 6121TIP3   OH239997   6.376   4.539   0.251  0.2927  0.2438 -0.7117
 6121TIP3    H139998   6.343   4.622   0.285  0.1668  0.2587 -0.8698
 6121TIP3    H239999   6.472   4.549   0.252  0.3849 -0.4732  1.4587
 6122TIP3   OH240000   3.796   3.988   6.724  0.2168  0.0733 -0.4639
 6122TIP3    H140001   3.822   4.059   6.783 -1.1938  1.5931 -1.6055
 6122TIP3    H240002   3.867   3.982   6.660  0.6312  0.0093 -0.0023
 6123TIP3   OH240003   0.357   4.610   8.324 -0.5020 -1.2213 -0.4333
 6123TIP3    H140004   0.271   4.569   8.338 -0.8759 -0.5714 -0.7300
 6123TIP3    H240005   0.416   4.564   8.384 -1.5591 -0.0140  1.6441
 6124TIP3   OH240006   6.626   1.137   8.230 -0.1303 -0.1732 -0.0092
 6124TIP3    H140007   6.601   1.067   8.170 -1.1689 -1.4569  1.8316
 6124TIP3    H240008   6.665   1.092   8.305  0.6252  1.3287  0.5428
 6125TIP3   OH240009   2.705   4.164   0.528  0.5207  0.1861 -0.6789
 6125TIP3    H140010   2.631   4.125   0.574 -0.5799  1.5768 -1.2091
 6125TIP3    H240011   2.776   4.164   0.592 -0.5673  0.8095  0.5540
 6126TIP3   OH240012   3.919   0.177   7.972 -0.5939  0.0163  0.3440
 6126TIP3    H140013   3.892   0.178   7.880  2.1269 -0.4563 -0.5429
 6126TIP3    H240014   3.857   0.118   8.015 -2.7394  1.2563 -0.8350
 6127TIP3   OH240015   4.302   2.365   1.422  0.5414 -0.5756  0.6714
 6127TIP3    H140016   4.243   2.315   1.480  1.3404 -1.3458  0.8408
 6127TIP3    H240017   4.342   2.430   1.479 -1.4643  1.1624  0.1897
 6128TIP3   OH240018   3.734   6.024   1.326 -0.0046 -0.1002 -0.4249
 6128TIP3    H140019   3.793   6.032   1.252  0.6371  0.1084  0.1036
 6128TIP3    H240020   3.762   5.945   1.372  1.6701  1.4241  1.3676
 6129TIP3   OH240021   2.074   1.378   1.864 -0.4645  0.2487 -0.2303
 6129TIP3    H140022   2.068   1.298   1.916 -0.0539  2.0605  2.8877
 6129TIP3    H240023   2.075   1.449   1.929 -0.2593  2.7819 -2.7778
 6130TIP3   OH240024   5.460   3.413   8.544  0.3913 -0.0367  0.2280
 6130TIP3    H140025   5.424   3.446   8.626 -0.7308  2.7277 -1.2473
 6130TIP3    H240026   5.384   3.396   8.489  1.1431  0.2839 -0.9598
 6131TIP3   OH240027   5.999   2.389   7.872 -0.1333  0.0296 -0.1943
 6131TIP3    H140028   6.052   2.443   7.932 -0.4213  0.0400  0.0554
 6131TIP3    H240029   5.940   2.341   7.930 -1.1247  0.8196 -0.5358
 6132TIP3   OH240030   1.768   6.127   1.905 -0.1232  0.2989 -0.4274
 6132TIP3    H140031   1.696   6.189   1.904  0.2263  0.7032 -0.7865
 6132TIP3    H240032   1.731   6.046   1.869 -0.8145  0.0184  0.8525
 6133TIP3   OH240033   6.004   6.308   0.724 -0.0636  0.7492 -0.0962
 6133TIP3    H140034   5.912   6.325   0.702 -0.7571 -0.7413  1.4336
 6133TIP3    H240035   6.035   6.252   0.653 -0.5692  0.5860 -0.1933
 6134TIP3   OH240036   4.763   3.718   6.977 -0.1074 -0.1474  0.0025
 6134TIP3    H140037   4.735   3.715   6.886  1.8685  1.2184 -0.7074
 6134TIP3    H240038   4.706   3.784   7.017 -0.4672 -0.1911 -0.4247
 6135TIP3   OH240039   1.335   6.779   0.115  0.4960  0.2426 -0.9100
 6135TIP3    H140040   1.244   6.806   0.106 -0.1076 -1.1779  0.4510
 6135TIP3    H240041   1.386   6.858   0.096 -1.1132  2.0300  1.5639
 6136TIP3   OH240042   5.140   4.711   7.470 -0.2055  0.2947  0.5804
 6136TIP3    H140043   5.193   4.660   7.531  0.9748  0.0237 -0.6198
 6136TIP3    H240044   5.176   4.800   7.475 -1.7973  0.9100  2.1430
 6137TIP3   OH240045   1.890   1.284   1.144 -0.3452 -0.4598  0.6970
 6137TIP3    H140046   1.944   1.306   1.068 -1.4089 -2.9390 -0.9102
 6137TIP3    H240047   1.801   1.308   1.118 -0.3858  1.3862  2.3806
 6138TIP3   OH240048   3.229   2.411   7.864 -1.0774 -0.4227  0.0134
 6138TIP3    H140049   3.265   2.494   7.895 -2.2960  0.0289  0.2679
 6138TIP3    H240050   3.301   2.370   7.816 -0.4382  0.7391 -0.0534
 6139TIP3   OH240051   1.986   5.614   6.796 -0.5989 -0.3487 -0.2099
 6139TIP3    H140052   2.037   5.533   6.797 -0.6315 -0.3816 -0.7650
 6139TIP3    H240053   1.946   5.619   6.882 -2.3438 -2.0394 -0.8542
 6140TIP3   OH240054   4.725   3.414   7.988 -0.0881 -0.8182 -0.1801
 6140TIP3    H140055   4.735   3.509   7.977 -0.2272 -0.7436  0.3158
 6140TIP3    H240056   4.640   3.395   7.948  0.0617 -0.7777 -0.5221
 6141TIP3   OH240057   4.528   5.254   8.108  0.0342 -0.0895 -0.1463
 6141TIP3    H140058   4.583   5.321   8.066  0.1908  0.4698  0.9106
 6141TIP3    H240059   4.578   5.173   8.099  2.1532  0.7445  2.6295
 6142TIP3   OH240060   5.639   5.592   1.658  0.2599  0.4566  0.4405
 6142TIP3    H140061   5.614   5.677   1.621 -2.3618 -0.6330 -0.5369
 6142TIP3    H240062   5.614   5.597   1.750 -0.7134  0.4856  0.1871
 6143TIP3   OH240063   0.119   6.085   6.837  0.5118  0.2114  0.2857
 6143TIP3    H140064   0.188   6.100   6.772  0.0333  0.4905 -0.1629
 6143TIP3    H240065   0.156   6.119   6.918  0.8121  0.5734  0.0019
 6144TIP3   OH240066   6.733   1.454   8.088 -0.4917 -0.2993 -0.3561
 6144TIP3    H140067   6.670   1.525   8.075  0.2480  0.2655 -0.9540
 6144TIP3    H240068   6.710   1.417   8.173 -0.6376  0.9398  0.1615
 6145TIP3   OH240069   5.503   5.330   8.158  0.1844 -0.3583  0.1639
 6145TIP3    H140070   5.431   5.389   8.136 -0.2503 -1.8380 -2.7773
 6145TIP3    H240071   5.532   5.360   8.245 -3.1727  1.0087  0.9819
 6146TIP3   OH240072   0.699   6.418   2.598  0.7696  0.2060  0.4921
 6146TIP3    H140073   0.793   6.433   2.585  0.2099  2.1424 -2.5689
 6146TIP3    H240074   0.665   6.503   2.625 -0.2405 -0.1438  0.3715
 6147TIP3   OH240075   5.835   5.617   1.078 -0.2367  0.1044 -0.3982
 6147TIP3    H140076   5.807   5.641   1.167  0.9480  0.8744 -0.2170
 6147TIP3    H240077   5.760   5.570   1.042 -0.1071 -1.8872  1.6532
 6148TIP3   OH240078   3.627   3.893   2.253  0.2832  0.4407  0.4949
 6148TIP3    H140079   3.567   3.903   2.179  0.5348  1.8009  0.4570
 6148TIP3    H240080   3.655   3.801   2.249 -0.0635  0.3787 -0.8144
 6149TIP3   OH240081   6.288   1.504   6.223  0.1860 -0.4101  0.7465
 6149TIP3    H140082   6.213   1.551   6.187 -0.3963  0.7187  3.1586
 6149TIP3    H240083   6.253   1.419   6.250  1.1683 -2.3552 -3.3161
 6150TIP3   OH240084   0.282   4.397   0.780  0.1952 -0.2144  0.6849
 6150TIP3    H140085   0.295   4.490   0.766  1.2526 -0.3239  0.8587
 6150TIP3    H240086   0.295   4.385   0.874  3.2111 -0.9657  0.2836
 6151TIP3   OH240087   5.500   5.448   7.278  0.2768  0.2503 -0.0208
 6151TIP3    H140088   5.466   5.358   7.276 -1.2074  0.7876 -0.2605
 6151TIP3    H240089   5.553   5.452   7.357  0.9725 -1.0404 -0.3909
 6152TIP3   OH240090   4.011   0.258   6.453  0.7357  0.2915 -0.1972
 6152TIP3    H140091   3.946   0.318   6.416  1.2219 -0.1263 -1.7921
 6152TIP3    H240092   3.959   0.189   6.494  0.1707  0.6056 -0.3738
 6153TIP3   OH240093   6.188   2.082   0.520 -0.3766 -0.0986 -0.0791
 6153TIP3    H140094   6.260   2.112   0.576 -1.1670  1.5597  0.1232
 6153TIP3    H240095   6.147   2.163   0.490 -1.8351 -1.0082 -0.6073
 6154TIP3   OH240096   0.206   1.952   7.615 -0.2940 -0.2518  0.1532
 6154TIP3    H140097   0.146   2.021   7.643  0.7424  1.0534 -0.6814
 6154TIP3    H240098   0.176   1.928   7.528  1.7074  2.1268 -1.3022
 6155TIP3   OH240099   5.134   1.550   7.472  0.1879 -0.4154 -0.4181
 6155TIP3    H140100   5.050   1.583   7.440  0.3935  0.0369 -0.5009
 6155TIP3    H240101   5.110   1.480   7.532 -0.1835 -2.2611 -2.5876
 6156TIP3   OH240102   3.788   2.533   7.117  0.4697 -0.8758  0.0003
 6156TIP3    H140103   3.715   2.555   7.176  1.5208  1.3742  0.5730
 6156TIP3    H240104   3.753   2.549   7.029  0.0478 -0.4644  0.2365
 6157TIP3   OH240105   2.572   1.860   0.218 -0.5179  0.5876  0.3676
 6157TIP3    H140106   2.623   1.801   0.162 -1.3694  0.4539 -0.2967
 6157TIP3    H240107   2.593   1.833   0.307  1.7860  1.5712  0.1887
 6158TIP3   OH240108   4.769   2.393   1.483  0.1653  0.4415  0.0776
 6158TIP3    H140109   4.716   2.314   1.477  1.2054 -0.1266 -3.3294
 6158TIP3    H240110   4.842   2.368   1.541  0.3384 -1.0337 -0.7350
 6159TIP3   OH240111   6.211   4.079   2.311 -0.1011 -0.2964  0.4579
 6159TIP3    H140112   6.172   4.034   2.386  1.1733 -0.4628  1.0481
 6159TIP3    H240113   6.300   4.043   2.304 -0.2726 -0.4710 -1.2990
 6160TIP3   OH240114   4.037   4.449   0.118 -0.4156  0.0926 -0.3571
 6160TIP3    H140115   4.100   4.386   0.155  0.4622  1.1743  0.0542
 6160TIP3    H240116   4.000   4.404   0.043  0.3453 -0.8443 -0.1961
 6161TIP3   OH240117   5.692   1.005   8.123 -0.0502 -0.3302 -0.1690
 6161TIP3    H140118   5.769   0.971   8.169  0.3403 -0.6713 -1.0484
 6161TIP3    H240119   5.625   0.938   8.138 -0.0978 -0.1673  0.3679
 6162TIP3   OH240120   3.193   5.971   8.579 -0.0098  0.0717 -0.0712
 6162TIP3    H140121   3.099   5.971   8.593 -0.2486 -4.1231 -0.2046
 6162TIP3    H240122   3.204   5.945   8.487  1.2940  0.9229 -0.1855
 6163TIP3   OH240123   6.369   6.725   6.706  0.3132 -0.6679 -0.5278
 6163TIP3    H140124   6.312   6.801   6.694  2.7147  1.6084  1.2741
 6163TIP3    H240125   6.424   6.725   6.628 -0.7368 -1.6287 -1.3019
 6164TIP3   OH240126   1.341   0.662   1.167 -0.1174  0.7680 -0.4600
 6164TIP3    H140127   1.371   0.576   1.138 -0.5524  0.5434 -0.2570
 6164TIP3    H240128   1.377   0.672   1.256  0.8430  1.2654 -0.8933
 6165TIP3   OH240129   0.510   1.339   8.104 -0.1274  0.3190 -0.0237
 6165TIP3    H140130   0.441   1.367   8.043  0.7335 -1.7349 -2.1255
 6165TIP3    H240131   0.588   1.387   8.076 -0.1257  0.7289  0.6760
 6166TIP3   OH240132   0.927   0.479   7.892  0.2213  0.2257  0.2164
 6166TIP3    H140133   0.979   0.550   7.930 -1.3758  1.1042  0.8387
 6166TIP3    H240134   0.991   0.411   7.871  1.4039  0.4703  2.7011
 6167TIP3   OH240135   1.466   4.465   6.310  0.3955  0.0880  0.3191
 6167TIP3    H140136   1.453   4.536   6.373  0.9220  1.4689 -1.0578
 6167TIP3    H240137   1.562   4.457   6.303  0.3544 -1.1837  0.8740
 6168TIP3   OH240138   2.033   4.846   6.274 -0.2394 -0.1840 -0.0200
 6168TIP3    H140139   1.945   4.820   6.248 -1.1250  1.2684  1.3693
 6168TIP3    H240140   2.064   4.774   6.329 -0.0915 -1.2128 -1.4069
 6169TIP3   OH240141   2.423   0.540   2.243 -0.5168  0.0670 -0.1964
 6169TIP3    H140142   2.376   0.536   2.326  0.5597 -1.8201  0.3998
 6169TIP3    H240143   2.429   0.448   2.215  0.5287  0.5183 -1.5417
 6170TIP3   OH240144   2.317   3.173   7.752 -0.4865  0.3470 -0.5366
 6170TIP3    H140145   2.289   3.082   7.743 -1.3455  0.6473 -1.0626
 6170TIP3    H240146   2.307   3.192   7.845  0.8033 -0.4227 -0.2139
 6171TIP3   OH240147   4.375   3.819   6.379 -0.1346  0.2053  0.8558
 6171TIP3    H140148   4.413   3.835   6.465 -2.9742 -0.7293  2.4049
 6171TIP3    H240149   4.325   3.899   6.359 -1.1568 -0.3539  1.0881
 6172TIP3   OH240150   2.283   4.309   6.705  0.0338 -0.1835 -0.3537
 6172TIP3    H140151   2.279   4.233   6.648  0.0615 -1.5509  1.3673
 6172TIP3    H240152   2.191   4.330   6.724  0.0461 -0.6245  0.2095
 6173TIP3   OH240153   2.486   5.277   1.207  0.0627  0.0613 -0.3037
 6173TIP3    H140154   2.395   5.274   1.236  0.3894 -0.0516  0.7487
 6173TIP3    H240155   2.488   5.224   1.127 -0.5760 -0.8808  0.2886
 6174TIP3   OH240156   5.878   4.867   7.359  0.5175  0.6544  0.2907
 6174TIP3    H140157   5.828   4.908   7.429  1.3840  2.6072 -0.1801
 6174TIP3    H240158   5.921   4.939   7.314  2.6783 -0.8085 -0.1564
 6175TIP3   OH240159   6.612   1.473   7.336  0.3374 -0.2786 -0.0683
 6175TIP3    H140160   6.694   1.448   7.380 -0.7453 -0.2830  2.0984
 6175TIP3    H240161   6.630   1.559   7.299  1.3986 -0.4021  0.1107
 6176TIP3   OH240162   4.485   3.027   8.056  0.1578 -0.2242 -0.4536
 6176TIP3    H140163   4.581   3.033   8.061  0.2700 -1.7509 -0.1763
 6176TIP3    H240164   4.469   2.948   8.004 -0.9336 -0.9488  0.9048
 6177TIP3   OH240165   0.288   4.649   2.098  0.8355 -0.4053  0.0692
 6177TIP3    H140166   0.301   4.658   2.193 -0.2809 -0.1235  0.2176
 6177TIP3    H240167   0.358   4.701   2.059 -0.0210  1.3870  0.7998
 6178TIP3   OH240168   2.451   4.259   2.274  0.0348 -0.3385  0.0314
 6178TIP3    H140169   2.370   4.289   2.316 -0.3259 -0.3245 -0.6467
 6178TIP3    H240170   2.521   4.288   2.332 -0.3882  0.6432  0.0736
 6179TIP3   OH240171   4.597   0.249   1.809  0.5021 -0.7256  0.1581
 6179TIP3    H140172   4.633   0.224   1.894  1.2344  0.0229  0.0829
 6179TIP3    H240173   4.645   0.328   1.785 -1.5246  0.6289  0.2651
 6180TIP3   OH240174   0.672   2.663   7.005 -0.1577  0.0533  0.1869
 6180TIP3    H140175   0.593   2.717   7.008  0.9782  1.7761  0.6426
 6180TIP3    H240176   0.705   2.665   7.095 -0.2040 -1.6253  0.2598
 6181TIP3   OH240177   3.442   1.869   1.603 -0.2317  0.4008  0.2649
 6181TIP3    H140178   3.351   1.838   1.606 -0.2702  0.5411  0.6882
 6181TIP3    H240179   3.437   1.961   1.631 -0.2358  1.0808 -1.8567
 6182TIP3   OH240180   0.709   6.633   0.366  0.1764  0.2892  0.1638
 6182TIP3    H140181   0.671   6.605   0.450  2.0178 -0.6738  0.7263
 6182TIP3    H240182   0.755   6.556   0.334  1.4905  1.3448 -0.5681
 6183TIP3   OH240183   3.039   2.055   7.331 -0.9141 -0.4722  0.2626
 6183TIP3    H140184   3.029   1.975   7.279  1.0756  0.0517 -1.0360
 6183TIP3    H240185   3.023   2.126   7.269  1.2131  0.1651  0.3775
 6184TIP3   OH240186   3.133   6.637   1.277 -0.0040 -0.4304  0.3025
 6184TIP3    H140187   3.119   6.578   1.351 -1.7230  1.4124  1.5607
 6184TIP3    H240188   3.067   6.610   1.213  0.9680 -1.5247 -0.2669
 6185TIP3   OH240189   5.970   2.302   8.175  0.4016 -0.0870 -0.6536
 6185TIP3    H140190   5.995   2.366   8.240  0.3630  0.0358 -0.7591
 6185TIP3    H240191   5.904   2.248   8.218 -0.2288  0.5063 -0.8615
 6186TIP3   OH240192   4.638   5.687   1.472 -0.4732 -0.1167  0.1416
 6186TIP3    H140193   4.603   5.772   1.499 -0.6042 -0.1046 -0.0645
 6186TIP3    H240194   4.722   5.708   1.432 -1.4009  0.1570 -1.7888
 6187TIP3   OH240195   6.527   2.304   8.276 -0.1920  0.0982 -0.0290
 6187TIP3    H140196   6.505   2.227   8.328 -0.0481  0.5641  0.7448
 6187TIP3    H240197   6.539   2.271   8.187 -0.0828 -0.7726  0.3001
 6188TIP3   OH240198   1.340   1.342   0.731  0.0336 -0.5106  0.2680
 6188TIP3    H140199   1.385   1.258   0.726  2.3001  0.6707 -1.2131
 6188TIP3    H240200   1.375   1.383   0.811 -2.3813 -1.5617  1.9857
 6189TIP3   OH240201   3.393   5.881   0.826 -0.0040 -0.7400 -0.2989
 6189TIP3    H140202   3.373   5.787   0.828 -1.2235 -0.4836  1.0547
 6189TIP3    H240203   3.369   5.908   0.737 -2.2507 -1.2344  0.0795
 6190TIP3   OH240204   6.093   5.180   7.847  1.1710  0.1578  0.0883
 6190TIP3    H140205   6.133   5.136   7.773  0.3607  0.3814 -0.5000
 6190TIP3    H240206   6.086   5.112   7.915  0.0998 -0.6051 -0.7463
 6191TIP3   OH240207   2.359   1.864   0.926 -0.0002  0.3835 -0.0944
 6191TIP3    H140208   2.374   1.844   0.834 -2.3655 -4.1414  0.2182
 6191TIP3    H240209   2.274   1.908   0.928  0.2687  0.9162 -0.0465
 6192TIP3   OH240210   0.057   3.912   0.364 -0.6253 -0.1227  0.2771
 6192TIP3    H140211   0.105   3.992   0.344 -2.2284  0.3404 -2.1430
 6192TIP3    H240212  -0.020   3.941   0.413 -1.2578 -0.1271 -0.6850
 6193TIP3   OH240213   4.773   0.128   1.462  0.6773 -0.1557 -0.0415
 6193TIP3    H140214   4.704   0.080   1.507  1.3102 -0.4443  0.6414
 6193TIP3    H240215   4.854   0.092   1.497  1.1855 -0.0465 -1.0739
 6194TIP3   OH240216   1.915   4.348   1.708  0.3240  0.6624  0.1559
 6194TIP3    H140217   1.914   4.263   1.663 -1.1651  1.6426 -1.8412
 6194TIP3    H240218   2.001   4.385   1.686  0.4389  0.2441 -0.1211
 6195TIP3   OH240219   4.087   3.292   1.701 -0.5437  0.3823 -0.4038
 6195TIP3    H140220   4.006   3.276   1.653 -0.7159  1.7631 -0.6077
 6195TIP3    H240221   4.133   3.208   1.699 -1.2914 -0.0219 -1.5642
 6196TIP3   OH240222   3.025   5.516   0.681 -0.6889 -0.0993 -0.0911
 6196TIP3    H140223   2.994   5.426   0.695 -2.9665  0.8677  1.8405
 6196TIP3    H240224   3.120   5.509   0.688 -0.8042 -2.3515  0.1458
 6197TIP3   OH240225   5.771   2.780   2.022  0.1445  0.8063  0.0944
 6197TIP3    H140226   5.735   2.845   1.962  1.0650  2.0431  0.8372
 6197TIP3    H240227   5.829   2.727   1.968 -0.5302  0.6541 -0.4981
 6198TIP3   OH240228   0.467   4.998   7.978 -0.0452 -0.2229 -0.4911
 6198TIP3    H140229   0.524   5.064   8.018  2.5107 -1.4087 -1.8955
 6198TIP3    H240230   0.433   4.947   8.051  1.6620 -0.1728  0.3778
 6199TIP3   OH240231   6.076   6.861   7.019 -0.5143 -0.2379 -0.2310
 6199TIP3    H140232   6.021   6.874   6.941  1.9883  0.5341 -1.9639
 6199TIP3    H240233   6.076   6.946   7.062  1.4623  0.6248 -1.7794
 6200TIP3   OH240234   2.959   2.913   1.477 -0.4042  0.4864  0.0415
 6200TIP3    H140235   2.920   2.913   1.564 -2.1075 -1.5804 -0.6165
 6200TIP3    H240236   3.010   2.994   1.473 -3.2593  2.5619  1.6235
 6201TIP3   OH240237   2.575   3.277   8.015  0.8125 -0.4608  0.4892
 6201TIP3    H140238   2.600   3.186   8.031  1.9329 -0.1416  0.6325
 6201TIP3    H240239   2.608   3.325   8.091  0.0436  0.0413  0.5172
 6202TIP3   OH240240   2.263   5.401   0.492  0.3098  0.2140 -0.1529
 6202TIP3    H140241   2.340   5.372   0.442  0.3972 -0.1075  0.1623
 6202TIP3    H240242   2.198   5.422   0.425  0.2513 -0.6902 -0.3989
 6203TIP3   OH240243   0.009   6.164   8.327  0.1048 -0.3606  0.7877
 6203TIP3    H140244   0.061   6.108   8.385  2.1529 -0.5604 -1.1214
 6203TIP3    H240245   0.035   6.138   8.239 -2.6773  0.1239 -0.2968
 6204TIP3   OH240246   3.110   5.318   0.136 -0.2545  0.0160 -0.1690
 6204TIP3    H140247   3.084   5.227   0.151 -2.5298  0.3263 -1.8181
 6204TIP3    H240248   3.099   5.360   0.221  0.4667 -1.1257  0.5302
 6205TIP3   OH240249   6.179   3.122   1.549  0.7401 -0.1780  0.5724
 6205TIP3    H140250   6.203   3.211   1.576 -0.4524  0.0517  0.9487
 6205TIP3    H240251   6.259   3.086   1.510  0.6397  1.8161 -1.6336
 6206TIP3   OH240252   1.833   2.284   6.910 -0.1260  0.3369  0.3532
 6206TIP3    H140253   1.852   2.352   6.846 -0.2708 -0.1419 -0.2101
 6206TIP3    H240254   1.856   2.202   6.866 -1.6609 -0.1271  0.3214
 6207TIP3   OH240255   5.481   3.218   0.193 -0.1013  1.1288 -0.1656
 6207TIP3    H140256   5.418   3.172   0.139 -0.2685 -0.3724  1.2295
 6207TIP3    H240257   5.564   3.210   0.146  0.1507 -1.8028  0.5987
 6208TIP3   OH240258   3.857   3.085   7.088  0.3539 -0.0297  0.2021
 6208TIP3    H140259   3.910   3.157   7.054  0.3198 -0.3097 -0.4519
 6208TIP3    H240260   3.767   3.116   7.082  0.4142  0.3797  1.1562
 6209TIP3   OH240261   5.221   2.729   8.148 -0.0196 -0.6448  0.4852
 6209TIP3    H140262   5.156   2.734   8.217 -0.3194  2.0378  0.0962
 6209TIP3    H240263   5.305   2.733   8.194 -0.2026  0.1772  0.7548
 6210TIP3   OH240264   4.092   5.724   2.389  0.4126 -0.7362  0.7029
 6210TIP3    H140265   4.102   5.819   2.384  1.3763 -0.8875 -2.0010
 6210TIP3    H240266   3.998   5.709   2.375  0.4129 -0.2248  0.1224
 6211TIP3   OH240267   5.156   6.132   0.966 -0.3817 -0.0949 -0.4838
 6211TIP3    H140268   5.156   6.210   1.021 -1.6533  1.9826 -3.1297
 6211TIP3    H240269   5.227   6.147   0.903 -2.9928  1.0540 -3.4578
 6212TIP3   OH240270   2.300   1.836   6.113  0.8575  0.5374 -0.1850
 6212TIP3    H140271   2.373   1.892   6.140  0.4243  0.7694  0.5695
 6212TIP3    H240272   2.340   1.756   6.080  1.4609  0.8346 -0.1703
 6213TIP3   OH240273   3.580   1.450   5.750  0.3485 -0.4204  0.5096
 6213TIP3    H140274   3.658   1.395   5.747  0.2556 -0.5172 -0.5341
 6213TIP3    H240275   3.508   1.388   5.764  0.4423 -0.3374  1.4109
 6214TIP3   OH240276   6.467   4.838   7.982 -0.3315 -0.2292 -0.0093
 6214TIP3    H140277   6.415   4.782   8.039 -0.8567 -1.2240 -1.4201
 6214TIP3    H240278   6.416   4.845   7.901 -0.0738  1.9482 -0.0476
 6215TIP3   OH240279   5.880   0.406   7.729  0.4443 -0.0178  0.6526
 6215TIP3    H140280   5.836   0.483   7.766 -1.3810 -0.5562 -0.2788
 6215TIP3    H240281   5.948   0.441   7.672  0.9479  0.8493  1.7483
 6216TIP3   OH240282   6.692   2.107   0.202  0.1574 -0.5646 -0.5832
 6216TIP3    H140283   6.658   2.196   0.191  2.0285  0.2278 -0.2863
 6216TIP3    H240284   6.629   2.065   0.262 -0.9094  0.4400 -0.9535
 6217TIP3   OH240285   0.829   3.796   7.148 -0.0185  0.0528 -0.2729
 6217TIP3    H140286   0.886   3.843   7.088 -0.9746  0.2541 -1.0385
 6217TIP3    H240287   0.859   3.823   7.235  0.2597  1.1049 -0.6827
 6218TIP3   OH240288   2.429   6.407   0.103  0.0032  0.1864  0.9146
 6218TIP3    H140289   2.352   6.434   0.152  0.5363  0.3504  1.6837
 6218TIP3    H240290   2.476   6.349   0.162 -1.3651 -2.9715 -0.8443
 6219TIP3   OH240291   1.147   1.064   7.618 -0.2804 -0.3277  0.7353
 6219TIP3    H140292   1.065   1.093   7.580  0.2735 -0.3927 -0.5732
 6219TIP3    H240293   1.213   1.123   7.582  0.2247 -0.1406  1.9310
 6220TIP3   OH240294   1.370   1.453   7.315 -0.1710  0.2232  0.2565
 6220TIP3    H140295   1.440   1.519   7.309  0.4379 -0.4631 -0.3543
 6220TIP3    H240296   1.323   1.476   7.395  0.0172  1.4134  0.0506
 6221TIP3   OH240297   0.843   6.089   7.754 -0.0092  0.5585  0.2817
 6221TIP3    H140298   0.854   6.174   7.713 -1.8559  1.1562  0.9198
 6221TIP3    H240299   0.766   6.051   7.711 -0.8227  0.3819  1.8230
 6222TIP3   OH240300   1.379   0.423   8.430  0.7406  0.2224 -0.0617
 6222TIP3    H140301   1.289   0.403   8.405  1.1068 -0.2098 -1.1018
 6222TIP3    H240302   1.433   0.367   8.374  1.6700  0.8893  0.1318
 6223TIP3   OH240303   6.062   1.290   0.226  0.4743 -0.2544  0.1736
 6223TIP3    H140304   6.094   1.203   0.204  0.0039 -0.5203  0.5250
 6223TIP3    H240305   6.134   1.349   0.204  0.7722 -0.7256 -0.1167
 6224TIP3   OH240306   3.029   1.138   2.064  0.3085 -0.4084 -0.2932
 6224TIP3    H140307   3.039   1.063   2.122 -1.0205 -1.3694 -1.2394
 6224TIP3    H240308   2.936   1.162   2.071  0.6229  0.8984 -0.3146
 6225TIP3   OH240309   3.146   6.145   7.526  0.2909 -0.6601  0.8117
 6225TIP3    H140310   3.124   6.052   7.523  0.7847 -0.7637 -0.1576
 6225TIP3    H240311   3.083   6.183   7.587 -0.8661 -1.3875  0.1179
 6226TIP3   OH240312   2.338   0.834   8.310 -0.0509  0.1893 -0.5338
 6226TIP3    H140313   2.392   0.775   8.362 -3.0321 -3.0883 -0.7519
 6226TIP3    H240314   2.386   0.845   8.228  1.0873 -1.1520 -0.0920
 6227TIP3   OH240315   1.529   3.431   1.606  0.6760 -0.2362 -0.2997
 6227TIP3    H140316   1.573   3.514   1.628  1.8654 -0.5154 -1.5069
 6227TIP3    H240317   1.548   3.374   1.680 -0.2093  0.5665  0.5801
 6228TIP3   OH240318   0.037   6.512   1.460 -0.0086  0.1146 -0.8902
 6228TIP3    H140319   0.040   6.584   1.397  0.4034  0.1008 -0.8897
 6228TIP3    H240320   0.098   6.539   1.529 -0.0034 -0.1426 -0.7940
 6229TIP3   OH240321   5.596   1.203   0.894 -0.3439 -0.0027  0.2932
 6229TIP3    H140322   5.590   1.123   0.946  0.3784  0.2114  0.7160
 6229TIP3    H240323   5.668   1.252   0.933 -0.2346  0.4747 -0.4836
 6230TIP3   OH240324   1.561   4.354   6.615  0.0390 -0.7513 -0.0731
 6230TIP3    H140325   1.654   4.364   6.594  0.7091 -2.3381  1.8241
 6230TIP3    H240326   1.521   4.437   6.586  1.2782 -1.3657 -4.2994
 6231TIP3   OH240327   0.524   4.841   7.743  0.0391  0.1727  0.1116
 6231TIP3    H140328   0.476   4.759   7.758  0.1084  0.0833 -0.1542
 6231TIP3    H240329   0.509   4.892   7.823  0.3395 -0.2667  0.4560
 6232TIP3   OH240330   6.265   1.551   0.797 -1.1373  0.2905  0.0469
 6232TIP3    H140331   6.304   1.610   0.861 -2.1180  1.0161 -0.0115
 6232TIP3    H240332   6.181   1.590   0.775  0.0621  1.3000 -3.4026
 6233TIP3   OH240333   1.897   6.048   0.571 -0.2115 -0.3626  0.6805
 6233TIP3    H140334   1.838   6.122   0.583  1.2669  0.6764  1.8168
 6233TIP3    H240335   1.857   5.977   0.621 -0.4169  0.3895  1.6018
 6234TIP3   OH240336   2.784   6.805   6.849 -0.3020 -0.0964 -0.0867
 6234TIP3    H140337   2.872   6.789   6.883 -0.0380  0.0489 -0.6795
 6234TIP3    H240338   2.781   6.900   6.834  0.1546 -0.3381 -1.9394
 6235TIP3   OH240339   0.082   3.037   8.499  0.6709 -0.2797 -0.7829
 6235TIP3    H140340   0.074   2.971   8.430  0.8151  0.1144 -1.1851
 6235TIP3    H240341   0.068   3.121   8.454  0.9947 -0.0013 -0.3795
 6236TIP3   OH240342   2.031   5.715   1.669  0.0165 -0.4353 -0.3950
 6236TIP3    H140343   2.085   5.687   1.743 -1.1135 -1.1022  0.2212
 6236TIP3    H240344   1.944   5.679   1.689 -0.5121  0.1084 -1.6306
 6237TIP3   OH240345   0.068   1.845   7.374  0.5684 -0.7130 -0.3318
 6237TIP3    H140346   0.058   1.904   7.300 -2.5814 -0.1531  0.4224
 6237TIP3    H240347   0.056   1.757   7.337  0.5819 -0.5543 -0.7119
 6238TIP3   OH240348   2.586   5.457   0.720  0.2272  0.3298 -0.1901
 6238TIP3    H140349   2.653   5.480   0.785  0.9483 -0.4318 -0.6332
 6238TIP3    H240350   2.532   5.535   0.711  0.8753  0.8550  0.4183
 6239TIP3   OH240351   1.686   6.451   1.900 -0.5630 -0.0110  0.3760
 6239TIP3    H140352   1.701   6.543   1.877 -1.5777  0.2305  0.6303
 6239TIP3    H240353   1.715   6.444   1.991  1.1002 -0.3665 -0.1494
 6240TIP3   OH240354   1.716   0.441   1.037 -0.2845  0.2025  0.0096
 6240TIP3    H140355   1.678   0.378   1.097 -1.4699 -0.7387 -1.6444
 6240TIP3    H240356   1.787   0.393   0.993  1.3486  1.2271  1.3877
 6241TIP3   OH240357   5.862   3.520   8.499  0.3001  0.4916  0.0147
 6241TIP3    H140358   5.843   3.587   8.433  1.4437 -0.6593 -1.5593
 6241TIP3    H240359   5.787   3.460   8.494  0.6140  0.1385 -0.6293
 6242TIP3   OH240360   4.667   5.850   2.219 -0.2611 -0.1040  0.2734
 6242TIP3    H140361   4.681   5.916   2.287  0.1523  1.6324 -1.4228
 6242TIP3    H240362   4.577   5.864   2.190  0.0674  0.2237 -0.6048
 6243TIP3   OH240363   5.309   3.786   0.766 -0.6630  0.7551 -0.2750
 6243TIP3    H140364   5.393   3.826   0.787 -0.1895 -0.8916  1.2158
 6243TIP3    H240365   5.246   3.858   0.770  0.4713  1.7665 -0.0664
 6244TIP3   OH240366   0.588   3.890   0.541 -0.6304  0.2926 -0.1040
 6244TIP3    H140367   0.638   3.971   0.540  1.0346 -0.5570  2.8829
 6244TIP3    H240368   0.543   3.891   0.626  0.0518 -2.2189  0.3536
 6245TIP3   OH240369   4.934   3.333   7.535 -0.1650 -0.2383 -0.4032
 6245TIP3    H140370   4.873   3.329   7.608 -0.2799 -2.4042 -0.5559
 6245TIP3    H240371   4.879   3.346   7.458 -0.2454 -0.1509 -0.3314
 6246TIP3   OH240372   5.085   6.701   0.642 -0.4134 -0.3017  0.0560
 6246TIP3    H140373   5.137   6.777   0.667 -0.0837  0.5433 -2.8130
 6246TIP3    H240374   5.066   6.656   0.724  0.2407  2.3162  1.7571
 6247TIP3   OH240375   5.855   1.841   1.599  0.4038  0.2559 -0.2464
 6247TIP3    H140376   5.943   1.859   1.631  0.1581 -0.5866  0.9804
 6247TIP3    H240377   5.833   1.755   1.635 -0.7197  0.2146 -0.9667
 6248TIP3   OH240378   4.443   4.325   1.662  0.0964  0.2229  0.6679
 6248TIP3    H140379   4.403   4.269   1.728 -0.2813 -0.0353  0.2301
 6248TIP3    H240380   4.486   4.265   1.602 -0.4628  0.3762  0.0947
 6249TIP3   OH240381   1.746   2.489   1.555  0.6190  0.7543  0.1453
 6249TIP3    H140382   1.672   2.450   1.510 -0.0971  1.8780  0.3062
 6249TIP3    H240383   1.822   2.464   1.503  0.0734  0.0598 -0.3375
 6250TIP3   OH240384   4.573   4.765   8.249  0.5865 -0.3060  0.0911
 6250TIP3    H140385   4.483   4.733   8.256  0.1366  0.6475 -1.1472
 6250TIP3    H240386   4.627   4.686   8.260 -0.4790 -1.3832 -1.9178
 6251TIP3   OH240387   3.278   3.737   7.884 -0.2918  0.0767 -0.0489
 6251TIP3    H140388   3.249   3.818   7.925 -0.1317  0.0064  0.2053
 6251TIP3    H240389   3.236   3.738   7.798  3.8823  3.0801 -2.3902
 6252TIP3   OH240390   1.721   4.497   7.596 -0.2479 -0.2337  0.5523
 6252TIP3    H140391   1.792   4.485   7.659  0.8270 -0.5739 -0.6918
 6252TIP3    H240392   1.643   4.467   7.643  0.4163  0.0623  1.9137
 6253TIP3   OH240393   2.364   5.181   7.368  0.2501 -0.4748 -0.0519
 6253TIP3    H140394   2.345   5.204   7.458 -0.1314  0.0471 -0.2637
 6253TIP3    H240395   2.291   5.216   7.317  1.7979  1.7210 -0.8872
 6254TIP3   OH240396   5.062   3.579   8.118  0.4567 -0.1679 -0.5538
 6254TIP3    H140397   4.988   3.580   8.178 -0.2172 -1.8818 -1.2849
 6254TIP3    H240398   5.118   3.651   8.147 -0.6474  0.0794  1.0863
 6255TIP3   OH240399   5.069   3.347   6.927 -0.4094 -0.2422  0.3443
 6255TIP3    H140400   5.011   3.322   6.855 -0.3540 -1.6896  0.7810
 6255TIP3    H240401   5.152   3.306   6.905  0.0988  0.7153  0.4062
 6256TIP3   OH240402   6.293   5.203   8.124  0.1802 -0.5674 -0.5488
 6256TIP3    H140403   6.331   5.192   8.037 -0.2529  2.5896 -1.2510
 6256TIP3    H240404   6.208   5.245   8.108  0.2738  0.4899  1.3942
 6257TIP3   OH240405   5.983   4.479   6.972 -0.1541  0.2272  0.1448
 6257TIP3    H140406   5.951   4.393   6.944  3.8451 -1.3778 -0.1063
 6257TIP3    H240407   5.907   4.536   6.965 -2.8591 -3.1024 -0.3248
 6258TIP3   OH240408   1.425   2.131   2.581 -0.3178 -0.3486 -0.2963
 6258TIP3    H140409   1.410   2.050   2.630  0.2387 -0.1816  0.1684
 6258TIP3    H240410   1.403   2.109   2.491 -0.2476 -1.0000 -0.1600
 6259TIP3   OH240411   6.382   0.334   7.596 -0.5447  0.2656 -0.3447
 6259TIP3    H140412   6.437   0.327   7.675 -0.9716  1.2844  0.0550
 6259TIP3    H240413   6.427   0.399   7.542 -1.1717  0.8695 -0.1540
 6260TIP3   OH240414   2.609   0.815   7.437  0.1665 -0.3675  0.1430
 6260TIP3    H140415   2.575   0.875   7.370 -1.8024 -1.5107  0.0391
 6260TIP3    H240416   2.569   0.846   7.519 -0.6185 -1.2987  0.1361
 6261TIP3   OH240417   5.037   4.515   0.918  0.1501 -0.6400 -0.0567
 6261TIP3    H140418   5.121   4.498   0.877 -0.6299  0.2033 -2.1345
 6261TIP3    H240419   4.988   4.433   0.910  0.2556 -0.6905 -0.1755
 6262TIP3   OH240420   5.830   4.174   3.077 -0.4585  0.0821 -0.1972
 6262TIP3    H140421   5.781   4.098   3.108  0.3323 -1.3720 -2.2447
 6262TIP3    H240422   5.777   4.209   3.006  1.0569 -1.1847 -2.0772
 6263TIP3   OH240423   0.297   0.657   1.755 -0.5186  0.1637 -0.0536
 6263TIP3    H140424   0.364   0.601   1.716 -1.1920 -0.8011  0.1192
 6263TIP3    H240425   0.276   0.615   1.839 -1.5689  0.2303 -0.2574
 6264TIP3   OH240426   6.680   5.618   7.413  0.0421 -0.7016 -0.4240
 6264TIP3    H140427   6.621   5.577   7.349 -0.7735 -1.4351  0.7563
 6264TIP3    H240428   6.712   5.544   7.465 -0.4454  0.0188  0.9270
 6265TIP3   OH240429   0.694   4.529   1.587  0.3473 -0.1394 -0.8468
 6265TIP3    H140430   0.747   4.577   1.523 -1.1288 -0.1304 -2.1209
 6265TIP3    H240431   0.639   4.472   1.534 -1.7068  0.6284  0.3480
 6266TIP3   OH240432   6.721   0.179   7.447 -0.1001  0.5508 -0.4743
 6266TIP3    H140433   6.800   0.133   7.478 -1.3852 -1.4149  0.0664
 6266TIP3    H240434   6.717   0.157   7.353  0.0821  0.8165 -0.5467
 6267TIP3   OH240435   6.348   6.796   7.716  0.3665  0.2919 -0.9058
 6267TIP3    H140436   6.267   6.846   7.722  1.1705  1.4382  1.4301
 6267TIP3    H240437   6.407   6.851   7.664 -0.2690 -0.5083 -2.5390
 6268TIP3   OH240438   4.555   0.006   1.667 -0.0716  0.1963  0.2107
 6268TIP3    H140439   4.528  -0.050   1.740 -2.9215 -0.0370 -0.8912
 6268TIP3    H240440   4.579   0.089   1.709 -1.5588  0.0508  1.4309
 6269TIP3   OH240441   6.362   6.605   7.186  0.3533  0.0446 -0.0869
 6269TIP3    H140442   6.449   6.577   7.212 -0.0250 -1.6721 -0.5277
 6269TIP3    H240443   6.370   6.627   7.093  0.7930  2.1567  0.4067
 6270TIP3   OH240444   6.291   1.506   6.602 -0.1058  0.4533 -0.0414
 6270TIP3    H140445   6.376   1.549   6.606 -0.4162  0.9903  1.3719
 6270TIP3    H240446   6.300   1.441   6.532  0.4849  2.5834 -2.0807
 6271TIP3   OH240447   4.948   1.874   2.018 -0.0177 -0.2302  0.5091
 6271TIP3    H140448   4.933   1.782   2.035 -2.4804 -0.0225 -0.1153
 6271TIP3    H240449   4.877   1.919   2.064 -0.4009  1.1152 -1.2808
 6272TIP3   OH240450   5.228   0.347   1.580 -0.0480  0.2676  0.6009
 6272TIP3    H140451   5.146   0.376   1.620 -0.5441  0.0334 -0.2027
 6272TIP3    H240452   5.200   0.287   1.510  0.8535 -0.4716  0.8585
 6273TIP3   OH240453   1.045   4.583   6.761  0.3819  0.2528 -0.1574
 6273TIP3    H140454   1.112   4.588   6.693  0.1811  1.4927 -0.2847
 6273TIP3    H240455   0.971   4.539   6.719  0.4376  0.5722 -0.5960
 6274TIP3   OH240456   1.114   2.649   7.680  0.1124 -0.0604  0.2888
 6274TIP3    H140457   1.203   2.683   7.673  0.6325 -1.3759  0.2614
 6274TIP3    H240458   1.122   2.569   7.732 -0.9939 -0.4067 -0.0350
 6275TIP3   OH240459   6.799   6.777   1.106 -0.6535  0.5596 -0.5759
 6275TIP3    H140460   6.788   6.852   1.165  1.3095 -0.8054  1.7332
 6275TIP3    H240461   6.893   6.760   1.107 -1.0630 -2.0974 -0.7396
 6276TIP3   OH240462   2.932   2.657   7.591  0.4341  0.1620  0.6859
 6276TIP3    H140463   3.020   2.668   7.556  0.6194  0.1418  1.1429
 6276TIP3    H240464   2.940   2.586   7.655  0.0101 -0.0884  0.4653
 6277TIP3   OH240465   5.701   6.823   6.882  0.1872  0.2825  0.7872
 6277TIP3    H140466   5.788   6.825   6.842  0.0399  0.6391  0.4720
 6277TIP3    H240467   5.714   6.861   6.970  0.3385  0.3969  0.7164
 6278TIP3   OH240468   1.692   2.032   1.185  0.6858  0.2219  0.4702
 6278TIP3    H140469   1.605   2.067   1.206 -0.0740 -0.3963 -1.4471
 6278TIP3    H240470   1.747   2.109   1.172  0.2024  0.6300  0.8111
 6279TIP3   OH240471   3.808   2.493   8.571 -0.2079 -0.1463 -0.0960
 6279TIP3    H140472   3.797   2.551   8.646 -1.9716  0.1199 -0.5213
 6279TIP3    H240473   3.841   2.411   8.609 -0.7043  0.1115  0.9258
 6280TIP3   OH240474   2.340   2.062   0.413 -0.6764 -0.1255  0.4332
 6280TIP3    H140475   2.431   2.075   0.389 -0.8479  1.8616  0.6663
 6280TIP3    H240476   2.323   1.970   0.396  1.6317 -0.7627  1.3202
 6281TIP3   OH240477   3.618   6.686   0.159  0.1893 -0.1432 -0.0754
 6281TIP3    H140478   3.535   6.645   0.185 -0.0724  0.5101  0.1229
 6281TIP3    H240479   3.604   6.780   0.171  1.4289 -0.1129  1.3171
 6282TIP3   OH240480   2.116   4.690   6.581 -0.2676  0.4455 -0.3217
 6282TIP3    H140481   2.151   4.638   6.653 -0.9130  0.9574  0.3692
 6282TIP3    H240482   2.171   4.768   6.578  0.1503  0.1406 -0.7955
 6283TIP3   OH240483   3.192   3.147   7.425 -0.3071  0.4089  0.0689
 6283TIP3    H140484   3.176   3.231   7.468 -0.6880  0.2494  0.2405
 6283TIP3    H240485   3.214   3.170   7.335  0.3430  0.7353  0.3003
 6284TIP3   OH240486   3.493   1.831   8.287  0.5087  0.4074 -0.2719
 6284TIP3    H140487   3.545   1.904   8.321 -1.1502  1.6026 -0.1593
 6284TIP3    H240488   3.405   1.868   8.275 -0.6072 -1.7891  0.5770
 6285TIP3   OH240489   2.924   2.924   8.302  0.0398 -0.0497 -0.0362
 6285TIP3    H140490   2.970   2.985   8.360 -1.6718 -0.5021  1.9007
 6285TIP3    H240491   2.943   2.956   8.214  0.5352  2.3123  0.8521
 6286TIP3   OH240492   5.528   2.683   0.603 -0.6019  0.2784 -0.0388
 6286TIP3    H140493   5.472   2.755   0.632  0.9452  1.1401  1.0093
 6286TIP3    H240494   5.474   2.605   0.608 -1.9916  1.2138 -0.0903
 6287TIP3   OH240495   1.379   2.032   2.300  0.0952  0.2873 -0.1558
 6287TIP3    H140496   1.332   1.948   2.309  1.2053 -0.1744  2.0088
 6287TIP3    H240497   1.464   2.008   2.263  0.2220  0.5350 -0.0222
 6288TIP3   OH240498   0.756   1.579   6.695  0.0667  0.4944  0.5147
 6288TIP3    H140499   0.698   1.539   6.630  0.6172 -0.4127  0.5561
 6288TIP3    H240500   0.781   1.506   6.752  2.8787  0.3703 -0.7234
 6289TIP3   OH240501   2.390   0.336   8.399 -0.4407 -0.2140 -0.0775
 6289TIP3    H140502   2.312   0.376   8.439  0.5175  0.3634  1.2764
 6289TIP3    H240503   2.355   0.280   8.330 -1.9587  1.3201 -0.6214
 6290TIP3   OH240504   2.390   6.398   7.435 -0.4090 -0.0204 -0.2709
 6290TIP3    H140505   2.334   6.470   7.465  0.9326  0.6036  0.8797
 6290TIP3    H240506   2.383   6.332   7.505  2.0292  1.0478  1.0826
 6291TIP3   OH240507   2.306   2.889   1.295  0.3960  0.2927  0.1591
 6291TIP3    H140508   2.253   2.955   1.339 -0.1649  0.3709 -0.6141
 6291TIP3    H240509   2.384   2.935   1.265  0.5400  0.3487  0.6188
 6292TIP3   OH240510   1.490   3.916   2.008  0.0580 -0.3764  0.1324
 6292TIP3    H140511   1.551   3.912   1.934 -0.0943 -0.3943  0.0088
 6292TIP3    H240512   1.455   4.005   2.006  0.1363 -0.3420  0.2501
 6293TIP3   OH240513   5.360   1.947   7.923 -0.5005 -0.1191  0.6412
 6293TIP3    H140514   5.265   1.939   7.924 -0.4818 -0.3231  1.3223
 6293TIP3    H240515   5.385   1.949   8.015  0.0075  1.6656  0.5015
 6294TIP3   OH240516   3.044   4.025   1.379  0.5204 -0.1994  0.3939
 6294TIP3    H140517   3.096   4.105   1.369 -0.2557  0.2863  0.1139
 6294TIP3    H240518   3.086   3.962   1.321  1.7204 -0.3044  1.3483
 6295TIP3   OH240519   1.431   5.725   1.384 -0.4764 -0.4142  0.2144
 6295TIP3    H140520   1.372   5.659   1.346  0.2027 -1.7009  1.3087
 6295TIP3    H240521   1.506   5.675   1.415  0.0125  0.8786  1.1956
 6296TIP3   OH240522   1.090   6.506   8.257 -0.0673 -0.2082 -0.2313
 6296TIP3    H140523   1.166   6.475   8.306  0.2922  1.5487  0.4060
 6296TIP3    H240524   1.108   6.482   8.166  1.2253  0.0990 -0.0784
 6297TIP3   OH240525   0.412   4.177   7.973  0.1737 -0.3428 -0.2884
 6297TIP3    H140526   0.413   4.187   7.878 -0.5290 -0.0256 -0.2631
 6297TIP3    H240527   0.329   4.216   8.001  0.1293 -0.9192  0.4025
 6298TIP3   OH240528   2.461   3.449   2.261  0.2391 -0.0270  0.1073
 6298TIP3    H140529   2.544   3.497   2.257 -1.0602  2.3270 -0.4495
 6298TIP3    H240530   2.451   3.427   2.354  1.6836 -0.7835  0.1076
 6299TIP3   OH240531   6.617   1.242   8.580  0.0905  0.2146 -0.1261
 6299TIP3    H140532   6.572   1.295   8.645 -0.3995  0.9482 -1.0416
 6299TIP3    H240533   6.708   1.271   8.583  0.3742 -0.7428  1.1986
 6300TIP3   OH240534   1.791   2.715   6.692  0.3939 -0.2422 -0.5545
 6300TIP3    H140535   1.732   2.736   6.619  1.1228 -0.3666 -1.1845
 6300TIP3    H240536   1.814   2.800   6.729  1.5837 -0.0360 -1.7119
 6301TIP3   OH240537   5.153   3.214   0.974  0.0134  0.5108 -0.1140
 6301TIP3    H140538   5.135   3.125   1.004  1.8926  0.1408  0.0347
 6301TIP3    H240539   5.221   3.247   1.034 -0.1521  1.7937 -0.5904
 6302TIP3   OH240540   4.284   5.545   8.341 -0.1653 -0.3794  0.0500
 6302TIP3    H140541   4.286   5.449   8.335 -2.6562 -0.3916 -2.6671
 6302TIP3    H240542   4.191   5.567   8.345  0.2871  1.9630 -0.8391
 6303TIP3   OH240543   4.317   5.113   1.063  0.2872 -0.0365  0.0004
 6303TIP3    H140544   4.287   5.134   1.151  0.8270 -0.6802  0.3457
 6303TIP3    H240545   4.258   5.161   1.005 -0.8149 -0.5484  0.6715
 6304TIP3   OH240546   1.171   2.191   1.260 -0.0459  0.6674  0.1603
 6304TIP3    H140547   1.094   2.139   1.281 -0.4296  1.5947  1.1077
 6304TIP3    H240548   1.157   2.219   1.170 -1.0326  1.1834  0.4643
 6305TIP3   OH240549   2.791   0.731   7.957 -0.0619 -0.0568 -0.4186
 6305TIP3    H140550   2.827   0.665   7.898 -0.3441  0.9216 -1.7195
 6305TIP3    H240551   2.845   0.725   8.036  0.8768 -0.7902 -1.1044
 6306TIP3   OH240552   6.340   1.768   0.309 -0.4925 -0.4052 -0.5501
 6306TIP3    H140553   6.391   1.817   0.373  0.0295 -0.5015 -0.8850
 6306TIP3    H240554   6.250   1.771   0.342 -0.3913  0.3879 -0.3381
 6307TIP3   OH240555   4.763   5.560   0.072 -0.1246 -0.0139 -0.3598
 6307TIP3    H140556   4.829   5.560   0.141  0.1358  0.7047 -0.6030
 6307TIP3    H240557   4.808   5.526  -0.005 -0.4582 -0.9677 -0.1461
 6308TIP3   OH240558   1.287   4.594   7.106  0.0209 -0.4428  0.2881
 6308TIP3    H140559   1.333   4.525   7.154 -0.2008 -0.0018  1.1474
 6308TIP3    H240560   1.194   4.575   7.119 -0.0411 -0.0435  0.4420
 6309TIP3   OH240561   3.312   6.421   7.931  0.1851 -0.3913  0.0991
 6309TIP3    H140562   3.274   6.496   7.977  2.2017  0.1672  0.9783
 6309TIP3    H240563   3.306   6.445   7.838 -0.8166  0.0223  0.2514
 6310TIP3   OH240564   3.595   1.656   6.912  0.0688  0.3059  0.1105
 6310TIP3    H140565   3.631   1.719   6.850  0.1864  0.7840  0.6601
 6310TIP3    H240566   3.540   1.599   6.859  0.9192  0.1173 -0.5927
 6311TIP3   OH240567   0.163   4.459   0.484  0.0336  0.5385 -0.1841
 6311TIP3    H140568   0.204   4.540   0.514  1.8154  0.0545 -1.1813
 6311TIP3    H240569   0.235   4.409   0.444 -1.1147 -1.3096 -0.0553
 6312TIP3   OH240570   4.310   0.309   7.351 -0.1586 -0.1633 -0.1927
 6312TIP3    H140571   4.233   0.326   7.297 -1.3785 -1.2271  1.1425
 6312TIP3    H240572   4.290   0.348   7.436  0.3078 -1.3273  0.4862
 6313TIP3   OH240573   2.171   2.265   6.122 -0.1165  0.1075  0.2251
 6313TIP3    H140574   2.094   2.294   6.170 -0.2764  0.2608 -0.1197
 6313TIP3    H240575   2.188   2.176   6.153 -2.4886 -1.3114 -2.1768
 6314TIP3   OH240576   6.494   6.676   1.622  0.1459  0.4682 -0.0363
 6314TIP3    H140577   6.561   6.665   1.690 -0.4509  1.7757  0.8099
 6314TIP3    H240578   6.527   6.746   1.566  0.0878  0.2181 -0.3823
 6315TIP3   OH240579   3.646   2.577   6.466 -0.3614  0.3971 -0.3812
 6315TIP3    H140580   3.699   2.538   6.535  1.0878  1.0102 -1.1074
 6315TIP3    H240581   3.618   2.504   6.412 -1.2118 -0.0490  0.6364
 6316TIP3   OH240582   6.079   6.267   7.572 -0.5321 -0.1058  0.2842
 6316TIP3    H140583   6.162   6.310   7.590 -0.4737  0.7321 -1.7537
 6316TIP3    H240584   6.056   6.225   7.655  1.0468  1.0822  1.4000
 6317TIP3   OH240585   4.814   3.823   2.635  0.4132 -0.0803  0.1062
 6317TIP3    H140586   4.902   3.855   2.614  0.9540 -2.1675 -1.1361
 6317TIP3    H240587   4.755   3.885   2.592  1.3749 -0.1012 -1.3225
 6318TIP3   OH240588   3.036   4.072   0.854  0.1262  0.0198  0.3715
 6318TIP3    H140589   3.112   4.130   0.840 -0.9702  1.2628 -0.7317
 6318TIP3    H240590   3.066   3.987   0.823  0.2354  1.0982 -2.8424
 6319TIP3   OH240591   6.626   4.582   8.576 -0.1388  0.0363  0.0940
 6319TIP3    H140592   6.679   4.547   8.647  1.5967  1.1823 -0.5663
 6319TIP3    H240593   6.543   4.536   8.583  0.9975 -2.0034  1.0611
 6320TIP3   OH240594   2.594   6.607   0.782 -0.3328  0.3427 -0.5514
 6320TIP3    H140595   2.623   6.536   0.839 -0.1812  0.2881 -0.6938
 6320TIP3    H240596   2.614   6.687   0.830  0.4788  0.3242 -0.8344
 6321TIP3   OH240597   0.245   0.572   7.412  0.1490  0.4981  0.1290
 6321TIP3    H140598   0.228   0.611   7.326 -2.1273  0.1053  0.3258
 6321TIP3    H240599   0.250   0.478   7.396  1.2163  0.5312  0.2361
 6322TIP3   OH240600   4.704   3.553   2.285  0.5876  0.8335 -0.2008
 6322TIP3    H140601   4.768   3.548   2.356 -0.0578  0.9299  0.3853
 6322TIP3    H240602   4.619   3.539   2.327  0.2315  0.4817 -1.0071
 6323TIP3   OH240603   2.751   1.630   8.224  0.0261 -0.0657 -0.1250
 6323TIP3    H140604   2.711   1.609   8.308 -1.5760  0.2534 -0.7711
 6323TIP3    H240605   2.806   1.707   8.242  0.2999 -0.4558  0.7640
 6324TIP3   OH240606   2.465   4.466   0.621 -0.2049  0.4532 -0.3660
 6324TIP3    H140607   2.393   4.457   0.683  0.0350  3.5690  0.5203
 6324TIP3    H240608   2.428   4.440   0.537 -1.1040 -1.9840  0.6892
 6325TIP3   OH240609   2.125   5.875   0.543 -0.2036 -0.0487  0.2383
 6325TIP3    H140610   2.037   5.911   0.538  0.6855  2.3842  0.5671
 6325TIP3    H240611   2.158   5.906   0.628  1.4264  0.3354 -0.5015
 6326TIP3   OH240612   4.694   6.382   7.466  0.5923  0.1601 -1.3085
 6326TIP3    H140613   4.625   6.389   7.532  0.4971  0.9005 -1.4854
 6326TIP3    H240614   4.720   6.472   7.448  1.5992 -0.1030 -1.2514
 6327TIP3   OH240615   5.592   5.847   8.552  0.0514 -0.3544  0.2709
 6327TIP3    H140616   5.521   5.815   8.496  0.7779 -0.6551 -0.4947
 6327TIP3    H240617   5.665   5.787   8.535  0.7485  0.4306  0.4344
 6328TIP3   OH240618   4.061   3.623   0.159 -0.1202 -0.2399 -0.0284
 6328TIP3    H140619   4.038   3.552   0.099 -3.5250  1.7310 -1.3267
 6328TIP3    H240620   4.157   3.620   0.164  0.0810 -2.8617 -2.5196
 6329TIP3   OH240621   4.786   6.651   1.661  0.2634  0.0331  0.2127
 6329TIP3    H140622   4.725   6.653   1.735  1.3913 -1.4353  1.2436
 6329TIP3    H240623   4.753   6.581   1.605  0.8529 -0.6259  0.6697
 6330TIP3   OH240624   5.916   1.043   0.319  0.1968  0.2096 -0.2737
 6330TIP3    H140625   5.887   0.961   0.279 -0.6270  0.2110  0.3110
 6330TIP3    H240626   5.853   1.108   0.289 -0.2446  0.2685  0.7696
 6331TIP3   OH240627   4.796   1.321   8.336  0.2243 -0.0064 -0.4121
 6331TIP3    H140628   4.719   1.347   8.286  1.1491 -0.6820 -2.2877
 6331TIP3    H240629   4.843   1.403   8.351  0.5939  0.0889 -1.8828
 6332TIP3   OH240630   1.507   5.991   1.816 -0.0027  0.2054  0.0953
 6332TIP3    H140631   1.531   5.968   1.906 -0.8281  0.8665  0.4933
 6332TIP3    H240632   1.516   5.909   1.767 -2.1012 -0.8074  1.3161
 6333TIP3   OH240633   1.728   0.106   8.324 -0.0737  0.2487 -0.3631
 6333TIP3    H140634   1.752   0.149   8.406 -1.0795  2.0467 -0.9584
 6333TIP3    H240635   1.666   0.038   8.350 -0.4634  0.8651  0.3531
 6334TIP3   OH240636   6.123   2.163   7.128  0.7388 -0.1336  0.7501
 6334TIP3    H140637   6.188   2.212   7.077 -2.3718  0.9381 -2.6332
 6334TIP3    H240638   6.068   2.121   7.062 -1.4907 -1.6929  3.4202
 6335TIP3   OH240639   4.403   1.726   8.117  0.8551  0.2453  0.3020
 6335TIP3    H140640   4.393   1.814   8.079 -2.8806 -0.7751 -1.6006
 6335TIP3    H240641   4.390   1.738   8.211  1.0394  1.7770  0.1559
 6336TIP3   OH240642   6.310   6.251   8.028  0.2998  0.2097  0.2405
 6336TIP3    H140643   6.370   6.210   8.091 -0.0908 -1.1591 -0.2435
 6336TIP3    H240644   6.359   6.254   7.946  0.1975  0.3643  0.1854
 6337TIP3   OH240645   4.235   1.762   1.325  0.0135  0.9949 -0.4928
 6337TIP3    H140646   4.283   1.684   1.295  0.5922  1.1010  0.1415
 6337TIP3    H240647   4.253   1.828   1.258 -0.6403  0.5353 -1.1375
 6338TIP3   OH240648   3.476   2.597   7.744  0.3092 -0.1353 -0.5730
 6338TIP3    H140649   3.465   2.582   7.650 -0.2311 -1.6619 -0.2967
 6338TIP3    H240650   3.522   2.520   7.775  0.1793  0.1969  0.4726
 6339TIP3   OH240651   3.336   2.810   1.841  0.3127  0.1712  0.3527
 6339TIP3    H140652   3.363   2.824   1.750  1.9467  1.6904  0.9983
 6339TIP3    H240653   3.267   2.875   1.856 -0.7515 -0.8323 -0.0909
 6340TIP3   OH240654   1.853   4.138   0.649 -0.0392 -0.5723  0.1021
 6340TIP3    H140655   1.807   4.221   0.660 -0.7146 -0.8496 -0.5430
 6340TIP3    H240656   1.942   4.163   0.625 -0.8507  0.0304 -2.6601
 6341TIP3   OH240657   5.495   2.181   6.937 -0.1005  0.3032  1.0737
 6341TIP3    H140658   5.577   2.150   6.974 -0.3520  0.7644  2.0611
 6341TIP3    H240659   5.433   2.109   6.949 -0.5393  0.9117  2.8573
 6342TIP3   OH240660   2.841   5.841   6.389 -0.4783 -0.3907 -0.3899
 6342TIP3    H140661   2.913   5.843   6.326 -0.2119  0.8843 -0.0758
 6342TIP3    H240662   2.834   5.932   6.420  0.6933 -1.2675  2.8651
 6343TIP3   OH240663   3.467   2.986   7.140 -0.2189  0.0257  0.2446
 6343TIP3    H140664   3.547   2.934   7.148 -0.2214  0.2176  1.6067
 6343TIP3    H240665   3.498   3.076   7.125 -0.2065 -0.0840 -0.4435
 6344TIP3   OH240666   5.957   1.368   1.761 -0.2468  0.0602  0.1343
 6344TIP3    H140667   5.970   1.411   1.845 -1.0845 -0.5349  0.5788
 6344TIP3    H240668   5.983   1.278   1.775 -0.9046 -0.1704 -0.0852
 6345TIP3   OH240669   5.329   6.025   8.440 -0.4509  0.5310 -0.5016
 6345TIP3    H140670   5.360   5.966   8.372  0.6589  0.6354 -0.1075
 6345TIP3    H240671   5.388   6.100   8.436 -0.1680  0.4050  0.7769
 6346TIP3   OH240672   4.757   2.636   2.366  0.2757 -0.2481 -0.1490
 6346TIP3    H140673   4.728   2.564   2.309 -0.3942 -0.5540  0.5734
 6346TIP3    H240674   4.814   2.594   2.430  1.8173  0.2426 -1.1376
 6347TIP3   OH240675   3.839   5.395   0.963 -0.0276  0.0855  0.5662
 6347TIP3    H140676   3.836   5.489   0.982  0.0632 -0.1814  1.9789
 6347TIP3    H240677   3.810   5.354   1.044  1.2862 -1.1660  0.4270
 6348TIP3   OH240678   3.523   4.889   7.153 -0.3373  0.7087  0.0945
 6348TIP3    H140679   3.557   4.834   7.083  0.0977  1.8059 -0.5866
 6348TIP3    H240680   3.583   4.875   7.226 -2.3043 -2.5502  1.3009
 6349TIP3   OH240681   3.775   3.161   2.249 -0.6369 -0.1858 -0.4483
 6349TIP3    H140682   3.684   3.144   2.272 -0.4318  0.3887  0.8142
 6349TIP3    H240683   3.826   3.114   2.315 -0.0338  1.0863  0.0179
 6350TIP3   OH240684   2.763   1.323   7.342 -0.1557  0.3762 -0.1098
 6350TIP3    H140685   2.819   1.399   7.329 -0.1140  0.8312  2.2864
 6350TIP3    H240686   2.732   1.331   7.432 -0.5541 -2.1866  0.0613
 6351TIP3   OH240687   0.254   5.503   1.140  0.0630  0.3784 -0.2432
 6351TIP3    H140688   0.199   5.559   1.085 -1.4562 -0.3876  0.4404
 6351TIP3    H240689   0.197   5.477   1.212  2.2286  2.0980  2.2533
 6352TIP3   OH240690   3.581   6.490   7.134  0.2667  0.2458 -0.5577
 6352TIP3    H140691   3.555   6.536   7.055 -0.6282 -0.0060 -0.4165
 6352TIP3    H240692   3.633   6.416   7.103  1.2769  1.0324 -0.8133
 6353TIP3   OH240693   0.174   0.585   0.836  0.2849  0.0956  0.1022
 6353TIP3    H140694   0.255   0.565   0.884  0.7539  0.2118 -0.6237
 6353TIP3    H240695   0.118   0.508   0.850  1.1814 -0.7512 -0.7828
 6354TIP3   OH240696   6.609   2.711   8.602  0.5507  0.5828 -0.0331
 6354TIP3    H140697   6.630   2.666   8.520 -1.2956  0.8245 -0.6881
 6354TIP3    H240698   6.619   2.644   8.669  0.7662  0.0095 -0.6232
 6355TIP3   OH240699   5.773   2.142   7.428 -0.3494 -0.0963 -0.0066
 6355TIP3    H140700   5.837   2.198   7.384  0.0879 -0.3744  0.2629
 6355TIP3    H240701   5.767   2.064   7.372 -0.6812  0.0567 -0.1884
 6356TIP3   OH240702   4.936   2.948   7.655  0.0300 -0.3175 -0.2068
 6356TIP3    H140703   4.980   3.020   7.610 -1.0844 -0.0828 -0.9464
 6356TIP3    H240704   4.848   2.982   7.674 -0.2988 -1.2629  0.0048
 6357TIP3   OH240705   3.007   4.456   0.072  0.4743  0.3565 -0.1201
 6357TIP3    H140706   2.962   4.533   0.037  0.4320  1.6228  2.4680
 6357TIP3    H240707   3.095   4.487   0.092  0.9090 -0.6810 -0.4137
 6358TIP3   OH240708   2.116   1.069   8.438  0.1799 -0.4026 -0.2869
 6358TIP3    H140709   2.113   0.974   8.441 -0.3546 -0.3983 -0.5514
 6358TIP3    H240710   2.207   1.091   8.456  0.1771 -0.9353  0.4352
 6359TIP3   OH240711   6.213   6.786   0.611  0.5654 -0.3037 -0.0716
 6359TIP3    H140712   6.184   6.744   0.692  4.0128 -3.8357 -0.3886
 6359TIP3    H240713   6.166   6.740   0.542  0.9531 -0.4280 -0.2547
 6360TIP3   OH240714   0.708   0.836   2.102 -0.2508 -0.1929 -0.4811
 6360TIP3    H140715   0.743   0.804   2.019  1.2915  0.4490 -0.1131
 6360TIP3    H240716   0.651   0.766   2.134  1.0066 -1.4427 -0.9315
 6361TIP3   OH240717   1.390   3.171   0.820  0.0337  0.2111  0.0463
 6361TIP3    H140718   1.343   3.124   0.751 -1.0160 -0.7829  1.3822
 6361TIP3    H240719   1.328   3.237   0.851 -0.6307 -1.2177  1.9310
 6362TIP3   OH240720   3.264   4.048   6.512 -0.0315  0.1002  0.3223
 6362TIP3    H140721   3.359   4.060   6.505  0.2082 -1.4599  0.6039
 6362TIP3    H240722   3.232   4.134   6.538  1.3465  0.5818  0.5585
 6363TIP3   OH240723   3.602   3.225   7.105 -0.0623 -0.6793 -0.4531
 6363TIP3    H140724   3.581   3.260   7.019 -1.3855 -2.0684 -0.7423
 6363TIP3    H240725   3.570   3.291   7.167  0.2174 -0.0200 -1.0103
 6364TIP3   OH240726   6.648   5.030   0.545  0.0409  0.1411  0.4554
 6364TIP3    H140727   6.640   4.935   0.547 -0.9252  0.1194 -1.4671
 6364TIP3    H240728   6.714   5.048   0.478 -0.4064  0.8201  0.1783
 6365TIP3   OH240729   0.561   4.648   0.113 -0.5248 -0.1410 -0.1807
 6365TIP3    H140730   0.509   4.609   0.183 -1.0802 -1.2916 -1.2075
 6365TIP3    H240731   0.542   4.742   0.119  1.0943  0.1247  2.5404
 6366TIP3   OH240732   6.299   0.161   0.590 -0.1677  0.5229 -0.4232
 6366TIP3    H140733   6.313   0.068   0.609  0.4044  0.9582  1.4650
 6366TIP3    H240734   6.381   0.203   0.615 -1.2844  1.8392  1.2096
 6367TIP3   OH240735   6.892   3.071   1.977 -0.0050 -0.1991 -0.3910
 6367TIP3    H140736   6.980   3.107   1.982 -0.4215  0.7625  0.2345
 6367TIP3    H240737   6.836   3.136   2.019 -0.8491 -1.3530  0.3534
 6368TIP3   OH240738   4.473   3.317   2.128 -0.1956 -0.0301 -0.1106
 6368TIP3    H140739   4.509   3.269   2.203  0.6582  0.0520 -0.4529
 6368TIP3    H240740   4.424   3.389   2.167  1.6014  0.9873  0.3865
 6369TIP3   OH240741   1.087   4.210   7.008  0.1567 -0.6248 -0.4484
 6369TIP3    H140742   1.045   4.136   6.966 -1.1937 -0.6025  0.7650
 6369TIP3    H240743   1.015   4.270   7.028  1.0492  0.3953 -0.2083
 6370TIP3   OH240744   3.684   0.544   8.446 -0.3005 -0.2731  0.4667
 6370TIP3    H140745   3.650   0.543   8.357 -0.4522 -0.0621  0.5219
 6370TIP3    H240746   3.711   0.634   8.461 -1.7806  0.0905  1.1929
 6371TIP3   OH240747   3.722   1.194   7.794 -0.8551  0.6386 -0.3091
 6371TIP3    H140748   3.684   1.282   7.796  1.1295  1.7095 -3.1099
 6371TIP3    H240749   3.656   1.141   7.750 -2.0973  0.6439  1.4571
 6372TIP3   OH240750   0.505   3.805   8.171  0.2068 -0.4821  0.2373
 6372TIP3    H140751   0.588   3.766   8.200  0.6425  1.1655  1.3483
 6372TIP3    H240752   0.495   3.884   8.225 -0.9798  0.5517 -1.3895
 6373TIP3   OH240753   4.831   3.705   7.597 -0.6183  0.5760 -0.2724
 6373TIP3    H140754   4.756   3.646   7.609  0.0959 -0.2765  0.0851
 6373TIP3    H240755   4.901   3.667   7.650  0.1361  1.2601 -0.7458
 6374TIP3   OH240756   1.954   4.717   1.815 -0.2529 -0.1600 -0.1937
 6374TIP3    H140757   2.003   4.799   1.806 -2.5915  1.2921 -0.7902
 6374TIP3    H240758   1.905   4.728   1.897 -0.7777 -0.8638 -0.4046
 6375TIP3   OH240759   0.188   0.219   8.361  0.5496 -0.0017  0.4281
 6375TIP3    H140760   0.164   0.140   8.313 -1.4868  0.8272 -0.0643
 6375TIP3    H240761   0.254   0.191   8.424 -0.4488 -2.1930  0.5890
 6376TIP3   OH240762   4.318   4.876   8.091 -0.0728  0.9485 -0.4314
 6376TIP3    H140763   4.270   4.873   8.174  0.8360 -1.6981  0.0658
 6376TIP3    H240764   4.392   4.935   8.108  1.2758 -1.1242  1.3740
 6377TIP3   OH240765   0.321   2.686   2.596 -0.1447 -0.0969  0.1680
 6377TIP3    H140766   0.259   2.623   2.632 -0.6125 -0.2206 -0.8156
 6377TIP3    H240767   0.387   2.632   2.552  1.1674 -0.0132  1.8979
 6378TIP3   OH240768   2.312   6.411   1.269 -0.4928  0.0773  0.5465
 6378TIP3    H140769   2.264   6.493   1.254  1.1834  1.4408  2.1241
 6378TIP3    H240770   2.254   6.343   1.235 -2.5189  1.7967  0.3090
 6379TIP3   OH240771   3.659   2.246   7.108 -0.1746  0.3771 -0.0616
 6379TIP3    H140772   3.706   2.290   7.178 -1.3306 -0.3962  1.2558
 6379TIP3    H240773   3.713   2.261   7.030  1.0723  1.3864  0.9408
 6380TIP3   OH240774   4.344   4.540   1.088  0.1442  0.7916 -0.7920
 6380TIP3    H140775   4.384   4.461   1.124  0.9411  0.9232 -1.3764
 6380TIP3    H240776   4.269   4.557   1.146  0.9120  0.5321  0.3144
 6381TIP3   OH240777   6.484   4.893   2.141  0.5649 -0.2005  0.2455
 6381TIP3    H140778   6.396   4.928   2.156 -0.1672  1.3464 -5.2912
 6381TIP3    H240779   6.470   4.803   2.113  0.8999 -0.3362  0.5057
 6382TIP3   OH240780   3.870   1.493   8.586 -0.9988 -0.0688 -0.1402
 6382TIP3    H140781   3.787   1.535   8.564 -0.4513  1.0462 -0.1431
 6382TIP3    H240782   3.936   1.549   8.545 -0.2085 -0.5477  0.4622
 6383TIP3   OH240783   0.882   4.360   1.116 -0.2705  0.1800  0.8065
 6383TIP3    H140784   0.848   4.417   1.047  0.2073  0.4685  0.7996
 6383TIP3    H240785   0.977   4.363   1.104 -0.0306  1.6776  2.5938
 6384TIP3   OH240786   5.326   0.693   6.871 -0.1912  0.0495  0.1452
 6384TIP3    H140787   5.412   0.736   6.873  0.6029 -1.4350 -0.2883
 6384TIP3    H240788   5.305   0.687   6.778 -0.5714  0.0499  0.2316
 6385TIP3   OH240789   6.705   1.521   7.711 -0.0345  0.4428  0.1753
 6385TIP3    H140790   6.730   1.456   7.776 -1.0029  0.3808  0.5019
 6385TIP3    H240791   6.744   1.490   7.629 -0.0269 -0.2441  0.4376
 6386TIP3   OH240792   3.061   0.428   0.690  0.0088 -0.0277 -0.2488
 6386TIP3    H140793   3.011   0.391   0.763  0.4137 -0.8313 -0.3722
 6386TIP3    H240794   3.150   0.438   0.724 -0.0741  0.7548 -0.2480
 6387TIP3   OH240795   0.336   5.161   8.560  0.5271 -0.7097 -0.6523
 6387TIP3    H140796   0.357   5.248   8.595 -0.0107 -0.7557 -0.1909
 6387TIP3    H240797   0.366   5.163   8.469  3.1222 -0.9888  0.1051
 6388TIP3   OH240798   1.847   5.985   6.283 -0.6103 -0.0115  0.2660
 6388TIP3    H140799   1.917   6.049   6.273 -0.6052 -0.2918 -2.2021
 6388TIP3    H240800   1.858   5.950   6.371  1.2529  1.2142  0.5654
 6389TIP3   OH240801   3.631   4.448   0.542 -0.1360 -0.2819 -1.3958
 6389TIP3    H140802   3.642   4.366   0.590  0.2605 -0.5493 -1.9414
 6389TIP3    H240803   3.567   4.428   0.474 -0.4551  0.0135 -1.1912
 6390TIP3   OH240804   4.150   5.159   6.789 -0.3899 -0.0473  0.0924
 6390TIP3    H140805   4.230   5.205   6.815  0.0259 -0.2789 -0.7761
 6390TIP3    H240806   4.179   5.076   6.753 -1.0486 -0.2976  0.1120
 6391TIP3   OH240807   6.660   2.707   1.723 -0.5198  0.7831 -0.1117
 6391TIP3    H140808   6.572   2.730   1.693 -0.9645  0.1627  0.6695
 6391TIP3    H240809   6.697   2.791   1.753 -0.9514  1.0012 -0.1742
 6392TIP3   OH240810   5.248   4.360   1.797  0.1755  0.0834  0.3050
 6392TIP3    H140811   5.278   4.337   1.885  1.0332  1.5547  0.4398
 6392TIP3    H240812   5.292   4.296   1.740  0.0999 -0.4953  0.8776
 6393TIP3   OH240813   5.295   6.236   7.903 -0.1622 -0.7497 -0.0139
 6393TIP3    H140814   5.247   6.246   7.985 -1.1917  0.7512 -0.7586
 6393TIP3    H240815   5.265   6.151   7.869 -1.3715 -0.4058  0.1372
 6394TIP3   OH240816   0.888   2.494   8.337 -0.0046 -0.3668 -0.1984
 6394TIP3    H140817   0.849   2.521   8.253  0.2630  0.8025  0.0306
 6394TIP3    H240818   0.954   2.561   8.354 -0.9688  0.1714  1.6111
 6395TIP3   OH240819   4.825   1.306   1.997  0.2680 -0.6844 -0.5189
 6395TIP3    H140820   4.870   1.222   1.990  1.9629  0.3397 -2.7839
 6395TIP3    H240821   4.735   1.287   1.968  0.5611 -1.7617 -0.7623
 6396TIP3   OH240822   6.547   0.010   1.483 -0.2990 -0.7151  0.4288
 6396TIP3    H140823   6.479   0.057   1.435 -0.4965 -1.2416  0.1779
 6396TIP3    H240824   6.629   0.039   1.445 -0.4780 -1.6022 -0.6817
 6397TIP3   OH240825   1.986   2.896   7.068  0.5940  0.5708  0.2189
 6397TIP3    H140826   2.041   2.966   7.033  1.5460 -0.3353 -0.1364
 6397TIP3    H240827   1.912   2.892   7.008  0.8253  0.8861 -0.0913
 6398TIP3   OH240828   0.120   2.114   6.917 -0.1523  0.4012  0.2769
 6398TIP3    H140829   0.135   2.172   6.842 -0.3867  0.7426  0.4903
 6398TIP3    H240830   0.050   2.157   6.966 -1.9201 -1.1703 -0.7436
 6399TIP3   OH240831   5.183   2.385   7.206 -1.0293 -0.3523  0.0230
 6399TIP3    H140832   5.269   2.404   7.167 -2.0165  0.7714 -1.7477
 6399TIP3    H240833   5.141   2.325   7.144 -1.4866 -0.9988  0.9405
 6400TIP3   OH240834   6.728   2.085   1.023 -0.7025  0.5244 -0.5768
 6400TIP3    H140835   6.781   2.073   0.944 -0.6062  0.3879 -0.4925
 6400TIP3    H240836   6.789   2.070   1.096 -1.3340 -1.9689 -0.4563
 6401TIP3   OH240837   3.670   6.860   0.458 -0.9720 -0.1609  0.0896
 6401TIP3    H140838   3.681   6.885   0.550  0.2492 -1.2381  0.2680
 6401TIP3    H240839   3.757   6.872   0.419 -2.0541  3.0327 -1.6905
 6402TIP3   OH240840   0.084   1.749   7.812 -0.0980  0.2283 -0.3795
 6402TIP3    H140841   0.099   1.828   7.760 -2.1594  0.5481 -0.5866
 6402TIP3    H240842   0.080   1.678   7.747  1.0735  0.0351 -0.2589
 6403TIP3   OH240843   6.481   4.632   0.726  0.1431 -0.1804 -0.4300
 6403TIP3    H140844   6.470   4.727   0.726  0.2554 -0.1668 -0.3714
 6403TIP3    H240845   6.560   4.617   0.675 -1.0439 -0.3883 -2.2757
 6404TIP3   OH240846   4.320   0.713   0.005 -0.6057 -0.1566 -0.5274
 6404TIP3    H140847   4.266   0.644  -0.031 -0.1980 -0.7584 -0.0038
 6404TIP3    H240848   4.404   0.705  -0.040 -1.0692  1.0887 -1.7021
 6405TIP3   OH240849   5.744   4.712   7.684  0.2257  1.0447  0.2267
 6405TIP3    H140850   5.806   4.660   7.737 -1.4075 -1.7487 -0.3881
 6405TIP3    H240851   5.673   4.732   7.744 -0.8959 -0.7884 -0.3946
 6406TIP3   OH240852   4.158   3.035   1.663  0.1543 -0.3656 -0.0366
 6406TIP3    H140853   4.129   2.965   1.722 -0.5768 -0.0366  0.0066
 6406TIP3    H240854   4.081   3.055   1.611  0.3809  0.3645 -0.0943
 6407TIP3   OH240855   1.847   4.577   0.993 -0.3508 -0.6683  0.5517
 6407TIP3    H140856   1.907   4.506   0.968 -0.9347 -1.1136  0.4110
 6407TIP3    H240857   1.795   4.542   1.064  0.5214  0.2170  1.6854
 6408TIP3   OH240858   1.354   5.623   7.090  0.5195 -0.0111  0.1567
 6408TIP3    H140859   1.260   5.629   7.104  0.7779  0.1878  2.0518
 6408TIP3    H240860   1.364   5.571   7.010 -1.2422  2.3686 -1.7639
 6409TIP3   OH240861   2.892   0.578   7.383 -0.6635  0.1173 -0.2112
 6409TIP3    H140862   2.821   0.527   7.345  0.8366 -1.2613 -1.2545
 6409TIP3    H240863   2.959   0.581   7.316  0.0388  1.9877  0.4896
 6410TIP3   OH240864   6.047   5.430   8.134  0.3075 -0.3638  0.2464
 6410TIP3    H140865   6.113   5.444   8.065 -0.1836  0.9524  0.0157
 6410TIP3    H240866   5.970   5.476   8.102  0.7352  2.3104  2.6810
 6411TIP3   OH240867   0.760   1.783   8.551 -0.2480  0.1748  0.2282
 6411TIP3    H140868   0.843   1.776   8.503  0.1589  0.1355  0.9295
 6411TIP3    H240869   0.706   1.712   8.516 -0.0005  0.2179 -0.2533
 6412TIP3   OH240870   0.312   2.056   1.012  0.3656  0.1188  0.4471
 6412TIP3    H140871   0.346   1.967   1.005 -0.2919 -0.1029  0.0354
 6412TIP3    H240872   0.291   2.067   1.105 -0.2026 -0.4005  0.3836
 6413TIP3   OH240873   1.824   0.338   0.554  0.4582  0.6235  0.0318
 6413TIP3    H140874   1.898   0.393   0.527  0.9430  0.0114  0.1088
 6413TIP3    H240875   1.846   0.250   0.523 -0.4123  0.5004 -0.2685
 6414TIP3   OH240876   6.487   1.962   1.042 -0.3272 -0.5076 -0.9528
 6414TIP3    H140877   6.571   1.988   1.077  1.0041 -4.1104 -1.0081
 6414TIP3    H240878   6.423   2.015   1.090  1.8290  0.9136  0.5375
 6415TIP3   OH240879   3.538   3.428   6.562 -0.3217  0.0058 -0.2661
 6415TIP3    H140880   3.624   3.469   6.556 -0.3823  0.0763 -0.6846
 6415TIP3    H240881   3.541   3.356   6.499 -0.9377  0.6821 -1.0979
 6416TIP3   OH240882   4.903   2.790   0.090 -0.0075 -0.2466  0.0835
 6416TIP3    H140883   4.848   2.863   0.120 -1.6263 -0.8764 -1.1931
 6416TIP3    H240884   4.847   2.740   0.031  0.6097 -3.2663  1.8473
 6417TIP3   OH240885   6.168   3.866   0.871  0.1460 -0.0380  0.2876
 6417TIP3    H140886   6.227   3.860   0.796  0.7172 -0.8308  0.7841
 6417TIP3    H240887   6.128   3.953   0.863  0.6661  0.1330 -0.5851
 6418TIP3   OH240888   2.361   0.493   8.014 -0.0325 -1.1609  0.0535
 6418TIP3    H140889   2.319   0.489   8.100 -0.3728  0.6602 -0.0042
 6418TIP3    H240890   2.329   0.574   7.975  1.0837 -1.3366 -1.3015
 6419TIP3   OH240891   5.656   4.822   0.021  0.4852 -0.0918 -0.5983
 6419TIP3    H140892   5.716   4.748   0.027  0.0311 -0.3948  0.4718
 6419TIP3    H240893   5.700   4.893   0.068 -0.0210 -0.3514  0.2973
 6420TIP3   OH240894   6.900   5.943   0.279  0.5396 -0.0819  0.3968
 6420TIP3    H140895   6.941   6.021   0.242  0.4713 -0.1840  0.1033
 6420TIP3    H240896   6.817   5.934   0.233 -0.4639  0.8922  1.9352
 6421TIP3   OH240897   4.454   4.219   1.244 -0.7249  0.5454  0.5246
 6421TIP3    H140898   4.366   4.193   1.271 -0.6768 -0.1222  0.0747
 6421TIP3    H240899   4.491   4.263   1.320 -0.9462 -0.4078  1.2045
 6422TIP3   OH240900   1.462   2.477   0.614 -0.1519 -0.0883  0.0441
 6422TIP3    H140901   1.445   2.395   0.568 -1.1438  0.4264 -0.5440
 6422TIP3    H240902   1.537   2.515   0.569 -1.7938  0.9592 -1.9960
 6423TIP3   OH240903   4.462   4.780   7.375 -0.2235  0.6762  0.4031
 6423TIP3    H140904   4.421   4.778   7.461  0.1166  1.1494  0.5801
 6423TIP3    H240905   4.540   4.724   7.384 -0.8520 -0.2814  0.0466
 6424TIP3   OH240906   4.131   4.069   0.190 -0.2988 -0.6421 -0.2096
 6424TIP3    H140907   4.128   4.065   0.095 -0.1410  1.8910 -0.3769
 6424TIP3    H240908   4.063   4.133   0.214  2.3254  1.9050  1.0251
 6425TIP3   OH240909   2.205   2.405   6.803  0.8745  0.4952  0.3944
 6425TIP3    H140910   2.293   2.428   6.771  0.8099 -0.0837 -0.2430
 6425TIP3    H240911   2.147   2.430   6.731  0.6145  0.1080  0.4670
 6426TIP3   OH240912   0.493   3.256   8.567  0.1359 -0.0325 -0.0175
 6426TIP3    H140913   0.537   3.234   8.649  0.5005 -0.8111 -0.4207
 6426TIP3    H240914   0.526   3.193   8.504  0.0027  0.6827 -0.8192
 6427TIP3   OH240915   2.091   2.360   0.536 -0.5851  0.1290 -0.3214
 6427TIP3    H140916   2.174   2.380   0.494 -0.8523 -1.4117 -1.6875
 6427TIP3    H240917   2.111   2.355   0.630  0.8936 -0.3072 -0.6391
 6428TIP3   OH240918   4.633   0.166   7.634  0.2818  0.2405 -0.7617
 6428TIP3    H140919   4.573   0.200   7.701 -0.6943 -0.2483 -1.3633
 6428TIP3    H240920   4.654   0.077   7.663  2.2466  1.0223  0.4240
 6429TIP3   OH240921   0.959   3.979   0.640 -0.2086 -1.0039  0.4456
 6429TIP3    H140922   0.886   4.041   0.646  0.6430 -0.0384  1.2500
 6429TIP3    H240923   1.013   4.012   0.568 -0.2707 -1.3840  0.2240
 6430TIP3   OH240924   3.640   2.401   7.385 -0.5585  0.1806  0.3010
 6430TIP3    H140925   3.552   2.399   7.422 -1.0842  0.0120 -0.9145
 6430TIP3    H240926   3.669   2.492   7.398 -0.6947  0.1120  1.1625
 6431TIP3   OH240927   0.024   0.491   7.617  0.2793 -0.0240 -0.4127
 6431TIP3    H140928   0.043   0.583   7.602 -0.5637  0.0929 -0.7914
 6431TIP3    H240929   0.075   0.444   7.551 -0.5795  0.2796 -1.3247
 6432TIP3   OH240930   0.410   0.993   1.135  0.0882 -0.0495  0.3816
 6432TIP3    H140931   0.427   1.080   1.171 -0.9998 -0.3210  1.6347
 6432TIP3    H240932   0.413   1.006   1.040  2.1169  0.8795  0.5228
 6433TIP3   OH240933   6.143   3.302   8.033 -0.2905  0.1501  0.3932
 6433TIP3    H140934   6.141   3.292   7.938 -0.2615  1.7661  0.2099
 6433TIP3    H240935   6.051   3.304   8.059 -0.3028  0.3793  0.3283
 6434TIP3   OH240936   2.629   6.076   7.693  0.7578  0.1012 -0.0379
 6434TIP3    H140937   2.632   5.981   7.681  0.3571  0.3313 -2.5283
 6434TIP3    H240938   2.703   6.109   7.640  0.9580  1.1787  0.8766
 6435TIP3   OH240939   5.236   6.406   0.785  0.0091  0.5360  0.2441
 6435TIP3    H140940   5.159   6.427   0.837  0.2294 -0.5538  1.0518
 6435TIP3    H240941   5.309   6.413   0.846  0.1174 -2.2300  0.5418
 6436TIP3   OH240942   0.699   2.971   2.271 -0.3102 -0.1790 -0.5061
 6436TIP3    H140943   0.630   3.009   2.324 -1.4630 -0.4458 -1.7422
 6436TIP3    H240944   0.678   2.877   2.268 -1.2075  0.0234 -2.6379
 6437TIP3   OH240945   3.183   3.617   1.796 -0.0979  0.1814  0.1195
 6437TIP3    H140946   3.230   3.636   1.877 -1.2291  1.4645  0.5049
 6437TIP3    H240947   3.233   3.662   1.727  0.3355 -0.1299  0.2245
 6438TIP3   OH240948   3.314   2.836   1.275  0.2841  0.0188 -0.1708
 6438TIP3    H140949   3.356   2.916   1.242  0.1131 -0.5670 -1.9329
 6438TIP3    H240950   3.230   2.834   1.230  1.1859 -2.2614 -1.9332
 6439TIP3   OH240951   1.551   4.624   0.054  0.3322  0.6845 -0.2639
 6439TIP3    H140952   1.515   4.556   0.111 -0.7314  0.8888 -0.6678
 6439TIP3    H240953   1.496   4.621  -0.024  1.6033  0.5906 -1.1838
 6440TIP3   OH240954   1.749   2.904   8.090 -0.0185 -0.2661 -0.0656
 6440TIP3    H140955   1.782   2.815   8.074 -0.5246 -0.4205 -0.2697
 6440TIP3    H240956   1.819   2.961   8.059  0.4076 -0.5929  0.2736
 6441TIP3   OH240957   3.459   2.774   6.287  0.1223 -0.6859 -0.0884
 6441TIP3    H140958   3.486   2.689   6.251  1.7650  0.2311 -1.1351
 6441TIP3    H240959   3.462   2.834   6.213  0.1553  0.5407  0.8709
 6442TIP3   OH240960   6.709   5.171   1.688  0.3148 -0.5230 -0.2347
 6442TIP3    H140961   6.689   5.192   1.779 -1.3213  0.6590 -0.8212
 6442TIP3    H240962   6.632   5.122   1.658  0.3341  0.0690 -1.2809
 6443TIP3   OH240963   0.748   6.650   7.357 -0.4063 -0.3677 -0.0152
 6443TIP3    H140964   0.820   6.675   7.415 -0.5516  0.0505 -0.0086
 6443TIP3    H240965   0.747   6.554   7.359 -0.0102 -0.3695  0.1791
 6444TIP3   OH240966   5.662   5.253   1.785 -0.8746 -0.0987 -0.1242
 6444TIP3    H140967   5.576   5.212   1.789 -0.6905 -0.4302  1.0249
 6444TIP3    H240968   5.658   5.322   1.851  0.2125 -1.1296  1.0866
 6445TIP3   OH240969   3.971   3.621   0.898 -0.1164 -0.0980  0.3858
 6445TIP3    H140970   4.043   3.597   0.956  0.2032  0.8676  0.4022
 6445TIP3    H240971   3.995   3.707   0.865 -0.6023 -0.3604 -0.6934
 6446TIP3   OH240972   5.836   4.957   1.442 -0.5177  0.2188 -0.3362
 6446TIP3    H140973   5.810   4.923   1.527  1.4631 -1.6928 -0.4207
 6446TIP3    H240974   5.914   5.010   1.460 -0.2361  0.0144 -0.9346
 6447TIP3   OH240975   4.537   3.551   7.143  0.4259 -0.2750 -0.2148
 6447TIP3    H140976   4.443   3.571   7.134  0.9451  1.9160 -1.4568
 6447TIP3    H240977   4.570   3.553   7.053  1.6897 -0.9629  0.2224
 6448TIP3   OH240978   5.479   2.291   0.951 -0.1046  0.0976 -0.4881
 6448TIP3    H140979   5.425   2.356   0.905  0.4575  0.1361 -1.1033
 6448TIP3    H240980   5.534   2.343   1.010  0.1866  0.1633 -0.8168
 6449TIP3   OH240981   3.262   2.422   0.983 -0.6589  0.2318 -0.0674
 6449TIP3    H140982   3.241   2.424   1.077 -0.3628 -1.6392  0.0700
 6449TIP3    H240983   3.303   2.507   0.967 -1.5337  0.9684  1.2761
 6450TIP3   OH240984   0.131   5.652   7.683 -0.4051  0.5813  0.3433
 6450TIP3    H140985   0.223   5.640   7.660 -0.7798  0.6681 -1.2723
 6450TIP3    H240986   0.088   5.571   7.655 -0.8688  0.6394  0.8612
 6451TIP3   OH240987   1.249   4.625   2.073  0.0179 -0.1338 -0.6852
 6451TIP3    H140988   1.340   4.624   2.042 -0.2885 -1.1728 -1.6146
 6451TIP3    H240989   1.212   4.705   2.035  0.9318  1.1415  0.9787
 6452TIP3   OH240990   5.607   0.910   7.457  0.2121 -0.3415  0.1005
 6452TIP3    H140991   5.639   0.930   7.369  0.4139  2.1594  0.6909
 6452TIP3    H240992   5.681   0.865   7.499  0.8059  0.1628 -0.3919
 6453TIP3   OH240993   0.398   0.325   2.034  0.0897  0.1381  0.1401
 6453TIP3    H140994   0.463   0.388   2.062 -0.0346  0.8323 -1.0555
 6453TIP3    H240995   0.388   0.265   2.108  0.5957  1.2050  1.0842
 6454TIP3   OH240996   4.298   5.497   7.111  0.2626 -0.4393 -0.1979
 6454TIP3    H140997   4.313   5.425   7.050 -1.9665 -1.8098  0.7604
 6454TIP3    H240998   4.224   5.545   7.074  0.0792 -0.1899  0.4701
 6455TIP3   OH240999   5.723   2.711   0.408  0.0622  0.2249  0.0266
 6455TIP3    H141000   5.656   2.675   0.466 -1.2797  2.2220 -0.1867
 6455TIP3    H241001   5.697   2.802   0.395  2.1738  0.7370 -1.0576
 6456TIP3   OH241002   4.179   0.025   0.271  0.1541  0.3333  0.2377
 6456TIP3    H141003   4.192  -0.056   0.322 -2.0185  0.8233  1.6920
 6456TIP3    H241004   4.172  -0.005   0.180 -2.2473 -1.3966  0.8925
 6457TIP3   OH241005   6.050   5.980   1.709 -0.5288  0.4782  0.3082
 6457TIP3    H141006   6.020   5.920   1.641 -2.3752  2.1576 -0.4606
 6457TIP3    H241007   6.127   6.023   1.670 -1.0031  0.7513 -0.3424
 6458TIP3   OH241008   5.969   6.846   2.060 -0.1120 -0.5142 -0.5094
 6458TIP3    H141009   5.996   6.878   2.146  1.4273 -2.5850 -0.1493
 6458TIP3    H241010   6.043   6.866   2.002 -1.6240  2.0032 -1.7513
 6459TIP3   OH241011   0.290   3.113   1.305 -0.0474  0.4136  0.2451
 6459TIP3    H141012   0.225   3.051   1.271 -1.1376  2.2138 -1.1768
 6459TIP3    H241013   0.262   3.131   1.395 -1.8759  1.4866 -0.4735
 6460TIP3   OH241014   6.689   0.517   8.407  0.3122  0.2201  0.1955
 6460TIP3    H141015   6.700   0.597   8.355 -1.9816 -0.6652 -1.8382
 6460TIP3    H241016   6.749   0.454   8.367  0.1551  0.1634  0.0487
 6461TIP3   OH241017   5.808   3.022   8.434 -0.1706 -0.5371  0.0628
 6461TIP3    H141018   5.884   3.060   8.389 -1.5492  0.3545 -1.6473
 6461TIP3    H241019   5.841   2.997   8.520  2.4751 -1.7502 -1.1848
 6462TIP3   OH241020   0.100   0.997   0.395 -0.0033  0.3282  0.1775
 6462TIP3    H141021   0.042   0.943   0.341 -1.1477 -0.3393  1.9560
 6462TIP3    H241022   0.159   1.039   0.333 -1.8540  0.3768 -1.6820
 6463TIP3   OH241023   0.785   2.543   1.363  0.3209 -0.6124  0.8309
 6463TIP3    H141024   0.875   2.539   1.331  0.4082  0.0686  0.9675
 6463TIP3    H241025   0.731   2.540   1.284  0.5313  1.0332  0.5854
 6464TIP3   OH241026   2.181   2.096   2.869 -0.0637  0.4368  0.0562
 6464TIP3    H141027   2.130   2.057   2.940 -3.0004  1.1726 -1.5049
 6464TIP3    H241028   2.158   2.189   2.871 -1.6914  0.2032 -2.9012
 6465TIP3   OH241029   6.854   1.228   6.454 -0.4197 -0.0673  0.0220
 6465TIP3    H141030   6.933   1.281   6.440 -1.1891  1.2839  0.5557
 6465TIP3    H241031   6.859   1.160   6.387  0.6055  0.6959 -0.7249
 6466TIP3   OH241032   5.906   6.077   0.209 -0.4825 -0.0725 -0.4477
 6466TIP3    H141033   5.951   5.998   0.179 -0.6483 -0.3809  0.0845
 6466TIP3    H241034   5.899   6.133   0.132  2.8051  0.9923 -0.1210
 6467TIP3   OH241035   0.693   1.927   7.265 -0.0659  0.4188 -0.1088
 6467TIP3    H141036   0.718   1.953   7.176  0.0355 -0.7773 -0.4596
 6467TIP3    H241037   0.610   1.973   7.281  0.5685  1.6638 -0.3055
 6468TIP3   OH241038   0.139   6.357   0.325  0.8699  0.6597 -0.3511
 6468TIP3    H141039   0.050   6.322   0.338  1.3134 -0.1926  0.5692
 6468TIP3    H241040   0.126   6.437   0.275 -0.3096 -0.1996 -1.5280
 6469TIP3   OH241041   1.436   0.223   2.364 -0.0390  0.1510  0.7532
 6469TIP3    H141042   1.467   0.217   2.273  0.0281  0.5842  0.7464
 6469TIP3    H241043   1.508   0.264   2.411 -0.1245  0.0416  0.9795
 6470TIP3   OH241044   2.303   4.126   7.233 -0.7934  0.0972 -0.1939
 6470TIP3    H141045   2.221   4.092   7.269 -0.1386  0.2805  1.5473
 6470TIP3    H241046   2.358   4.048   7.221 -1.7230 -0.2550 -2.9538
 6471TIP3   OH241047   1.000   3.560   0.280  0.0842 -0.2921 -0.2382
 6471TIP3    H141048   0.943   3.485   0.297  0.2930 -0.6649 -1.1046
 6471TIP3    H241049   0.961   3.632   0.329  1.2442 -1.5038  2.6723
 6472TIP3   OH241050   3.514   1.592   7.371 -0.1075  0.2427 -0.6417
 6472TIP3    H141051   3.539   1.640   7.292 -1.1039 -0.4519 -1.3997
 6472TIP3    H241052   3.565   1.511   7.367  1.4918  1.1221  0.5823
 6473TIP3   OH241053   5.752   3.930   1.890 -0.0647  1.1712  0.2712
 6473TIP3    H141054   5.717   3.868   1.954  0.3491  0.4936 -0.1413
 6473TIP3    H241055   5.814   3.878   1.838  0.3880  1.9668 -0.0009
 6474TIP3   OH241056   2.181   3.611   1.003 -0.0163 -0.0393 -0.7549
 6474TIP3    H141057   2.121   3.574   1.068 -0.0398  0.1863 -0.6475
 6474TIP3    H241058   2.267   3.604   1.044 -0.2043  1.5605 -0.0179
 6475TIP3   OH241059   6.346   2.877   7.572 -0.2683 -0.3956 -0.4135
 6475TIP3    H141060   6.253   2.879   7.597 -0.7326  1.0707 -2.0682
 6475TIP3    H241061   6.381   2.958   7.609 -0.3734  0.5273 -2.2612
 6476TIP3   OH241062   0.445   4.855   8.233 -0.3374  0.4621 -0.3981
 6476TIP3    H141063   0.536   4.827   8.241 -0.3888  0.6280  1.0377
 6476TIP3    H241064   0.395   4.790   8.283 -0.6624  1.9462  1.3167
 6477TIP3   OH241065   4.678   3.801   1.022 -0.5465  0.3673 -0.2137
 6477TIP3    H141066   4.622   3.874   1.049 -0.5399 -0.1037  1.1717
 6477TIP3    H241067   4.750   3.801   1.085 -0.3781 -0.6253 -0.3857
 6478TIP3   OH241068   0.646   1.984   1.660 -0.0913 -0.7692 -0.5097
 6478TIP3    H141069   0.693   1.955   1.738  0.4072 -0.7257 -0.7868
 6478TIP3    H241070   0.715   1.998   1.595 -0.2620  1.3470 -0.2990
 6479TIP3   OH241071   4.222   1.076   7.221 -0.4011  0.6322  0.3884
 6479TIP3    H141072   4.205   1.054   7.129 -0.8140 -0.6832  0.7595
 6479TIP3    H241073   4.144   1.124   7.249 -0.2353  1.1138  0.0332
 6480TIP3   OH241074   0.955   3.700   8.347  0.2624  0.0003  0.7713
 6480TIP3    H141075   1.033   3.648   8.332 -0.1784 -0.4007 -0.2280
 6480TIP3    H241076   0.888   3.636   8.372 -0.2504  0.0810 -0.3489
 6481TIP3   OH241077   1.263   4.123   7.916 -0.5335  0.4027  0.1249
 6481TIP3    H141078   1.230   4.204   7.875  1.5032  0.5567 -1.3798
 6481TIP3    H241079   1.294   4.150   8.002  0.6496  1.4111 -0.5776
 6482TIP3   OH241080   5.953   3.874   1.675 -0.3021 -0.4397 -0.6391
 6482TIP3    H141081   5.946   3.821   1.596  1.4690  0.4003 -1.4167
 6482TIP3    H241082   5.973   3.962   1.643 -0.0235  0.0127  0.7194
 6483TIP3   OH241083   4.865   1.284   0.527  0.0535  0.0266  0.7288
 6483TIP3    H141084   4.947   1.275   0.575  0.5231 -1.7956 -0.3192
 6483TIP3    H241085   4.858   1.203   0.477 -1.9706  0.5260  0.1344
 6484TIP3   OH241086   1.323   6.594   7.263  0.1315 -0.0780 -0.1157
 6484TIP3    H141087   1.380   6.563   7.334  1.6105 -1.3409 -1.7535
 6484TIP3    H241088   1.271   6.517   7.240 -1.7807  0.8668  0.8514
 6485TIP3   OH241089   2.501   2.337   2.843  0.7606  0.1879 -0.0869
 6485TIP3    H141090   2.560   2.376   2.779  0.9661  1.5479  0.8864
 6485TIP3    H241091   2.429   2.400   2.850  0.0524 -0.6183  0.0142
 6486TIP3   OH241092   0.170   5.177   2.455  0.4997  0.0988 -0.3027
 6486TIP3    H141093   0.197   5.144   2.369 -0.1388  1.4039 -1.0386
 6486TIP3    H241094   0.101   5.117   2.483  1.4570 -0.9756 -0.1805
 6487TIP3   OH241095   4.289   4.059   0.553 -0.0389  0.1229 -0.4584
 6487TIP3    H141096   4.302   3.992   0.486  2.0660  3.0164 -3.2467
 6487TIP3    H241097   4.203   4.096   0.533 -0.5330 -0.7107  0.1035
 6488TIP3   OH241098   5.679   5.134   7.257  0.6748 -0.3027 -0.1900
 6488TIP3    H141099   5.704   5.117   7.348 -0.9979 -0.6341  0.2375
 6488TIP3    H241100   5.751   5.186   7.222  1.7881 -0.9523  1.0449
 6489TIP3   OH241101   3.201   1.103   0.839 -0.3707 -0.1129 -0.4948
 6489TIP3    H141102   3.268   1.121   0.774  1.3900 -0.2226  1.1990
 6489TIP3    H241103   3.148   1.182   0.842  0.4008  0.4388 -1.0454
 6490TIP3   OH241104   2.017   0.014   0.817 -0.5589  0.7091 -0.2079
 6490TIP3    H141105   1.945  -0.031   0.772 -0.4073  0.4887 -0.2338
 6490TIP3    H241106   2.001  -0.005   0.910  0.0763 -0.2756 -0.2799
 6491TIP3   OH241107   0.737   1.327   2.653 -0.2133  0.2262 -0.1098
 6491TIP3    H141108   0.654   1.298   2.615 -1.3431  0.4007  2.0616
 6491TIP3    H241109   0.752   1.266   2.726  0.1732  1.8213  1.1867
 6492TIP3   OH241110   2.704   0.641   0.799 -0.1239  0.1681  0.7099
 6492TIP3    H141111   2.651   0.597   0.733 -0.2130  0.9374  0.2545
 6492TIP3    H241112   2.766   0.574   0.829 -0.3300 -0.2937  0.1233
 6493TIP3   OH241113   3.044   4.267   7.414  0.0131  0.0430  0.0241
 6493TIP3    H141114   2.954   4.290   7.439 -0.2746 -0.4463 -0.5299
 6493TIP3    H241115   3.071   4.338   7.355 -0.4969 -0.4672 -0.8541
 6494TIP3   OH241116   0.570   6.470   1.322 -0.3496 -0.1205 -0.3881
 6494TIP3    H141117   0.627   6.456   1.246 -1.2503 -1.5358 -0.8302
 6494TIP3    H241118   0.482   6.475   1.286 -0.5847  1.7730  0.3255
 6495TIP3   OH241119   1.337   6.839   1.035  0.7127  0.1239  0.2498
 6495TIP3    H141120   1.280   6.860   1.109  2.2559 -0.1163  1.5763
 6495TIP3    H241121   1.279   6.836   0.960 -0.9015  0.5446  1.4232
 6496TIP3   OH241122   6.383   2.323   0.108  0.1014  0.5376 -0.6402
 6496TIP3    H141123   6.392   2.229   0.093  0.9334  0.1916  1.7048
 6496TIP3    H241124   6.291   2.342   0.090 -0.6297 -1.1942  1.0034
 6497TIP3   OH241125   5.274   6.043   0.415 -0.8278 -0.6004 -0.1708
 6497TIP3    H141126   5.353   5.996   0.385 -0.2039  1.1029 -1.3608
 6497TIP3    H241127   5.277   6.126   0.368 -2.5396  0.1419  0.9535
 6498TIP3   OH241128   3.948   4.582   1.206  0.1547  0.1410 -0.5741
 6498TIP3    H141129   3.885   4.512   1.189  0.4287 -0.2786  0.1146
 6498TIP3    H241130   3.899   4.646   1.258  0.3635 -0.3018  0.1724
 6499TIP3   OH241131   1.814   1.521   2.760 -0.0425 -0.0635 -0.0095
 6499TIP3    H141132   1.904   1.525   2.794 -0.4299  1.7562  0.9231
 6499TIP3    H241133   1.761   1.563   2.827 -1.4079  0.1625 -1.1884
 6500TIP3   OH241134   3.302   4.896   0.026 -0.0442  0.3118 -0.3116
 6500TIP3    H141135   3.286   4.919  -0.066 -0.5535  1.3981  0.0397
 6500TIP3    H241136   3.371   4.957   0.054  0.2013 -0.1027 -0.0007
 6501TIP3   OH241137   3.186   2.252   0.657 -0.7084  0.0494 -0.0874
 6501TIP3    H141138   3.158   2.173   0.703  0.2369 -0.2340  0.0169
 6501TIP3    H241139   3.126   2.258   0.583 -1.2809 -0.3304  0.3285
 6502TIP3   OH241140   0.898   4.083   8.381  0.0245  0.0314  0.1776
 6502TIP3    H141141   0.919   4.171   8.412  0.3394  0.1280 -0.2845
 6502TIP3    H241142   0.942   4.077   8.296 -1.8810  0.2440 -0.8784
 6503TIP3   OH241143   0.861   4.147   7.402  0.1942  0.7886 -0.0305
 6503TIP3    H141144   0.893   4.206   7.470 -0.3278 -0.7917  1.6763
 6503TIP3    H241145   0.932   4.085   7.388 -0.2414  0.2454  0.1355
 6504TIP3   OH241146   1.425   5.414   2.133 -0.2274 -0.2682  0.6316
 6504TIP3    H141147   1.384   5.387   2.215  0.8395 -0.3689  1.1492
 6504TIP3    H241148   1.468   5.497   2.153 -1.0499  0.3781 -0.1851
 6505TIP3   OH241149   6.019   3.235   8.615 -0.4857 -0.4809  0.1761
 6505TIP3    H141150   6.002   3.319   8.657  0.5276 -0.0143 -0.3037
 6505TIP3    H241151   5.982   3.170   8.675  2.1554  0.0523  2.6043
 6506TIP3   OH241152   1.585   0.462   0.270 -0.5097 -0.4242 -0.2188
 6506TIP3    H141153   1.567   0.368   0.283 -0.7550 -0.2702  0.6044
 6506TIP3    H241154   1.515   0.493   0.214 -0.0095 -0.8895 -1.1274
 6507TIP3   OH241155   6.461   4.782   1.404 -0.4280 -0.2193 -0.6034
 6507TIP3    H141156   6.491   4.695   1.376  1.1248  0.0528  0.1193
 6507TIP3    H241157   6.436   4.770   1.495  1.4487  0.4205  0.0401
 6508TIP3   OH241158   1.702   4.910   7.198  0.1881  0.6561 -0.1766
 6508TIP3    H141159   1.641   4.840   7.174 -0.9755  1.8217 -0.7887
 6508TIP3    H241160   1.672   4.940   7.284  2.4224 -1.4060  1.4478
 6509TIP3   OH241161   0.110   0.324   1.451 -0.8019  0.5407 -0.0126
 6509TIP3    H141162   0.195   0.303   1.489 -0.4378 -0.2837 -1.2025
 6509TIP3    H241163   0.131   0.377   1.374 -1.2773 -0.3720 -0.7996
 6510TIP3   OH241164   6.565   3.891   6.905 -0.0976 -0.0804  0.3124
 6510TIP3    H141165   6.488   3.847   6.869  0.0814 -0.7449  0.7088
 6510TIP3    H241166   6.579   3.967   6.849 -1.0061  0.0164  0.2022
 6511TIP3   OH241167   0.825   0.778   1.029  0.3720 -0.3409  0.1346
 6511TIP3    H141168   0.901   0.769   1.087  0.7907 -0.9673 -0.4973
 6511TIP3    H241169   0.837   0.863   0.986  0.6972 -0.4261  0.0577
 6512TIP3   OH241170   2.721   1.112   0.942 -0.2454 -0.2898  0.2671
 6512TIP3    H141171   2.681   1.196   0.919 -2.3038 -1.2270  0.2547
 6512TIP3    H241172   2.651   1.048   0.930  1.5765 -2.2018 -0.8331
 6513TIP3   OH241173   2.053   1.251   8.638 -0.3182  0.0431 -0.1995
 6513TIP3    H141174   2.116   1.213   8.577  1.0649  1.6653  0.1576
 6513TIP3    H241175   1.968   1.239   8.596  0.4083 -0.5394 -1.5529
 6514TIP3   OH241176   2.980   1.414   8.175  0.2553  0.1729 -0.3636
 6514TIP3    H141177   2.991   1.397   8.082  0.3683  1.6127 -0.6317
 6514TIP3    H241178   2.896   1.459   8.182  0.2874  0.1575  0.2207
 6515TIP3   OH241179   6.793   6.738   8.203 -0.5969  0.0273 -0.5116
 6515TIP3    H141180   6.770   6.762   8.113 -1.2160 -0.3676 -0.4665
 6515TIP3    H241181   6.839   6.654   8.194 -0.5125  0.0684 -0.4684
 6516TIP3   OH241182   4.351   0.282   0.104 -0.2900 -0.1837 -0.0798
 6516TIP3    H141183   4.287   0.223   0.145 -1.1621 -0.8560 -2.2706
 6516TIP3    H241184   4.396   0.227   0.040  1.5083  0.6541  0.3958
 6517TIP3   OH241185   2.876   3.277   7.485 -0.3666 -0.4729  0.4568
 6517TIP3    H141186   2.959   3.320   7.503  0.1296 -1.4685  0.5877
 6517TIP3    H241187   2.816   3.309   7.553 -0.0509  0.1073  0.4647
 6518TIP3   OH241188   5.025   5.916   8.252  0.3459 -0.1331  0.1282
 6518TIP3    H141189   5.015   6.004   8.288  0.7120 -0.2084  0.4238
 6518TIP3    H241190   4.988   5.921   8.164 -1.1998 -0.1165  0.7563
 6519TIP3   OH241191   1.878   2.320   2.731 -0.1443  0.3658 -0.3490
 6519TIP3    H141192   1.856   2.400   2.779  0.4182  0.9150 -0.9842
 6519TIP3    H241193   1.801   2.304   2.675 -0.5636  0.0419  0.3121
 6520TIP3   OH241194   3.428   1.217   8.631  0.2655 -0.2007  0.3595
 6520TIP3    H141195   3.463   1.129   8.616  0.5650 -0.1933  0.9982
 6520TIP3    H241196   3.337   1.211   8.600  0.3950 -0.6251  0.0419
 6521TIP3   OH241197   4.367   2.940   7.057 -0.2925 -0.2978 -0.6502
 6521TIP3    H141198   4.440   2.998   7.036 -0.7790  0.0439 -1.4710
 6521TIP3    H241199   4.293   2.978   7.009 -1.3187  0.1041  1.1360
 6522TIP3   OH241200   0.423   0.456   0.886  0.0602 -0.1327 -0.1500
 6522TIP3    H141201   0.489   0.479   0.951  1.0204  0.7942 -1.4080
 6522TIP3    H241202   0.454   0.375   0.847  1.0013  0.7838 -1.3911
 6523TIP3   OH241203   3.969   2.746   6.391 -0.6512  0.2332  0.1790
 6523TIP3    H141204   4.002   2.685   6.458  1.3138  1.2114  0.1763
 6523TIP3    H241205   3.991   2.704   6.308 -0.3708  0.3835  0.1746
 6524TIP3   OH241206   5.982   2.398   0.775 -0.9448 -0.0765  0.6305
 6524TIP3    H141207   5.910   2.438   0.824 -0.4196 -1.8155  3.0260
 6524TIP3    H241208   5.983   2.307   0.804 -0.2249 -1.1425 -2.3426
 6525TIP3   OH241209   0.385   1.788   8.187 -0.3928  0.3407 -0.0911
 6525TIP3    H141210   0.429   1.844   8.251 -1.2508  0.5346  0.3459
 6525TIP3    H241211   0.414   1.822   8.102 -1.9828  2.4262  0.1013
 6526TIP3   OH241212   4.206   5.967   1.392  0.3541  0.3168  0.5972
 6526TIP3    H141213   4.297   5.989   1.369  0.2846  0.9088  0.8561
 6526TIP3    H241214   4.213   5.888   1.446  0.7554  0.6260  1.0022
 6527TIP3   OH241215   1.993   2.698   7.316  0.0015  0.3231  0.4897
 6527TIP3    H141216   1.971   2.789   7.299 -2.1386  0.0518  1.5081
 6527TIP3    H241217   2.042   2.700   7.398 -0.7284  0.5076  0.9297
 6528TIP3   OH241218   2.842   2.528   1.912 -0.2853 -0.4344 -0.0918
 6528TIP3    H141219   2.796   2.582   1.847 -1.0348  0.2639  0.9953
 6528TIP3    H241220   2.844   2.582   1.991  1.7399 -0.7607  0.1299
 6529TIP3   OH241221   2.713   4.478   1.672 -0.1909 -0.1580  0.4082
 6529TIP3    H141222   2.722   4.566   1.636 -0.5053 -0.2191  0.1740
 6529TIP3    H241223   2.785   4.470   1.735 -0.4109  0.4211  0.7455
 6530TIP3   OH241224   0.668   5.411   1.340 -0.1278  0.1284 -0.0157
 6530TIP3    H141225   0.762   5.397   1.330 -0.3439 -1.2377 -0.3166
 6530TIP3    H241226   0.634   5.414   1.251 -0.3957  0.4433  0.0949
 6531TIP3   OH241227   2.855   3.643   0.553  1.0075  0.0467  0.7472
 6531TIP3    H141228   2.821   3.634   0.464 -1.9477 -1.5326  1.9242
 6531TIP3    H241229   2.919   3.572   0.562 -0.2213 -1.1111  0.5179
 6532TIP3   OH241230   3.989   5.726   0.263  0.5455 -0.0792  0.1360
 6532TIP3    H141231   3.906   5.772   0.264  0.8530  0.6409 -2.2556
 6532TIP3    H241232   4.055   5.794   0.273  0.9396 -0.2149 -1.4040
 6533TIP3   OH241233   0.081   5.554   0.918  0.2166  0.2437  0.1272
 6533TIP3    H141234   0.089   5.531   0.826 -0.5917 -0.4092  0.2072
 6533TIP3    H241235   0.004   5.612   0.921 -0.1348 -0.2256  0.4600
 6534TIP3   OH241236   4.603   4.235   6.122 -0.2609  0.0549 -0.5453
 6534TIP3    H141237   4.630   4.164   6.180 -0.9818 -0.4205 -0.7827
 6534TIP3    H241238   4.532   4.198   6.070  0.1876  0.5559 -1.5440
 6535TIP3   OH241239   4.282   6.190   8.290  0.5263  0.2322 -0.4944
 6535TIP3    H141240   4.196   6.231   8.295  0.6685  0.9514 -2.7976
 6535TIP3    H241241   4.290   6.142   8.373 -1.1003  1.9919  0.8025
 6536TIP3   OH241242   2.148   2.527   2.598  0.3961 -0.7590 -0.0744
 6536TIP3    H141243   2.059   2.560   2.584 -0.0633 -2.6037 -1.9781
 6536TIP3    H241244   2.203   2.605   2.599 -1.1003  0.3340 -0.0278
 6537TIP3   OH241245   6.857   0.666   2.217  0.0128  0.3241 -0.1015
 6537TIP3    H141246   6.781   0.620   2.251  0.6276  0.1942  1.1457
 6537TIP3    H241247   6.928   0.602   2.222  0.3403  0.6257 -0.7089
 6538TIP3   OH241248   3.164   1.134   7.125 -0.1952  0.3338  0.5809
 6538TIP3    H141249   3.070   1.118   7.123 -0.5351  1.9860 -2.2520
 6538TIP3    H241250   3.177   1.200   7.193 -0.9232 -0.4622  1.5237
 6539TIP3   OH241251   6.429   6.401   1.231 -0.1265  0.2756 -0.0523
 6539TIP3    H141252   6.512   6.444   1.213  0.2926  0.6856  2.4533
 6539TIP3    H241253   6.362   6.462   1.199  0.4618 -0.4572 -2.9014
 6540TIP3   OH241254   5.021   4.570   7.256  0.2252  0.0740  0.2248
 6540TIP3    H141255   5.050   4.622   7.330 -0.4921 -0.9453  1.2541
 6540TIP3    H241256   4.968   4.631   7.204 -0.5830  0.4065  1.3909
 6541TIP3   OH241257   2.465   2.414   1.863  0.4180  0.8101  0.3688
 6541TIP3    H141258   2.531   2.457   1.917  0.3804 -0.8022  1.7892
 6541TIP3    H241259   2.382   2.456   1.887  0.2227 -0.6865  2.5454
 6542TIP3   OH241260   5.023   3.715   6.874  0.2889  0.0004  0.2876
 6542TIP3    H141261   4.947   3.699   6.931  0.8460  1.1473  1.4041
 6542TIP3    H241262   5.083   3.643   6.893 -0.5093 -0.9522 -0.6506
 6543TIP3   OH241263   0.969   2.911   0.384  0.1053 -0.0042 -0.0109
 6543TIP3    H141264   0.913   2.893   0.459  1.6167  0.3096  1.2519
 6543TIP3    H241265   1.006   2.825   0.360 -1.4546 -0.3449 -1.3466
 6544TIP3   OH241266   0.867   1.709   1.380  0.1481  0.2622 -0.6061
 6544TIP3    H141267   0.910   1.630   1.414 -0.9968 -0.9491 -1.8709
 6544TIP3    H241268   0.774   1.695   1.398 -0.3955  0.0393 -3.1903
 6545TIP3   OH241269   5.662   6.689   8.402 -0.3170 -0.0152 -0.1594
 6545TIP3    H141270   5.664   6.594   8.392  0.9276 -0.0747  0.4990
 6545TIP3    H241271   5.635   6.704   8.493 -0.6074  0.2741 -0.2886
 6546TIP3   OH241272   1.277   4.158   6.243 -0.2604 -0.3497  0.1515
 6546TIP3    H141273   1.242   4.151   6.332  0.2099 -0.8495  0.3013
 6546TIP3    H241274   1.262   4.250   6.219 -2.8954 -0.8082 -0.3288
 6547TIP3   OH241275   1.784   4.773   7.768  0.4124  0.2400  0.4178
 6547TIP3    H141276   1.848   4.807   7.706  0.4307 -0.8919 -0.2112
 6547TIP3    H241277   1.834   4.712   7.822 -0.4173 -2.0683 -1.2433
 6548TIP3   OH241278   4.279   3.696   7.453  0.0081 -0.0513 -0.2662
 6548TIP3    H141279   4.336   3.760   7.497  1.2140  0.0263 -1.8653
 6548TIP3    H241280   4.197   3.742   7.440 -0.3936 -0.0695  1.8459
 6549TIP3   OH241281   1.449   0.712   6.855 -0.8056 -0.1838 -0.0269
 6549TIP3    H141282   1.511   0.754   6.795 -1.1369  0.8144  0.3137
 6549TIP3    H241283   1.370   0.699   6.803 -0.6464 -0.5378 -0.1800
 6550TIP3   OH241284   2.544   0.970   7.799  0.2213 -0.4178 -0.4359
 6550TIP3    H141285   2.486   0.930   7.734  2.3411 -1.5887 -1.7357
 6550TIP3    H241286   2.497   0.962   7.882 -2.3636  0.6625 -1.6877
 6551TIP3   OH241287   3.477   5.787   1.750  0.1496 -0.1920 -0.3700
 6551TIP3    H141288   3.527   5.809   1.829  0.6726 -1.4262 -0.3247
 6551TIP3    H241289   3.413   5.722   1.780  1.3109 -1.7811 -1.1923
 6552TIP3   OH241290   4.819   5.778   0.394 -0.4339 -0.2295  0.1359
 6552TIP3    H141291   4.794   5.812   0.480 -0.8605  0.4561 -0.2491
 6552TIP3    H241292   4.914   5.769   0.399 -0.1226  2.2104 -0.1100
 6553TIP3   OH241293   1.781   6.409   1.626 -0.0047  0.1246 -0.4510
 6553TIP3    H141294   1.735   6.465   1.563 -1.7982  0.1008  0.7542
 6553TIP3    H241295   1.730   6.417   1.707  2.5354  0.6185  1.2326
 6554TIP3   OH241296   4.970   5.703   7.563  0.2320  0.0208  0.1614
 6554TIP3    H141297   5.039   5.665   7.616 -0.2869  1.8236  2.2854
 6554TIP3    H241298   5.015   5.761   7.502  0.7061 -0.3638  0.1473
 6555TIP3   OH241299   3.489   1.320   7.665  0.5241  0.1122  0.3114
 6555TIP3    H141300   3.570   1.351   7.625  1.6495  1.2293  3.1831
 6555TIP3    H241301   3.496   1.346   7.757 -2.1221 -1.7268  1.1563
 6556TIP3   OH241302   3.191   4.377   2.197  0.4803 -0.8422  0.4484
 6556TIP3    H141303   3.271   4.411   2.156 -0.4901 -0.6114 -1.3265
 6556TIP3    H241304   3.224   4.317   2.265  2.1992 -2.0412 -1.3208
 6557TIP3   OH241305   0.958   1.620   1.707  0.1763 -0.0634 -0.8481
 6557TIP3    H141306   1.021   1.569   1.758 -0.2149  0.5939  0.3425
 6557TIP3    H241307   1.012   1.678   1.653  0.6042 -0.1967 -0.5679
 6558TIP3   OH241308   2.867   5.284   0.675  0.3383 -0.1850  0.1554
 6558TIP3    H141309   2.881   5.258   0.767 -2.0836 -2.4995 -0.0041
 6558TIP3    H241310   2.896   5.207   0.625 -1.3275 -0.2224 -0.7900
 6559TIP3   OH241311   3.446   6.117   0.047 -0.8345  0.3748 -0.1446
 6559TIP3    H141312   3.504   6.083  -0.021  1.5267 -2.9219  3.1420
 6559TIP3    H241313   3.358   6.090   0.019  0.1660 -1.8428 -1.4102
 6560TIP3   OH241314   0.818   3.771   0.769  0.5847  0.1552 -0.2189
 6560TIP3    H141315   0.881   3.837   0.741  1.1687 -0.0596  0.5397
 6560TIP3    H241316   0.753   3.818   0.820  1.3758  0.0547  0.9000
 6561TIP3   OH241317   2.583   4.946   6.746  0.2060 -0.0974 -0.2811
 6561TIP3    H141318   2.575   4.876   6.681  0.0026 -0.9473  0.6146
 6561TIP3    H241319   2.677   4.951   6.764  0.2578  0.1101 -0.6035
 6562TIP3   OH241320   3.069   6.017   1.856 -0.1543 -0.2411 -0.7508
 6562TIP3    H141321   3.003   6.068   1.811  0.4476 -0.1476 -1.5473
 6562TIP3    H241322   3.049   6.029   1.949 -0.6371  0.6022 -0.9508
 6563TIP3   OH241323   4.095   6.663   2.088 -0.2370 -0.1155 -0.3607
 6563TIP3    H141324   4.082   6.736   2.148 -0.2664 -0.5584  0.1721
 6563TIP3    H241325   4.047   6.590   2.128  0.1398 -0.5386 -0.6778
 6564TIP3   OH241326   3.849   1.848   7.013 -0.3449  0.0934 -0.2147
 6564TIP3    H141327   3.828   1.904   6.939  1.9272  1.0423 -0.2174
 6564TIP3    H241328   3.863   1.908   7.086 -1.2779 -0.7444  0.6819
 6565TIP3   OH241329   5.280   4.061   1.876 -0.4322  0.2690  0.2015
 6565TIP3    H141330   5.272   4.087   1.967  1.3541  0.4818  0.3292
 6565TIP3    H241331   5.374   4.056   1.860 -0.6895  0.9780 -1.8430
 6566TIP3   OH241332   2.340   6.145   1.042 -0.3193  0.1906 -0.0403
 6566TIP3    H141333   2.248   6.118   1.045 -0.7345  1.5959  0.7038
 6566TIP3    H241334   2.371   6.137   1.132  0.7366 -1.5789 -0.4943
 6567TIP3   OH241335   3.266   4.207   0.818  0.0607  0.3289 -0.2489
 6567TIP3    H141336   3.358   4.182   0.831 -0.0101 -0.0689 -0.4785
 6567TIP3    H241337   3.259   4.295   0.855  1.2043  1.5512 -2.7090
 6568TIP3   OH241338   0.398   0.142   1.691 -0.2134 -0.7848  0.2116
 6568TIP3    H141339   0.315   0.173   1.726  0.0340 -0.1198  0.2319
 6568TIP3    H241340   0.380   0.053   1.661 -0.5976 -1.1121  1.3768
 6569TIP3   OH241341   0.645   2.379   1.101  0.1367  0.6626 -0.8448
 6569TIP3    H141342   0.629   2.352   1.191  0.2776  0.7561 -0.7900
 6569TIP3    H241343   0.559   2.381   1.060  0.2867 -2.1256 -1.5031
 6570TIP3   OH241344   2.290   1.023   1.758 -0.1628 -0.3249 -0.6126
 6570TIP3    H141345   2.324   1.109   1.733 -1.0841  0.2065 -0.0733
 6570TIP3    H241346   2.197   1.027   1.737 -0.3235 -0.9852 -0.0393
 6571TIP3   OH241347   2.875   0.629   6.895  0.8093 -0.1247  0.0352
 6571TIP3    H141348   2.886   0.555   6.836  2.1004  1.1564 -1.4550
 6571TIP3    H241349   2.937   0.695   6.862 -0.1642  1.5540  1.3805
 6572TIP3   OH241350   4.965   0.351   2.115  0.1125 -0.2002  0.5767
 6572TIP3    H141351   4.926   0.296   2.047  0.7096  1.9107 -1.6269
 6572TIP3    H241352   5.055   0.318   2.123  0.3535  0.1781 -0.4401
 6573TIP3   OH241353   1.442   2.133   1.254 -0.1998  0.1228 -0.2172
 6573TIP3    H141354   1.468   2.208   1.201 -1.7208  0.9100  0.0962
 6573TIP3    H241355   1.347   2.139   1.258 -0.3648 -1.9087 -0.2801
 6574TIP3   OH241356   6.720   6.292   7.106 -0.3931 -0.0298  0.1011
 6574TIP3    H141357   6.699   6.227   7.038 -1.1506  0.9588 -0.6395
 6574TIP3    H241358   6.635   6.315   7.144 -0.1477  0.6036  0.2776
 6575TIP3   OH241359   3.847   2.623   1.614  0.1301 -0.0370 -0.1477
 6575TIP3    H141360   3.897   2.675   1.676  0.0662 -1.2348  0.9369
 6575TIP3    H241361   3.757   2.656   1.622  0.1943  0.0740  0.0991
 6576TIP3   OH241362   3.863   3.051   6.285  0.0105  0.1413  0.3321
 6576TIP3    H141363   3.897   3.076   6.199 -1.1806 -0.8148 -0.4460
 6576TIP3    H241364   3.918   3.098   6.347  1.2381  0.4332 -0.9374
 6577TIP3   OH241365   4.341   0.358   0.822  0.4921 -0.6631 -0.2417
 6577TIP3    H141366   4.420   0.411   0.824 -0.0829  0.2412 -0.9480
 6577TIP3    H241367   4.350   0.299   0.898  1.5983 -0.2454 -0.0276
 6578TIP3   OH241368   0.505   6.759   7.424 -0.6486  0.1174  0.0543
 6578TIP3    H141369   0.596   6.735   7.403 -1.0272  0.1297 -1.7040
 6578TIP3    H241370   0.459   6.753   7.341 -1.4523  3.8919  0.0632
 6579TIP3   OH241371   0.975   3.905   6.925  0.2799  0.1328 -0.0103
 6579TIP3    H141372   0.903   3.904   6.862 -0.0620  0.7350  0.3661
 6579TIP3    H241373   1.045   3.857   6.881 -0.7413 -1.5589  0.0876
 6580TIP3   OH241374   6.507   5.650   8.327  0.1826  0.8830  0.0477
 6580TIP3    H141375   6.554   5.592   8.388  0.4564  2.2625  1.2082
 6580TIP3    H241376   6.513   5.736   8.368 -3.7455  1.1023  0.5112
 6581TIP3   OH241377   0.330   5.349   0.859  0.0470 -0.2111  0.5632
 6581TIP3    H141378   0.284   5.423   0.900 -1.7393 -1.5954  1.1729
 6581TIP3    H241379   0.385   5.314   0.929  0.1195 -0.0726  0.5760
 6582TIP3   OH241380   1.617   1.044   7.744  0.2532 -0.7261 -0.4979
 6582TIP3    H141381   1.547   0.981   7.762  0.2036 -0.8120 -0.9816
 6582TIP3    H241382   1.594   1.082   7.659 -1.7667  2.7102  1.3745
 6583TIP3   OH241383   5.907   5.447   0.761  0.2342 -0.0364 -0.6934
 6583TIP3    H141384   5.934   5.358   0.743  1.0132  0.3130 -1.2779
 6583TIP3    H241385   5.868   5.443   0.849 -1.6451 -1.3351 -1.5220
 6584TIP3   OH241386   1.067   5.476   0.643 -0.1122 -0.2761 -0.1330
 6584TIP3    H141387   1.049   5.559   0.597  4.1107  1.0941  0.2429
 6584TIP3    H241388   1.145   5.442   0.600  0.0492 -2.4757  1.7430
 6585TIP3   OH241389   5.604   6.322   8.609  0.1237  0.1243 -0.5258
 6585TIP3    H141390   5.607   6.239   8.562  1.6172 -0.0746 -0.1205
 6585TIP3    H241391   5.618   6.299   8.701 -2.0359  0.5869 -0.0015
 6586TIP3   OH241392   1.179   4.228   8.635  0.4703 -0.2504  0.2775
 6586TIP3    H141393   1.113   4.297   8.641  0.0177 -0.7110  0.6392
 6586TIP3    H241394   1.185   4.191   8.723  0.1164 -1.2116 -0.0826
 6587TIP3   OH241395   2.179   4.209   7.004  0.9215 -0.1578 -0.3070
 6587TIP3    H141396   2.225   4.214   7.088  0.0265  3.5358  0.1297
 6587TIP3    H241397   2.088   4.192   7.028  0.8507 -0.2249 -0.6194
 6588TIP3   OH241398   0.257   3.265   2.348  0.3191 -0.0559  0.7900
 6588TIP3    H141399   0.287   3.194   2.292 -2.5736  0.8578 -2.2764
 6588TIP3    H241400   0.171   3.237   2.380 -0.8069  1.8579 -0.3491
 6589TIP3   OH241401   5.106   5.172   0.024 -0.1559  0.0225  0.8269
 6589TIP3    H141402   5.123   5.190   0.116  1.0176 -1.4338  0.9394
 6589TIP3    H241403   5.192   5.169  -0.016 -0.6598  0.6971 -0.3473
 6590TIP3   OH241404   0.039   2.988   7.544 -0.1864 -0.5590 -0.3650
 6590TIP3    H141405   0.125   3.023   7.568 -0.4004 -1.0624  1.2550
 6590TIP3    H241406  -0.017   3.065   7.542  0.1649 -0.3098 -0.7577
 6591TIP3   OH241407   2.086   4.684   6.970 -0.0541 -0.2406  0.2852
 6591TIP3    H141408   2.135   4.645   6.898  0.2239  0.3309  0.1534
 6591TIP3    H241409   2.076   4.776   6.945  0.3006  0.0336  1.1097
 6592TIP3   OH241410   5.826   1.029   1.466  0.3302 -0.3912  0.3590
 6592TIP3    H141411   5.914   0.990   1.467  1.6186  2.2088 -0.3328
 6592TIP3    H241412   5.822   1.083   1.545 -0.4320 -0.0961  0.1323
 6593TIP3   OH241413   4.681   0.234   2.062 -0.0473 -0.1926 -0.1352
 6593TIP3    H141414   4.587   0.216   2.070  0.0191 -0.6448 -0.3174
 6593TIP3    H241415   4.718   0.206   2.145  0.1727 -1.7385 -0.7118
 6594TIP3   OH241416   2.972   1.718   1.820 -0.1435 -0.7133  0.1946
 6594TIP3    H141417   2.967   1.767   1.902 -0.5988 -0.3128 -0.0633
 6594TIP3    H241418   2.889   1.670   1.816 -0.8605  0.5574 -0.8156
 6595TIP3   OH241419   3.246   4.518   7.317 -0.3772  0.6235 -0.1988
 6595TIP3    H141420   3.154   4.539   7.334 -0.4989 -0.1229  0.1438
 6595TIP3    H241421   3.294   4.566   7.384 -0.6030  0.2511  0.2387
 6596TIP3   OH241422   2.727   3.864   7.162  0.6178 -0.0645 -1.3482
 6596TIP3    H141423   2.769   3.832   7.083  2.6037 -2.2026  0.4199
 6596TIP3    H241424   2.780   3.940   7.188  1.0551 -0.4373 -1.1439
 6597TIP3   OH241425   6.082   5.773   2.203  0.2712 -0.1430 -0.7604
 6597TIP3    H141426   6.063   5.837   2.134 -0.1946  0.3842 -0.1545
 6597TIP3    H241427   6.128   5.822   2.270 -0.9502 -0.1816  0.1504
 6598TIP3   OH241428   0.777   0.882   2.760 -0.6215 -0.1904  0.3559
 6598TIP3    H141429   0.845   0.834   2.808  0.3530  0.4960 -0.3016
 6598TIP3    H241430   0.754   0.824   2.687 -0.2803 -0.1466  0.2137
 6599TIP3   OH241431   5.871   5.584   0.082  0.2215  0.3869  0.2557
 6599TIP3    H141432   5.947   5.526   0.074  1.6471  2.2559 -0.7447
 6599TIP3    H241433   5.853   5.587   0.176  1.9543  0.5005  0.6251
 6600TIP3   OH241434   3.717   0.473   6.992  1.0917  0.3607  0.4685
 6600TIP3    H141435   3.745   0.431   6.910 -0.6441 -0.4676  0.2549
 6600TIP3    H241436   3.726   0.567   6.975 -0.1966  0.2518 -1.0806
 6601TIP3   OH241437   1.687   0.701   0.372 -0.1529  0.0706  0.6742
 6601TIP3    H141438   1.655   0.622   0.328 -1.9186  1.0872  0.0384
 6601TIP3    H241439   1.712   0.760   0.300  1.2539  0.0865  1.1426
 6602TIP3   OH241440   4.581   2.357   0.696  0.7539 -1.2646 -0.3663
 6602TIP3    H141441   4.637   2.379   0.622 -1.4953 -0.9838 -2.1273
 6602TIP3    H241442   4.595   2.426   0.760 -0.3149  0.9667 -2.3915
 6603TIP3   OH241443   1.474   1.331   7.842  0.0678  0.7613 -0.1656
 6603TIP3    H141444   1.543   1.329   7.776 -1.2490  1.5988 -1.6195
 6603TIP3    H241445   1.489   1.252   7.894  1.6415  0.5229 -0.9145
 6604TIP3   OH241446   0.197   2.472   7.339 -0.3912 -0.4550  0.4118
 6604TIP3    H141447   0.174   2.564   7.350 -1.2261 -0.3455 -1.7380
 6604TIP3    H241448   0.267   2.473   7.273  0.3342 -1.3069  1.1417
 6605TIP3   OH241449   3.480   2.294   0.648 -0.3336  0.8463  0.0080
 6605TIP3    H141450   3.419   2.220   0.642 -0.2791  0.3730  3.3251
 6605TIP3    H241451   3.426   2.370   0.625 -1.5306  0.1798  0.4750
 6606TIP3   OH241452   2.870   1.334   7.926  0.8082 -0.0738 -0.4936
 6606TIP3    H141453   2.931   1.352   7.854 -0.7851 -1.7187 -2.3672
 6606TIP3    H241454   2.854   1.240   7.921 -0.7060  0.0630  0.9172
 6607TIP3   OH241455   1.901   4.076   1.235 -0.2156 -0.6923  0.0564
 6607TIP3    H141456   1.915   4.103   1.145 -3.7771  0.1012 -0.4285
 6607TIP3    H241457   1.874   4.156   1.280  0.9089 -1.1929  1.7148
 6608TIP3   OH241458   6.027   6.560   7.898 -0.5302  0.6636  0.2062
 6608TIP3    H141459   6.032   6.655   7.887  0.4213  0.4407 -1.8878
 6608TIP3    H241460   6.118   6.533   7.914 -0.7254  0.0832  0.3553
 6609TIP3   OH241461   0.703   1.579   1.571  0.3645 -0.2467 -0.1173
 6609TIP3    H141462   0.781   1.568   1.626  0.4084  0.8213  0.0590
 6609TIP3    H241463   0.644   1.633   1.623 -0.1917 -0.4249 -0.5507
 6610TIP3   OH241464   5.410   5.642   7.615 -0.4052  0.2031  0.2684
 6610TIP3    H141465   5.465   5.678   7.545 -0.5270  0.3173  0.2324
 6610TIP3    H241466   5.321   5.661   7.588 -0.4055  2.1811  1.4961
 6611TIP3   OH241467   3.349   4.210   0.004 -0.4834  1.0443  0.0976
 6611TIP3    H141468   3.418   4.274  -0.016  0.0262  0.3929 -0.2995
 6611TIP3    H241469   3.335   4.219   0.098 -0.8438  2.1440 -0.0496
 6612TIP3   OH241470   0.447   2.809   7.042 -0.1109  0.2280 -0.6394
 6612TIP3    H141471   0.466   2.902   7.055 -1.4144  0.1416  2.8913
 6612TIP3    H241472   0.357   2.807   7.011 -0.4066  0.1556  0.1980
 6613TIP3   OH241473   2.623   0.619   1.279 -0.3540  0.4540  0.1386
 6613TIP3    H141474   2.628   0.600   1.373  0.1219 -1.9989 -0.3074
 6613TIP3    H241475   2.705   0.664   1.259  0.2776 -0.4234  0.6592
 6614TIP3   OH241476   2.168   2.555   1.316 -0.0476  0.4296 -0.7647
 6614TIP3    H141477   2.087   2.577   1.362  0.4036 -0.7245  0.6583
 6614TIP3    H241478   2.212   2.639   1.303  0.5364  0.7296  2.3926
 6615TIP3   OH241479   2.678   2.119   7.481 -0.6795  0.4823  0.2065
 6615TIP3    H141480   2.643   2.117   7.391 -1.1916 -0.1029  0.4071
 6615TIP3    H241481   2.699   2.027   7.500 -3.1367  0.1102  1.6315
 6616TIP3   OH241482   4.485   0.442   6.256  0.2982  0.5023  0.3899
 6616TIP3    H141483   4.395   0.418   6.280  0.4810  1.1694  1.8853
 6616TIP3    H241484   4.520   0.364   6.213 -0.7660 -0.0217  0.4346
 6617TIP3   OH241485   5.981   2.003   6.885  0.9624  0.3233 -0.1902
 6617TIP3    H141486   5.997   1.914   6.855 -0.4936  0.9043 -3.1401
 6617TIP3    H241487   6.044   2.056   6.837  0.6296  1.0320  0.1428
 6618TIP3   OH241488   6.570   5.695   1.018  0.1311  0.6556 -0.0151
 6618TIP3    H141489   6.568   5.790   1.012  1.2489  0.5756 -2.6465
 6618TIP3    H241490   6.483   5.667   0.992 -0.0483  0.9123  0.2965
 6619TIP3   OH241491   2.907   6.400   8.389 -0.0959  0.6070 -0.2833
 6619TIP3    H141492   2.888   6.421   8.481 -0.0582  2.5693 -0.6768
 6619TIP3    H241493   2.881   6.479   8.341 -0.0295 -0.3602 -1.9581
 6620TIP3   OH241494   0.645   2.734   8.156  0.3163  0.4991 -0.1698
 6620TIP3    H141495   0.716   2.794   8.133 -0.9863  1.2894 -2.4789
 6620TIP3    H241496   0.673   2.649   8.125  0.8199  0.5350  0.1828
 6621TIP3   OH241497   6.651   5.459   8.503  0.1359 -0.5718 -0.4326
 6621TIP3    H141498   6.638   5.483   8.595 -0.7553 -2.5826  0.0343
 6621TIP3    H241499   6.741   5.429   8.498  0.3800  0.1362 -0.3761
 6622TIP3   OH241500   3.713   6.796   7.323  0.3071  0.1179  0.2293
 6622TIP3    H141501   3.753   6.883   7.318  2.1480 -0.7391 -1.0198
 6622TIP3    H241502   3.723   6.771   7.415 -0.2673  1.2147  0.6097
 6623TIP3   OH241503   6.866   1.006   8.413  0.1964 -0.0047 -0.1951
 6623TIP3    H141504   6.931   1.027   8.345 -0.9150  1.7658 -0.7951
 6623TIP3    H241505   6.896   1.054   8.490 -0.6636  1.3434 -0.6535
 6624TIP3   OH241506   0.043   2.107   1.271 -0.0193 -0.2939  0.0730
 6624TIP3    H141507   0.114   2.044   1.282 -0.6445 -0.7884  1.6729
 6624TIP3    H241508  -0.018   2.086   1.341 -1.1806  0.8759 -0.5417
 6625TIP3   OH241509   6.530   0.301   7.815 -0.3469 -0.1457 -0.3394
 6625TIP3    H141510   6.531   0.232   7.882 -1.2293  1.3215  1.2520
 6625TIP3    H241511   6.622   0.315   7.794  0.0995  0.5826  1.9059
 6626TIP3   OH241512   6.669   3.459   2.611  0.0150 -0.1256  0.2020
 6626TIP3    H141513   6.732   3.528   2.589  0.5093 -1.1295 -1.7299
 6626TIP3    H241514   6.585   3.494   2.580 -0.0377  0.3166  0.8221
 6627TIP3   OH241515   1.653   2.943   1.230  0.8094  0.5257 -0.0662
 6627TIP3    H141516   1.677   2.866   1.179 -0.0898  1.5307 -2.1112
 6627TIP3    H241517   1.579   2.915   1.283  2.0133 -0.6487  1.0787
 6628TIP3   OH241518   5.377   6.098   2.162 -0.4889  0.3849  0.4632
 6628TIP3    H141519   5.299   6.107   2.218 -0.6366  0.5568  0.2304
 6628TIP3    H241520   5.416   6.015   2.190 -0.0113  0.9331  1.4943
 6629TIP3   OH241521   0.809   5.846   0.623 -0.2461 -0.5142  0.1459
 6629TIP3    H141522   0.793   5.882   0.536 -2.2099  0.8158  0.9661
 6629TIP3    H241523   0.724   5.813   0.651 -0.7179  2.5904  3.0014
 6630TIP3   OH241524   1.223   4.721   7.999  0.0314  0.4772 -0.0928
 6630TIP3    H141525   1.130   4.734   8.018 -0.0262  0.4880 -0.3763
 6630TIP3    H241526   1.266   4.727   8.084 -0.1807  0.8867 -0.0140
 6631TIP3   OH241527   3.137   0.619   0.338 -0.1588  0.1091  0.2062
 6631TIP3    H141528   3.185   0.690   0.380 -1.3331  0.3892  1.1160
 6631TIP3    H241529   3.131   0.645   0.246 -0.2928  1.0282  0.4688
 6632TIP3   OH241530   0.822   1.240   8.474 -0.3981  0.0394  0.6731
 6632TIP3    H141531   0.784   1.214   8.391 -0.1103 -2.9717  1.3786
 6632TIP3    H241532   0.867   1.323   8.455  0.3498 -0.9457 -2.3544
 6633TIP3   OH241533   0.374   4.421   0.101  0.0694 -0.1002  0.0939
 6633TIP3    H141534   0.308   4.372   0.051 -1.7399  1.8177  0.4428
 6633TIP3    H241535   0.366   4.386   0.190 -0.3091 -0.0715  0.0753
 6634TIP3   OH241536   1.859   4.658   1.562 -0.0642 -0.0329  0.6669
 6634TIP3    H141537   1.786   4.598   1.543  0.7120 -0.8486  0.1568
 6634TIP3    H241538   1.872   4.650   1.657 -1.0598  0.6286  0.8715
 6635TIP3   OH241539   1.836   3.792   2.732  0.0146  0.5207  0.3050
 6635TIP3    H141540   1.849   3.881   2.763  1.5116  1.3639 -2.4121
 6635TIP3    H241541   1.896   3.739   2.785  1.1632  1.5846  0.1092
 6636TIP3   OH241542   3.077   4.569   6.940 -0.7216  1.0384 -0.1355
 6636TIP3    H141543   3.043   4.658   6.929  1.1165  1.6484 -1.3478
 6636TIP3    H241544   3.171   4.581   6.953 -0.9086 -0.5242  3.7954
 6637TIP3   OH241545   3.156   4.960   1.173 -0.3014 -0.3583 -0.3347
 6637TIP3    H141546   3.100   4.888   1.203 -0.3883 -0.0526  0.2471
 6637TIP3    H241547   3.100   5.037   1.178  0.0773 -0.0977 -0.0254
 6638TIP3   OH241548   0.342   0.481   0.620 -0.1784 -0.4261 -0.2333
 6638TIP3    H141549   0.411   0.425   0.655  0.3893 -0.7981 -1.8609
 6638TIP3    H241550   0.290   0.505   0.696  0.5232 -1.8332  0.7354
 6639TIP3   OH241551   4.720   5.471   7.995 -0.1748  0.0013  0.2745
 6639TIP3    H141552   4.739   5.477   7.901 -1.0310 -0.6716  0.0426
 6639TIP3    H241553   4.729   5.560   8.027  0.9312  0.1117 -0.2777
 6640TIP3   OH241554   5.794   0.853   6.698 -0.1467  0.9868  0.3435
 6640TIP3    H141555   5.864   0.832   6.635 -0.0191 -0.6733  0.9888
 6640TIP3    H241556   5.840   0.865   6.781 -0.5869  0.1604  0.7151
 6641TIP3   OH241557   1.643   3.634   1.726  0.4201  0.0750  0.4018
 6641TIP3    H141558   1.616   3.638   1.818  1.5188  2.0349  0.6918
 6641TIP3    H241559   1.684   3.719   1.709 -1.1754  0.4044 -2.3751
 6642TIP3   OH241560   1.402   5.074   1.746 -0.5134  0.9355  0.0079
 6642TIP3    H141561   1.407   5.123   1.828 -1.0881 -2.0209  1.9729
 6642TIP3    H241562   1.482   5.022   1.745 -0.9319  0.2906 -0.8417
 6643TIP3   OH241563   2.322   2.709   2.128 -0.6284 -0.2096 -0.1604
 6643TIP3    H141564   2.262   2.772   2.088 -0.6544 -1.3757 -2.0844
 6643TIP3    H241565   2.274   2.675   2.203 -0.7248  1.8037  0.7498
 6644TIP3   OH241566   3.068   1.763   6.793  0.4704 -0.1631 -0.6150
 6644TIP3    H141567   3.102   1.847   6.762  1.1555 -1.0490 -2.3816
 6644TIP3    H241568   3.125   1.697   6.754 -0.3067 -1.4898  0.3850
 6645TIP3   OH241569   0.747   5.734   1.516  0.3159  0.3673  0.8191
 6645TIP3    H141570   0.772   5.655   1.468 -3.1985  0.3662 -1.3566
 6645TIP3    H241571   0.828   5.784   1.525  1.9182 -1.6308 -1.3807
 6646TIP3   OH241572   3.386   6.901   1.162  0.0568  0.2803  0.2878
 6646TIP3    H141573   3.314   6.862   1.113  0.5177 -1.4321  0.9063
 6646TIP3    H241574   3.440   6.827   1.190  1.1380  1.3852  1.2970
 6647TIP3   OH241575   1.626   3.369   0.743  0.2810 -0.1292 -0.2145
 6647TIP3    H141576   1.568   3.296   0.766 -0.5297  0.5791  0.0430
 6647TIP3    H241577   1.638   3.361   0.648 -0.9179  0.1850 -0.4060
 6648TIP3   OH241578   1.625   6.864   0.041 -0.1372 -0.0113 -0.1710
 6648TIP3    H141579   1.657   6.809   0.112 -1.3031  0.4204  0.7331
 6648TIP3    H241580   1.703   6.905   0.004  0.8220 -2.5612 -1.1729
 6649TIP3   OH241581   0.690   4.836   0.607  0.6238 -0.1437  0.4076
 6649TIP3    H141582   0.737   4.766   0.654 -0.1381 -0.4507  0.7352
 6649TIP3    H241583   0.637   4.878   0.674 -1.1213 -1.1232 -0.2952
 6650TIP3   OH241584   3.278   2.432   0.063  0.0286 -0.2994  0.5708
 6650TIP3    H141585   3.313   2.356   0.017 -0.6285  0.0134 -0.4723
 6650TIP3    H241586   3.337   2.504   0.038  0.1836 -0.2999  0.9262
 6651TIP3   OH241587   5.905   0.986   0.673 -0.0765  0.3480  0.5222
 6651TIP3    H141588   5.906   0.994   0.768 -0.6554 -1.7330  0.7488
 6651TIP3    H241589   5.905   0.892   0.657 -0.2678  0.6612 -1.5394
 6652TIP3   OH241590   2.998   3.645   0.190 -0.3418  0.3438  0.1766
 6652TIP3    H141591   3.064   3.599   0.242 -1.5313 -0.6109  0.8982
 6652TIP3    H241592   3.012   3.737   0.210  0.7181  0.1603  0.3623
 6653TIP3   OH241593   3.127   4.195   1.686  0.8957 -0.6360  0.6552
 6653TIP3    H141594   3.032   4.180   1.681  0.7896  0.2771 -0.7369
 6653TIP3    H241595   3.160   4.121   1.735 -0.4764 -1.2979  0.6404
 6654TIP3   OH241596   4.200   2.155   6.344  0.1334 -0.0242 -0.7414
 6654TIP3    H141597   4.292   2.132   6.360 -0.1024  0.2040  1.1688
 6654TIP3    H241598   4.198   2.251   6.351  0.2140  0.2838 -3.6814
 6655TIP3   OH241599   4.251   5.488   1.231  0.1493  0.7182 -0.1526
 6655TIP3    H141600   4.342   5.485   1.257  0.5198 -2.0085 -1.3728
 6655TIP3    H241601   4.253   5.500   1.136 -0.7234  0.2912 -0.2443
 6656TIP3   OH241602   4.445   1.902   0.421  0.0863  0.0632 -0.4216
 6656TIP3    H141603   4.389   1.825   0.409  0.5682 -0.2620 -0.6222
 6656TIP3    H241604   4.387   1.967   0.461 -0.4145 -0.2904 -0.5501
 6657TIP3   OH241605   5.124   3.605   7.407  0.5179  0.5529 -1.1420
 6657TIP3    H141606   5.216   3.585   7.419  0.2064 -1.2381 -1.5018
 6657TIP3    H241607   5.097   3.647   7.489  1.3326 -0.1656 -0.4907
 6658TIP3   OH241608   0.209   2.650   0.164  0.0968  0.2853 -0.3536
 6658TIP3    H141609   0.192   2.558   0.185  1.6030  0.2795  1.0637
 6658TIP3    H241610   0.262   2.648   0.085  0.8728 -0.1237  0.1718
 6659TIP3   OH241611   0.810   6.364   7.301  0.3349 -0.3994  0.1145
 6659TIP3    H141612   0.870   6.362   7.376  0.6571 -0.1779 -0.1333
 6659TIP3    H241613   0.772   6.276   7.298  0.5171 -0.4870  0.3845
 6660TIP3   OH241614   5.909   2.250   6.648  0.1606  0.2351  0.2744
 6660TIP3    H141615   6.004   2.261   6.658  0.4730 -2.4761  0.9987
 6660TIP3    H241616   5.893   2.267   6.555  1.3189  0.8490  0.1671
 6661TIP3   OH241617   3.633   2.640   1.371 -0.0026  0.0769 -0.2986
 6661TIP3    H141618   3.555   2.612   1.323 -1.2206  2.7342 -0.0550
 6661TIP3    H241619   3.613   2.729   1.399  2.8483  0.5773  0.4537
 6662TIP3   OH241620   6.134   1.633   7.023  0.3921  0.5270 -0.3115
 6662TIP3    H141621   6.169   1.587   6.946  2.7713  2.5290 -0.5708
 6662TIP3    H241622   6.196   1.613   7.093 -0.0480  1.1357  0.2676
 6663TIP3   OH241623   3.697   1.135   1.667  0.4061  0.3683  0.4446
 6663TIP3    H141624   3.732   1.198   1.730  0.9295  0.9605 -0.4108
 6663TIP3    H241625   3.698   1.052   1.713  2.5381  0.4514  0.6457
 6664TIP3   OH241626   6.158   0.546   7.645  0.3058 -0.2374  0.9669
 6664TIP3    H141627   6.231   0.561   7.585 -0.2905 -1.2758 -0.0333
 6664TIP3    H241628   6.198   0.505   7.722  0.8523 -0.2797  0.6624
 6665TIP3   OH241629   1.848   6.628   8.639 -0.1664  0.0976  0.0039
 6665TIP3    H141630   1.901   6.705   8.621 -2.0116  1.4911  0.2571
 6665TIP3    H241631   1.812   6.643   8.727  0.0324 -1.4105  0.3728
 6666TIP3   OH241632   4.007   1.279   7.027  0.0335 -0.4393  0.7504
 6666TIP3    H141633   4.095   1.315   7.020 -0.4719  0.6455 -0.1803
 6666TIP3    H241634   3.953   1.334   6.971 -1.3505 -0.7725  1.6936
 6667TIP3   OH241635   0.673   4.447   0.512  0.2788  0.5375  0.2834
 6667TIP3    H141636   0.732   4.392   0.461  0.7046 -0.0549  1.3954
 6667TIP3    H241637   0.585   4.416   0.488  0.3951  1.2034 -1.1214
 6668TIP3   OH241638   5.994   2.460   7.613  0.4574 -0.4902  0.1568
 6668TIP3    H141639   5.999   2.438   7.706 -0.3734  1.6863  0.7588
 6668TIP3    H241640   6.085   2.456   7.584  0.8526 -0.2325  1.2927
 6669TIP3   OH241641   5.114   4.192   2.375 -0.3033  0.0563 -0.0602
 6669TIP3    H141642   5.059   4.193   2.453 -2.2657  0.6920 -1.3893
 6669TIP3    H241643   5.068   4.247   2.312  1.5042  0.0115 -1.4988
 6670TIP3   OH241644   3.717   0.918   1.828  0.3859  0.5640  0.1793
 6670TIP3    H141645   3.728   0.927   1.922 -0.1853  2.0137  0.1264
 6670TIP3    H241646   3.646   0.855   1.818 -1.1484  2.1206  0.7903
 6671TIP3   OH241647   2.041   6.150   1.708  0.0879  0.4094  0.2892
 6671TIP3    H141648   1.966   6.104   1.670 -1.4311  2.6319  0.3714
 6671TIP3    H241649   2.086   6.189   1.634 -0.2998  1.0973  0.4040
 6672TIP3   OH241650   5.102   6.635   6.961  0.3945 -0.2406 -0.2764
 6672TIP3    H141651   5.149   6.703   7.009  0.8358 -1.7205  1.4871
 6672TIP3    H241652   5.044   6.596   7.026 -0.7046 -0.8084 -1.5494
 6673TIP3   OH241653   3.571   0.775   0.649  0.2158  0.2139 -0.7558
 6673TIP3    H141654   3.595   0.772   0.557  1.0899  0.5787 -0.5558
 6673TIP3    H241655   3.554   0.868   0.666 -0.8938  0.0267 -0.7682
 6674TIP3   OH241656   2.023   5.596   2.420 -0.4025 -0.9635  0.0479
 6674TIP3    H141657   1.943   5.578   2.469 -1.4042 -2.2782 -1.9041
 6674TIP3    H241658   2.001   5.671   2.365  0.2779 -0.2767  0.7087
 6675TIP3   OH241659   4.585   4.403   0.523  0.2305 -0.0532 -0.2690
 6675TIP3    H141660   4.525   4.472   0.495 -1.7211 -1.4929  0.1457
 6675TIP3    H241661   4.602   4.353   0.444 -0.7117 -0.7797 -0.0286
 6676TIP3   OH241662   0.838   3.899   7.949 -0.5156 -0.3193 -0.3185
 6676TIP3    H141663   0.748   3.926   7.932 -0.0413  0.5292 -1.6753
 6676TIP3    H241664   0.845   3.899   8.045 -1.2647  2.0814 -0.1856
 6677TIP3   OH241665   4.753   5.146   6.514 -0.0253  0.6885 -0.4238
 6677TIP3    H141666   4.793   5.232   6.526  0.2825  0.3611  1.0049
 6677TIP3    H241667   4.826   5.085   6.513 -0.4166  0.1067  1.9986
 6678TIP3   OH241668   6.669   0.992   1.966  0.3193 -0.3263  0.5747
 6678TIP3    H141669   6.729   0.921   1.943  0.4277 -0.3196  0.8348
 6678TIP3    H241670   6.583   0.963   1.933  0.2514 -0.8379  1.1884
 6679TIP3   OH241671   3.238   1.673   7.066  0.3493 -0.4713  0.4767
 6679TIP3    H141672   3.257   1.666   6.973 -0.6170 -0.5569  0.2740
 6679TIP3    H241673   3.324   1.672   7.109  0.8045 -0.2966 -0.4160
 6680TIP3   OH241674   3.792   3.649   6.223  0.3761  0.2259  0.2212
 6680TIP3    H141675   3.754   3.733   6.249  0.0839 -0.3746  1.8856
 6680TIP3    H241676   3.881   3.670   6.196 -0.2450  1.2893 -1.1444
 6681TIP3   OH241677   0.505   5.518   0.352 -0.0015 -0.4942  0.2444
 6681TIP3    H141678   0.428   5.570   0.376  1.1429  1.1222  0.5505
 6681TIP3    H241679   0.552   5.505   0.435 -0.7196 -2.8955  0.3572
 6682TIP3   OH241680   6.479   1.833   7.646  0.4454  0.6558 -0.1276
 6682TIP3    H141681   6.543   1.889   7.601  0.7665 -0.3272 -0.9345
 6682TIP3    H241682   6.415   1.811   7.579 -0.8097  1.6693  0.6879
 6683TIP3   OH241683   3.168   0.124   7.286  0.3114 -0.3992 -0.3143
 6683TIP3    H141684   3.203   0.201   7.331  2.8631 -0.0184 -2.6791
 6683TIP3    H241685   3.073   0.133   7.294  0.5608  1.8446  1.2610
 6684TIP3   OH241686   2.195   0.456   8.230  0.3408 -0.3927  0.2756
 6684TIP3    H141687   2.223   0.365   8.224 -0.8108 -0.6277 -3.6078
 6684TIP3    H241688   2.100   0.452   8.232  0.2935  0.7384  1.0166
 6685TIP3   OH241689   6.021   5.199   0.467  0.1837  0.2653 -0.1208
 6685TIP3    H141690   5.928   5.179   0.462 -0.0910  1.4620  0.0258
 6685TIP3    H241691   6.062   5.139   0.405 -0.7486  0.1527 -0.6352
 6686TIP3   OH241692   4.033   0.837   0.046 -0.3804  0.0192  0.2378
 6686TIP3    H141693   4.090   0.781  -0.007  1.9045  1.8035  0.6603
 6686TIP3    H241694   4.009   0.783   0.121 -1.1847 -1.5207 -1.0531
 6687TIP3   OH241695   1.782   4.834   2.026  0.0693  0.2582  0.0006
 6687TIP3    H141696   1.740   4.873   1.949 -1.5146 -0.5539  0.4177
 6687TIP3    H241697   1.787   4.906   2.089  2.5341  1.2808 -1.2225
 6688TIP3   OH241698   6.480   4.370   1.446 -0.3408  0.0574  0.5627
 6688TIP3    H141699   6.524   4.291   1.476 -0.3445  1.4337  4.9182
 6688TIP3    H241700   6.547   4.438   1.448 -0.9282  0.7132 -0.5499
 6689TIP3   OH241701   2.258   3.349   1.261 -0.2448  0.1798 -0.3072
 6689TIP3    H141702   2.309   3.275   1.229  1.9575  2.3616 -2.2293
 6689TIP3    H241703   2.175   3.343   1.214 -1.0035 -2.1664  1.1719
 6690TIP3   OH241704   5.661   1.861   8.370  0.6875 -0.2963 -0.3905
 6690TIP3    H141705   5.693   1.908   8.293 -1.4125  0.7119 -0.6970
 6690TIP3    H241706   5.666   1.925   8.441 -1.2787  0.1347 -0.6024
 6691TIP3   OH241707   6.392   2.477   7.755  0.7210  0.3379 -0.2700
 6691TIP3    H141708   6.465   2.425   7.790  0.1397 -0.7022 -0.5670
 6691TIP3    H241709   6.332   2.486   7.829 -0.1314 -1.1742 -0.7502
 6692TIP3   OH241710   0.627   0.218   1.822 -0.2231 -0.1557  0.5715
 6692TIP3    H141711   0.572   0.236   1.898 -1.0499  1.9583 -0.4568
 6692TIP3    H241712   0.567   0.181   1.758  0.5548 -2.3570  1.0023
 6693TIP3   OH241713   0.637   4.749   1.741 -0.2577 -0.4086  0.1722
 6693TIP3    H141714   0.715   4.797   1.767  0.5920 -1.0701 -1.0378
 6693TIP3    H241715   0.668   4.661   1.723 -1.2112 -0.5945 -0.6614
 6694TIP3   OH241716   4.466   2.072   6.310  0.1433 -0.2173  0.3682
 6694TIP3    H141717   4.512   1.991   6.287  0.8285  0.4991 -0.8798
 6694TIP3    H241718   4.534   2.138   6.315 -0.3795  0.2386  1.6769
 6695TIP3   OH241719   0.547   1.332   6.984  0.0597  0.7174 -0.0099
 6695TIP3    H141720   0.589   1.306   6.902 -0.3297  1.5532 -0.4895
 6695TIP3    H241721   0.584   1.273   7.050  1.4475  0.9558 -0.5364
 6696TIP3   OH241722   0.867   2.163   1.120 -0.1494 -0.7079 -0.1288
 6696TIP3    H141723   0.894   2.114   1.042  0.6501 -0.8866  0.2521
 6696TIP3    H241724   0.807   2.229   1.086  2.6909  1.4386 -1.4719
 6697TIP3   OH241725   3.276   0.590   1.311 -0.7979 -0.2652  0.6926
 6697TIP3    H141726   3.255   0.567   1.401  1.0032 -1.1105  0.9576
 6697TIP3    H241727   3.300   0.683   1.315 -1.3110 -0.1385  0.9541
 6698TIP3   OH241728   5.373   6.535   7.645 -0.2637  0.8062 -0.3705
 6698TIP3    H141729   5.425   6.573   7.574 -0.8669  0.1878 -1.1594
 6698TIP3    H241730   5.429   6.466   7.682 -0.0198  1.0118 -0.3523
 6699TIP3   OH241731   6.728   4.956   8.248  0.1243  0.1405 -0.3155
 6699TIP3    H141732   6.693   5.003   8.324  0.0980  0.4509 -0.5161
 6699TIP3    H241733   6.813   4.997   8.231  1.7630 -2.1517  1.6209
 6700TIP3   OH241734   3.006   2.901   7.320 -0.3542  0.0903  0.9057
 6700TIP3    H141735   3.086   2.929   7.365 -0.8450 -0.0482  1.8769
 6700TIP3    H241736   3.016   2.806   7.310 -0.1394  0.1522  0.4916
 6701TIP3   OH241737   5.070   4.543   7.815 -0.3837  0.2097 -0.0837
 6701TIP3    H141738   5.073   4.578   7.904 -1.3201  0.1429 -0.0215
 6701TIP3    H241739   5.159   4.511   7.799 -0.4946 -0.8292  1.2550
 6702TIP3   OH241740   0.200   6.596   6.327 -0.1931 -0.3200  0.0901
 6702TIP3    H141741   0.272   6.630   6.380 -0.1904  1.4831 -0.9742
 6702TIP3    H241742   0.242   6.541   6.261  0.1524  0.0756 -0.0269
 6703TIP3   OH241743   1.297   4.684   0.354  0.3262 -0.1337 -0.3524
 6703TIP3    H141744   1.286   4.728   0.270  0.9344  1.0399  0.1585
 6703TIP3    H241745   1.305   4.755   0.418  0.1859 -0.9988  0.6574
 6704TIP3   OH241746   5.110   3.735   1.516  0.0136  0.4996 -0.7034
 6704TIP3    H141747   5.142   3.783   1.592  0.6579 -0.3273 -0.4374
 6704TIP3    H241748   5.153   3.776   1.442 -1.1086  1.7359 -0.7187
 6705TIP3   OH241749   0.788   5.979   7.447  0.0633  0.6399 -0.5423
 6705TIP3    H141750   0.768   5.888   7.472  2.6204  0.1013 -0.2336
 6705TIP3    H241751   0.712   6.006   7.395 -0.5972 -1.8051 -1.0039
 6706TIP3   OH241752   3.171   2.252   6.655 -0.2437 -0.3436  0.0073
 6706TIP3    H141753   3.128   2.306   6.589  2.2936  0.4588 -1.0749
 6706TIP3    H241754   3.243   2.305   6.688  0.5603 -1.9743  1.0468
 6707TIP3   OH241755   6.716   5.777   8.541 -0.5559 -0.1744  0.3248
 6707TIP3    H141756   6.787   5.834   8.571 -0.7698 -0.5037  1.5408
 6707TIP3    H241757   6.760   5.703   8.500 -0.2849  1.1324 -1.8942
 6708TIP3   OH241758   0.458   3.639   0.141  0.4441  0.2869  0.2846
 6708TIP3    H141759   0.373   3.615   0.104 -0.8352  1.3053  2.3903
 6708TIP3    H241760   0.493   3.704   0.080 -1.8363  2.3096  0.9737
 6709TIP3   OH241761   2.472   0.298   2.160 -0.2398  0.1239 -0.3403
 6709TIP3    H141762   2.410   0.228   2.182 -0.7546  0.6658 -0.0334
 6709TIP3    H241763   2.558   0.257   2.167 -0.5853 -0.9919 -2.0712
 6710TIP3   OH241764   6.173   2.184   7.814 -1.1718 -0.3214 -0.3179
 6710TIP3    H141765   6.159   2.139   7.898  2.1488  0.3797  0.7454
 6710TIP3    H241766   6.153   2.275   7.832 -0.6103 -0.1958 -0.3054
 6711TIP3   OH241767   4.891   1.598   1.495  0.2090  0.0934  0.1216
 6711TIP3    H141768   4.857   1.685   1.473  1.5521  0.1906 -1.8296
 6711TIP3    H241769   4.967   1.614   1.550 -1.4167 -0.0452  2.5701
 6712TIP3   OH241770   3.108   4.060   7.245  0.3822  0.7008  0.1363
 6712TIP3    H141771   3.024   4.096   7.219 -0.6087 -0.3932  1.6653
 6712TIP3    H241772   3.171   4.128   7.223 -0.3732  0.2659 -4.1723
 6713TIP3   OH241773   1.357   1.056   0.380  0.1259 -0.0061  0.2059
 6713TIP3    H141774   1.362   0.963   0.358  1.6614 -0.1778  1.1634
 6713TIP3    H241775   1.447   1.081   0.402 -0.8071  0.7001  3.9427
 6714TIP3   OH241776   3.416   4.207   1.939 -0.2357 -0.4983  0.1716
 6714TIP3    H141777   3.395   4.188   2.030 -2.0636 -0.0357 -0.1016
 6714TIP3    H241778   3.481   4.141   1.915 -0.5285 -1.3086  1.4921
 6715TIP3   OH241779   5.452   0.318   6.373  0.4067 -0.5987 -0.2949
 6715TIP3    H141780   5.454   0.411   6.349 -0.0331 -0.3026  0.7444
 6715TIP3    H241781   5.372   0.309   6.423 -0.5402 -1.9716 -1.9707
 6716TIP3   OH241782   3.690   4.307   7.212 -0.3180 -0.0359  0.3304
 6716TIP3    H141783   3.611   4.330   7.163  0.9821  1.0092 -1.4111
 6716TIP3    H241784   3.659   4.289   7.301 -2.6721 -1.0944 -0.6142
 6717TIP3   OH241785   5.701   4.316   1.136  0.0429 -0.1348 -0.0086
 6717TIP3    H141786   5.673   4.227   1.160 -0.2447  0.2474  1.1364
 6717TIP3    H241787   5.791   4.322   1.166 -0.5887  0.6361  1.8827
 6718TIP3   OH241788   1.819   3.159   1.608  0.1298  0.3279 -0.4751
 6718TIP3    H141789   1.819   3.223   1.679 -0.4330  0.2928 -0.4434
 6718TIP3    H241790   1.791   3.207   1.531 -1.5388 -0.1421 -0.1988
 6719TIP3   OH241791   1.944   3.589   0.370 -0.0510  0.0536  1.0582
 6719TIP3    H141792   1.869   3.563   0.317 -0.2693  0.7091  1.0391
 6719TIP3    H241793   2.020   3.559   0.320 -0.2800  0.0125  0.7323
 6720TIP3   OH241794   5.178   4.267   0.618 -0.3467 -0.4126  0.1962
 6720TIP3    H141795   5.152   4.191   0.566 -0.6401  0.5816 -1.1506
 6720TIP3    H241796   5.269   4.251   0.641 -0.5273 -1.3641  0.2891
 6721TIP3   OH241797   2.080   6.209   0.406 -0.7362  0.1681 -0.0055
 6721TIP3    H141798   2.020   6.136   0.421 -0.3297 -0.4085 -1.1133
 6721TIP3    H241799   2.137   6.210   0.483 -1.6151  0.2044  0.6629
 6722TIP3   OH241800   0.570   4.837   6.986 -0.4002 -0.4311 -0.1032
 6722TIP3    H141801   0.575   4.777   7.060 -1.7552  1.1759  1.3779
 6722TIP3    H241802   0.647   4.894   6.997 -0.3529 -0.4793 -0.1867
 6723TIP3   OH241803   5.745   1.975   8.023 -0.0588  0.1496  0.0836
 6723TIP3    H141804   5.692   2.048   7.990 -0.3136  0.0695  0.3170
 6723TIP3    H241805   5.797   2.013   8.093 -1.2411 -0.2054  1.1881
 6724TIP3   OH241806   1.270   4.377   1.928 -0.1760 -0.8345  0.1962
 6724TIP3    H141807   1.191   4.326   1.909 -0.2909 -0.1083 -1.4314
 6724TIP3    H241808   1.240   4.466   1.943  0.1661 -0.9290  1.6434
 6725TIP3   OH241809   1.384   4.511   7.945 -0.1491 -0.1968 -0.3631
 6725TIP3    H141810   1.469   4.543   7.974  0.6728 -1.4870 -1.2690
 6725TIP3    H241811   1.326   4.587   7.951  0.7015  0.3595  1.6361
 6726TIP3   OH241812   3.924   1.070   2.230  0.0613 -0.2487 -0.6758
 6726TIP3    H141813   4.009   1.098   2.194  0.8904  0.4544  1.6097
 6726TIP3    H241814   3.877   1.152   2.246 -0.5309 -0.5743 -0.7319
 6727TIP3   OH241815   6.162   2.661   0.763  0.0773  0.3959 -0.5535
 6727TIP3    H141816   6.198   2.590   0.710 -0.1101 -1.7469  1.9930
 6727TIP3    H241817   6.068   2.644   0.766 -0.1521  1.5161 -0.9372
 6728TIP3   OH241818   5.280   3.849   1.699  0.2321  0.0669 -0.2716
 6728TIP3    H141819   5.358   3.874   1.650  0.8061 -1.1457 -0.0078
 6728TIP3    H241820   5.258   3.927   1.750  1.6999  0.2040  0.2014
 6729TIP3   OH241821   4.102   5.860   0.834  0.5394  0.1484  0.1999
 6729TIP3    H141822   4.055   5.784   0.869  2.7881 -0.6266  1.7201
 6729TIP3    H241823   4.194   5.836   0.839  1.3260  2.9632  0.6693
 6730TIP3   OH241824   1.153   6.821   0.830  0.1645 -0.0016 -0.0836
 6730TIP3    H141825   1.095   6.757   0.870 -0.6134  1.0624  0.5435
 6730TIP3    H241826   1.106   6.904   0.837  0.4107  0.3933 -2.3947
 6731TIP3   OH241827   5.492   0.452   7.025 -0.2081 -0.4100  0.4792
 6731TIP3    H141828   5.483   0.420   7.115  1.5988 -4.5640 -0.5798
 6731TIP3    H241829   5.402   0.457   6.992 -0.7756 -1.0263  1.8498
 6732TIP3   OH241830   1.889   0.932   2.300 -0.0338 -0.0270  0.2534
 6732TIP3    H141831   1.946   0.998   2.260 -0.7220 -0.6143 -1.8401
 6732TIP3    H241832   1.812   0.981   2.328  0.1828  0.3042  0.2840
 6733TIP3   OH241833   0.594   6.696   0.998  0.6510 -0.1286  0.1640
 6733TIP3    H141834   0.668   6.753   1.017 -0.8196  2.2315 -0.8178
 6733TIP3    H241835   0.630   6.627   0.943  2.8869 -1.4251  2.9807
 6734TIP3   OH241836   0.831   4.822   2.467  0.0206  0.7352 -0.1892
 6734TIP3    H141837   0.803   4.737   2.501  0.8604  0.6160  0.2261
 6734TIP3    H241838   0.754   4.877   2.475 -0.3137  0.2176  0.2376
 6735TIP3   OH241839   1.433   1.923   7.140  0.0999  0.4031  0.5157
 6735TIP3    H141840   1.485   1.978   7.082  1.7236  1.1995  2.5960
 6735TIP3    H241841   1.371   1.983   7.182 -0.6643 -0.0551  0.0737
 6736TIP3   OH241842   2.220   0.499   8.583 -0.4035 -0.4087 -0.4418
 6736TIP3    H141843   2.126   0.481   8.591 -0.8380  1.9600  0.7597
 6736TIP3    H241844   2.257   0.468   8.665 -0.2884 -0.4891 -0.5240
 6737TIP3   OH241845   4.116   2.235   6.854 -0.4604 -0.2979  0.0925
 6737TIP3    H141846   4.209   2.254   6.844 -0.4832  0.4975  1.1942
 6737TIP3    H241847   4.079   2.251   6.767  0.7189 -2.6703 -0.9521
 6738TIP3   OH241848   0.471   1.754   2.221 -0.7203 -0.0349 -0.1265
 6738TIP3    H141849   0.485   1.848   2.222 -1.5177  0.1161 -1.1908
 6738TIP3    H241850   0.557   1.718   2.199  0.2291  0.2347  2.7434
 6739TIP3   OH241851   0.458   5.314   0.608  0.0735  0.0917 -0.1021
 6739TIP3    H141852   0.528   5.379   0.596  0.6156 -0.1942  1.2552
 6739TIP3    H241853   0.430   5.326   0.699 -1.2804 -0.1783 -0.4611
 6740TIP3   OH241854   0.616   2.855   8.435 -0.6227 -0.0504 -0.2844
 6740TIP3    H141855   0.542   2.900   8.475  0.0764 -0.2157  1.2756
 6740TIP3    H241856   0.588   2.837   8.345 -2.5033 -0.2136  0.2976
 6741TIP3   OH241857   0.646   2.340   2.549 -0.5210 -0.2387 -0.1612
 6741TIP3    H141858   0.616   2.259   2.507  0.0032  0.5830 -2.2034
 6741TIP3    H241859   0.741   2.340   2.535 -0.7206  1.6296 -1.9504
 6742TIP3   OH241860   1.423   6.159   2.096  0.2485  0.1781 -0.5320
 6742TIP3    H141861   1.496   6.199   2.144 -0.7753 -0.2682  1.5133
 6742TIP3    H241862   1.448   6.067   2.086  0.5868  0.3306 -1.1357
 6743TIP3   OH241863   6.182   4.355   2.062 -0.6386 -0.2915  0.6054
 6743TIP3    H141864   6.219   4.366   2.150 -0.0153  1.0871  0.2083
 6743TIP3    H241865   6.125   4.431   2.050  0.4368  0.3616 -0.7150
 6744TIP3   OH241866   3.397   5.414   0.754  0.8548  0.2866 -0.1403
 6744TIP3    H141867   3.351   5.427   0.837 -1.2445 -1.0908 -1.0072
 6744TIP3    H241868   3.377   5.491   0.702 -0.3712 -0.2070 -0.4327
 6745TIP3   OH241869   2.938   6.072   0.036 -0.4776 -0.2034 -0.1835
 6745TIP3    H141870   2.871   6.098   0.100  0.6411  1.9404  0.2164
 6745TIP3    H241871   2.899   6.092  -0.049 -1.2088 -1.1763 -0.0908
 6746TIP3   OH241872   5.904   4.036   6.664 -0.0059 -0.1099 -0.4594
 6746TIP3    H141873   5.907   3.976   6.739  3.1938  0.5378  0.0707
 6746TIP3    H241874   5.955   3.992   6.596  0.9451  1.2363 -0.6523
 6747TIP3   OH241875   6.781   4.312   8.181 -0.5650 -0.3170  0.3200
 6747TIP3    H141876   6.743   4.397   8.204 -0.5092 -0.1296 -0.2685
 6747TIP3    H241877   6.726   4.248   8.226 -1.3048 -0.0260 -0.1459
 6748TIP3   OH241878   1.890   4.054   7.854  0.0234  0.0545 -0.1164
 6748TIP3    H141879   1.945   4.130   7.875 -0.3390  0.4654 -0.6593
 6748TIP3    H241880   1.938   4.009   7.784  0.5429 -0.5648  0.6137
 6749TIP3   OH241881   5.217   0.393   0.698 -0.5123 -0.4516 -0.2658
 6749TIP3    H141882   5.261   0.320   0.741  1.8591 -1.0648 -3.3268
 6749TIP3    H241883   5.260   0.471   0.734 -1.2777 -0.6692  1.1808
 6750TIP3   OH241884   3.931   1.232   8.560 -0.1869 -0.0016  0.4307
 6750TIP3    H141885   4.019   1.237   8.597 -1.5814 -2.2960  4.7448
 6750TIP3    H241886   3.896   1.321   8.571  0.9196  0.4369  0.5462
 6751TIP3   OH241887   1.271   1.935   1.505  0.0009  0.3994 -0.0785
 6751TIP3    H141888   1.278   1.857   1.561 -0.3456  0.5261  0.1500
 6751TIP3    H241889   1.353   1.982   1.519  0.1975  0.0912 -0.1905
 6752TIP3   OH241890   6.747   5.286   6.566 -0.0222  0.0857 -0.1644
 6752TIP3    H141891   6.779   5.350   6.503 -0.3630  0.1260 -0.2967
 6752TIP3    H241892   6.816   5.220   6.569 -0.7247 -0.8048 -1.8762
 6753TIP3   OH241893   3.999   5.048   0.234 -0.3189  0.2419 -0.3279
 6753TIP3    H141894   3.975   4.963   0.269 -0.0485  0.1427 -0.3812
 6753TIP3    H241895   4.051   5.089   0.304 -1.9651  1.1094  0.4462
 6754TIP3   OH241896   6.382   0.016   7.011  0.4451  0.1514 -0.5454
 6754TIP3    H141897   6.311   0.032   6.949 -0.1282 -2.4551 -0.6604
 6754TIP3    H241898   6.407  -0.075   6.995  2.5420  0.4302  0.8058
 6755TIP3   OH241899   0.245   5.096   0.785 -0.1902 -0.5365 -0.0586
 6755TIP3    H141900   0.194   5.144   0.719  0.0693  0.3378  0.3632
 6755TIP3    H241901   0.289   5.164   0.835  0.4595 -1.2392  0.3440
 6756TIP3   OH241902   3.309   0.100   8.582  0.4106  0.6689  0.2469
 6756TIP3    H141903   3.317   0.012   8.544 -0.0130  0.2314  1.1318
 6756TIP3    H241904   3.359   0.095   8.663  1.0811  1.5057 -0.0989
 6757TIP3   OH241905   2.075   1.830   1.434 -0.7526  0.0268 -0.3638
 6757TIP3    H141906   2.000   1.875   1.397  0.3735  1.3532 -1.1241
 6757TIP3    H241907   2.064   1.739   1.407 -2.0556  0.1970 -0.4738
 6758TIP3   OH241908   2.237   2.706   1.099 -0.1734 -0.7085 -0.3071
 6758TIP3    H141909   2.147   2.730   1.079  0.4838  1.4484 -1.0892
 6758TIP3    H241910   2.279   2.790   1.122  1.2321 -1.8814  1.7522
 6759TIP3   OH241911   4.707   1.200   0.972 -0.4686  0.0060 -0.3837
 6759TIP3    H141912   4.772   1.179   1.039 -0.7932 -1.2236 -0.4408
 6759TIP3    H241913   4.623   1.181   1.013 -0.6326 -2.3457 -1.6087
 6760TIP3   OH241914   0.105   5.138   0.098 -0.0369 -0.4090  0.1391
 6760TIP3    H141915   0.193   5.116   0.065 -0.5206  0.6540 -2.0796
 6760TIP3    H241916   0.103   5.234   0.099 -0.8995 -0.4245  0.9712
 6761TIP3   OH241917   5.059   1.645   1.840  0.1682  0.1489  0.3962
 6761TIP3    H141918   4.970   1.625   1.868 -0.3522  0.9742 -0.5865
 6761TIP3    H241919   5.068   1.740   1.853 -0.1320  0.6087 -2.1445
 6762TIP3   OH241920   3.387   5.008   1.020  0.3725  0.1200 -0.0166
 6762TIP3    H141921   3.358   5.098   1.005 -1.8795 -0.4467  0.6131
 6762TIP3    H241922   3.336   4.979   1.096  0.5659 -1.8936 -0.6039
 6763TIP3   OH241923   2.933   3.512   1.505  0.2721  0.0632  0.3919
 6763TIP3    H141924   2.937   3.580   1.572  3.0733  1.1866 -0.7513
 6763TIP3    H241925   3.022   3.477   1.502  0.0487 -0.4703 -2.1972
 6764TIP3   OH241926   0.347   6.156   6.351 -0.2556 -0.6719 -0.5751
 6764TIP3    H141927   0.402   6.169   6.428 -1.2756 -1.1113  0.2553
 6764TIP3    H241928   0.278   6.096   6.381 -1.0599 -0.3093 -1.6328
 6765TIP3   OH241929   2.106   4.258   0.629 -0.2135  0.0191  0.0302
 6765TIP3    H141930   2.196   4.267   0.661 -0.7978 -1.9384  2.5199
 6765TIP3    H241931   2.110   4.187   0.565  0.2394  1.0671 -1.1471
 6766TIP3   OH241932   5.125   4.678   1.242  0.2801 -0.5789  0.3701
 6766TIP3    H141933   5.166   4.716   1.320 -1.9776  0.8065  0.9671
 6766TIP3    H241934   5.182   4.703   1.170  0.9560  0.5237  1.2622
 6767TIP3   OH241935   1.160   1.000   0.600  0.2707  0.1830 -0.6121
 6767TIP3    H141936   1.206   1.017   0.518 -0.5352 -0.3301 -1.1953
 6767TIP3    H241937   1.108   1.079   0.616  0.8958  0.5264 -0.2674
 6768TIP3   OH241938   0.039   0.910   1.203 -0.2847  0.0640  0.4198
 6768TIP3    H141939  -0.010   0.992   1.214 -0.1813  0.1364  0.3483
 6768TIP3    H241940   0.107   0.914   1.271  1.0434  1.0237 -0.8822
 6769TIP3   OH241941   3.731   0.287   6.238  0.1549  0.0643 -0.0588
 6769TIP3    H141942   3.782   0.367   6.240 -0.3344  0.3998 -0.7281
 6769TIP3    H241943   3.650   0.309   6.284  0.3561 -0.2984  0.4918
 6770TIP3   OH241944   6.062   1.199   0.960  0.0016  0.3988  0.2931
 6770TIP3    H141945   6.045   1.154   1.043  1.4254  0.4664  0.6400
 6770TIP3    H241946   5.982   1.248   0.943 -0.6299 -0.2753  1.1924
 6771TIP3   OH241947   3.569   0.534   1.226  0.5936 -1.1796 -0.7411
 6771TIP3    H141948   3.596   0.443   1.239 -0.5919 -1.4333  0.0797
 6771TIP3    H241949   3.482   0.539   1.266  0.6384  0.3100 -0.7881
 6772TIP3   OH241950   6.248   6.079   0.736  0.8349 -0.5742 -0.7182
 6772TIP3    H141951   6.262   6.111   0.825 -0.1232 -0.0603 -0.7310
 6772TIP3    H241952   6.312   6.010   0.725  0.2140 -1.4540  0.8077
 6773TIP3   OH241953   1.545   4.319   2.235  0.3819  0.2210  0.1968
 6773TIP3    H141954   1.636   4.303   2.261 -0.5357 -1.6032  2.7241
 6773TIP3    H241955   1.541   4.294   2.143  2.2557 -0.4821  0.2629
 6774TIP3   OH241956   5.823   3.978   2.449  0.1514 -0.6349  0.1297
 6774TIP3    H141957   5.911   3.941   2.448  0.8593  0.9824 -0.5658
 6774TIP3    H241958   5.770   3.917   2.397  0.9022 -1.4706  0.3175
 6775TIP3   OH241959   5.336   0.972   7.926  0.1018  0.1857  0.5980
 6775TIP3    H141960   5.421   1.015   7.932  0.1249  0.5744 -1.7000
 6775TIP3    H241961   5.272   1.043   7.927 -0.0445  0.0701 -0.1556
 6776TIP3   OH241962   2.425   0.795   0.878 -0.5557 -0.6082 -0.2868
 6776TIP3    H141963   2.349   0.781   0.934 -0.4074 -0.9196 -0.1607
 6776TIP3    H241964   2.473   0.712   0.881 -0.7639 -0.7771 -1.2062
 6777TIP3   OH241965   0.002   2.623   8.627  0.2306  0.3220  0.3245
 6777TIP3    H141966   0.051   2.675   8.692 -0.8360  0.5569  0.9632
 6777TIP3    H241967  -0.028   2.546   8.676 -0.7881  0.6175  0.1934
 6778TIP3   OH241968   6.274   4.520   8.537 -0.1095  0.2041  0.1377
 6778TIP3    H141969   6.254   4.542   8.446  1.3741  1.8973  0.1395
 6778TIP3    H241970   6.209   4.567   8.588  0.7979  1.6936 -0.0034
 6779TIP3   OH241971   3.778   0.167   7.356  0.2900  0.0136 -0.6287
 6779TIP3    H141972   3.870   0.183   7.337  0.6530 -0.2419  0.7846
 6779TIP3    H241973   3.756   0.230   7.425 -0.8227  0.6058 -1.4841
 6780TIP3   OH241974   5.645   4.079   6.575 -0.7807 -0.2674  0.6291
 6780TIP3    H141975   5.736   4.050   6.584  0.0967  2.1128  0.3406
 6780TIP3    H241976   5.640   4.159   6.627 -2.6830 -0.2422  0.4914
 6781TIP3   OH241977   2.745   5.629   7.559 -0.1170 -0.4188  0.2609
 6781TIP3    H141978   2.800   5.683   7.502  0.0627 -2.3959 -1.5536
 6781TIP3    H241979   2.804   5.560   7.590 -0.7860 -0.6757  1.0002
 6782TIP3   OH241980   1.245   6.625   1.773  0.1752  0.1795  0.5687
 6782TIP3    H141981   1.150   6.620   1.783 -0.0031  0.5283 -0.7255
 6782TIP3    H241982   1.265   6.719   1.777 -0.0498  0.4904 -2.8319
 6783TIP3   OH241983   0.305   0.675   1.136 -0.5544 -0.5772 -0.1936
 6783TIP3    H141984   0.305   0.771   1.135 -0.0246 -0.3489  3.9997
 6783TIP3    H241985   0.393   0.651   1.108  0.0374  0.3272  0.7968
 6784TIP3   OH241986   0.245   3.298   8.109 -0.1237  0.2133  0.0490
 6784TIP3    H141987   0.316   3.361   8.117  1.5164 -1.5872  0.4793
 6784TIP3    H241988   0.184   3.321   8.178 -0.1576  2.0010 -0.5293
 6785TIP3   OH241989   3.347   1.627   0.339  1.1017  0.1708  0.8119
 6785TIP3    H141990   3.364   1.555   0.399 -0.1179 -0.0826  0.8753
 6785TIP3    H241991   3.302   1.586   0.265 -0.0694  0.9376  1.0836
 6786TIP3   OH241992   6.830   5.889   6.836  0.0825  0.1372  0.1310
 6786TIP3    H141993   6.906   5.943   6.855 -0.2953  1.1702 -1.1118
 6786TIP3    H241994   6.807   5.849   6.920  1.2643  0.7529  0.7732
 6787TIP3   OH241995   1.210   2.825   7.067  0.0499  0.1874 -0.1393
 6787TIP3    H141996   1.201   2.785   7.154 -0.4466 -0.2986 -0.4046
 6787TIP3    H241997   1.220   2.751   7.008 -0.6088  0.4640 -0.6097
 6788TIP3   OH241998   2.539   1.773   1.121 -0.5777  0.1149  0.1605
 6788TIP3    H141999   2.483   1.780   1.198 -0.7609 -0.8715  0.1231
 6788TIP3    H242000   2.479   1.788   1.047 -0.6262 -0.0823  0.1596
 6789TIP3   OH242001   4.093   4.120   7.907 -0.2490 -0.2063  0.3784
 6789TIP3    H142002   4.016   4.112   7.850 -0.4891  0.0908  0.6612
 6789TIP3    H242003   4.058   4.146   7.992  0.2251  0.5846  0.3359
 6790TIP3   OH242004   1.846   5.750   8.516  0.3051  0.4115  0.3065
 6790TIP3    H142005   1.915   5.786   8.460 -0.3230  0.6184 -0.3540
 6790TIP3    H242006   1.862   5.655   8.517 -0.0588  0.3273 -0.7706
 6791TIP3   OH242007   0.336   4.479   1.578  0.5306  0.1464 -0.7552
 6791TIP3    H142008   0.306   4.537   1.648  0.1389 -1.4202  0.4249
 6791TIP3    H242009   0.393   4.534   1.524 -0.4409  1.8236 -0.1474
 6792TIP3   OH242010   4.510   1.910   1.508  0.0140 -0.1574 -0.4970
 6792TIP3    H142011   4.521   1.815   1.512 -1.1001 -0.2718  0.3941
 6792TIP3    H242012   4.514   1.938   1.599  4.8056  1.2893 -0.8565
 6793TIP3   OH242013   1.421   6.640   6.970 -0.4552  0.0551  0.3933
 6793TIP3    H142014   1.381   6.571   6.916 -0.6358  0.7747 -0.4161
 6793TIP3    H242015   1.423   6.717   6.913  1.1569  0.3134  0.7664
 6794TIP3   OH242016   5.649   3.409   2.499 -0.1077 -0.2418  0.0192
 6794TIP3    H142017   5.580   3.349   2.530  1.4873 -1.3809  1.5913
 6794TIP3    H242018   5.725   3.386   2.552  1.0483  2.0836 -0.5429
 6795TIP3   OH242019   0.444   1.845   7.556  0.4413 -0.3796 -0.1038
 6795TIP3    H142020   0.491   1.810   7.631 -2.5602 -2.0283  1.1946
 6795TIP3    H242021   0.362   1.878   7.592 -2.4284 -3.7565 -2.7459
 6796TIP3   OH242022   1.553   5.013   8.528 -0.2132  0.2782 -0.0481
 6796TIP3    H142023   1.607   5.018   8.607  0.7042 -0.7366 -0.5957
 6796TIP3    H242024   1.488   5.083   8.539 -1.8051 -1.4752  2.8302
 6797TIP3   OH242025   3.290   1.956   7.690 -0.7343  0.1508  0.2182
 6797TIP3    H142026   3.241   1.885   7.731  0.3199 -1.2920 -0.9484
 6797TIP3    H242027   3.369   1.915   7.657 -1.0077  1.4420 -2.2747
 6798TIP3   OH242028   6.810   0.164   0.359 -0.5033 -0.1043  0.6296
 6798TIP3    H142029   6.761   0.126   0.286  0.5298 -0.8120  0.2722
 6798TIP3    H242030   6.852   0.242   0.322 -1.2609  0.4416  0.9066
 6799TIP3   OH242031   5.611   6.423   8.345  0.3868  0.8170 -0.0977
 6799TIP3    H142032   5.529   6.378   8.324  0.5259  0.1538  0.7071
 6799TIP3    H242033   5.624   6.406   8.438  1.0116  1.6289 -0.0254
 6800TIP3   OH242034   1.815   0.135   8.597  0.3065 -0.1618 -0.0406
 6800TIP3    H142035   1.816   0.213   8.652 -1.5381 -0.9802  1.2591
 6800TIP3    H242036   1.905   0.104   8.597  0.3951 -0.1506  2.6402
 6801TIP3   OH242037   0.678   1.289   0.226 -0.6837  0.3109 -0.4808
 6801TIP3    H142038   0.618   1.329   0.288 -1.5371 -0.9621 -0.4360
 6801TIP3    H242039   0.655   1.196   0.228  1.6387 -0.3129 -0.0840
 6802TIP3   OH242040   1.468   1.923   0.530  0.4558 -0.1799  0.3101
 6802TIP3    H142041   1.559   1.946   0.550  0.5196 -0.5420  0.4402
 6802TIP3    H242042   1.416   1.984   0.582  0.6091 -1.4867  2.0923
 6803TIP3   OH242043   3.799   0.463   0.685  0.1119 -0.7937 -0.3372
 6803TIP3    H142044   3.730   0.520   0.720  0.3482  0.7351 -2.1842
 6803TIP3    H242045   3.833   0.417   0.762 -0.4723  1.1629  1.1874
 6804TIP3   OH242046   5.753   4.294   2.000 -0.6078  0.0092  0.0378
 6804TIP3    H142047   5.741   4.357   2.072  1.0149  0.1026  0.2776
 6804TIP3    H242048   5.844   4.265   2.009 -0.3369  0.0587 -2.0138
 6805TIP3   OH242049   1.791   3.189   8.306  0.2551 -0.0061 -0.2934
 6805TIP3    H142050   1.769   3.206   8.214  0.3742 -0.5279 -0.4162
 6805TIP3    H242051   1.878   3.227   8.317  0.0776  0.4155 -0.2854
 6806TIP3   OH242052   6.547   5.074   0.807 -0.0716  0.4279 -0.2077
 6806TIP3    H142053   6.588   5.153   0.843  2.9347 -1.7036  1.5613
 6806TIP3    H242054   6.597   5.055   0.728  0.3097 -0.5333  0.2533
 6807TIP3   OH242055   3.831   4.603   0.048 -0.0827 -0.2851 -0.4396
 6807TIP3    H142056   3.891   4.640  -0.017  0.8365  0.5709  0.8337
 6807TIP3    H242057   3.886   4.544   0.100 -0.0095  1.2671  1.3851
 6808TIP3   OH242058   2.349   0.874   1.392 -0.6105  0.5057 -0.3582
 6808TIP3    H142059   2.440   0.900   1.374 -0.9585  2.2624  0.2088
 6808TIP3    H242060   2.346   0.862   1.487 -0.4100 -2.0552 -0.6031
 6809TIP3   OH242061   5.849   0.716   8.164  0.2066 -0.6035 -0.2502
 6809TIP3    H142062   5.936   0.715   8.125 -0.2044 -3.6529 -1.3860
 6809TIP3    H242063   5.860   0.764   8.246  2.7224 -0.1325 -0.7839
 6810TIP3   OH242064   0.825   6.253   1.245 -0.7876 -0.1331 -0.3552
 6810TIP3    H142065   0.739   6.274   1.208 -0.8598 -0.4081 -0.3439
 6810TIP3    H242066   0.838   6.319   1.314 -0.9882 -0.0923 -0.3563
 6811TIP3   OH242067   5.626   4.515   1.323 -0.2723  0.6346  0.4818
 6811TIP3    H142068   5.666   4.577   1.262 -1.7849  0.9236 -0.2555
 6811TIP3    H242069   5.651   4.429   1.290 -0.6892  0.8007 -0.2885
 6812TIP3   OH242070   5.116   3.953   0.910  0.7213 -1.3634  0.3842
 6812TIP3    H142071   5.080   3.879   0.959 -1.1962 -1.1729 -0.6467
 6812TIP3    H242072   5.040   4.008   0.891  1.8262 -0.1040 -0.5255
 6813TIP3   OH242073   3.673   0.916   7.905  0.0855  0.5225  0.1141
 6813TIP3    H142074   3.595   0.970   7.889 -1.2523 -1.2719  0.1697
 6813TIP3    H242075   3.739   0.950   7.844  0.1185  3.6372  1.6969
 6814TIP3   OH242076   0.924   0.395   1.455  0.3916 -0.0729 -0.0771
 6814TIP3    H142077   0.942   0.428   1.543  1.8749  0.5542 -0.5810
 6814TIP3    H242078   1.009   0.368   1.421 -0.2935 -1.1894 -0.9829
 6815TIP3   OH242079   4.225   2.656   1.430 -0.1341 -0.2618 -0.0974
 6815TIP3    H142080   4.309   2.666   1.385 -0.1382  0.0618 -0.0391
 6815TIP3    H242081   4.248   2.653   1.523 -0.0318 -1.9635 -0.1449
 6816TIP3   OH242082   3.140   3.068   0.539  0.1930  0.5952  0.1967
 6816TIP3    H142083   3.163   3.137   0.601  1.0920  2.5061 -2.1176
 6816TIP3    H242084   3.044   3.066   0.540  0.1792  0.0779  2.0825
 6817TIP3   OH242085   3.092   6.852   8.323  0.0243 -0.0199 -0.0351
 6817TIP3    H142086   3.159   6.892   8.266 -0.5272  0.6518 -0.2286
 6817TIP3    H242087   3.137   6.838   8.406  0.1141  1.4973  0.2083
 6818TIP3   OH242088   5.100   6.069   8.550  0.2834 -0.0365 -0.4532
 6818TIP3    H142089   5.076   5.978   8.566  1.2756 -0.5140 -1.4906
 6818TIP3    H242090   5.186   6.063   8.509  1.2010  1.4638  1.1287
 6819TIP3   OH242091   5.439   0.459   8.419 -0.4985 -0.2845 -0.7440
 6819TIP3    H142092   5.426   0.466   8.325 -2.5602  2.1074 -0.3946
 6819TIP3    H242093   5.397   0.538   8.455  0.5479 -0.9096  2.1481
 6820TIP3   OH242094   2.155   4.649   0.638  0.4332  0.1118 -0.3224
 6820TIP3    H142095   2.130   4.729   0.591 -0.3529 -0.6410 -1.2546
 6820TIP3    H242096   2.248   4.660   0.658  0.2007  1.4833  0.0485
 6821TIP3   OH242097   0.053   1.296   8.218  0.9733 -0.2564  0.1428
 6821TIP3    H142098   0.080   1.385   8.236 -2.8824  0.6605  2.5626
 6821TIP3    H242099  -0.042   1.302   8.204  0.7200 -3.8393 -0.6370
 6822TIP3   OH242100   3.341   4.915   6.800 -0.3494 -0.2510  0.6021
 6822TIP3    H142101   3.295   4.946   6.722 -2.3096 -2.0899  0.9443
 6822TIP3    H242102   3.345   4.992   6.857 -2.3178  0.1994  0.2083
 6823TIP3   OH242103   5.735   2.372   7.572  0.0400  0.3341  0.3456
 6823TIP3    H142104   5.822   2.405   7.592  0.6023 -1.6045  1.3857
 6823TIP3    H242105   5.750   2.285   7.534 -1.3947  0.3707 -0.3740
 6824TIP3   OH242106   0.021   2.598   1.694 -0.0214  0.2413 -0.5764
 6824TIP3    H142107   0.023   2.539   1.769  0.1140 -0.4904 -1.1458
 6824TIP3    H242108  -0.069   2.631   1.692 -0.0700  0.1377 -0.1988
 6825TIP3   OH242109   5.835   5.696   8.481  0.5869 -0.3664  0.1615
 6825TIP3    H142110   5.824   5.617   8.427 -1.9558 -0.6709  1.0192
 6825TIP3    H242111   5.852   5.663   8.569  0.8303  0.0709  0.2802
 6826TIP3   OH242112   3.473   1.834   1.305 -0.5373 -0.5169 -0.1505
 6826TIP3    H142113   3.514   1.748   1.312 -1.1477 -0.7440  0.7915
 6826TIP3    H242114   3.457   1.860   1.395  0.2176  0.8854 -0.3842
 6827TIP3   OH242115   6.139   0.816   6.714  0.3754 -0.0749 -0.1731
 6827TIP3    H142116   6.163   0.724   6.714 -1.7710 -0.6885  0.4800
 6827TIP3    H242117   6.101   0.831   6.627  0.9163  0.2701 -0.3578
 6828TIP3   OH242118   0.320   6.843   6.954 -0.0155  0.0722  0.5300
 6828TIP3    H142119   0.351   6.891   6.877 -0.2256  0.4841  0.6965
 6828TIP3    H242120   0.226   6.830   6.938 -0.1862  0.6953  0.9877
 6829TIP3   OH242121   6.111   3.025   0.701 -0.2526  0.1013  0.0590
 6829TIP3    H142122   6.187   2.989   0.748 -1.4587 -0.0013  2.0268
 6829TIP3    H242123   6.066   2.948   0.666 -1.1302 -0.1339  1.6075
 6830TIP3   OH242124   3.466   4.726   1.578  0.3116 -0.1428  0.0376
 6830TIP3    H142125   3.473   4.631   1.588  2.1311 -0.0546 -0.1012
 6830TIP3    H242126   3.427   4.738   1.491 -0.0814 -0.7558  0.1269
 6831TIP3   OH242127   0.316   5.497   7.547 -0.5941 -0.4833 -0.7993
 6831TIP3    H142128   0.311   5.410   7.507  0.9940 -0.5474 -0.9190
 6831TIP3    H242129   0.369   5.485   7.626 -0.4086  0.3560 -0.7816
 6832TIP3   OH242130   1.618   3.765   8.342 -0.6863 -0.0101  0.2631
 6832TIP3    H142131   1.575   3.835   8.391 -0.6722  0.9012 -0.9630
 6832TIP3    H242132   1.660   3.810   8.269  0.3401 -1.1717  0.1036
 6833TIP3   OH242133   0.424   6.313   7.414 -0.1166  0.8526 -0.5341
 6833TIP3    H142134   0.329   6.320   7.419 -0.1816  0.7080 -1.3626
 6833TIP3    H242135   0.456   6.392   7.458 -0.6849  2.3329 -2.6081
 6834TIP3   OH242136   1.501   1.382   0.941  0.3843  0.1126  0.2372
 6834TIP3    H142137   1.556   1.414   1.013  0.4643  0.2596  0.1117
 6834TIP3    H242138   1.501   1.287   0.951  1.0495  0.0787 -0.0453
 6835TIP3   OH242139   5.277   3.575   6.799  0.5331  0.2250 -0.5874
 6835TIP3    H142140   5.257   3.481   6.803  0.1105  0.3718  1.0608
 6835TIP3    H242141   5.246   3.602   6.712 -1.7613 -0.6363 -0.1144
 6836TIP3   OH242142   3.344   3.696   7.072 -0.1122 -0.2193  0.1930
 6836TIP3    H142143   3.392   3.778   7.060  0.1558 -0.3365  0.4546
 6836TIP3    H242144   3.325   3.666   6.983  0.0140 -0.0062  0.0938
 6837TIP3   OH242145   5.604   0.293   8.209 -0.1156 -0.4874  0.6102
 6837TIP3    H142146   5.598   0.280   8.304 -0.1251 -0.9750  0.5434
 6837TIP3    H242147   5.634   0.209   8.175  0.5155 -0.1260  0.2446
 6838TIP3   OH242148   0.431   6.557   7.580  1.0458 -0.4520  0.1759
 6838TIP3    H142149   0.490   6.572   7.654  1.1623 -0.6426  0.1227
 6838TIP3    H242150   0.454   6.625   7.517 -0.4139  0.9813  1.1242
 6839TIP3   OH242151   3.431   2.395   6.749 -0.0603  0.0888 -0.3051
 6839TIP3    H142152   3.500   2.329   6.740  0.5029  0.7456 -0.8857
 6839TIP3    H242153   3.424   2.411   6.844  0.1144 -0.4608 -0.1985
 6840TIP3   OH242154   3.574   2.849   8.602  0.0625  0.4616  0.7826
 6840TIP3    H142155   3.521   2.914   8.557 -1.2346 -0.5604  0.7595
 6840TIP3    H242156   3.586   2.884   8.690 -0.4727  0.8295  0.7147
 6841TIP3   OH242157   3.566   0.020   6.827 -0.3974  0.4166 -0.5204
 6841TIP3    H142158   3.661   0.033   6.826  0.0116 -2.0714  0.0068
 6841TIP3    H242159   3.550  -0.045   6.759 -1.6607  0.3251 -0.1563
 6842TIP3   OH242160   1.246   2.118   8.076 -0.1599  0.0834 -0.4577
 6842TIP3    H142161   1.300   2.194   8.098 -1.5808  0.8874  0.3549
 6842TIP3    H242162   1.221   2.131   7.985 -0.2178  0.4702 -0.3848
 6843TIP3   OH242163   3.659   4.882   8.173 -0.3979  0.3765  0.3530
 6843TIP3    H142164   3.680   4.810   8.232  1.9443  1.3120  0.7968
 6843TIP3    H242165   3.632   4.839   8.092  1.6151 -1.0777  0.3624
 6844TIP3   OH242166   4.009   6.153   1.346  0.2011 -0.3856 -0.0495
 6844TIP3    H142167   4.052   6.073   1.376  0.1601 -1.3310 -2.3516
 6844TIP3    H242168   4.006   6.145   1.251  0.8042  2.6598 -0.4383
 6845TIP3   OH242169   0.661   0.098   7.436  0.0145 -0.0476  0.0536
 6845TIP3    H142170   0.686   0.114   7.345  2.9702 -2.1209  0.3685
 6845TIP3    H242171   0.586   0.039   7.429 -0.9653  1.2366 -0.9703
 6846TIP3   OH242172   2.887   3.278   2.116  0.1604 -0.7784 -0.2776
 6846TIP3    H142173   2.841   3.347   2.070 -0.4170 -0.0282  1.3519
 6846TIP3    H242174   2.974   3.276   2.076 -0.6884 -1.0530 -2.2315
 6847TIP3   OH242175   2.019   0.755   2.775  0.2939  0.7755 -0.6804
 6847TIP3    H142176   2.003   0.810   2.851  1.3752  2.4027 -1.5812
 6847TIP3    H242177   1.931   0.735   2.741 -0.3037 -1.2493  1.7718
 6848TIP3   OH242178   3.357   3.800   1.293  0.0283 -0.3620 -0.8665
 6848TIP3    H142179   3.362   3.708   1.322 -1.2629 -0.0567  0.4127
 6848TIP3    H242180   3.358   3.795   1.198 -0.8238 -1.7786 -0.8304
 6849TIP3   OH242181   3.292   0.668   0.070 -0.8130  0.4248  0.1133
 6849TIP3    H142182   3.281   0.721   0.150 -1.7755  0.1259  0.1974
 6849TIP3    H242183   3.355   0.600   0.095  0.6937  1.6959 -0.0951
 6850TIP3   OH242184   0.238   5.219   7.909 -0.8106 -0.0358  0.3835
 6850TIP3    H142185   0.288   5.156   7.857  0.1553 -0.1335  1.4045
 6850TIP3    H242186   0.304   5.278   7.945 -1.6371  1.1606  0.0134
 6851TIP3   OH242187   6.844   1.660   2.137  0.2398 -0.0268 -0.7788
 6851TIP3    H142188   6.875   1.738   2.185 -0.5337 -1.0928  1.6183
 6851TIP3    H242189   6.777   1.622   2.194 -0.0561 -1.9574 -2.3107
 6852TIP3   OH242190   5.775   5.080   0.094  0.2173  0.2636  0.4599
 6852TIP3    H142191   5.703   5.134   0.061 -0.6174 -1.3369 -0.4467
 6852TIP3    H242192   5.758   5.073   0.188  0.3380  1.5419  0.5935
 6853TIP3   OH242193   4.702   0.200   0.637  0.3761 -0.0230  0.5256
 6853TIP3    H142194   4.689   0.135   0.706 -2.4105  1.2882  1.4036
 6853TIP3    H242195   4.792   0.231   0.650  1.1095 -2.2639  1.2794
 6854TIP3   OH242196   3.518   0.293   8.307  0.0287  0.0947  0.3948
 6854TIP3    H142197   3.601   0.278   8.351  1.0466 -0.0965 -1.4746
 6854TIP3    H242198   3.541   0.297   8.214 -1.9490  0.8468 -0.1058
 6855TIP3   OH242199   5.178   0.268   0.344 -0.1969 -0.4446 -0.4597
 6855TIP3    H142200   5.087   0.248   0.366  0.0355  0.0821  1.0968
 6855TIP3    H242201   5.220   0.183   0.332 -0.2640 -0.8098  1.6173
 6856TIP3   OH242202   6.077   0.915   1.406 -0.2467 -0.0358 -0.0447
 6856TIP3    H142203   6.165   0.911   1.368  0.3044  0.5791  1.1117
 6856TIP3    H242204   6.088   0.883   1.496 -1.6217 -2.0156 -0.5136
 6857TIP3   OH242205   0.672   0.237   7.168 -0.3567 -0.3235  0.4175
 6857TIP3    H142206   0.602   0.293   7.135  2.5069  3.0645 -0.5216
 6857TIP3    H242207   0.710   0.198   7.090  0.5566  0.1483  0.6197
 6858TIP3   OH242208   3.717   5.550   1.580  0.2733 -0.5627 -0.3363
 6858TIP3    H142209   3.777   5.585   1.646 -0.8012  1.6304 -0.4156
 6858TIP3    H242210   3.662   5.488   1.629 -0.0742  0.5248  0.7091
 6859TIP3   OH242211   5.459   4.220   0.654 -0.4210 -0.5767  0.0699
 6859TIP3    H142212   5.533   4.202   0.711 -1.5232 -2.1738  1.0766
 6859TIP3    H242213   5.496   4.269   0.581  1.3435 -0.0265  1.2681
 6860TIP3   OH242214   1.911   6.632   7.948 -0.2873  0.0909 -0.8766
 6860TIP3    H142215   1.957   6.557   7.985 -0.9807  0.4617  0.8669
 6860TIP3    H242216   1.975   6.675   7.892  1.1336 -0.0788  0.5426
 6861TIP3   OH242217   4.463   5.025   8.449  0.0831 -0.1669  0.2564
 6861TIP3    H142218   4.510   5.041   8.367 -0.5023  0.4735  0.0362
 6861TIP3    H242219   4.446   5.112   8.484 -0.1743 -0.4192  0.7697
 6862TIP3   OH242220   3.261   5.028   6.570  0.4030  0.2751 -0.3474
 6862TIP3    H142221   3.225   4.978   6.497 -0.5719  1.0222 -0.3872
 6862TIP3    H242222   3.216   5.112   6.567  0.6827  0.4904  0.8359
 6863TIP3   OH242223   0.068   2.050   0.254 -0.4767  0.3990  0.2710
 6863TIP3    H142224  -0.020   2.083   0.237 -1.6914 -1.4435  2.5152
 6863TIP3    H242225   0.062   2.004   0.337  2.2645 -1.1341 -0.2365
 6864TIP3   OH242226   1.516   3.728   0.086 -0.2859 -0.0756 -0.2753
 6864TIP3    H142227   1.476   3.726   0.173 -0.3228 -1.9329 -0.2983
 6864TIP3    H242228   1.455   3.778   0.032 -1.1005 -0.3527  0.3789
 6865TIP3   OH242229   0.596   2.828   0.764 -0.3458  0.1205  0.6591
 6865TIP3    H142230   0.641   2.885   0.827 -0.8557  0.1240  1.0228
 6865TIP3    H242231   0.531   2.781   0.817 -0.2025 -0.4997  0.2876
 6866TIP3   OH242232   4.108   1.702   7.162 -0.1470 -0.2958 -0.0805
 6866TIP3    H142233   4.034   1.642   7.168  1.3098 -2.0696  2.4118
 6866TIP3    H242234   4.082   1.777   7.215  0.0199 -1.2604  1.4612
 6867TIP3   OH242235   2.000   6.535   2.046  0.3149 -0.1784 -0.5080
 6867TIP3    H142236   2.007   6.569   2.135  0.1898 -0.6196 -0.3234
 6867TIP3    H242237   1.931   6.587   2.006  0.8178  0.4611 -0.5593
 6868TIP3   OH242238   3.328   3.752   1.578 -0.6754 -0.2475 -0.1296
 6868TIP3    H142239   3.302   3.774   1.489  2.7622  1.3340 -0.9355
 6868TIP3    H242240   3.324   3.835   1.625  0.0078 -0.5496  0.4799
 6869TIP3   OH242241   1.060   5.968   7.888 -0.4859  0.0948 -0.2369
 6869TIP3    H142242   0.984   5.992   7.836  0.1847 -1.5556 -2.0859
 6869TIP3    H242243   1.134   6.011   7.845  0.0568 -1.1309 -0.5652
 6870TIP3   OH242244   6.806   4.273   1.760  0.3841 -0.4411  0.0906
 6870TIP3    H142245   6.766   4.245   1.678  0.7536  1.9859 -1.0004
 6870TIP3    H242246   6.893   4.233   1.758  0.3336 -0.5328 -0.6180
 6871TIP3   OH242247   1.886   1.080   6.953  0.3649  0.4399 -0.9337
 6871TIP3    H142248   1.885   1.149   7.019  0.4182  1.3717 -1.8754
 6871TIP3    H242249   1.829   1.114   6.883  0.2784 -0.5350 -1.3447
 6872TIP3   OH242250   3.439   2.025   0.156 -0.1544  0.1310  0.8429
 6872TIP3    H142251   3.462   2.093   0.219 -2.1992 -0.3220  2.1717
 6872TIP3    H242252   3.371   2.063   0.102  2.1459  0.8197 -1.8246
 6873TIP3   OH242253   2.144   6.403   6.543 -0.7436 -0.2113 -0.7732
 6873TIP3    H142254   2.192   6.477   6.504 -0.0005  0.2318  0.8990
 6873TIP3    H242255   2.212   6.338   6.562 -1.0428 -0.2982  0.0184
 6874TIP3   OH242256   3.479   5.864   8.514  0.3344 -0.0475 -0.0485
 6874TIP3    H142257   3.520   5.904   8.438  0.2123  0.0504 -0.0629
 6874TIP3    H242258   3.423   5.795   8.478 -0.2095  0.4135 -0.0927
 6875TIP3   OH242259   6.494   3.524   1.109  0.2919 -0.4208 -0.1586
 6875TIP3    H142260   6.518   3.491   1.023  1.7931  1.0611 -0.3598
 6875TIP3    H242261   6.405   3.557   1.099  0.3479 -0.5386 -1.0655
 6876TIP3   OH242262   3.945   4.805   0.396  0.1424 -0.3918 -0.4172
 6876TIP3    H142263   3.856   4.783   0.424 -0.0753  0.3896 -0.4947
 6876TIP3    H242264   3.998   4.796   0.476  0.3696 -2.7396 -0.7513
 6877TIP3   OH242265   6.766   0.699   6.915  0.3445  0.3630 -0.0531
 6877TIP3    H142266   6.745   0.793   6.915 -0.6315  0.1957  2.3177
 6877TIP3    H242267   6.768   0.676   6.822 -0.6175  2.4700 -0.6719
 6878TIP3   OH242268   3.009   3.712   8.332  0.3413 -0.3535  0.2964
 6878TIP3    H142269   3.063   3.643   8.293  2.4999  0.8501  0.9948
 6878TIP3    H242270   2.986   3.678   8.418 -1.9390 -1.7738 -0.7869
 6879TIP3   OH242271   2.003   4.526   2.552 -0.0844  0.3170  0.2178
 6879TIP3    H142272   1.954   4.489   2.626  0.9330 -1.7786 -0.0795
 6879TIP3    H242273   1.938   4.534   2.482 -0.5901  0.2059  0.6704
 6880TIP3   OH242274   2.343   2.468   0.495  0.5445  0.4105 -0.4090
 6880TIP3    H142275   2.402   2.468   0.570 -0.1260 -1.3106  0.1543
 6880TIP3    H242276   2.399   2.489   0.420  1.6023  0.1460  0.2978
 6881TIP3   OH242277   1.526   5.474   7.342  0.0768  0.2351  0.1428
 6881TIP3    H142278   1.585   5.465   7.267 -1.1282  0.2647 -0.8258
 6881TIP3    H242279   1.557   5.553   7.386  0.2042  0.7667 -0.8710
 6882TIP3   OH242280   0.899   3.345   2.041  0.4384 -0.4736 -0.4035
 6882TIP3    H142281   0.908   3.405   2.115  0.8275  0.4077 -1.1497
 6882TIP3    H242282   0.813   3.367   2.003 -0.6545 -2.2331  0.8932
 6883TIP3   OH242283   6.827   5.914   1.555 -0.0422 -0.2994  0.2805
 6883TIP3    H142284   6.748   5.930   1.503  0.1898  0.6781  0.2226
 6883TIP3    H242285   6.895   5.896   1.491  0.0557  0.0844  0.2735
 6884TIP3   OH242286   2.714   2.214   1.444 -0.1527 -0.0939 -0.1718
 6884TIP3    H142287   2.655   2.260   1.385  0.8456  0.5057 -0.7289
 6884TIP3    H242288   2.664   2.203   1.525 -0.8666  0.7723 -0.4858
 6885TIP3   OH242289   0.265   6.319   8.507 -0.3371  0.2559  0.2669
 6885TIP3    H142290   0.264   6.350   8.417 -1.3765  0.1870  0.2416
 6885TIP3    H242291   0.205   6.377   8.553  1.2574  1.1864  1.2463
 6886TIP3   OH242292   0.741   2.679   1.617  0.6966 -0.0437 -0.0591
 6886TIP3    H142293   0.749   2.632   1.534  1.2819  0.7832 -0.4858
 6886TIP3    H242294   0.683   2.753   1.598 -0.2054 -0.5508  0.6025
 6887TIP3   OH242295   3.482   4.863   8.423 -0.5386  0.1734  0.2119
 6887TIP3    H142296   3.522   4.843   8.507 -0.4448 -0.3432  0.0436
 6887TIP3    H242297   3.434   4.945   8.438  1.1495  1.2077  0.2408
 6888TIP3   OH242298   3.692   2.840   8.007  0.0715 -0.3252 -0.1855
 6888TIP3    H142299   3.688   2.759   8.058 -1.6116  0.6823  1.3588
 6888TIP3    H242300   3.633   2.824   7.933  0.2521 -0.7308 -0.2466
 6889TIP3   OH242301   0.740   2.800   1.083  0.4111 -0.1971  0.0744
 6889TIP3    H142302   0.667   2.826   1.139  1.9260 -0.7770  2.4367
 6889TIP3    H242303   0.806   2.868   1.096  1.0624 -0.7124 -0.4680
 6890TIP3   OH242304   0.644   4.074   8.532  0.2275 -0.2934 -0.0349
 6890TIP3    H142305   0.729   4.103   8.499 -0.5706  0.2327 -1.7175
 6890TIP3    H242306   0.614   4.146   8.588  1.5651 -1.1689  1.9156
 6891TIP3   OH242307   0.979   3.337   0.484  0.0607 -0.0655  0.1920
 6891TIP3    H142308   0.912   3.286   0.436 -0.5155  0.9799 -0.1406
 6891TIP3    H242309   0.930   3.383   0.552  0.4649  0.5868  0.0465
 6892TIP3   OH242310   1.661   5.693   7.534  0.6394  0.2959 -0.6041
 6892TIP3    H142311   1.695   5.782   7.534  1.5371 -0.0251  0.0156
 6892TIP3    H242312   1.739   5.638   7.524  0.1045 -0.4183 -0.8874
 6893TIP3   OH242313   1.818   5.533   1.938  0.7296  0.3314  0.1625
 6893TIP3    H142314   1.779   5.446   1.937 -2.3055  1.5305  1.0875
 6893TIP3    H242315   1.843   5.547   2.029  2.9204 -0.1836 -0.3115
 6894TIP3   OH242316   5.430   3.740   0.511 -0.2550 -0.2543  0.1304
 6894TIP3    H142317   5.468   3.690   0.583 -0.1757 -1.2145 -0.5469
 6894TIP3    H242318   5.338   3.752   0.535 -0.2845 -0.7772  0.2962
 6895TIP3   OH242319   6.379   0.190   1.328 -0.3638  0.7825  0.1698
 6895TIP3    H142320   6.398   0.278   1.297 -1.1820  1.1567  0.6856
 6895TIP3    H242321   6.287   0.194   1.356  0.2015  0.3817  2.2717
 6896TIP3   OH242322   1.609   4.037   0.519 -0.4059  0.0253 -0.1264
 6896TIP3    H142323   1.684   4.018   0.576 -0.6661 -1.2731 -0.1946
 6896TIP3    H242324   1.534   4.001   0.565 -0.7480 -0.2345 -0.8718
 6897TIP3   OH242325   0.337   5.642   2.505  0.0718  0.1746 -0.2618
 6897TIP3    H142326   0.271   5.635   2.574  0.5735  0.3603  0.2437
 6897TIP3    H242327   0.335   5.558   2.461  0.3455 -0.2659  0.5419
 6898TIP3   OH242328   3.645   2.090   8.366  0.3348  0.0016  0.9608
 6898TIP3    H142329   3.645   2.044   8.450 -0.2358 -0.4902  0.6997
 6898TIP3    H242330   3.619   2.179   8.388  1.0387  0.0973  1.4185
 6899TIP3   OH242331   0.639   2.457   7.782  0.1312 -0.4178 -0.3886
 6899TIP3    H142332   0.630   2.460   7.687  1.3970  1.3201 -0.5053
 6899TIP3    H242333   0.578   2.525   7.813  0.8430  0.0957 -0.0901
 6900TIP3   OH242334   6.622   0.067   7.202 -0.5136  0.0246  0.1843
 6900TIP3    H142335   6.538   0.043   7.162 -2.3690  0.6267  3.3239
 6900TIP3    H242336   6.687   0.046   7.136 -3.0364 -1.4872 -2.0368
 6901TIP3   OH242337   3.968   1.182   7.289  0.5206  0.0980  0.3165
 6901TIP3    H142338   3.995   1.255   7.344  1.0233 -0.4262  0.7880
 6901TIP3    H242339   3.971   1.216   7.200 -0.2701  0.9517  0.6092
 6902TIP3   OH242340   5.301   4.776   0.723  0.6608  0.5244  0.6392
 6902TIP3    H142341   5.391   4.807   0.732  0.6023  0.7773  0.3674
 6902TIP3    H242342   5.306   4.682   0.740  0.6224  0.8803  2.9900
 6903TIP3   OH242343   0.922   1.409   1.398  0.0188 -0.5016 -0.0862
 6903TIP3    H142344   0.953   1.340   1.339 -0.8063 -2.2751  1.4478
 6903TIP3    H242345   0.994   1.423   1.459  0.3195  0.2900 -0.6030
 6904TIP3   OH242346   0.994   4.726   7.145 -0.0852  0.2157 -0.2916
 6904TIP3    H142347   1.011   4.678   7.226  0.5132  1.9687  0.6873
 6904TIP3    H242348   0.952   4.808   7.175  0.7678  1.1921 -1.6739
 6905TIP3   OH242349   0.839   3.701   1.541  0.4946 -0.3116  0.7827
 6905TIP3    H142350   0.933   3.688   1.544  0.4698 -0.4191  1.1148
 6905TIP3    H242351   0.804   3.619   1.506  0.5213 -0.2692  0.6532
 6906TIP3   OH242352   0.160   0.828   2.316 -0.4671 -0.3985  0.8400
 6906TIP3    H142353   0.091   0.761   2.310 -0.9206  0.0333  1.1125
 6906TIP3    H242354   0.119   0.906   2.279  0.5181 -0.6077 -0.7579
 6907TIP3   OH242355   0.797   5.942   6.819 -0.6832 -0.3316  0.3820
 6907TIP3    H142356   0.771   5.849   6.816 -0.6478 -0.3275 -0.5868
 6907TIP3    H242357   0.714   5.990   6.819 -0.7167 -0.3540 -0.6506
 6908TIP3   OH242358   2.355   3.183   0.507  0.0922 -0.3090  0.4522
 6908TIP3    H142359   2.386   3.234   0.433 -0.3849 -0.4534  0.1486
 6908TIP3    H242360   2.329   3.099   0.468  2.3153 -1.4043  1.1313
 6909TIP3   OH242361   2.591   1.631   5.211  0.4146 -0.3079  0.3876
 6909TIP3    H142362   2.607   1.617   5.304  0.1516 -0.1012  0.4663
 6909TIP3    H242363   2.673   1.668   5.178  0.4889 -0.3256  0.5503
 6910TIP3   OH242364   3.763   1.863   1.140  0.8075 -0.0961 -0.2252
 6910TIP3    H142365   3.793   1.845   1.229 -0.9464  0.4328  0.5268
 6910TIP3    H242366   3.751   1.958   1.137 -1.2226 -0.3033 -0.2667
 6911TIP3   OH242367   4.599   0.783   8.009  0.2848 -0.0451 -0.2638
 6911TIP3    H142368   4.594   0.837   8.088 -0.0150 -0.7480  0.2069
 6911TIP3    H242369   4.602   0.846   7.937  2.0083  0.6432  0.3546
 6912TIP3   OH242370   5.451   2.390   7.161  0.1037 -0.1726 -0.0701
 6912TIP3    H142371   5.501   2.442   7.224  1.4495  0.3542 -1.4824
 6912TIP3    H242372   5.498   2.403   7.078 -1.3161 -1.2154 -1.0770
 6913TIP3   OH242373   6.221   1.164   0.746 -0.0284 -0.5606  0.0448
 6913TIP3    H142374   6.191   1.076   0.769  2.3041 -0.5591  3.9720
 6913TIP3    H242375   6.166   1.222   0.799  0.9762  0.0402  0.4503
 6914TIP3   OH242376   4.047   3.195   2.171  0.0362  0.6472 -0.1798
 6914TIP3    H142377   4.102   3.119   2.189 -0.3318 -0.4583 -3.0687
 6914TIP3    H242378   3.961   3.171   2.205  0.0732 -0.0045 -0.5172
 6915TIP3   OH242379   0.312   0.356   7.773  0.3643  0.7851 -0.3895
 6915TIP3    H142380   0.268   0.393   7.697 -2.0047 -0.3389  0.3585
 6915TIP3    H242381   0.383   0.303   7.737 -0.5342  0.5072 -1.8006
 6916TIP3   OH242382   2.876   5.774   7.353  0.0152  0.0594  0.2821
 6916TIP3    H142383   2.961   5.781   7.310  0.3355 -1.5163  0.6065
 6916TIP3    H242384   2.813   5.804   7.288  0.5807 -1.3174 -0.9542
 6917TIP3   OH242385   4.185   0.425   6.313  0.0820  0.3981 -0.2998
 6917TIP3    H142386   4.137   0.507   6.301 -0.8175 -0.2482 -1.3466
 6917TIP3    H242387   4.135   0.377   6.379  2.1060  1.7578  2.3780
 6918TIP3   OH242388   0.126   3.922   2.163 -0.2018  0.0461 -0.2918
 6918TIP3    H142389   0.148   3.974   2.240  2.2589  1.8096 -1.9714
 6918TIP3    H242390   0.068   3.979   2.112  0.7024  0.2803 -1.1067
 6919TIP3   OH242391   2.142   1.448   7.527  0.4329  0.3742  0.1980
 6919TIP3    H142392   2.052   1.426   7.550 -0.1876  0.2431 -2.1662
 6919TIP3    H242393   2.195   1.392   7.584 -1.0492 -2.0013 -0.6218
 6920TIP3   OH242394   6.118   2.026   2.434 -0.1193 -0.0431  0.4645
 6920TIP3    H142395   6.174   2.100   2.455  1.0368 -0.7332 -0.0959
 6920TIP3    H242396   6.152   1.954   2.487 -2.0883  0.1019  2.0726
 6921TIP3   OH242397   1.140   3.764   2.240 -0.7845 -0.0275 -0.3651
 6921TIP3    H142398   1.179   3.773   2.327 -1.1564  0.8617 -0.2902
 6921TIP3    H242399   1.058   3.718   2.255 -2.1940  2.4885  0.1396
 6922TIP3   OH242400   5.841   3.634   8.204  0.3672 -0.0640  0.5018
 6922TIP3    H142401   5.818   3.727   8.212 -0.0532 -0.1800  0.6990
 6922TIP3    H242402   5.787   3.602   8.131  1.8088  0.2446 -0.7273
 6923TIP3   OH242403   4.248   4.938   1.483 -0.1522 -0.4104 -0.0315
 6923TIP3    H142404   4.278   4.992   1.410 -0.1821 -0.4647 -0.0839
 6923TIP3    H242405   4.327   4.898   1.518  0.0577  0.7607  0.8926
 6924TIP3   OH242406   6.776   3.951   1.612  0.1144  0.4005 -0.4454
 6924TIP3    H142407   6.772   3.855   1.602 -0.0358  0.5734 -2.5415
 6924TIP3    H242408   6.869   3.971   1.601  0.2352  0.4564  0.6208
 6925TIP3   OH242409   3.764   0.725   7.102 -0.6573  0.4158  0.1354
 6925TIP3    H142410   3.793   0.783   7.173 -0.8003 -1.4612  1.8372
 6925TIP3    H242411   3.670   0.741   7.096 -0.3728  1.9393 -1.0125
 6926TIP3   OH242412   5.392   3.654   8.355  0.1425  0.5062  0.1217
 6926TIP3    H142413   5.460   3.595   8.390  1.4716  1.6580 -0.4050
 6926TIP3    H242414   5.348   3.688   8.433 -0.0638 -0.5057  0.4620
 6927TIP3   OH242415   1.613   5.558   0.001  0.1044  0.7165  0.2599
 6927TIP3    H142416   1.683   5.497  -0.022 -0.3573 -0.3936  1.6958
 6927TIP3    H242417   1.589   5.599  -0.083  1.4327  0.0353 -0.4862
 6928TIP3   OH242418   2.884   2.144   8.162 -0.5997  0.7685  0.0478
 6928TIP3    H142419   2.810   2.171   8.107 -0.5836  1.2474  0.2583
 6928TIP3    H242420   2.849   2.145   8.251 -0.2730  1.2358  0.1737
 6929TIP3   OH242421   0.945   3.819   1.053 -0.8086  0.1962 -0.3399
 6929TIP3    H142422   1.031   3.860   1.037 -1.5940  2.1621  0.1491
 6929TIP3    H242423   0.966   3.731   1.082  1.1010  0.8491  0.4788
 6930TIP3   OH242424   5.990   1.758   0.775  0.0023 -0.5613  0.4420
 6930TIP3    H142425   6.013   1.851   0.781 -1.2615 -0.1685 -0.3565
 6930TIP3    H242426   6.013   1.734   0.685 -0.6702 -0.7212  0.3064
 6931TIP3   OH242427   2.793   2.271   1.874 -0.2243  0.6679 -0.0761
 6931TIP3    H142428   2.790   2.361   1.907 -0.7008  0.1735  1.3017
 6931TIP3    H242429   2.817   2.218   1.950 -0.4045 -0.4234 -0.7529
 6932TIP3   OH242430   3.908   4.626   0.777 -0.2687 -0.2942 -0.2035
 6932TIP3    H142431   3.981   4.652   0.834  0.0893  0.6969 -1.0911
 6932TIP3    H242432   3.830   4.645   0.828 -0.0281  2.4633 -0.7162
 6933TIP3   OH242433   5.873   0.965   7.325  0.4832  0.5027  0.2434
 6933TIP3    H142434   5.835   0.945   7.239  0.7367  0.4492  0.1431
 6933TIP3    H242435   5.960   0.926   7.322  1.4394  2.5436 -0.3636
 6934TIP3   OH242436   3.589   4.012   7.593  0.5029  0.5277  0.2460
 6934TIP3    H142437   3.528   3.985   7.524 -0.0250  1.3858  0.3608
 6934TIP3    H242438   3.532   4.041   7.664  0.9810 -2.3431  1.9519
 6935TIP3   OH242439   3.309   4.230   7.182 -0.1307 -0.7443 -0.5656
 6935TIP3    H142440   3.289   4.313   7.224  0.8529 -1.0815  0.6343
 6935TIP3    H242441   3.362   4.253   7.105  1.1733 -0.3102  0.4329
 6936TIP3   OH242442   0.621   1.367   7.394 -0.1897 -0.0902 -0.0503
 6936TIP3    H142443   0.584   1.454   7.381 -1.4153 -0.4356  0.9358
 6936TIP3    H242444   0.714   1.377   7.372  0.5778  2.3802  3.5158
 6937TIP3   OH242445   1.200   5.874   0.324  0.8878  0.1874  0.1465
 6937TIP3    H142446   1.225   5.937   0.392  1.2811 -0.4028  0.5586
 6937TIP3    H242447   1.237   5.910   0.243  1.0603  0.5157  0.3709
 6938TIP3   OH242448   2.854   1.692   7.952  0.2044 -0.4955  0.6620
 6938TIP3    H142449   2.815   1.647   8.027  0.6254  0.7762  1.6728
 6938TIP3    H242450   2.888   1.774   7.988 -1.2624  1.0461 -1.2583
 6939TIP3   OH242451   3.504   4.764   2.271  0.2504  0.1901 -0.1034
 6939TIP3    H142452   3.578   4.773   2.331  0.8142 -0.0493 -0.7492
 6939TIP3    H242453   3.452   4.843   2.284  0.1491 -0.0389  0.9798
 6940TIP3   OH242454   4.646   4.219   1.450  0.2935  0.0160  0.1520
 6940TIP3    H142455   4.720   4.235   1.391  0.6457  0.7728  0.7745
 6940TIP3    H242456   4.681   4.161   1.518 -0.1148 -0.8658 -0.3790
 6941TIP3   OH242457   4.875   4.894   7.633 -0.5991  0.1102  0.5068
 6941TIP3    H142458   4.795   4.946   7.621 -0.0909  0.8194  0.1519
 6941TIP3    H242459   4.848   4.804   7.613 -1.5877  0.1591  1.5109
 6942TIP3   OH242460   2.580   4.516   1.220 -0.7547 -0.4708 -0.3060
 6942TIP3    H142461   2.561   4.559   1.303 -1.6948  0.2912 -0.8948
 6942TIP3    H242462   2.505   4.536   1.164 -0.0087 -0.7056 -1.4397
 6943TIP3   OH242463   3.528   6.410   6.722  0.4739  0.2735 -0.5708
 6943TIP3    H142464   3.571   6.325   6.728  1.6138  0.7045 -2.0717
 6943TIP3    H242465   3.462   6.398   6.654 -0.3670  0.2062  0.2400
 6944TIP3   OH242466   5.952   6.147   0.945 -0.0904 -0.4490 -0.6806
 6944TIP3    H142467   5.951   6.221   0.884 -1.5270 -0.4639 -0.7188
 6944TIP3    H242468   5.967   6.070   0.889 -1.2713 -0.4486 -1.0356
 6945TIP3   OH242469   1.965   4.936   1.594  0.1000 -0.6639 -0.3469
 6945TIP3    H142470   2.007   4.963   1.513  2.1178  0.2906  0.9399
 6945TIP3    H242471   1.932   4.848   1.576  1.0160 -0.6940 -2.0144
 6946TIP3   OH242472   0.804   0.842   1.632  0.3879  0.0958  0.1981
 6946TIP3    H142473   0.713   0.858   1.659  0.2886 -1.7532  1.0438
 6946TIP3    H242474   0.856   0.897   1.690 -0.1596  0.9497 -0.0991
 6947TIP3   OH242475   5.229   3.258   1.247 -0.7577  0.0834 -0.4218
 6947TIP3    H142476   5.190   3.294   1.327 -1.1077  1.1474 -1.0521
 6947TIP3    H242477   5.283   3.185   1.277 -2.3110 -0.6900  0.6010
 6948TIP3   OH242478   3.524   0.672   6.803  0.4168 -0.6720 -0.1348
 6948TIP3    H142479   3.460   0.702   6.739  0.3766 -1.7765 -0.6308
 6948TIP3    H242480   3.516   0.735   6.875  1.2782  1.2828 -1.6570
 6949TIP3   OH242481   1.081   5.256   8.606  0.0712 -0.6247  0.2379
 6949TIP3    H142482   1.016   5.327   8.604  0.8445  0.2549  2.7792
 6949TIP3    H242483   1.031   5.178   8.630 -0.7317 -0.9708 -2.2606
 6950TIP3   OH242484   5.854   2.361   6.905  0.2880  0.6277  0.6129
 6950TIP3    H142485   5.945   2.390   6.913  0.1853  1.2262 -0.2216
 6950TIP3    H242486   5.848   2.323   6.818  0.3524 -1.8024  1.5995
 6951TIP3   OH242487   4.357   2.191   7.442 -0.0504 -0.1839  0.3382
 6951TIP3    H142488   4.328   2.275   7.408 -0.4778  0.0098  1.1625
 6951TIP3    H242489   4.381   2.141   7.364 -1.2284  0.1633 -0.2667
 6952TIP3   OH242490   3.034   2.324   1.794 -0.3957 -0.4542  0.3239
 6952TIP3    H142491   3.004   2.367   1.714  1.0730 -1.0948 -0.6202
 6952TIP3    H242492   2.962   2.335   1.856 -1.5230  0.1666 -1.0424
 6953TIP3   OH242493   4.383   3.387   8.477 -0.3938 -0.1642 -0.8233
 6953TIP3    H142494   4.424   3.470   8.453 -0.9208  0.6517  0.9615
 6953TIP3    H242495   4.443   3.320   8.445  0.6348  0.9274 -1.2357
 6954TIP3   OH242496   2.459   5.076   0.990  0.9739 -0.1398 -0.1301
 6954TIP3    H142497   2.400   5.036   1.053  0.4792 -1.9146 -1.6574
 6954TIP3    H242498   2.417   5.159   0.967  0.1936 -0.3799  0.4059
 6955TIP3   OH242499   4.996   3.650   0.370  0.0486  0.6082 -0.4605
 6955TIP3    H142500   4.915   3.599   0.363  0.5732 -0.2338 -0.5653
 6955TIP3    H242501   5.064   3.590   0.339  0.4788  1.9717 -2.3150
 6956TIP3   OH242502   0.080   4.431   1.349 -0.4327  0.0627 -0.2781
 6956TIP3    H142503   0.007   4.372   1.333  0.3848 -1.1973  0.4990
 6956TIP3    H242504   0.145   4.378   1.396  1.2373  0.9596 -1.4510
 6957TIP3   OH242505   5.785   4.669   6.979  0.2405  0.0688  0.1368
 6957TIP3    H142506   5.781   4.740   7.043 -0.9160  1.1635 -1.0935
 6957TIP3    H242507   5.695   4.661   6.946  0.5910 -1.1922 -0.5975
 6958TIP3   OH242508   0.468   2.312   7.310  0.0853  0.3967  0.2264
 6958TIP3    H142509   0.459   2.373   7.236  0.4124  0.5319  0.2932
 6958TIP3    H242510   0.384   2.266   7.314  0.3597 -0.2356 -0.7787
 6959TIP3   OH242511   6.799   5.201   7.658 -0.2075  0.4107 -0.2940
 6959TIP3    H142512   6.855   5.243   7.723 -1.3409  1.3870  0.0791
 6959TIP3    H242513   6.741   5.143   7.709 -1.1839  1.2745 -0.3927
 6960TIP3   OH242514   5.983   2.189   1.558 -0.4809  0.2377 -0.2166
 6960TIP3    H142515   6.014   2.125   1.623 -1.5938 -0.0799  0.0251
 6960TIP3    H242516   5.916   2.239   1.604 -1.7333 -0.3978 -1.2925
 6961TIP3   OH242517   5.860   3.835   7.893  0.4398 -0.2487 -0.0595
 6961TIP3    H142518   5.798   3.785   7.840 -0.4731  0.0369  0.7045
 6961TIP3    H242519   5.936   3.846   7.837 -0.1748 -0.6697 -1.0031
 6962TIP3   OH242520   2.984   2.753   0.735 -0.1262 -0.0305 -0.2110
 6962TIP3    H142521   2.999   2.739   0.642  0.5476 -0.7466 -0.0082
 6962TIP3    H242522   2.976   2.665   0.772  0.7470  0.2044  0.5739
 6963TIP3   OH242523   4.549   4.222   7.199  0.1158 -0.6155  0.0451
 6963TIP3    H142524   4.596   4.226   7.282 -1.2320  1.1406  0.8019
 6963TIP3    H242525   4.461   4.194   7.223 -0.6181  1.0001 -0.5843
 6964TIP3   OH242526   2.834   1.141   2.388 -0.1922 -0.8497  0.2764
 6964TIP3    H142527   2.832   1.096   2.303 -1.6654  1.1942 -0.8798
 6964TIP3    H242528   2.742   1.147   2.414  0.0357  0.4858  0.9009
 6965TIP3   OH242529   3.054   5.577   6.563 -0.0186  0.4450 -0.5132
 6965TIP3    H142530   3.082   5.616   6.480 -1.2097  1.9034 -0.2690
 6965TIP3    H242531   3.132   5.530   6.594  0.5971  0.2847 -2.1950
 6966TIP3   OH242532   6.814   5.883   0.839 -0.4520  0.2732  0.7572
 6966TIP3    H142533   6.877   5.876   0.768  0.6417  0.4143  1.6826
 6966TIP3    H242534   6.758   5.806   0.830 -0.0564  0.0631  0.0134
 6967TIP3   OH242535   4.582   2.531   1.124 -0.2295  0.4708  0.2057
 6967TIP3    H142536   4.590   2.541   1.029 -0.1659 -0.7660  0.0599
 6967TIP3    H242537   4.561   2.439   1.136 -1.7321  0.9265  1.3207
 6968TIP3   OH242538   3.770   1.279   0.225 -0.5129 -0.4761  0.7162
 6968TIP3    H142539   3.726   1.357   0.259 -1.0316 -0.4331 -0.0239
 6968TIP3    H242540   3.811   1.308   0.144 -2.3237 -1.3695 -0.6104
 6969TIP3   OH242541   3.486   6.101   1.409 -0.1346 -0.1221  0.7176
 6969TIP3    H142542   3.447   6.014   1.422  0.2513 -0.5700 -0.8373
 6969TIP3    H242543   3.573   6.083   1.374 -0.3861  0.8807 -0.4911
 6970TIP3   OH242544   3.901   3.662   1.614  0.4163  0.1074 -0.3897
 6970TIP3    H142545   3.913   3.714   1.534  1.1348 -0.2564 -0.5308
 6970TIP3    H242546   3.842   3.714   1.668 -1.6127 -0.4823 -1.9182
 6971TIP3   OH242547   2.470   5.464   6.964 -0.0979 -0.0192 -0.5215
 6971TIP3    H142548   2.565   5.468   6.956 -0.0775  0.2187 -0.1781
 6971TIP3    H242549   2.439   5.446   6.875  0.4470 -3.3994 -0.1750
 6972TIP3   OH242550   4.731   3.204   0.797  0.4937 -0.4113  0.3529
 6972TIP3    H142551   4.796   3.264   0.833 -0.0197 -0.3917  1.2792
 6972TIP3    H242552   4.661   3.202   0.863 -0.3785 -0.5413 -0.5533
 6973TIP3   OH242553   2.050   0.004   8.268 -0.1093 -0.0177  0.4840
 6973TIP3    H142554   1.955   0.002   8.269 -0.1920  1.7796  1.9817
 6973TIP3    H242555   2.074   0.070   8.334  2.1112  0.9994 -1.1768
 6974TIP3   OH242556   3.083   0.812   6.575  0.5089 -0.1396 -0.0193
 6974TIP3    H142557   3.024   0.863   6.630  0.6812  0.3129 -0.2409
 6974TIP3    H242558   3.031   0.787   6.499  1.1188  2.0416 -1.2412
 6975TIP3   OH242559   5.666   0.144   0.532 -0.3579  0.0596 -0.2946
 6975TIP3    H142560   5.629   0.152   0.620 -0.2203 -0.1012 -0.2216
 6975TIP3    H242561   5.757   0.117   0.547  0.0462  1.2848 -0.4361
 6976TIP3   OH242562   4.625   6.270   6.596  0.3691  0.3202  0.3007
 6976TIP3    H142563   4.550   6.329   6.595  0.3382  0.2778 -0.2226
 6976TIP3    H242564   4.593   6.192   6.642 -0.1133  0.0465 -0.4725
 6977TIP3   OH242565   2.241   4.344   8.127 -0.4374  0.4296 -0.2106
 6977TIP3    H142566   2.189   4.423   8.137 -0.4431  0.2347  1.5474
 6977TIP3    H242567   2.183   4.273   8.156  0.3822  0.0644  0.5758
 6978TIP3   OH242568   6.889   4.684   2.006  0.2709  0.0836 -0.2399
 6978TIP3    H142569   6.867   4.595   1.977 -0.4855 -0.3992  1.6246
 6978TIP3    H242570   6.984   4.685   2.009  0.3233 -0.2827 -1.3362
 6979TIP3   OH242571   0.137   0.286   7.468  1.0391  0.3881 -0.4193
 6979TIP3    H142572   0.171   0.226   7.534 -0.2804  0.5292  0.4086
 6979TIP3    H242573   0.131   0.233   7.388  1.4975 -0.1107 -0.1299
 6980TIP3   OH242574   4.875   6.286   8.014 -0.5454  0.2197 -0.7831
 6980TIP3    H142575   4.841   6.344   8.082 -0.9939 -0.9766  0.0256
 6980TIP3    H242576   4.817   6.301   7.939 -2.4774 -1.2288  0.3300
 6981TIP3   OH242577   1.274   6.740   7.551  0.2752 -0.1322 -0.2169
 6981TIP3    H142578   1.341   6.694   7.501  0.5275  0.2561 -0.2441
 6981TIP3    H242579   1.192   6.717   7.509  0.3608 -0.8745  0.0148
 6982TIP3   OH242580   6.339   3.467   6.650 -0.2278  1.1359 -0.1490
 6982TIP3    H142581   6.347   3.473   6.555  0.4486  1.6293 -0.0655
 6982TIP3    H242582   6.360   3.376   6.670  0.4409  1.2294 -0.3960
 6983TIP3   OH242583   2.323   6.596   0.736 -0.3774  0.4451  0.1472
 6983TIP3    H142584   2.416   6.607   0.755  0.5598 -2.1360 -2.3044
 6983TIP3    H242585   2.282   6.589   0.823  2.1494 -1.2065  1.3193
 6984TIP3   OH242586   1.043   5.094   1.043 -0.7828 -0.0711  0.3095
 6984TIP3    H142587   1.096   5.130   0.972  0.6101  0.8678  1.7532
 6984TIP3    H242588   1.026   5.004   1.017 -1.2959  0.5788 -1.7315
 6985TIP3   OH242589   1.594   2.786   6.493 -0.1387 -1.3205 -0.0242
 6985TIP3    H142590   1.593   2.824   6.405 -1.9421  0.4210  0.6743
 6985TIP3    H242591   1.505   2.751   6.506 -0.7665  0.7617  1.9767
 6986TIP3   OH242592   0.396   3.752   7.328 -0.0054  0.3298 -0.2184
 6986TIP3    H142593   0.369   3.684   7.390  0.2205  1.4420  1.1514
 6986TIP3    H242594   0.464   3.711   7.275 -0.2248 -0.6545  0.2374
 6987TIP3   OH242595   0.331   5.975   1.087  0.1299 -0.7207  0.1570
 6987TIP3    H142596   0.243   5.963   1.051 -0.2332 -0.1951  0.8430
 6987TIP3    H242597   0.318   5.977   1.182  0.8788 -0.6109  0.2655
 6988TIP3   OH242598   6.848   0.261   7.739 -0.3557 -0.1222 -0.2997
 6988TIP3    H142599   6.872   0.334   7.682 -0.1143  2.2645  2.6544
 6988TIP3    H242600   6.890   0.185   7.699  2.0027  1.8393 -1.8376
 6989TIP3   OH242601   0.263   4.671   0.248 -0.0796  0.5272  0.5721
 6989TIP3    H142602   0.332   4.687   0.313  0.2187 -0.2639  0.4563
 6989TIP3    H242603   0.297   4.600   0.193 -0.0331  1.6256 -0.8840
 6990TIP3   OH242604   0.711   6.720   8.611 -0.2216 -0.0332 -0.3391
 6990TIP3    H142605   0.648   6.781   8.571  0.2868  0.4111 -0.4807
 6990TIP3    H242606   0.796   6.758   8.590  0.1512 -1.3624 -1.3511
 6991TIP3   OH242607   4.245   2.925   1.284  0.1157 -0.0636 -0.1725
 6991TIP3    H142608   4.309   2.936   1.354  1.8447  1.1463 -1.8476
 6991TIP3    H242609   4.226   2.831   1.283  0.7321 -0.2257  1.2997
 6992TIP3   OH242610   5.799   5.952   1.308  0.0121 -0.0983 -0.0224
 6992TIP3    H142611   5.748   6.004   1.245 -0.9570 -2.2812 -1.1353
 6992TIP3    H242612   5.810   6.010   1.383  0.7517  2.4274 -1.9432
 6993TIP3   OH242613   0.184   5.450   1.651  0.0441  0.1094  0.0900
 6993TIP3    H142614   0.130   5.400   1.589  0.1621  1.0681 -0.8079
 6993TIP3    H242615   0.274   5.432   1.623  0.0852  0.8567 -0.2766
 6994TIP3   OH242616   1.295   5.293   0.804 -0.4444  0.2093  0.1346
 6994TIP3    H142617   1.351   5.366   0.832  1.1010 -0.7932 -0.1996
 6994TIP3    H242618   1.295   5.299   0.708 -2.4065  1.2376  0.1588
 6995TIP3   OH242619   2.077   5.556   0.320 -0.5735  0.3121  0.1428
 6995TIP3    H142620   2.048   5.631   0.372  1.3113 -0.0551  1.8387
 6995TIP3    H242621   2.132   5.594   0.252 -1.2367  0.6021 -0.2470
 6996TIP3   OH242622   5.718   2.001   2.143 -0.2904 -0.3262 -0.1149
 6996TIP3    H142623   5.690   1.920   2.186  1.8795 -1.3273 -0.4594
 6996TIP3    H242624   5.749   1.973   2.057 -0.4472  1.0333 -0.6472
 6997TIP3   OH242625   4.025   6.836   1.020 -0.0645  0.5073  0.4098
 6997TIP3    H142626   3.988   6.755   0.987 -1.0876  0.4608  1.6111
 6997TIP3    H242627   4.051   6.884   0.941 -0.8492 -0.3247 -0.3825
 6998TIP3   OH242628   4.337   4.071   8.583  0.3705 -0.4606 -1.0877
 6998TIP3    H142629   4.262   4.091   8.528  2.0447  0.9851 -2.9934
 6998TIP3    H242630   4.376   4.156   8.602  0.8608 -1.0759  0.9137
 6999TIP3   OH242631   1.586   2.299   7.089 -0.4657 -0.2374 -0.1179
 6999TIP3    H142632   1.526   2.351   7.037 -0.4485 -0.5024 -0.4086
 6999TIP3    H242633   1.632   2.244   7.025  1.3218  1.1727 -0.1121
 7000TIP3   OH242634   3.719   4.937   7.351  0.5295 -0.0504  0.3496
 7000TIP3    H142635   3.813   4.939   7.368  0.3463  1.0613  1.3454
 7000TIP3    H242636   3.679   4.960   7.434 -0.6117  0.0776 -0.2142
 7001TIP3   OH242637   2.818   4.679   0.492 -0.1555 -0.5901  0.0370
 7001TIP3    H142638   2.884   4.711   0.553 -1.0544 -1.3548  1.4549
 7001TIP3    H242639   2.852   4.594   0.464  0.7122  0.1570 -1.3167
 7002TIP3   OH242640   0.814   1.058   7.252 -0.7720 -0.5146  0.0217
 7002TIP3    H142641   0.836   1.009   7.332 -0.1475  0.4621  0.4657
 7002TIP3    H242642   0.847   1.003   7.181  0.3790 -0.5216  0.5328
 7003TIP3   OH242643   4.402   3.884   7.073  0.7954 -0.2493 -0.1785
 7003TIP3    H142644   4.335   3.946   7.045  2.7057  2.7853  1.5105
 7003TIP3    H242645   4.459   3.874   6.997 -1.4238 -2.9496 -1.6702
 7004TIP3   OH242646   4.795   5.703   6.510 -0.2548  0.7544  0.1452
 7004TIP3    H142647   4.721   5.761   6.497 -0.7805  0.2178  0.6876
 7004TIP3    H242648   4.824   5.680   6.421 -0.8897  0.7768 -0.0680
 7005TIP3   OH242649   3.796   3.289   0.212 -0.2799 -0.3243 -0.0704
 7005TIP3    H142650   3.781   3.319   0.122  1.1704  1.1893  0.1410
 7005TIP3    H242651   3.890   3.275   0.217  0.2005  2.7163  2.0427
 7006TIP3   OH242652   6.569   6.533   8.265 -0.3257  0.1760 -0.2580
 7006TIP3    H142653   6.647   6.574   8.302 -0.7284  0.5541  0.1973
 7006TIP3    H242654   6.593   6.511   8.175  1.0160 -1.6594  0.4898
 7007TIP3   OH242655   3.710   5.706   0.585  0.0864 -0.0779  0.5930
 7007TIP3    H142656   3.719   5.628   0.529  1.2243  1.6908 -1.8621
 7007TIP3    H242657   3.799   5.739   0.594 -0.4507  1.2917  1.1306
 7008TIP3   OH242658   3.941   6.499   2.218 -0.2808  0.0391  0.0427
 7008TIP3    H142659   3.856   6.485   2.178 -0.8511  0.3418  1.1062
 7008TIP3    H242660   3.958   6.418   2.266  0.5329 -0.4392 -1.0057
 7009TIP3   OH242661   6.722   5.848   8.233  0.1408 -0.2872 -0.0970
 7009TIP3    H142662   6.704   5.912   8.165  1.2923  0.0757 -0.0781
 7009TIP3    H242663   6.674   5.880   8.309 -0.1436 -0.0173 -0.3886
 7010TIP3   OH242664   0.182   5.490   7.198 -0.2975  0.0744 -0.2403
 7010TIP3    H142665   0.197   5.572   7.244 -0.0349  1.0474 -1.9816
 7010TIP3    H242666   0.087   5.481   7.194 -0.3385  0.5518 -0.4391
 7011TIP3   OH242667   2.495   6.357   1.589  0.4450  0.1787 -0.2114
 7011TIP3    H142668   2.419   6.308   1.620 -0.3984  1.6712  0.1966
 7011TIP3    H242669   2.569   6.298   1.601 -0.5554 -1.0551  0.0381
 7012TIP3   OH242670   3.889   6.541   7.480  0.0285 -0.0878 -0.0861
 7012TIP3    H142671   3.842   6.620   7.507 -0.4004  0.1838 -1.5411
 7012TIP3    H242672   3.821   6.480   7.453  0.4300 -0.3822 -0.4493
 7013TIP3   OH242673   1.282   5.616   0.327  0.0988  0.0833 -0.1976
 7013TIP3    H142674   1.296   5.599   0.234 -0.8611 -0.5100 -0.2466
 7013TIP3    H242675   1.261   5.709   0.331 -3.0013 -0.4740 -1.0103
 7014TIP3   OH242676   1.902   4.185   6.541 -0.4732 -0.0607  0.1738
 7014TIP3    H142677   1.901   4.096   6.576 -0.3327 -0.0996  0.0765
 7014TIP3    H242678   1.862   4.177   6.455 -0.5348 -0.0162  0.1980
 7015TIP3   OH242679   5.045   1.995   8.194 -0.0525 -0.3087  0.5705
 7015TIP3    H142680   5.122   2.042   8.228 -1.1501 -0.6571  3.9203
 7015TIP3    H242681   5.047   1.910   8.239 -2.4274 -0.2539  0.9145
 7016TIP3   OH242682   0.159   6.531   0.575 -0.1940  0.5401  0.3818
 7016TIP3    H142683   0.152   6.487   0.491 -2.7262  0.9881  0.2761
 7016TIP3    H242684   0.089   6.492   0.628 -0.1262  1.8720  1.4947
 7017TIP3   OH242685   2.599   0.926   6.132 -0.1307  0.3597  0.2037
 7017TIP3    H142686   2.505   0.945   6.140 -0.6423 -2.1956  1.4136
 7017TIP3    H242687   2.604   0.859   6.064  0.7840  0.3267  0.2916
 7018TIP3   OH242688   0.579   4.383   8.172 -0.2758 -0.1586  0.1168
 7018TIP3    H142689   0.563   4.293   8.143  0.9529 -0.6742  0.9584
 7018TIP3    H242690   0.550   4.437   8.098 -1.6775 -1.1909 -0.1370
 7019TIP3   OH242691   1.049   1.004   8.058  0.1729 -0.0385  0.0158
 7019TIP3    H142692   1.059   1.036   7.968  0.3383  0.7112  0.2983
 7019TIP3    H242693   1.013   1.078   8.106  0.2478 -0.3841  0.6125
 7020TIP3   OH242694   4.286   0.218   1.517 -0.0214 -0.2488  0.1055
 7020TIP3    H142695   4.373   0.255   1.503 -0.1051 -0.5200 -1.3106
 7020TIP3    H242696   4.225   0.286   1.487 -0.3892  0.4176  2.1797
 7021TIP3   OH242697   6.340   1.129   1.025  0.3121  0.2436 -0.4574
 7021TIP3    H142698   6.389   1.210   1.037  0.9567 -0.0166 -1.2338
 7021TIP3    H242699   6.248   1.156   1.024  0.5345  0.9996 -0.9688
 7022TIP3   OH242700   0.281   5.800   8.225 -0.2330  0.1425  0.0197
 7022TIP3    H142701   0.256   5.718   8.182 -2.3634  0.8089 -0.1461
 7022TIP3    H242702   0.235   5.797   8.309 -0.3175  1.1339  0.0192
 7023TIP3   OH242703   2.622   0.392   0.697  0.0580  0.1742  0.2793
 7023TIP3    H142704   2.541   0.360   0.656 -0.4184  0.6705  0.8168
 7023TIP3    H242705   2.680   0.316   0.696 -0.2824 -0.0928 -0.4368
 7024TIP3   OH242706   4.324   5.882   7.545  0.3971 -0.3110  0.6284
 7024TIP3    H142707   4.272   5.961   7.563  0.9346  1.1563 -3.3543
 7024TIP3    H242708   4.262   5.810   7.556 -1.2393  1.0011  0.3852
 7025TIP3   OH242709   2.153   0.079   6.825  0.2422 -0.3720 -0.6886
 7025TIP3    H142710   2.083   0.061   6.763 -0.6584  0.0862  0.1669
 7025TIP3    H242711   2.173   0.171   6.813 -0.0469 -0.2425 -0.1961
 7026TIP3   OH242712   5.374   2.793   2.047  0.4332  0.1011  0.0855
 7026TIP3    H142713   5.400   2.707   2.079 -1.4195 -0.2318  0.7718
 7026TIP3    H242714   5.300   2.819   2.101  0.3604  1.7410 -0.7076
 7027TIP3   OH242715   3.640   6.678   1.829 -0.4345  0.2752 -0.4922
 7027TIP3    H142716   3.700   6.744   1.865  1.1342 -1.4586  0.1724
 7027TIP3    H242717   3.644   6.691   1.734  2.3738 -0.8866 -0.6161
 7028TIP3   OH242718   5.454   3.365   7.651 -0.3635  0.0434  0.3028
 7028TIP3    H142719   5.440   3.458   7.671  0.5965  0.4480 -0.7529
 7028TIP3    H242720   5.389   3.346   7.583  0.9490  0.6259 -1.1853
 7029TIP3   OH242721   6.886   4.148   2.401 -0.1340  0.1737 -0.3600
 7029TIP3    H142722   6.949   4.086   2.437  0.8084  0.1533 -1.9285
 7029TIP3    H242723   6.802   4.101   2.403  0.1344 -0.2781  0.5896
 7030TIP3   OH242724   1.650   2.408   7.335  0.3782  0.6428 -0.6754
 7030TIP3    H142725   1.613   2.379   7.252  1.6196  3.5751 -2.4097
 7030TIP3    H242726   1.744   2.394   7.326  0.6885  2.4197 -0.4364
 7031TIP3   OH242727   6.869   2.411   0.154 -0.3087  0.2413  0.2807
 7031TIP3    H142728   6.935   2.388   0.219  0.0312  0.5637  0.0553
 7031TIP3    H242729   6.791   2.435   0.205  0.3497  1.7594  0.6375
 7032TIP3   OH242730   5.687   6.813   7.451 -0.3331 -0.1912 -0.3401
 7032TIP3    H142731   5.666   6.731   7.495 -0.1530  0.4313  0.9621
 7032TIP3    H242732   5.781   6.823   7.464 -0.6536  1.1916  1.3232
 7033TIP3   OH242733   0.043   6.435   6.499  0.0228  0.1498  0.0917
 7033TIP3    H142734  -0.008   6.360   6.467  1.9636 -0.7765 -0.9905
 7033TIP3    H242735   0.086   6.470   6.421  0.5144  1.3261  0.8667
 7034TIP3   OH242736   6.288   5.628   7.720  0.2255  0.5049  0.6999
 7034TIP3    H142737   6.300   5.723   7.714 -0.2083  0.5427  0.4309
 7034TIP3    H242738   6.244   5.604   7.639  1.0137 -0.0414  0.4154
 7035TIP3   OH242739   6.218   0.736   0.537  0.0068  0.1928  0.1930
 7035TIP3    H142740   6.304   0.702   0.513 -0.0123 -0.3307  0.8468
 7035TIP3    H242741   6.197   0.800   0.468  0.1736 -0.8890 -0.8843
 7036TIP3   OH242742   6.530   5.512   7.192 -0.2435  0.5526 -0.1131
 7036TIP3    H142743   6.440   5.543   7.202 -0.3325  0.0617  0.7763
 7036TIP3    H242744   6.522   5.424   7.156 -0.2494 -0.2763  1.7797
 7037TIP3   OH242745   1.781   4.196   6.298  0.3608 -0.1862 -0.0155
 7037TIP3    H142746   1.691   4.188   6.266  0.1962 -0.7998  0.5794
 7037TIP3    H242747   1.831   4.222   6.221 -0.3083  0.0443 -0.3820
 7038TIP3   OH242748   1.855   5.115   0.861  0.0862  0.2390  0.2323
 7038TIP3    H142749   1.818   5.045   0.915 -0.2749 -0.2127 -0.5892
 7038TIP3    H242750   1.791   5.187   0.868  0.0102  0.1595  0.3601
 7039TIP3   OH242751   5.656   5.353   0.413  0.0432 -0.3860  0.5777
 7039TIP3    H142752   5.706   5.323   0.488 -1.2064 -1.5825  0.9719
 7039TIP3    H242753   5.575   5.389   0.450 -0.2613 -0.2993 -0.1429
 7040TIP3   OH242754   5.644   2.504   6.972  0.2254 -0.8436  0.3840
 7040TIP3    H142755   5.639   2.530   6.880  0.9717  1.4770  0.9292
 7040TIP3    H242756   5.710   2.435   6.975  1.4310  0.2419 -0.6129
 7041TIP3   OH242757   4.726   2.763   8.527  0.2605 -0.2453  0.1880
 7041TIP3    H142758   4.707   2.856   8.536 -0.2068 -0.2666 -0.4948
 7041TIP3    H242759   4.662   2.720   8.583  0.4728 -0.1640  0.4996
 7042TIP3   OH242760   4.736   0.528   2.316  0.2330  0.1082 -0.0074
 7042TIP3    H142761   4.814   0.488   2.355 -0.0165  1.4819  1.9965
 7042TIP3    H242762   4.663   0.491   2.364 -0.1180  1.4698  0.5386
 7043TIP3   OH242763   5.587   3.362   0.430  0.0621 -0.3076 -0.3705
 7043TIP3    H142764   5.540   3.298   0.377  0.5676 -0.1142 -1.0629
 7043TIP3    H242765   5.658   3.393   0.374 -1.0796  2.0173 -0.6725
 7044TIP3   OH242766   5.219   5.715   8.111  0.1764  0.6141  0.2149
 7044TIP3    H142767   5.280   5.724   8.038  2.4256 -0.9902  1.7660
 7044TIP3    H242768   5.242   5.787   8.170 -1.6492  1.9188 -0.5591
 7045TIP3   OH242769   4.201   3.247   6.223  0.4470 -0.2217 -0.0136
 7045TIP3    H142770   4.267   3.209   6.165 -0.5168 -1.3781 -0.4028
 7045TIP3    H242771   4.245   3.252   6.308  1.8525  1.4561 -0.7762
 7046TIP3   OH242772   0.927   1.934   8.324  0.5479  0.0549  0.5795
 7046TIP3    H142773   1.012   1.964   8.356  0.9881  1.2087 -1.4895
 7046TIP3    H242774   0.935   1.936   8.229 -1.8928  0.5179  0.3181
 7047TIP3   OH242775   1.264   0.793   7.100 -0.2141  0.1105  0.1431
 7047TIP3    H142776   1.177   0.794   7.062 -0.0992 -1.0287 -0.1975
 7047TIP3    H242777   1.322   0.772   7.027  0.1766 -0.5826  0.6350
 7048TIP3   OH242778   1.514   4.377   0.204  0.1974  0.2587 -0.5462
 7048TIP3    H142779   1.485   4.290   0.178 -0.8970 -0.1550  1.8324
 7048TIP3    H242780   1.566   4.363   0.283 -0.1823  1.7719  0.0181
 7049TIP3   OH242781   5.973   2.058   0.900 -0.7239  0.4912 -0.2274
 7049TIP3    H142782   5.879   2.039   0.903 -0.7154  0.5790  1.0195
 7049TIP3    H242783   5.982   2.142   0.945  0.1604 -0.4527  1.4561
 7050TIP3   OH242784   4.663   0.496   0.651  0.3365  0.3687  0.2113
 7050TIP3    H142785   4.607   0.528   0.721 -0.4819  2.4471 -1.2891
 7050TIP3    H242786   4.644   0.402   0.645 -1.9469  0.7451  0.6956
 7051TIP3   OH242787   4.792   0.606   8.428 -0.1170  0.1168 -0.0993
 7051TIP3    H142788   4.768   0.514   8.442 -1.6020  0.0853 -2.3349
 7051TIP3    H242789   4.801   0.614   8.333  1.4199  1.9849  0.1481
 7052TIP3   OH242790   1.517   0.230   0.097 -0.1702  0.3457  0.1863
 7052TIP3    H142791   1.554   0.142   0.096  1.7044  0.9726  2.9163
 7052TIP3    H242792   1.553   0.272   0.019 -0.9482 -1.2128 -1.0487
 7053TIP3   OH242793   4.925   2.661   7.765 -0.6481 -1.2335 -0.5393
 7053TIP3    H142794   4.854   2.721   7.744 -2.2600 -2.6430  0.6053
 7053TIP3    H242795   4.952   2.625   7.681  0.2760  0.9428 -1.2330
 7054TIP3   OH242796   0.116   4.767   1.733 -0.3433 -0.2356 -0.4538
 7054TIP3    H142797   0.132   4.691   1.788  1.7682  2.0850  2.5231
 7054TIP3    H242798   0.021   4.775   1.729 -0.5880 -2.4094 -0.0405
 7055TIP3   OH242799   1.132   1.738   8.553  0.5245  0.0113 -0.1794
 7055TIP3    H142800   1.186   1.677   8.604  0.9449  1.1358  0.7712
 7055TIP3    H242801   1.166   1.730   8.463  2.2220  0.5776  0.3645
 7056TIP3   OH242802   2.324   4.125   7.737 -0.0196 -0.2808  0.2918
 7056TIP3    H142803   2.292   4.071   7.665  1.5697 -1.3865  0.3480
 7056TIP3    H242804   2.415   4.142   7.716 -0.1533  1.4019  0.9013
 7057TIP3   OH242805   0.504   1.350   0.436 -0.0000  0.7713 -0.3793
 7057TIP3    H142806   0.500   1.292   0.512 -2.8124  1.8736  0.4747
 7057TIP3    H242807   0.419   1.339   0.393  1.4472  0.2713 -3.4058
 7058TIP3   OH242808   0.628   1.081   8.595  0.0956 -0.0129  0.8033
 7058TIP3    H142809   0.695   1.149   8.582 -0.0070 -0.2687 -1.5354
 7058TIP3    H242810   0.674   0.999   8.583 -0.2996 -0.2621  0.9731
 7059TIP3   OH242811   4.018   0.653   0.529  0.2565 -0.3073  0.5314
 7059TIP3    H142812   3.958   0.602   0.583  0.0610 -3.0733 -2.0575
 7059TIP3    H242813   4.105   0.617   0.549  0.5823  0.8249  1.2363
 7060TIP3   OH242814   1.477   5.780   6.572  0.0769  0.4386 -0.3259
 7060TIP3    H142815   1.476   5.875   6.562 -0.1070  0.2402 -2.5242
 7060TIP3    H242816   1.409   5.762   6.637 -0.9428  1.7138 -0.9998
 7061TIP3   OH242817   6.085   2.137   8.610 -0.1457  0.0778  0.4234
 7061TIP3    H142818   6.101   2.091   8.692  2.8274 -0.7089 -0.5090
 7061TIP3    H242819   6.052   2.223   8.637 -2.3282 -1.2134  2.2696
 7062TIP3   OH242820   2.316   1.378   8.583  0.1663 -0.3585 -0.0742
 7062TIP3    H142821   2.242   1.419   8.627 -0.4002 -0.2608 -1.0674
 7062TIP3    H242822   2.316   1.287   8.614 -0.9259 -0.5995 -0.7048
 7063TIP3   OH242823   6.703   4.561   8.313  0.6075  0.2146  0.1397
 7063TIP3    H142824   6.653   4.631   8.271 -1.7231 -1.4163  0.0400
 7063TIP3    H242825   6.699   4.582   8.406  0.7243  0.6853  0.0465
 7064TIP3   OH242826   0.788   1.541   0.751  0.3722 -0.6227  0.4990
 7064TIP3    H142827   0.818   1.603   0.684 -0.5652  0.5190  1.0989
 7064TIP3    H242828   0.781   1.593   0.831 -1.5311 -1.2118  0.7717
 7065TIP3   OH242829   6.015   4.239   2.489  0.5125  0.0245  0.8072
 7065TIP3    H142830   6.024   4.166   2.549 -0.1014  1.1066  2.2646
 7065TIP3    H242831   6.058   4.312   2.533 -0.2141  0.9207  0.0833
 7066TIP3   OH242832   4.241   5.799   7.180 -0.2132 -0.1481 -0.1399
 7066TIP3    H142833   4.219   5.747   7.103  0.3863  0.6263 -0.8474
 7066TIP3    H242834   4.299   5.867   7.147  0.1738  0.1036  1.0269
 7067TIP3   OH242835   3.232   5.320   0.544  0.1208 -0.5999 -0.1421
 7067TIP3    H142836   3.204   5.229   0.552  0.0949 -0.5171  0.9253
 7067TIP3    H242837   3.282   5.337   0.624  0.9163  0.0588 -0.7548
 7068TIP3   OH242838   0.007   4.589   1.031 -0.1573 -0.6268  0.0894
 7068TIP3    H142839   0.039   4.565   1.118  1.0826  1.5778  0.3223
 7068TIP3    H242840   0.083   4.577   0.974  0.3484  1.8099  0.1106
 7069TIP3   OH242841   5.487   2.150   0.360 -0.7265 -0.0376  0.5246
 7069TIP3    H142842   5.427   2.121   0.429 -2.7821 -0.3400 -1.2636
 7069TIP3    H242843   5.466   2.242   0.347 -1.6249 -0.3949 -0.8117
 7070TIP3   OH242844   1.471   1.398   2.001 -0.1771  0.3418  0.3854
 7070TIP3    H142845   1.565   1.376   2.004 -0.1460  0.3363 -0.3565
 7070TIP3    H242846   1.439   1.376   2.088  0.1076 -1.5299  0.0669
 7071TIP3   OH242847   3.536   5.470   7.597 -0.3358  0.3171  0.5302
 7071TIP3    H142848   3.563   5.384   7.631  0.8983 -0.6330 -2.5083
 7071TIP3    H242849   3.491   5.450   7.515  0.0203  2.5877 -0.2791
 7072TIP3   OH242850   4.270   6.628   0.833  1.2042 -0.1627 -0.0298
 7072TIP3    H142851   4.246   6.706   0.882  1.1498 -0.2732  0.1202
 7072TIP3    H242852   4.243   6.555   0.889  2.1375 -0.2976  0.2635
 7073TIP3   OH242853   1.558   1.684   1.412  0.4634  0.1535 -0.0262
 7073TIP3    H142854   1.489   1.618   1.404  0.8186 -0.0032 -2.6331
 7073TIP3    H242855   1.528   1.757   1.358  1.7389  0.6236 -0.1336
 7074TIP3   OH242856   2.215   2.802   0.350  0.4068  0.4757  0.2927
 7074TIP3    H142857   2.241   2.779   0.439 -2.5415 -1.3111  0.8267
 7074TIP3    H242858   2.122   2.824   0.358  0.2254  0.9105 -2.2708
 7075TIP3   OH242859   3.760   5.644   1.016  0.2499  0.3714  0.1678
 7075TIP3    H142860   3.742   5.664   1.108 -0.0900  0.7080  0.0318
 7075TIP3    H242861   3.759   5.729   0.973  1.1294  0.2949 -0.0316
 7076TIP3   OH242862   6.343   0.926   8.472 -0.5567 -0.1678 -0.3863
 7076TIP3    H142863   6.430   0.899   8.442 -0.2997 -0.0688  0.2603
 7076TIP3    H242864   6.338   1.019   8.450  0.9421  0.8108  2.7227
 7077TIP3   OH242865   2.921   2.083   6.459 -0.0446 -0.7649 -0.0708
 7077TIP3    H142866   2.921   2.178   6.474 -0.6969 -0.7837  0.0853
 7077TIP3    H242867   2.839   2.067   6.412 -1.1383 -1.5638  1.9963
 7078TIP3   OH242868   6.486   3.107   7.649  0.1037 -0.4853  0.5110
 7078TIP3    H142869   6.420   3.144   7.708  1.2266 -1.6130  2.6001
 7078TIP3    H242870   6.521   3.183   7.601 -1.6598  0.3048  0.4187
 7079TIP3   OH242871   4.424   3.295   6.972  0.0469 -0.1087 -0.6422
 7079TIP3    H142872   4.443   3.389   6.964  0.8697 -0.0729  1.2397
 7079TIP3    H242873   4.437   3.260   6.884  0.4215  1.4239 -1.2236
 7080TIP3   OH242874   0.656   3.703   1.187  0.8282  0.1865  0.6469
 7080TIP3    H142875   0.604   3.627   1.213  2.8529 -1.6334 -0.3137
 7080TIP3    H242876   0.678   3.746   1.270 -1.2686  0.4353  1.1379
 7081TIP3   OH242877   6.855   3.195   0.845 -0.3477  0.2190 -0.0399
 7081TIP3    H142878   6.877   3.223   0.756  0.5973  2.2275  0.7642
 7081TIP3    H242879   6.838   3.276   0.892  0.0435 -0.7349  1.8480
 7082TIP3   OH242880   1.106   0.148   1.647 -0.3087 -0.4276  0.6643
 7082TIP3    H142881   1.177   0.213   1.645  0.2172 -0.9999  0.7087
 7082TIP3    H242882   1.048   0.179   1.716  0.5035 -0.5792  1.4328
 7083TIP3   OH242883   3.235   0.324   8.182 -0.3894 -0.4918 -0.2091
 7083TIP3    H142884   3.159   0.382   8.190  0.7667  0.9501  1.1193
 7083TIP3    H242885   3.278   0.330   8.267  0.6213 -2.1467 -0.5613
 7084TIP3   OH242886   0.680   0.713   7.386  0.1746 -0.0425 -0.2810
 7084TIP3    H142887   0.765   0.716   7.341 -0.3420  0.6942 -1.2288
 7084TIP3    H242888   0.636   0.636   7.349 -0.2676  0.5876 -1.1104
 7085TIP3   OH242889   1.085   1.851   1.812  0.3139  0.0686  0.5923
 7085TIP3    H142890   1.008   1.800   1.837  0.3126  0.5246  1.5471
 7085TIP3    H242891   1.157   1.788   1.814  0.0920 -0.1913  0.4455
 7086TIP3   OH242892   0.026   0.542   2.475 -0.4342 -0.8672  0.0450
 7086TIP3    H142893  -0.017   0.620   2.511 -0.0522  0.0213 -1.3422
 7086TIP3    H242894  -0.028   0.469   2.506 -1.0426 -0.0338  1.0343
 7087TIP3   OH242895   6.345   6.899   2.088  0.5671 -0.5815  0.2254
 7087TIP3    H142896   6.308   6.848   2.161 -1.3288  0.0173 -0.2398
 7087TIP3    H242897   6.352   6.988   2.122  1.1341 -0.5956  0.1486
 7088TIP3   OH242898   4.248   4.886   0.527  0.3401  0.4740 -0.1343
 7088TIP3    H142899   4.208   4.800   0.515  1.1707 -0.2103  1.6492
 7088TIP3    H242900   4.233   4.931   0.444  0.4533 -1.6195 -1.3694
 7089TIP3   OH242901   1.032   0.771   0.798 -0.2317  0.4155 -0.2216
 7089TIP3    H142902   1.085   0.704   0.842 -1.9221  0.3667  1.9441
 7089TIP3    H242903   1.047   0.851   0.849 -1.7427  0.5223  0.1116
 7090TIP3   OH242904   6.294   4.820   0.280  0.0870  0.4049  0.6440
 7090TIP3    H142905   6.231   4.833   0.209  0.4621 -0.8634  0.0583
 7090TIP3    H242906   6.258   4.870   0.353 -0.1878  1.9413 -0.4871
 7091TIP3   OH242907   4.818   4.165   2.275 -0.1033  0.0476  0.1937
 7091TIP3    H142908   4.771   4.120   2.205 -1.6787  1.2817  0.3960
 7091TIP3    H242909   4.781   4.129   2.356  0.2357  0.1096  0.3798
 7092TIP3   OH242910   6.440   6.106   8.278 -0.3076  0.3548 -0.5908
 7092TIP3    H142911   6.521   6.149   8.303  1.1880 -1.7696 -1.4660
 7092TIP3    H242912   6.446   6.019   8.317 -2.0680  0.0571 -0.8896
 7093TIP3   OH242913   2.400   3.172   7.396 -0.2940  0.1493  0.4121
 7093TIP3    H142914   2.462   3.231   7.354 -1.5980  0.4810 -1.1704
 7093TIP3    H242915   2.325   3.227   7.417 -0.6344 -0.5174  1.0088
 7094TIP3   OH242916   1.194   1.102   7.139  0.2749 -0.0470 -0.0330
 7094TIP3    H142917   1.121   1.156   7.167  0.8184 -0.0423  1.5011
 7094TIP3    H242918   1.155   1.019   7.112 -0.2995 -0.0843  0.8843
 7095TIP3   OH242919   0.427   2.864   7.623 -0.3250 -0.7530  0.1935
 7095TIP3    H142920   0.399   2.937   7.679  1.3405 -0.2384  0.4220
 7095TIP3    H242921   0.521   2.877   7.613 -0.3693 -1.5494 -1.7218
 7096TIP3   OH242922   6.401   1.337   0.075  0.0499 -0.2434 -0.5147
 7096TIP3    H142923   6.377   1.252   0.112 -0.6952 -0.4295 -1.3768
 7096TIP3    H242924   6.343   1.400   0.118 -0.7568 -0.4468 -1.2906
 7097TIP3   OH242925   0.895   4.005   1.571 -0.4334 -0.1284 -0.7621
 7097TIP3    H142926   0.888   3.916   1.607  2.2329 -0.4937 -0.9649
 7097TIP3    H242927   0.963   3.999   1.504 -0.2196  2.0533 -0.8181
 7098TIP3   OH242928   4.914   2.256   8.226 -0.2136  0.1574  0.2463
 7098TIP3    H142929   4.943   2.311   8.152  0.5723 -1.0770 -0.4054
 7098TIP3    H242930   4.924   2.166   8.193  1.5354 -0.4882  2.3247
 7099TIP3   OH242931   3.264   1.428   1.526 -0.0179  0.0943 -0.2836
 7099TIP3    H142932   3.190   1.367   1.534 -0.9162  1.3627  1.8282
 7099TIP3    H242933   3.338   1.381   1.563 -0.3861 -0.2042  0.0862
 7100TIP3   OH242934   3.442   2.225   2.081  0.5365  0.3544  0.9538
 7100TIP3    H142935   3.392   2.243   2.161 -0.1793 -0.7555  0.7792
 7100TIP3    H242936   3.488   2.143   2.100 -1.0385 -0.9067 -0.3625
 7101TIP3   OH242937   0.663   6.600   2.348 -0.3742  0.6141 -0.0323
 7101TIP3    H142938   0.742   6.546   2.345 -1.0514 -0.4030  0.0336
 7101TIP3    H242939   0.628   6.585   2.435 -1.9118 -0.8501 -0.8360
 7102TIP3   OH242940   5.672   3.689   6.731  0.7404 -0.3181  0.3886
 7102TIP3    H142941   5.667   3.596   6.707  2.4565 -0.4039  0.2638
 7102TIP3    H242942   5.762   3.701   6.762 -0.0677  0.8464  2.4533
 7103TIP3   OH242943   2.153   2.966   0.735  0.4201 -0.7167  0.6273
 7103TIP3    H142944   2.085   2.922   0.684  1.4235 -0.9406 -0.5930
 7103TIP3    H242945   2.141   3.059   0.716 -0.2203 -0.6531  1.3050
 7104TIP3   OH242946   1.248   2.518   1.982  0.7872  0.0020 -0.4088
 7104TIP3    H142947   1.179   2.569   1.941  0.3626 -1.2773 -1.3434
 7104TIP3    H242948   1.218   2.504   2.072 -0.6467 -1.3170 -1.0572
 7105TIP3   OH242949   2.365   5.676   0.677 -0.1139 -0.0250 -0.4951
 7105TIP3    H142950   2.421   5.751   0.659  0.2848 -0.2830 -0.3446
 7105TIP3    H242951   2.310   5.704   0.751 -1.0257  0.6561 -1.4071
 7106TIP3   OH242952   0.876   3.432   0.702  0.2662  0.0769  0.4226
 7106TIP3    H142953   0.880   3.512   0.756 -1.8864  0.2527  0.4088
 7106TIP3    H242954   0.845   3.365   0.763 -0.0778 -0.2189 -0.0746
 7107TIP3   OH242955   3.965   4.887   6.551  0.5792  0.7364 -0.2304
 7107TIP3    H142956   3.896   4.905   6.487  0.7298 -0.5742 -0.7902
 7107TIP3    H242957   3.943   4.801   6.586  1.6169  0.5471 -0.0142
 7108TIP3   OH242958   5.561   6.900   7.792  0.1170  0.3429  0.3836
 7108TIP3    H142959   5.475   6.895   7.750  1.6839  0.4310 -3.2428
 7108TIP3    H242960   5.587   6.992   7.780  0.6244  0.3855  1.6992
 7109TIP3   OH242961   0.933   4.880   0.351  0.3368 -0.4528 -0.0697
 7109TIP3    H142962   0.897   4.793   0.336  2.7806 -1.2201 -2.3740
 7109TIP3    H242963   0.981   4.872   0.434 -0.8030 -0.7488  0.5909
 7110TIP3   OH242964   5.079   0.875   1.272  0.0276  0.4965 -0.3418
 7110TIP3    H142965   5.068   0.965   1.304  0.1554  1.4789 -2.7861
 7110TIP3    H242966   5.135   0.833   1.337 -0.8132  1.8772  1.3689
 7111TIP3   OH242967   5.537   6.101   7.338  0.1977  0.1004  0.0611
 7111TIP3    H142968   5.510   6.133   7.425 -0.9760 -0.1805 -0.1858
 7111TIP3    H242969   5.625   6.066   7.352 -0.2958 -0.7141  1.3343
 7112TIP3   OH242970   3.799   6.792   1.372 -0.1197 -0.1742 -0.3477
 7112TIP3    H142971   3.817   6.876   1.330  2.6492 -0.2525  0.4293
 7112TIP3    H242972   3.883   6.745   1.367 -1.1174 -2.1951  0.7438
 7113TIP3   OH242973   0.789   0.406   7.354 -0.2322 -0.0239  0.5222
 7113TIP3    H142974   0.797   0.488   7.305  0.3199 -0.4345 -0.0910
 7113TIP3    H242975   0.731   0.351   7.302  1.1586 -0.8409 -0.2218
 7114TIP3   OH242976   2.266   4.458   0.074  0.2387  0.2027 -0.0008
 7114TIP3    H142977   2.189   4.409   0.045  0.0456  0.8319 -0.5796
 7114TIP3    H242978   2.295   4.412   0.153 -2.1969  1.3459  1.6910
 7115TIP3   OH242979   2.039   1.051   7.392  0.4582  0.2016 -0.1970
 7115TIP3    H142980   1.980   1.069   7.465  1.6742  2.3727  0.3449
 7115TIP3    H242981   1.986   1.066   7.314 -0.0180  1.0467  0.2717
 7116TIP3   OH242982   5.591   4.750   1.652  0.3351  0.0897  0.2151
 7116TIP3    H142983   5.615   4.819   1.714  1.4918 -1.0781  1.1125
 7116TIP3    H242984   5.522   4.701   1.696 -0.5020  0.6543 -0.4326
 7117TIP3   OH242985   0.013   3.883   1.880  0.0190  0.3736  0.0653
 7117TIP3    H142986   0.092   3.913   1.836 -0.0853  1.7754  0.7547
 7117TIP3    H242987   0.038   3.801   1.922  0.7652  0.2101 -0.6724
 7118TIP3   OH242988   0.551   0.212   7.971 -0.2542 -0.0467 -0.1797
 7118TIP3    H142989   0.576   0.121   7.955 -2.3710 -0.3090 -2.4982
 7118TIP3    H242990   0.484   0.207   8.040  1.0049  0.0080  1.0972
 7119TIP3   OH242991   5.115   4.498   1.552 -0.1351 -0.5445 -0.7618
 7119TIP3    H142992   5.167   4.466   1.626 -0.4694 -0.6241 -0.5600
 7119TIP3    H242993   5.118   4.593   1.560 -1.9605 -0.5374  0.6402
 7120TIP3   OH242994   1.130   5.839   1.211 -0.2791 -0.1456  0.1791
 7120TIP3    H142995   1.040   5.827   1.241  0.0938 -1.6767  0.7727
 7120TIP3    H242996   1.164   5.910   1.265 -1.0366  0.2580  0.1404
 7121TIP3   OH242997   2.708   4.362   2.444 -0.7387 -0.2222  0.8700
 7121TIP3    H142998   2.631   4.354   2.499 -0.6817 -1.8709  0.7467
 7121TIP3    H242999   2.755   4.438   2.480 -0.8449 -1.0631  2.9223
 7122TIP3   OH243000   1.525   3.152   2.418  0.5832  0.2297 -0.3419
 7122TIP3    H143001   1.544   3.086   2.484  0.1158  0.7252  0.3030
 7122TIP3    H243002   1.460   3.209   2.459  1.5511  1.5514 -0.5919
 7123TIP3   OH243003   6.467   2.891   0.351  0.1680  0.3048  0.2105
 7123TIP3    H143004   6.403   2.941   0.301 -0.7853 -0.4991  0.5990
 7123TIP3    H243005   6.435   2.801   0.348  1.1511 -0.0754  0.6268
 7124TIP3   OH243006   1.891   6.314   8.607  0.0477  0.3569 -0.1085
 7124TIP3    H143007   1.983   6.343   8.604  0.8414 -1.2097  3.7076
 7124TIP3    H243008   1.841   6.395   8.619  0.9775  1.1425 -1.2518
 7125TIP3   OH243009   2.283   4.845   1.644  0.3360  0.0430 -0.0377
 7125TIP3    H143010   2.242   4.866   1.560 -1.8474 -0.5742  0.8061
 7125TIP3    H243011   2.375   4.868   1.632  0.0586  0.1257 -2.5288
 7126TIP3   OH243012   3.739   3.837   0.739  0.3244 -0.1565 -0.2684
 7126TIP3    H143013   3.770   3.921   0.703 -1.6887  0.7001 -0.1294
 7126TIP3    H243014   3.644   3.845   0.738  0.1055 -1.0943  2.9277
 7127TIP3   OH243015   1.326   6.462   0.542 -0.1461 -0.3626 -0.0635
 7127TIP3    H143016   1.255   6.497   0.487 -1.4586 -0.9185  1.2111
 7127TIP3    H243017   1.377   6.539   0.567 -0.4522  0.0872 -0.7732
 7128TIP3   OH243018   3.700   6.527   0.364  0.8570  0.0641 -0.3831
 7128TIP3    H143019   3.685   6.611   0.320  0.2666  1.1666  1.8019
 7128TIP3    H243020   3.722   6.466   0.293 -2.9939  0.9742 -2.6176
 7129TIP3   OH243021   1.098   0.265   7.844 -0.9245  0.3021 -0.3657
 7129TIP3    H143022   1.081   0.217   7.762 -2.2311  1.0765 -0.5844
 7129TIP3    H243023   1.165   0.214   7.888 -1.1230 -0.8506 -1.3302
 7130TIP3   OH243024   4.291   3.125   7.416  0.3637 -0.3812  0.6157
 7130TIP3    H143025   4.289   3.162   7.329  0.9606  2.0722  1.5750
 7130TIP3    H243026   4.281   3.030   7.402 -2.1850  0.1342 -1.8881
 7131TIP3   OH243027   2.255   6.644   7.460  0.5742 -0.7523 -0.3456
 7131TIP3    H143028   2.172   6.614   7.498 -0.2055 -0.2918 -1.6255
 7131TIP3    H243029   2.237   6.733   7.431  2.0252 -0.0367  0.8186
 7132TIP3   OH243030   0.131   4.865   1.481  0.1582  0.1467  0.3791
 7132TIP3    H143031   0.226   4.871   1.473 -0.0543  4.3319 -1.8846
 7132TIP3    H243032   0.116   4.849   1.574  3.0327 -1.0683  0.7343
 7133TIP3   OH243033   3.673   3.309   0.479  0.3399 -0.0999  0.2658
 7133TIP3    H143034   3.700   3.239   0.539  0.6355 -0.7814 -0.6330
 7133TIP3    H243035   3.735   3.303   0.407 -1.3728 -0.8299 -1.2256
 7134TIP3   OH243036   6.448   4.859   0.994  0.0302 -0.6735  0.7834
 7134TIP3    H143037   6.492   4.894   0.917  0.2385 -0.1966  1.1153
 7134TIP3    H243038   6.420   4.937   1.042 -2.0064 -0.9316  0.1165
 7135TIP3   OH243039   3.732   0.165   7.745  0.1385 -0.0049 -0.4052
 7135TIP3    H143040   3.733   0.221   7.667  0.3581  1.6380  0.7383
 7135TIP3    H243041   3.639   0.159   7.769  0.1087 -0.1978 -0.5648
 7136TIP3   OH243042   5.260   1.449   0.635  0.5201 -0.4545 -0.4083
 7136TIP3    H143043   5.314   1.370   0.637  2.3903  0.7529 -0.8916
 7136TIP3    H243044   5.200   1.439   0.709  3.3472 -0.5832  2.0632
 7137TIP3   OH243045   3.540   5.956   0.327  0.0096  0.1777  0.4287
 7137TIP3    H143046   3.580   5.982   0.410 -0.7874 -0.8397  1.1627
 7137TIP3    H243047   3.608   5.971   0.261  0.7928  0.6172  1.3192
 7138TIP3   OH243048   5.988   5.959   0.747  0.3764  0.3799 -0.1559
 7138TIP3    H143049   6.078   5.990   0.732  1.2461 -1.1533  1.5394
 7138TIP3    H243050   5.998   5.874   0.789 -1.8528  0.8325  1.4898
 7139TIP3   OH243051   5.083   1.841   1.559 -0.5280  0.2480  0.4363
 7139TIP3    H143052   5.177   1.826   1.553 -0.4722  0.4473  0.7697
 7139TIP3    H243053   5.073   1.901   1.633 -0.7624  1.6092 -0.6696
 7140TIP3   OH243054   5.714   1.126   2.272 -0.5904 -0.2055 -0.3688
 7140TIP3    H143055   5.729   1.032   2.282 -1.0046 -0.4711 -2.0088
 7140TIP3    H243056   5.688   1.155   2.360 -0.2120 -1.5567  0.2230
 7141TIP3   OH243057   3.040   0.463   1.184  0.5547  0.0254  0.2282
 7141TIP3    H143058   3.083   0.417   1.257  0.3262 -0.2012  0.2234
 7141TIP3    H243059   3.112   0.496   1.131  0.7385  1.1034  1.1144
 7142TIP3   OH243060   1.313   6.154   7.386 -0.4255  0.1370  0.0736
 7142TIP3    H143061   1.282   6.244   7.393 -0.4019  0.2489 -1.1264
 7142TIP3    H243062   1.325   6.140   7.292  1.2541 -0.5438  0.3545
 7143TIP3   OH243063   1.493   3.564   0.939  0.0230 -0.0036  0.3571
 7143TIP3    H143064   1.540   3.512   0.874 -0.0045  0.1351  0.2245
 7143TIP3    H243065   1.496   3.654   0.905  0.2527  0.1177  0.6837
 7144TIP3   OH243066   5.450   6.780   1.353 -0.2122 -0.3453  0.4138
 7144TIP3    H143067   5.499   6.717   1.406  0.6392  1.3933  1.7934
 7144TIP3    H243068   5.433   6.853   1.412 -1.2756  0.6857 -1.0922
 7145TIP3   OH243069   1.484   5.677   2.126 -0.3713  0.2255  0.5271
 7145TIP3    H143070   1.435   5.703   2.204 -0.9878 -2.5470  1.1944
 7145TIP3    H243071   1.425   5.695   2.053  0.0090  2.3665  0.6964
 7146TIP3   OH243072   3.774   5.093   8.298  0.2035  0.3057 -0.5006
 7146TIP3    H143073   3.689   5.127   8.327  0.4201 -0.7448  1.5755
 7146TIP3    H243074   3.754   5.010   8.256  0.1953 -0.0102  0.1160
 7147TIP3   OH243075   2.179   4.510   7.455 -0.3620 -1.1618  1.0662
 7147TIP3    H143076   2.219   4.562   7.386 -1.1406 -0.0529  1.4160
 7147TIP3    H243077   2.205   4.553   7.537  0.1485 -2.1669  1.4456
 7148TIP3   OH243078   2.029   6.073   7.670 -0.6138 -0.1041  0.0169
 7148TIP3    H143079   2.085   6.093   7.745 -0.7782 -0.1786  0.1619
 7148TIP3    H243080   1.982   6.154   7.652 -0.8374 -0.1858  0.2232
 7149TIP3   OH243081   3.444   0.498   6.397  0.0786  0.0855  0.2707
 7149TIP3    H143082   3.357   0.468   6.422  0.1771 -1.1694 -0.8035
 7149TIP3    H243083   3.504   0.437   6.441  0.3936  0.3746  0.2495
 7150TIP3   OH243084   2.820   2.858   0.392  0.1041  0.3247  0.3828
 7150TIP3    H143085   2.726   2.840   0.379 -0.1543  1.3889  0.7132
 7150TIP3    H243086   2.824   2.906   0.475  1.0058 -0.1639  0.6356
 7151TIP3   OH243087   4.862   2.055   7.633  0.2367 -0.1400 -0.0409
 7151TIP3    H143088   4.843   2.132   7.687 -1.1683  0.3724 -1.2099
 7151TIP3    H243089   4.777   2.017   7.614  0.9237 -2.2025  0.7494
 7152TIP3   OH243090   5.035   6.436   0.980  0.5204 -0.1286  0.0988
 7152TIP3    H143091   5.058   6.529   0.984  1.9578 -0.4722  0.4436
 7152TIP3    H243092   4.965   6.431   0.915  1.8175  0.9437 -1.4540
 7153TIP3   OH243093   4.551   0.718   8.510  0.2309 -0.1084  0.5502
 7153TIP3    H143094   4.548   0.711   8.415  1.7735  0.2388  0.4487
 7153TIP3    H243095   4.644   0.708   8.532 -0.0072  0.5030  1.9492
 7154TIP3   OH243096   6.020   6.837   7.946  0.1046 -0.1775 -0.1188
 7154TIP3    H143097   5.995   6.815   8.036 -1.5301 -0.6523 -0.6573
 7154TIP3    H243098   6.009   6.932   7.940 -0.0199 -0.1756  0.1198
 7155TIP3   OH243099   0.744   4.979   1.333 -1.1410 -0.4790  0.0176
 7155TIP3    H143100   0.690   5.014   1.404  1.0540 -1.6118  2.4385
 7155TIP3    H243101   0.726   4.885   1.332 -0.0319 -0.7139  0.1780
 7156TIP3   OH243102   5.718   1.792   0.266 -0.1861 -0.8752  0.1875
 7156TIP3    H143103   5.665   1.713   0.256 -2.1820  0.4679 -0.4727
 7156TIP3    H243104   5.694   1.826   0.352 -0.6784 -0.0665 -0.2632
 7157TIP3   OH243105   3.271   4.487   0.893 -0.8910  0.1968 -0.0094
 7157TIP3    H143106   3.176   4.484   0.880 -0.9304 -0.3344  0.3771
 7157TIP3    H243107   3.281   4.510   0.986 -0.6621 -1.2693  0.3468
 7158TIP3   OH243108   1.323   5.976   0.824 -0.0778  0.4932 -0.0099
 7158TIP3    H143109   1.232   5.988   0.851  0.6438  0.4280  2.7781
 7158TIP3    H243110   1.367   6.057   0.850  1.0581 -0.3467  0.7835
 7159TIP3   OH243111   0.826   5.694   1.065  0.2964 -0.1195  0.6089
 7159TIP3    H143112   0.860   5.614   1.104  0.3697 -1.0091 -1.1656
 7159TIP3    H243113   0.783   5.740   1.137 -0.5155 -2.1783  1.5146
 7160TIP3   OH243114   5.338   6.325   8.334 -0.7346  0.0199 -0.0773
 7160TIP3    H143115   5.337   6.420   8.320  0.3852 -0.1569 -1.6741
 7160TIP3    H243116   5.306   6.289   8.251 -0.4720 -1.0075  0.2619
 7161TIP3   OH243117   1.587   1.108   0.970 -0.0780 -0.3225  0.7459
 7161TIP3    H143118   1.576   1.015   0.992  0.4079 -0.6919 -0.5240
 7161TIP3    H243119   1.674   1.114   0.933  0.2813  0.8441  1.7152
 7162TIP3   OH243120   4.343   4.948   7.026 -0.0850 -0.1701  0.1472
 7162TIP3    H143121   4.257   4.935   7.065 -0.3333 -2.0447 -0.9371
 7162TIP3    H243122   4.384   4.862   7.028  0.5642  0.0246 -2.0697
 7163TIP3   OH243123   1.742   4.762   8.171  0.5113  0.5256 -0.7569
 7163TIP3    H143124   1.783   4.739   8.255 -3.6676 -1.6257  1.0184
 7163TIP3    H243125   1.671   4.822   8.195 -2.1546 -1.7645 -2.2381
 7164TIP3   OH243126   1.389   2.222   0.440  0.1751 -0.5013 -0.0803
 7164TIP3    H143127   1.362   2.148   0.494  0.2176  0.0564  0.7203
 7164TIP3    H243128   1.443   2.183   0.371  2.3920 -0.9540  1.8047
 7165TIP3   OH243129   3.726   0.857   8.367  0.1853 -0.2815  0.0161
 7165TIP3    H143130   3.751   0.922   8.433 -1.8170 -0.4676  1.0408
 7165TIP3    H243131   3.809   0.816   8.341  1.1522  0.5541  1.6194
 7166TIP3   OH243132   2.553   3.176   0.684  0.5945 -0.1638 -0.5294
 7166TIP3    H143133   2.560   3.266   0.715  0.6712 -0.1184 -0.6792
 7166TIP3    H243134   2.466   3.172   0.643 -0.5449 -0.8662  1.7824
 7167TIP3   OH243135   1.466   0.203   0.907 -0.1929  0.0209  0.0201
 7167TIP3    H143136   1.438   0.291   0.932 -0.9258 -0.6527  1.7511
 7167TIP3    H243137   1.471   0.155   0.990  2.2145 -1.0369 -0.6363
 7168TIP3   OH243138   2.437   2.622   0.869 -0.5405 -0.0177  0.6425
 7168TIP3    H143139   2.375   2.655   0.934 -1.4636 -2.7367  1.2555
 7168TIP3    H243140   2.507   2.583   0.921 -0.6700 -1.1163  0.0129
 7169TIP3   OH243141   3.597   6.610   8.246 -0.5424 -0.3095  0.1800
 7169TIP3    H143142   3.661   6.580   8.181 -0.4554 -1.8410  0.9205
 7169TIP3    H243143   3.603   6.705   8.244  0.4723 -0.3763 -1.0392
 7170TIP3   OH243144   2.151   4.609   8.158  0.0506  0.3473 -0.4017
 7170TIP3    H143145   2.223   4.653   8.203  1.7313 -1.0797 -1.5581
 7170TIP3    H243146   2.095   4.681   8.127 -0.5883  1.4325  2.8029
 7171TIP3   OH243147   5.336   4.690   8.370  0.2194 -0.5127  0.1193
 7171TIP3    H143148   5.416   4.638   8.380 -0.2586 -1.1021  1.1609
 7171TIP3    H243149   5.346   4.762   8.432  0.1934 -0.2769 -0.1542
 7172TIP3   OH243150   4.024   5.708   1.073 -0.3414  0.5335 -0.3154
 7172TIP3    H143151   3.952   5.670   1.123  0.7909 -0.1170  0.8960
 7172TIP3    H243152   4.063   5.634   1.027 -0.0360  0.7716 -0.4441
 7173TIP3   OH243153   1.748   2.493   0.911  0.4362 -0.6157 -0.3075
 7173TIP3    H143154   1.653   2.484   0.915  0.4101  0.1365  2.2713
 7173TIP3    H243155   1.778   2.470   0.999  2.7125 -1.2781 -1.1776
 7174TIP3   OH243156   0.769   1.776   0.905  0.2991 -0.0261 -0.4674
 7174TIP3    H143157   0.693   1.802   0.854 -0.6601 -1.7672 -0.0171
 7174TIP3    H243158   0.761   1.824   0.988 -0.4275 -0.3410 -0.3506
 7175TIP3   OH243159   2.370   0.340   0.584 -0.0382  0.1181 -0.0107
 7175TIP3    H143160   2.333   0.331   0.496 -0.7024 -0.5567  0.3250
 7175TIP3    H243161   2.301   0.308   0.642  0.2764  0.8485  0.7831
 7176TIP3   OH243162   4.509   5.277   7.653  0.4463  0.3200  0.2276
 7176TIP3    H143163   4.460   5.357   7.639 -0.0864 -0.1462 -0.6771
 7176TIP3    H243164   4.442   5.212   7.677  0.6400 -0.2584 -0.7679
 7177LIG     O143165   2.856   1.777   5.938 -0.3060 -0.2197  0.4404
 7177LIG     O243166   2.444   1.589   6.032 -0.6190  0.2818  0.1325
 7177LIG     N143167   2.587   1.640   6.212 -0.0016  0.3329  0.0989
 7177LIG     N243168   2.902   1.800   6.237 -0.3041  0.1727  0.1415
 7177LIG     N343169   2.648   1.677   5.986 -0.6136 -0.4372  0.0533
 7177LIG     N443170   2.759   1.710   6.380 -0.7134  0.2216 -0.3482
 7177LIG     C143171   2.796   1.752   6.158  0.4541 -0.0472 -0.5260
 7177LIG     C243172   2.706   1.699   6.253  0.3392  0.2070  0.2139
 7177LIG     C343173   2.778   1.738   6.022 -0.1739  0.3603 -0.1032
 7177LIG     C443174   2.549   1.638   6.074 -0.0213  0.5952  0.4300
 7177LIG     C543175   2.871   1.778   6.372  0.1573 -0.1989  0.6534
 7177LIG     C643176   2.485   1.583   6.300 -0.3113 -0.5196  0.2116
 7177LIG     C743177   3.023   1.861   6.175 -0.0647 -0.3606  0.0222
 7177LIG     C843178   2.609   1.673   5.840  0.2271  0.2946 -0.4692
 7177LIG     H143179   2.931   1.792   6.462  2.0457 -4.6993  0.3499
 7177LIG     H243180   2.531   1.583   6.401  1.7442  1.2552 -0.6315
 7177LIG     H343181   2.463   1.478   6.274  0.0548 -0.8287  1.1039
 7177LIG     H443182   2.383   1.627   6.302 -0.7013 -1.4146  0.6259
 7177LIG     H543183   3.002   1.944   6.104  0.9912 -1.6415 -1.8644
 7177LIG     H643184   3.071   1.791   6.103 -0.3428 -0.3356 -0.1880
 7177LIG     H743185   3.099   1.884   6.253  0.5699  1.0848 -0.9837
 7177LIG     H843186   2.533   1.751   5.819  0.7965  0.1138 -3.5704
 7177LIG     H943187   2.553   1.580   5.815  1.3664 -0.8045  0.8262
 7177LIG    H1043188   2.700   1.687   5.778  0.6710  0.0537  0.1178
   6.90146   6.90146   8.64548
