Title
43188
    1CHL1    C3    1   1.492   6.779   6.073  0.5936  0.2225  0.5628
    1CHL1    H3    2   1.450   6.879   6.097  0.7489  0.4354 -0.0297
    1CHL1    O3    3   1.484   6.715   6.198 -0.2182  0.2860 -0.4356
    1CHL1   H3'    4   1.392   6.697   6.219 -0.4595 -0.4716 -2.0109
    1CHL1    C4    5   1.418   6.703   5.959  0.5396 -0.2942  0.3924
    1CHL1   H4A    6   1.455   6.599   5.952 -0.2572 -0.5129 -0.9447
    1CHL1   H4B    7   1.310   6.711   5.986  0.4917 -0.8665  0.3807
    1CHL1    C5    8   1.434   6.755   5.812 -0.3617 -0.3072 -0.0518
    1CHL1    C6    9   1.331   6.784   5.732 -0.2006  0.4707  0.0264
    1CHL1    H6   10   1.230   6.767   5.770  0.4050 -0.1285  1.4536
    1CHL1    C7   11   1.338   6.854   5.593 -0.1855  0.1135 -0.5798
    1CHL1   H7A   12   1.269   6.798   5.526 -2.0069  2.8086 -1.1276
    1CHL1   H7B   13   1.310   6.961   5.604  3.7371  1.1575  0.6004
    1CHL1    C8   14   1.483   6.844   5.545  0.0346  0.4137  0.2504
    1CHL1    H8   15   1.508   6.744   5.504  0.0003  0.7502 -0.6132
    1CHL1   C14   16   1.499   6.938   5.428  0.2325 -0.4718  0.4424
    1CHL1   H14   17   1.475   7.043   5.451  0.9008  0.0045 -0.9159
    1CHL1   C15   18   1.411   6.910   5.307 -0.0597 -0.1617 -0.1864
    1CHL1  H15A   19   1.404   6.801   5.285 -0.7538  0.3924 -3.1174
    1CHL1  H15B   20   1.312   6.961   5.316  0.0229 -0.2945  2.1095
    1CHL1   C16   21   1.488   6.968   5.187 -0.6997 -0.6952 -0.1197
    1CHL1  H16A   22   1.501   6.890   5.110 -0.6443  0.6985 -1.5858
    1CHL1  H16B   23   1.430   7.047   5.134  1.5927  0.6534 -0.7511
    1CHL1   C17   24   1.621   7.024   5.243 -0.7659  0.1344  0.6052
    1CHL1   H17   25   1.607   7.130   5.270 -1.9637  0.0776  0.2636
    1CHL1   C13   26   1.642   6.943   5.372  0.0013 -0.5375 -0.3034
    1CHL1   C18   27   1.694   6.801   5.327 -0.0252 -0.5809  0.9223
    1CHL1  H18A   28   1.690   6.724   5.407  1.9879 -0.1298  1.5114
    1CHL1  H18B   29   1.630   6.752   5.251  0.1126 -0.1717  0.5390
    1CHL1  H18C   30   1.798   6.809   5.289  0.4350 -2.5308  1.6631
    1CHL1   C12   31   1.726   7.011   5.480 -0.6976 -0.5485  0.4403
    1CHL1  H12A   32   1.831   7.024   5.447 -0.4738 -3.2587 -0.1828
    1CHL1  H12B   33   1.691   7.109   5.518 -0.4031 -0.8678  1.5905
    1CHL1   C11   34   1.725   6.921   5.612  0.0603 -0.2868  0.2846
    1CHL1  H11A   35   1.775   6.825   5.589  0.0092 -0.0185 -1.0064
    1CHL1  H11B   36   1.777   6.983   5.689 -0.8205  1.4563 -0.4559
    1CHL1    C9   37   1.579   6.888   5.654 -0.5793 -0.4188 -0.3843
    1CHL1    H9   38   1.549   6.991   5.682  0.0708  0.1348 -1.6185
    1CHL1   C10   39   1.574   6.795   5.777 -0.3207  0.1076 -0.1183
    1CHL1   C19   40   1.639   6.656   5.739  0.2284  0.3987  0.8105
    1CHL1  H19A   41   1.631   6.631   5.631 -2.3979 -0.7150  1.2060
    1CHL1  H19B   42   1.749   6.662   5.756  0.7230  0.4194 -1.9519
    1CHL1  H19C   43   1.603   6.569   5.796  1.8882 -2.7792 -2.5765
    1CHL1    C1   44   1.645   6.866   5.891 -0.7260  0.1184 -0.1092
    1CHL1   H1A   45   1.754   6.885   5.876  0.0593 -1.5030  2.8173
    1CHL1   H1B   46   1.603   6.967   5.907  0.7095  1.3212 -3.1010
    1CHL1    C2   47   1.642   6.790   6.027 -0.7180 -0.0266  0.2765
    1CHL1   H2A   48   1.707   6.838   6.103  0.8287  0.2298 -1.1656
    1CHL1   H2B   49   1.673   6.686   6.001  0.7087  0.6974 -1.0794
    1CHL1   C20   50   1.724   7.022   5.128 -0.0184 -0.0196 -0.6156
    1CHL1   H20   51   1.729   6.922   5.080  3.5348  0.7597 -2.1728
    1CHL1   C21   52   1.874   7.052   5.172  0.5176 -0.5760  0.4798
    1CHL1  H21A   53   1.944   7.029   5.089 -0.9463 -0.9985 -0.6560
    1CHL1  H21B   54   1.910   6.985   5.254  2.4164  0.7829  0.8451
    1CHL1  H21C   55   1.887   7.159   5.202  0.1637  0.6034 -3.1050
    1CHL1   C22   56   1.678   7.127   5.027  0.4004  0.0548 -0.0991
    1CHL1  H22A   57   1.576   7.100   4.992  0.6864 -0.3616 -0.6339
    1CHL1  H22B   58   1.669   7.228   5.072 -0.8687  0.1389 -0.5062
    1CHL1   C23   59   1.769   7.144   4.904  0.6890  0.1656 -0.5350
    1CHL1  H23A   60   1.734   7.229   4.840 -2.0488  1.5125  2.4798
    1CHL1  H23B   61   1.875   7.166   4.930  1.5342 -1.4662 -2.3049
    1CHL1   C24   62   1.786   7.009   4.825 -0.6881 -0.3637 -0.4271
    1CHL1  H24A   63   1.852   6.938   4.880 -0.0683  0.0443 -0.6327
    1CHL1  H24B   64   1.693   6.952   4.804 -1.2242  0.6360 -0.8442
    1CHL1   C25   65   1.864   7.046   4.703 -0.0746 -0.3943  0.2063
    1CHL1   H25   66   1.941   7.121   4.729 -0.8310 -0.0477  1.5273
    1CHL1   C26   67   1.951   6.932   4.638 -0.1276 -0.9482  0.0022
    1CHL1  H26A   68   2.016   6.894   4.720 -0.2314 -1.0822  0.0224
    1CHL1  H26B   69   1.883   6.854   4.599 -0.6026 -0.3496 -0.3955
    1CHL1  H26C   70   2.007   6.969   4.550 -0.8480  3.1385  1.0405
    1CHL1   C27   71   1.780   7.118   4.593 -0.7349 -0.0656 -0.0983
    1CHL1  H27A   72   1.762   7.225   4.616 -1.3077  0.1587 -1.5178
    1CHL1  H27B   73   1.833   7.110   4.496  0.1961 -0.5748  0.4322
    1CHL1  H27C   74   1.678   7.076   4.583 -1.2611  1.0889  0.2280
    2CHL1    C3   75   6.137   1.360   5.999  0.1048 -0.1936 -0.5287
    2CHL1    H3   76   6.169   1.253   6.000 -1.0895 -0.5623  0.6366
    2CHL1    O3   77   6.134   1.394   6.136 -0.4628 -0.0781  0.0989
    2CHL1   H3'   78   6.079   1.471   6.153  0.3106  1.0898 -2.2333
    2CHL1    C4   79   6.238   1.451   5.924 -0.3305  0.2280 -0.5494
    2CHL1   H4A   80   6.208   1.557   5.943  2.4737  0.7677  1.5326
    2CHL1   H4B   81   6.336   1.435   5.973  0.9088 -1.1154 -3.2439
    2CHL1    C5   82   6.231   1.402   5.780 -0.8471 -0.3144  1.2028
    2CHL1    C6   83   6.344   1.352   5.720  0.2203  0.0515  0.0752
    2CHL1    H6   84   6.432   1.338   5.784  0.6357  0.7386 -0.3294
    2CHL1    C7   85   6.361   1.309   5.578 -0.0753  0.1895  0.6050
    2CHL1   H7A   86   6.449   1.356   5.529 -1.5108  2.7719  0.3446
    2CHL1   H7B   87   6.375   1.199   5.576  0.1815  0.2243 -1.1828
    2CHL1    C8   88   6.241   1.352   5.497 -0.3931 -0.4792 -0.4939
    2CHL1    H8   89   6.252   1.461   5.476 -2.3848 -0.1395  0.0478
    2CHL1   C14   90   6.231   1.269   5.367 -0.1822 -0.8915  0.3158
    2CHL1   H14   91   6.199   1.169   5.403 -1.2331 -1.1516 -1.2422
    2CHL1   C15   92   6.357   1.239   5.289 -0.3165  0.4663 -0.2912
    2CHL1  H15A   93   6.418   1.331   5.281 -1.1739  0.9184 -2.8187
    2CHL1  H15B   94   6.410   1.154   5.336  0.0752  0.1066 -1.3603
    2CHL1   C16   95   6.301   1.195   5.150  0.1154 -0.8747  0.6514
    2CHL1  H16A   96   6.339   1.258   5.067 -2.5006 -0.4300 -0.3243
    2CHL1  H16B   97   6.337   1.094   5.122 -0.1685 -2.0036  3.9339
    2CHL1   C17   98   6.145   1.211   5.150  0.2991 -0.1630  0.4466
    2CHL1   H17   99   6.107   1.111   5.179 -2.0470  1.1608  2.3084
    2CHL1   C13  100   6.125   1.309   5.264  0.0810  0.0907 -0.1224
    2CHL1   C18  101   6.156   1.452   5.213 -0.4615 -0.2953 -0.2236
    2CHL1  H18A  102   6.153   1.528   5.295 -0.4985 -2.5366  1.9633
    2CHL1  H18B  103   6.257   1.465   5.169 -0.3634  3.6144  0.7366
    2CHL1  H18C  104   6.082   1.491   5.141  0.3662  0.1908 -0.8356
    2CHL1   C12  105   5.983   1.313   5.337  0.2370  0.1413  0.4891
    2CHL1  H12A  106   5.902   1.364   5.280  0.7132  1.1044  0.6355
    2CHL1  H12B  107   5.955   1.209   5.362 -0.6055  0.0389 -0.7568
    2CHL1   C11  108   5.985   1.382   5.475  0.1474 -0.5316 -0.0376
    2CHL1  H11A  109   5.979   1.491   5.451  0.1888 -0.4636  0.2598
    2CHL1  H11B  110   5.895   1.365   5.537  0.6082 -0.1658  0.7435
    2CHL1    C9  111   6.103   1.349   5.574 -0.2875  0.2561 -0.2448
    2CHL1    H9  112   6.096   1.241   5.601  2.7468  0.7566  3.2466
    2CHL1   C10  113   6.100   1.416   5.712 -0.6314 -0.1658  0.0401
    2CHL1   C19  114   6.052   1.565   5.693 -0.8886  0.0391 -0.0587
    2CHL1  H19A  115   6.104   1.624   5.615 -0.2556  1.7510  1.5619
    2CHL1  H19B  116   5.943   1.572   5.675 -1.1404  0.7795  1.5064
    2CHL1  H19C  117   6.053   1.610   5.795 -0.8739 -0.2204  0.0576
    2CHL1    C1  118   5.991   1.336   5.794  0.5421  0.5166 -0.1328
    2CHL1   H1A  119   5.888   1.350   5.755 -0.9843 -1.5362  2.7689
    2CHL1   H1B  120   6.003   1.225   5.789 -0.0115  0.4871 -1.2814
    2CHL1    C2  121   5.997   1.373   5.941  0.6432 -0.2094  0.2445
    2CHL1   H2A  122   5.915   1.321   5.996 -0.5638 -0.3397 -1.5847
    2CHL1   H2B  123   5.965   1.480   5.949 -1.7650 -0.8790  0.3520
    2CHL1   C20  124   6.090   1.249   5.017 -0.6410 -0.5881  0.2511
    2CHL1   H20  125   6.133   1.346   4.982  2.6845 -1.0121  2.6175
    2CHL1   C21  126   5.940   1.267   5.025  0.1919 -0.2419 -0.4061
    2CHL1  H21A  127   5.899   1.278   4.922  1.7698  5.0959 -0.7962
    2CHL1  H21B  128   5.905   1.359   5.078  1.0869 -0.5835  0.8310
    2CHL1  H21C  129   5.898   1.176   5.072 -0.2464  0.0624 -0.1920
    2CHL1   C22  130   6.138   1.147   4.903  0.1023 -0.0999  0.2446
    2CHL1  H22A  131   6.247   1.127   4.905  0.1101 -0.2440 -0.7511
    2CHL1  H22B  132   6.083   1.055   4.932 -1.0658  0.3836 -0.3640
    2CHL1   C23  133   6.078   1.156   4.761  0.2787 -0.5374  0.4444
    2CHL1  H23A  134   5.990   1.089   4.755 -0.5293  0.4634  0.9368
    2CHL1  H23B  135   6.064   1.264   4.743 -0.3234 -0.6961 -0.0230
    2CHL1   C24  136   6.182   1.099   4.659  0.3889  0.3694  0.4438
    2CHL1  H24A  137   6.283   1.119   4.700 -0.0037 -0.6459  1.9695
    2CHL1  H24B  138   6.161   0.990   4.654 -0.4904  0.5880 -1.8723
    2CHL1   C25  139   6.168   1.155   4.515  0.3608 -0.1621 -0.0088
    2CHL1   H25  140   6.185   1.264   4.520  1.9977 -0.2884 -1.9784
    2CHL1   C26  141   6.270   1.096   4.429 -0.3240  0.1045  0.2448
    2CHL1  H26A  142   6.372   1.120   4.465 -0.2777 -1.2819  1.0859
    2CHL1  H26B  143   6.256   0.986   4.424  0.4821  0.0508 -2.1890
    2CHL1  H26C  144   6.254   1.128   4.323 -0.3355  0.4785  0.3573
    2CHL1   C27  145   6.034   1.123   4.452  0.2556 -0.5118 -0.6431
    2CHL1  H27A  146   6.015   1.169   4.353 -2.3523  1.4952  0.6481
    2CHL1  H27B  147   6.017   1.014   4.448 -0.0371 -0.7980  3.4968
    2CHL1  H27C  148   5.948   1.157   4.513  0.9939 -0.6563  0.5099
    3CHL1    C3  149   6.086   6.671   5.907  0.0992  0.4759 -0.3208
    3CHL1    H3  150   6.197   6.671   5.898  0.4098  0.4470  2.5987
    3CHL1    O3  151   6.049   6.689   6.042 -0.1072 -0.0353 -0.1366
    3CHL1   H3'  152   6.060   6.780   6.072  0.1644 -0.9760  3.0704
    3CHL1    C4  153   6.027   6.786   5.816 -0.1605 -0.3665 -0.5845
    3CHL1   H4A  154   5.919   6.798   5.840  0.8046  1.8853  3.8772
    3CHL1   H4B  155   6.075   6.877   5.857 -2.7307  1.0716 -0.5963
    3CHL1    C5  156   6.047   6.771   5.669  0.0689  0.1645  0.1749
    3CHL1    C6  157   6.109   6.865   5.591 -0.1713  0.3350 -0.1927
    3CHL1    H6  158   6.138   6.955   5.646 -2.4508 -0.1400  1.9680
    3CHL1    C7  159   6.118   6.844   5.439 -0.0774 -0.5892  0.2054
    3CHL1   H7A  160   6.091   6.940   5.390 -0.6209 -0.9193 -0.1456
    3CHL1   H7B  161   6.227   6.836   5.419 -0.1632 -0.3822 -0.3404
    3CHL1    C8  162   6.026   6.733   5.382  0.4871  0.0760 -0.6913
    3CHL1    H8  163   5.930   6.789   5.382  0.4027 -0.0443  0.5329
    3CHL1   C14  164   6.073   6.697   5.241  0.1866 -0.6389 -0.0069
    3CHL1   H14  165   6.177   6.662   5.259  0.6490  1.3581  1.6027
    3CHL1   C15  166   6.091   6.807   5.132 -0.2012 -1.1107 -0.2426
    3CHL1  H15A  167   6.012   6.884   5.148 -0.0973 -1.2896  1.2805
    3CHL1  H15B  168   6.194   6.843   5.150 -0.7550  2.3066 -2.9255
    3CHL1   C16  169   6.081   6.740   4.995  0.6249 -0.2580 -0.5139
    3CHL1  H16A  170   5.989   6.773   4.941  1.8593  0.4524 -2.3253
    3CHL1  H16B  171   6.163   6.763   4.923 -0.7650  1.9686 -1.5250
    3CHL1   C17  172   6.073   6.583   5.028  0.1367 -0.4599  0.6501
    3CHL1   H17  173   6.175   6.540   5.030 -0.4780 -1.9373  1.9479
    3CHL1   C13  174   6.008   6.579   5.170  0.5286 -0.0309  0.6527
    3CHL1   C18  175   5.855   6.615   5.152 -0.8821 -0.0035 -0.2757
    3CHL1  H18A  176   5.844   6.687   5.068 -0.0314  1.4229  0.7869
    3CHL1  H18B  177   5.806   6.522   5.116 -0.0522 -0.6411  0.1791
    3CHL1  H18C  178   5.790   6.646   5.236 -2.5850 -3.2211 -0.2590
    3CHL1   C12  179   6.019   6.458   5.265  0.8991  0.4036 -0.2143
    3CHL1  H12A  180   5.970   6.364   5.235  1.6317 -0.6811  1.7849
    3CHL1  H12B  181   6.126   6.432   5.277  0.5139 -0.3669  2.1269
    3CHL1   C11  182   5.966   6.490   5.405  0.3600  0.2488  0.1070
    3CHL1  H11A  183   5.857   6.509   5.401  0.5400  2.1116  2.0086
    3CHL1  H11B  184   5.976   6.403   5.473 -2.6166 -1.7577 -1.8007
    3CHL1    C9  185   6.033   6.612   5.474 -0.1495 -0.8309  0.1402
    3CHL1    H9  186   6.143   6.592   5.475  0.1414  0.6746  0.4399
    3CHL1   C10  187   5.994   6.634   5.619  0.7070  0.1286  0.6186
    3CHL1   C19  188   5.839   6.631   5.615  0.3786 -0.0403  0.7694
    3CHL1  H19A  189   5.786   6.698   5.543 -1.9054 -1.2324  1.2372
    3CHL1  H19B  190   5.802   6.526   5.617  0.3238 -0.0558  3.6217
    3CHL1  H19C  191   5.797   6.658   5.714 -0.1149 -0.2629  0.6249
    3CHL1    C1  192   6.042   6.516   5.704  0.3922 -0.5422  0.2415
    3CHL1   H1A  193   5.993   6.421   5.674  0.7224 -0.0071 -2.1742
    3CHL1   H1B  194   6.153   6.515   5.693  0.5770 -1.5346  1.7835
    3CHL1    C2  195   6.021   6.539   5.858 -0.1795 -0.1716  0.2696
    3CHL1   H2A  196   6.073   6.465   5.922  1.2882  2.2294  2.0085
    3CHL1   H2B  197   5.914   6.529   5.889 -0.1567  1.5718  1.0532
    3CHL1   C20  198   6.010   6.502   4.913  0.0959 -0.2440 -0.2033
    3CHL1   H20  199   5.903   6.531   4.901  0.4372  1.6217  1.0259
    3CHL1   C21  200   6.012   6.345   4.950  1.1185 -0.6248 -0.4871
    3CHL1  H21A  201   6.103   6.323   5.011  0.1986 -1.0028  0.8063
    3CHL1  H21B  202   6.018   6.282   4.859  3.2692 -0.9685 -0.1646
    3CHL1  H21C  203   5.926   6.316   5.015  0.7127  0.1145 -0.6918
    3CHL1   C22  204   6.068   6.524   4.770 -0.0403 -0.0003 -0.5384
    3CHL1  H22A  205   6.089   6.631   4.750  0.3265 -0.3412 -2.1074
    3CHL1  H22B  206   6.162   6.468   4.785  0.7334  1.9527  3.0440
    3CHL1   C23  207   5.974   6.476   4.656  0.1052 -0.1918  0.3096
    3CHL1  H23A  208   6.033   6.472   4.562 -0.7573 -0.1090 -0.2375
    3CHL1  H23B  209   5.932   6.374   4.667  2.1063 -1.3070 -1.5689
    3CHL1   C24  210   5.866   6.582   4.625  0.0281 -0.4322 -0.1919
    3CHL1  H24A  211   5.787   6.541   4.559 -2.3372 -0.0554  2.1834
    3CHL1  H24B  212   5.817   6.598   4.724 -0.1883 -0.3359 -0.3159
    3CHL1   C25  213   5.922   6.713   4.561  0.5017 -0.7124 -0.0574
    3CHL1   H25  214   5.989   6.765   4.633 -2.7817  2.5735  0.9756
    3CHL1   C26  215   5.990   6.702   4.421  0.9506  0.3572  0.5811
    3CHL1  H26A  216   5.919   6.640   4.361 -0.3836  1.2333  1.1973
    3CHL1  H26B  217   5.999   6.803   4.375  0.3139  0.4506  0.6490
    3CHL1  H26C  218   6.090   6.654   4.422  0.1119 -1.5032 -0.2459
    3CHL1   C27  219   5.816   6.822   4.551  0.3675  0.0410 -0.4607
    3CHL1  H27A  220   5.771   6.848   4.649 -0.0659 -0.3962 -0.5450
    3CHL1  H27B  221   5.852   6.918   4.507  0.9139 -0.2643 -0.6852
    3CHL1  H27C  222   5.735   6.782   4.487 -0.1799 -0.9248  0.7872
    4CHL1    C3  223   1.039   0.588   6.063  0.1584  0.2170 -0.3188
    4CHL1    H3  224   1.150   0.581   6.062  0.1720 -1.2098  1.9973
    4CHL1    O3  225   0.994   0.538   6.188  0.1087  0.3361 -0.2648
    4CHL1   H3'  226   0.899   0.550   6.189  0.1188  0.3754  0.4892
    4CHL1    C4  227   1.001   0.740   6.050  0.6197  0.4235  0.2084
    4CHL1   H4A  228   0.892   0.746   6.068  0.5588 -0.3324  0.0870
    4CHL1   H4B  229   1.045   0.802   6.131 -0.7342  0.1824  1.1589
    4CHL1    C5  230   1.022   0.784   5.904 -1.2648 -0.5988 -0.0552
    4CHL1    C6  231   1.078   0.903   5.886 -0.3415 -0.0775  0.8806
    4CHL1    H6  232   1.091   0.973   5.970 -0.3349 -0.1122  0.9087
    4CHL1    C7  233   1.104   0.963   5.747  0.5227 -0.3516 -0.2776
    4CHL1   H7A  234   1.057   1.063   5.740 -1.6007 -1.1264  1.3774
    4CHL1   H7B  235   1.214   0.964   5.730  0.6706  2.5128  0.4549
    4CHL1    C8  236   1.039   0.881   5.625  0.1834  0.9027 -0.6637
    4CHL1    H8  237   0.935   0.919   5.631 -0.5895 -1.1110 -0.5517
    4CHL1   C14  238   1.100   0.919   5.489 -0.8520  0.2145  0.0745
    4CHL1   H14  239   1.206   0.887   5.492 -0.8160  0.2989 -0.3397
    4CHL1   C15  240   1.098   1.066   5.457 -0.3769 -0.4902 -0.3184
    4CHL1  H15A  241   0.997   1.100   5.489  0.7668  0.4210  2.6870
    4CHL1  H15B  242   1.170   1.119   5.523 -1.3618  0.8788 -0.2936
    4CHL1   C16  243   1.132   1.077   5.306 -0.1505  0.3231  0.2878
    4CHL1  H16A  244   1.050   1.140   5.264 -0.0817  1.2267  1.4613
    4CHL1  H16B  245   1.226   1.129   5.279 -0.5728  0.5180 -0.8764
    4CHL1   C17  246   1.120   0.930   5.257  0.4587  0.3359  0.0914
    4CHL1   H17  247   1.222   0.886   5.257  0.2522 -0.1439 -0.5259
    4CHL1   C13  248   1.039   0.854   5.366 -0.5728 -0.6320  0.9894
    4CHL1   C18  249   0.889   0.881   5.364  0.0052 -0.2587  0.2183
    4CHL1  H18A  250   0.874   0.988   5.338  1.5406 -0.0622  0.0608
    4CHL1  H18B  251   0.837   0.812   5.293  0.2860 -0.5091  0.2541
    4CHL1  H18C  252   0.839   0.862   5.461 -0.6422  1.8709  0.3389
    4CHL1   C12  253   1.073   0.706   5.385 -0.3037 -0.1050 -0.5726
    4CHL1  H12A  254   1.041   0.645   5.298 -1.9986  0.4558 -0.3657
    4CHL1  H12B  255   1.184   0.701   5.389 -0.2862  0.2357 -0.5961
    4CHL1   C11  256   1.017   0.643   5.515 -0.3338  0.2379  0.3711
    4CHL1  H11A  257   0.907   0.632   5.503 -0.6719  4.0102 -1.1755
    4CHL1  H11B  258   1.063   0.542   5.523  1.0663  0.8674  0.6477
    4CHL1    C9  259   1.047   0.728   5.647 -0.2569 -0.3927  0.5369
    4CHL1    H9  260   1.155   0.710   5.665 -0.4453 -1.0224  1.0944
    4CHL1   C10  261   0.982   0.682   5.787 -0.6330 -0.1674  0.4639
    4CHL1   C19  262   0.833   0.686   5.773  0.4714  0.1777 -0.2093
    4CHL1  H19A  263   0.808   0.622   5.685 -0.3356  1.4246 -0.9208
    4CHL1  H19B  264   0.770   0.658   5.859 -0.2474 -0.7649 -1.0149
    4CHL1  H19C  265   0.800   0.785   5.735 -0.0991  0.9222  2.1155
    4CHL1    C1  266   1.023   0.537   5.810  0.3784  0.2793 -0.5718
    4CHL1   H1A  267   0.982   0.466   5.735  1.2729 -0.1062 -0.7054
    4CHL1   H1B  268   1.134   0.540   5.808  0.3919  0.0913 -0.2774
    4CHL1    C2  269   0.986   0.491   5.956 -0.9899 -0.2959  0.2377
    4CHL1   H2A  270   1.020   0.386   5.969  2.5837  0.5510 -1.0636
    4CHL1   H2B  271   0.876   0.486   5.967 -1.0511 -2.4138 -0.8318
    4CHL1   C20  272   1.071   0.924   5.108 -0.1049 -0.4240 -0.5266
    4CHL1   H20  273   0.978   0.982   5.094 -0.1170 -0.8242 -2.3855
    4CHL1   C21  274   1.036   0.779   5.061  0.1200  0.6676 -0.0008
    4CHL1  H21A  275   0.934   0.768   5.102 -0.3540 -0.7071 -1.4742
    4CHL1  H21B  276   1.111   0.706   5.098 -1.5510 -0.7418  0.7315
    4CHL1  H21C  277   1.026   0.777   4.951  2.5193 -1.2217 -0.2689
    4CHL1   C22  278   1.181   0.996   5.021  0.4336  0.2002  0.0934
    4CHL1  H22A  279   1.219   1.091   5.064  0.2119 -0.3389  1.5436
    4CHL1  H22B  280   1.269   0.929   5.010  1.6347  1.7569 -0.1474
    4CHL1   C23  281   1.132   1.030   4.877 -0.4378  0.0809  0.1695
    4CHL1  H23A  282   1.135   0.938   4.814  1.7862  0.7670 -0.8274
    4CHL1  H23B  283   1.026   1.063   4.886 -0.6551 -0.2854 -0.8987
    4CHL1   C24  284   1.214   1.141   4.804 -0.1455 -0.1155  0.0937
    4CHL1  H24A  285   1.214   1.229   4.872  1.1441 -0.1555  0.1689
    4CHL1  H24B  286   1.314   1.099   4.780 -0.5771  0.1096 -2.3493
    4CHL1   C25  287   1.157   1.182   4.659 -0.1323  0.6894 -0.2258
    4CHL1   H25  288   1.202   1.280   4.633 -0.6393  1.4676  1.6684
    4CHL1   C26  289   1.205   1.090   4.547  0.2150 -0.0978  0.2470
    4CHL1  H26A  290   1.212   0.980   4.565 -0.1790 -0.5396 -1.9723
    4CHL1  H26B  291   1.137   1.110   4.462 -0.5782  2.0298  1.3118
    4CHL1  H26C  292   1.306   1.122   4.513 -0.1167  2.9101  1.7735
    4CHL1   C27  293   1.003   1.198   4.652 -0.2439  0.1191 -0.6555
    4CHL1  H27A  294   0.959   1.098   4.669 -1.7021  0.6116 -1.3436
    4CHL1  H27B  295   0.965   1.248   4.744 -0.0823  1.6200 -1.3635
    4CHL1  H27C  296   0.961   1.236   4.556 -1.1497  0.0644 -0.2915
    5CHL1    C3  297   6.573   1.678   6.123 -0.3041  0.4336 -0.3611
    5CHL1    H3  298   6.534   1.576   6.106  2.7111 -0.6935 -1.1919
    5CHL1    O3  299   6.591   1.687   6.266 -0.2145 -0.0361  0.2871
    5CHL1   H3'  300   6.501   1.679   6.299 -0.0441 -0.0499  0.7628
    5CHL1    C4  301   6.705   1.690   6.037  0.2337 -0.4409 -1.3943
    5CHL1   H4A  302   6.749   1.789   6.064  0.7488 -1.5676  2.4676
    5CHL1   H4B  303   6.788   1.623   6.068  1.0517  0.8492 -0.6949
    5CHL1    C5  304   6.675   1.696   5.887  0.0017 -0.1172  0.4233
    5CHL1    C6  305   6.743   1.603   5.810  1.0443  0.3069 -0.2562
    5CHL1    H6  306   6.819   1.538   5.855 -1.0493 -3.4979 -1.7538
    5CHL1    C7  307   6.717   1.582   5.660  0.2847 -0.0855 -0.1568
    5CHL1   H7A  308   6.807   1.568   5.596 -0.2571 -0.2545 -0.9002
    5CHL1   H7B  309   6.648   1.497   5.642 -0.4978  0.1280  1.6573
    5CHL1    C8  310   6.640   1.705   5.599  0.6195 -0.4367  0.0482
    5CHL1    H8  311   6.716   1.786   5.594 -1.5562  1.7011 -0.2821
    5CHL1   C14  312   6.595   1.678   5.456 -0.3754  0.1179  0.0589
    5CHL1   H14  313   6.534   1.585   5.458 -0.1654 -0.0798  3.0522
    5CHL1   C15  314   6.713   1.651   5.349  0.7051 -0.1094 -0.6245
    5CHL1  H15A  315   6.785   1.732   5.373  1.6906 -0.8683 -0.9492
    5CHL1  H15B  316   6.754   1.549   5.364 -1.9709 -1.4325 -1.6181
    5CHL1   C16  317   6.635   1.678   5.217 -0.0651  0.4375 -0.3934
    5CHL1  H16A  318   6.691   1.751   5.155  2.0182 -0.7448 -0.0235
    5CHL1  H16B  319   6.647   1.582   5.162  0.8240  0.7200 -0.7079
    5CHL1   C17  320   6.492   1.727   5.250 -0.0434  0.3070 -0.6179
    5CHL1   H17  321   6.419   1.643   5.261  0.8569 -0.3634  0.4630
    5CHL1   C13  322   6.499   1.776   5.392 -0.6233 -0.5732 -0.0535
    5CHL1   C18  323   6.572   1.920   5.384  0.0478  0.0145  0.3212
    5CHL1  H18A  324   6.639   1.930   5.296  0.4444 -0.0033  0.6168
    5CHL1  H18B  325   6.501   2.006   5.379 -0.3424  0.1001  4.2023
    5CHL1  H18C  326   6.639   1.937   5.471  2.7182  0.4485 -1.6889
    5CHL1   C12  327   6.373   1.788   5.485  0.4811 -0.6330 -0.1934
    5CHL1  H12A  328   6.297   1.861   5.450  0.2927 -0.8342 -0.2086
    5CHL1  H12B  329   6.330   1.685   5.481 -0.6108 -0.2165  0.2305
    5CHL1   C11  330   6.413   1.828   5.636 -0.0127 -0.2676  0.2492
    5CHL1  H11A  331   6.454   1.931   5.632 -0.4250 -0.1238 -2.0235
    5CHL1  H11B  332   6.321   1.826   5.699  0.7042 -0.6748  1.2998
    5CHL1    C9  333   6.518   1.738   5.696 -0.2828  0.3061 -0.6074
    5CHL1    H9  334   6.469   1.640   5.711  1.1350 -0.3893 -0.2900
    5CHL1   C10  335   6.560   1.787   5.842  0.0096 -0.6071 -0.2099
    5CHL1   C19  336   6.624   1.928   5.827 -0.4602 -0.3583  1.0541
    5CHL1  H19A  337   6.701   1.933   5.747 -2.1468  0.2229 -0.6153
    5CHL1  H19B  338   6.554   2.007   5.792 -1.2515 -1.4365  0.1191
    5CHL1  H19C  339   6.672   1.966   5.920 -0.8107 -0.6962  1.3760
    5CHL1    C1  340   6.438   1.791   5.934 -0.2957  0.2574  0.6445
    5CHL1   H1A  341   6.385   1.886   5.915 -3.5617 -1.5901 -0.4105
    5CHL1   H1B  342   6.365   1.713   5.901 -1.1867  2.6382 -3.9384
    5CHL1    C2  343   6.473   1.792   6.083 -0.2521 -0.4548 -0.0470
    5CHL1   H2A  344   6.380   1.789   6.145 -0.6220  2.3195 -0.3358
    5CHL1   H2B  345   6.527   1.887   6.104  0.3357 -0.4542 -1.4902
    5CHL1   C20  346   6.420   1.818   5.144  0.2107 -0.1082  0.1883
    5CHL1   H20  347   6.469   1.918   5.148  0.3599 -0.0086 -2.5601
    5CHL1   C21  348   6.266   1.841   5.177  0.4970  0.0161 -0.7683
    5CHL1  H21A  349   6.261   1.908   5.265  1.5458 -0.5166 -0.2831
    5CHL1  H21B  350   6.213   1.745   5.195  1.3071  0.0254  2.0876
    5CHL1  H21C  351   6.232   1.899   5.088 -0.9455 -0.0134 -0.2538
    5CHL1   C22  352   6.429   1.768   5.000  0.5420  0.6485  0.9106
    5CHL1  H22A  353   6.359   1.829   4.939 -0.4992  0.0720  1.5055
    5CHL1  H22B  354   6.535   1.788   4.972  0.5229 -1.8387 -1.3778
    5CHL1   C23  355   6.391   1.615   4.975  0.5691 -0.4339 -0.0893
    5CHL1  H23A  356   6.457   1.557   5.045  0.4904  0.7449  0.9909
    5CHL1  H23B  357   6.283   1.596   4.993  0.2422  1.2082 -0.2290
    5CHL1   C24  358   6.424   1.568   4.832 -0.7316 -0.0978  0.2387
    5CHL1  H24A  359   6.363   1.631   4.765 -1.1586  1.2047  1.7805
    5CHL1  H24B  360   6.531   1.589   4.810  0.0631 -0.9273  2.8899
    5CHL1   C25  361   6.412   1.419   4.802 -0.1982  0.0934  0.2266
    5CHL1   H25  362   6.314   1.373   4.828 -0.1070 -0.6978 -0.7613
    5CHL1   C26  363   6.419   1.390   4.648  0.0256 -0.0054  0.1201
    5CHL1  H26A  364   6.399   1.283   4.625  0.2158  0.1003 -0.5858
    5CHL1  H26B  365   6.342   1.450   4.594  0.1795  0.9983  0.9972
    5CHL1  H26C  366   6.521   1.421   4.616 -0.1917 -1.4577 -2.2732
    5CHL1   C27  367   6.523   1.342   4.879  0.5020 -0.2771  0.2459
    5CHL1  H27A  368   6.515   1.355   4.989 -1.5449  0.3866  0.0577
    5CHL1  H27B  369   6.502   1.234   4.866  1.4931 -0.2691 -1.7058
    5CHL1  H27C  370   6.627   1.365   4.846  0.6923 -1.3948  0.0353
    6CHL1    C3  371   2.455   6.804   5.857  0.0480 -0.9388 -0.4930
    6CHL1    H3  372   2.356   6.785   5.812 -0.7198  0.4040  0.5593
    6CHL1    O3  373   2.438   6.797   5.996 -0.0395  0.2927 -0.2733
    6CHL1   H3'  374   2.526   6.798   6.035 -0.4413 -0.2358  0.6605
    6CHL1    C4  375   2.542   6.688   5.801  0.4387  0.3091  0.0433
    6CHL1   H4A  376   2.630   6.684   5.869  0.7704  0.0189 -0.3966
    6CHL1   H4B  377   2.473   6.602   5.815 -0.5180  1.0943  0.2283
    6CHL1    C5  378   2.599   6.691   5.660  0.1768 -0.4678 -0.9271
    6CHL1    C6  379   2.584   6.585   5.581 -0.1830  0.1339  0.4513
    6CHL1    H6  380   2.539   6.492   5.619  0.0890  0.6475  2.1277
    6CHL1    C7  381   2.634   6.580   5.437  0.7406  0.3902 -0.0722
    6CHL1   H7A  382   2.697   6.491   5.413  1.1870  0.4927  0.6899
    6CHL1   H7B  383   2.549   6.581   5.366  0.9028  3.6330 -0.4059
    6CHL1    C8  384   2.708   6.716   5.399  0.3771  0.6162 -0.7462
    6CHL1    H8  385   2.812   6.704   5.437 -0.9513 -1.0139  2.8217
    6CHL1   C14  386   2.702   6.748   5.244  0.0442  0.3055  0.2902
    6CHL1   H14  387   2.595   6.776   5.232  0.0859  0.8043  1.0175
    6CHL1   C15  388   2.718   6.625   5.154  0.1170  0.7623  1.3729
    6CHL1  H15A  389   2.810   6.566   5.178  0.8360  1.4112  0.3276
    6CHL1  H15B  390   2.629   6.559   5.144  0.9692 -0.3366  0.7657
    6CHL1   C16  391   2.758   6.679   5.017 -0.6963  0.4632 -0.1155
    6CHL1  H16A  392   2.855   6.643   4.976  0.2638 -0.9248  3.0344
    6CHL1  H16B  393   2.695   6.669   4.927  1.3352  0.6450 -1.6188
    6CHL1   C17  394   2.759   6.832   5.032 -0.3122 -0.0601  0.2828
    6CHL1   H17  395   2.652   6.859   5.015 -0.2307  0.6079  0.7454
    6CHL1   C13  396   2.779   6.853   5.185 -0.2143  0.1111 -0.0222
    6CHL1   C18  397   2.935   6.837   5.215 -0.0177 -0.1475 -0.8316
    6CHL1  H18A  398   2.972   6.738   5.182 -0.6898 -0.2117 -1.4344
    6CHL1  H18B  399   2.986   6.928   5.178 -3.6879  1.9023 -1.3688
    6CHL1  H18C  400   2.944   6.836   5.326  1.7729 -1.2823 -0.9585
    6CHL1   C12  401   2.730   6.988   5.253  0.5370 -0.0295  0.1663
    6CHL1  H12A  402   2.810   7.063   5.234  0.7797 -0.1317  0.7686
    6CHL1  H12B  403   2.631   7.021   5.217 -0.4432 -0.7931  2.0034
    6CHL1   C11  404   2.721   6.969   5.409 -0.4830 -0.4743 -0.2500
    6CHL1  H11A  405   2.826   6.984   5.444 -0.6815  1.8177 -0.4447
    6CHL1  H11B  406   2.661   7.051   5.454  0.3386 -1.1249  2.2044
    6CHL1    C9  407   2.653   6.842   5.465  0.1605  0.0487  0.6352
    6CHL1    H9  408   2.545   6.845   5.438  0.3284 -0.4984 -0.1370
    6CHL1   C10  409   2.640   6.832   5.622 -0.3555  0.7554  0.1540
    6CHL1   C19  410   2.781   6.858   5.690  0.5848 -0.3553  0.6109
    6CHL1  H19A  411   2.821   6.958   5.662 -0.6585 -0.4566 -1.7867
    6CHL1  H19B  412   2.775   6.850   5.801 -0.4524 -1.6175  0.4839
    6CHL1  H19C  413   2.850   6.781   5.650 -1.8321 -0.9807 -2.7441
    6CHL1    C1  414   2.550   6.949   5.670 -0.0267  0.2796 -0.1375
    6CHL1   H1A  415   2.596   7.050   5.658 -0.5853  0.8398  2.0464
    6CHL1   H1B  416   2.455   6.944   5.612 -0.6220 -0.0821  0.8527
    6CHL1    C2  417   2.515   6.940   5.820 -0.2007 -0.1270  0.9330
    6CHL1   H2A  418   2.436   7.016   5.836  0.0621  0.9698 -2.1883
    6CHL1   H2B  419   2.608   6.960   5.877  1.5397  0.2945 -1.8176
    6CHL1   C20  420   2.847   6.894   4.924  0.9905 -0.4940 -0.4655
    6CHL1   H20  421   2.951   6.859   4.941  1.0215  0.3716  1.3473
    6CHL1   C21  422   2.844   7.049   4.943  0.7132  0.1575  0.1874
    6CHL1  H21A  423   2.906   7.078   5.031  1.8099  0.9709 -0.8264
    6CHL1  H21B  424   2.741   7.084   4.963  0.5840 -1.0266  1.7812
    6CHL1  H21C  425   2.885   7.098   4.853  2.1357 -2.0646 -0.4600
    6CHL1   C22  426   2.822   6.848   4.783 -0.1945  0.3713  0.3207
    6CHL1  H22A  427   2.832   6.738   4.780  2.3100  0.5550 -1.9475
    6CHL1  H22B  428   2.720   6.878   4.750 -0.1639  1.3610  1.0843
    6CHL1   C23  429   2.926   6.897   4.684  0.7212  0.2417  0.2355
    6CHL1  H23A  430   2.883   6.871   4.585 -0.4369  1.3034  0.4291
    6CHL1  H23B  431   2.953   7.005   4.690 -1.5031  0.7796  1.6265
    6CHL1   C24  432   3.058   6.821   4.697 -0.7941  0.7065 -0.1022
    6CHL1  H24A  433   3.078   6.831   4.806 -1.9938  1.4842  0.0722
    6CHL1  H24B  434   3.044   6.715   4.665  2.8416  0.4214 -1.1731
    6CHL1   C25  435   3.175   6.861   4.599  0.6715 -0.6679  0.3420
    6CHL1   H25  436   3.200   6.968   4.615 -3.6466  0.9746 -2.1063
    6CHL1   C26  437   3.300   6.770   4.618  0.2343  0.1887  0.0566
    6CHL1  H26A  438   3.278   6.663   4.599  3.5687 -0.7619  0.8006
    6CHL1  H26B  439   3.362   6.804   4.532 -1.4187 -0.4941 -1.4642
    6CHL1  H26C  440   3.342   6.779   4.720 -1.4746 -0.0197  0.8160
    6CHL1   C27  441   3.114   6.855   4.459  0.3386  0.3152  0.0051
    6CHL1  H27A  442   3.075   6.751   4.454 -0.9597  0.8618 -3.2823
    6CHL1  H27B  443   3.033   6.929   4.443 -0.8025 -1.0792 -0.8677
    6CHL1  H27C  444   3.191   6.872   4.382  1.1843 -0.1793  0.7145
    7CHL1    C3  445   0.728   5.362   6.129 -0.2396  0.0556 -0.2597
    7CHL1    H3  446   0.685   5.434   6.056  3.6169  0.2859 -2.5963
    7CHL1    O3  447   0.663   5.352   6.252 -0.0587 -0.4579  0.3886
    7CHL1   H3'  448   0.619   5.266   6.250 -0.8637 -0.0482  0.3485
    7CHL1    C4  449   0.731   5.221   6.063 -0.1455  0.0561 -0.7106
    7CHL1   H4A  450   0.771   5.143   6.131  0.8090 -0.6669 -2.0381
    7CHL1   H4B  451   0.626   5.193   6.040 -0.3913  2.3677 -2.7646
    7CHL1    C5  452   0.812   5.218   5.935  0.1169  1.2768 -0.8038
    7CHL1    C6  453   0.766   5.162   5.820  0.0041  0.4995 -0.6061
    7CHL1    H6  454   0.664   5.122   5.811  1.0956 -3.1174  1.1799
    7CHL1    C7  455   0.856   5.154   5.699  0.2381 -0.0943  0.0539
    7CHL1   H7A  456   0.833   5.061   5.642 -0.6513  0.6419 -0.8065
    7CHL1   H7B  457   0.823   5.232   5.628 -2.9896 -1.1692  0.2117
    7CHL1    C8  458   1.010   5.167   5.723  0.1542  0.2625 -0.5369
    7CHL1    H8  459   1.052   5.081   5.779  1.1322  1.0560 -0.0199
    7CHL1   C14  460   1.087   5.191   5.594  0.5712 -0.0602 -0.4654
    7CHL1   H14  461   1.037   5.284   5.560 -0.2806 -0.2005  0.3712
    7CHL1   C15  462   1.060   5.096   5.478 -0.2381  0.2131 -0.6171
    7CHL1  H15A  463   1.075   4.990   5.509 -0.2786  0.2473 -0.4834
    7CHL1  H15B  464   0.955   5.106   5.443 -0.0130  1.3744 -0.9837
    7CHL1   C16  465   1.163   5.140   5.379 -0.1915 -0.1677  0.9159
    7CHL1  H16A  466   1.216   5.059   5.325 -3.2208 -2.6314  1.3811
    7CHL1  H16B  467   1.112   5.194   5.296  0.0113 -2.1567 -0.5811
    7CHL1   C17  468   1.255   5.248   5.453 -1.8503 -0.0383 -0.3679
    7CHL1   H17  469   1.227   5.352   5.426 -0.5331  0.0855 -1.3971
    7CHL1   C13  470   1.234   5.220   5.601  0.0164 -0.0315 -1.0070
    7CHL1   C18  471   1.301   5.097   5.654 -0.0037  0.3412  0.1564
    7CHL1  H18A  472   1.410   5.114   5.645 -0.1285  1.4326  0.5231
    7CHL1  H18B  473   1.271   5.079   5.759 -3.3434  2.5214 -0.2680
    7CHL1  H18C  474   1.288   5.016   5.580  1.1231  0.4902 -0.2253
    7CHL1   C12  475   1.241   5.343   5.695  0.4748 -0.0094  0.3957
    7CHL1  H12A  476   1.345   5.383   5.694 -0.0132  1.2984  0.2208
    7CHL1  H12B  477   1.173   5.417   5.647 -0.7071 -2.4070 -1.8494
    7CHL1   C11  478   1.185   5.316   5.834  0.3773  0.6594 -0.5317
    7CHL1  H11A  479   1.242   5.234   5.884 -0.3182  1.4926  1.7523
    7CHL1  H11B  480   1.186   5.404   5.901 -0.5483 -0.7655  1.4744
    7CHL1    C9  481   1.036   5.283   5.821 -0.7172 -0.1657  0.1944
    7CHL1    H9  482   0.997   5.375   5.774 -0.4579  1.9048  3.7059
    7CHL1   C10  483   0.959   5.271   5.956  0.4824 -0.0740 -0.2037
    7CHL1   C19  484   1.046   5.179   6.050  0.0108 -0.4452  0.5090
    7CHL1  H19A  485   1.101   5.093   6.008 -0.0787 -1.3849  2.2539
    7CHL1  H19B  486   1.134   5.237   6.086  0.4376  0.1530 -1.3689
    7CHL1  H19C  487   0.991   5.145   6.139 -0.6745 -0.3197  0.1417
    7CHL1    C1  488   0.962   5.404   6.036 -0.1545 -0.3556  0.3852
    7CHL1   H1A  489   1.063   5.430   6.073 -0.8505  0.5057  1.7678
    7CHL1   H1B  490   0.920   5.486   5.973 -0.9785 -0.1796  1.1354
    7CHL1    C2  491   0.872   5.412   6.156 -0.6278  0.6366  0.2761
    7CHL1   H2A  492   0.870   5.518   6.190  1.0751  1.0535 -0.7862
    7CHL1   H2B  493   0.910   5.345   6.236  0.2640 -1.2359 -1.6158
    7CHL1   C20  494   1.408   5.237   5.403 -0.3292  0.1020  0.1383
    7CHL1   H20  495   1.448   5.139   5.438  0.0427  1.1835  3.0617
    7CHL1   C21  496   1.497   5.341   5.473  0.2277  0.1396  0.4336
    7CHL1  H21A  497   1.592   5.353   5.417 -1.2599 -0.6826 -2.4986
    7CHL1  H21B  498   1.508   5.342   5.583 -0.9753  2.2376  0.5900
    7CHL1  H21C  499   1.429   5.427   5.456 -1.6204 -1.4822 -0.9682
    7CHL1   C22  500   1.421   5.255   5.250  0.4683 -0.0043  0.4284
    7CHL1  H22A  501   1.338   5.205   5.195  0.6530  0.7023 -0.5328
    7CHL1  H22B  502   1.415   5.361   5.218  1.3826 -0.8929 -3.1197
    7CHL1   C23  503   1.548   5.192   5.199  0.1971 -0.0736 -0.1783
    7CHL1  H23A  504   1.630   5.231   5.264  0.6495 -1.3930  0.0654
    7CHL1  H23B  505   1.545   5.084   5.223  0.5075 -0.0687 -0.1038
    7CHL1   C24  506   1.575   5.219   5.056  0.6233 -0.5198  0.6417
    7CHL1  H24A  507   1.501   5.164   4.994 -0.6201 -0.1790  1.7696
    7CHL1  H24B  508   1.564   5.330   5.060 -1.0685 -0.6824  1.4559
    7CHL1   C25  509   1.717   5.202   5.006 -0.8546  0.2568 -0.3545
    7CHL1   H25  510   1.741   5.096   5.027 -0.0507  0.3964 -0.5430
    7CHL1   C26  511   1.722   5.209   4.854  0.1152  0.4897  1.1404
    7CHL1  H26A  512   1.644   5.138   4.819  0.4756 -0.0519  1.4201
    7CHL1  H26B  513   1.694   5.314   4.829  1.2917  0.7355  0.8186
    7CHL1  H26C  514   1.822   5.178   4.819 -0.3692  1.7079 -1.5140
    7CHL1   C27  515   1.813   5.302   5.078 -0.1233  0.2035 -0.2854
    7CHL1  H27A  516   1.816   5.291   5.189  0.2153 -0.7069 -0.3756
    7CHL1  H27B  517   1.918   5.291   5.043 -0.4888  0.5524 -1.5444
    7CHL1  H27C  518   1.783   5.407   5.057  1.0333  0.7020  0.4386
    8CHL1    C3  519   5.906   3.570   6.243  0.0175 -0.4127  0.7013
    8CHL1    H3  520   6.016   3.580   6.228 -0.3079  1.1427 -0.9568
    8CHL1    O3  521   5.879   3.591   6.379 -0.7224  0.4147  0.6205
    8CHL1   H3'  522   5.789   3.559   6.388 -0.7465  0.4299  0.4324
    8CHL1    C4  523   5.830   3.675   6.161 -0.2565 -0.7338  0.7978
    8CHL1   H4A  524   5.722   3.672   6.187 -0.3053 -0.8773  0.5802
    8CHL1   H4B  525   5.860   3.778   6.191 -2.0183 -0.6624  2.4912
    8CHL1    C5  526   5.845   3.650   6.012  0.1359  0.6365 -0.0347
    8CHL1    C6  527   5.898   3.729   5.919  0.0821 -0.8175 -0.6334
    8CHL1    H6  528   5.929   3.826   5.960  0.4267 -1.8055  1.5676
    8CHL1    C7  529   5.908   3.695   5.771  0.5767  0.6056  0.5571
    8CHL1   H7A  530   5.876   3.778   5.704  1.4959 -1.5523 -2.8252
    8CHL1   H7B  531   6.012   3.660   5.754  0.1789 -0.5184  0.3661
    8CHL1    C8  532   5.818   3.568   5.725 -0.1334  0.2825 -0.3798
    8CHL1    H8  533   5.718   3.617   5.724 -0.4468 -0.3436 -0.2556
    8CHL1   C14  534   5.868   3.525   5.593  0.1568 -0.1337 -0.1217
    8CHL1   H14  535   5.974   3.496   5.608 -0.2110 -0.5609  2.0317
    8CHL1   C15  536   5.860   3.619   5.474 -0.0195 -0.1647  0.3548
    8CHL1  H15A  537   5.767   3.677   5.461  1.5379  2.4245  0.0077
    8CHL1  H15B  538   5.933   3.703   5.482 -0.4472  0.1747  0.7239
    8CHL1   C16  539   5.865   3.533   5.349 -0.3034  0.2182 -0.4304
    8CHL1  H16A  540   5.792   3.555   5.268 -0.5812 -1.2942 -0.6302
    8CHL1  H16B  541   5.963   3.556   5.302 -0.0242  0.5086  0.2821
    8CHL1   C17  542   5.863   3.389   5.404 -0.0428  0.6415 -0.4799
    8CHL1   H17  543   5.968   3.360   5.422  0.2026  1.4900 -0.5265
    8CHL1   C13  544   5.799   3.400   5.545  0.7811  0.6479  0.1892
    8CHL1   C18  545   5.651   3.423   5.536 -0.7299 -0.8277 -0.2501
    8CHL1  H18A  546   5.630   3.502   5.461  1.9801 -2.0092 -2.4344
    8CHL1  H18B  547   5.614   3.328   5.492  0.1390 -1.1790 -0.2318
    8CHL1  H18C  548   5.594   3.449   5.628  0.6531  0.2177  0.3465
    8CHL1   C12  549   5.831   3.289   5.646  0.0961 -0.1130 -0.1256
    8CHL1  H12A  550   5.791   3.188   5.623  0.0009  0.1844 -1.3598
    8CHL1  H12B  551   5.942   3.283   5.651  0.0965  0.3770  0.6472
    8CHL1   C11  552   5.773   3.324   5.787  0.6403 -0.1957  0.5328
    8CHL1  H11A  553   5.662   3.323   5.782  0.6776 -0.5058 -0.7784
    8CHL1  H11B  554   5.789   3.236   5.853  0.7652 -2.3417 -2.1408
    8CHL1    C9  555   5.836   3.461   5.835  0.7402  0.5912  0.7295
    8CHL1    H9  556   5.947   3.456   5.843  0.8607  3.0659  1.5986
    8CHL1   C10  557   5.797   3.505   5.977 -0.5847 -0.1218  0.0722
    8CHL1   C19  558   5.642   3.501   5.998  0.2788  0.6433 -0.1719
    8CHL1  H19A  559   5.585   3.573   5.935  0.8033 -0.4704 -2.0136
    8CHL1  H19B  560   5.609   3.400   5.965  0.9529  0.6871 -1.0276
    8CHL1  H19C  561   5.606   3.524   6.100 -1.1103 -0.0511 -0.4792
    8CHL1    C1  562   5.874   3.396   6.066 -0.2446 -0.6047  0.1104
    8CHL1   H1A  563   5.825   3.296   6.060 -0.6946 -0.6578  3.1740
    8CHL1   H1B  564   5.979   3.392   6.027 -0.0146 -2.1233  0.7811
    8CHL1    C2  565   5.867   3.424   6.213  0.1925 -0.4164  0.0613
    8CHL1   H2A  566   5.945   3.369   6.268 -0.2272 -1.6359 -0.5314
    8CHL1   H2B  567   5.771   3.392   6.259 -0.5889 -1.0257 -1.9147
    8CHL1   C20  568   5.804   3.277   5.305  0.6046 -0.2384  0.7787
    8CHL1   H20  569   5.696   3.298   5.290  0.5690 -1.0903 -0.2319
    8CHL1   C21  570   5.820   3.130   5.350  0.1109 -0.3063  0.0701
    8CHL1  H21A  571   5.927   3.108   5.368  0.0175  0.1148  1.2667
    8CHL1  H21B  572   5.780   3.051   5.283 -1.7075  0.1805  0.5254
    8CHL1  H21C  573   5.762   3.134   5.445 -0.4895 -0.2543 -0.2873
    8CHL1   C22  574   5.879   3.297   5.172  0.6899 -0.0525  0.3437
    8CHL1  H22A  575   5.853   3.400   5.141 -1.1961 -1.0194 -1.5596
    8CHL1  H22B  576   5.985   3.283   5.200  0.1886 -1.1557  1.8576
    8CHL1   C23  577   5.849   3.203   5.050 -0.4409  0.0979 -0.4403
    8CHL1  H23A  578   5.876   3.101   5.083 -0.0266 -0.0099 -1.0871
    8CHL1  H23B  579   5.740   3.195   5.029 -0.2355 -0.1987 -1.4567
    8CHL1   C24  580   5.926   3.227   4.917 -0.1156  0.1578 -0.4352
    8CHL1  H24A  581   6.027   3.261   4.950  0.3346 -2.7922  1.6154
    8CHL1  H24B  582   5.934   3.125   4.875 -0.6772 -0.5272  1.0308
    8CHL1   C25  583   5.858   3.323   4.826  0.6645 -0.4001 -0.2590
    8CHL1   H25  584   5.823   3.412   4.884 -0.5188 -1.4236  0.6465
    8CHL1   C26  585   5.954   3.373   4.719 -1.0139  0.1066 -0.9776
    8CHL1  H26A  586   5.973   3.286   4.652 -0.8863 -1.4880  1.0462
    8CHL1  H26B  587   5.913   3.447   4.647 -0.0518  0.5397 -1.0923
    8CHL1  H26C  588   6.053   3.409   4.753 -1.6639  1.1010 -0.1063
    8CHL1   C27  589   5.728   3.265   4.757 -0.1073  0.5451 -0.1743
    8CHL1  H27A  590   5.671   3.341   4.699  2.5125  2.4363 -0.4334
    8CHL1  H27B  591   5.741   3.173   4.696 -1.1084 -1.4898  2.5278
    8CHL1  H27C  592   5.647   3.243   4.830 -2.9236  1.7416 -2.7052
    9CHL1    C3  593   6.826   5.386   6.051  0.3716  0.0618  0.1087
    9CHL1    H3  594   6.937   5.399   6.049  0.1156  3.2989  0.7863
    9CHL1    O3  595   6.780   5.394   6.187  0.0674  0.1376 -0.2788
    9CHL1   H3'  596   6.684   5.388   6.191  0.0983 -0.2501  0.0057
    9CHL1    C4  597   6.773   5.504   5.966  0.1566 -0.3689 -0.6825
    9CHL1   H4A  598   6.662   5.505   5.968 -0.0168  1.6873  4.2164
    9CHL1   H4B  599   6.796   5.600   6.017 -2.1453 -0.7444  1.2599
    9CHL1    C5  600   6.836   5.495   5.832  0.1162  0.3042  0.2255
    9CHL1    C6  601   6.925   5.585   5.785  0.6057 -0.8596 -0.0843
    9CHL1    H6  602   6.941   5.680   5.837  0.0826  0.7561 -2.7222
    9CHL1    C7  603   6.992   5.568   5.657  0.4131 -0.1820 -0.4850
    9CHL1   H7A  604   7.003   5.667   5.608 -0.0188  0.8841  1.4774
    9CHL1   H7B  605   7.091   5.523   5.679 -0.1947 -1.2221  0.1932
    9CHL1    C8  606   6.934   5.467   5.551 -0.1875  0.8524 -0.4831
    9CHL1    H8  607   6.844   5.522   5.513  0.4183  3.4665  1.5529
    9CHL1   C14  608   7.021   5.423   5.434 -0.3044 -0.3939  0.6326
    9CHL1   H14  609   7.114   5.375   5.470 -0.8022 -3.5220 -1.7949
    9CHL1   C15  610   7.066   5.540   5.348 -0.2681  0.2134 -0.0577
    9CHL1  H15A  611   6.976   5.602   5.324 -0.2685  0.2698  0.0831
    9CHL1  H15B  612   7.149   5.602   5.389  0.5776 -1.7127  1.2508
    9CHL1   C16  613   7.117   5.473   5.219 -0.3497 -0.2787 -0.5936
    9CHL1  H16A  614   7.082   5.522   5.126  1.8848  1.2687 -0.7040
    9CHL1  H16B  615   7.227   5.490   5.215 -0.2858 -0.0262  1.4120
    9CHL1   C17  616   7.066   5.330   5.218 -0.2975 -0.4490  0.4010
    9CHL1   H17  617   7.145   5.261   5.254  1.5440  1.3746  0.0023
    9CHL1   C13  618   6.960   5.327   5.330  0.0397 -0.4595 -0.6263
    9CHL1   C18  619   6.832   5.385   5.268 -0.1271 -0.2010 -0.0567
    9CHL1  H18A  620   6.758   5.414   5.345  1.1979 -0.3004  1.2887
    9CHL1  H18B  621   6.852   5.480   5.213  2.3607  0.3372  1.6255
    9CHL1  H18C  622   6.784   5.314   5.197  0.3003 -0.5238 -0.0268
    9CHL1   C12  623   6.930   5.208   5.416  0.0610  0.1405 -0.2929
    9CHL1  H12A  624   6.887   5.123   5.357 -0.9525  0.0329  0.5719
    9CHL1  H12B  625   7.027   5.173   5.455  0.1077 -1.2023 -1.5040
    9CHL1   C11  626   6.828   5.240   5.522  0.3566  1.1799 -0.3592
    9CHL1  H11A  627   6.733   5.260   5.467  0.4463  0.3522 -0.8324
    9CHL1  H11B  628   6.814   5.144   5.576 -0.0799  0.6898 -1.3269
    9CHL1    C9  629   6.886   5.343   5.630  0.2280  0.1321  0.0063
    9CHL1    H9  630   6.983   5.302   5.666  1.5655  0.4414 -2.9501
    9CHL1   C10  631   6.803   5.360   5.761 -0.6691  0.3001  0.1010
    9CHL1   C19  632   6.653   5.355   5.726  0.2418 -0.1136 -0.4909
    9CHL1  H19A  633   6.583   5.373   5.811  0.0874  2.0184 -1.0132
    9CHL1  H19B  634   6.622   5.431   5.651 -1.2905 -0.1687  0.0455
    9CHL1  H19C  635   6.634   5.254   5.684 -0.7294  0.1450 -0.6860
    9CHL1    C1  636   6.841   5.237   5.848 -0.3693  0.0220  0.1639
    9CHL1   H1A  637   6.813   5.141   5.801 -2.3214  0.4922  0.2761
    9CHL1   H1B  638   6.951   5.223   5.858 -0.7823 -5.6306 -0.2200
    9CHL1    C2  639   6.784   5.258   5.985 -0.3548  0.1713  0.2182
    9CHL1   H2A  640   6.824   5.183   6.057 -1.1116 -0.4452  0.0217
    9CHL1   H2B  641   6.674   5.245   5.976 -0.4676  1.9507 -1.9438
    9CHL1   C20  642   7.034   5.266   5.084  0.1777 -1.0708  0.9629
    9CHL1   H20  643   6.936   5.299   5.042  0.2798 -1.8197  0.1102
    9CHL1   C21  644   7.012   5.115   5.114  0.3365  1.0959  0.1255
    9CHL1  H21A  645   7.079   5.074   5.193 -1.6292 -2.1199  0.3196
    9CHL1  H21B  646   7.028   5.056   5.021 -1.1156 -1.8899  1.6293
    9CHL1  H21C  647   6.908   5.098   5.148 -0.2169  1.4875 -1.3333
    9CHL1   C22  648   7.139   5.297   4.974 -0.0160  0.0353 -0.4363
    9CHL1  H22A  649   7.132   5.407   4.956 -1.3430 -0.1845 -1.4528
    9CHL1  H22B  650   7.243   5.274   5.004  0.2823  0.5677 -1.0416
    9CHL1   C23  651   7.116   5.235   4.838  0.2752 -0.4094  0.7929
    9CHL1  H23A  652   7.164   5.135   4.831  0.0525 -0.3924 -1.4150
    9CHL1  H23B  653   7.012   5.229   4.798 -0.2064 -0.3171  1.9685
    9CHL1   C24  654   7.195   5.320   4.729 -0.5025 -0.6198 -1.2949
    9CHL1  H24A  655   7.157   5.425   4.735 -1.8571 -1.1533  0.1438
    9CHL1  H24B  656   7.304   5.321   4.747 -0.5688  0.2260 -0.8726
    9CHL1   C25  657   7.160   5.283   4.590  0.2157  0.0340 -0.0221
    9CHL1   H25  658   7.049   5.284   4.584  0.1512  0.4153  1.1148
    9CHL1   C26  659   7.211   5.396   4.501 -0.3670  0.1210  0.2346
    9CHL1  H26A  660   7.193   5.366   4.396 -0.8252 -0.2122  0.4043
    9CHL1  H26B  661   7.158   5.491   4.521  0.2766  1.0280 -2.1341
    9CHL1  H26C  662   7.318   5.421   4.515  0.1392 -0.9482 -1.4528
    9CHL1   C27  663   7.214   5.141   4.546  0.2766  0.1317 -0.1742
    9CHL1  H27A  664   7.174   5.064   4.616 -1.8847 -0.6383 -2.1203
    9CHL1  H27B  665   7.181   5.117   4.442 -0.2169  0.9130 -0.2069
    9CHL1  H27C  666   7.325   5.136   4.549  0.3414  1.6642  0.7342
   10CHL1    C3  667   0.320   1.422   6.328  0.6286  0.7508  0.3988
   10CHL1    H3  668   0.425   1.389   6.315 -0.4621 -1.8148 -4.1008
   10CHL1    O3  669   0.272   1.439   6.460 -0.3515  0.0674  0.2465
   10CHL1   H3'  670   0.212   1.513   6.467 -0.5567  0.2687 -2.5298
   10CHL1    C4  671   0.310   1.558   6.254  0.1842  0.1676  0.0455
   10CHL1   H4A  672   0.208   1.603   6.257 -0.2477 -0.7325 -0.5979
   10CHL1   H4B  673   0.380   1.630   6.300 -0.8326  0.3540  1.3321
   10CHL1    C5  674   0.348   1.545   6.105 -0.0924 -0.2527  0.4902
   10CHL1    C6  675   0.452   1.606   6.045  0.6425 -0.2566 -0.1702
   10CHL1    H6  676   0.513   1.660   6.118 -1.2847 -1.1379  2.2529
   10CHL1    C7  677   0.481   1.604   5.901 -0.0155 -0.0489  0.4524
   10CHL1   H7A  678   0.516   1.706   5.872 -1.0446  0.5289  1.2003
   10CHL1   H7B  679   0.567   1.536   5.884  0.0171  0.0485  0.2222
   10CHL1    C8  680   0.354   1.565   5.821  0.1591  0.5747  0.4907
   10CHL1    H8  681   0.277   1.644   5.828  2.0560  2.5768 -0.1309
   10CHL1   C14  682   0.404   1.544   5.684 -0.0320  0.5587  0.2619
   10CHL1   H14  683   0.482   1.465   5.678 -0.0928  0.5991 -2.9421
   10CHL1   C15  684   0.466   1.670   5.619 -0.3451 -0.3865  0.8252
   10CHL1  H15A  685   0.420   1.769   5.642 -1.3079 -0.0532 -2.1065
   10CHL1  H15B  686   0.575   1.671   5.642 -0.0872 -0.6915 -0.2904
   10CHL1   C16  687   0.453   1.641   5.465  0.6552  0.3527  0.9579
   10CHL1  H16A  688   0.392   1.726   5.429 -2.9217 -1.7589  1.6211
   10CHL1  H16B  689   0.550   1.631   5.411 -0.3374 -1.9625 -0.5663
   10CHL1   C17  690   0.380   1.504   5.458 -0.2764  0.0326 -0.3039
   10CHL1   H17  691   0.461   1.430   5.477 -0.0371  0.4121  0.1711
   10CHL1   C13  692   0.292   1.493   5.591  0.3650 -0.8658  0.3245
   10CHL1   C18  693   0.160   1.586   5.579 -0.4850 -0.2432 -0.0399
   10CHL1  H18A  694   0.118   1.611   5.679 -2.1458  1.7259 -1.1587
   10CHL1  H18B  695   0.183   1.683   5.530 -0.2291 -0.7614 -0.9780
   10CHL1  H18C  696   0.089   1.532   5.513  0.6977  0.3269 -1.8473
   10CHL1   C12  697   0.258   1.355   5.644 -0.1290 -0.3742  0.6234
   10CHL1  H12A  698   0.177   1.307   5.585  0.9654 -0.7831 -0.6135
   10CHL1  H12B  699   0.353   1.297   5.645 -0.0787 -0.2852  1.5107
   10CHL1   C11  700   0.205   1.364   5.793  0.0153  0.6499 -0.0187
   10CHL1  H11A  701   0.098   1.392   5.796 -0.7843 -2.2820  1.8842
   10CHL1  H11B  702   0.201   1.258   5.824  0.6779  0.2073 -1.3639
   10CHL1    C9  703   0.308   1.437   5.881  0.6793  0.6932 -0.4687
   10CHL1    H9  704   0.397   1.370   5.880  0.7618  0.7269 -3.3661
   10CHL1   C10  705   0.255   1.452   6.027  0.0433  0.0988 -0.3639
   10CHL1   C19  706   0.112   1.516   6.026 -0.6289  0.4201  0.7751
   10CHL1  H19A  707   0.047   1.448   5.968  1.4779  0.1837 -1.4807
   10CHL1  H19B  708   0.066   1.517   6.127  0.3103  3.4727  1.2821
   10CHL1  H19C  709   0.117   1.617   5.980  2.6521 -0.2739 -0.7081
   10CHL1    C1  710   0.266   1.320   6.101  0.6389 -0.2086 -0.5559
   10CHL1   H1A  711   0.191   1.246   6.065 -0.3347  1.0236 -1.1394
   10CHL1   H1B  712   0.367   1.275   6.099  0.9683  0.5097 -0.5838
   10CHL1    C2  713   0.227   1.322   6.254  0.7170  0.2608  0.1772
   10CHL1   H2A  714   0.235   1.223   6.303 -0.4358 -0.0908 -0.3229
   10CHL1   H2B  715   0.120   1.349   6.253  0.2752 -1.3549  1.0346
   10CHL1   C20  716   0.293   1.479   5.331 -0.4493  0.2599 -0.1448
   10CHL1   H20  717   0.198   1.535   5.342  0.0851  0.8689  1.5691
   10CHL1   C21  718   0.291   1.326   5.319 -0.1688 -0.0017  0.2845
   10CHL1  H21A  719   0.245   1.288   5.225 -0.1794 -1.5546  0.8767
   10CHL1  H21B  720   0.220   1.292   5.398  0.4001 -2.8115 -0.3087
   10CHL1  H21C  721   0.390   1.283   5.345 -0.4848  0.7939  3.2093
   10CHL1   C22  722   0.362   1.538   5.202  0.5174  0.6392  0.0364
   10CHL1  H22A  723   0.336   1.646   5.200 -1.9521  0.1032 -0.7115
   10CHL1  H22B  724   0.472   1.525   5.197  0.4532  0.4758 -3.6141
   10CHL1   C23  725   0.307   1.479   5.070 -0.5935  0.6126  0.4991
   10CHL1  H23A  726   0.339   1.374   5.059  0.6586  1.0589 -0.3391
   10CHL1  H23B  727   0.200   1.473   5.100 -0.5679 -1.0416  0.3245
   10CHL1   C24  728   0.331   1.558   4.943 -0.3403 -0.2147 -0.2209
   10CHL1  H24A  729   0.441   1.573   4.931 -0.4737  0.8973 -0.1429
   10CHL1  H24B  730   0.286   1.499   4.861  0.4807 -1.2826  0.0702
   10CHL1   C25  731   0.279   1.707   4.952 -0.0313  0.5201  0.4921
   10CHL1   H25  732   0.349   1.772   5.008  1.5486 -1.6591  1.2006
   10CHL1   C26  733   0.275   1.761   4.805 -0.3519  0.2180 -0.0929
   10CHL1  H26A  734   0.373   1.748   4.754  0.3713  2.3242  0.6358
   10CHL1  H26B  735   0.197   1.697   4.760 -0.4097  1.4553 -1.8754
   10CHL1  H26C  736   0.254   1.871   4.803 -2.4568 -0.1540 -0.5188
   10CHL1   C27  737   0.137   1.715   5.004 -0.3536 -0.3936 -0.2832
   10CHL1  H27A  738   0.072   1.658   4.934 -0.1723  0.6707 -1.3644
   10CHL1  H27B  739   0.125   1.682   5.109 -2.2167  0.5112 -0.1757
   10CHL1  H27C  740   0.098   1.819   4.998  1.2231  0.3132  1.1374
   11CHL1    C3  741   4.849   3.121   6.331  0.0814 -1.0843 -0.0472
   11CHL1    H3  742   4.887   3.041   6.265 -0.5187 -0.5300 -1.0953
   11CHL1    O3  743   4.895   3.114   6.464  0.2390 -0.0082  0.0320
   11CHL1   H3'  744   4.947   3.194   6.477 -3.0117  2.1871  0.7035
   11CHL1    C4  745   4.899   3.253   6.266  0.0541 -0.1069 -0.2924
   11CHL1   H4A  746   4.867   3.337   6.332  1.1075  0.4293 -0.4399
   11CHL1   H4B  747   5.009   3.258   6.280  0.1065  1.1171 -0.9010
   11CHL1    C5  748   4.862   3.280   6.125  0.0630  0.9239  0.5023
   11CHL1    C6  749   4.952   3.295   6.027  0.1157  0.2548  0.3916
   11CHL1    H6  750   5.060   3.308   6.045  0.5597 -0.1101 -1.7565
   11CHL1    C7  751   4.910   3.322   5.881  0.1239 -0.5481 -0.0669
   11CHL1   H7A  752   4.968   3.411   5.846  1.4652 -1.0036  0.9213
   11CHL1   H7B  753   4.934   3.229   5.825  0.1290 -1.5281  1.5017
   11CHL1    C8  754   4.757   3.354   5.860 -0.7082  0.6847 -0.0239
   11CHL1    H8  755   4.733   3.461   5.878  1.1994  1.5969 -2.2706
   11CHL1   C14  756   4.705   3.312   5.715 -0.1329 -0.7711 -0.2285
   11CHL1   H14  757   4.724   3.203   5.710  1.1337 -0.5346 -1.2730
   11CHL1   C15  758   4.783   3.363   5.597  0.3249 -0.2338 -0.5053
   11CHL1  H15A  759   4.813   3.470   5.598 -0.5041  0.0015 -0.2794
   11CHL1  H15B  760   4.875   3.304   5.579  0.6459 -0.3993  1.5164
   11CHL1   C16  761   4.693   3.341   5.476 -0.1567 -0.3689 -0.7338
   11CHL1  H16A  762   4.711   3.431   5.414  0.9984  0.2208  0.4065
   11CHL1  H16B  763   4.713   3.242   5.429  0.0809 -0.1873 -1.0135
   11CHL1   C17  764   4.549   3.308   5.536  0.2382 -0.7064  0.1752
   11CHL1   H17  765   4.533   3.198   5.532  0.0974 -0.6500 -1.3991
   11CHL1   C13  766   4.561   3.351   5.689  0.5299 -0.2073  0.0749
   11CHL1   C18  767   4.536   3.508   5.686  0.5894 -0.4449 -0.2054
   11CHL1  H18A  768   4.427   3.524   5.687  0.5852 -0.4798 -0.0662
   11CHL1  H18B  769   4.572   3.577   5.765  0.8191  3.7436 -3.6148
   11CHL1  H18C  770   4.570   3.544   5.587 -2.5265  0.5403 -1.0029
   11CHL1   C12  771   4.463   3.276   5.778 -0.1914 -0.6544 -0.4977
   11CHL1  H12A  772   4.364   3.324   5.762  0.8310  1.7338 -0.1329
   11CHL1  H12B  773   4.469   3.168   5.757  0.2550 -0.6993 -0.1644
   11CHL1   C11  774   4.516   3.308   5.921  0.4781  0.5346  0.3266
   11CHL1  H11A  775   4.504   3.416   5.944 -0.9822  0.0918  1.8424
   11CHL1  H11B  776   4.451   3.266   6.000  1.7821 -0.6998  0.7834
   11CHL1    C9  777   4.663   3.274   5.952 -0.6116 -0.4254 -0.3958
   11CHL1    H9  778   4.656   3.166   5.927 -0.2369 -0.5830  0.1466
   11CHL1   C10  779   4.711   3.275   6.101 -0.1660  0.0787 -0.4056
   11CHL1   C19  780   4.641   3.390   6.178 -0.0670 -0.7158 -0.4831
   11CHL1  H19A  781   4.677   3.488   6.139  2.1508 -1.0583  0.5463
   11CHL1  H19B  782   4.530   3.384   6.170 -0.5599  1.6834  2.5540
   11CHL1  H19C  783   4.676   3.403   6.283 -0.8521  0.0316 -0.2988
   11CHL1    C1  784   4.663   3.151   6.174  0.6721 -0.6595 -0.4399
   11CHL1   H1A  785   4.553   3.157   6.157  0.6317  2.2657  0.3819
   11CHL1   H1B  786   4.698   3.065   6.113 -2.3054 -1.2849 -1.4867
   11CHL1    C2  787   4.694   3.125   6.322 -0.6820 -0.7110  0.1352
   11CHL1   H2A  788   4.640   3.034   6.355 -0.7105 -1.5439 -2.0685
   11CHL1   H2B  789   4.648   3.212   6.374  1.2102  0.1963  0.4213
   11CHL1   C20  790   4.428   3.355   5.448 -0.0628 -0.7443 -0.5115
   11CHL1   H20  791   4.410   3.463   5.465  0.6622 -0.6136 -0.5611
   11CHL1   C21  792   4.298   3.283   5.489  0.5584 -0.6452  0.0850
   11CHL1  H21A  793   4.318   3.174   5.489 -1.3573 -1.0727  2.3538
   11CHL1  H21B  794   4.217   3.293   5.414 -0.1121  0.7766  0.9524
   11CHL1  H21C  795   4.247   3.306   5.585 -0.6250 -2.1893 -0.1497
   11CHL1   C22  796   4.438   3.344   5.294 -0.4556  0.2159  0.3633
   11CHL1  H22A  797   4.353   3.395   5.244 -1.1325 -1.8446 -0.6872
   11CHL1  H22B  798   4.530   3.401   5.266 -0.2402  0.0997  0.8186
   11CHL1   C23  799   4.456   3.207   5.233 -0.6333 -0.2058 -0.4990
   11CHL1  H23A  800   4.548   3.157   5.271 -0.2628 -0.2235 -1.3913
   11CHL1  H23B  801   4.371   3.142   5.263 -0.7786 -0.0135 -0.4923
   11CHL1   C24  802   4.460   3.211   5.079 -0.1086  0.6351  0.5654
   11CHL1  H24A  803   4.365   3.253   5.038 -0.7280 -1.3334 -0.1460
   11CHL1  H24B  804   4.538   3.280   5.039  1.3696  0.3481  2.7777
   11CHL1   C25  805   4.481   3.060   5.021  0.2318  0.2985 -0.0195
   11CHL1   H25  806   4.427   2.998   5.097  0.2923  1.7508  1.2585
   11CHL1   C26  807   4.425   3.048   4.882 -0.2855  0.7664 -0.3611
   11CHL1  H26A  808   4.467   3.120   4.809 -2.3637  2.0942 -0.3344
   11CHL1  H26B  809   4.438   2.950   4.830 -0.1982  0.4961  0.1690
   11CHL1  H26C  810   4.319   3.080   4.891 -0.1805  0.8771  0.5771
   11CHL1   C27  811   4.627   3.011   5.022  0.0576 -0.7862  0.0499
   11CHL1  H27A  812   4.627   2.906   4.985 -2.0324 -0.6432 -0.4745
   11CHL1  H27B  813   4.692   3.073   4.956  0.4727  0.2858  1.4177
   11CHL1  H27C  814   4.674   3.011   5.123 -0.7769 -0.9213  0.4497
   12CHL1    C3  815   5.514   3.914   6.058  0.4041  0.6556 -0.4217
   12CHL1    H3  816   5.501   3.806   6.032  1.5125  0.9353 -2.3344
   12CHL1    O3  817   5.565   3.920   6.189 -0.5055  0.4269 -0.0064
   12CHL1   H3'  818   5.630   3.992   6.189  1.5433 -1.1752 -3.3443
   12CHL1    C4  819   5.603   3.973   5.950 -0.5361  0.6456  0.3132
   12CHL1   H4A  820   5.625   4.075   5.987  2.7495 -0.4331  1.6655
   12CHL1   H4B  821   5.702   3.924   5.955 -0.9573 -0.1605  0.8467
   12CHL1    C5  822   5.539   3.981   5.811  0.1430 -0.1074  0.5229
   12CHL1    C6  823   5.590   3.915   5.708  0.1578 -0.2151  0.7810
   12CHL1    H6  824   5.677   3.849   5.722 -0.1231 -0.7012  0.2968
   12CHL1    C7  825   5.538   3.916   5.571  0.2376 -0.4332  0.5316
   12CHL1   H7A  826   5.618   3.931   5.495 -0.4687  1.5329  0.1298
   12CHL1   H7B  827   5.488   3.818   5.556 -1.4082  0.4064  0.3470
   12CHL1    C8  828   5.437   4.033   5.556 -0.4048  0.1179  1.7353
   12CHL1    H8  829   5.497   4.126   5.556 -1.0113  0.5097  2.4455
   12CHL1   C14  830   5.376   4.015   5.409  0.3236 -0.0409  0.1518
   12CHL1   H14  831   5.333   3.913   5.416  0.3272 -0.0746 -0.2579
   12CHL1   C15  832   5.465   4.008   5.280  0.5702  0.1776 -0.4764
   12CHL1  H15A  833   5.538   4.092   5.272 -0.7841  1.5619  0.8569
   12CHL1  H15B  834   5.520   3.913   5.268  3.0477  1.6841 -2.0638
   12CHL1   C16  835   5.360   4.017   5.168  0.4747 -0.1906 -0.4142
   12CHL1  H16A  836   5.388   4.105   5.106  1.9337 -1.3079 -1.4058
   12CHL1  H16B  837   5.362   3.931   5.098  1.7901 -0.3603 -0.1990
   12CHL1   C17  838   5.226   4.062   5.242 -0.0369  0.1003 -0.3596
   12CHL1   H17  839   5.177   3.965   5.261  1.1409 -0.0270  2.6257
   12CHL1   C13  840   5.263   4.112   5.382  0.6191  0.0138 -0.4700
   12CHL1   C18  841   5.309   4.254   5.356  0.0075  0.3442 -0.4817
   12CHL1  H18A  842   5.397   4.258   5.288 -0.5287  0.6696 -1.1719
   12CHL1  H18B  843   5.233   4.321   5.311  1.4130  2.4219  0.1406
   12CHL1  H18C  844   5.338   4.308   5.448  0.1475  0.1022 -0.3808
   12CHL1   C12  845   5.149   4.107   5.494  0.9736 -0.1294 -0.7404
   12CHL1  H12A  846   5.079   4.192   5.480  0.3258 -0.8624 -2.1357
   12CHL1  H12B  847   5.103   4.006   5.486  1.7473 -0.4896 -0.7811
   12CHL1   C11  848   5.209   4.125   5.635  0.5203  0.9856 -0.4196
   12CHL1  H11A  849   5.245   4.229   5.648 -0.4723  1.1698  1.1857
   12CHL1  H11B  850   5.128   4.118   5.711  0.5108  0.1053 -0.5002
   12CHL1    C9  851   5.336   4.028   5.667  0.6896 -0.4499  0.6336
   12CHL1    H9  852   5.299   3.923   5.673  0.4911 -0.4874 -0.9233
   12CHL1   C10  853   5.404   4.060   5.800 -0.7880 -0.0159 -0.8464
   12CHL1   C19  854   5.430   4.214   5.814 -0.9318 -0.3386  0.3425
   12CHL1  H19A  855   5.454   4.252   5.712 -1.0368  0.1708  0.5020
   12CHL1  H19B  856   5.338   4.264   5.853 -0.0130  0.4681  1.5227
   12CHL1  H19C  857   5.506   4.239   5.890 -0.3982  3.5574 -1.2549
   12CHL1    C1  858   5.313   4.008   5.915  0.1804 -0.0420  0.4490
   12CHL1   H1A  859   5.224   4.071   5.939 -0.0797  0.4848 -1.7472
   12CHL1   H1B  860   5.272   3.909   5.887 -0.4520  0.4761 -0.5098
   12CHL1    C2  861   5.385   3.991   6.053  0.1113 -0.1829 -0.3385
   12CHL1   H2A  862   5.316   3.945   6.126  0.9100 -0.2390  0.4030
   12CHL1   H2B  863   5.396   4.096   6.087 -1.0153 -0.6080  1.4668
   12CHL1   C20  864   5.132   4.139   5.144  0.0272 -0.0549 -0.3879
   12CHL1   H20  865   5.185   4.235   5.131  1.9819 -1.2745 -1.9700
   12CHL1   C21  866   4.987   4.139   5.193  0.8086  0.1392 -0.4735
   12CHL1  H21A  867   4.932   4.225   5.149  0.6200 -0.3376 -1.1809
   12CHL1  H21B  868   4.987   4.157   5.303  1.9072  0.6889 -0.5529
   12CHL1  H21C  869   4.932   4.047   5.166  1.7364 -0.1020 -1.6395
   12CHL1   C22  870   5.129   4.069   5.002  0.0520 -0.5666 -0.1406
   12CHL1  H22A  871   5.223   4.103   4.953 -1.0942  1.8163 -0.8701
   12CHL1  H22B  872   5.123   3.959   5.017  0.6550 -0.8425 -1.7278
   12CHL1   C23  873   5.010   4.114   4.910  0.2168  0.1830 -0.7885
   12CHL1  H23A  874   4.910   4.113   4.958  1.2438 -0.3886  1.4537
   12CHL1  H23B  875   5.032   4.221   4.887  1.2935  0.3328  0.8176
   12CHL1   C24  876   4.984   4.027   4.787  0.2146 -0.0085 -0.6220
   12CHL1  H24A  877   4.938   3.933   4.825  1.1204 -0.6457 -1.0467
   12CHL1  H24B  878   4.913   4.087   4.727 -0.7288 -1.0851 -0.6145
   12CHL1   C25  879   5.106   3.998   4.696  0.6781 -0.0863 -0.3361
   12CHL1   H25  880   5.176   3.956   4.771 -0.6815  1.7693  2.1118
   12CHL1   C26  881   5.086   3.891   4.590 -0.3707  0.8427  0.9750
   12CHL1  H26A  882   5.177   3.859   4.535 -1.6073  0.1936 -0.7806
   12CHL1  H26B  883   5.038   3.804   4.639  0.1166  0.9932  1.7385
   12CHL1  H26C  884   5.026   3.927   4.503  0.2035  0.0689  0.2383
   12CHL1   C27  885   5.168   4.121   4.632 -0.1239  0.4638 -0.7279
   12CHL1  H27A  886   5.226   4.177   4.708  2.7217 -1.5498 -1.2133
   12CHL1  H27B  887   5.245   4.096   4.555  1.3293 -2.0696  1.3660
   12CHL1  H27C  888   5.083   4.179   4.591 -1.6636  0.2919  1.9970
   13CHL1    C3  889   5.460   5.053   5.843 -0.7407 -0.5052 -0.1967
   13CHL1    H3  890   5.415   4.955   5.869 -1.6099 -0.4196 -1.3239
   13CHL1    O3  891   5.450   5.133   5.964  0.6720 -0.4091 -0.0290
   13CHL1   H3'  892   5.363   5.171   5.961 -0.0319 -1.9942 -1.2202
   13CHL1    C4  893   5.609   5.049   5.806 -0.1728 -0.0388 -0.3894
   13CHL1   H4A  894   5.664   5.143   5.827  1.0221 -1.0315  1.2360
   13CHL1   H4B  895   5.667   4.978   5.869  2.3083  1.3311 -0.9916
   13CHL1    C5  896   5.634   5.012   5.661  0.2733 -0.0984 -0.3995
   13CHL1    C6  897   5.719   4.919   5.613 -0.1074 -0.5170 -0.3771
   13CHL1    H6  898   5.779   4.864   5.688 -0.6667 -0.1424  0.3552
   13CHL1    C7  899   5.745   4.891   5.468 -1.0685 -0.0775 -0.2431
   13CHL1   H7A  900   5.852   4.866   5.450 -0.8436  0.8793 -0.2900
   13CHL1   H7B  901   5.670   4.812   5.447 -1.6297 -0.0444  1.5455
   13CHL1    C8  902   5.710   5.010   5.385  0.4689  0.0400  0.4646
   13CHL1    H8  903   5.781   5.095   5.397  0.5330  0.1108 -0.3199
   13CHL1   C14  904   5.714   4.978   5.237 -0.2218  0.0860 -0.3391
   13CHL1   H14  905   5.653   4.886   5.232 -1.4223  0.8961 -0.9636
   13CHL1   C15  906   5.848   4.936   5.176  0.0354  0.4433  0.0176
   13CHL1  H15A  907   5.936   5.003   5.190 -0.4797  0.9043  1.1627
   13CHL1  H15B  908   5.875   4.836   5.216 -3.5365 -1.1270 -1.1157
   13CHL1   C16  909   5.819   4.929   5.026  0.1606  0.2414  0.1672
   13CHL1  H16A  910   5.896   4.984   4.968 -0.6170 -1.0150 -2.2305
   13CHL1  H16B  911   5.834   4.828   4.980  0.4001 -0.2342  1.2584
   13CHL1   C17  912   5.679   4.996   5.002  0.2994  0.3430 -0.5221
   13CHL1   H17  913   5.612   4.907   5.005  0.5746 -0.0905 -3.8883
   13CHL1   C13  914   5.649   5.071   5.136  0.0626  0.5187  0.2623
   13CHL1   C18  915   5.735   5.204   5.133 -0.2417  0.1757 -0.5966
   13CHL1  H18A  916   5.727   5.249   5.234  0.0726  0.0107 -0.4971
   13CHL1  H18B  917   5.841   5.179   5.110 -0.5871  0.0001 -2.1287
   13CHL1  H18C  918   5.692   5.280   5.065  1.2089  3.7962  2.2269
   13CHL1   C12  919   5.505   5.099   5.169 -0.3009 -0.3064  0.6635
   13CHL1  H12A  920   5.458   5.172   5.100 -0.1581 -0.3450  0.5256
   13CHL1  H12B  921   5.445   5.007   5.158 -0.2903 -0.1857 -0.4639
   13CHL1   C11  922   5.490   5.147   5.312  0.6496 -0.1170 -0.3472
   13CHL1  H11A  923   5.523   5.253   5.313  0.7621 -0.0878  3.3139
   13CHL1  H11B  924   5.383   5.154   5.341  1.1554  1.6383  1.2289
   13CHL1    C9  925   5.559   5.056   5.415  0.0595 -0.1786  0.1888
   13CHL1    H9  926   5.501   4.961   5.411 -3.0128  1.3181  3.4623
   13CHL1   C10  927   5.550   5.098   5.561  0.2694  0.0643 -0.0354
   13CHL1   C19  928   5.593   5.251   5.562  0.2983 -0.0011  0.5144
   13CHL1  H19A  929   5.664   5.269   5.478 -0.1672  1.3175  0.3867
   13CHL1  H19B  930   5.505   5.318   5.550 -1.9939 -2.7795  0.7831
   13CHL1  H19C  931   5.640   5.277   5.660  1.2965  1.2758 -0.2738
   13CHL1    C1  932   5.403   5.081   5.605  0.0381  0.5283 -0.4638
   13CHL1   H1A  933   5.340   5.147   5.541  2.8276  2.4208 -1.4371
   13CHL1   H1B  934   5.352   4.983   5.591 -0.3528  0.5383  0.7785
   13CHL1    C2  935   5.376   5.134   5.745 -0.9453 -0.0523 -0.1121
   13CHL1   H2A  936   5.269   5.131   5.774 -1.6174 -0.2648 -2.3976
   13CHL1   H2B  937   5.392   5.243   5.743 -0.0845 -0.0820  2.4181
   13CHL1   C20  938   5.672   5.067   4.870  0.3275 -0.3690  0.1626
   13CHL1   H20  939   5.731   5.162   4.876 -1.0110  0.4812  0.3255
   13CHL1   C21  940   5.535   5.116   4.854  0.1747 -0.2977  0.4545
   13CHL1  H21A  941   5.455   5.042   4.874 -0.9841  0.6138 -0.6464
   13CHL1  H21B  942   5.503   5.142   4.751  0.3462  0.8992  0.6785
   13CHL1  H21C  943   5.509   5.206   4.914  1.5922 -0.2502  1.0591
   13CHL1   C22  944   5.702   4.981   4.750  0.2028 -0.0719 -0.0493
   13CHL1  H22A  945   5.682   5.041   4.659 -3.7232 -0.3497  0.4398
   13CHL1  H22B  946   5.812   4.968   4.755  0.2310 -0.2091 -0.9288
   13CHL1   C23  947   5.626   4.847   4.733  0.8825  0.1757 -0.4799
   13CHL1  H23A  948   5.621   4.784   4.824  1.4851  1.7605  0.6966
   13CHL1  H23B  949   5.521   4.869   4.707  0.4251  0.6388  1.5579
   13CHL1   C24  950   5.690   4.763   4.625 -0.4391  0.0768  0.1961
   13CHL1  H24A  951   5.669   4.808   4.525  1.2978 -0.1551 -0.3026
   13CHL1  H24B  952   5.800   4.757   4.637 -0.3909  1.1544  0.3886
   13CHL1   C25  953   5.642   4.615   4.618  0.4742 -0.1035  0.3572
   13CHL1   H25  954   5.661   4.568   4.717  1.7052 -1.3234 -0.4162
   13CHL1   C26  955   5.487   4.604   4.596 -0.0120  0.3744  1.0378
   13CHL1  H26A  956   5.444   4.502   4.584  0.4982  0.3115 -0.4529
   13CHL1  H26B  957   5.424   4.653   4.674 -1.0931 -1.4252  1.3594
   13CHL1  H26C  958   5.463   4.652   4.499 -0.3782  0.4639  1.1719
   13CHL1   C27  959   5.710   4.533   4.506 -0.0556 -0.4119  0.2690
   13CHL1  H27A  960   5.722   4.583   4.408 -1.8875  0.1243  0.2901
   13CHL1  H27B  961   5.804   4.482   4.537 -1.0731 -1.2559  2.1471
   13CHL1  H27C  962   5.655   4.439   4.482 -0.7891 -0.6755  2.7012
   14CHL1    C3  963   4.517   1.620   6.419  0.6333 -0.0828  0.2746
   14CHL1    H3  964   4.424   1.566   6.391  0.5497  0.6407 -0.9034
   14CHL1    O3  965   4.520   1.617   6.567 -0.0831  0.0415 -0.1938
   14CHL1   H3'  966   4.536   1.525   6.586 -3.6120 -0.9271 -1.1793
   14CHL1    C4  967   4.636   1.543   6.359 -0.3404 -0.2096  0.1240
   14CHL1   H4A  968   4.727   1.599   6.389 -0.2185 -0.9360  1.1834
   14CHL1   H4B  969   4.631   1.444   6.408 -2.6313  0.3847  1.2184
   14CHL1    C5  970   4.628   1.543   6.204 -0.5581  0.6475  0.4375
   14CHL1    C6  971   4.633   1.423   6.138  0.1021  0.0687 -0.1097
   14CHL1    H6  972   4.647   1.327   6.190  2.6179 -1.9865 -4.0601
   14CHL1    C7  973   4.623   1.409   5.986 -0.1952 -0.2143 -0.2981
   14CHL1   H7A  974   4.710   1.354   5.944 -0.4632 -1.6156  0.9123
   14CHL1   H7B  975   4.530   1.358   5.955  0.1397 -1.4262  0.6292
   14CHL1    C8  976   4.629   1.556   5.917  0.8755  0.2166 -0.9746
   14CHL1    H8  977   4.739   1.575   5.914  0.9491 -0.0603 -0.2093
   14CHL1   C14  978   4.577   1.548   5.770 -0.1696 -0.2129 -0.0223
   14CHL1   H14  979   4.467   1.532   5.776 -0.2701 -0.5639 -2.1254
   14CHL1   C15  980   4.622   1.433   5.683  0.1138  0.8327  0.5583
   14CHL1  H15A  981   4.729   1.406   5.696 -1.0018 -3.7109  1.9198
   14CHL1  H15B  982   4.554   1.347   5.697  0.0111  1.0500  1.5044
   14CHL1   C16  983   4.595   1.486   5.536 -0.0361  0.2796 -0.0938
   14CHL1  H16A  984   4.695   1.471   5.490  0.4870  2.0047  0.4071
   14CHL1  H16B  985   4.518   1.424   5.485 -1.0041  1.4053 -0.0478
   14CHL1   C17  986   4.551   1.633   5.555  0.7614  0.2882 -0.1909
   14CHL1   H17  987   4.441   1.634   5.570  0.5363 -0.1005 -1.6711
   14CHL1   C13  988   4.606   1.672   5.693  0.4413 -0.1046  0.2686
   14CHL1   C18  989   4.758   1.707   5.676  0.7262  0.5328 -0.4577
   14CHL1  H18A  990   4.771   1.804   5.624 -0.6718  1.0067  0.0344
   14CHL1  H18B  991   4.802   1.721   5.777  0.8655 -1.0256 -0.2705
   14CHL1  H18C  992   4.821   1.627   5.631  0.6434  0.6055 -0.7016
   14CHL1   C12  993   4.528   1.784   5.764  0.4984 -0.1730  0.3934
   14CHL1  H12A  994   4.530   1.879   5.707 -1.8551 -0.5666 -0.4527
   14CHL1  H12B  995   4.421   1.754   5.767  0.7652 -1.2252  0.0857
   14CHL1   C11  996   4.569   1.802   5.913 -0.9750  0.7953  0.5415
   14CHL1  H11A  997   4.675   1.834   5.920 -0.5578 -0.1485 -1.0633
   14CHL1  H11B  998   4.501   1.873   5.965 -0.3468  0.9265  1.1964
   14CHL1    C9  999   4.562   1.667   5.995  0.1707 -0.2374 -0.0585
   14CHL1    H9 1000   4.455   1.637   5.997 -0.3180  1.4390  0.1075
   14CHL1   C10 1001   4.604   1.683   6.144  0.4252  0.0742 -0.0725
   14CHL1   C19 1002   4.735   1.757   6.171 -0.3771 -0.5150  0.3877
   14CHL1  H19A 1003   4.753   1.784   6.277  1.7395  1.6562 -0.4308
   14CHL1  H19B 1004   4.820   1.701   6.128  1.1305  2.2861 -0.5044
   14CHL1  H19C 1005   4.735   1.853   6.115  0.4530  1.0992  2.9619
   14CHL1    C1 1006   4.484   1.757   6.215  0.1744  0.5414  0.5689
   14CHL1   H1A 1007   4.491   1.863   6.182  2.3165  0.4308  0.4809
   14CHL1   H1B 1008   4.386   1.714   6.187  1.0901 -0.8958 -0.5492
   14CHL1    C2 1009   4.497   1.759   6.364  0.8505  0.6145 -0.8448
   14CHL1   H2A 1010   4.400   1.800   6.399 -0.2236 -1.5569 -1.0976
   14CHL1   H2B 1011   4.576   1.823   6.409  0.1046  1.4701 -0.7530
   14CHL1   C20 1012   4.578   1.719   5.431 -0.5341  0.2250 -0.1743
   14CHL1   H20 1013   4.686   1.743   5.428 -0.3709 -0.4362  0.1565
   14CHL1   C21 1014   4.506   1.852   5.448 -0.7253 -0.0948  0.3528
   14CHL1  H21A 1015   4.562   1.921   5.515  0.3290  0.3645 -0.9444
   14CHL1  H21B 1016   4.402   1.838   5.485 -1.4712  1.1292 -1.1466
   14CHL1  H21C 1017   4.493   1.906   5.352 -0.3452  0.7747  0.7731
   14CHL1   C22 1018   4.547   1.659   5.294 -0.1191 -0.1838 -0.0569
   14CHL1  H22A 1019   4.512   1.555   5.308 -1.1078  0.2345  0.7216
   14CHL1  H22B 1020   4.471   1.717   5.237 -0.8218 -2.0371 -1.1094
   14CHL1   C23 1021   4.669   1.639   5.208 -0.1768 -0.0986  0.0012
   14CHL1  H23A 1022   4.719   1.737   5.191  0.6377 -0.5045 -0.0138
   14CHL1  H23B 1023   4.742   1.565   5.247  2.2794  1.7025 -0.9064
   14CHL1   C24 1024   4.637   1.577   5.066 -0.3179 -0.7085  0.0773
   14CHL1  H24A 1025   4.582   1.483   5.087  1.4443 -2.3830 -2.2513
   14CHL1  H24B 1026   4.567   1.637   5.004 -1.0817 -2.3906 -0.7484
   14CHL1   C25 1027   4.755   1.554   4.966 -0.7271 -0.6510 -0.4358
   14CHL1   H25 1028   4.832   1.489   5.012 -0.4347  0.0041  0.0126
   14CHL1   C26 1029   4.697   1.469   4.846  0.4630 -0.5446 -0.0641
   14CHL1  H26A 1030   4.771   1.477   4.763 -0.7724 -1.8231 -1.3289
   14CHL1  H26B 1031   4.684   1.361   4.866  0.5652 -1.6568 -4.7166
   14CHL1  H26C 1032   4.612   1.513   4.791  0.9093 -1.4722 -1.5612
   14CHL1   C27 1033   4.814   1.688   4.913 -0.1561 -0.2080  0.3749
   14CHL1  H27A 1034   4.734   1.758   4.880  0.4791  1.5614  2.3410
   14CHL1  H27B 1035   4.870   1.740   4.994 -0.4282  1.8092 -0.6613
   14CHL1  H27C 1036   4.896   1.675   4.840  0.8397 -0.7389  1.5481
   15CHL1    C3 1037   3.939   0.064   6.330 -0.5945 -0.1827 -0.2787
   15CHL1    H3 1038   3.999   0.154   6.355 -0.9428  0.5153 -1.8554
   15CHL1    O3 1039   3.893   0.010   6.454  0.0608 -0.0304 -0.0881
   15CHL1   H3' 1040   3.920   0.076   6.518  1.5640  0.6091 -1.3145
   15CHL1    C4 1041   3.818   0.110   6.248 -0.0127  0.4920 -0.1043
   15CHL1   H4A 1042   3.759   0.016   6.242  0.1927  0.2640  1.1440
   15CHL1   H4B 1043   3.763   0.189   6.305 -3.3804  0.0078 -2.3639
   15CHL1    C5 1044   3.865   0.168   6.115 -0.1050  0.1263 -0.0142
   15CHL1    C6 1045   3.826   0.287   6.077  0.0662  0.0549  0.0838
   15CHL1    H6 1046   3.761   0.348   6.141  0.1875  0.6312 -0.3321
   15CHL1    C7 1047   3.863   0.355   5.946 -0.3993  0.4388  0.0769
   15CHL1   H7A 1048   3.767   0.397   5.909 -0.3115  1.7647  1.2657
   15CHL1   H7B 1049   3.935   0.432   5.981 -0.4647 -0.1438  1.5836
   15CHL1    C8 1050   3.925   0.254   5.842  0.6459  0.1988 -0.1529
   15CHL1    H8 1051   3.840   0.196   5.799  0.5756 -1.0702  1.5820
   15CHL1   C14 1052   3.999   0.327   5.736 -0.4273  0.1519 -0.4023
   15CHL1   H14 1053   4.091   0.372   5.778 -0.8056 -1.2504  2.1301
   15CHL1   C15 1054   3.925   0.445   5.664 -0.1652  0.4504 -0.1228
   15CHL1  H15A 1055   3.821   0.415   5.637 -0.5082  0.5231  1.0847
   15CHL1  H15B 1056   3.922   0.529   5.736 -2.8078  0.2281  0.1363
   15CHL1   C16 1057   4.013   0.463   5.536  0.4033 -0.1097 -0.0187
   15CHL1  H16A 1058   3.951   0.448   5.445 -2.6851  1.0357  1.7447
   15CHL1  H16B 1059   4.048   0.567   5.519 -0.6051  0.4471  1.1343
   15CHL1   C17 1060   4.116   0.350   5.534  0.0005  0.0632 -0.4166
   15CHL1   H17 1061   4.206   0.389   5.587  1.7335 -1.1892 -2.2930
   15CHL1   C13 1062   4.049   0.244   5.617 -0.1875 -0.1879 -0.3907
   15CHL1   C18 1063   3.941   0.172   5.538 -0.1041  0.1339  0.4733
   15CHL1  H18A 1064   3.870   0.239   5.485 -0.4457 -2.7262 -3.0944
   15CHL1  H18B 1065   3.992   0.127   5.451 -0.4752  0.0366  0.3051
   15CHL1  H18C 1066   3.896   0.088   5.595  0.9816 -0.7175  0.1031
   15CHL1   C12 1067   4.143   0.136   5.680 -0.3117  0.0006  0.6844
   15CHL1  H12A 1068   4.172   0.058   5.606 -1.0182  0.2470  0.1443
   15CHL1  H12B 1069   4.238   0.186   5.712 -0.5714  0.7354  0.3280
   15CHL1   C11 1070   4.076   0.067   5.793 -0.4137  0.2287  0.0729
   15CHL1  H11A 1071   4.000   0.003   5.743 -0.0544  1.3859 -2.1018
   15CHL1  H11B 1072   4.144  -0.003   5.846 -0.1083 -0.1293 -0.7785
   15CHL1    C9 1073   4.015   0.153   5.905  0.9961  0.6679 -0.9535
   15CHL1    H9 1074   4.093   0.222   5.943  1.7606 -1.0005  0.6420
   15CHL1   C10 1075   3.959   0.085   6.030 -0.4418  0.3708  0.4148
   15CHL1   C19 1076   3.884  -0.042   5.981  0.3533  0.0024  0.0403
   15CHL1  H19A 1077   3.843  -0.109   6.060  1.0619  2.2269  2.4751
   15CHL1  H19B 1078   3.806  -0.013   5.908  0.1404  0.5999  0.4916
   15CHL1  H19C 1079   3.959  -0.106   5.930  0.9849  0.6402  0.1439
   15CHL1    C1 1080   4.076   0.043   6.129 -0.7415 -0.1373 -0.2635
   15CHL1   H1A 1081   4.151  -0.020   6.076  0.2798  0.3242  0.5947
   15CHL1   H1B 1082   4.127   0.135   6.164 -2.2878  0.2514  1.0739
   15CHL1    C2 1083   4.033  -0.035   6.250  0.8896 -0.0612 -1.4868
   15CHL1   H2A 1084   4.123  -0.057   6.312  0.5987  0.3784 -0.8956
   15CHL1   H2B 1085   3.975  -0.128   6.235 -0.3790  0.4964 -0.2310
   15CHL1   C20 1086   4.161   0.314   5.386  0.3688 -0.0219 -0.2411
   15CHL1   H20 1087   4.072   0.280   5.330 -0.2730 -1.3085  1.4741
   15CHL1   C21 1088   4.260   0.201   5.391  0.2962  0.0680 -0.7095
   15CHL1  H21A 1089   4.206   0.107   5.415 -2.4966  1.7685  0.2110
   15CHL1  H21B 1090   4.336   0.207   5.471  0.7964 -1.8688 -1.0039
   15CHL1  H21C 1091   4.301   0.173   5.291 -2.1824 -1.6702 -1.3497
   15CHL1   C22 1092   4.200   0.438   5.297  0.4825  0.4203 -0.7588
   15CHL1  H22A 1093   4.114   0.507   5.287 -0.9337 -1.3387 -1.2384
   15CHL1  H22B 1094   4.279   0.499   5.346 -1.5833 -0.5425  4.4050
   15CHL1   C23 1095   4.258   0.397   5.166  0.1764  0.0671 -0.3457
   15CHL1  H23A 1096   4.358   0.352   5.179  1.4291  0.9574 -5.0145
   15CHL1  H23B 1097   4.201   0.315   5.117  0.4717 -1.2394  1.4168
   15CHL1   C24 1098   4.281   0.513   5.065 -0.7707 -0.8183 -0.3055
   15CHL1  H24A 1099   4.185   0.548   5.019 -1.9599 -0.2988  2.3771
   15CHL1  H24B 1100   4.327   0.599   5.119 -0.6745  1.2532 -3.4443
   15CHL1   C25 1101   4.375   0.476   4.942  0.4829 -0.1370  0.4181
   15CHL1   H25 1102   4.467   0.426   4.981 -0.2445 -0.6506  1.5268
   15CHL1   C26 1103   4.318   0.359   4.849 -0.5638 -0.1265 -0.2808
   15CHL1  H26A 1104   4.383   0.354   4.759 -1.2891  2.3393 -1.0233
   15CHL1  H26B 1105   4.310   0.261   4.902 -0.3412  0.2885  0.5231
   15CHL1  H26C 1106   4.218   0.397   4.820 -0.4081 -0.9108 -1.9545
   15CHL1   C27 1107   4.419   0.595   4.854  0.5734 -0.5252 -0.4851
   15CHL1  H27A 1108   4.326   0.651   4.832  0.9463  0.2055 -0.2292
   15CHL1  H27B 1109   4.491   0.652   4.917 -1.3066  0.7946  0.5525
   15CHL1  H27C 1110   4.468   0.566   4.759 -0.2403 -2.3409 -0.4080
   16CHL1    C3 1111   0.376   0.469   6.063  0.4248  0.5459 -0.1459
   16CHL1    H3 1112   0.268   0.497   6.060 -0.4790 -2.3716  1.1111
   16CHL1    O3 1113   0.404   0.440   6.198 -0.5886  0.0403 -0.1519
   16CHL1   H3' 1114   0.463   0.366   6.182 -1.2317 -0.7155  0.8637
   16CHL1    C4 1115   0.388   0.334   5.984  0.4202 -0.9532  0.7206
   16CHL1   H4A 1116   0.488   0.288   5.999  1.1876  0.7770  1.1419
   16CHL1   H4B 1117   0.308   0.266   6.021 -1.1178  0.9027  0.9331
   16CHL1    C5 1118   0.376   0.348   5.831 -0.1273  0.4076  0.0032
   16CHL1    C6 1119   0.273   0.282   5.764  0.0374 -0.7476  0.2155
   16CHL1    H6 1120   0.195   0.235   5.826  0.6209 -0.8435  0.8819
   16CHL1    C7 1121   0.263   0.286   5.611 -0.0619 -0.3916 -0.0996
   16CHL1   H7A 1122   0.262   0.185   5.565  1.2354 -1.0110  1.1591
   16CHL1   H7B 1123   0.169   0.334   5.574 -0.1537  0.5401  1.2828
   16CHL1    C8 1124   0.390   0.351   5.542  0.0168 -0.2185 -0.4271
   16CHL1    H8 1125   0.470   0.277   5.565  0.2469  0.3203  0.5497
   16CHL1   C14 1126   0.365   0.391   5.400 -0.6428  0.0465  0.3012
   16CHL1   H14 1127   0.298   0.480   5.400 -0.3457  0.2810 -0.6366
   16CHL1   C15 1128   0.297   0.287   5.308 -0.8921  0.3043 -0.0176
   16CHL1  H15A 1129   0.349   0.189   5.317 -1.5006 -0.0049  0.1996
   16CHL1  H15B 1130   0.190   0.272   5.336 -0.7136 -0.4890  0.2486
   16CHL1   C16 1131   0.326   0.335   5.171  0.3648  0.5849  0.2399
   16CHL1  H16A 1132   0.356   0.250   5.106 -1.2684 -1.1168  1.5837
   16CHL1  H16B 1133   0.243   0.392   5.124  2.4040  4.3641  0.8828
   16CHL1   C17 1134   0.441   0.442   5.183  0.8319  0.1299  0.0318
   16CHL1   H17 1135   0.391   0.541   5.186 -0.1673 -0.3290 -0.8182
   16CHL1   C13 1136   0.489   0.434   5.318 -0.3055  0.2063 -0.9275
   16CHL1   C18 1137   0.593   0.320   5.332 -0.3975 -0.1308 -0.2183
   16CHL1  H18A 1138   0.553   0.231   5.278 -1.4998  0.2100  0.0171
   16CHL1  H18B 1139   0.685   0.353   5.279  0.2922  1.8752  2.0577
   16CHL1  H18C 1140   0.616   0.278   5.432  0.4055  1.6573  0.3908
   16CHL1   C12 1141   0.533   0.560   5.396  0.5412  0.0205  1.0943
   16CHL1  H12A 1142   0.627   0.606   5.358 -1.5188  1.3091 -3.0662
   16CHL1  H12B 1143   0.453   0.637   5.389  0.0742 -0.4021  1.6856
   16CHL1   C11 1144   0.566   0.532   5.547  0.4333 -0.5197 -0.4661
   16CHL1  H11A 1145   0.660   0.474   5.550  0.4454 -0.6317  4.2348
   16CHL1  H11B 1146   0.590   0.629   5.596 -2.7222 -0.7544  1.8331
   16CHL1    C9 1147   0.451   0.469   5.621  0.1621 -0.0278 -0.0222
   16CHL1    H9 1148   0.369   0.543   5.619 -0.3745 -0.5646  1.1389
   16CHL1   C10 1149   0.482   0.439   5.765  0.5069 -0.2726 -0.6582
   16CHL1   C19 1150   0.627   0.376   5.783 -0.1958  0.6922 -0.1329
   16CHL1  H19A 1151   0.657   0.360   5.889 -0.2759  1.1544 -0.0360
   16CHL1  H19B 1152   0.620   0.278   5.731  0.8979  1.4021 -1.6986
   16CHL1  H19C 1153   0.704   0.440   5.735 -0.8312  0.0180 -2.1589
   16CHL1    C1 1154   0.485   0.577   5.847  0.2697 -0.2168  1.0748
   16CHL1   H1A 1155   0.571   0.642   5.822 -1.1815  1.4344  0.1615
   16CHL1   H1B 1156   0.387   0.620   5.819 -0.1516 -0.6879  1.7840
   16CHL1    C2 1157   0.480   0.571   6.003 -0.7897 -0.3739  0.7477
   16CHL1   H2A 1158   0.477   0.668   6.056  0.0032 -0.2776  0.6308
   16CHL1   H2B 1159   0.581   0.529   6.021 -0.5075  0.0671  0.1986
   16CHL1   C20 1160   0.537   0.441   5.055 -0.6752 -0.2819 -0.6141
   16CHL1   H20 1161   0.581   0.340   5.052  1.0631  0.4707 -1.6170
   16CHL1   C21 1162   0.647   0.558   5.068  0.0015 -0.0025  0.5886
   16CHL1  H21A 1163   0.605   0.661   5.071 -1.6211 -0.6134 -0.1234
   16CHL1  H21B 1164   0.717   0.528   4.988 -0.0012 -0.4820  0.7608
   16CHL1  H21C 1165   0.698   0.541   5.166 -1.6225 -0.4472  1.4022
   16CHL1   C22 1166   0.448   0.458   4.930 -0.8308 -0.0177 -0.2207
   16CHL1  H22A 1167   0.525   0.472   4.852  0.5824 -2.0705  0.6960
   16CHL1  H22B 1168   0.388   0.366   4.912  0.3740 -0.8842  0.0240
   16CHL1   C23 1169   0.367   0.585   4.924  0.9871 -0.2270  0.7442
   16CHL1  H23A 1170   0.289   0.593   5.002 -0.7575  0.1842 -0.9514
   16CHL1  H23B 1171   0.431   0.675   4.937  1.5864 -0.3959 -0.8078
   16CHL1   C24 1172   0.284   0.601   4.788 -0.0727  1.0312  0.1827
   16CHL1  H24A 1173   0.231   0.698   4.788 -1.8107  0.1179  0.5571
   16CHL1  H24B 1174   0.352   0.604   4.700 -1.5513  1.5976 -0.9831
   16CHL1   C25 1175   0.176   0.489   4.760  0.5659  0.0651  0.4543
   16CHL1   H25 1176   0.235   0.396   4.746  0.7689 -0.0835  2.1125
   16CHL1   C26 1177   0.080   0.476   4.880 -0.4206  0.9922  0.0589
   16CHL1  H26A 1178   0.050   0.581   4.902  2.5942  1.7530  0.9814
   16CHL1  H26B 1179  -0.011   0.421   4.847 -1.3573  3.0302 -0.9706
   16CHL1  H26C 1180   0.131   0.438   4.971  0.1992 -0.6946 -0.9439
   16CHL1   C27 1181   0.102   0.532   4.630 -0.6645 -0.2733 -0.2122
   16CHL1  H27A 1182   0.174   0.523   4.546  1.3778  0.1983  1.4090
   16CHL1  H27B 1183   0.014   0.467   4.609 -1.1251 -0.2422  1.5272
   16CHL1  H27C 1184   0.069   0.637   4.640  0.6161  0.2826 -1.4398
   17CHL1    C3 1185   4.348   1.176   6.465 -0.4362  0.0417  0.1866
   17CHL1    H3 1186   4.434   1.234   6.425 -0.2725 -0.5509 -0.3551
   17CHL1    O3 1187   4.375   1.143   6.603 -0.4026 -0.1372 -0.3106
   17CHL1   H3' 1188   4.361   1.049   6.616  0.4252 -0.0892  1.1091
   17CHL1    C4 1189   4.216   1.254   6.443  0.8023 -0.0570 -0.0544
   17CHL1   H4A 1190   4.122   1.216   6.488  0.4701  1.1261  0.2964
   17CHL1   H4B 1191   4.239   1.346   6.500  0.8097  0.1293 -0.3588
   17CHL1    C5 1192   4.202   1.281   6.292 -0.0460 -0.1784 -0.4993
   17CHL1    C6 1193   4.175   1.408   6.253  0.6924 -0.0088  0.5037
   17CHL1    H6 1194   4.161   1.478   6.336 -1.5484 -1.2216  1.2246
   17CHL1    C7 1195   4.154   1.457   6.110 -0.9181 -0.8887 -0.1303
   17CHL1   H7A 1196   4.069   1.528   6.103 -0.2294 -0.1432 -1.3699
   17CHL1   H7B 1197   4.251   1.505   6.085 -1.0208  0.3721  1.6992
   17CHL1    C8 1198   4.148   1.340   6.010  0.3950  0.1499 -0.4774
   17CHL1    H8 1199   4.044   1.301   6.010  0.3446  0.2238  1.2733
   17CHL1   C14 1200   4.187   1.387   5.873  0.5988  0.2672  0.1010
   17CHL1   H14 1201   4.291   1.427   5.872  1.3817 -1.6346 -2.5030
   17CHL1   C15 1202   4.108   1.502   5.813  0.5825 -0.7540 -0.5678
   17CHL1  H15A 1203   3.998   1.499   5.830  0.7518 -2.9854  0.4417
   17CHL1  H15B 1204   4.129   1.598   5.865  1.3320  0.1418 -2.4366
   17CHL1   C16 1205   4.138   1.507   5.664  0.0334  0.3149  0.6524
   17CHL1  H16A 1206   4.053   1.513   5.592  1.6009 -0.4667 -1.3474
   17CHL1  H16B 1207   4.205   1.593   5.644  2.2115 -1.1032  1.5724
   17CHL1   C17 1208   4.216   1.362   5.634 -0.0224  0.0467  0.0079
   17CHL1   H17 1209   4.324   1.390   5.629  0.4260 -1.1576  1.7369
   17CHL1   C13 1210   4.193   1.280   5.765  0.1559 -0.9535  0.8715
   17CHL1   C18 1211   4.053   1.218   5.757  0.4431  0.6620 -0.1674
   17CHL1  H18A 1212   3.973   1.295   5.748  0.1257  0.2842 -0.6580
   17CHL1  H18B 1213   4.050   1.140   5.678  0.3425 -1.1470  1.5445
   17CHL1  H18C 1214   4.036   1.165   5.853  1.0786  1.6615  0.5180
   17CHL1   C12 1215   4.294   1.176   5.800  0.5394  0.1884  0.3316
   17CHL1  H12A 1216   4.288   1.096   5.723 -0.0453  0.3245  0.2302
   17CHL1  H12B 1217   4.395   1.220   5.798 -0.1936  1.9012 -0.6348
   17CHL1   C11 1218   4.261   1.112   5.937 -0.4865 -0.2624  0.1932
   17CHL1  H11A 1219   4.170   1.048   5.943  0.3256 -1.3393  1.9627
   17CHL1  H11B 1220   4.343   1.046   5.975  0.3943  1.3710  1.2521
   17CHL1    C9 1221   4.239   1.217   6.050  0.4786 -0.2355  0.1878
   17CHL1    H9 1222   4.339   1.263   6.064  0.0055  0.0197  3.7249
   17CHL1   C10 1223   4.222   1.166   6.198 -0.7055 -0.2767  0.3590
   17CHL1   C19 1224   4.099   1.075   6.184 -0.5656  0.6588 -0.2103
   17CHL1  H19A 1225   4.006   1.121   6.143 -1.9303 -0.9806  0.9217
   17CHL1  H19B 1226   4.132   0.987   6.125 -1.5731 -0.8699  1.4222
   17CHL1  H19C 1227   4.067   1.034   6.282  0.5539  3.4128  1.4494
   17CHL1    C1 1228   4.337   1.071   6.244  0.6791  0.4035  0.1811
   17CHL1   H1A 1229   4.352   0.975   6.191 -3.4401 -0.2219 -0.1877
   17CHL1   H1B 1230   4.427   1.132   6.223  1.5669 -0.8417  0.2150
   17CHL1    C2 1231   4.343   1.039   6.392 -0.0395 -0.6256  0.5347
   17CHL1   H2A 1232   4.436   0.988   6.423  1.0233  0.2301 -1.0864
   17CHL1   H2B 1233   4.254   0.975   6.412  0.5026 -1.3562  0.6353
   17CHL1   C20 1234   4.167   1.297   5.498 -0.8348 -0.7929 -0.2325
   17CHL1   H20 1235   4.062   1.261   5.502 -0.4153 -2.0061  0.7433
   17CHL1   C21 1236   4.270   1.188   5.462 -0.5516 -0.6008  0.1462
   17CHL1  H21A 1237   4.263   1.101   5.531  2.0269 -0.3201  0.8692
   17CHL1  H21B 1238   4.376   1.219   5.457 -0.2672 -1.6697 -0.6717
   17CHL1  H21C 1239   4.252   1.160   5.356  3.9933 -0.3270 -0.8875
   17CHL1   C22 1240   4.179   1.412   5.392 -0.2921 -0.1573 -0.2182
   17CHL1  H22A 1241   4.102   1.491   5.400 -0.4652 -0.4870  1.9942
   17CHL1  H22B 1242   4.278   1.461   5.402 -0.1234 -0.2935 -1.0766
   17CHL1   C23 1243   4.157   1.366   5.248 -0.4721 -0.5808  0.3285
   17CHL1  H23A 1244   4.247   1.309   5.215  0.0461 -0.3830  1.3694
   17CHL1  H23B 1245   4.078   1.288   5.250 -1.8914  0.6011 -2.9230
   17CHL1   C24 1246   4.105   1.480   5.158  0.0544 -1.0122 -0.2239
   17CHL1  H24A 1247   4.001   1.505   5.187 -0.0264 -1.4341 -0.1419
   17CHL1  H24B 1248   4.160   1.573   5.185  0.3830 -1.3002  0.1062
   17CHL1   C25 1249   4.112   1.466   5.005  0.1201  0.1086  0.4156
   17CHL1   H25 1250   4.048   1.382   4.969  0.4037 -0.0634  0.3132
   17CHL1   C26 1251   4.079   1.594   4.932  0.5383 -0.0015  0.5031
   17CHL1  H26A 1252   3.978   1.629   4.964 -1.6455 -2.9653 -2.4748
   17CHL1  H26B 1253   4.163   1.661   4.962  0.2760  1.3633 -1.6371
   17CHL1  H26C 1254   4.084   1.587   4.822  2.2179  1.3403  0.4588
   17CHL1   C27 1255   4.250   1.414   4.965 -0.7044 -0.4574 -0.1660
   17CHL1  H27A 1256   4.294   1.334   5.028  1.4145 -1.0768 -2.2714
   17CHL1  H27B 1257   4.253   1.380   4.859  2.1559 -2.3329  0.3943
   17CHL1  H27C 1258   4.325   1.496   4.961 -0.1667 -0.9648 -1.0601
   18CHL1    C3 1259   3.202   6.824   6.175 -0.0794  0.0106  0.3055
   18CHL1    H3 1260   3.277   6.742   6.170 -0.6681 -0.5294  0.1774
   18CHL1    O3 1261   3.157   6.830   6.308  0.0832 -0.6302  0.2053
   18CHL1   H3' 1262   3.163   6.923   6.330  2.0580 -0.8055  0.5973
   18CHL1    C4 1263   3.272   6.963   6.149 -0.5036  0.2107  0.3342
   18CHL1   H4A 1264   3.193   7.038   6.171  0.9971  2.3410 -1.1357
   18CHL1   H4B 1265   3.353   6.983   6.222 -0.0335  3.2540 -0.8910
   18CHL1    C5 1266   3.314   6.958   6.003 -0.2533  0.8345 -0.6799
   18CHL1    C6 1267   3.441   6.971   5.968 -0.0054 -0.4715 -0.2364
   18CHL1    H6 1268   3.518   6.985   6.045  0.8330 -0.7217 -1.0158
   18CHL1    C7 1269   3.495   6.962   5.828  0.4802  0.5594 -0.7018
   18CHL1   H7A 1270   3.566   7.046   5.815  0.0251  1.2896  1.2393
   18CHL1   H7B 1271   3.544   6.864   5.806  1.4089  0.7575  0.3739
   18CHL1    C8 1272   3.384   6.977   5.721 -1.1022  0.1391  0.8774
   18CHL1    H8 1273   3.355   7.085   5.718  2.9043  1.3798  0.6160
   18CHL1   C14 1274   3.449   6.941   5.582 -0.0018  0.1150 -0.4513
   18CHL1   H14 1275   3.483   6.835   5.577 -1.3276 -0.2729 -2.0863
   18CHL1   C15 1276   3.571   7.012   5.533 -0.0728 -0.1893  0.2628
   18CHL1  H15A 1277   3.553   7.121   5.545  3.7423  0.7454 -0.9756
   18CHL1  H15B 1278   3.663   6.995   5.593  1.0061 -1.7860 -1.7173
   18CHL1   C16 1279   3.588   6.985   5.386 -0.9152 -0.2604  0.4759
   18CHL1  H16A 1280   3.580   7.084   5.336 -1.4018 -0.8310 -0.6118
   18CHL1  H16B 1281   3.689   6.947   5.358 -1.1629 -0.7420  0.2223
   18CHL1   C17 1282   3.457   6.899   5.351 -0.0226 -0.1438 -0.1616
   18CHL1   H17 1283   3.493   6.797   5.377 -0.1552 -0.5228 -1.4167
   18CHL1   C13 1284   3.357   6.938   5.466 -0.5871 -0.1619  0.1634
   18CHL1   C18 1285   3.286   7.076   5.434  0.6707  0.0689 -0.2557
   18CHL1  H18A 1286   3.215   7.046   5.354  0.5393 -2.9701  0.8477
   18CHL1  H18B 1287   3.231   7.118   5.522 -0.8126 -1.1850 -0.5339
   18CHL1  H18C 1288   3.361   7.146   5.392 -0.3306  1.7768  0.6678
   18CHL1   C12 1289   3.237   6.847   5.502 -0.4454  0.0984 -0.3389
   18CHL1  H12A 1290   3.172   6.821   5.416 -0.8611 -0.1231  0.0382
   18CHL1  H12B 1291   3.280   6.747   5.521 -0.7522  0.0642  0.1971
   18CHL1   C11 1292   3.163   6.883   5.638  0.6016  0.2764 -0.3879
   18CHL1  H11A 1293   3.091   6.967   5.629  0.3777  0.4262  2.0386
   18CHL1  H11B 1294   3.095   6.800   5.666 -0.0160  1.2725  1.2512
   18CHL1    C9 1295   3.263   6.901   5.759  0.2068  0.2715  0.8811
   18CHL1    H9 1296   3.299   6.796   5.760  1.9533  0.7180 -2.2071
   18CHL1   C10 1297   3.206   6.931   5.895  0.3048 -0.6122 -0.2487
   18CHL1   C19 1298   3.125   7.061   5.889 -0.1987 -1.1870 -0.1755
   18CHL1  H19A 1299   3.040   7.050   5.818  1.4700 -2.3656 -2.1175
   18CHL1  H19B 1300   3.076   7.096   5.982  0.0895 -0.7843 -0.1745
   18CHL1  H19C 1301   3.187   7.149   5.862 -1.8525  0.3451  0.8197
   18CHL1    C1 1302   3.117   6.811   5.942 -0.1348 -0.2808 -0.4632
   18CHL1   H1A 1303   3.019   6.820   5.892 -0.3891 -1.7884 -0.2902
   18CHL1   H1B 1304   3.169   6.715   5.920 -0.3014 -0.9518  1.8142
   18CHL1    C2 1305   3.079   6.814   6.091 -0.6734  0.2052 -0.5781
   18CHL1   H2A 1306   3.021   6.726   6.127 -0.9157 -0.1285 -1.7394
   18CHL1   H2B 1307   3.012   6.898   6.117 -1.3784 -0.5109 -0.0378
   18CHL1   C20 1308   3.408   6.897   5.207  0.2853  0.1833 -0.5169
   18CHL1   H20 1309   3.305   6.856   5.214  0.3936  0.2014  2.4391
   18CHL1   C21 1310   3.506   6.795   5.139  0.1529 -0.7126 -0.3545
   18CHL1  H21A 1311   3.490   6.696   5.187 -3.4077 -0.9530 -1.6826
   18CHL1  H21B 1312   3.608   6.836   5.125 -0.7849  1.7611 -0.3865
   18CHL1  H21C 1313   3.466   6.771   5.038 -1.0894 -1.2669  0.2476
   18CHL1   C22 1314   3.403   7.030   5.125 -0.2277 -0.1770  0.0982
   18CHL1  H22A 1315   3.340   7.101   5.183  0.3494  0.9294 -0.5802
   18CHL1  H22B 1316   3.506   7.068   5.110 -0.0375 -1.0066 -0.7300
   18CHL1   C23 1317   3.342   7.008   4.984 -0.3218 -0.5003 -0.3409
   18CHL1  H23A 1318   3.412   6.947   4.922 -2.3311 -4.0784  0.6352
   18CHL1  H23B 1319   3.243   6.959   4.996 -1.6125  2.2213  0.9357
   18CHL1   C24 1320   3.320   7.138   4.899  0.4127 -0.6948 -0.5790
   18CHL1  H24A 1321   3.408   7.206   4.913  0.1550 -0.7252  1.5622
   18CHL1  H24B 1322   3.309   7.098   4.796 -1.2046 -2.3342  0.1675
   18CHL1   C25 1323   3.177   7.205   4.909 -0.0822 -0.2453  0.1926
   18CHL1   H25 1324   3.101   7.129   4.882  1.4671 -1.9828  0.5042
   18CHL1   C26 1325   3.146   7.255   5.054  0.6070  0.0562  0.2919
   18CHL1  H26A 1326   3.116   7.165   5.112 -0.8072 -0.9380 -1.8192
   18CHL1  H26B 1327   3.233   7.295   5.111  0.4726  2.0336 -0.7905
   18CHL1  H26C 1328   3.059   7.323   5.054  0.8240  0.3364  0.6482
   18CHL1   C27 1329   3.171   7.316   4.805  0.5989  0.4342 -0.0867
   18CHL1  H27A 1330   3.169   7.265   4.706 -2.5834 -1.5007  0.8100
   18CHL1  H27B 1331   3.074   7.371   4.809 -0.1198 -0.8536  0.9662
   18CHL1  H27C 1332   3.251   7.392   4.811  2.2378 -1.1319 -1.0760
   19CHL1    C3 1333   3.395   3.466   6.155 -0.2037  0.0916 -0.5726
   19CHL1    H3 1334   3.411   3.569   6.116  2.5531  0.1531  0.4620
   19CHL1    O3 1335   3.366   3.466   6.289 -0.7560 -0.7323  0.2619
   19CHL1   H3' 1336   3.344   3.376   6.315 -0.4955 -1.3802 -1.6181
   19CHL1    C4 1337   3.280   3.392   6.090 -0.9467 -0.2611 -0.3885
   19CHL1   H4A 1338   3.273   3.290   6.132  1.1599 -0.2338  0.1067
   19CHL1   H4B 1339   3.190   3.455   6.108 -0.4141 -0.0597  1.8029
   19CHL1    C5 1340   3.309   3.384   5.943 -0.0425  0.8920  0.6180
   19CHL1    C6 1341   3.219   3.440   5.859 -0.4532 -0.4736  0.0139
   19CHL1    H6 1342   3.140   3.503   5.902 -0.4514  0.3302 -1.1161
   19CHL1    C7 1343   3.226   3.436   5.714  0.2592 -0.5072 -0.7376
   19CHL1   H7A 1344   3.125   3.401   5.684 -1.8699  1.5404  3.2614
   19CHL1   H7B 1345   3.253   3.537   5.677  0.9407 -0.0256  0.9870
   19CHL1    C8 1346   3.334   3.332   5.668 -0.6376 -0.5666  0.4966
   19CHL1    H8 1347   3.280   3.237   5.686 -1.6387 -0.3779 -1.2614
   19CHL1   C14 1348   3.362   3.348   5.515  0.6084  0.2876  0.3928
   19CHL1   H14 1349   3.412   3.447   5.504 -2.6072  1.8500 -1.4465
   19CHL1   C15 1350   3.247   3.357   5.424 -0.1297  0.1602  1.0723
   19CHL1  H15A 1351   3.175   3.281   5.461  0.5090  0.2598  2.6058
   19CHL1  H15B 1352   3.195   3.455   5.414 -0.3075  0.0221  0.6454
   19CHL1   C16 1353   3.303   3.316   5.286  0.6642 -0.0268 -1.4027
   19CHL1  H16A 1354   3.242   3.231   5.248  1.2174 -1.1177  0.0644
   19CHL1  H16B 1355   3.296   3.402   5.217 -0.6644  1.7517  0.7972
   19CHL1   C17 1356   3.450   3.282   5.321  0.0519 -0.7318 -0.1988
   19CHL1   H17 1357   3.497   3.383   5.316  0.1934 -0.4357  3.6561
   19CHL1   C13 1358   3.454   3.245   5.466  0.0174 -0.4587 -0.3766
   19CHL1   C18 1359   3.391   3.106   5.488 -0.0009 -0.0445  0.9854
   19CHL1  H18A 1360   3.283   3.105   5.463  0.4740  0.3461 -1.3043
   19CHL1  H18B 1361   3.452   3.033   5.430  2.7805 -0.2133  3.8480
   19CHL1  H18C 1362   3.387   3.070   5.593 -2.2771 -0.4498  0.8212
   19CHL1   C12 1363   3.591   3.266   5.529 -0.8627 -1.1224 -0.4742
   19CHL1  H12A 1364   3.668   3.201   5.482 -0.2094 -1.0095  0.4154
   19CHL1  H12B 1365   3.627   3.367   5.499  0.1434 -0.9822  1.0804
   19CHL1   C11 1366   3.579   3.244   5.687  0.6810 -0.0181 -0.7686
   19CHL1  H11A 1367   3.562   3.136   5.704  1.2449  0.3532  3.0820
   19CHL1  H11B 1368   3.665   3.278   5.748 -0.9011  0.5223  1.2867
   19CHL1    C9 1369   3.465   3.329   5.754  0.3096  0.5343 -0.6189
   19CHL1    H9 1370   3.505   3.433   5.745 -0.0501  0.7303 -0.0121
   19CHL1   C10 1371   3.439   3.308   5.910 -0.4763 -0.3309 -0.4742
   19CHL1   C19 1372   3.415   3.157   5.929 -0.5372 -0.8245 -1.1325
   19CHL1  H19A 1373   3.516   3.111   5.928  0.0452  0.2797  0.9085
   19CHL1  H19B 1374   3.372   3.135   6.029 -2.3024  0.7440 -1.4871
   19CHL1  H19C 1375   3.328   3.118   5.871 -0.3619 -0.9720 -1.2978
   19CHL1    C1 1376   3.559   3.360   5.993  0.5123 -0.2898  0.6827
   19CHL1   H1A 1377   3.643   3.289   5.977 -0.8837 -1.6918 -0.6864
   19CHL1   H1B 1378   3.577   3.466   5.964  1.3561 -0.3006  1.1363
   19CHL1    C2 1379   3.528   3.391   6.139 -0.6173  0.0279  0.1045
   19CHL1   H2A 1380   3.606   3.447   6.196  0.9139 -0.3949 -1.4771
   19CHL1   H2B 1381   3.514   3.296   6.195 -3.1060  0.3545  0.1247
   19CHL1   C20 1382   3.527   3.199   5.220  0.2223  0.0542  0.0089
   19CHL1   H20 1383   3.608   3.146   5.275 -0.0332  0.3987  0.7169
   19CHL1   C21 1384   3.598   3.306   5.129 -0.7329 -0.6147 -1.0023
   19CHL1  H21A 1385   3.520   3.383   5.111 -2.2503 -2.2385 -1.6049
   19CHL1  H21B 1386   3.632   3.252   5.038  0.1386  1.4659 -1.9867
   19CHL1  H21C 1387   3.685   3.344   5.187 -0.3604 -1.4753 -0.9857
   19CHL1   C22 1388   3.441   3.102   5.138 -0.2010  0.0259  0.4178
   19CHL1  H22A 1389   3.368   3.054   5.206 -0.1592  0.1877  0.5781
   19CHL1  H22B 1390   3.382   3.171   5.075  0.4205  1.2295  1.1216
   19CHL1   C23 1391   3.523   2.995   5.057 -0.4881  0.2640  0.6639
   19CHL1  H23A 1392   3.605   3.041   4.998 -0.2661  1.6434  1.9765
   19CHL1  H23B 1393   3.580   2.929   5.126 -0.1872  0.0764  0.2418
   19CHL1   C24 1394   3.423   2.918   4.971 -0.2490 -0.2877  0.5589
   19CHL1  H24A 1395   3.352   2.857   5.030  0.2758 -1.1392  0.3345
   19CHL1  H24B 1396   3.368   2.992   4.909  0.7398 -0.7316 -0.9053
   19CHL1   C25 1397   3.493   2.820   4.870 -0.7370  0.6517  0.2725
   19CHL1   H25 1398   3.575   2.876   4.820 -1.5437 -0.8138 -2.9222
   19CHL1   C26 1399   3.557   2.697   4.943 -0.8648  0.0547  0.0125
   19CHL1  H26A 1400   3.485   2.635   5.000 -0.7987  0.6735  0.7908
   19CHL1  H26B 1401   3.609   2.629   4.872 -0.0130  0.7294 -0.0303
   19CHL1  H26C 1402   3.629   2.729   5.022  0.1147  1.2624 -1.3171
   19CHL1   C27 1403   3.391   2.771   4.768 -0.2114  0.7490  0.5547
   19CHL1  H27A 1404   3.430   2.697   4.694 -0.4460  1.0886  0.0813
   19CHL1  H27B 1405   3.303   2.723   4.815 -1.2586  1.8441 -0.2273
   19CHL1  H27C 1406   3.356   2.859   4.709  0.4639 -1.1671 -3.0187
   20CHL1    C3 1407   3.822   3.812   6.066 -0.2494  0.1287  0.1746
   20CHL1    H3 1408   3.900   3.852   5.998 -0.4948  2.4294  1.1631
   20CHL1    O3 1409   3.871   3.793   6.198  0.6191  0.4175 -0.0677
   20CHL1   H3' 1410   3.902   3.881   6.222 -0.4454  1.2605 -1.6330
   20CHL1    C4 1411   3.699   3.902   6.061  0.4316 -0.6067  0.3785
   20CHL1   H4A 1412   3.623   3.854   6.128 -0.8675  0.1212 -0.5221
   20CHL1   H4B 1413   3.733   3.997   6.108  0.1463 -0.6331  0.6454
   20CHL1    C5 1414   3.641   3.921   5.920 -0.7208  1.0533 -0.3881
   20CHL1    C6 1415   3.634   4.036   5.857 -0.3581  0.3095 -0.3362
   20CHL1    H6 1416   3.675   4.123   5.910  2.4390  0.0468 -1.8504
   20CHL1    C7 1417   3.583   4.056   5.714  0.5287  0.1982  0.1045
   20CHL1   H7A 1418   3.512   4.142   5.717 -0.2584 -0.4359 -0.1229
   20CHL1   H7B 1419   3.670   4.088   5.653  1.1963 -1.9408 -0.1288
   20CHL1    C8 1420   3.519   3.930   5.662 -0.1782 -0.3244  0.2134
   20CHL1    H8 1421   3.417   3.923   5.705 -0.7828 -0.1501 -1.1286
   20CHL1   C14 1422   3.506   3.943   5.503  0.3067  0.3733  0.3372
   20CHL1   H14 1423   3.612   3.951   5.469  0.2777  1.7618  0.5064
   20CHL1   C15 1424   3.458   4.077   5.452 -0.1744 -0.0780 -0.3205
   20CHL1  H15A 1425   3.372   4.121   5.507 -0.9839 -0.7144 -1.0456
   20CHL1  H15B 1426   3.537   4.153   5.434 -1.1772  1.2001  0.4899
   20CHL1   C16 1427   3.396   4.047   5.316  0.0508 -0.6118  0.3391
   20CHL1  H16A 1428   3.289   4.072   5.330  0.7020  1.8152  1.5006
   20CHL1  H16B 1429   3.428   4.114   5.233 -0.8332 -1.5310 -0.7759
   20CHL1   C17 1430   3.417   3.893   5.286  0.2975 -0.2782 -0.1477
   20CHL1   H17 1431   3.515   3.893   5.233 -0.3211  2.3420 -1.4168
   20CHL1   C13 1432   3.431   3.832   5.432 -0.4607  0.0709  0.7979
   20CHL1   C18 1433   3.287   3.826   5.483  0.1630 -0.1085 -0.0067
   20CHL1  H18A 1434   3.244   3.745   5.420  1.5686  0.9845 -2.5139
   20CHL1  H18B 1435   3.267   3.807   5.590 -6.2735 -0.0700 -0.8057
   20CHL1  H18C 1436   3.229   3.917   5.458  1.7428  0.9815  0.1393
   20CHL1   C12 1437   3.511   3.706   5.454 -0.8009 -0.2468  0.5087
   20CHL1  H12A 1438   3.454   3.624   5.405  0.2567 -0.7045  0.0066
   20CHL1  H12B 1439   3.606   3.724   5.400 -1.5543  2.4468 -0.0839
   20CHL1   C11 1440   3.538   3.681   5.606 -0.2862  0.2815 -0.4162
   20CHL1  H11A 1441   3.446   3.636   5.648 -0.2787 -0.1932 -0.8954
   20CHL1  H11B 1442   3.609   3.596   5.614 -1.9697 -1.0777  0.7982
   20CHL1    C9 1443   3.596   3.808   5.686 -0.0057  0.5474 -0.2758
   20CHL1    H9 1444   3.702   3.821   5.653  0.3514  1.4882  1.1340
   20CHL1   C10 1445   3.603   3.787   5.841 -0.4121  0.2004  0.0957
   20CHL1   C19 1446   3.471   3.743   5.904  0.5277  0.5379 -0.7498
   20CHL1  H19A 1447   3.492   3.727   6.012  1.4376  3.0375 -0.5013
   20CHL1  H19B 1448   3.384   3.810   5.888 -0.7939 -0.5611  1.3334
   20CHL1  H19C 1449   3.448   3.642   5.864 -1.7084 -0.3352  2.3563
   20CHL1    C1 1450   3.728   3.685   5.861  0.0729 -0.3811 -0.3806
   20CHL1   H1A 1451   3.694   3.584   5.831  0.0132 -0.3124 -0.5466
   20CHL1   H1B 1452   3.820   3.709   5.803  1.2763 -1.5257  0.9877
   20CHL1    C2 1453   3.782   3.681   6.009 -0.5175 -0.1210 -0.1216
   20CHL1   H2A 1454   3.865   3.610   5.989 -0.8653 -0.1559 -1.5815
   20CHL1   H2B 1455   3.714   3.623   6.075 -1.3634  0.8925 -0.0719
   20CHL1   C20 1456   3.324   3.837   5.186  0.5724  0.0346 -0.0843
   20CHL1   H20 1457   3.219   3.860   5.213 -0.1960 -0.9528 -2.0883
   20CHL1   C21 1458   3.354   3.685   5.155 -0.3439 -0.0009 -0.3836
   20CHL1  H21A 1459   3.280   3.641   5.084  1.2552 -0.9148 -1.5571
   20CHL1  H21B 1460   3.344   3.625   5.247  2.4292 -1.9514 -1.2282
   20CHL1  H21C 1461   3.458   3.680   5.116 -0.2832  0.1037 -0.2347
   20CHL1   C22 1462   3.333   3.911   5.050 -0.6283  0.3762 -0.1560
   20CHL1  H22A 1463   3.313   4.019   5.062  0.6512  0.5393  0.6499
   20CHL1  H22B 1464   3.441   3.902   5.023 -1.3546 -1.8972 -2.7122
   20CHL1   C23 1465   3.251   3.852   4.933  0.2939 -0.0881  0.3635
   20CHL1  H23A 1466   3.274   3.916   4.845 -0.1622 -0.3990  0.0101
   20CHL1  H23B 1467   3.286   3.749   4.911  0.2631 -0.3845  1.6500
   20CHL1   C24 1468   3.100   3.856   4.959 -0.9254  0.0704 -0.2049
   20CHL1  H24A 1469   3.076   3.783   5.039 -2.1918  0.1678 -0.4712
   20CHL1  H24B 1470   3.070   3.951   5.008 -2.4766 -0.5268  0.0744
   20CHL1   C25 1471   3.004   3.824   4.835 -0.0326 -0.1965  0.5340
   20CHL1   H25 1472   2.899   3.832   4.872 -0.1554 -1.6912  0.5575
   20CHL1   C26 1473   3.022   3.912   4.716 -0.4136 -0.9829  0.0599
   20CHL1  H26A 1474   2.943   3.887   4.642  0.3105 -0.6522 -0.8499
   20CHL1  H26B 1475   3.014   4.018   4.748 -1.4975 -1.2928  0.8876
   20CHL1  H26C 1476   3.125   3.891   4.679 -0.7626 -0.2918 -1.3661
   20CHL1   C27 1477   3.022   3.677   4.802  0.0162 -0.8512  0.4048
   20CHL1  H27A 1478   2.949   3.635   4.729  0.8279 -2.6761  0.5873
   20CHL1  H27B 1479   3.122   3.645   4.767 -0.1207 -0.9668  0.1122
   20CHL1  H27C 1480   3.000   3.616   4.893 -1.2368  0.2004  0.8542
   21CHL1    C3 1481   2.574   4.668   5.890  0.7726  0.8968  0.5725
   21CHL1    H3 1482   2.629   4.762   5.871 -0.4417  2.1441  2.7357
   21CHL1    O3 1483   2.536   4.654   6.029 -0.6569 -0.3715  0.0579
   21CHL1   H3' 1484   2.617   4.631   6.074  0.4460  3.7368  0.5954
   21CHL1    C4 1485   2.439   4.688   5.812  0.3062 -0.4608  0.1780
   21CHL1   H4A 1486   2.381   4.597   5.839  0.1653 -0.3251  0.3315
   21CHL1   H4B 1487   2.381   4.774   5.850 -0.7917 -0.7984 -0.6816
   21CHL1    C5 1488   2.460   4.694   5.659 -0.9752 -0.3259 -0.0746
   21CHL1    C6 1489   2.412   4.799   5.592  0.7978 -0.2044  0.6599
   21CHL1    H6 1490   2.363   4.886   5.639 -0.6194  0.2878 -1.5762
   21CHL1    C7 1491   2.446   4.816   5.446  0.0690  0.5974 -0.3760
   21CHL1   H7A 1492   2.361   4.856   5.386 -0.3604  1.4887  0.7937
   21CHL1   H7B 1493   2.531   4.886   5.436  1.4611 -0.6826  1.6012
   21CHL1    C8 1494   2.492   4.694   5.365  0.2650 -1.1438  0.2009
   21CHL1    H8 1495   2.397   4.639   5.346 -0.6075 -0.3850  2.0936
   21CHL1   C14 1496   2.564   4.728   5.237 -0.4992  0.2280  0.0708
   21CHL1   H14 1497   2.664   4.767   5.266  0.2185 -2.0436  0.8849
   21CHL1   C15 1498   2.508   4.832   5.134 -0.0808 -0.4493  0.4043
   21CHL1  H15A 1499   2.400   4.809   5.123 -0.0851 -0.2480  0.0156
   21CHL1  H15B 1500   2.520   4.934   5.176  0.8715 -1.5416  3.0320
   21CHL1   C16 1501   2.589   4.808   5.003  0.3995 -0.0082  0.7073
   21CHL1  H16A 1502   2.520   4.800   4.916  0.4348 -0.1726  0.6946
   21CHL1  H16B 1503   2.652   4.894   4.970 -0.3386  0.1967 -0.2371
   21CHL1   C17 1504   2.674   4.682   5.033 -0.1816  0.4439  0.3927
   21CHL1   H17 1505   2.765   4.724   5.082 -1.7153  2.0361  2.0444
   21CHL1   C13 1506   2.600   4.605   5.144 -0.6299 -0.2830 -0.4503
   21CHL1   C18 1507   2.470   4.537   5.087 -0.3038 -0.3221 -0.0528
   21CHL1  H18A 1508   2.414   4.617   5.035 -0.8248 -0.0213  0.9410
   21CHL1  H18B 1509   2.501   4.448   5.029  0.8324  0.0336 -0.0058
   21CHL1  H18C 1510   2.409   4.506   5.174 -0.7183 -0.7794 -0.4989
   21CHL1   C12 1511   2.688   4.509   5.227 -0.6927  0.0255 -0.7608
   21CHL1  H12A 1512   2.705   4.412   5.176 -0.6092  1.0588 -2.8003
   21CHL1  H12B 1513   2.781   4.565   5.251 -1.6971  0.4823  2.6429
   21CHL1   C11 1514   2.639   4.481   5.368 -0.2464 -0.0283  0.0828
   21CHL1  H11A 1515   2.551   4.415   5.354  0.6059 -1.3398  0.7835
   21CHL1  H11B 1516   2.714   4.428   5.430 -0.0717 -1.2473 -1.1088
   21CHL1    C9 1517   2.590   4.605   5.449  1.1515 -0.7968  0.5047
   21CHL1    H9 1518   2.681   4.667   5.465  1.0068  0.4732 -2.6879
   21CHL1   C10 1519   2.540   4.581   5.599  0.3506  0.4980 -0.1294
   21CHL1   C19 1520   2.440   4.466   5.592  0.0410  0.1594  0.2207
   21CHL1  H19A 1521   2.497   4.372   5.576  2.7800  1.9523 -1.3309
   21CHL1  H19B 1522   2.383   4.441   5.685  1.0481 -0.1521  0.7684
   21CHL1  H19C 1523   2.370   4.484   5.508  1.0899  1.1503 -0.4618
   21CHL1    C1 1524   2.666   4.556   5.689  0.2976 -0.1454 -0.0042
   21CHL1   H1A 1525   2.704   4.459   5.652 -0.0855  0.4636 -2.1295
   21CHL1   H1B 1526   2.736   4.639   5.664  0.8282 -0.6622 -0.2730
   21CHL1    C2 1527   2.644   4.542   5.840  0.4812  0.1639  0.3966
   21CHL1   H2A 1528   2.736   4.523   5.899  0.6294 -0.0044  0.1135
   21CHL1   H2B 1529   2.570   4.460   5.854 -0.5651  1.2735  1.6890
   21CHL1   C20 1530   2.723   4.604   4.901  0.0305  0.5137 -0.4841
   21CHL1   H20 1531   2.647   4.523   4.892 -0.5825  1.1373 -1.0001
   21CHL1   C21 1532   2.856   4.525   4.929 -0.7210  0.1427 -0.1706
   21CHL1  H21A 1533   2.937   4.601   4.939  0.7997 -1.5912  1.5496
   21CHL1  H21B 1534   2.886   4.441   4.864 -2.2145 -0.5741  0.0341
   21CHL1  H21C 1535   2.844   4.477   5.029 -0.1405 -3.2914 -1.6272
   21CHL1   C22 1536   2.741   4.687   4.778  0.2373  0.2635  0.3611
   21CHL1  H22A 1537   2.643   4.729   4.745  0.6947  2.0279  1.1339
   21CHL1  H22B 1538   2.801   4.777   4.804 -1.4636  1.3220  0.7918
   21CHL1   C23 1539   2.793   4.606   4.658 -0.2580  0.2109 -0.1342
   21CHL1  H23A 1540   2.899   4.579   4.676 -0.3584 -0.3815 -0.4028
   21CHL1  H23B 1541   2.731   4.514   4.654  2.6938 -1.9105 -0.0754
   21CHL1   C24 1542   2.782   4.686   4.520 -0.2300 -0.5175 -0.4486
   21CHL1  H24A 1543   2.675   4.689   4.487 -0.1885 -0.2820 -0.5660
   21CHL1  H24B 1544   2.823   4.788   4.538  0.8572 -0.9578 -0.3750
   21CHL1   C25 1545   2.848   4.614   4.398  0.6651  0.0673 -0.0503
   21CHL1   H25 1546   2.951   4.586   4.429 -0.2379 -3.3933  0.2933
   21CHL1   C26 1547   2.771   4.490   4.366 -0.6509  0.2546  0.3478
   21CHL1  H26A 1548   2.825   4.439   4.284  0.5712 -1.0240  1.9024
   21CHL1  H26B 1549   2.778   4.418   4.451 -1.8372  0.2058  0.4314
   21CHL1  H26C 1550   2.664   4.505   4.338 -0.5163  0.7043  0.0640
   21CHL1   C27 1551   2.839   4.705   4.271  0.5940  0.0854 -0.2883
   21CHL1  H27A 1552   2.915   4.786   4.261  0.0430  0.8143  1.1778
   21CHL1  H27B 1553   2.857   4.637   4.185  3.0490  1.0363 -0.6039
   21CHL1  H27C 1554   2.740   4.754   4.265  1.0058  1.6572  3.3947
   22CHL1    C3 1555   5.732   2.410   6.142 -0.1950  0.0718 -0.1373
   22CHL1    H3 1556   5.784   2.499   6.101 -2.7951  1.2282 -1.2074
   22CHL1    O3 1557   5.760   2.399   6.281 -0.4877  0.9524  0.2230
   22CHL1   H3' 1558   5.736   2.307   6.296  0.6107  0.3353 -1.4716
   22CHL1    C4 1559   5.585   2.425   6.106  0.2369 -0.4191 -0.0890
   22CHL1   H4A 1560   5.536   2.352   6.174 -0.7195 -1.0807 -1.4413
   22CHL1   H4B 1561   5.555   2.526   6.143 -1.1025 -1.5816  2.1832
   22CHL1    C5 1562   5.547   2.415   5.968 -0.6266  1.0098  0.8538
   22CHL1    C6 1563   5.476   2.503   5.899 -0.2002  0.0676  0.3981
   22CHL1    H6 1564   5.444   2.593   5.953 -2.4885 -1.2737  1.4745
   22CHL1    C7 1565   5.429   2.480   5.760 -0.0150  0.3822  0.1804
   22CHL1   H7A 1566   5.319   2.495   5.752  0.0271  0.1155 -1.1081
   22CHL1   H7B 1567   5.484   2.551   5.696  0.6331  0.4532  0.8052
   22CHL1    C8 1568   5.459   2.342   5.689  0.6464 -0.4448 -0.2972
   22CHL1    H8 1569   5.376   2.275   5.719 -0.6633  0.9330 -0.7135
   22CHL1   C14 1570   5.465   2.350   5.543 -0.3672 -0.0229 -0.4709
   22CHL1   H14 1571   5.552   2.415   5.519  1.5669 -1.5532  2.0439
   22CHL1   C15 1572   5.341   2.417   5.469  0.3602  0.5810  0.0370
   22CHL1  H15A 1573   5.244   2.392   5.516 -0.9815  3.8413 -0.7149
   22CHL1  H15B 1574   5.344   2.527   5.486 -2.9405  0.8501 -0.4324
   22CHL1   C16 1575   5.357   2.358   5.328 -0.2697  0.6343 -0.1428
   22CHL1  H16A 1576   5.264   2.306   5.295  0.4586  0.2441 -1.6443
   22CHL1  H16B 1577   5.364   2.435   5.249 -0.1558  1.4153  0.6220
   22CHL1   C17 1578   5.478   2.257   5.318  0.0977 -0.2053 -0.6955
   22CHL1   H17 1579   5.573   2.306   5.287  1.6663 -1.2578  2.0595
   22CHL1   C13 1580   5.495   2.217   5.467 -0.1095  0.5084 -0.2697
   22CHL1   C18 1581   5.394   2.099   5.499 -0.0922  0.4666  1.1563
   22CHL1  H18A 1582   5.378   2.090   5.609  0.6337  2.1580  1.4186
   22CHL1  H18B 1583   5.297   2.116   5.448  0.9445  2.2457 -0.3251
   22CHL1  H18C 1584   5.430   2.005   5.450 -2.4217 -0.1814  0.5536
   22CHL1   C12 1585   5.637   2.168   5.515 -0.1930 -0.3980  0.5816
   22CHL1  H12A 1586   5.668   2.070   5.471  0.9012 -1.2534  3.1069
   22CHL1  H12B 1587   5.709   2.246   5.482 -0.2954  0.1634  1.6485
   22CHL1   C11 1588   5.643   2.161   5.664  0.3194 -0.2262 -0.5227
   22CHL1  H11A 1589   5.577   2.076   5.692 -0.0930 -0.1396 -1.2339
   22CHL1  H11B 1590   5.749   2.146   5.696  0.0502  2.2941  2.0179
   22CHL1    C9 1591   5.595   2.291   5.739  0.2097 -0.0059  0.3881
   22CHL1    H9 1592   5.678   2.361   5.714 -1.3735  1.6072 -0.6378
   22CHL1   C10 1593   5.605   2.282   5.897 -0.9249  0.2114  0.4020
   22CHL1   C19 1594   5.535   2.156   5.951  0.0789 -0.0554  0.3763
   22CHL1  H19A 1595   5.587   2.067   5.910 -0.4062 -0.7099  1.1584
   22CHL1  H19B 1596   5.539   2.148   6.061  0.1160 -1.3641  0.2964
   22CHL1  H19C 1597   5.430   2.161   5.914 -0.7176  0.9290  2.6111
   22CHL1    C1 1598   5.758   2.272   5.928  0.3544 -0.3655 -0.8430
   22CHL1   H1A 1599   5.796   2.177   5.887 -0.7879 -1.9478  1.5278
   22CHL1   H1B 1600   5.806   2.363   5.885  0.0922  1.1047  1.7883
   22CHL1    C2 1601   5.788   2.278   6.078  0.1955 -0.7411  0.4254
   22CHL1   H2A 1602   5.897   2.265   6.098  0.4124 -0.8371 -0.7180
   22CHL1   H2B 1603   5.737   2.194   6.129  0.0929  0.1792  1.9056
   22CHL1   C20 1604   5.462   2.145   5.222 -0.3323  0.2287 -0.6328
   22CHL1   H20 1605   5.374   2.082   5.248 -0.1718 -0.2398 -1.1870
   22CHL1   C21 1606   5.589   2.050   5.208 -0.2317  0.7596  0.2947
   22CHL1  H21A 1607   5.579   1.972   5.286  1.2981 -0.0583 -0.2933
   22CHL1  H21B 1608   5.681   2.108   5.230 -0.7952  1.3596  1.1792
   22CHL1  H21C 1609   5.591   1.999   5.110 -0.3478  1.2361  0.0391
   22CHL1   C22 1610   5.421   2.189   5.079 -0.4977 -0.2661  0.1837
   22CHL1  H22A 1611   5.403   2.098   5.018 -0.0951  0.2609 -0.7350
   22CHL1  H22B 1612   5.324   2.242   5.083  0.7971  2.2108  0.1416
   22CHL1   C23 1613   5.518   2.283   5.003  0.1533 -0.0228  0.4908
   22CHL1  H23A 1614   5.521   2.382   5.054 -0.0822  0.6176 -0.6715
   22CHL1  H23B 1615   5.618   2.236   4.998 -0.0806 -0.4624 -0.4035
   22CHL1   C24 1616   5.478   2.322   4.857  0.0680  0.4391  0.1237
   22CHL1  H24A 1617   5.459   2.233   4.793 -2.9759  0.0717  1.3356
   22CHL1  H24B 1618   5.380   2.374   4.863 -0.4907 -0.6820  1.3637
   22CHL1   C25 1619   5.582   2.411   4.800  0.7027  0.3299 -0.5556
   22CHL1   H25 1620   5.621   2.470   4.885 -0.8562  0.0785  0.3696
   22CHL1   C26 1621   5.694   2.324   4.742 -0.5314 -0.1543  0.2980
   22CHL1  H26A 1622   5.739   2.254   4.815  1.6606 -1.3477 -2.0560
   22CHL1  H26B 1623   5.658   2.273   4.650  1.3467 -0.9734 -0.0242
   22CHL1  H26C 1624   5.767   2.399   4.704 -2.1631  1.2173 -0.3030
   22CHL1   C27 1625   5.526   2.510   4.701 -0.0843 -0.2843 -0.0753
   22CHL1  H27A 1626   5.473   2.468   4.613  0.3008 -0.5200 -0.1978
   22CHL1  H27B 1627   5.459   2.585   4.749 -0.3169 -1.3416  1.3212
   22CHL1  H27C 1628   5.614   2.566   4.662 -0.4183  1.0851  1.0320
   23CHL1    C3 1629   1.095   6.414   6.062  0.2288 -0.3277  0.3798
   23CHL1    H3 1630   1.138   6.516   6.072 -1.6930  0.6918 -1.0226
   23CHL1    O3 1631   1.085   6.357   6.190  0.1266 -0.1313  0.2301
   23CHL1   H3' 1632   1.034   6.414   6.247  0.7270 -0.9723  1.6651
   23CHL1    C4 1633   0.958   6.421   5.990  0.2475  0.1782  0.1400
   23CHL1   H4A 1634   0.901   6.326   5.996 -1.3891  1.1504  0.5868
   23CHL1   H4B 1635   0.899   6.495   6.048 -3.5452 -2.3741 -0.0864
   23CHL1    C5 1636   0.976   6.458   5.843  0.3673  0.5067 -0.4136
   23CHL1    C6 1637   0.900   6.558   5.798 -1.0010 -0.2487  0.4306
   23CHL1    H6 1638   0.844   6.617   5.872 -0.7078  0.9836 -0.2842
   23CHL1    C7 1639   0.912   6.612   5.657 -0.3298  0.3354 -0.2054
   23CHL1   H7A 1640   0.808   6.635   5.624  0.0802  1.0453 -1.0307
   23CHL1   H7B 1641   0.976   6.702   5.667 -0.8781  0.6738  0.3624
   23CHL1    C8 1642   0.980   6.518   5.564 -0.3716 -0.0173  0.0351
   23CHL1    H8 1643   0.918   6.429   5.539 -1.5340 -0.2690  3.2984
   23CHL1   C14 1644   1.004   6.603   5.444 -0.5283 -0.5795  0.4054
   23CHL1   H14 1645   1.063   6.694   5.472 -2.2897  0.7290  0.0156
   23CHL1   C15 1646   0.889   6.657   5.367  0.1349 -0.5009 -0.2429
   23CHL1  H15A 1647   0.813   6.577   5.348  0.4285 -0.7281 -0.4925
   23CHL1  H15B 1648   0.833   6.747   5.399 -2.6958 -1.7771 -1.1818
   23CHL1   C16 1649   0.936   6.683   5.223  0.1029 -0.0686 -0.1541
   23CHL1  H16A 1650   0.881   6.625   5.146 -1.0725  1.2077 -0.3146
   23CHL1  H16B 1651   0.924   6.790   5.194 -2.3997 -0.5435 -1.0946
   23CHL1   C17 1652   1.084   6.631   5.218  0.4247 -0.2316  0.2460
   23CHL1   H17 1653   1.149   6.713   5.254  0.7851 -0.9702  1.3152
   23CHL1   C13 1654   1.090   6.526   5.337 -0.4324 -0.9219 -0.9141
   23CHL1   C18 1655   1.022   6.402   5.291  0.5825  0.5560  0.0821
   23CHL1  H18A 1656   1.101   6.348   5.235  1.8794  2.3128  0.1128
   23CHL1  H18B 1657   0.998   6.333   5.375  0.6097 -0.0854 -0.4312
   23CHL1  H18C 1658   0.925   6.415   5.238  0.9596 -0.1619 -0.8153
   23CHL1   C12 1659   1.229   6.496   5.402  0.0226  0.6813  1.0496
   23CHL1  H12A 1660   1.299   6.440   5.336  0.5966  1.1273  1.2750
   23CHL1  H12B 1661   1.272   6.594   5.433  1.5994  0.2603  0.2928
   23CHL1   C11 1662   1.206   6.406   5.526 -0.1349 -0.2424 -0.4756
   23CHL1  H11A 1663   1.179   6.302   5.498  0.2581 -0.6117  0.4611
   23CHL1  H11B 1664   1.304   6.406   5.578 -0.0574 -0.3863 -0.6206
   23CHL1    C9 1665   1.112   6.472   5.632  0.3338  0.1393 -0.2318
   23CHL1    H9 1666   1.164   6.563   5.668 -1.4723 -0.5651  5.0115
   23CHL1   C10 1667   1.085   6.390   5.758 -0.3387 -1.1363  0.5403
   23CHL1   C19 1668   1.049   6.250   5.712  0.3225 -0.4290 -0.0427
   23CHL1  H19A 1669   0.970   6.245   5.635  0.5245  1.5080 -0.4302
   23CHL1  H19B 1670   1.145   6.205   5.679  1.0020  0.3881  0.7618
   23CHL1  H19C 1671   0.996   6.198   5.795 -1.6804 -0.2789 -1.1806
   23CHL1    C1 1672   1.219   6.401   5.847 -0.1384  0.2884 -0.6551
   23CHL1   H1A 1673   1.298   6.348   5.790  1.2010  1.3157  0.1796
   23CHL1   H1B 1674   1.257   6.505   5.862  0.9415 -0.3412  1.4188
   23CHL1    C2 1675   1.194   6.330   5.974 -0.0375 -0.8564 -0.1668
   23CHL1   H2A 1676   1.290   6.319   6.029 -0.6530  0.7007  1.3001
   23CHL1   H2B 1677   1.161   6.225   5.955 -0.6024 -1.0692  1.7427
   23CHL1   C20 1678   1.121   6.575   5.084  0.5946  0.4682  0.0943
   23CHL1   H20 1679   1.047   6.499   5.050  2.2503 -1.0063 -0.3160
   23CHL1   C21 1680   1.263   6.526   5.084 -0.8534  0.4709  0.3424
   23CHL1  H21A 1681   1.277   6.425   5.128  1.9308 -0.2173 -1.8326
   23CHL1  H21B 1682   1.334   6.600   5.127 -1.7644  1.6545 -0.1495
   23CHL1  H21C 1683   1.290   6.494   4.981 -0.9864  1.6312 -0.0684
   23CHL1   C22 1684   1.110   6.689   4.976 -0.0738  0.1921 -0.5121
   23CHL1  H22A 1685   1.149   6.650   4.879  2.3143  0.5416  0.2525
   23CHL1  H22B 1686   1.006   6.723   4.956 -0.0092  0.7157  0.0200
   23CHL1   C23 1687   1.197   6.814   4.999 -0.2553  0.6118 -0.0253
   23CHL1  H23A 1688   1.177   6.851   5.102 -1.3612 -1.0887  0.4091
   23CHL1  H23B 1689   1.305   6.789   5.012 -0.6558 -0.5329  1.3776
   23CHL1   C24 1690   1.180   6.925   4.891 -0.0544  0.5162 -0.3119
   23CHL1  H24A 1691   1.071   6.928   4.871 -0.6973 -0.4669  2.5037
   23CHL1  H24B 1692   1.206   7.019   4.942  0.3344  0.5920 -0.6416
   23CHL1   C25 1693   1.268   6.904   4.763  0.1515  0.0308  1.0033
   23CHL1   H25 1694   1.266   6.799   4.725 -0.6781  0.7632 -1.1041
   23CHL1   C26 1695   1.206   6.991   4.647 -0.6825  0.5473 -0.2271
   23CHL1  H26A 1696   1.104   6.951   4.628 -0.4868 -0.2624  0.3279
   23CHL1  H26B 1697   1.200   7.095   4.685 -1.0422  0.0841  1.0782
   23CHL1  H26C 1698   1.264   6.984   4.553 -0.3641 -2.5746  0.0979
   23CHL1   C27 1699   1.410   6.950   4.766 -0.3982  0.5352 -0.2414
   23CHL1  H27A 1700   1.456   6.953   4.665 -0.1397  0.6536 -0.1208
   23CHL1  H27B 1701   1.406   7.051   4.810 -0.9462 -0.7554  2.9148
   23CHL1  H27C 1702   1.472   6.882   4.829  0.8964  0.4701 -1.5252
   24CHL1    C3 1703   3.444   5.148   5.559  0.0165 -0.4321  0.3272
   24CHL1    H3 1704   3.539   5.090   5.562 -0.2028 -0.8227  3.8234
   24CHL1    O3 1705   3.398   5.132   5.691  0.0357  0.1403 -0.1192
   24CHL1   H3' 1706   3.329   5.196   5.708  0.8513  1.2238 -0.7280
   24CHL1    C4 1707   3.469   5.293   5.525 -0.2084  0.1314 -0.4118
   24CHL1   H4A 1708   3.368   5.338   5.539 -0.3814 -1.0657  3.4089
   24CHL1   H4B 1709   3.534   5.335   5.605 -1.3159 -0.5718  0.8945
   24CHL1    C5 1710   3.530   5.306   5.383 -1.1060  0.2394 -0.9706
   24CHL1    C6 1711   3.654   5.361   5.369  0.4728  0.1829 -0.9273
   24CHL1    H6 1712   3.704   5.402   5.458  0.3319  1.8828 -1.6070
   24CHL1    C7 1713   3.710   5.382   5.228  0.5208 -0.6117 -0.0327
   24CHL1   H7A 1714   3.757   5.482   5.227 -1.8771  0.5737 -1.0417
   24CHL1   H7B 1715   3.793   5.310   5.211  2.1085 -0.2880  4.7851
   24CHL1    C8 1716   3.607   5.369   5.119 -0.9514 -0.9239 -0.4315
   24CHL1    H8 1717   3.540   5.457   5.123 -0.2690 -0.4451  1.2956
   24CHL1   C14 1718   3.680   5.363   4.986 -0.1534  0.4361  0.3525
   24CHL1   H14 1719   3.743   5.272   4.996 -0.8580 -0.0511  0.4350
   24CHL1   C15 1720   3.797   5.469   4.965 -0.9073 -0.0591 -0.3382
   24CHL1  H15A 1721   3.763   5.566   5.007  0.0760 -0.4615  1.5167
   24CHL1  H15B 1722   3.881   5.433   5.029 -0.1492 -0.7360 -1.6730
   24CHL1   C16 1723   3.821   5.465   4.817  0.0386 -0.9084 -0.1818
   24CHL1  H16A 1724   3.798   5.569   4.785 -0.0288 -0.7558  0.3425
   24CHL1  H16B 1725   3.924   5.430   4.797 -0.1816 -1.3679 -0.5384
   24CHL1   C17 1726   3.715   5.363   4.754 -0.2099  0.5130  1.1885
   24CHL1   H17 1727   3.762   5.262   4.764 -0.3640  0.1571 -1.1794
   24CHL1   C13 1728   3.604   5.353   4.856 -0.2367 -0.2868 -0.7801
   24CHL1   C18 1729   3.508   5.474   4.846 -0.4678  0.1942  0.0341
   24CHL1  H18A 1730   3.563   5.570   4.847 -0.1534  0.0428  1.9091
   24CHL1  H18B 1731   3.445   5.464   4.755 -0.2249 -0.3382 -0.0841
   24CHL1  H18C 1732   3.444   5.477   4.937  0.6451  0.6735  0.8278
   24CHL1   C12 1733   3.515   5.225   4.869 -0.4392 -0.5190 -0.5661
   24CHL1  H12A 1734   3.441   5.216   4.787 -0.1084 -0.3767 -0.8860
   24CHL1  H12B 1735   3.593   5.149   4.845  1.6012  1.5653 -0.9589
   24CHL1   C11 1736   3.440   5.212   5.005  0.1307 -0.8151 -1.0119
   24CHL1  H11A 1737   3.349   5.276   5.001  0.5896  0.0706  1.4440
   24CHL1  H11B 1738   3.406   5.106   5.006  0.3353 -0.9091 -2.3896
   24CHL1    C9 1739   3.523   5.247   5.133 -0.0668 -0.4413  0.6290
   24CHL1    H9 1740   3.598   5.166   5.146 -0.6643 -0.9070  1.2740
   24CHL1   C10 1741   3.443   5.244   5.266  0.4269  0.4303 -1.0298
   24CHL1   C19 1742   3.314   5.324   5.257 -0.2353 -0.4715 -0.5987
   24CHL1  H19A 1743   3.330   5.434   5.252 -2.5853  0.1254  2.5244
   24CHL1  H19B 1744   3.259   5.286   5.169  0.6718 -0.4993 -1.1711
   24CHL1  H19C 1745   3.260   5.308   5.352 -0.0331 -2.0731 -0.7267
   24CHL1    C1 1746   3.419   5.103   5.316  0.7705 -0.4532 -0.2286
   24CHL1   H1A 1747   3.347   5.065   5.241 -1.1193  1.6513  0.4309
   24CHL1   H1B 1748   3.512   5.043   5.307  0.0522 -1.6695  0.1677
   24CHL1    C2 1749   3.352   5.086   5.457  0.2143 -0.0913  0.6189
   24CHL1   H2A 1750   3.339   4.976   5.472 -1.1264 -0.3346 -1.6864
   24CHL1   H2B 1751   3.253   5.136   5.456 -1.8010 -3.6901  1.8608
   24CHL1   C20 1752   3.680   5.386   4.607  0.3045  0.1087 -0.2798
   24CHL1   H20 1753   3.614   5.474   4.594 -1.7267 -1.0149  1.7470
   24CHL1   C21 1754   3.604   5.265   4.545  1.0241 -0.3925 -0.5671
   24CHL1  H21A 1755   3.498   5.271   4.577  1.0525  0.1808 -0.5659
   24CHL1  H21B 1756   3.658   5.173   4.573  0.4474 -0.4632  0.3352
   24CHL1  H21C 1757   3.611   5.259   4.434  1.3968  0.7616 -0.6295
   24CHL1   C22 1758   3.810   5.415   4.520 -0.0810  0.8405  0.7445
   24CHL1  H22A 1759   3.871   5.497   4.563 -0.9926  1.0183  1.7374
   24CHL1  H22B 1760   3.874   5.324   4.527  0.8222  1.4231  0.2461
   24CHL1   C23 1761   3.781   5.448   4.375 -0.3438 -0.3709  0.0926
   24CHL1  H23A 1762   3.877   5.455   4.318 -0.4143  3.1910  0.1780
   24CHL1  H23B 1763   3.729   5.372   4.314  1.6482 -1.0704 -0.8290
   24CHL1   C24 1764   3.713   5.586   4.361  0.3477 -0.3557  0.1213
   24CHL1  H24A 1765   3.608   5.570   4.394  0.6319  1.0415  1.9070
   24CHL1  H24B 1766   3.755   5.661   4.432  0.4328 -1.6236  1.4667
   24CHL1   C25 1767   3.727   5.654   4.224  0.5299 -0.3889  0.2148
   24CHL1   H25 1768   3.705   5.576   4.149  0.4000 -0.9569  0.8282
   24CHL1   C26 1769   3.611   5.751   4.203 -0.0404 -0.0488 -0.3730
   24CHL1  H26A 1770   3.617   5.794   4.101  2.0555  0.4359 -0.0995
   24CHL1  H26B 1771   3.510   5.713   4.227  0.2492  0.9284  2.8818
   24CHL1  H26C 1772   3.628   5.841   4.267  2.2101  0.0275 -0.9977
   24CHL1   C27 1773   3.863   5.723   4.195 -0.5376 -0.5817  0.0334
   24CHL1  H27A 1774   3.875   5.768   4.095  2.1330 -0.6719  0.2216
   24CHL1  H27B 1775   3.880   5.801   4.272 -2.3085  0.7991 -0.9246
   24CHL1  H27C 1776   3.946   5.650   4.205 -0.5796 -0.4976  1.1416
   25CHL1    C3 1777   0.780   4.410   6.357 -0.8319  0.4092 -0.2513
   25CHL1    H3 1778   0.746   4.512   6.328  2.9130  1.6054 -0.9986
   25CHL1    O3 1779   0.763   4.393   6.496 -0.7118 -0.0499  0.2306
   25CHL1   H3' 1780   0.763   4.485   6.523 -0.4309 -0.2320  0.8601
   25CHL1    C4 1781   0.711   4.298   6.285 -0.2416  0.7241  0.7063
   25CHL1   H4A 1782   0.748   4.204   6.331  0.7367  0.6964 -0.0893
   25CHL1   H4B 1783   0.602   4.311   6.298 -0.4837 -0.2619 -0.1874
   25CHL1    C5 1784   0.739   4.296   6.133 -0.8841 -0.2438 -0.2359
   25CHL1    C6 1785   0.633   4.300   6.041  0.4412 -0.4145 -0.1099
   25CHL1    H6 1786   0.528   4.293   6.074 -0.4098  0.5364 -2.4401
   25CHL1    C7 1787   0.651   4.301   5.891 -0.3382 -0.0566  0.3999
   25CHL1   H7A 1788   0.582   4.224   5.849  0.3404 -0.7372  0.5125
   25CHL1   H7B 1789   0.616   4.401   5.859 -1.5765 -0.4551  0.4584
   25CHL1    C8 1790   0.798   4.256   5.847  0.3377  0.6309  0.4911
   25CHL1    H8 1791   0.811   4.149   5.874 -1.7719  0.0681 -0.5509
   25CHL1   C14 1792   0.824   4.278   5.702 -0.1096  0.2177  1.1504
   25CHL1   H14 1793   0.817   4.387   5.683 -0.6854  0.5313  2.9570
   25CHL1   C15 1794   0.727   4.225   5.600  0.4424  0.7959  0.0830
   25CHL1  H15A 1795   0.695   4.123   5.627 -2.9526  2.1339  1.6595
   25CHL1  H15B 1796   0.631   4.279   5.589  0.3560  0.7438  0.5794
   25CHL1   C16 1797   0.804   4.224   5.463  0.0290 -0.3646 -0.0894
   25CHL1  H16A 1798   0.794   4.118   5.431  2.3382 -0.9578  0.9254
   25CHL1  H16B 1799   0.762   4.294   5.388  0.8611 -1.0176 -1.1914
   25CHL1   C17 1800   0.947   4.254   5.506 -0.7019  0.1030 -0.3255
   25CHL1   H17 1801   0.966   4.361   5.485  2.8210 -0.2664  0.3389
   25CHL1   C13 1802   0.961   4.234   5.657 -0.0649 -0.2169 -0.8335
   25CHL1   C18 1803   1.001   4.088   5.682  0.1703 -0.2036 -0.0691
   25CHL1  H18A 1804   0.993   4.064   5.791  1.4997  3.0214  0.8586
   25CHL1  H18B 1805   0.940   4.011   5.630  0.7640 -2.2274  2.0257
   25CHL1  H18C 1806   1.102   4.074   5.638 -0.5231  0.8393 -2.0989
   25CHL1   C12 1807   1.055   4.333   5.718  0.0474 -0.7306 -0.7974
   25CHL1  H12A 1808   1.160   4.311   5.688  0.3017  1.1961 -1.4241
   25CHL1  H12B 1809   1.032   4.438   5.690  2.9418 -0.0669 -0.9747
   25CHL1   C11 1810   1.043   4.319   5.873 -0.9187  0.7235  0.1701
   25CHL1  H11A 1811   1.090   4.221   5.899 -1.1019  0.6101  0.0789
   25CHL1  H11B 1812   1.103   4.394   5.928 -0.3586  0.0273  0.5308
   25CHL1    C9 1813   0.901   4.323   5.929 -0.2005 -0.7671 -0.4209
   25CHL1    H9 1814   0.868   4.427   5.907 -0.3465 -0.7290 -0.0291
   25CHL1   C10 1815   0.886   4.297   6.084  0.2122  0.1774  0.2353
   25CHL1   C19 1816   0.951   4.163   6.103  0.3452 -0.3216  0.1744
   25CHL1  H19A 1817   0.901   4.084   6.043  0.1398 -0.1370  0.1024
   25CHL1  H19B 1818   1.060   4.174   6.083  0.4757 -1.1914  0.3500
   25CHL1  H19C 1819   0.942   4.122   6.206 -4.9201 -2.0181 -0.6657
   25CHL1    C1 1820   0.963   4.402   6.168  0.3770 -0.2274  0.0311
   25CHL1   H1A 1821   1.072   4.388   6.151  0.6535 -0.9602  2.1290
   25CHL1   H1B 1822   0.938   4.503   6.129  0.8054  1.3363  3.4848
   25CHL1    C2 1823   0.935   4.395   6.322 -0.8925  0.7200  0.1975
   25CHL1   H2A 1824   0.994   4.470   6.380  1.1406 -0.9392  0.3620
   25CHL1   H2B 1825   0.966   4.291   6.346 -3.6100 -0.5681 -1.3856
   25CHL1   C20 1826   1.052   4.186   5.411  0.2221 -0.1345 -1.0220
   25CHL1   H20 1827   1.061   4.077   5.428  1.3198 -0.1510 -1.5824
   25CHL1   C21 1828   1.190   4.242   5.431  0.3018  0.1500  0.1739
   25CHL1  H21A 1829   1.256   4.203   5.351 -0.2758 -1.7557  0.5777
   25CHL1  H21B 1830   1.235   4.211   5.528  1.9071  2.3652  0.2320
   25CHL1  H21C 1831   1.182   4.353   5.429 -1.4441  0.0365 -0.5485
   25CHL1   C22 1832   1.013   4.200   5.262 -0.6609 -0.1810 -0.5792
   25CHL1  H22A 1833   0.905   4.192   5.237 -0.6528  1.3020 -1.2265
   25CHL1  H22B 1834   1.039   4.306   5.238 -2.7085  0.7261  0.9039
   25CHL1   C23 1835   1.072   4.098   5.159 -0.3174 -0.2065 -0.1028
   25CHL1  H23A 1836   1.181   4.088   5.177 -1.0048 -2.8455  3.8825
   25CHL1  H23B 1837   1.021   4.001   5.174 -1.3950  0.3540 -0.0461
   25CHL1   C24 1838   1.058   4.145   5.011  0.7010 -0.2593 -0.6230
   25CHL1  H24A 1839   0.948   4.147   4.996  0.4067  0.5487  1.3657
   25CHL1  H24B 1840   1.120   4.233   4.985 -2.4487  1.9153 -1.3224
   25CHL1   C25 1841   1.103   4.043   4.900 -0.1834 -0.0867 -0.6437
   25CHL1   H25 1842   1.065   3.945   4.936 -0.6390  0.0312 -0.8043
   25CHL1   C26 1843   1.036   4.082   4.772 -0.0908  0.5094  0.2980
   25CHL1  H26A 1844   1.067   4.179   4.728  0.4210 -0.1311 -0.7622
   25CHL1  H26B 1845   1.061   4.005   4.696  1.3780  1.1185  0.1485
   25CHL1  H26C 1846   0.925   4.087   4.777 -0.2007 -1.4336  0.6496
   25CHL1   C27 1847   1.264   4.019   4.884 -0.2924 -0.6357  0.3590
   25CHL1  H27A 1848   1.284   3.940   4.809 -2.1828 -1.5376  0.7408
   25CHL1  H27B 1849   1.311   4.115   4.854  1.2046 -2.2475 -2.9064
   25CHL1  H27C 1850   1.309   3.985   4.979  1.5442  1.6852  0.4178
   26CHL1    C3 1851   4.061   2.672   6.764 -0.2454  0.1403 -0.2827
   26CHL1    H3 1852   3.950   2.684   6.772 -0.2258  0.3702 -0.3605
   26CHL1    O3 1853   4.105   2.652   6.901 -0.0693 -0.0767  0.6444
   26CHL1   H3' 1854   4.195   2.629   6.880 -0.1386  1.7735 -2.1599
   26CHL1    C4 1855   4.111   2.552   6.677 -0.1603  0.0911 -0.4488
   26CHL1   H4A 1856   4.220   2.533   6.687 -0.1885 -0.5022 -1.1692
   26CHL1   H4B 1857   4.057   2.465   6.722 -5.0934  2.3809 -1.3056
   26CHL1    C5 1858   4.100   2.561   6.524 -0.1750 -0.0920 -0.4096
   26CHL1    C6 1859   4.043   2.465   6.453  0.0192  0.4999  0.8880
   26CHL1    H6 1860   4.002   2.378   6.508  0.5583 -0.4492 -0.1629
   26CHL1    C7 1861   4.026   2.466   6.307 -0.5157  0.9354  0.2735
   26CHL1   H7A 1862   4.034   2.363   6.265 -1.6538  0.8292  0.2828
   26CHL1   H7B 1863   3.925   2.508   6.287 -0.4292  0.8327 -0.4085
   26CHL1    C8 1864   4.127   2.562   6.243 -0.1976  0.6168 -0.1962
   26CHL1    H8 1865   4.235   2.539   6.254  0.0875  2.1198  0.4541
   26CHL1   C14 1866   4.101   2.573   6.100 -0.5298 -0.1136 -0.2921
   26CHL1   H14 1867   3.995   2.605   6.091  0.0219  2.0149  0.2915
   26CHL1   C15 1868   4.104   2.450   6.012 -0.3313 -0.6112  0.6703
   26CHL1  H15A 1869   4.194   2.386   6.026  0.1288 -0.5194 -1.5317
   26CHL1  H15B 1870   4.014   2.385   6.016 -0.0945 -0.9718  0.2066
   26CHL1   C16 1871   4.117   2.506   5.864 -0.4619 -0.5999 -0.5173
   26CHL1  H16A 1872   4.201   2.452   5.816  0.8946 -0.9063  2.0501
   26CHL1  H16B 1873   4.031   2.481   5.798 -2.0904  2.4516  0.2293
   26CHL1   C17 1874   4.144   2.659   5.873  0.1196  0.8827 -0.5845
   26CHL1   H17 1875   4.048   2.714   5.861  0.1025  1.0828  0.3430
   26CHL1   C13 1876   4.185   2.683   6.021 -0.0002 -0.0809 -0.8488
   26CHL1   C18 1877   4.330   2.641   6.028  0.1797 -0.4615  1.0071
   26CHL1  H18A 1878   4.367   2.624   6.131 -1.4079 -1.4337  1.4477
   26CHL1  H18B 1879   4.335   2.546   5.970  0.4733 -0.0551  0.3527
   26CHL1  H18C 1880   4.394   2.719   5.981  2.3510 -2.3766  0.6117
   26CHL1   C12 1881   4.155   2.823   6.084 -0.1071  0.4661 -0.2810
   26CHL1  H12A 1882   4.206   2.913   6.044  0.6165  1.2910  2.2551
   26CHL1  H12B 1883   4.045   2.833   6.074 -0.4271  0.2588  2.2370
   26CHL1   C11 1884   4.187   2.816   6.239 -0.5693  0.2196  0.7704
   26CHL1  H11A 1885   4.298   2.814   6.247 -0.4099  0.3894 -0.9156
   26CHL1  H11B 1886   4.156   2.918   6.273  0.3337  0.7665  0.0112
   26CHL1    C9 1887   4.115   2.703   6.318  0.4558  0.3925 -0.3165
   26CHL1    H9 1888   4.008   2.726   6.302  0.3418 -0.7910 -1.3904
   26CHL1   C10 1889   4.146   2.698   6.466  0.1905  0.5349 -0.6747
   26CHL1   C19 1890   4.296   2.696   6.479  0.1089 -0.2291 -0.6551
   26CHL1  H19A 1891   4.347   2.784   6.433  0.0377  0.1407 -0.0297
   26CHL1  H19B 1892   4.328   2.677   6.583  1.3982 -0.9165 -1.1514
   26CHL1  H19C 1893   4.342   2.610   6.426  0.0710 -0.4463 -0.3357
   26CHL1    C1 1894   4.090   2.816   6.554  0.2221  0.2516 -0.3422
   26CHL1   H1A 1895   4.135   2.913   6.522  0.8401 -0.4174 -1.5718
   26CHL1   H1B 1896   3.983   2.830   6.530  0.0306  0.7683  0.7411
   26CHL1    C2 1897   4.118   2.804   6.709  0.3135 -0.7028  0.9644
   26CHL1   H2A 1898   4.064   2.886   6.762 -0.6104 -0.6053 -0.0826
   26CHL1   H2B 1899   4.227   2.810   6.724  0.9671 -0.5473 -2.8541
   26CHL1   C20 1900   4.238   2.708   5.757 -0.1770 -0.5500  0.5038
   26CHL1   H20 1901   4.341   2.668   5.765  0.9540  2.2317  0.8899
   26CHL1   C21 1902   4.265   2.862   5.762  0.0888  0.1227  0.3294
   26CHL1  H21A 1903   4.172   2.922   5.770 -0.3980 -0.7770  1.5448
   26CHL1  H21B 1904   4.321   2.892   5.670  0.3194 -1.1482  0.0356
   26CHL1  H21C 1905   4.339   2.899   5.836 -0.1337  1.2573  0.0117
   26CHL1   C22 1906   4.185   2.676   5.615 -0.0944 -0.4650  0.5730
   26CHL1  H22A 1907   4.160   2.568   5.611  0.4679 -0.6153  1.0335
   26CHL1  H22B 1908   4.079   2.709   5.611  0.0541  0.1355  1.2659
   26CHL1   C23 1909   4.271   2.731   5.501 -0.6980  0.9331  0.5298
   26CHL1  H23A 1910   4.239   2.836   5.488 -2.4535  0.6733  2.3300
   26CHL1  H23B 1911   4.377   2.718   5.531  0.0263  3.3954 -0.6798
   26CHL1   C24 1912   4.248   2.653   5.376  0.0538 -0.2255 -0.6168
   26CHL1  H24A 1913   4.277   2.545   5.380  2.7755  0.3702 -1.6705
   26CHL1  H24B 1914   4.143   2.682   5.354 -0.3278 -0.8893  0.2738
   26CHL1   C25 1915   4.324   2.715   5.254  0.1775 -0.0463 -0.0136
   26CHL1   H25 1916   4.319   2.825   5.259  1.5094  0.0755 -0.7935
   26CHL1   C26 1917   4.471   2.678   5.267 -0.0785 -0.0289 -0.2833
   26CHL1  H26A 1918   4.506   2.720   5.364 -0.1744  4.3975 -1.9220
   26CHL1  H26B 1919   4.458   2.568   5.267 -1.1039 -0.0153 -3.5228
   26CHL1  H26C 1920   4.523   2.723   5.180 -1.2737  0.9685 -0.5273
   26CHL1   C27 1921   4.265   2.662   5.123 -0.1400  0.5964  0.1068
   26CHL1  H27A 1922   4.156   2.674   5.136 -0.2882 -0.7260  0.2217
   26CHL1  H27B 1923   4.318   2.723   5.047  0.3520  0.3822  0.2683
   26CHL1  H27C 1924   4.277   2.553   5.099 -1.2835  0.0982  1.6878
   27CHL1    C3 1925   1.879   4.754   6.180 -0.0278 -0.4676 -0.2834
   27CHL1    H3 1926   1.957   4.831   6.196 -1.1789  0.8129 -0.6603
   27CHL1    O3 1927   1.823   4.717   6.306  0.2510 -0.1907 -0.2766
   27CHL1   H3' 1928   1.846   4.624   6.309  2.9139  0.4051  0.7797
   27CHL1    C4 1929   1.772   4.836   6.106  0.0367  0.4144  1.0684
   27CHL1   H4A 1930   1.675   4.783   6.120 -0.7759  2.2317  2.7184
   27CHL1   H4B 1931   1.774   4.934   6.158 -0.6309 -0.6931  3.3088
   27CHL1    C5 1932   1.796   4.852   5.957  0.6072  0.1872  0.2650
   27CHL1    C6 1933   1.787   4.974   5.908  0.5780 -0.2690  0.1534
   27CHL1    H6 1934   1.746   5.055   5.971 -1.1568 -1.4353  0.5870
   27CHL1    C7 1935   1.818   4.998   5.765 -0.1980 -0.1034  0.0570
   27CHL1   H7A 1936   1.755   5.076   5.716 -0.1960 -0.4677 -0.5333
   27CHL1   H7B 1937   1.914   5.054   5.765  1.8159 -3.2434 -1.8765
   27CHL1    C8 1938   1.835   4.879   5.673 -0.2807  0.3291  0.0931
   27CHL1    H8 1939   1.732   4.845   5.649 -0.3709  0.1826  0.6653
   27CHL1   C14 1940   1.909   4.912   5.536  0.4227  0.7219 -0.3510
   27CHL1   H14 1941   2.007   4.954   5.567 -0.9679  3.9808  0.0505
   27CHL1   C15 1942   1.846   5.027   5.444  0.0931 -0.1140  0.0380
   27CHL1  H15A 1943   1.735   5.029   5.449 -0.0474 -1.6297 -1.5100
   27CHL1  H15B 1944   1.875   5.131   5.469  1.7591 -0.7328  0.8415
   27CHL1   C16 1945   1.887   4.991   5.304 -0.5249 -0.1430  0.2247
   27CHL1  H16A 1946   1.806   4.961   5.235 -0.2372 -2.0333  0.6679
   27CHL1  H16B 1947   1.938   5.076   5.253 -1.1735  0.9553  1.3515
   27CHL1   C17 1948   1.982   4.870   5.323  0.2414 -0.1307  0.3104
   27CHL1   H17 1949   2.080   4.918   5.346  0.1694  0.9038 -1.2958
   27CHL1   C13 1950   1.928   4.786   5.448  0.0584 -0.2741  0.7100
   27CHL1   C18 1951   1.789   4.723   5.411  0.0529  0.1072 -0.4301
   27CHL1  H18A 1952   1.739   4.688   5.504  0.1115  0.6296 -0.1976
   27CHL1  H18B 1953   1.724   4.793   5.355  1.9576  1.3347 -1.2304
   27CHL1  H18C 1954   1.796   4.632   5.348 -0.6436 -1.0426  1.1071
   27CHL1   C12 1955   2.023   4.690   5.524  0.1208 -0.6891  0.4428
   27CHL1  H12A 1956   2.035   4.595   5.467 -0.9607 -2.3325  2.7937
   27CHL1  H12B 1957   2.118   4.741   5.550  0.9962 -2.1654  0.2642
   27CHL1   C11 1958   1.952   4.649   5.659  0.1960  0.0358 -0.1208
   27CHL1  H11A 1959   1.858   4.597   5.631 -2.0910  3.4884  0.5087
   27CHL1  H11B 1960   2.017   4.575   5.710  0.6361  0.8828  0.5784
   27CHL1    C9 1961   1.918   4.768   5.750 -0.3178  0.1595 -0.0263
   27CHL1    H9 1962   2.011   4.823   5.775 -0.6776  1.0714 -0.6685
   27CHL1   C10 1963   1.852   4.726   5.884  0.1328 -0.2904  0.0039
   27CHL1   C19 1964   1.741   4.626   5.865  0.0593  0.7289 -0.2890
   27CHL1  H19A 1965   1.769   4.530   5.817 -0.1173  0.0657  0.8933
   27CHL1  H19B 1966   1.680   4.608   5.956  0.2087  0.2796 -0.2761
   27CHL1  H19C 1967   1.682   4.679   5.786  2.7475  1.9575 -1.6031
   27CHL1    C1 1968   1.970   4.679   5.970  0.0095  0.1827  0.5089
   27CHL1   H1A 1969   2.025   4.596   5.921 -0.4271 -0.5075  1.1717
   27CHL1   H1B 1970   2.046   4.760   5.974  1.3760 -0.9933 -0.5158
   27CHL1    C2 1971   1.935   4.630   6.109  0.6554  0.7431 -0.5718
   27CHL1   H2A 1972   2.019   4.590   6.170  0.7006 -0.4135 -1.3644
   27CHL1   H2B 1973   1.861   4.548   6.099  2.6480 -1.1352 -0.4907
   27CHL1   C20 1974   2.002   4.792   5.197 -0.0761 -0.5289  0.6621
   27CHL1   H20 1975   1.906   4.741   5.173 -0.2000 -1.8751  3.6497
   27CHL1   C21 1976   2.109   4.684   5.218 -0.2428 -0.0611  0.4423
   27CHL1  H21A 1977   2.136   4.645   5.117 -0.6393  1.0190 -0.1057
   27CHL1  H21B 1978   2.068   4.595   5.270 -2.8283  1.1489  0.6300
   27CHL1  H21C 1979   2.203   4.723   5.263 -0.3152  0.1953  0.3769
   27CHL1   C22 1980   2.054   4.882   5.077  0.0638 -0.2859  0.4008
   27CHL1  H22A 1981   1.964   4.939   5.045 -0.4830 -1.7184 -0.7436
   27CHL1  H22B 1982   2.133   4.955   5.107  0.3311 -0.2786 -0.2949
   27CHL1   C23 1983   2.096   4.811   4.942 -0.1012 -0.4755 -0.2675
   27CHL1  H23A 1984   2.193   4.759   4.948 -0.7848 -1.6586  1.1814
   27CHL1  H23B 1985   2.017   4.740   4.909 -1.1952 -0.6853  2.5055
   27CHL1   C24 1986   2.103   4.920   4.830 -0.4769 -0.1213  0.4546
   27CHL1  H24A 1987   2.003   4.968   4.824 -1.8583 -2.6868  1.3220
   27CHL1  H24B 1988   2.177   4.997   4.861 -0.6743 -0.0291  0.6960
   27CHL1   C25 1989   2.149   4.861   4.693  0.7523 -0.3978  0.0222
   27CHL1   H25 1990   2.257   4.837   4.700  0.5966 -0.6636  2.3455
   27CHL1   C26 1991   2.069   4.733   4.654  0.1931  0.9265 -0.1518
   27CHL1  H26A 1992   1.968   4.756   4.616 -0.0793 -0.8653 -0.6195
   27CHL1  H26B 1993   2.119   4.691   4.564 -1.8628  0.0124 -0.9278
   27CHL1  H26C 1994   2.071   4.657   4.735 -0.6712  1.0380 -0.0159
   27CHL1   C27 1995   2.141   4.970   4.576 -0.2180 -0.1940  0.3522
   27CHL1  H27A 1996   2.041   5.010   4.552 -0.5913 -0.5898  1.1929
   27CHL1  H27B 1997   2.203   5.058   4.604  0.2327 -0.4208  0.0697
   27CHL1  H27C 1998   2.179   4.919   4.485  0.3732  0.2438  0.3443
   28CHL1    C3 1999   3.845   4.404   6.054  0.0528  0.3248  0.3156
   28CHL1    H3 2000   3.750   4.352   6.031  1.2552 -1.8078 -0.1650
   28CHL1    O3 2001   3.857   4.438   6.191 -0.4914 -0.5727  0.0730
   28CHL1   H3' 2002   3.820   4.527   6.189 -1.3951 -0.9141  0.8447
   28CHL1    C4 2003   3.965   4.301   6.019  0.2359 -0.2309 -0.1076
   28CHL1   H4A 2004   4.064   4.344   6.046  0.3170 -0.4958  0.0170
   28CHL1   H4B 2005   3.947   4.222   6.095  1.1551 -0.8384 -0.5013
   28CHL1    C5 2006   3.977   4.264   5.874  0.5051  0.8656 -0.4722
   28CHL1    C6 2007   3.985   4.133   5.848  0.5876  0.1010  0.4756
   28CHL1    H6 2008   3.996   4.060   5.929  0.2353  0.5422  0.9326
   28CHL1    C7 2009   3.977   4.076   5.713 -0.4678 -0.8757  0.0631
   28CHL1   H7A 2010   4.069   4.014   5.704  1.0110  1.3695 -1.0520
   28CHL1   H7B 2011   3.889   4.008   5.716 -0.7926 -0.4331  1.1050
   28CHL1    C8 2012   4.003   4.183   5.602  0.2062  0.0543  0.3754
   28CHL1    H8 2013   4.112   4.205   5.603  0.3682 -0.6430  2.5183
   28CHL1   C14 2014   3.955   4.138   5.463 -0.2807 -0.1692  0.5720
   28CHL1   H14 2015   3.846   4.120   5.479 -0.4129  1.1493  1.2895
   28CHL1   C15 2016   4.012   4.002   5.413  0.6591 -0.2885  0.9358
   28CHL1  H15A 2017   4.119   3.999   5.444  1.0151 -2.6001 -0.2601
   28CHL1  H15B 2018   3.949   3.920   5.454 -1.4318  0.9089  0.2652
   28CHL1   C16 2019   3.981   4.012   5.261 -0.2097  0.7932  0.3405
   28CHL1  H16A 2020   4.080   4.003   5.211  0.0152 -2.6507  1.1362
   28CHL1  H16B 2021   3.928   3.925   5.219  0.6508 -0.0320  0.9131
   28CHL1   C17 2022   3.921   4.145   5.242  0.2123  0.3710 -0.1593
   28CHL1   H17 2023   3.814   4.126   5.262  0.0962  1.6876  0.5777
   28CHL1   C13 2024   3.971   4.241   5.352 -0.6744  0.5505 -0.0895
   28CHL1   C18 2025   4.123   4.269   5.337 -0.4302  0.7795 -0.5918
   28CHL1  H18A 2026   4.164   4.323   5.424  0.6032  0.0841 -0.6348
   28CHL1  H18B 2027   4.182   4.180   5.306 -1.8746  0.1629 -1.6915
   28CHL1  H18C 2028   4.120   4.344   5.254 -0.6249  0.9046 -0.4730
   28CHL1   C12 2029   3.895   4.366   5.384  0.5381 -0.1747  0.7268
   28CHL1  H12A 2030   3.914   4.443   5.306  0.6882 -0.8564  0.0784
   28CHL1  H12B 2031   3.787   4.346   5.397  0.3669 -0.2961 -0.7535
   28CHL1   C11 2032   3.943   4.427   5.518 -0.3671 -0.2625  0.5479
   28CHL1  H11A 2033   4.048   4.462   5.507 -0.4586 -0.7402 -3.0620
   28CHL1  H11B 2034   3.875   4.512   5.542 -1.4350 -0.5723 -1.2185
   28CHL1    C9 2035   3.926   4.316   5.628  0.3549  0.0983 -0.0725
   28CHL1    H9 2036   3.818   4.291   5.630 -0.0774  1.6551 -1.5963
   28CHL1   C10 2037   3.961   4.375   5.771  0.3074 -0.2508 -0.4781
   28CHL1   C19 2038   4.099   4.443   5.760 -0.5209 -0.3638  0.3531
   28CHL1  H19A 2039   4.108   4.541   5.709 -0.5432 -1.9186 -2.9578
   28CHL1  H19B 2040   4.128   4.470   5.863  0.4481 -2.1530  0.6064
   28CHL1  H19C 2041   4.177   4.380   5.711  0.2530  2.0208 -1.7227
   28CHL1    C1 2042   3.857   4.482   5.816 -0.3364  0.3779 -0.2606
   28CHL1   H1A 2043   3.872   4.570   5.750 -1.0213  0.8805  0.2355
   28CHL1   H1B 2044   3.761   4.446   5.772 -0.4327  3.2794 -2.7163
   28CHL1    C2 2045   3.857   4.523   5.963 -0.7977  0.5716 -0.0312
   28CHL1   H2A 2046   3.768   4.586   5.985  0.0619  0.6717  3.9377
   28CHL1   H2B 2047   3.938   4.596   5.982  0.6994 -0.9269 -0.4458
   28CHL1   C20 2048   3.933   4.204   5.097  0.4791  0.5180 -0.2352
   28CHL1   H20 2049   4.019   4.275   5.096  2.0381 -1.0065  3.6831
   28CHL1   C21 2050   3.792   4.267   5.065 -0.8682  0.2179  0.4337
   28CHL1  H21A 2051   3.770   4.346   5.140  2.0031 -0.7597  2.4953
   28CHL1  H21B 2052   3.712   4.191   5.076  0.3879 -1.4536 -1.4293
   28CHL1  H21C 2053   3.793   4.300   4.959  1.5063  0.0871  0.3526
   28CHL1   C22 2054   3.969   4.104   4.976  0.3207 -1.0779  0.2782
   28CHL1  H22A 2055   4.062   4.049   5.002  1.4074  0.1733 -0.7758
   28CHL1  H22B 2056   3.891   4.025   4.975  0.1662 -0.9240 -0.3755
   28CHL1   C23 2057   3.994   4.184   4.832  0.1818  0.1234  0.2968
   28CHL1  H23A 2058   4.018   4.094   4.771 -0.4928  1.2946 -1.7929
   28CHL1  H23B 2059   3.902   4.227   4.788 -0.1445 -0.9129 -0.0502
   28CHL1   C24 2060   4.114   4.277   4.813 -0.3301 -1.1267  0.1142
   28CHL1  H24A 2061   4.121   4.354   4.893  1.0534 -2.7613  1.6590
   28CHL1  H24B 2062   4.204   4.213   4.826  0.9930  0.6590  0.1840
   28CHL1   C25 2063   4.129   4.333   4.672  0.2417  0.7588  0.3248
   28CHL1   H25 2064   4.028   4.371   4.646  0.2658  1.7766  1.6160
   28CHL1   C26 2065   4.227   4.451   4.652  0.0816 -0.2781  0.1805
   28CHL1  H26A 2066   4.191   4.492   4.555 -1.0249  1.1211  1.1334
   28CHL1  H26B 2067   4.228   4.512   4.744 -0.9957 -1.6132  1.1279
   28CHL1  H26C 2068   4.329   4.411   4.636 -0.4439 -0.8299 -2.2564
   28CHL1   C27 2069   4.145   4.223   4.566  0.7677  0.1292 -0.0444
   28CHL1  H27A 2070   4.062   4.149   4.568  0.5047  0.4040  2.4269
   28CHL1  H27B 2071   4.147   4.274   4.468 -1.6409  1.5904  0.5998
   28CHL1  H27C 2072   4.239   4.163   4.574  1.5241  1.0726 -1.5171
   29CHL1    C3 2073   1.084   0.378   2.684  0.2966  0.5462  0.5622
   29CHL1    H3 2074   1.107   0.277   2.724  0.2726  0.4195  0.2625
   29CHL1    O3 2075   1.028   0.355   2.554  0.2213 -1.3048 -0.1304
   29CHL1   H3' 2076   1.026   0.443   2.516  3.4355 -1.4770 -1.0382
   29CHL1    C4 2077   0.988   0.458   2.769  0.1247 -0.0863  0.2342
   29CHL1   H4A 2078   0.969   0.552   2.714 -1.6064 -0.4123  0.2158
   29CHL1   H4B 2079   0.889   0.407   2.770  0.9327 -2.0798 -3.5019
   29CHL1    C5 2080   1.053   0.486   2.904 -0.0534 -0.1696 -0.2086
   29CHL1    C6 2081   0.998   0.442   3.020 -0.0709 -0.0302  0.6116
   29CHL1    H6 2082   0.896   0.401   3.026 -0.9833  1.3752 -2.7650
   29CHL1    C7 2083   1.058   0.476   3.151  0.0647 -0.1005  0.2520
   29CHL1   H7A 2084   0.989   0.531   3.219 -1.7854  0.0324 -1.6467
   29CHL1   H7B 2085   1.082   0.377   3.196  1.8664 -0.4197 -1.3076
   29CHL1    C8 2086   1.182   0.573   3.154 -0.2673  0.2649 -0.1392
   29CHL1    H8 2087   1.138   0.676   3.156 -1.3406 -0.1751  1.2163
   29CHL1   C14 2088   1.260   0.540   3.281 -0.3597  0.8017 -0.2836
   29CHL1   H14 2089   1.293   0.434   3.278 -0.5391  0.5474  2.9549
   29CHL1   C15 2090   1.188   0.541   3.417 -0.3754  0.4135  0.7758
   29CHL1  H15A 2091   1.118   0.628   3.415 -0.5447  0.4252 -3.7430
   29CHL1  H15B 2092   1.125   0.451   3.426  2.3310 -2.0913 -2.6167
   29CHL1   C16 2093   1.302   0.556   3.518 -0.0954 -0.0970 -0.6190
   29CHL1  H16A 2094   1.285   0.636   3.593  0.3816  0.2740 -0.8981
   29CHL1  H16B 2095   1.310   0.460   3.574  0.4383  0.5206  0.3728
   29CHL1   C17 2096   1.433   0.572   3.445 -0.1147 -0.0742  0.1589
   29CHL1   H17 2097   1.476   0.470   3.440  1.3272  0.5105 -0.0945
   29CHL1   C13 2098   1.390   0.619   3.304 -0.8500 -0.6577  0.8395
   29CHL1   C18 2099   1.362   0.775   3.319  0.4958  0.3720 -0.6746
   29CHL1  H18A 2100   1.328   0.817   3.222 -1.0205 -3.2517 -1.8854
   29CHL1  H18B 2101   1.281   0.786   3.394 -0.9818 -0.9187 -2.0029
   29CHL1  H18C 2102   1.448   0.828   3.365 -1.2644  0.1335  3.3040
   29CHL1   C12 2103   1.487   0.582   3.185  0.2636 -0.6704 -0.3165
   29CHL1  H12A 2104   1.569   0.656   3.187 -0.7312  0.4605  1.1201
   29CHL1  H12B 2105   1.532   0.481   3.198 -1.2573 -1.1584  1.7724
   29CHL1   C11 2106   1.412   0.601   3.050  0.2272 -0.4583 -0.3692
   29CHL1  H11A 2107   1.408   0.710   3.030  0.0636 -0.7070 -1.8290
   29CHL1  H11B 2108   1.477   0.561   2.969  2.7522 -0.3410  1.4832
   29CHL1    C9 2109   1.270   0.544   3.035  0.0391 -0.1103  0.0127
   29CHL1    H9 2110   1.298   0.439   3.060 -1.2201  0.0047  2.1871
   29CHL1   C10 2111   1.193   0.560   2.901 -0.1566 -0.2338 -0.7390
   29CHL1   C19 2112   1.173   0.714   2.883 -0.1089  0.1416 -1.0376
   29CHL1  H19A 2113   1.101   0.740   2.802 -0.6130 -1.1015 -1.0194
   29CHL1  H19B 2114   1.122   0.768   2.965 -1.3995 -1.0324 -1.0368
   29CHL1  H19C 2115   1.271   0.765   2.874  1.7617 -3.0541 -0.3361
   29CHL1    C1 2116   1.282   0.503   2.790  0.2300  0.2774  0.0940
   29CHL1   H1A 2117   1.367   0.573   2.777  1.3752 -1.3437 -1.6987
   29CHL1   H1B 2118   1.330   0.415   2.837  0.3837  0.5946  0.5300
   29CHL1    C2 2119   1.210   0.464   2.661 -0.5286  0.8138 -0.3435
   29CHL1   H2A 2120   1.282   0.392   2.616 -0.0118 -0.2248  1.9924
   29CHL1   H2B 2121   1.178   0.543   2.590  0.2006  2.1413  0.7693
   29CHL1   C20 2122   1.541   0.649   3.533 -0.0969  0.1048  0.1900
   29CHL1   H20 2123   1.502   0.750   3.560  0.3114 -0.2602  2.2713
   29CHL1   C21 2124   1.660   0.666   3.434  0.4575 -0.6204  0.1533
   29CHL1  H21A 2125   1.688   0.572   3.381  0.3481 -0.6465  0.1433
   29CHL1  H21B 2126   1.746   0.696   3.498  0.1792 -0.5404  0.4942
   29CHL1  H21C 2127   1.641   0.744   3.358  2.5977 -0.2024 -0.0342
   29CHL1   C22 2128   1.572   0.571   3.663 -0.6342 -0.5548  0.4938
   29CHL1  H22A 2129   1.483   0.564   3.730  0.3508  1.1544  2.0938
   29CHL1  H22B 2130   1.611   0.468   3.645  1.3827  0.4461 -1.2487
   29CHL1   C23 2131   1.678   0.647   3.755  0.3533  0.6088  0.4482
   29CHL1  H23A 2132   1.769   0.667   3.695  0.0064 -0.6548 -0.5564
   29CHL1  H23B 2133   1.631   0.744   3.778  0.1465  0.7495 -0.5353
   29CHL1   C24 2134   1.714   0.566   3.877 -0.1003 -0.3426 -0.1900
   29CHL1  H24A 2135   1.620   0.544   3.932  0.4636 -1.0955  0.4861
   29CHL1  H24B 2136   1.754   0.465   3.855  0.2106 -0.9111  2.6712
   29CHL1   C25 2137   1.820   0.634   3.968 -0.3938 -0.8726 -0.1554
   29CHL1   H25 2138   1.908   0.652   3.902 -0.2344 -4.0470 -0.9617
   29CHL1   C26 2139   1.770   0.774   4.020 -0.1984  1.0447 -0.1323
   29CHL1  H26A 2140   1.785   0.840   3.932  0.2270  0.0583 -0.8252
   29CHL1  H26B 2141   1.667   0.752   4.054  0.3195  0.0172  0.8456
   29CHL1  H26C 2142   1.836   0.813   4.100  1.4249  0.2396 -1.0077
   29CHL1   C27 2143   1.861   0.552   4.087  0.5408  0.9247  0.2233
   29CHL1  H27A 2144   1.916   0.468   4.041  0.1534 -0.0650  1.4804
   29CHL1  H27B 2145   1.911   0.622   4.157  1.2887  3.4615 -2.6539
   29CHL1  H27C 2146   1.765   0.517   4.132  0.9569  0.4893  0.7920
   30CHL1    C3 2147   3.656   0.484   2.869 -1.0494 -0.3000 -0.4546
   30CHL1    H3 2148   3.723   0.407   2.912  1.2160  2.6145  1.7464
   30CHL1    O3 2149   3.620   0.453   2.737  0.4001 -0.7015  0.3423
   30CHL1   H3' 2150   3.703   0.465   2.689 -1.4805  1.4070 -2.7994
   30CHL1    C4 2151   3.529   0.500   2.945 -0.1094  0.1337  0.3130
   30CHL1   H4A 2152   3.466   0.575   2.892  1.5320  2.1670  1.1170
   30CHL1   H4B 2153   3.478   0.401   2.940 -0.0303 -0.0839  2.6844
   30CHL1    C5 2154   3.561   0.545   3.087 -0.2948 -0.6134  0.5834
   30CHL1    C6 2155   3.524   0.471   3.194 -0.1060 -0.6939 -0.4354
   30CHL1    H6 2156   3.471   0.377   3.175  1.0893 -1.6712  0.8603
   30CHL1    C7 2157   3.549   0.511   3.345  0.4568  1.0358 -0.3532
   30CHL1   H7A 2158   3.453   0.495   3.398  0.8818  1.1215  0.4493
   30CHL1   H7B 2159   3.623   0.454   3.404  0.9364  2.3307  0.3391
   30CHL1    C8 2160   3.586   0.652   3.357  0.4361  0.0250  0.1768
   30CHL1    H8 2161   3.493   0.710   3.337 -0.1504 -1.2469 -0.9633
   30CHL1   C14 2162   3.641   0.678   3.496 -0.3037  0.0022 -0.1788
   30CHL1   H14 2163   3.737   0.622   3.490 -0.1872  0.2893 -1.1476
   30CHL1   C15 2164   3.552   0.629   3.616 -0.5589 -0.7742 -0.7056
   30CHL1  H15A 2165   3.447   0.665   3.609 -0.3464 -0.1321 -0.6010
   30CHL1  H15B 2166   3.570   0.520   3.626 -0.9267 -0.9779 -2.1171
   30CHL1   C16 2167   3.605   0.711   3.729 -0.5390 -0.2265 -0.9738
   30CHL1  H16A 2168   3.527   0.779   3.769 -1.2047 -0.8554 -1.1783
   30CHL1  H16B 2169   3.633   0.643   3.812 -0.2429  2.1826  1.0095
   30CHL1   C17 2170   3.712   0.819   3.682 -0.0365 -0.2627  0.6045
   30CHL1   H17 2171   3.807   0.765   3.697 -0.9397 -1.2132  3.3531
   30CHL1   C13 2172   3.680   0.824   3.527 -0.2794 -0.1573 -0.1497
   30CHL1   C18 2173   3.555   0.913   3.514  0.0959  0.2587 -0.5461
   30CHL1  H18A 2174   3.570   1.023   3.510  0.1946  0.2646 -0.0454
   30CHL1  H18B 2175   3.496   0.897   3.421 -2.2701  2.0895  0.5423
   30CHL1  H18C 2176   3.485   0.895   3.599  1.4403 -1.3194  0.2834
   30CHL1   C12 2177   3.789   0.861   3.428 -0.1037 -0.8848 -0.6689
   30CHL1  H12A 2178   3.824   0.966   3.425 -0.9804 -0.5889 -0.8658
   30CHL1  H12B 2179   3.871   0.790   3.453  0.4726 -0.1381 -0.4253
   30CHL1   C11 2180   3.755   0.830   3.282  0.2466 -0.1461 -0.6665
   30CHL1  H11A 2181   3.676   0.900   3.249 -0.7169 -1.3482 -1.0008
   30CHL1  H11B 2182   3.842   0.853   3.217  0.7992  0.5349  0.2749
   30CHL1    C9 2183   3.693   0.693   3.253  0.3038  0.5095  0.1597
   30CHL1    H9 2184   3.777   0.623   3.269  0.9674  0.5633 -2.5579
   30CHL1   C10 2185   3.647   0.671   3.100  0.0027 -0.0497  0.0229
   30CHL1   C19 2186   3.566   0.789   3.052  0.3800 -0.2398  0.3100
   30CHL1  H19A 2187   3.536   0.766   2.947  4.1054 -0.2491 -0.9099
   30CHL1  H19B 2188   3.477   0.816   3.113 -1.1944 -1.3265 -1.3875
   30CHL1  H19C 2189   3.628   0.881   3.041 -2.2383  1.6680  0.3502
   30CHL1    C1 2190   3.776   0.657   3.012 -0.1310  0.0488  0.2366
   30CHL1   H1A 2191   3.821   0.759   3.009  2.1597 -0.8635  1.3997
   30CHL1   H1B 2192   3.849   0.580   3.046 -0.8452 -1.2931 -1.1513
   30CHL1    C2 2193   3.741   0.613   2.864 -0.5160  0.1204  0.2934
   30CHL1   H2A 2194   3.834   0.606   2.805 -1.0112 -1.7988 -0.3375
   30CHL1   H2B 2195   3.695   0.699   2.811  1.5592 -0.5358 -2.8564
   30CHL1   C20 2196   3.714   0.948   3.766 -0.1134  0.3261 -0.1297
   30CHL1   H20 2197   3.616   0.997   3.750  1.0906  2.0781 -2.8316
   30CHL1   C21 2198   3.811   1.049   3.719 -0.3668 -0.1690  0.8988
   30CHL1  H21A 2199   3.819   1.126   3.799  0.2341  1.2517 -0.4676
   30CHL1  H21B 2200   3.780   1.103   3.626 -0.0365 -0.6259  0.5165
   30CHL1  H21C 2201   3.908   0.995   3.710 -0.3709 -0.4302  2.2708
   30CHL1   C22 2202   3.733   0.927   3.918  0.6511  0.0956 -0.0907
   30CHL1  H22A 2203   3.722   1.018   3.980  2.5587 -0.4245  1.0895
   30CHL1  H22B 2204   3.653   0.857   3.953 -0.2595  0.0534 -2.1194
   30CHL1   C23 2205   3.865   0.863   3.956  0.4352  0.6253 -0.3601
   30CHL1  H23A 2206   3.887   0.769   3.901  0.5446  0.2079  0.3842
   30CHL1  H23B 2207   3.936   0.942   3.924  1.0515  0.6272  0.9645
   30CHL1   C24 2208   3.889   0.848   4.105 -0.4058 -0.1850 -0.2284
   30CHL1  H24A 2209   3.986   0.795   4.119 -0.2257 -0.0423 -0.9120
   30CHL1  H24B 2210   3.885   0.944   4.161 -1.0832  0.4690 -1.3689
   30CHL1   C25 2211   3.776   0.773   4.179  0.1266  0.0776  0.7649
   30CHL1   H25 2212   3.681   0.826   4.160  1.4892  1.1788 -5.0141
   30CHL1   C26 2213   3.764   0.625   4.125  0.2652 -0.3396  0.0582
   30CHL1  H26A 2214   3.735   0.634   4.018  1.7377  0.8016 -0.2679
   30CHL1  H26B 2215   3.865   0.579   4.125 -0.6989 -2.6488  1.5099
   30CHL1  H26C 2216   3.683   0.572   4.179 -0.9976  1.6440  0.1961
   30CHL1   C27 2217   3.807   0.763   4.322  0.1701  0.1245 -0.8382
   30CHL1  H27A 2218   3.729   0.718   4.386  0.2804  0.0616 -0.7482
   30CHL1  H27B 2219   3.895   0.696   4.329 -1.0588 -1.4176  0.5842
   30CHL1  H27C 2220   3.819   0.867   4.359  1.0601  0.5056 -2.1190
   31CHL1    C3 2221   4.827   3.303   2.752  0.5925 -0.6725 -0.2537
   31CHL1    H3 2222   4.741   3.373   2.751 -0.7100 -2.2268  0.0258
   31CHL1    O3 2223   4.864   3.255   2.625  0.4114  0.7062 -0.0015
   31CHL1   H3' 2224   4.932   3.317   2.598  0.8542 -0.2515 -1.1541
   31CHL1    C4 2225   4.949   3.359   2.818 -0.4062 -0.3427  0.3646
   31CHL1   H4A 2226   5.038   3.294   2.800  1.0048  1.3698  0.8142
   31CHL1   H4B 2227   4.969   3.455   2.766  1.1307 -1.6409 -1.5839
   31CHL1    C5 2228   4.933   3.389   2.968  0.1258  0.0547  1.3633
   31CHL1    C6 2229   4.969   3.510   3.021 -0.8084  0.0931  0.2421
   31CHL1    H6 2230   5.014   3.590   2.961 -1.5761  0.1393 -0.2860
   31CHL1    C7 2231   4.957   3.543   3.168 -0.0363 -0.2268 -0.4718
   31CHL1   H7A 2232   5.049   3.593   3.206  2.8423 -4.1718 -1.6473
   31CHL1   H7B 2233   4.879   3.622   3.181 -0.6848 -0.9280 -0.0309
   31CHL1    C8 2234   4.932   3.428   3.260 -0.5702  0.3640  0.4225
   31CHL1    H8 2235   5.030   3.380   3.282 -0.9217  0.3793  2.1463
   31CHL1   C14 2236   4.873   3.480   3.393  0.2800  0.0876 -0.1908
   31CHL1   H14 2237   4.782   3.522   3.346  1.3876 -1.0870 -3.6673
   31CHL1   C15 2238   4.956   3.585   3.472 -0.9563  0.1218  0.3337
   31CHL1  H15A 2239   5.056   3.537   3.486 -0.9467  0.0303 -0.0463
   31CHL1  H15B 2240   4.964   3.682   3.419  0.3596  1.0937  2.1866
   31CHL1   C16 2241   4.887   3.591   3.605  0.2259 -0.4396 -0.2013
   31CHL1  H16A 2242   4.966   3.573   3.682 -1.2003 -2.1300  0.9363
   31CHL1  H16B 2243   4.827   3.684   3.615 -0.1831 -0.7179 -0.0228
   31CHL1   C17 2244   4.793   3.463   3.613  0.1896 -0.3884 -0.9975
   31CHL1   H17 2245   4.691   3.500   3.585  1.0197  1.1589 -2.1557
   31CHL1   C13 2246   4.837   3.372   3.491 -0.2324 -0.7294 -0.7480
   31CHL1   C18 2247   4.957   3.287   3.530 -0.7709  0.3171 -0.7415
   31CHL1  H18A 2248   5.014   3.232   3.452 -2.2493 -1.1686 -0.8283
   31CHL1  H18B 2249   5.026   3.346   3.594  0.6162  0.9764 -2.7699
   31CHL1  H18C 2250   4.920   3.212   3.604  1.4310  0.8327  1.0136
   31CHL1   C12 2251   4.735   3.280   3.426  0.7004  0.1274 -0.2146
   31CHL1  H12A 2252   4.700   3.202   3.496 -0.1750  1.3685  0.7740
   31CHL1  H12B 2253   4.642   3.336   3.403  0.6335  0.9942  1.9376
   31CHL1   C11 2254   4.784   3.222   3.295 -0.4107  0.0160  0.1590
   31CHL1  H11A 2255   4.862   3.148   3.322 -1.9894 -2.3154 -1.2829
   31CHL1  H11B 2256   4.703   3.166   3.243  2.4118 -2.3384 -2.0764
   31CHL1    C9 2257   4.829   3.332   3.196 -0.2126 -0.5837  0.3444
   31CHL1    H9 2258   4.744   3.399   3.170 -0.7971 -2.1951 -2.2374
   31CHL1   C10 2259   4.874   3.277   3.056  0.8533  0.5706 -0.0139
   31CHL1   C19 2260   4.977   3.159   3.066 -0.2203  0.3681 -0.7793
   31CHL1  H19A 2261   5.001   3.107   2.971  1.4079  0.7633 -0.6262
   31CHL1  H19B 2262   5.074   3.190   3.112 -1.2899  2.0088  0.5051
   31CHL1  H19C 2263   4.933   3.083   3.134  0.2904  1.1171  0.4281
   31CHL1    C1 2264   4.754   3.211   2.977  0.0159 -0.3751 -0.1831
   31CHL1   H1A 2265   4.722   3.123   3.037 -0.4705 -0.0596  0.0219
   31CHL1   H1B 2266   4.679   3.292   2.988  1.3138  0.7563  0.6415
   31CHL1    C2 2267   4.776   3.178   2.827 -0.2303  0.9468 -0.6097
   31CHL1   H2A 2268   4.678   3.150   2.782  0.3657 -1.3656 -0.6032
   31CHL1   H2B 2269   4.843   3.092   2.804  1.2181  1.9969 -0.4201
   31CHL1   C20 2270   4.791   3.399   3.750 -0.4528  0.2407  0.6117
   31CHL1   H20 2271   4.890   3.349   3.760  1.6687  3.3534 -2.4689
   31CHL1   C21 2272   4.676   3.290   3.750 -0.3513 -0.0208  0.4597
   31CHL1  H21A 2273   4.588   3.322   3.689  0.8082 -1.0249 -1.8408
   31CHL1  H21B 2274   4.648   3.263   3.854 -2.0340 -3.5971 -0.7825
   31CHL1  H21C 2275   4.722   3.202   3.702 -1.2431 -0.8181  1.0266
   31CHL1   C22 2276   4.774   3.500   3.868 -0.0971  0.0524 -0.1308
   31CHL1  H22A 2277   4.853   3.577   3.857 -1.0911  0.8612 -1.9272
   31CHL1  H22B 2278   4.680   3.557   3.866 -0.2567 -0.2077 -0.1543
   31CHL1   C23 2279   4.788   3.432   4.007  0.5874 -0.2301 -0.8141
   31CHL1  H23A 2280   4.698   3.366   4.011  1.0810 -0.8656 -0.0315
   31CHL1  H23B 2281   4.878   3.367   3.999 -0.0010 -1.3356  1.0189
   31CHL1   C24 2282   4.788   3.528   4.123 -0.6974 -0.1005 -0.0269
   31CHL1  H24A 2283   4.882   3.588   4.115 -0.4181 -0.5994 -0.5235
   31CHL1  H24B 2284   4.690   3.580   4.120 -0.3879  0.8053  2.4776
   31CHL1   C25 2285   4.796   3.449   4.263 -0.2753 -0.6018 -0.0582
   31CHL1   H25 2286   4.707   3.383   4.264 -0.1211 -0.8062  0.3693
   31CHL1   C26 2287   4.924   3.369   4.285 -0.2022 -0.0468  0.3238
   31CHL1  H26A 2288   5.008   3.442   4.286 -0.6032  0.4985 -1.6874
   31CHL1  H26B 2289   4.924   3.315   4.382  1.6629  0.1086  0.4549
   31CHL1  H26C 2290   4.948   3.294   4.207 -0.5816 -0.9769  1.0886
   31CHL1   C27 2291   4.788   3.553   4.382  0.6843 -0.1784  0.3079
   31CHL1  H27A 2292   4.752   3.512   4.479 -0.1069  0.1833  0.1701
   31CHL1  H27B 2293   4.880   3.616   4.384 -0.9646  2.3854 -0.0193
   31CHL1  H27C 2294   4.713   3.630   4.354  0.1975 -0.4176  0.9281
   32CHL1    C3 2295   2.399   0.873   2.743  0.4938  0.6093 -0.3796
   32CHL1    H3 2296   2.396   0.982   2.765 -1.1272  1.2464 -3.2199
   32CHL1    O3 2297   2.397   0.850   2.596  1.0767  0.0052  0.3670
   32CHL1   H3' 2298   2.477   0.800   2.577 -0.2878 -1.9358 -0.6303
   32CHL1    C4 2299   2.523   0.801   2.801 -0.2325  0.1823  0.2841
   32CHL1   H4A 2300   2.498   0.694   2.781 -0.1388  0.3263 -0.6776
   32CHL1   H4B 2301   2.618   0.822   2.746  2.6370 -1.0287  4.3152
   32CHL1    C5 2302   2.532   0.837   2.943 -0.1253 -0.6800 -0.3707
   32CHL1    C6 2303   2.650   0.892   2.989  0.3138  0.1559 -0.0546
   32CHL1    H6 2304   2.734   0.915   2.921  1.1377 -0.3825  0.7597
   32CHL1    C7 2305   2.670   0.921   3.132  0.7993 -0.1337  0.1761
   32CHL1   H7A 2306   2.772   0.882   3.155  0.6447  0.0448  1.2012
   32CHL1   H7B 2307   2.676   1.032   3.139 -0.8494 -0.0768  1.2379
   32CHL1    C8 2308   2.569   0.873   3.234 -0.2508  0.1287  0.9879
   32CHL1    H8 2309   2.584   0.764   3.252  0.4222 -0.0347 -0.4197
   32CHL1   C14 2310   2.572   0.954   3.366  0.2678  0.5754  0.0601
   32CHL1   H14 2311   2.542   1.058   3.343  0.2977  0.0966 -2.4901
   32CHL1   C15 2312   2.705   0.975   3.440  0.0382  0.1990  0.5213
   32CHL1  H15A 2313   2.762   0.880   3.448 -1.4488 -0.6068  2.4574
   32CHL1  H15B 2314   2.758   1.066   3.404 -2.7738  2.4769  1.6803
   32CHL1   C16 2315   2.669   1.006   3.585  0.6087 -0.3446  0.1297
   32CHL1  H16A 2316   2.719   0.931   3.651 -0.7117  0.1549  1.7635
   32CHL1  H16B 2317   2.708   1.108   3.605  0.5247 -0.3946  0.5718
   32CHL1   C17 2318   2.514   1.005   3.594  0.6815  0.1071  0.0430
   32CHL1   H17 2319   2.476   1.106   3.569  0.3990  0.6110  2.3110
   32CHL1   C13 2320   2.478   0.907   3.474  0.2889 -0.5395 -0.9982
   32CHL1   C18 2321   2.500   0.762   3.518 -0.0904 -0.2216 -0.1120
   32CHL1  H18A 2322   2.488   0.685   3.439  0.6850 -3.6968  2.8727
   32CHL1  H18B 2323   2.599   0.740   3.563  0.5428  1.7623 -0.4675
   32CHL1  H18C 2324   2.430   0.729   3.598 -1.3033  1.6094 -0.3585
   32CHL1   C12 2325   2.334   0.927   3.420  0.0925  0.4247  0.7135
   32CHL1  H12A 2326   2.255   0.887   3.487 -1.1702  1.3471 -0.1677
   32CHL1  H12B 2327   2.324   1.037   3.413  1.4065  0.4818 -0.6682
   32CHL1   C11 2328   2.320   0.857   3.283  0.6020  1.3478  0.1596
   32CHL1  H11A 2329   2.338   0.748   3.290 -2.4109  0.8322  1.3993
   32CHL1  H11B 2330   2.215   0.871   3.248  0.4008 -1.5390 -0.5740
   32CHL1    C9 2331   2.426   0.890   3.176 -0.6615  0.1303 -0.4950
   32CHL1    H9 2332   2.411   0.999   3.165  1.7891  0.7367  1.3281
   32CHL1   C10 2333   2.409   0.820   3.039  0.2692  0.0911 -0.7738
   32CHL1   C19 2334   2.411   0.665   3.056  0.3399  0.4901 -0.3396
   32CHL1  H19A 2335   2.508   0.625   3.091 -0.2400  0.3772  1.1979
   32CHL1  H19B 2336   2.328   0.630   3.121  0.7479 -2.0346 -1.0586
   32CHL1  H19C 2337   2.395   0.619   2.956  1.3438  1.1054 -0.7979
   32CHL1    C1 2338   2.276   0.854   2.966 -0.2700  0.6058 -0.1301
   32CHL1   H1A 2339   2.194   0.799   3.016 -2.3191 -0.4078 -4.1422
   32CHL1   H1B 2340   2.255   0.962   2.975  0.2831  0.7806 -0.8527
   32CHL1    C2 2341   2.274   0.820   2.813  0.6377 -0.3841  0.3873
   32CHL1   H2A 2342   2.183   0.867   2.771  2.1968  1.5079 -1.0572
   32CHL1   H2B 2343   2.269   0.712   2.788 -3.5283 -0.0853 -0.7823
   32CHL1   C20 2344   2.464   0.979   3.740  0.0228  0.0626 -0.5138
   32CHL1   H20 2345   2.495   0.875   3.764  0.0737  0.0050 -0.8237
   32CHL1   C21 2346   2.315   1.002   3.741 -0.4364 -0.2977  0.1758
   32CHL1  H21A 2347   2.283   0.972   3.844  0.0379  1.4814  0.8705
   32CHL1  H21B 2348   2.261   0.928   3.677 -0.3763  0.6595 -1.0078
   32CHL1  H21C 2349   2.284   1.106   3.720 -2.4804 -0.5915  1.4328
   32CHL1   C22 2350   2.533   1.064   3.849  0.3479 -0.4029  0.7759
   32CHL1  H22A 2351   2.642   1.059   3.829  0.1067  2.0807 -1.9120
   32CHL1  H22B 2352   2.506   1.171   3.836 -0.9747 -0.8660 -0.5001
   32CHL1   C23 2353   2.504   1.032   3.996 -0.0838 -0.6148 -0.1806
   32CHL1  H23A 2354   2.398   1.054   4.019  0.2318 -0.3289  1.0557
   32CHL1  H23B 2355   2.514   0.922   4.004  1.1207 -0.6076 -1.2445
   32CHL1   C24 2356   2.591   1.105   4.100  0.2381  0.0857  0.2568
   32CHL1  H24A 2357   2.696   1.070   4.107  0.7186  0.3165 -3.5370
   32CHL1  H24B 2358   2.601   1.211   4.071  1.5667 -0.0956 -0.0121
   32CHL1   C25 2359   2.534   1.099   4.246  0.3685 -0.3031  0.2178
   32CHL1   H25 2360   2.441   1.159   4.238  0.9056  0.5254  0.0799
   32CHL1   C26 2361   2.500   0.958   4.297  0.0681 -0.1296 -0.4240
   32CHL1  H26A 2362   2.596   0.918   4.337  0.7475 -0.7552 -2.5380
   32CHL1  H26B 2363   2.426   0.980   4.377  2.1334  0.1985  1.4983
   32CHL1  H26C 2364   2.470   0.881   4.223  0.8498 -0.1248 -0.7544
   32CHL1   C27 2365   2.627   1.176   4.345 -0.1754 -0.5380 -0.8884
   32CHL1  H27A 2366   2.708   1.118   4.395 -0.5493 -0.3786 -0.0818
   32CHL1  H27B 2367   2.667   1.268   4.298 -0.7448  0.6724  0.8885
   32CHL1  H27C 2368   2.561   1.194   4.433 -0.3039 -2.7448 -0.4650
   33CHL1    C3 2369   6.829   2.891   2.894 -0.2891  0.5450 -0.0634
   33CHL1    H3 2370   6.764   2.980   2.910 -1.6081  0.0868 -2.4442
   33CHL1    O3 2371   6.844   2.858   2.760 -0.2092  0.2082  0.2007
   33CHL1   H3' 2372   6.877   2.768   2.767  0.5649  0.5004  0.4908
   33CHL1    C4 2373   6.977   2.936   2.942 -0.1182  0.1098 -0.1739
   33CHL1   H4A 2374   7.049   2.860   2.906  0.8813  1.9306 -2.2792
   33CHL1   H4B 2375   6.999   3.028   2.883  1.0868 -0.0460  0.0199
   33CHL1    C5 2376   6.977   2.969   3.086 -0.1650 -0.0997 -0.8225
   33CHL1    C6 2377   7.016   3.095   3.126  0.0740 -0.2515  0.8301
   33CHL1    H6 2378   7.051   3.165   3.048 -0.3112  1.3719  2.0487
   33CHL1    C7 2379   7.015   3.134   3.272 -0.0226 -0.1962  0.0035
   33CHL1   H7A 2380   7.119   3.157   3.305  0.4417 -1.2782 -0.6435
   33CHL1   H7B 2381   6.948   3.222   3.285 -2.8240 -2.4138  1.4914
   33CHL1    C8 2382   6.991   3.011   3.366  0.2943 -0.0523 -0.4964
   33CHL1    H8 2383   7.081   2.947   3.363 -0.8448 -1.7844  0.3510
   33CHL1   C14 2384   6.953   3.058   3.507  0.2547  0.4503  0.3838
   33CHL1   H14 2385   6.853   3.106   3.504  0.4396  1.0813  2.3432
   33CHL1   C15 2386   7.045   3.159   3.569  0.3269 -0.5828  0.0234
   33CHL1  H15A 2387   7.150   3.122   3.566  0.3616 -1.3132  4.1718
   33CHL1  H15B 2388   7.033   3.261   3.527  1.5767  0.3486  1.7812
   33CHL1   C16 2389   7.016   3.160   3.715 -0.2902 -0.0224 -0.0824
   33CHL1  H16A 2390   7.107   3.147   3.776 -1.0144 -0.0467  1.0186
   33CHL1  H16B 2391   6.978   3.258   3.750 -3.6854 -0.7263 -1.3593
   33CHL1   C17 2392   6.928   3.040   3.735 -0.0536  0.3378 -0.1180
   33CHL1   H17 2393   6.822   3.073   3.729 -0.7348 -1.7858 -1.0163
   33CHL1   C13 2394   6.948   2.945   3.614  0.1040  0.3620  0.0592
   33CHL1   C18 2395   7.081   2.867   3.628 -0.5552 -0.3757 -0.0448
   33CHL1  H18A 2396   7.109   2.829   3.527  1.2765  0.3228  0.1612
   33CHL1  H18B 2397   7.163   2.934   3.661  0.5296 -1.2836 -0.8208
   33CHL1  H18C 2398   7.095   2.783   3.699  4.4136 -1.6858 -2.1194
   33CHL1   C12 2399   6.830   2.852   3.573 -0.7493  0.5391  0.1537
   33CHL1  H12A 2400   6.807   2.767   3.642 -0.1151 -0.5597 -0.9507
   33CHL1  H12B 2401   6.736   2.911   3.576 -0.0058  1.8948 -1.6299
   33CHL1   C11 2402   6.849   2.798   3.422  0.1840 -0.4034 -0.3134
   33CHL1  H11A 2403   6.940   2.734   3.424  1.3811  1.2443  0.1439
   33CHL1  H11B 2404   6.756   2.746   3.388 -0.1762  0.6912 -1.0443
   33CHL1    C9 2405   6.878   2.915   3.320 -0.2631 -0.0206  0.4872
   33CHL1    H9 2406   6.782   2.970   3.312  0.4874  1.3656  0.6039
   33CHL1   C10 2407   6.902   2.864   3.174 -0.5119  0.6080  0.9349
   33CHL1   C19 2408   6.999   2.734   3.175  0.6377 -0.5113  0.2504
   33CHL1  H19A 2409   6.945   2.654   3.229 -2.7667  0.5783 -1.2715
   33CHL1  H19B 2410   7.027   2.697   3.074  2.8930 -0.4767  0.8045
   33CHL1  H19C 2411   7.097   2.749   3.226  1.3200 -1.9409 -0.5816
   33CHL1    C1 2412   6.762   2.817   3.121  0.4908  0.4270  0.0176
   33CHL1   H1A 2413   6.714   2.727   3.166 -1.5256 -0.3825 -3.3822
   33CHL1   H1B 2414   6.692   2.903   3.118 -0.8139 -0.5910  0.1482
   33CHL1    C2 2415   6.764   2.779   2.974  0.1194 -0.3140  0.1369
   33CHL1   H2A 2416   6.657   2.772   2.944  0.0722 -0.8862  0.4400
   33CHL1   H2B 2417   6.820   2.684   2.960  0.4712 -0.0906  0.0265
   33CHL1   C20 2418   6.939   2.983   3.881 -0.1110  0.0030 -0.0721
   33CHL1   H20 2419   7.047   2.960   3.894  0.9345  3.3138 -1.4946
   33CHL1   C21 2420   6.853   2.864   3.908  0.8472  0.8519  0.2802
   33CHL1  H21A 2421   6.752   2.885   3.867  0.6819 -0.1790  0.1286
   33CHL1  H21B 2422   6.849   2.840   4.016 -0.1905  3.3223  0.8449
   33CHL1  H21C 2423   6.885   2.775   3.848 -1.2454  0.1951  0.0806
   33CHL1   C22 2424   6.898   3.090   3.992  0.3095 -0.0670  0.0239
   33CHL1  H22A 2425   6.909   3.196   3.961 -0.5773  0.4591  1.4121
   33CHL1  H22B 2426   6.789   3.072   4.008  0.1578  1.9150  1.6602
   33CHL1   C23 2427   6.981   3.062   4.114  0.2880 -0.4459  0.1246
   33CHL1  H23A 2428   6.992   2.952   4.129  0.7135 -0.4628 -0.2711
   33CHL1  H23B 2429   7.084   3.097   4.090  0.4463 -1.5664 -0.9353
   33CHL1   C24 2430   6.923   3.124   4.249  0.3149 -0.0057 -0.4153
   33CHL1  H24A 2431   6.932   3.235   4.248 -2.2639  0.3873  2.8026
   33CHL1  H24B 2432   6.818   3.096   4.268  0.1155  1.4394  0.8272
   33CHL1   C25 2433   6.997   3.098   4.384  0.1630 -0.1317  0.6577
   33CHL1   H25 2434   6.941   3.160   4.457  1.2032  2.1635 -0.3895
   33CHL1   C26 2435   6.972   2.956   4.433 -0.6107 -0.0056 -0.3330
   33CHL1  H26A 2436   7.018   2.875   4.371 -0.2844  0.6466 -0.9572
   33CHL1  H26B 2437   7.012   2.952   4.536 -2.0141 -0.9586  0.2093
   33CHL1  H26C 2438   6.864   2.936   4.449 -0.7874  0.7864 -0.4976
   33CHL1   C27 2439   7.148   3.127   4.376  0.4649  0.0391  0.0241
   33CHL1  H27A 2440   7.209   3.087   4.461  2.3205  0.7297 -0.9286
   33CHL1  H27B 2441   7.207   3.098   4.287 -0.5959 -0.9067 -0.3993
   33CHL1  H27C 2442   7.166   3.236   4.382  1.5769 -0.2105  2.0651
   34CHL1    C3 2443   6.579   4.623   3.123 -0.1943 -0.2260  0.2956
   34CHL1    H3 2444   6.506   4.675   3.189  2.0193  1.0847  1.8321
   34CHL1    O3 2445   6.536   4.649   2.992  0.0219 -0.0928  0.1656
   34CHL1   H3' 2446   6.543   4.563   2.948  1.8865 -0.6181  1.3874
   34CHL1    C4 2447   6.726   4.666   3.156 -0.3522  0.5380  0.2208
   34CHL1   H4A 2448   6.787   4.610   3.082  2.0273  0.2987  2.2256
   34CHL1   H4B 2449   6.724   4.776   3.139 -2.5401  0.5270  0.1430
   34CHL1    C5 2450   6.755   4.627   3.304 -0.4162  0.9684  0.3519
   34CHL1    C6 2451   6.785   4.723   3.396 -0.2069 -0.1540  0.2238
   34CHL1    H6 2452   6.799   4.826   3.361 -0.3653 -0.7746 -1.8191
   34CHL1    C7 2453   6.831   4.703   3.535 -0.1688 -0.5611  0.2506
   34CHL1   H7A 2454   6.916   4.768   3.568  1.0486 -1.9335 -0.1129
   34CHL1   H7B 2455   6.751   4.734   3.607  1.5112  1.5942  1.3179
   34CHL1    C8 2456   6.861   4.550   3.560 -0.1466 -0.3257 -0.2950
   34CHL1    H8 2457   6.963   4.536   3.519 -0.0080  0.5660 -0.2543
   34CHL1   C14 2458   6.863   4.517   3.702 -0.1538 -0.5954 -0.5040
   34CHL1   H14 2459   6.760   4.537   3.736 -0.1500 -0.5774 -0.5027
   34CHL1   C15 2460   6.952   4.608   3.786 -0.1042  0.2052 -1.0544
   34CHL1  H15A 2461   7.046   4.630   3.731  1.2664  0.3977  1.2426
   34CHL1  H15B 2462   6.899   4.699   3.823 -0.5195  0.1642 -1.5429
   34CHL1   C16 2463   6.969   4.534   3.923  0.2759  0.2106 -0.2917
   34CHL1  H16A 2464   7.079   4.518   3.925  0.5944  2.1471 -0.3677
   34CHL1  H16B 2465   6.923   4.588   4.009 -1.1504  1.3709 -1.7292
   34CHL1   C17 2466   6.894   4.394   3.901  0.0926 -0.2908  0.6413
   34CHL1   H17 2467   6.787   4.414   3.923 -0.1233  0.1864 -0.7433
   34CHL1   C13 2468   6.898   4.377   3.743  0.0615 -0.5552 -0.6378
   34CHL1   C18 2469   7.048   4.341   3.688  0.9840 -0.5590  0.0097
   34CHL1  H18A 2470   7.130   4.402   3.730  0.7904 -0.3611  0.1040
   34CHL1  H18B 2471   7.060   4.237   3.724 -0.6066 -0.5591  0.6456
   34CHL1  H18C 2472   7.057   4.352   3.577 -2.2005 -2.4813 -0.6020
   34CHL1   C12 2473   6.792   4.284   3.678  0.1765 -0.4955 -0.5105
   34CHL1  H12A 2474   6.820   4.179   3.701  1.0295  0.0354  1.0337
   34CHL1  H12B 2475   6.691   4.314   3.712  0.9099  3.1186 -1.0958
   34CHL1   C11 2476   6.788   4.310   3.526  0.4712 -0.1947  0.3568
   34CHL1  H11A 2477   6.882   4.282   3.475  1.4541  1.4826  1.1464
   34CHL1  H11B 2478   6.703   4.259   3.477 -1.4031  1.9293  1.1827
   34CHL1    C9 2479   6.762   4.457   3.489  0.3604 -0.3086  0.2940
   34CHL1    H9 2480   6.663   4.492   3.528 -0.8328  0.2090 -2.9089
   34CHL1   C10 2481   6.747   4.477   3.338 -0.1581 -0.0824 -0.2055
   34CHL1   C19 2482   6.858   4.408   3.254 -0.0043 -0.2119  0.2662
   34CHL1  H19A 2483   6.849   4.297   3.261 -1.3004 -0.0248  3.6661
   34CHL1  H19B 2484   6.860   4.450   3.151  0.3816 -0.8731 -0.0051
   34CHL1  H19C 2485   6.958   4.437   3.294 -0.2080  1.8774 -0.6516
   34CHL1    C1 2486   6.613   4.432   3.287 -0.2727 -0.0208  0.5364
   34CHL1   H1A 2487   6.609   4.321   3.302 -1.8154 -0.1913 -0.8429
   34CHL1   H1B 2488   6.534   4.475   3.353 -0.1418 -0.2062  0.8190
   34CHL1    C2 2489   6.583   4.474   3.138 -0.4044  0.7057 -0.0064
   34CHL1   H2A 2490   6.484   4.428   3.119  0.6791 -1.1112 -1.6044
   34CHL1   H2B 2491   6.658   4.417   3.079  2.1245  0.4749  3.1183
   34CHL1   C20 2492   6.929   4.274   3.983 -1.2604  0.2491 -0.1012
   34CHL1   H20 2493   6.974   4.205   3.909 -1.2029  0.7926 -0.5803
   34CHL1   C21 2494   6.808   4.201   4.042 -0.0089  0.0594 -0.0002
   34CHL1  H21A 2495   6.764   4.276   4.111 -1.5154  2.2711 -3.0937
   34CHL1  H21B 2496   6.820   4.108   4.101  0.1062 -1.2881 -2.0242
   34CHL1  H21C 2497   6.732   4.170   3.966  0.5130 -3.9959  0.8871
   34CHL1   C22 2498   7.036   4.296   4.095 -0.7751 -0.2897 -0.2189
   34CHL1  H22A 2499   7.110   4.372   4.063 -0.0916  0.2354  2.3667
   34CHL1  H22B 2500   6.979   4.335   4.182 -2.0675 -0.8610 -0.7841
   34CHL1   C23 2501   7.126   4.168   4.127  0.1090  0.4210 -0.3327
   34CHL1  H23A 2502   7.071   4.071   4.124  1.5120 -0.3978 -1.2496
   34CHL1  H23B 2503   7.206   4.167   4.050  0.4224  1.7155 -0.0481
   34CHL1   C24 2504   7.201   4.180   4.262 -0.9840  0.0978  0.0144
   34CHL1  H24A 2505   7.244   4.281   4.279  0.5155 -0.7144  1.2838
   34CHL1  H24B 2506   7.136   4.163   4.351 -0.3432 -1.0412  0.2844
   34CHL1   C25 2507   7.329   4.086   4.271  0.7491  0.0683 -0.4094
   34CHL1   H25 2508   7.397   4.095   4.184  0.3988 -1.9400 -0.9558
   34CHL1   C26 2509   7.419   4.113   4.397  0.2160 -0.2568 -0.2582
   34CHL1  H26A 2510   7.363   4.098   4.491 -2.0755 -3.4291 -1.9426
   34CHL1  H26B 2511   7.503   4.040   4.390 -0.2857 -0.7867 -0.8773
   34CHL1  H26C 2512   7.462   4.214   4.376 -1.0199 -0.2752 -3.5244
   34CHL1   C27 2513   7.294   3.937   4.285  0.7268 -0.2228 -0.0092
   34CHL1  H27A 2514   7.392   3.885   4.283  0.6238 -0.4906 -3.3582
   34CHL1  H27B 2515   7.235   3.918   4.377  1.2048 -0.1606  0.3098
   34CHL1  H27C 2516   7.230   3.905   4.199  0.6466  1.5261 -0.6312
   35CHL1    C3 2517   1.857   5.594   2.579 -0.1962  0.3095  0.3224
   35CHL1    H3 2518   1.793   5.673   2.623 -0.2386 -0.5020  1.7731
   35CHL1    O3 2519   1.813   5.550   2.444 -0.0689  0.0504 -0.4748
   35CHL1   H3' 2520   1.846   5.620   2.389 -1.9040  0.6365 -0.8938
   35CHL1    C4 2521   2.010   5.620   2.572  0.1262  0.1481 -0.1910
   35CHL1   H4A 2522   2.059   5.534   2.522  2.0179 -0.6088  2.6832
   35CHL1   H4B 2523   2.020   5.708   2.505  1.1868  2.3440  2.6203
   35CHL1    C5 2524   2.074   5.636   2.706  0.0114  0.4643  0.0470
   35CHL1    C6 2525   2.153   5.745   2.737 -0.6542  0.5123  0.1417
   35CHL1    H6 2526   2.161   5.821   2.658  1.0055  1.3448  1.0728
   35CHL1    C7 2527   2.227   5.770   2.859 -0.5937 -0.0657 -0.8801
   35CHL1   H7A 2528   2.335   5.791   2.844 -0.2804 -1.2882 -0.4438
   35CHL1   H7B 2529   2.191   5.860   2.914  0.3628 -0.0888 -0.1971
   35CHL1    C8 2530   2.213   5.650   2.961 -0.1595  0.0265 -0.5119
   35CHL1    H8 2531   2.294   5.577   2.939  2.4523  1.9720  1.9944
   35CHL1   C14 2532   2.237   5.701   3.098  0.3536  0.6039 -0.4280
   35CHL1   H14 2533   2.142   5.755   3.123 -0.6066 -1.8593  1.6577
   35CHL1   C15 2534   2.349   5.796   3.124  0.7267 -0.0845 -0.7812
   35CHL1  H15A 2535   2.441   5.748   3.082  0.8793 -1.4832  1.0070
   35CHL1  H15B 2536   2.340   5.899   3.083  1.0175  0.9986  1.7098
   35CHL1   C16 2537   2.365   5.795   3.279  0.4886 -0.1614 -0.7073
   35CHL1  H16A 2538   2.471   5.784   3.309  0.5892  0.1707 -0.9253
   35CHL1  H16B 2539   2.331   5.898   3.302  1.0929  0.5752 -2.7980
   35CHL1   C17 2540   2.272   5.678   3.331  0.3544  1.0298  0.5360
   35CHL1   H17 2541   2.169   5.717   3.349  0.4272  1.6611 -0.3480
   35CHL1   C13 2542   2.246   5.592   3.200 -0.3608  0.2092  0.3250
   35CHL1   C18 2543   2.358   5.487   3.184 -0.7410 -0.1268  0.5627
   35CHL1  H18A 2544   2.459   5.533   3.182  0.0747 -1.8476  0.5658
   35CHL1  H18B 2545   2.347   5.401   3.254  1.6085 -1.2650 -0.3707
   35CHL1  H18C 2546   2.360   5.431   3.089 -1.8254  0.7313  0.0135
   35CHL1   C12 2547   2.112   5.518   3.197  0.5135  0.4311  0.1510
   35CHL1  H12A 2548   2.123   5.446   3.281  2.4037  2.6826  1.9849
   35CHL1  H12B 2549   2.038   5.588   3.242 -0.9797  0.2772 -1.9505
   35CHL1   C11 2550   2.074   5.467   3.059  0.2335  0.5977 -0.5159
   35CHL1  H11A 2551   2.150   5.391   3.033 -0.7126  0.3353 -2.8155
   35CHL1  H11B 2552   1.976   5.414   3.062  1.3405 -1.6959 -2.2669
   35CHL1    C9 2553   2.079   5.579   2.948  0.5169  0.4422  0.4305
   35CHL1    H9 2554   2.008   5.657   2.983 -2.2540 -2.5633  2.1186
   35CHL1   C10 2555   2.032   5.535   2.813 -0.0949  0.7033  0.3529
   35CHL1   C19 2556   2.100   5.393   2.780 -0.2424 -0.7413  0.8305
   35CHL1  H19A 2557   2.204   5.393   2.817 -1.3717 -1.0826  4.3764
   35CHL1  H19B 2558   2.041   5.314   2.832  0.4382 -0.5990  1.8462
   35CHL1  H19C 2559   2.092   5.376   2.670 -1.7360 -3.6202  1.2966
   35CHL1    C1 2560   1.882   5.508   2.813  0.7882 -0.1963  0.1381
   35CHL1   H1A 2561   1.848   5.427   2.880 -0.7326  2.1322  2.3813
   35CHL1   H1B 2562   1.834   5.598   2.857  1.3508  0.1370  0.0923
   35CHL1    C2 2563   1.821   5.480   2.676 -0.0416  0.0720 -0.1486
   35CHL1   H2A 2564   1.710   5.473   2.680 -0.2262  1.9772 -0.8155
   35CHL1   H2B 2565   1.861   5.381   2.645  0.4705 -0.5849  2.3420
   35CHL1   C20 2566   2.322   5.614   3.457 -0.1602 -0.1323 -0.1232
   35CHL1   H20 2567   2.413   5.557   3.428 -1.3198 -1.4266 -1.4362
   35CHL1   C21 2568   2.224   5.517   3.521  0.2034 -0.3008 -0.6933
   35CHL1  H21A 2569   2.121   5.557   3.533  0.0340 -0.5238 -1.3563
   35CHL1  H21B 2570   2.266   5.495   3.622 -2.5959  2.0454  1.1279
   35CHL1  H21C 2571   2.221   5.419   3.468  2.4014 -0.8160  0.0078
   35CHL1   C22 2572   2.367   5.712   3.564  0.1440  0.0555 -0.5864
   35CHL1  H22A 2573   2.390   5.664   3.662 -0.6216 -1.4323 -1.0934
   35CHL1  H22B 2574   2.459   5.768   3.538  0.2353  0.9709  1.5151
   35CHL1   C23 2575   2.255   5.810   3.613  0.1211 -0.2869 -0.0403
   35CHL1  H23A 2576   2.227   5.880   3.531  0.8952  0.2785  0.1679
   35CHL1  H23B 2577   2.165   5.754   3.647  0.8358 -0.9971  0.6904
   35CHL1   C24 2578   2.314   5.908   3.714  0.2894  0.2350 -0.3417
   35CHL1  H24A 2579   2.311   5.864   3.816  0.1635  1.0694  0.0258
   35CHL1  H24B 2580   2.418   5.939   3.689  0.6691  1.0728  2.0175
   35CHL1   C25 2581   2.242   6.039   3.733 -0.1035 -0.2756  0.0737
   35CHL1   H25 2582   2.238   6.094   3.636 -0.3436  1.2465  0.9116
   35CHL1   C26 2583   2.098   6.023   3.784  0.3325  0.3965  0.0850
   35CHL1  H26A 2584   2.035   5.960   3.718  0.5058 -1.3232  1.4926
   35CHL1  H26B 2585   2.097   5.964   3.878  1.3314  0.7818  0.3551
   35CHL1  H26C 2586   2.063   6.126   3.807 -2.4711 -0.0280 -1.8219
   35CHL1   C27 2587   2.328   6.124   3.827  0.2637 -0.7027 -0.2653
   35CHL1  H27A 2588   2.435   6.112   3.801  1.2306  0.8148  2.6189
   35CHL1  H27B 2589   2.302   6.232   3.826 -5.0123 -1.6648  1.5562
   35CHL1  H27C 2590   2.322   6.087   3.931 -0.9392  0.6508  0.1741
   36CHL1    C3 2591   4.232   5.286   2.308  0.0242 -0.6409 -0.1743
   36CHL1    H3 2592   4.135   5.233   2.300  0.6483 -1.9917  0.7233
   36CHL1    O3 2593   4.292   5.290   2.183  0.1571 -0.1849  0.7037
   36CHL1   H3' 2594   4.340   5.373   2.183 -1.6891  0.9457  1.4758
   36CHL1    C4 2595   4.221   5.436   2.356 -0.2507 -0.1832 -0.3643
   36CHL1   H4A 2596   4.307   5.496   2.321 -0.3729  0.1547 -0.0956
   36CHL1   H4B 2597   4.142   5.484   2.294 -0.3790  0.7584  0.5046
   36CHL1    C5 2598   4.207   5.458   2.502 -0.1999 -0.9136 -0.5737
   36CHL1    C6 2599   4.123   5.547   2.546  0.2352  0.1452 -0.3096
   36CHL1    H6 2600   4.057   5.607   2.482 -1.4050 -0.1381  1.0256
   36CHL1    C7 2601   4.097   5.582   2.690 -0.3965  0.1572  0.6157
   36CHL1   H7A 2602   4.078   5.692   2.696 -0.5388  0.1629  0.1006
   36CHL1   H7B 2603   4.004   5.525   2.711 -0.2500 -0.9226 -1.4994
   36CHL1    C8 2604   4.205   5.529   2.790 -0.6772  0.4071 -0.8763
   36CHL1    H8 2605   4.287   5.604   2.787 -0.0236 -0.2577 -0.1662
   36CHL1   C14 2606   4.166   5.528   2.944 -0.8282  0.6130 -0.2590
   36CHL1   H14 2607   4.084   5.455   2.954  1.2497 -1.8133  0.0092
   36CHL1   C15 2608   4.109   5.657   3.008  0.0698 -0.0458 -0.5069
   36CHL1  H15A 2609   4.171   5.743   2.977 -1.9983  2.9015  2.7172
   36CHL1  H15B 2610   4.006   5.680   2.974 -0.3576 -0.1788  0.6435
   36CHL1   C16 2611   4.118   5.629   3.158 -0.0342 -0.7132 -0.4167
   36CHL1  H16A 2612   4.164   5.713   3.214 -3.0530 -0.4298  1.8423
   36CHL1  H16B 2613   4.015   5.619   3.198 -0.5732 -0.3699 -1.6872
   36CHL1   C17 2614   4.203   5.501   3.181  0.3772 -0.3488 -0.2192
   36CHL1   H17 2615   4.136   5.413   3.190 -0.8367  0.6687  0.9268
   36CHL1   C13 2616   4.273   5.480   3.042 -0.6420  1.0049  0.2779
   36CHL1   C18 2617   4.393   5.567   3.043  0.2028 -0.3756 -0.5243
   36CHL1  H18A 2618   4.377   5.668   3.086 -0.8005 -0.2771 -1.0927
   36CHL1  H18B 2619   4.474   5.514   3.096 -0.9286  0.2914  2.0207
   36CHL1  H18C 2620   4.439   5.589   2.944  1.0317  0.8019  0.0929
   36CHL1   C12 2621   4.315   5.332   3.002  0.2970  0.1280  0.5088
   36CHL1  H12A 2622   4.407   5.296   3.054  0.5419 -1.6764 -1.0422
   36CHL1  H12B 2623   4.229   5.269   3.032 -0.8879  0.5624 -1.7198
   36CHL1   C11 2624   4.357   5.321   2.854 -0.2871 -0.9086 -0.2871
   36CHL1  H11A 2625   4.460   5.362   2.842 -0.2836 -1.6160 -3.4079
   36CHL1  H11B 2626   4.376   5.215   2.831  2.1440 -0.1298 -2.3216
   36CHL1    C9 2627   4.258   5.389   2.750  0.3990 -0.3797 -0.4903
   36CHL1    H9 2628   4.171   5.319   2.750  0.0241 -0.1228 -4.0398
   36CHL1   C10 2629   4.301   5.388   2.598  0.0115  0.1056 -0.3515
   36CHL1   C19 2630   4.444   5.432   2.595 -1.1008  0.3954  0.0783
   36CHL1  H19A 2631   4.489   5.429   2.493 -1.0210 -0.0375  0.1217
   36CHL1  H19B 2632   4.456   5.537   2.628 -1.0564  0.6626 -0.7662
   36CHL1  H19C 2633   4.523   5.373   2.646 -0.0561  0.6750 -1.1339
   36CHL1    C1 2634   4.301   5.240   2.552  0.4443 -0.0361 -0.3822
   36CHL1   H1A 2635   4.367   5.167   2.605  1.3894 -0.0638 -1.5474
   36CHL1   H1B 2636   4.201   5.193   2.563  1.3000 -1.7262  0.6844
   36CHL1    C2 2637   4.325   5.213   2.404  0.2479 -0.0641 -0.0820
   36CHL1   H2A 2638   4.329   5.107   2.369  1.5918  0.2382 -0.8955
   36CHL1   H2B 2639   4.432   5.241   2.395  0.9120 -1.4759  2.5881
   36CHL1   C20 2640   4.281   5.498   3.305 -0.1707 -0.2091  0.3189
   36CHL1   H20 2641   4.352   5.583   3.298 -1.1012  0.6385  0.7478
   36CHL1   C21 2642   4.351   5.369   3.334  0.0768 -0.1317 -0.4676
   36CHL1  H21A 2643   4.416   5.384   3.422 -0.7748  3.4482 -0.3202
   36CHL1  H21B 2644   4.427   5.342   3.257  3.1101  0.6521  2.0484
   36CHL1  H21C 2645   4.278   5.287   3.352  2.0115 -1.7417  0.4549
   36CHL1   C22 2646   4.195   5.541   3.436  0.4020 -0.9497 -0.2058
   36CHL1  H22A 2647   4.255   5.556   3.528 -0.5775  1.2444  0.1462
   36CHL1  H22B 2648   4.149   5.642   3.431  0.3519 -0.9636 -0.0197
   36CHL1   C23 2649   4.073   5.450   3.469 -0.4289 -0.7930 -0.1119
   36CHL1  H23A 2650   3.999   5.448   3.386  0.7584 -1.0209 -1.1993
   36CHL1  H23B 2651   4.099   5.344   3.492  0.3307 -0.8095 -0.9834
   36CHL1   C24 2652   3.983   5.512   3.585 -0.0868  0.5070 -0.0922
   36CHL1  H24A 2653   3.940   5.602   3.534 -0.1971 -0.6168 -2.0923
   36CHL1  H24B 2654   3.902   5.436   3.590 -0.5287  0.7861 -2.1052
   36CHL1   C25 2655   4.040   5.535   3.725  0.5405  0.0474 -0.2261
   36CHL1   H25 2656   4.127   5.603   3.713  0.1262  0.9363  1.5067
   36CHL1   C26 2657   3.933   5.598   3.810 -0.2386 -0.4356 -0.1832
   36CHL1  H26A 2658   3.836   5.544   3.807 -0.5718  0.1486 -0.0613
   36CHL1  H26B 2659   3.970   5.636   3.908  0.4481  0.2030 -0.6788
   36CHL1  H26C 2660   3.909   5.699   3.770 -0.6248  0.4240  2.0544
   36CHL1   C27 2661   4.089   5.409   3.795 -0.1190 -1.0016  0.1882
   36CHL1  H27A 2662   4.152   5.445   3.879  0.6284 -0.5954 -0.5264
   36CHL1  H27B 2663   4.005   5.345   3.829 -0.0842 -2.7321 -2.6432
   36CHL1  H27C 2664   4.153   5.339   3.736  0.7907 -1.5205  1.7196
   37CHL1    C3 2665   5.688   4.825   2.730 -0.3817 -0.1041  0.1655
   37CHL1    H3 2666   5.635   4.737   2.773 -1.7540  0.8359  0.4625
   37CHL1    O3 2667   5.641   4.855   2.589 -0.6768 -0.5456 -0.7136
   37CHL1   H3' 2668   5.714   4.903   2.550  0.0098  1.0180  2.1764
   37CHL1    C4 2669   5.675   4.950   2.820  0.2147 -0.8021  0.3882
   37CHL1   H4A 2670   5.733   5.026   2.763  0.7149 -0.4062  1.4043
   37CHL1   H4B 2671   5.569   4.983   2.815  0.5948  0.5165  0.5247
   37CHL1    C5 2672   5.738   4.934   2.961 -0.0920  0.2791  0.2042
   37CHL1    C6 2673   5.676   4.949   3.083 -0.4162  0.3180 -0.7119
   37CHL1    H6 2674   5.573   4.984   3.094 -0.1501  0.9236 -0.0967
   37CHL1    C7 2675   5.750   4.929   3.205 -0.3864  0.1332 -0.7115
   37CHL1   H7A 2676   5.709   4.999   3.281 -0.3220  0.7150 -1.2096
   37CHL1   H7B 2677   5.709   4.833   3.243  0.3746  0.3256  0.6619
   37CHL1    C8 2678   5.900   4.927   3.210  0.0398 -0.1367  0.0249
   37CHL1    H8 2679   5.938   5.031   3.199 -1.5642  0.5999  1.0816
   37CHL1   C14 2680   5.955   4.866   3.340 -0.7420  0.3720  0.6702
   37CHL1   H14 2681   5.924   4.760   3.355  0.5028 -0.0217  0.5534
   37CHL1   C15 2682   5.920   4.944   3.472  0.2892 -0.8945 -0.5558
   37CHL1  H15A 2683   5.923   5.055   3.472 -0.1224 -0.8823 -0.3241
   37CHL1  H15B 2684   5.814   4.919   3.492  0.2371  0.3575  0.8487
   37CHL1   C16 2685   6.024   4.892   3.575  0.3734  0.2552 -0.6050
   37CHL1  H16A 2686   6.071   4.980   3.624  1.6309 -0.3021 -0.7669
   37CHL1  H16B 2687   5.972   4.839   3.657  0.7050 -0.2660 -0.7235
   37CHL1   C17 2688   6.136   4.818   3.487  1.0982 -0.4149 -0.1679
   37CHL1   H17 2689   6.103   4.712   3.487 -0.4069  0.0046 -1.7957
   37CHL1   C13 2690   6.108   4.870   3.345 -0.6778  0.4788 -0.6386
   37CHL1   C18 2691   6.174   5.010   3.327  0.1451  1.0746 -0.0561
   37CHL1  H18A 2692   6.160   5.045   3.223  0.4243 -1.5111 -1.0326
   37CHL1  H18B 2693   6.135   5.089   3.396 -0.0674  0.1359  0.9341
   37CHL1  H18C 2694   6.282   4.996   3.348 -0.2082  0.2592  1.3453
   37CHL1   C12 2695   6.150   4.767   3.231  0.2210  0.1229 -0.8025
   37CHL1  H12A 2696   6.259   4.745   3.236 -0.1330 -1.6250  0.3255
   37CHL1  H12B 2697   6.111   4.666   3.256  1.7320 -0.5743 -1.1409
   37CHL1   C11 2698   6.105   4.826   3.094  0.9049  0.0677 -0.2679
   37CHL1  H11A 2699   6.163   4.919   3.079  0.7648  0.3645  0.8798
   37CHL1  H11B 2700   6.128   4.760   3.008 -1.9066  1.4727 -2.2507
   37CHL1    C9 2701   5.950   4.841   3.087  0.2584 -0.0066 -0.1107
   37CHL1    H9 2702   5.910   4.738   3.099  0.1743 -0.1321 -1.3511
   37CHL1   C10 2703   5.887   4.886   2.953 -0.5740 -0.6065 -0.7132
   37CHL1   C19 2704   5.978   4.997   2.901  0.0621 -0.4101  0.7629
   37CHL1  H19A 2705   5.939   5.039   2.806 -1.8983  0.0523  1.7211
   37CHL1  H19B 2706   5.989   5.085   2.967  0.5655  1.0442 -1.1519
   37CHL1  H19C 2707   6.081   4.961   2.880  1.5617  2.2890  2.8893
   37CHL1    C1 2708   5.900   4.760   2.849 -0.2225  0.0514  0.1053
   37CHL1   H1A 2709   6.006   4.731   2.839 -0.3186 -0.6019  0.9251
   37CHL1   H1B 2710   5.851   4.675   2.901  2.1864  0.2970  2.9964
   37CHL1    C2 2711   5.834   4.783   2.714 -0.0071 -0.4624  0.4913
   37CHL1   H2A 2712   5.841   4.687   2.659  0.3750 -0.5496  0.6890
   37CHL1   H2B 2713   5.889   4.860   2.654 -1.0388 -0.5345 -0.5889
   37CHL1   C20 2714   6.276   4.820   3.557 -1.0669  0.5512 -0.0700
   37CHL1   H20 2715   6.300   4.925   3.582 -1.0559  0.7325 -0.8142
   37CHL1   C21 2716   6.395   4.771   3.469 -0.5375  0.1493  0.1234
   37CHL1  H21A 2717   6.491   4.774   3.525 -0.5707  2.4900  0.1239
   37CHL1  H21B 2718   6.415   4.837   3.382  0.6331  0.1874  0.4007
   37CHL1  H21C 2719   6.389   4.670   3.423  1.0878  0.5382 -1.0555
   37CHL1   C22 2720   6.272   4.752   3.696 -0.2714 -0.3297 -0.1511
   37CHL1  H22A 2721   6.171   4.776   3.736  0.1971  2.0691 -0.2498
   37CHL1  H22B 2722   6.298   4.644   3.697 -1.9532 -0.7800  1.4211
   37CHL1   C23 2723   6.378   4.810   3.789  0.1267  0.0236  0.6582
   37CHL1  H23A 2724   6.478   4.790   3.746  0.2722 -0.2060  1.0978
   37CHL1  H23B 2725   6.369   4.921   3.800 -0.4997  0.1427 -0.8069
   37CHL1   C24 2726   6.373   4.755   3.939  0.1734  0.6872 -0.2902
   37CHL1  H24A 2727   6.281   4.784   3.995 -1.2222 -2.7733 -0.5410
   37CHL1  H24B 2728   6.355   4.646   3.925 -0.8118  0.5076  1.9005
   37CHL1   C25 2729   6.509   4.772   4.010  0.3744  0.2347 -0.2267
   37CHL1   H25 2730   6.542   4.878   4.020  1.0746 -0.0386  0.4887
   37CHL1   C26 2731   6.497   4.715   4.163 -0.1041 -0.0234  0.7300
   37CHL1  H26A 2732   6.586   4.732   4.227  2.1381  0.3192 -2.2560
   37CHL1  H26B 2733   6.410   4.767   4.208  0.5868  1.3218  0.5594
   37CHL1  H26C 2734   6.493   4.605   4.154 -0.3628  0.1135 -1.3000
   37CHL1   C27 2735   6.622   4.694   3.951  0.0283 -0.6615 -0.2075
   37CHL1  H27A 2736   6.625   4.742   3.851  0.0459 -0.1348  0.0440
   37CHL1  H27B 2737   6.711   4.718   4.014 -0.6639  0.9984  0.2033
   37CHL1  H27C 2738   6.602   4.585   3.957 -0.4321 -0.6055 -0.6759
   38CHL1    C3 2739   0.600   1.709   2.802 -0.3959  0.3702 -0.6873
   38CHL1    H3 2740   0.688   1.645   2.828 -1.8758 -0.9388  1.3470
   38CHL1    O3 2741   0.613   1.745   2.665 -0.6945  0.5787 -0.3275
   38CHL1   H3' 2742   0.557   1.822   2.652 -0.8233  0.2634 -1.7720
   38CHL1    C4 2743   0.471   1.624   2.825 -0.4668  0.4609  0.9537
   38CHL1   H4A 2744   0.385   1.688   2.795  0.2114  1.0624  0.2834
   38CHL1   H4B 2745   0.475   1.534   2.760  1.3769 -0.4248  2.1984
   38CHL1    C5 2746   0.463   1.582   2.972 -0.1363 -0.8235  0.5849
   38CHL1    C6 2747   0.457   1.450   2.998 -0.6775 -0.3622 -0.2954
   38CHL1    H6 2748   0.445   1.393   2.905  1.1083 -0.5740 -0.4269
   38CHL1    C7 2749   0.459   1.390   3.130  0.1883 -0.4742 -0.6274
   38CHL1   H7A 2750   0.384   1.308   3.130 -0.9702  0.5620 -0.3945
   38CHL1   H7B 2751   0.549   1.328   3.150  1.9640  2.1488  0.0299
   38CHL1    C8 2752   0.435   1.496   3.239 -0.0307 -0.4151 -0.5249
   38CHL1    H8 2753   0.327   1.524   3.240 -0.4276 -1.7217 -2.1578
   38CHL1   C14 2754   0.478   1.440   3.375 -0.1319  0.7845  0.5616
   38CHL1   H14 2755   0.589   1.428   3.368 -0.3006 -0.0320 -1.1677
   38CHL1   C15 2756   0.421   1.300   3.408  0.0586 -0.8150 -0.3033
   38CHL1  H15A 2757   0.312   1.304   3.387 -0.4499  0.5429  2.1850
   38CHL1  H15B 2758   0.462   1.225   3.337 -1.2350 -1.9999  0.1508
   38CHL1   C16 2759   0.456   1.285   3.557  0.2677  0.3868 -0.2779
   38CHL1  H16A 2760   0.364   1.254   3.611  1.1610  0.1987  1.1903
   38CHL1  H16B 2761   0.536   1.210   3.579  0.3673  1.0633  1.8762
   38CHL1   C17 2762   0.513   1.427   3.610 -1.1944  0.3514 -0.2799
   38CHL1   H17 2763   0.623   1.430   3.601 -1.1968 -1.1956 -1.0160
   38CHL1   C13 2764   0.456   1.521   3.500  0.6462 -0.4801 -0.0013
   38CHL1   C18 2765   0.300   1.538   3.519  0.2352 -0.9060  0.1639
   38CHL1  H18A 2766   0.265   1.576   3.617 -2.5945  2.1618 -1.8121
   38CHL1  H18B 2767   0.257   1.605   3.441  0.7569 -1.2335 -0.4204
   38CHL1  H18C 2768   0.246   1.442   3.504  0.5801 -0.7724 -2.3527
   38CHL1   C12 2769   0.535   1.653   3.471 -0.1501  0.0941  0.1504
   38CHL1  H12A 2770   0.511   1.731   3.546  0.7609 -0.3155  0.8872
   38CHL1  H12B 2771   0.643   1.627   3.475 -0.2168 -0.1040  0.9497
   38CHL1   C11 2772   0.515   1.722   3.329  0.1668  0.1344 -0.1646
   38CHL1  H11A 2773   0.414   1.769   3.337  0.1380  0.6096 -2.5512
   38CHL1  H11B 2774   0.602   1.790   3.313  0.6505 -0.6729 -1.0840
   38CHL1    C9 2775   0.514   1.625   3.211 -0.2191 -0.2582  0.1263
   38CHL1    H9 2776   0.617   1.586   3.201 -0.5187 -1.2253  0.7216
   38CHL1   C10 2777   0.484   1.693   3.077  0.4476  0.3002  0.3293
   38CHL1   C19 2778   0.349   1.760   3.086  0.1428 -0.9051  0.4110
   38CHL1  H19A 2779   0.319   1.801   2.987  0.1045  0.1990  0.8594
   38CHL1  H19B 2780   0.267   1.688   3.109  2.0205 -2.9783  0.9563
   38CHL1  H19C 2781   0.341   1.840   3.163  1.1401 -0.6558  0.2623
   38CHL1    C1 2782   0.593   1.792   3.039  0.0814  0.1742  0.7639
   38CHL1   H1A 2783   0.584   1.884   3.102  1.3368  0.8147  0.0545
   38CHL1   H1B 2784   0.690   1.743   3.061  0.9275  0.4012 -2.0744
   38CHL1    C2 2785   0.600   1.831   2.889 -0.2254  0.4640 -0.4392
   38CHL1   H2A 2786   0.697   1.884   2.877  1.0632 -1.7106  0.0411
   38CHL1   H2B 2787   0.526   1.906   2.853 -0.9055 -0.1577 -0.3618
   38CHL1   C20 2788   0.482   1.449   3.754  0.1994  0.0643 -0.2385
   38CHL1   H20 2789   0.375   1.432   3.777  0.0788 -1.0687 -1.5354
   38CHL1   C21 2790   0.514   1.601   3.793  0.1243 -0.0633 -0.1842
   38CHL1  H21A 2791   0.457   1.674   3.731 -0.0919  2.2851  2.5269
   38CHL1  H21B 2792   0.624   1.616   3.790  0.3708 -1.9409 -2.2636
   38CHL1  H21C 2793   0.477   1.607   3.898 -0.2839 -0.5640 -0.2971
   38CHL1   C22 2794   0.564   1.357   3.846 -0.4281  0.5191 -1.5110
   38CHL1  H22A 2795   0.595   1.261   3.800 -0.6732  1.3487 -3.5129
   38CHL1  H22B 2796   0.663   1.404   3.862 -0.1597  0.0802 -1.8657
   38CHL1   C23 2797   0.512   1.343   3.988  0.5001 -0.3559  0.4717
   38CHL1  H23A 2798   0.455   1.433   4.018 -0.0168 -0.6466  0.3805
   38CHL1  H23B 2799   0.435   1.262   3.993  0.6185 -0.6266 -1.3524
   38CHL1   C24 2800   0.612   1.310   4.092 -0.2577 -0.0152  0.1869
   38CHL1  H24A 2801   0.653   1.209   4.073 -0.6989 -0.4711  1.4943
   38CHL1  H24B 2802   0.684   1.395   4.086 -0.8798  0.4853 -0.4381
   38CHL1   C25 2803   0.562   1.315   4.241  0.1786  0.2465 -0.1248
   38CHL1   H25 2804   0.495   1.399   4.266 -0.3282  0.0560 -0.7931
   38CHL1   C26 2805   0.472   1.189   4.259 -1.1133  0.0342  0.2457
   38CHL1  H26A 2806   0.529   1.099   4.227  0.7265  0.7629  1.2804
   38CHL1  H26B 2807   0.444   1.170   4.365  2.1518 -0.5501  1.1212
   38CHL1  H26C 2808   0.380   1.201   4.199 -0.3684  2.0865 -0.5420
   38CHL1   C27 2809   0.677   1.296   4.335  0.1475 -0.4374 -0.4236
   38CHL1  H27A 2810   0.747   1.218   4.299 -0.6887 -0.3018 -2.4811
   38CHL1  H27B 2811   0.734   1.390   4.354 -1.8538  1.1645 -1.8607
   38CHL1  H27C 2812   0.643   1.256   4.433  0.1439 -0.0701 -0.2723
   39CHL1    C3 2813   0.369   2.261   3.015 -0.0703  0.3994  0.6102
   39CHL1    H3 2814   0.380   2.152   2.996 -1.3546  0.2884  0.4061
   39CHL1    O3 2815   0.343   2.316   2.882 -0.3394 -0.6435 -0.2881
   39CHL1   H3' 2816   0.372   2.407   2.892 -2.0566 -0.1903  0.9483
   39CHL1    C4 2817   0.252   2.288   3.110  0.3460  0.2527 -1.1960
   39CHL1   H4A 2818   0.255   2.398   3.125 -2.6773  0.0831  1.9520
   39CHL1   H4B 2819   0.159   2.275   3.052 -0.6570 -1.6438  0.6938
   39CHL1    C5 2820   0.259   2.211   3.240 -0.0948  0.8043 -0.4809
   39CHL1    C6 2821   0.164   2.130   3.288 -0.6230  0.1997  0.1062
   39CHL1    H6 2822   0.070   2.125   3.230 -0.5654 -1.3014  0.0974
   39CHL1    C7 2823   0.178   2.060   3.425  0.0862 -1.0490  0.4258
   39CHL1   H7A 2824   0.085   2.074   3.484  0.2469 -0.7130  0.6048
   39CHL1   H7B 2825   0.190   1.952   3.407 -0.3021 -0.9967 -0.1512
   39CHL1    C8 2826   0.294   2.117   3.517 -0.6568  0.0220 -0.4790
   39CHL1    H8 2827   0.250   2.212   3.553 -0.9793  0.2249 -1.3655
   39CHL1   C14 2828   0.315   2.025   3.638 -0.6910 -0.0354 -0.2601
   39CHL1   H14 2829   0.333   1.925   3.592 -0.8374  0.2341 -0.9201
   39CHL1   C15 2830   0.197   1.993   3.733  0.3703 -0.0381  0.6527
   39CHL1  H15A 2831   0.148   2.085   3.773 -0.9842 -1.3111  2.0549
   39CHL1  H15B 2832   0.127   1.926   3.679  1.5781  0.6150 -1.9072
   39CHL1   C16 2833   0.273   1.927   3.847 -0.4218  0.9139  0.6450
   39CHL1  H16A 2834   0.231   1.968   3.941 -0.1349  2.8171 -0.0150
   39CHL1  H16B 2835   0.261   1.817   3.847  0.2723  0.8211  1.9214
   39CHL1   C17 2836   0.428   1.957   3.828 -0.2346 -0.3016 -0.0638
   39CHL1   H17 2837   0.465   1.874   3.764 -1.5791  1.9151 -4.1050
   39CHL1   C13 2838   0.437   2.071   3.726 -0.4644 -0.0065 -0.6999
   39CHL1   C18 2839   0.403   2.202   3.791  0.0751 -0.1682 -0.7419
   39CHL1  H18A 2840   0.361   2.261   3.707  3.9528  1.4869 -1.7205
   39CHL1  H18B 2841   0.327   2.188   3.870  1.3944  1.2484  0.8593
   39CHL1  H18C 2842   0.494   2.251   3.833 -0.4197 -0.2208  0.4175
   39CHL1   C12 2843   0.567   2.076   3.633  0.1749 -0.2812  0.3567
   39CHL1  H12A 2844   0.639   2.123   3.704 -0.5840 -1.0758  1.6936
   39CHL1  H12B 2845   0.597   1.972   3.611 -0.6645 -0.6772  1.0094
   39CHL1   C11 2846   0.548   2.173   3.520 -0.0786 -0.1294  0.9266
   39CHL1  H11A 2847   0.544   2.276   3.563 -1.0117 -0.9850  3.0306
   39CHL1  H11B 2848   0.640   2.163   3.459  0.2088 -0.3721  1.3949
   39CHL1    C9 2849   0.423   2.144   3.433  0.4243  0.3634 -0.2108
   39CHL1    H9 2850   0.446   2.049   3.381  0.3544  0.6313 -0.7408
   39CHL1   C10 2851   0.394   2.238   3.315  0.0620 -0.8913 -0.5255
   39CHL1   C19 2852   0.384   2.381   3.374  0.1553  0.4218 -0.6097
   39CHL1  H19A 2853   0.291   2.395   3.433  0.0878 -0.9272 -0.3849
   39CHL1  H19B 2854   0.473   2.399   3.438 -0.2553 -2.2576  0.8222
   39CHL1  H19C 2855   0.371   2.450   3.287 -2.2842  0.1557 -0.5257
   39CHL1    C1 2856   0.513   2.228   3.214 -1.0236 -0.0306  0.2321
   39CHL1   H1A 2857   0.603   2.274   3.260 -1.2452  2.5953 -1.6994
   39CHL1   H1B 2858   0.534   2.122   3.189 -1.7349 -0.1158 -0.0253
   39CHL1    C2 2859   0.490   2.315   3.081  0.5759 -0.1186  0.5920
   39CHL1   H2A 2860   0.566   2.289   3.004 -1.1221 -3.9024 -0.0182
   39CHL1   H2B 2861   0.488   2.422   3.112  1.2488  0.0215  0.1850
   39CHL1   C20 2862   0.508   1.971   3.955  0.0090 -0.3909  0.1251
   39CHL1   H20 2863   0.476   2.060   4.013  0.7498 -0.4874  0.6934
   39CHL1   C21 2864   0.666   1.970   3.922 -0.1891 -0.0443  0.1206
   39CHL1  H21A 2865   0.717   1.938   4.015 -0.2582  0.1664  0.2322
   39CHL1  H21B 2866   0.715   2.064   3.890  0.5479 -0.2599  0.6057
   39CHL1  H21C 2867   0.674   1.895   3.840 -0.4130 -0.9244  0.8849
   39CHL1   C22 2868   0.492   1.844   4.044  0.1540  0.1411  0.4749
   39CHL1  H22A 2869   0.387   1.809   4.036 -0.3055  1.2667  1.4018
   39CHL1  H22B 2870   0.563   1.763   4.015  1.0420  1.2912 -0.6816
   39CHL1   C23 2871   0.529   1.868   4.193  0.0231  0.0078 -0.6177
   39CHL1  H23A 2872   0.626   1.910   4.226 -0.7692 -0.3722  2.5329
   39CHL1  H23B 2873   0.455   1.946   4.219  2.5985  1.4687  3.2188
   39CHL1   C24 2874   0.503   1.737   4.274 -0.2524  0.0182  0.1757
   39CHL1  H24A 2875   0.400   1.703   4.251 -0.3201  0.1304  0.3158
   39CHL1  H24B 2876   0.576   1.660   4.238 -2.5614 -1.9898 -0.4933
   39CHL1   C25 2877   0.528   1.750   4.427  0.3304  0.1335  0.7484
   39CHL1   H25 2878   0.634   1.779   4.446  0.5129 -0.7162  1.0894
   39CHL1   C26 2879   0.421   1.849   4.479 -0.1428  0.0642  0.8927
   39CHL1  H26A 2880   0.445   1.949   4.436  1.1255 -0.3903  0.4791
   39CHL1  H26B 2881   0.322   1.802   4.462  1.1771 -1.8084 -2.7968
   39CHL1  H26C 2882   0.445   1.861   4.587  0.2323  3.0278  0.5756
   39CHL1   C27 2883   0.512   1.611   4.490 -0.1525  1.3135 -0.1887
   39CHL1  H27A 2884   0.583   1.531   4.459  1.0581  2.0507  0.6055
   39CHL1  H27B 2885   0.516   1.612   4.601  0.0364  0.2650 -0.1772
   39CHL1  H27C 2886   0.408   1.581   4.464 -0.0580 -0.0242  0.8436
   40CHL1    C3 2887   0.762   6.175   2.801 -0.0764 -0.1926 -0.0885
   40CHL1    H3 2888   0.693   6.256   2.831 -0.2372 -0.9348  1.6437
   40CHL1    O3 2889   0.765   6.172   2.656  0.5839  0.4402  0.0745
   40CHL1   H3' 2890   0.782   6.264   2.633  2.2038 -0.6628 -4.0095
   40CHL1    C4 2891   0.912   6.187   2.849 -0.6296 -0.7833  0.9397
   40CHL1   H4A 2892   0.976   6.109   2.802 -1.6521 -0.9615 -0.2176
   40CHL1   H4B 2893   0.965   6.278   2.813  0.7620 -2.6791 -2.2212
   40CHL1    C5 2894   0.909   6.191   3.001  0.3071  0.2805 -0.2284
   40CHL1    C6 2895   0.948   6.302   3.073  0.6197 -0.4655  0.3885
   40CHL1    H6 2896   0.993   6.389   3.023 -1.8303  0.4955 -0.2624
   40CHL1    C7 2897   0.952   6.295   3.222 -0.3850 -0.0366 -0.3833
   40CHL1   H7A 2898   1.049   6.337   3.259 -0.5690 -0.6604  0.8480
   40CHL1   H7B 2899   0.873   6.364   3.259 -1.5005 -1.5413  0.1340
   40CHL1    C8 2900   0.950   6.155   3.289  0.1885 -0.2390 -0.1809
   40CHL1    H8 2901   1.043   6.099   3.262 -2.3244 -3.1817 -3.8060
   40CHL1   C14 2902   0.923   6.171   3.436  0.3349  0.3318  0.1072
   40CHL1   H14 2903   0.825   6.217   3.461  1.4093  2.1824  1.1300
   40CHL1   C15 2904   1.018   6.254   3.522  0.3974 -0.8937 -0.3480
   40CHL1  H15A 2905   1.126   6.235   3.499  0.0560 -2.2883 -0.9595
   40CHL1  H15B 2906   1.003   6.360   3.495  0.2162 -0.5255  1.1632
   40CHL1   C16 2907   0.985   6.222   3.664  0.2041  0.6180  0.2388
   40CHL1  H16A 2908   1.070   6.183   3.724 -1.1892 -0.0620  1.8440
   40CHL1  H16B 2909   0.937   6.301   3.725  1.8632 -0.9260  3.8113
   40CHL1   C17 2910   0.889   6.094   3.658 -0.5949  0.0977  0.4050
   40CHL1   H17 2911   0.782   6.124   3.660 -0.7655 -0.5225  1.0275
   40CHL1   C13 2912   0.906   6.032   3.514  0.3584 -0.5714 -0.2304
   40CHL1   C18 2913   1.039   5.950   3.510 -0.1581  0.2078 -0.4084
   40CHL1  H18A 2914   1.072   5.932   3.406  0.3329 -0.0874 -0.2025
   40CHL1  H18B 2915   1.127   5.994   3.561  0.1651 -0.7519 -0.1183
   40CHL1  H18C 2916   1.019   5.851   3.557  2.9201  0.0753  0.8638
   40CHL1   C12 2917   0.792   5.956   3.442  0.1525 -0.3767 -0.1904
   40CHL1  H12A 2918   0.777   5.857   3.488  1.3726 -0.0953  0.8805
   40CHL1  H12B 2919   0.699   6.017   3.450  0.1533  0.0888 -2.6993
   40CHL1   C11 2920   0.815   5.942   3.291  0.2191 -0.4924 -0.1214
   40CHL1  H11A 2921   0.890   5.860   3.278  1.1704  0.4287 -0.6042
   40CHL1  H11B 2922   0.723   5.901   3.242 -0.4396  1.4311 -0.5707
   40CHL1    C9 2923   0.834   6.079   3.222 -0.9051 -0.1558  1.1490
   40CHL1    H9 2924   0.736   6.131   3.234 -1.7606 -1.7180  1.3094
   40CHL1   C10 2925   0.854   6.063   3.069  0.6917 -1.2154  0.6150
   40CHL1   C19 2926   0.950   5.952   3.042  0.6543 -0.3906  0.0845
   40CHL1  H19A 2927   0.973   5.943   2.934  1.6378  0.8922  0.1656
   40CHL1  H19B 2928   1.047   5.978   3.091 -0.4780  0.0177  2.2281
   40CHL1  H19C 2929   0.919   5.850   3.075  0.8444 -1.3576 -2.5458
   40CHL1    C1 2930   0.721   6.024   3.000 -0.3043  0.4581 -1.2237
   40CHL1   H1A 2931   0.688   5.924   3.037  2.4787  0.3387  1.3065
   40CHL1   H1B 2932   0.653   6.105   3.034  0.9403  1.4708 -1.0879
   40CHL1    C2 2933   0.705   6.040   2.846  0.4132 -0.1642  0.2053
   40CHL1   H2A 2934   0.597   6.034   2.821  0.6812 -1.0246 -0.8342
   40CHL1   H2B 2935   0.751   5.952   2.795  0.4435 -0.0550  0.0438
   40CHL1   C20 2936   0.912   6.012   3.785  0.2657  0.4110  0.4082
   40CHL1   H20 2937   1.020   5.985   3.792 -0.0562 -0.7474  1.1013
   40CHL1   C21 2938   0.820   5.889   3.800  0.5579 -0.4242 -0.2024
   40CHL1  H21A 2939   0.808   5.847   3.903  0.0771  2.5448  1.0388
   40CHL1  H21B 2940   0.854   5.801   3.742 -2.2621 -1.4881 -0.3966
   40CHL1  H21C 2941   0.718   5.925   3.775  0.8872  0.9946  0.4247
   40CHL1   C22 2942   0.888   6.090   3.922  0.0143  0.4936 -1.0881
   40CHL1  H22A 2943   0.952   6.181   3.916 -0.2521  0.6948 -0.8505
   40CHL1  H22B 2944   0.786   6.133   3.927 -0.7798 -1.4275  1.2539
   40CHL1   C23 2945   0.917   6.018   4.055 -0.3860 -0.3976 -0.2157
   40CHL1  H23A 2946   0.822   5.967   4.078 -0.4906 -0.1800 -0.1701
   40CHL1  H23B 2947   0.986   5.931   4.044  1.5546  1.0071  0.1717
   40CHL1   C24 2948   0.940   6.115   4.166 -0.3712 -0.2419 -0.2064
   40CHL1  H24A 2949   1.029   6.178   4.148 -0.5102 -0.1649 -0.6464
   40CHL1  H24B 2950   0.852   6.182   4.172 -0.2850  0.5145 -4.5698
   40CHL1   C25 2951   0.967   6.048   4.306 -0.4019 -0.1197 -0.7461
   40CHL1   H25 2952   0.880   5.992   4.348  0.8643 -0.4349  1.6893
   40CHL1   C26 2953   1.086   5.947   4.293  0.4268  1.3580  0.4943
   40CHL1  H26A 2954   1.122   5.907   4.390 -1.1379 -0.1355  0.4946
   40CHL1  H26B 2955   1.057   5.859   4.231  1.5280  0.2350  1.5181
   40CHL1  H26C 2956   1.167   5.994   4.233 -0.0849  2.1859  0.4388
   40CHL1   C27 2957   1.001   6.157   4.411 -0.0709 -0.1345 -0.0887
   40CHL1  H27A 2958   0.927   6.240   4.413 -2.3090 -2.0366  0.8668
   40CHL1  H27B 2959   1.006   6.124   4.517  0.6915  1.7944  0.5208
   40CHL1  H27C 2960   1.102   6.202   4.399 -0.9263  2.0870  0.5241
   41CHL1    C3 2961   6.083   3.458   2.844  0.0985  0.7525 -0.1586
   41CHL1    H3 2962   6.111   3.565   2.856 -1.1612  1.0836 -0.0769
   41CHL1    O3 2963   6.086   3.415   2.706 -0.4663  0.6968 -0.2235
   41CHL1   H3' 2964   6.062   3.323   2.712 -0.7429  0.8144  0.5769
   41CHL1    C4 2965   6.188   3.367   2.927  0.0820 -0.2422  0.5508
   41CHL1   H4A 2966   6.158   3.262   2.908 -0.5314  0.1814 -0.9705
   41CHL1   H4B 2967   6.286   3.382   2.877  0.4052 -0.5509  1.0851
   41CHL1    C5 2968   6.188   3.402   3.073 -0.6602  0.0855  0.2999
   41CHL1    C6 2969   6.296   3.452   3.138  0.1186  0.6304  0.8033
   41CHL1    H6 2970   6.387   3.476   3.081 -0.9414 -0.8183 -1.7001
   41CHL1    C7 2971   6.285   3.474   3.288  0.0144 -0.2106 -0.3557
   41CHL1   H7A 2972   6.385   3.446   3.328  0.1604  1.3999  0.5269
   41CHL1   H7B 2973   6.261   3.580   3.313 -2.3106 -1.0042  1.1602
   41CHL1    C8 2974   6.175   3.397   3.366 -0.3684 -0.9007  0.2349
   41CHL1    H8 2975   6.199   3.289   3.379  1.3279 -0.3174  2.6033
   41CHL1   C14 2976   6.153   3.453   3.504 -0.1657 -0.3669 -0.1786
   41CHL1   H14 2977   6.119   3.557   3.485 -0.3555  0.0967  2.3016
   41CHL1   C15 2978   6.285   3.449   3.583 -0.6955  0.1141 -0.3076
   41CHL1  H15A 2979   6.340   3.353   3.574 -1.6600 -0.6139  1.2631
   41CHL1  H15B 2980   6.345   3.536   3.549  0.2188 -0.3623  0.0586
   41CHL1   C16 2981   6.239   3.475   3.730 -0.0009 -0.5826  0.0603
   41CHL1  H16A 2982   6.272   3.394   3.797 -1.8377  0.1252  1.9493
   41CHL1  H16B 2983   6.280   3.575   3.756 -0.8846  0.0274 -0.8048
   41CHL1   C17 2984   6.078   3.480   3.715  0.5381 -0.0284 -0.9569
   41CHL1   H17 2985   6.047   3.584   3.689  0.2213  0.5139  1.3483
   41CHL1   C13 2986   6.047   3.402   3.587 -0.0361 -0.3279 -0.0880
   41CHL1   C18 2987   6.060   3.247   3.617  0.7050 -0.2839  0.1874
   41CHL1  H18A 2988   6.150   3.227   3.678  1.4475  0.2994 -0.6856
   41CHL1  H18B 2989   5.977   3.206   3.678  0.1872 -1.3095 -1.1525
   41CHL1  H18C 2990   6.069   3.188   3.523 -1.6497  0.7323 -0.7600
   41CHL1   C12 2991   5.911   3.427   3.512 -0.9468  0.6833 -0.1657
   41CHL1  H12A 2992   5.836   3.371   3.571  1.5067 -0.3974  2.1571
   41CHL1  H12B 2993   5.900   3.537   3.502 -0.5527  0.9275  1.7129
   41CHL1   C11 2994   5.927   3.373   3.365 -0.0772 -0.6309 -0.3523
   41CHL1  H11A 2995   5.940   3.263   3.371  0.4286 -0.5194  0.7179
   41CHL1  H11B 2996   5.831   3.411   3.324 -0.3348  0.8644  1.4880
   41CHL1    C9 2997   6.049   3.429   3.283  0.7256  0.0670 -0.5625
   41CHL1    H9 2998   6.028   3.538   3.288 -2.0529 -0.4400  1.0789
   41CHL1   C10 2999   6.041   3.384   3.133  0.3471  0.4492  0.1068
   41CHL1   C19 3000   6.014   3.233   3.139  0.7504  0.2140  0.0731
   41CHL1  H19A 3001   5.906   3.222   3.161 -0.1445  2.3479 -2.7007
   41CHL1  H19B 3002   6.034   3.190   3.038  0.9908  1.2236 -0.3206
   41CHL1  H19C 3003   6.078   3.176   3.209  1.7056  0.7593 -0.3375
   41CHL1    C1 3004   5.932   3.463   3.047 -0.5187  0.1567 -1.1705
   41CHL1   H1A 3005   5.829   3.442   3.083 -0.5572  0.4058 -1.1296
   41CHL1   H1B 3006   5.958   3.571   3.057 -1.1837  0.2409 -0.3368
   41CHL1    C2 3007   5.939   3.437   2.898 -0.5740 -0.4373 -0.0431
   41CHL1   H2A 3008   5.880   3.503   2.831 -0.1496  0.4821  0.4768
   41CHL1   H2B 3009   5.922   3.329   2.876 -1.4110 -0.9674  2.8111
   41CHL1   C20 3010   6.001   3.446   3.844  0.2040  0.5731  0.2979
   41CHL1   H20 3011   6.024   3.338   3.858 -1.1773  0.0067 -1.4083
   41CHL1   C21 3012   5.851   3.467   3.829  0.0543  0.4102 -0.3240
   41CHL1  H21A 3013   5.833   3.574   3.803  0.6265  1.6156  3.6753
   41CHL1  H21B 3014   5.789   3.443   3.918  2.1136  0.7546  1.2576
   41CHL1  H21C 3015   5.814   3.395   3.752  2.4548  0.2632 -1.4183
   41CHL1   C22 3016   6.049   3.518   3.969  0.3562  0.8821 -0.5144
   41CHL1  H22A 3017   6.159   3.508   3.973  0.2028 -0.8977 -0.0585
   41CHL1  H22B 3018   6.024   3.625   3.954  0.6678  1.0856  0.3824
   41CHL1   C23 3019   5.984   3.472   4.098  0.3118  0.3619  0.3991
   41CHL1  H23A 3020   6.045   3.532   4.169 -0.6349  3.1331 -0.9746
   41CHL1  H23B 3021   5.880   3.512   4.102  0.4963  1.1788 -1.7154
   41CHL1   C24 3022   5.999   3.319   4.133 -0.0030  0.5432 -0.2257
   41CHL1  H24A 3023   5.924   3.273   4.066 -0.9089  1.6840 -0.0328
   41CHL1  H24B 3024   6.103   3.293   4.107  0.0486  0.7942 -0.2721
   41CHL1   C25 3025   5.988   3.278   4.285 -0.0446  0.1032  0.2826
   41CHL1   H25 3026   6.061   3.331   4.350 -0.1685 -0.1218  0.6073
   41CHL1   C26 3027   5.842   3.317   4.338  0.1365 -0.7392  0.4204
   41CHL1  H26A 3028   5.774   3.254   4.277 -2.0570  0.3739  1.6221
   41CHL1  H26B 3029   5.811   3.291   4.442 -0.2786  0.1689  0.5305
   41CHL1  H26C 3030   5.821   3.424   4.316 -0.4961 -0.6791  1.2677
   41CHL1   C27 3031   6.017   3.129   4.302 -0.5962  0.2062 -0.4316
   41CHL1  H27A 3032   6.051   3.104   4.405 -1.3725 -1.8982 -0.6332
   41CHL1  H27B 3033   5.924   3.075   4.276 -0.6703  0.3987 -0.5642
   41CHL1  H27C 3034   6.099   3.101   4.232  0.3643 -2.4871  1.5849
   42CHL1    C3 3035   5.757   2.813   3.141  0.4993 -0.2051  0.4703
   42CHL1    H3 3036   5.660   2.761   3.158  0.7221 -1.0115 -0.6536
   42CHL1    O3 3037   5.790   2.833   3.002  0.0103  0.3294  0.0541
   42CHL1   H3' 3038   5.737   2.770   2.952 -0.5388  1.4326 -0.8188
   42CHL1    C4 3039   5.764   2.949   3.216 -0.3168 -0.2974  0.1646
   42CHL1   H4A 3040   5.858   3.004   3.197 -0.2726 -0.4025  0.0722
   42CHL1   H4B 3041   5.684   3.011   3.169  2.4436  1.6589 -2.3285
   42CHL1    C5 3042   5.749   2.924   3.363 -0.1515  0.7277  0.4932
   42CHL1    C6 3043   5.656   2.987   3.430  0.0059  0.6595 -0.4080
   42CHL1    H6 3044   5.591   3.065   3.388 -3.0303 -0.2126  2.2583
   42CHL1    C7 3045   5.647   2.987   3.585 -1.0035  0.2294  0.3942
   42CHL1   H7A 3046   5.619   3.088   3.620 -1.3283 -0.2481  1.5790
   42CHL1   H7B 3047   5.565   2.922   3.622 -0.8937  1.7054  3.4772
   42CHL1    C8 3048   5.773   2.929   3.648  0.0587 -0.1212  0.2394
   42CHL1    H8 3049   5.850   3.008   3.652 -2.0189  1.9599  1.4917
   42CHL1   C14 3050   5.730   2.898   3.790  0.4238 -0.1915 -0.4315
   42CHL1   H14 3051   5.658   2.814   3.780 -0.5360  0.2667  2.0493
   42CHL1   C15 3052   5.665   3.011   3.872  0.2112  0.0963  0.2151
   42CHL1  H15A 3053   5.718   3.108   3.865 -1.3470  1.1571  2.1880
   42CHL1  H15B 3054   5.563   3.033   3.836 -0.1734  0.4104  1.4549
   42CHL1   C16 3055   5.675   2.951   4.012  0.2687  0.3762  0.3986
   42CHL1  H16A 3056   5.747   3.000   4.080  1.3050 -1.9774  1.1103
   42CHL1  H16B 3057   5.579   2.958   4.069  2.0066  1.5056  3.4009
   42CHL1   C17 3058   5.751   2.816   4.004  0.3264 -0.1872  0.8154
   42CHL1   H17 3059   5.676   2.735   3.990  1.6407 -1.7824  2.4735
   42CHL1   C13 3060   5.837   2.824   3.873  0.2441  0.2920  0.2529
   42CHL1   C18 3061   5.963   2.920   3.894 -0.3302  0.0788 -0.4674
   42CHL1  H18A 3062   6.040   2.880   3.963 -0.1328 -0.4731 -1.0021
   42CHL1  H18B 3063   6.012   2.938   3.797  1.5389 -1.3617  0.1560
   42CHL1  H18C 3064   5.928   3.018   3.934 -1.5805 -0.1549 -0.9391
   42CHL1   C12 3065   5.882   2.689   3.811 -0.7154 -0.6973  0.5522
   42CHL1  H12A 3066   5.970   2.659   3.872 -0.4740  0.4893  0.8096
   42CHL1  H12B 3067   5.806   2.608   3.813  0.1517 -1.5810 -0.6615
   42CHL1   C11 3068   5.918   2.712   3.658  0.6944 -0.3570 -0.1446
   42CHL1  H11A 3069   6.010   2.773   3.644  0.4786  0.6087  2.2076
   42CHL1  H11B 3070   5.947   2.618   3.608  0.8696 -0.6456  0.4941
   42CHL1    C9 3071   5.813   2.799   3.575  0.1483 -0.3135 -0.7886
   42CHL1    H9 3072   5.721   2.737   3.567 -0.0807 -0.4390  1.8332
   42CHL1   C10 3073   5.843   2.823   3.429  0.4028 -0.3049  0.1213
   42CHL1   C19 3074   5.987   2.882   3.417  0.3133  0.3578  0.6582
   42CHL1  H19A 3075   6.065   2.810   3.448  1.8008  0.5661 -2.2207
   42CHL1  H19B 3076   6.004   2.905   3.309  0.9255 -2.4768  0.0895
   42CHL1  H19C 3077   5.995   2.979   3.471  1.9828  1.8034 -1.9209
   42CHL1    C1 3078   5.843   2.701   3.345 -0.5281 -0.0515  0.1794
   42CHL1   H1A 3079   5.926   2.632   3.372 -0.4604 -0.1959 -0.3806
   42CHL1   H1B 3080   5.745   2.653   3.362 -1.4039  0.9031 -1.8143
   42CHL1    C2 3081   5.861   2.714   3.192  0.1008 -0.1653  0.3768
   42CHL1   H2A 3082   5.835   2.611   3.161 -2.6041 -0.2515  2.5694
   42CHL1   H2B 3083   5.963   2.741   3.158 -0.1165  0.8634  0.4936
   42CHL1   C20 3084   5.825   2.787   4.137 -0.5850  0.2745 -0.4367
   42CHL1   H20 3085   5.913   2.855   4.140 -0.5491  0.2700 -1.1933
   42CHL1   C21 3086   5.878   2.638   4.141 -1.1514  0.3541  0.1793
   42CHL1  H21A 3087   5.932   2.612   4.235  1.3624  1.0265 -0.9834
   42CHL1  H21B 3088   5.965   2.623   4.074 -0.4671 -0.1367  1.1526
   42CHL1  H21C 3089   5.800   2.568   4.104 -0.6701 -0.6149  0.9471
   42CHL1   C22 3090   5.743   2.809   4.261  0.3730  0.4072 -0.6213
   42CHL1  H22A 3091   5.715   2.916   4.264 -1.1288  0.0098  1.1407
   42CHL1  H22B 3092   5.644   2.759   4.259 -0.5873  2.1037  1.2142
   42CHL1   C23 3093   5.820   2.786   4.395 -0.1532 -0.3881  0.5585
   42CHL1  H23A 3094   5.813   2.677   4.416 -1.2260 -0.2541  0.9975
   42CHL1  H23B 3095   5.930   2.799   4.396  0.4080 -2.9005 -3.8488
   42CHL1   C24 3096   5.772   2.865   4.510 -0.3715 -0.2801  0.3259
   42CHL1  H24A 3097   5.761   2.969   4.471  1.3546 -0.2544 -0.2044
   42CHL1  H24B 3098   5.670   2.824   4.522  0.1890 -2.1277 -0.8770
   42CHL1   C25 3099   5.855   2.848   4.641  1.2718  0.1158 -0.1135
   42CHL1   H25 3100   5.886   2.744   4.664  0.7697  0.7542  4.3757
   42CHL1   C26 3101   5.967   2.944   4.641 -0.3518 -0.5240  0.0360
   42CHL1  H26A 3102   5.932   3.047   4.620 -0.6199 -0.2135  1.8649
   42CHL1  H26B 3103   6.000   2.952   4.747 -1.5098  0.8467  0.3272
   42CHL1  H26C 3104   6.051   2.931   4.569  0.1569  1.5813  0.1772
   42CHL1   C27 3105   5.763   2.871   4.760 -0.5279  0.5088 -0.1148
   42CHL1  H27A 3106   5.715   2.971   4.767  1.0523  1.2473  0.6909
   42CHL1  H27B 3107   5.688   2.791   4.778 -1.5559  1.2235 -1.0447
   42CHL1  H27C 3108   5.828   2.871   4.850 -3.3310  0.7678  2.0546
   43CHL1    C3 3109   1.770   2.814   2.754  0.4909 -0.1092 -0.7763
   43CHL1    H3 3110   1.874   2.844   2.730  0.7900  1.1487  1.7906
   43CHL1    O3 3111   1.711   2.793   2.629  0.0971  0.0238 -0.4836
   43CHL1   H3' 3112   1.703   2.697   2.628 -0.3825  0.0405  0.4666
   43CHL1    C4 3113   1.775   2.693   2.836 -0.0738  0.2785  0.7355
   43CHL1   H4A 3114   1.668   2.664   2.841 -0.4342  1.5034  0.3905
   43CHL1   H4B 3115   1.832   2.611   2.787  0.0516  1.2950 -0.9060
   43CHL1    C5 3116   1.822   2.707   2.983  0.1569  0.5095 -0.5798
   43CHL1    C6 3117   1.922   2.634   3.034 -0.2287  0.5192  0.9566
   43CHL1    H6 3118   1.969   2.561   2.967 -0.5547  1.2755 -0.1211
   43CHL1    C7 3119   1.972   2.638   3.178  0.0179 -0.3693 -0.4901
   43CHL1   H7A 3120   1.972   2.538   3.226 -2.5178 -0.1516  0.1464
   43CHL1   H7B 3121   2.070   2.689   3.172 -0.9272  1.7837  0.9769
   43CHL1    C8 3122   1.889   2.731   3.270  0.1889  0.3384 -0.4886
   43CHL1    H8 3123   1.798   2.675   3.299 -0.6385  1.7995 -0.1836
   43CHL1   C14 3124   1.982   2.773   3.386  0.1342 -0.3576  0.3119
   43CHL1   H14 3125   2.065   2.831   3.340 -0.0836 -0.1703  0.1539
   43CHL1   C15 3126   2.044   2.660   3.472 -0.4639  0.1511 -0.4708
   43CHL1  H15A 3127   1.975   2.574   3.487  2.1487 -1.9773  0.1787
   43CHL1  H15B 3128   2.133   2.612   3.425 -0.7160 -0.2733 -0.5176
   43CHL1   C16 3129   2.080   2.725   3.606 -0.0941  0.2092  0.3750
   43CHL1  H16A 3130   2.036   2.667   3.689  1.8974 -0.8284  0.7677
   43CHL1  H16B 3131   2.190   2.721   3.619 -0.2009  1.0490  1.7210
   43CHL1   C17 3132   2.024   2.876   3.592  0.0615  0.5520  0.4546
   43CHL1   H17 3133   2.114   2.927   3.549  1.2936 -1.8439  0.0054
   43CHL1   C13 3134   1.919   2.871   3.486  0.4164  0.4000 -0.0708
   43CHL1   C18 3135   1.797   2.791   3.558  0.4856  0.1070 -0.3843
   43CHL1  H18A 3136   1.837   2.700   3.607  0.8181  0.3580 -0.1815
   43CHL1  H18B 3137   1.758   2.848   3.645  1.7400 -1.2072  1.0976
   43CHL1  H18C 3138   1.710   2.791   3.489 -0.2987  1.5652  0.5512
   43CHL1   C12 3139   1.871   2.994   3.400  0.1639  0.0490 -0.7984
   43CHL1  H12A 3140   1.826   3.070   3.468  1.9759  0.6804 -0.2296
   43CHL1  H12B 3141   1.963   3.042   3.360 -0.9022  3.0577  0.0967
   43CHL1   C11 3142   1.773   2.958   3.284  0.1160 -0.6004 -0.0236
   43CHL1  H11A 3143   1.680   2.915   3.325  0.3385 -1.6647 -0.5998
   43CHL1  H11B 3144   1.761   3.054   3.228  2.2368  1.4401  2.7181
   43CHL1    C9 3145   1.839   2.856   3.191 -0.3895  0.5156 -0.3067
   43CHL1    H9 3146   1.935   2.901   3.158  1.0706 -1.6347  0.7562
   43CHL1   C10 3147   1.760   2.825   3.063  0.2127 -0.1295 -0.6607
   43CHL1   C19 3148   1.619   2.788   3.099 -0.1823  0.1145  0.2909
   43CHL1  H19A 3149   1.559   2.770   3.008  0.3970  0.8838 -0.2567
   43CHL1  H19B 3150   1.613   2.692   3.155  0.7121 -0.7990 -1.1448
   43CHL1  H19C 3151   1.564   2.860   3.165  0.2427 -0.4335  1.2707
   43CHL1    C1 3152   1.759   2.956   2.968 -0.4647  0.7387 -0.1537
   43CHL1   H1A 3153   1.696   3.034   3.016 -0.0412  1.2044 -0.3426
   43CHL1   H1B 3154   1.864   2.992   2.966 -0.6089  1.3729  1.9488
   43CHL1    C2 3155   1.700   2.934   2.823  0.6613 -0.5197 -0.0047
   43CHL1   H2A 3156   1.711   3.028   2.765  0.6625 -0.1465  0.5976
   43CHL1   H2B 3157   1.594   2.900   2.830  0.8564 -1.0607  0.3311
   43CHL1   C20 3158   1.997   2.950   3.725 -0.3473  0.5234  0.3602
   43CHL1   H20 3159   1.916   2.894   3.777 -0.6760  0.8703  0.2244
   43CHL1   C21 3160   1.962   3.101   3.715 -0.0693  0.5119 -0.0059
   43CHL1  H21A 3161   2.052   3.158   3.683  0.5520  0.6356  1.8072
   43CHL1  H21B 3162   1.922   3.133   3.814 -0.9514 -2.0331  0.5358
   43CHL1  H21C 3163   1.881   3.124   3.644 -0.3275 -0.8671 -0.1939
   43CHL1   C22 3164   2.112   2.949   3.829 -0.2394 -0.3300 -0.0685
   43CHL1  H22A 3165   2.141   2.841   3.829 -1.0984 -0.5669 -0.3123
   43CHL1  H22B 3166   2.190   3.016   3.786 -2.1357  0.3593 -2.6726
   43CHL1   C23 3167   2.075   2.996   3.973  0.3415  0.7306 -0.3996
   43CHL1  H23A 3168   2.055   3.106   3.970  0.6642  0.8744  1.5101
   43CHL1  H23B 3169   1.981   2.947   4.008  0.3258  1.2895  0.3858
   43CHL1   C24 3170   2.185   2.977   4.072  0.0071  0.9323 -0.7132
   43CHL1  H24A 3171   2.208   2.869   4.064  1.3758  1.2438 -1.3789
   43CHL1  H24B 3172   2.276   3.034   4.044  0.8819 -0.2861 -0.4327
   43CHL1   C25 3173   2.152   3.015   4.217  0.4019 -0.0789  0.6125
   43CHL1   H25 3174   2.042   3.012   4.230  0.5729 -2.0451  2.0553
   43CHL1   C26 3175   2.213   2.929   4.329  0.2052  0.1167 -0.6139
   43CHL1  H26A 3176   2.321   2.910   4.315  0.0794 -0.3030 -1.0416
   43CHL1  H26B 3177   2.210   2.974   4.431 -1.1342  3.7953 -2.1010
   43CHL1  H26C 3178   2.173   2.826   4.336  2.4093 -0.8335 -1.2140
   43CHL1   C27 3179   2.202   3.160   4.234  0.3645  0.1704 -0.4791
   43CHL1  H27A 3180   2.309   3.152   4.264 -0.0107 -3.5538  0.4926
   43CHL1  H27B 3181   2.191   3.228   4.148  2.5672  0.5539 -0.5172
   43CHL1  H27C 3182   2.140   3.195   4.319 -1.2463 -1.0676 -1.0746
   44CHL1    C3 3183   4.696   2.588   2.984  0.3995  1.2025  0.3191
   44CHL1    H3 3184   4.727   2.488   3.023 -2.4267 -0.2028 -0.7905
   44CHL1    O3 3185   4.669   2.589   2.842 -0.6244  0.4501 -0.0849
   44CHL1   H3' 3186   4.678   2.682   2.821 -0.9914 -0.0519 -2.7147
   44CHL1    C4 3187   4.574   2.637   3.065  0.2191  0.2835 -0.0089
   44CHL1   H4A 3188   4.546   2.734   3.019 -1.1597 -0.4625 -0.8042
   44CHL1   H4B 3189   4.499   2.560   3.036  0.6614  0.2998 -1.2876
   44CHL1    C5 3190   4.604   2.637   3.212 -1.0713  0.0514  0.0629
   44CHL1    C6 3191   4.530   2.558   3.297  0.2124  0.3890  0.0971
   44CHL1    H6 3192   4.447   2.501   3.253 -2.1941  2.1597  2.0757
   44CHL1    C7 3193   4.548   2.556   3.447  0.1501  0.2300  0.5883
   44CHL1   H7A 3194   4.453   2.572   3.501 -0.6387  0.1439 -0.7360
   44CHL1   H7B 3195   4.587   2.458   3.481 -0.5540  0.6345  2.7594
   44CHL1    C8 3196   4.645   2.668   3.497  0.6745 -0.3272  0.0638
   44CHL1    H8 3197   4.580   2.756   3.480 -0.0649 -1.4079 -3.7612
   44CHL1   C14 3198   4.687   2.645   3.637  0.0995  0.2973 -0.2829
   44CHL1   H14 3199   4.749   2.553   3.630  1.0227  0.9444 -0.8390
   44CHL1   C15 3200   4.576   2.614   3.742 -0.7142  0.1929  0.3292
   44CHL1  H15A 3201   4.500   2.693   3.718 -2.6451 -1.5031  0.5870
   44CHL1  H15B 3202   4.534   2.513   3.724  0.5971 -0.3692  0.3681
   44CHL1   C16 3203   4.647   2.623   3.873  0.2607 -0.3418  0.3580
   44CHL1  H16A 3204   4.574   2.661   3.948  1.9664  0.6676  1.5912
   44CHL1  H16B 3205   4.681   2.529   3.921  0.3177  0.3942  1.8176
   44CHL1   C17 3206   4.777   2.706   3.848  0.6833  0.0702 -0.3307
   44CHL1   H17 3207   4.863   2.636   3.850  1.4662  0.9988 -0.5834
   44CHL1   C13 3208   4.773   2.758   3.702 -0.8432  0.5174 -0.0873
   44CHL1   C18 3209   4.699   2.900   3.698  0.0180  1.1311 -0.7667
   44CHL1  H18A 3210   4.604   2.900   3.756  0.6655 -1.0855  0.4140
   44CHL1  H18B 3211   4.770   2.977   3.736  0.9778 -0.3197  0.5313
   44CHL1  H18C 3212   4.675   2.929   3.594 -2.0802  0.5119 -0.4934
   44CHL1   C12 3213   4.908   2.749   3.616 -0.1650  0.3495  0.0824
   44CHL1  H12A 3214   4.981   2.819   3.662 -0.3776 -0.2407  1.3430
   44CHL1  H12B 3215   4.953   2.648   3.614 -0.7864 -0.0434 -4.2003
   44CHL1   C11 3216   4.876   2.781   3.466 -0.0114 -0.0882  0.7757
   44CHL1  H11A 3217   4.850   2.889   3.465 -0.5074 -0.1925  1.7088
   44CHL1  H11B 3218   4.971   2.776   3.409 -0.0630 -1.0757  0.7465
   44CHL1    C9 3219   4.764   2.685   3.408  0.0567 -0.4014  0.0526
   44CHL1    H9 3220   4.814   2.585   3.402  1.3435  0.1621  0.9789
   44CHL1   C10 3221   4.727   2.713   3.257  0.3870  0.3853  0.2173
   44CHL1   C19 3222   4.684   2.861   3.241 -0.2522 -0.5240 -0.2212
   44CHL1  H19A 3223   4.768   2.921   3.283  0.3209 -1.1764 -0.4177
   44CHL1  H19B 3224   4.683   2.873   3.131 -0.2047 -1.9611 -0.3961
   44CHL1  H19C 3225   4.584   2.878   3.286 -1.0361  2.0908 -2.6899
   44CHL1    C1 3226   4.848   2.677   3.171  0.4930 -0.3806  0.3903
   44CHL1   H1A 3227   4.926   2.754   3.188  0.5616 -0.8431  2.5639
   44CHL1   H1B 3228   4.901   2.589   3.215 -0.9556 -0.7565  1.4630
   44CHL1    C2 3229   4.822   2.670   3.021  0.1875  0.3833 -0.5550
   44CHL1   H2A 3230   4.896   2.633   2.947 -1.2783  1.0064 -2.3956
   44CHL1   H2B 3231   4.793   2.770   2.984 -1.9138  1.0490  2.5065
   44CHL1   C20 3232   4.809   2.807   3.965  0.6414 -0.3811  0.2974
   44CHL1   H20 3233   4.734   2.889   3.963  1.8983  0.7985  0.2037
   44CHL1   C21 3234   4.941   2.887   3.953  0.5532  0.0386  0.0441
   44CHL1  H21A 3235   4.955   2.941   3.857  1.2623  1.6908  1.0326
   44CHL1  H21B 3236   5.026   2.817   3.966  0.6153  0.4079  1.9103
   44CHL1  H21C 3237   4.948   2.961   4.035 -1.0899  1.1355 -0.7532
   44CHL1   C22 3238   4.792   2.744   4.104  0.0948 -0.3315  0.1423
   44CHL1  H22A 3239   4.708   2.671   4.101 -1.1957  1.1326 -2.1695
   44CHL1  H22B 3240   4.888   2.693   4.125  1.0751  1.2147 -0.4009
   44CHL1   C23 3241   4.760   2.851   4.212  0.2106  0.0469  0.4336
   44CHL1  H23A 3242   4.849   2.916   4.223  0.1052 -0.0203  1.9495
   44CHL1  H23B 3243   4.671   2.909   4.179  0.4223 -0.7061 -1.5937
   44CHL1   C24 3244   4.728   2.791   4.346  0.3757 -0.3439  0.4963
   44CHL1  H24A 3245   4.643   2.721   4.332 -0.6805  1.1584 -1.1131
   44CHL1  H24B 3246   4.821   2.735   4.372  0.5488  0.6383  2.0980
   44CHL1   C25 3247   4.700   2.894   4.460  0.4258  0.3364  0.3544
   44CHL1   H25 3248   4.605   2.944   4.431  0.9246  1.5483  0.7554
   44CHL1   C26 3249   4.675   2.825   4.590  0.2224  0.4833 -0.6052
   44CHL1  H26A 3250   4.664   2.889   4.680 -0.5591 -4.0194  2.8700
   44CHL1  H26B 3251   4.585   2.763   4.574 -0.4162  0.9718  0.9594
   44CHL1  H26C 3252   4.765   2.764   4.615 -0.3977 -0.0719  0.3186
   44CHL1   C27 3253   4.801   3.014   4.474  0.0968  0.8929  0.4425
   44CHL1  H27A 3254   4.814   3.066   4.376 -1.1415  0.4360  0.0045
   44CHL1  H27B 3255   4.768   3.092   4.546  1.2786  2.6309 -0.8239
   44CHL1  H27C 3256   4.898   2.979   4.513 -0.9027  0.8673  3.0837
   45CHL1    C3 3257   1.344   5.441   2.547  0.8670  0.6339  0.7689
   45CHL1    H3 3258   1.266   5.459   2.470  0.0669  0.2049  1.4725
   45CHL1    O3 3259   1.391   5.310   2.544 -0.7191  1.3330  0.7055
   45CHL1   H3' 3260   1.444   5.295   2.623 -0.3731  0.4491  0.3193
   45CHL1    C4 3261   1.464   5.535   2.519  0.6854 -0.3799 -0.4471
   45CHL1   H4A 3262   1.540   5.509   2.595  0.2007  1.9241  0.9290
   45CHL1   H4B 3263   1.510   5.507   2.421  2.0831 -3.6191  0.9783
   45CHL1    C5 3264   1.433   5.686   2.538 -0.0389 -0.3456  0.3114
   45CHL1    C6 3265   1.444   5.774   2.438  0.5255 -0.6193  0.2333
   45CHL1    H6 3266   1.491   5.742   2.344  0.9661 -0.4665  0.3966
   45CHL1    C7 3267   1.409   5.914   2.454 -0.7685 -0.6691  0.3144
   45CHL1   H7A 3268   1.483   5.970   2.393 -0.8957 -0.8609 -0.0158
   45CHL1   H7B 3269   1.309   5.937   2.412 -0.1338  0.2682 -0.7557
   45CHL1    C8 3270   1.418   5.959   2.604 -0.5507  0.0224  0.6072
   45CHL1    H8 3271   1.526   5.962   2.631 -0.5804  1.7354  0.6931
   45CHL1   C14 3272   1.365   6.104   2.609 -0.3160 -1.0219 -0.2001
   45CHL1   H14 3273   1.264   6.100   2.563 -0.4292  1.1266 -0.2585
   45CHL1   C15 3274   1.432   6.220   2.525 -0.1232  0.0802  0.6292
   45CHL1  H15A 3275   1.543   6.210   2.530  0.0204  1.6731  1.6670
   45CHL1  H15B 3276   1.393   6.215   2.422 -0.6536 -0.8406  0.8646
   45CHL1   C16 3277   1.390   6.350   2.601 -0.1128 -0.0594  0.3394
   45CHL1  H16A 3278   1.490   6.387   2.632  0.5851  1.0490 -2.8896
   45CHL1  H16B 3279   1.340   6.418   2.528  1.6452  1.8654  0.8310
   45CHL1   C17 3280   1.296   6.303   2.716 -0.4794 -0.6756 -0.7075
   45CHL1   H17 3281   1.194   6.287   2.675 -0.5599  1.6282 -1.5606
   45CHL1   C13 3282   1.346   6.160   2.747 -0.5069 -0.1107 -0.3398
   45CHL1   C18 3283   1.477   6.156   2.828  0.0324  0.5886 -0.0979
   45CHL1  H18A 3284   1.446   6.180   2.932  0.5075 -0.2834  0.2524
   45CHL1  H18B 3285   1.519   6.054   2.826 -1.7300 -0.1713 -0.4173
   45CHL1  H18C 3286   1.550   6.228   2.785  1.8769 -0.7416  0.6923
   45CHL1   C12 3287   1.244   6.059   2.815 -0.0174 -0.8127 -0.3282
   45CHL1  H12A 3288   1.205   6.110   2.906  1.3249  0.1003 -0.2348
   45CHL1  H12B 3289   1.161   6.058   2.741  1.9320  0.0476 -2.6331
   45CHL1   C11 3290   1.298   5.917   2.832  0.4529  0.3493  0.3426
   45CHL1  H11A 3291   1.380   5.912   2.907 -2.0524  1.2470  3.3310
   45CHL1  H11B 3292   1.212   5.854   2.865 -0.8853  2.6295  1.4943
   45CHL1    C9 3293   1.334   5.869   2.687  0.3212 -0.4963 -0.4802
   45CHL1    H9 3294   1.236   5.861   2.635  0.9355 -1.5655 -1.5169
   45CHL1   C10 3295   1.389   5.718   2.683 -0.2975  1.2359  0.2560
   45CHL1   C19 3296   1.517   5.710   2.764  0.1730 -0.6633  0.1606
   45CHL1  H19A 3297   1.499   5.762   2.860  1.2865  0.1896 -0.0732
   45CHL1  H19B 3298   1.531   5.603   2.792 -0.2487 -1.3421 -1.9794
   45CHL1  H19C 3299   1.605   5.749   2.709 -1.8217  2.0012 -1.3756
   45CHL1    C1 3300   1.272   5.616   2.721 -1.0179  0.4798  0.4691
   45CHL1   H1A 3301   1.275   5.631   2.831  1.2642  1.8107  0.2986
   45CHL1   H1B 3302   1.178   5.653   2.674 -1.4040 -1.0874 -0.0406
   45CHL1    C2 3303   1.296   5.473   2.686 -0.2776  0.8802  0.2271
   45CHL1   H2A 3304   1.205   5.411   2.704  1.0037 -1.3818 -0.6128
   45CHL1   H2B 3305   1.368   5.433   2.760 -0.4339  0.0443 -0.0528
   45CHL1   C20 3306   1.282   6.398   2.838  0.6578 -0.2878  0.4890
   45CHL1   H20 3307   1.253   6.338   2.927 -0.5911  0.4859  0.6130
   45CHL1   C21 3308   1.167   6.489   2.796  0.2551 -0.2754 -0.7382
   45CHL1  H21A 3309   1.136   6.553   2.882  0.9782 -1.4532  0.4268
   45CHL1  H21B 3310   1.078   6.429   2.769 -0.5297  0.0656  0.9268
   45CHL1  H21C 3311   1.197   6.561   2.716  0.0666  0.0458 -0.5257
   45CHL1   C22 3312   1.400   6.483   2.862  0.4052 -0.4570 -0.0824
   45CHL1  H22A 3313   1.494   6.422   2.862  2.4303  2.4643  0.7447
   45CHL1  H22B 3314   1.411   6.554   2.777 -0.7078  1.7678  1.5307
   45CHL1   C23 3315   1.397   6.573   2.987 -0.2261 -0.5504 -0.2722
   45CHL1  H23A 3316   1.480   6.647   2.986  0.3291 -1.0931  1.2116
   45CHL1  H23B 3317   1.303   6.632   2.985 -1.0129 -1.7956 -1.1692
   45CHL1   C24 3318   1.413   6.488   3.114 -0.4280 -0.3891 -0.4888
   45CHL1  H24A 3319   1.335   6.410   3.128 -0.5190  0.0896  2.2174
   45CHL1  H24B 3320   1.512   6.441   3.099 -0.3605 -0.2664 -0.4234
   45CHL1   C25 3321   1.401   6.577   3.245  0.1463 -0.2068  0.0670
   45CHL1   H25 3322   1.473   6.661   3.234 -1.0827  1.1564  1.9864
   45CHL1   C26 3323   1.248   6.632   3.258 -0.7952 -0.0675 -0.0505
   45CHL1  H26A 3324   1.253   6.693   3.351  3.1727  0.1701 -0.2173
   45CHL1  H26B 3325   1.216   6.695   3.172  0.5714  0.8461  0.0777
   45CHL1  H26C 3326   1.192   6.538   3.276  1.3121 -1.1404  1.3567
   45CHL1   C27 3327   1.430   6.509   3.375  0.0501 -0.4369  0.2832
   45CHL1  H27A 3328   1.533   6.468   3.372 -0.0720 -0.7048 -1.5936
   45CHL1  H27B 3329   1.421   6.588   3.453 -0.3145  0.5315 -0.7013
   45CHL1  H27C 3330   1.360   6.423   3.385 -1.1512  0.5396  0.6759
   46CHL1    C3 3331   5.394   3.905   2.816 -0.0030  0.0637  0.2441
   46CHL1    H3 3332   5.435   3.804   2.840 -0.8795 -0.5724 -0.8520
   46CHL1    O3 3333   5.380   3.913   2.679 -0.1613  0.4544 -0.1092
   46CHL1   H3' 3334   5.349   4.003   2.672 -1.8489  0.0789  1.6381
   46CHL1    C4 3335   5.255   3.916   2.878  0.4427  0.2042  0.3783
   46CHL1   H4A 3336   5.192   4.000   2.841 -1.4966 -1.8305 -1.2249
   46CHL1   H4B 3337   5.193   3.830   2.844 -2.1130  1.4729  1.5903
   46CHL1    C5 3338   5.260   3.938   3.024 -0.4138  0.5835 -0.6338
   46CHL1    C6 3339   5.183   3.862   3.111  0.4384  0.6655 -0.2729
   46CHL1    H6 3340   5.122   3.780   3.069  1.5498 -0.3311  0.0171
   46CHL1    C7 3341   5.191   3.874   3.263 -0.4462 -0.5297 -0.3439
   46CHL1   H7A 3342   5.086   3.881   3.299 -0.2741  1.2409 -0.0816
   46CHL1   H7B 3343   5.249   3.791   3.308  2.0780  1.5982  0.5762
   46CHL1    C8 3344   5.268   4.006   3.307  0.6464 -0.0512  0.5233
   46CHL1    H8 3345   5.196   4.089   3.291  1.9107  0.9053 -0.3927
   46CHL1   C14 3346   5.300   4.007   3.457 -0.3252 -0.1054 -0.6047
   46CHL1   H14 3347   5.376   3.929   3.476  1.2262  1.2109 -1.1870
   46CHL1   C15 3348   5.190   3.963   3.554  0.6486 -0.1899 -1.0285
   46CHL1  H15A 3349   5.093   4.007   3.525  1.5349  1.6870 -1.2927
   46CHL1  H15B 3350   5.178   3.853   3.548 -0.3955 -0.1551 -0.0177
   46CHL1   C16 3351   5.234   4.008   3.690 -0.0779 -0.1877 -0.1124
   46CHL1  H16A 3352   5.148   4.051   3.745 -0.2995 -1.2688  0.4153
   46CHL1  H16B 3353   5.271   3.917   3.743  2.0133  0.5072 -0.3046
   46CHL1   C17 3354   5.350   4.110   3.670 -0.5179 -0.4610 -0.1985
   46CHL1   H17 3355   5.447   4.062   3.696 -1.8184 -2.5270  1.0878
   46CHL1   C13 3356   5.356   4.135   3.511 -0.5878  0.5164  0.0598
   46CHL1   C18 3357   5.260   4.248   3.482 -0.1742  0.1455 -0.2357
   46CHL1  H18A 3358   5.253   4.261   3.372 -0.2326  0.5323 -0.1874
   46CHL1  H18B 3359   5.160   4.232   3.528 -1.3003  3.3849 -1.2172
   46CHL1  H18C 3360   5.293   4.345   3.524  2.1148  0.5229 -2.6151
   46CHL1   C12 3361   5.491   4.148   3.449 -0.9040 -0.8968  0.3574
   46CHL1  H12A 3362   5.533   4.247   3.476 -0.7167 -0.1633 -2.3110
   46CHL1  H12B 3363   5.560   4.069   3.486 -1.3648 -0.6458  1.8109
   46CHL1   C11 3364   5.485   4.139   3.294  0.4868 -0.2122  0.7100
   46CHL1  H11A 3365   5.452   4.240   3.261  4.1914  2.1696  3.5681
   46CHL1  H11B 3366   5.584   4.114   3.250  0.3281 -0.4496  0.4841
   46CHL1    C9 3367   5.398   4.027   3.233  0.2221 -0.2187  0.7229
   46CHL1    H9 3368   5.462   3.937   3.248  0.4016  0.0869  1.8803
   46CHL1   C10 3369   5.358   4.041   3.075  0.0420  0.0934 -0.3202
   46CHL1   C19 3370   5.297   4.182   3.044  0.0021  0.1930 -0.6450
   46CHL1  H19A 3371   5.195   4.190   3.088  1.2116  0.8636  2.2467
   46CHL1  H19B 3372   5.348   4.267   3.093  0.2208  0.4625 -1.3230
   46CHL1  H19C 3373   5.284   4.189   2.934 -1.7880 -3.0425 -0.7898
   46CHL1    C1 3374   5.500   4.023   3.008 -0.8815 -0.3674 -0.1399
   46CHL1   H1A 3375   5.559   4.107   3.050  0.5442 -1.3831 -0.0166
   46CHL1   H1B 3376   5.559   3.938   3.049 -0.4743 -0.0424 -0.0512
   46CHL1    C2 3377   5.490   4.019   2.856  0.2655  0.9160  0.3508
   46CHL1   H2A 3378   5.588   4.006   2.805 -0.0181  1.6734 -0.4139
   46CHL1   H2B 3379   5.445   4.114   2.821 -0.6675  0.6888  0.9077
   46CHL1   C20 3380   5.330   4.229   3.770 -0.1328  0.2844  0.0207
   46CHL1   H20 3381   5.231   4.275   3.750  0.3911  0.5693 -2.2198
   46CHL1   C21 3382   5.439   4.330   3.754  0.7702  0.3671 -0.1428
   46CHL1  H21A 3383   5.462   4.343   3.646 -0.5304  0.6850 -0.3945
   46CHL1  H21B 3384   5.541   4.311   3.795  0.9652 -2.2860 -1.6273
   46CHL1  H21C 3385   5.410   4.431   3.790 -1.9105 -0.5382  0.4665
   46CHL1   C22 3386   5.333   4.170   3.912 -0.6909  0.0318 -0.0666
   46CHL1  H22A 3387   5.252   4.094   3.911 -0.1142 -0.6672  1.9481
   46CHL1  H22B 3388   5.427   4.117   3.937 -0.4910  0.6800  0.6139
   46CHL1   C23 3389   5.306   4.265   4.024 -0.1534 -1.3489  0.8709
   46CHL1  H23A 3390   5.362   4.360   4.014  0.4633 -1.5856  1.9298
   46CHL1  H23B 3391   5.198   4.288   4.011  0.1466 -1.3864 -2.6183
   46CHL1   C24 3392   5.337   4.199   4.156 -0.2251 -0.5084 -0.2588
   46CHL1  H24A 3393   5.307   4.094   4.135  0.4105 -0.7354 -0.0334
   46CHL1  H24B 3394   5.447   4.204   4.170 -0.1700  0.8886 -0.9934
   46CHL1   C25 3395   5.267   4.266   4.276 -1.2206  0.5462  0.0140
   46CHL1   H25 3396   5.313   4.239   4.373 -2.1628  1.4449  0.7234
   46CHL1   C26 3397   5.275   4.417   4.282  0.4323  0.0781  0.0920
   46CHL1  H26A 3398   5.237   4.452   4.380 -0.6080 -1.8105  0.4164
   46CHL1  H26B 3399   5.383   4.444   4.278  0.5467 -0.0579  1.6474
   46CHL1  H26C 3400   5.223   4.469   4.199  0.4078  0.7926  0.5491
   46CHL1   C27 3401   5.122   4.213   4.285  0.1077  0.3657 -0.3871
   46CHL1  H27A 3402   5.133   4.105   4.260  1.0065 -0.3432  2.5695
   46CHL1  H27B 3403   5.076   4.238   4.383  2.7767 -1.1325  1.3750
   46CHL1  H27C 3404   5.057   4.257   4.207 -1.3678  0.1725  0.6931
   47CHL1    C3 3405   3.851   5.165   2.710 -0.1069  0.4527 -0.1254
   47CHL1    H3 3406   3.951   5.121   2.732 -0.5419 -0.5654 -0.1827
   47CHL1    O3 3407   3.844   5.195   2.570  0.1575 -0.4756 -0.3441
   47CHL1   H3' 3408   3.829   5.113   2.522  1.3266 -0.3428 -0.9892
   47CHL1    C4 3409   3.737   5.071   2.752  0.4002 -0.2471 -0.1668
   47CHL1   H4A 3410   3.647   5.128   2.720  1.0093 -0.0713 -1.6332
   47CHL1   H4B 3411   3.737   4.978   2.693  1.8663 -1.4773  1.6658
   47CHL1    C5 3412   3.737   5.043   2.899 -0.2386  0.5520 -0.5487
   47CHL1    C6 3413   3.766   4.921   2.952 -0.0667  0.4096  0.4531
   47CHL1    H6 3414   3.769   4.834   2.885  0.2957  1.8761 -1.5401
   47CHL1    C7 3415   3.763   4.889   3.099 -0.3692 -0.3847 -0.1919
   47CHL1   H7A 3416   3.700   4.799   3.115  0.6970 -1.1426 -0.1372
   47CHL1   H7B 3417   3.863   4.866   3.141 -0.4326 -1.4644 -0.5881
   47CHL1    C8 3418   3.709   5.006   3.183 -0.1741  0.6793 -1.1076
   47CHL1    H8 3419   3.599   5.011   3.165 -0.2160  4.9770 -0.5931
   47CHL1   C14 3420   3.735   4.982   3.332  0.0265  0.0784  0.5574
   47CHL1   H14 3421   3.845   4.971   3.343  0.0694  0.3309  0.3732
   47CHL1   C15 3422   3.677   4.856   3.394 -0.3080  0.4105 -0.1979
   47CHL1  H15A 3423   3.572   4.835   3.363  0.2442 -4.0561  0.3155
   47CHL1  H15B 3424   3.746   4.770   3.378 -0.6307 -0.2630  1.7401
   47CHL1   C16 3425   3.671   4.885   3.545 -0.1833  0.8095  0.8575
   47CHL1  H16A 3426   3.564   4.880   3.573  0.1015 -1.8403  1.7493
   47CHL1  H16B 3427   3.726   4.802   3.595 -2.0424 -1.2345 -0.3008
   47CHL1   C17 3428   3.732   5.025   3.563 -0.3442  0.1739 -0.7874
   47CHL1   H17 3429   3.841   5.004   3.573 -0.8297 -1.5576  1.8931
   47CHL1   C13 3430   3.701   5.096   3.435 -0.1285 -0.2847  0.9921
   47CHL1   C18 3431   3.540   5.140   3.431 -0.5113  0.5855  0.0634
   47CHL1  H18A 3432   3.508   5.163   3.327 -1.4585  0.0813  0.2327
   47CHL1  H18B 3433   3.482   5.054   3.470 -1.5446  1.8037  1.3053
   47CHL1  H18C 3434   3.524   5.233   3.489  0.0215  0.4318  0.4671
   47CHL1   C12 3435   3.792   5.219   3.399  0.2604 -0.8974 -0.6727
   47CHL1  H12A 3436   3.774   5.309   3.462 -0.0055  0.2284 -2.2984
   47CHL1  H12B 3437   3.899   5.189   3.405  0.0920 -1.2839  1.1757
   47CHL1   C11 3438   3.755   5.253   3.249 -0.0184 -0.2934 -0.2050
   47CHL1  H11A 3439   3.648   5.278   3.240  0.2499  1.0658  0.2075
   47CHL1  H11B 3440   3.816   5.338   3.212  1.1600 -0.1295  1.9442
   47CHL1    C9 3441   3.770   5.137   3.148  0.8216  0.9623  0.2250
   47CHL1    H9 3442   3.880   5.120   3.148  1.3044  3.3272 -2.9750
   47CHL1   C10 3443   3.732   5.174   2.997 -0.6322  0.8018  0.4340
   47CHL1   C19 3444   3.589   5.229   2.979 -0.6004  0.4885  0.2054
   47CHL1  H19A 3445   3.572   5.296   3.065  2.0695  1.9107 -0.2783
   47CHL1  H19B 3446   3.575   5.278   2.880  0.2545  1.6567  0.6422
   47CHL1  H19C 3447   3.521   5.143   2.998  1.1788 -0.3436  3.3777
   47CHL1    C1 3448   3.840   5.269   2.944  0.6680 -0.4030 -0.0441
   47CHL1   H1A 3449   3.823   5.370   2.988 -1.8437 -0.6696 -0.2349
   47CHL1   H1B 3450   3.941   5.226   2.960  2.0101  2.3777 -0.4455
   47CHL1    C2 3451   3.838   5.297   2.792  0.5848  0.2654 -0.0663
   47CHL1   H2A 3452   3.921   5.370   2.786  1.3532 -0.5799 -0.0133
   47CHL1   H2B 3453   3.742   5.341   2.758  1.9026  0.6236 -3.8114
   47CHL1   C20 3454   3.690   5.085   3.693 -0.0787 -0.1466 -0.0058
   47CHL1   H20 3455   3.579   5.079   3.692 -0.1841  0.8536 -2.9497
   47CHL1   C21 3456   3.748   5.229   3.703 -0.4531 -0.0206 -1.1533
   47CHL1  H21A 3457   3.858   5.224   3.686 -0.2751  0.8624 -0.3464
   47CHL1  H21B 3458   3.749   5.269   3.807  3.7637 -0.0755 -0.9695
   47CHL1  H21C 3459   3.698   5.302   3.636  3.6467  3.6314 -0.6761
   47CHL1   C22 3460   3.740   4.997   3.807 -0.4646  0.1603  0.1879
   47CHL1  H22A 3461   3.738   4.888   3.785  0.4154  0.4270 -1.3513
   47CHL1  H22B 3462   3.850   5.007   3.818 -0.3415 -1.9771  1.3500
   47CHL1   C23 3463   3.674   5.033   3.938 -0.5643  0.0046  0.7902
   47CHL1  H23A 3464   3.703   5.138   3.964  2.9300 -0.6177 -0.1376
   47CHL1  H23B 3465   3.564   5.038   3.919 -0.3449 -0.2411 -0.6231
   47CHL1   C24 3466   3.719   4.942   4.052  0.1134  0.1479  0.0482
   47CHL1  H24A 3467   3.661   4.849   4.035 -0.4510  0.5064 -0.0272
   47CHL1  H24B 3468   3.829   4.931   4.061  0.0466  0.5610  1.7972
   47CHL1   C25 3469   3.670   4.993   4.191 -0.7605 -0.5887  0.3723
   47CHL1   H25 3470   3.670   5.104   4.193 -1.2985 -0.5391 -1.1561
   47CHL1   C26 3471   3.521   4.951   4.217  0.4856 -0.4166 -1.2707
   47CHL1  H26A 3472   3.519   4.840   4.225 -1.4192 -0.2801  2.3549
   47CHL1  H26B 3473   3.491   5.004   4.310  0.3044 -1.2059 -0.8716
   47CHL1  H26C 3474   3.452   4.975   4.134 -0.5764  1.7540  0.1516
   47CHL1   C27 3475   3.749   4.939   4.310  0.1015 -0.6488  0.7900
   47CHL1  H27A 3476   3.696   4.967   4.404 -0.0778  0.9808  0.2416
   47CHL1  H27B 3477   3.762   4.830   4.296  1.0291 -0.5848  1.0567
   47CHL1  H27C 3478   3.849   4.988   4.308 -0.5693  0.7497 -0.8706
   48CHL1    C3 3479   5.436   3.531   2.701 -0.5169  0.2587  0.0101
   48CHL1    H3 3480   5.394   3.633   2.691 -0.7770  0.1338 -0.1828
   48CHL1    O3 3481   5.462   3.488   2.566  0.1248 -0.2464  0.1968
   48CHL1   H3' 3482   5.459   3.394   2.586 -0.6731 -0.3121 -0.1956
   48CHL1    C4 3483   5.575   3.535   2.774 -0.9773 -0.4552 -0.4262
   48CHL1   H4A 3484   5.612   3.432   2.754 -0.5363 -0.3341 -0.2514
   48CHL1   H4B 3485   5.636   3.607   2.715 -0.9874  0.2745  0.4303
   48CHL1    C5 3486   5.565   3.554   2.921 -0.0679  0.2335 -0.1665
   48CHL1    C6 3487   5.632   3.657   2.979  0.7781 -0.2241  0.7836
   48CHL1    H6 3488   5.691   3.725   2.915 -1.6920  0.4314 -0.9242
   48CHL1    C7 3489   5.631   3.684   3.123 -0.8580 -0.3826  0.5437
   48CHL1   H7A 3490   5.733   3.691   3.167 -0.9341 -0.6504  0.7654
   48CHL1   H7B 3491   5.573   3.777   3.143  0.8429  0.8852 -0.1126
   48CHL1    C8 3492   5.556   3.579   3.210  0.9042  0.3629 -0.6240
   48CHL1    H8 3493   5.630   3.496   3.214  1.5087  0.9341  0.6950
   48CHL1   C14 3494   5.523   3.631   3.356 -0.7300 -0.4602 -0.3331
   48CHL1   H14 3495   5.446   3.708   3.335 -1.1819 -1.3101 -1.9741
   48CHL1   C15 3496   5.630   3.708   3.431 -0.0648  0.1851  0.4659
   48CHL1  H15A 3497   5.729   3.663   3.411 -0.9375 -1.5680 -0.0817
   48CHL1  H15B 3498   5.616   3.813   3.399  3.3015  0.5290 -0.1642
   48CHL1   C16 3499   5.596   3.685   3.580  0.2769  0.1699 -0.8476
   48CHL1  H16A 3500   5.675   3.618   3.621 -0.6830  0.0867  0.9504
   48CHL1  H16B 3501   5.596   3.779   3.639  3.4147 -0.7285  0.8400
   48CHL1   C17 3502   5.458   3.606   3.582 -0.1650 -1.1428  0.7145
   48CHL1   H17 3503   5.375   3.676   3.560  0.5318  0.0012  1.5949
   48CHL1   C13 3504   5.458   3.529   3.450  0.0994 -0.0377 -0.1438
   48CHL1   C18 3505   5.542   3.407   3.469  0.7288  0.1032  0.4635
   48CHL1  H18A 3506   5.578   3.366   3.372  1.3745 -0.5233  0.9521
   48CHL1  H18B 3507   5.627   3.424   3.539  1.1736 -1.7723  0.4295
   48CHL1  H18C 3508   5.477   3.330   3.516  3.2766 -2.7675 -0.3604
   48CHL1   C12 3509   5.328   3.486   3.381  0.0033  0.2623 -0.0325
   48CHL1  H12A 3510   5.287   3.396   3.432  0.1733 -0.2475 -0.7758
   48CHL1  H12B 3511   5.245   3.559   3.377 -1.1554 -0.9980  0.2569
   48CHL1   C11 3512   5.342   3.434   3.230 -1.0014  0.8229 -0.4997
   48CHL1  H11A 3513   5.397   3.338   3.239 -0.5738  1.2600  3.0206
   48CHL1  H11B 3514   5.245   3.420   3.178 -1.0978 -0.3081 -0.0377
   48CHL1    C9 3515   5.425   3.533   3.143  0.2796  0.9982  0.7402
   48CHL1    H9 3516   5.364   3.626   3.136 -0.8127  0.2202 -0.3694
   48CHL1   C10 3517   5.452   3.476   2.995 -0.1077 -0.6729  0.3804
   48CHL1   C19 3518   5.506   3.333   3.012  0.1628  0.2641  0.6423
   48CHL1  H19A 3519   5.424   3.261   3.031  1.7523 -1.9136 -0.3707
   48CHL1  H19B 3520   5.557   3.295   2.921  0.3169  0.0159  0.8306
   48CHL1  H19C 3521   5.586   3.329   3.089  0.8128  1.8213  0.0853
   48CHL1    C1 3522   5.323   3.479   2.919  0.7560 -0.4138  0.4152
   48CHL1   H1A 3523   5.259   3.408   2.975  1.8351 -1.6068  0.1822
   48CHL1   H1B 3524   5.284   3.582   2.935  0.7024 -0.5019  0.8754
   48CHL1    C2 3525   5.328   3.446   2.769 -0.0373 -0.4001  0.4348
   48CHL1   H2A 3526   5.229   3.469   2.725  0.1295 -1.3745 -0.5064
   48CHL1   H2B 3527   5.357   3.339   2.763 -0.5329 -0.4709 -1.5812
   48CHL1   C20 3528   5.418   3.554   3.717 -0.1469  0.8897 -0.0940
   48CHL1   H20 3529   5.485   3.468   3.739  1.2767  2.3069  1.3861
   48CHL1   C21 3530   5.269   3.504   3.710 -0.6430 -0.2218  0.4835
   48CHL1  H21A 3531   5.266   3.417   3.641 -0.6808 -1.9449  2.5610
   48CHL1  H21B 3532   5.201   3.589   3.690  0.3417  0.2697 -0.9056
   48CHL1  H21C 3533   5.225   3.461   3.803 -1.1141 -0.1753  0.2858
   48CHL1   C22 3534   5.435   3.655   3.829 -0.2947 -0.0794 -0.9817
   48CHL1  H22A 3535   5.542   3.683   3.840 -0.2408 -0.6073 -0.0363
   48CHL1  H22B 3536   5.381   3.747   3.801 -2.5824 -0.4042  1.9611
   48CHL1   C23 3537   5.381   3.624   3.972 -0.6918 -0.0363  0.4335
   48CHL1  H23A 3538   5.272   3.644   3.972 -0.7701 -0.4514  0.0142
   48CHL1  H23B 3539   5.394   3.515   3.987 -0.2671 -0.2679 -1.4216
   48CHL1   C24 3540   5.452   3.696   4.093  0.0512  0.6104  0.8393
   48CHL1  H24A 3541   5.559   3.672   4.075  0.4319  2.4027  0.4693
   48CHL1  H24B 3542   5.445   3.807   4.091 -0.6812  0.5698 -1.2427
   48CHL1   C25 3543   5.409   3.655   4.234 -0.0180  0.1762  0.4102
   48CHL1   H25 3544   5.462   3.710   4.315 -0.6169 -1.5614  2.0357
   48CHL1   C26 3545   5.253   3.687   4.249 -0.3156 -0.9130  0.9447
   48CHL1  H26A 3546   5.193   3.627   4.178  1.5645 -2.6701  0.7556
   48CHL1  H26B 3547   5.218   3.664   4.352  1.3885 -2.4031  1.2418
   48CHL1  H26C 3548   5.249   3.797   4.230  0.3919 -0.6612  2.1364
   48CHL1   C27 3549   5.434   3.499   4.273 -0.1789 -1.0015 -0.1123
   48CHL1  H27A 3550   5.390   3.472   4.372 -1.2641  0.6430 -0.1061
   48CHL1  H27B 3551   5.391   3.438   4.190 -3.3131  0.0608  0.5857
   48CHL1  H27C 3552   5.544   3.491   4.285 -0.2178  0.7265  2.0196
   49CHL1    C3 3553   2.640   4.577   2.654 -0.0645 -0.0760 -0.2378
   49CHL1    H3 3554   2.570   4.662   2.643 -1.9340 -1.8174 -4.2287
   49CHL1    O3 3555   2.691   4.537   2.528 -0.5061 -0.1336 -0.1830
   49CHL1   H3' 3556   2.753   4.466   2.545  0.0095 -0.3517 -2.6420
   49CHL1    C4 3557   2.755   4.614   2.744 -0.0732  0.1482  0.4600
   49CHL1   H4A 3558   2.824   4.527   2.747  0.4149  0.5630  2.1875
   49CHL1   H4B 3559   2.818   4.696   2.701  2.2123  0.2243  3.5876
   49CHL1    C5 3560   2.703   4.643   2.882  0.2238  0.4729 -0.1333
   49CHL1    C6 3561   2.719   4.758   2.952  0.0301 -0.2666 -0.6745
   49CHL1    H6 3562   2.772   4.841   2.903 -1.5452  0.4138 -1.3123
   49CHL1    C7 3563   2.664   4.774   3.093  0.2001  0.1564  0.1085
   49CHL1   H7A 3564   2.729   4.830   3.164 -0.9214 -0.5135  1.7440
   49CHL1   H7B 3565   2.564   4.822   3.085 -0.6075 -1.2914  0.9413
   49CHL1    C8 3566   2.626   4.641   3.168 -0.6565 -0.0143  0.2735
   49CHL1    H8 3567   2.717   4.597   3.214 -1.4353 -0.1538  1.7217
   49CHL1   C14 3568   2.541   4.664   3.294 -0.3167 -0.1531  0.2119
   49CHL1   H14 3569   2.445   4.706   3.256 -0.9064 -1.2569  0.4552
   49CHL1   C15 3570   2.593   4.773   3.392 -0.4026  0.6601 -0.9052
   49CHL1  H15A 3571   2.703   4.766   3.402 -0.5881 -0.9177  0.4889
   49CHL1  H15B 3572   2.566   4.874   3.353  0.6892  0.8805 -1.1087
   49CHL1   C16 3573   2.527   4.740   3.520  0.2384 -0.8704 -0.4519
   49CHL1  H16A 3574   2.599   4.725   3.603  0.3173  0.2644 -0.3019
   49CHL1  H16B 3575   2.455   4.815   3.560  0.0176 -0.9489 -0.6925
   49CHL1   C17 3576   2.442   4.611   3.498  0.1135  0.0724  0.8451
   49CHL1   H17 3577   2.343   4.649   3.463  0.0539 -0.4846  0.3750
   49CHL1   C13 3578   2.509   4.541   3.371 -0.5830 -0.7935  0.5716
   49CHL1   C18 3579   2.639   4.476   3.427  0.1176  0.3124  0.6993
   49CHL1  H18A 3580   2.604   4.400   3.500 -2.4392 -0.8032 -1.5432
   49CHL1  H18B 3581   2.714   4.424   3.364 -0.2931  0.7759 -0.1894
   49CHL1  H18C 3582   2.708   4.543   3.484  1.5029 -1.3127  1.0269
   49CHL1   C12 3583   2.414   4.453   3.278  0.8187 -0.4663 -0.2959
   49CHL1  H12A 3584   2.399   4.362   3.340  0.2797  0.8897  1.6639
   49CHL1  H12B 3585   2.321   4.511   3.261  0.7860 -0.1843  0.7335
   49CHL1   C11 3586   2.485   4.422   3.144  0.0263 -0.2216 -0.5399
   49CHL1  H11A 3587   2.557   4.340   3.166 -0.0490 -0.3045 -0.6063
   49CHL1  H11B 3588   2.407   4.383   3.077  0.0847 -1.2232 -0.0399
   49CHL1    C9 3589   2.543   4.553   3.076 -0.1285 -0.2438  0.1458
   49CHL1    H9 3590   2.459   4.623   3.057  0.6190  0.6986  0.2197
   49CHL1   C10 3591   2.622   4.526   2.943  0.1921 -0.5585  0.7328
   49CHL1   C19 3592   2.719   4.413   2.965 -0.3608  0.5409 -0.8296
   49CHL1  H19A 3593   2.793   4.384   2.888  2.2853 -0.3688  1.8453
   49CHL1  H19B 3594   2.789   4.438   3.048  1.2259  2.2733 -2.5889
   49CHL1  H19C 3595   2.678   4.314   2.992  2.6039 -1.0302 -1.6938
   49CHL1    C1 3596   2.509   4.497   2.840 -0.3204  0.3997  0.0340
   49CHL1   H1A 3597   2.450   4.404   2.855  0.1588 -0.2289 -1.6482
   49CHL1   H1B 3598   2.441   4.585   2.839  1.6471  2.0134  0.6374
   49CHL1    C2 3599   2.553   4.459   2.695 -0.7158 -0.1113 -0.8069
   49CHL1   H2A 3600   2.461   4.465   2.633 -0.7536 -0.1372 -0.7538
   49CHL1   H2B 3601   2.608   4.365   2.674  0.3089  0.1931  0.3918
   49CHL1   C20 3602   2.410   4.533   3.631  0.5948 -0.1601  0.4584
   49CHL1   H20 3603   2.502   4.483   3.669  1.4319  1.7458  1.0652
   49CHL1   C21 3604   2.301   4.428   3.605  0.3197  0.2148  0.0274
   49CHL1  H21A 3605   2.230   4.470   3.530  1.6813  2.1392 -0.2693
   49CHL1  H21B 3606   2.260   4.399   3.704  0.4739 -0.4061 -0.0841
   49CHL1  H21C 3607   2.347   4.342   3.552 -0.8436 -0.8210  0.6451
   49CHL1   C22 3608   2.350   4.627   3.745 -0.2608 -0.0211  0.1294
   49CHL1  H22A 3609   2.423   4.711   3.747 -0.2748  0.0057 -0.4644
   49CHL1  H22B 3610   2.249   4.669   3.728 -0.2238  1.3450  2.7611
   49CHL1   C23 3611   2.339   4.563   3.880 -0.2865  0.1307 -0.2531
   49CHL1  H23A 3612   2.253   4.492   3.888 -0.4813  0.5330  1.6637
   49CHL1  H23B 3613   2.435   4.512   3.901 -0.3914  1.1327  3.3526
   49CHL1   C24 3614   2.324   4.661   3.999  0.1128 -0.3532  0.8958
   49CHL1  H24A 3615   2.389   4.750   3.988 -2.3383  1.6549  1.7275
   49CHL1  H24B 3616   2.218   4.693   4.001  0.1343 -0.0380 -1.0978
   49CHL1   C25 3617   2.353   4.594   4.136  0.6411 -0.3543 -0.5507
   49CHL1   H25 3618   2.454   4.549   4.129  1.7729  1.9210  0.3447
   49CHL1   C26 3619   2.361   4.699   4.247 -0.0938  0.0869  0.2428
   49CHL1  H26A 3620   2.400   4.639   4.332  0.2729 -0.6450 -0.4304
   49CHL1  H26B 3621   2.424   4.785   4.215  0.1794 -0.2275 -0.0732
   49CHL1  H26C 3622   2.262   4.737   4.281 -1.1737 -0.7614 -1.8066
   49CHL1   C27 3623   2.254   4.483   4.171  0.6617  0.2531  0.6940
   49CHL1  H27A 3624   2.263   4.438   4.273  1.6556  1.8703  1.3698
   49CHL1  H27B 3625   2.153   4.529   4.162  0.9758  0.7472 -0.4513
   49CHL1  H27C 3626   2.253   4.400   4.098 -2.8349  0.2443  0.6071
   50CHL1    C3 3627   1.483   0.009   2.679 -0.3899 -0.4239  0.1324
   50CHL1    H3 3628   1.442  -0.084   2.724  0.2955  0.1675  2.0746
   50CHL1    O3 3629   1.451   0.015   2.544  0.3770  0.2502 -0.1397
   50CHL1   H3' 3630   1.448   0.108   2.523 -1.9602 -0.1110 -1.9126
   50CHL1    C4 3631   1.431   0.143   2.741 -0.0910  0.9259 -0.5613
   50CHL1   H4A 3632   1.493   0.228   2.704  0.6508  0.1444 -1.1335
   50CHL1   H4B 3633   1.324   0.152   2.712 -1.1678 -1.0597  2.2984
   50CHL1    C5 3634   1.456   0.143   2.891 -0.6953 -0.1126  0.4170
   50CHL1    C6 3635   1.354   0.145   2.976  0.5928 -0.1370 -0.2379
   50CHL1    H6 3636   1.257   0.172   2.933  0.7404  0.4095 -0.2285
   50CHL1    C7 3637   1.357   0.135   3.128  1.1307 -0.6347  0.0982
   50CHL1   H7A 3638   1.287   0.208   3.174  0.9943 -1.3369  1.0544
   50CHL1   H7B 3639   1.310   0.039   3.161 -0.0360  0.2426  1.0780
   50CHL1    C8 3640   1.509   0.139   3.169 -0.4115 -0.2029 -0.0572
   50CHL1    H8 3641   1.537   0.246   3.159  0.1383 -0.4646 -1.6432
   50CHL1   C14 3642   1.522   0.089   3.311  0.2309 -0.1670  0.6107
   50CHL1   H14 3643   1.512  -0.022   3.306  1.9378 -0.2959 -0.9605
   50CHL1   C15 3644   1.415   0.125   3.406  0.1974 -0.1152 -0.1116
   50CHL1  H15A 3645   1.389   0.233   3.408  0.4168 -0.0383 -0.9826
   50CHL1  H15B 3646   1.320   0.068   3.401  0.5462 -0.6692 -5.2241
   50CHL1   C16 3647   1.477   0.105   3.545  0.1395 -0.6012 -0.6507
   50CHL1  H16A 3648   1.478   0.204   3.595 -0.9681  1.3297 -4.0918
   50CHL1  H16B 3649   1.440   0.024   3.610  2.5936 -1.6410 -0.4357
   50CHL1   C17 3650   1.625   0.060   3.521 -0.2095 -0.8685  0.1194
   50CHL1   H17 3651   1.626  -0.051   3.521  1.5456 -0.8877  0.6016
   50CHL1   C13 3652   1.656   0.113   3.385  0.1098 -0.2339 -0.1547
   50CHL1   C18 3653   1.686   0.265   3.391  0.1170 -0.0286 -0.7023
   50CHL1  H18A 3654   1.791   0.271   3.428 -0.0026  0.0804 -0.3816
   50CHL1  H18B 3655   1.684   0.304   3.287 -1.1043 -2.1324 -1.5331
   50CHL1  H18C 3656   1.624   0.325   3.461 -0.2181 -2.5758  1.3221
   50CHL1   C12 3657   1.763   0.036   3.298  0.3415 -0.2580 -0.4330
   50CHL1  H12A 3658   1.863   0.051   3.342 -0.7479  1.0394  1.7854
   50CHL1  H12B 3659   1.733  -0.071   3.293 -3.0174  0.6049 -1.8008
   50CHL1   C11 3660   1.758   0.084   3.150 -0.3837  0.2839  0.2226
   50CHL1  H11A 3661   1.788   0.190   3.141  1.0579  0.0552  1.8376
   50CHL1  H11B 3662   1.826   0.020   3.091 -0.2934 -0.3977  1.0427
   50CHL1    C9 3663   1.614   0.062   3.084  0.7998 -0.2777 -0.0719
   50CHL1    H9 3664   1.585  -0.045   3.097 -1.8341  0.4652  0.7441
   50CHL1   C10 3665   1.604   0.108   2.933  0.1999 -0.4205 -0.4318
   50CHL1   C19 3666   1.673   0.240   2.918 -0.2757 -0.0654 -0.2981
   50CHL1  H19A 3667   1.782   0.236   2.940 -0.5105  0.8800  1.1908
   50CHL1  H19B 3668   1.670   0.271   2.811  0.1752  0.2601 -0.2195
   50CHL1  H19C 3669   1.624   0.322   2.974 -0.2671  0.5341 -1.1472
   50CHL1    C1 3670   1.669   0.001   2.845 -0.0553 -0.1912  0.2058
   50CHL1   H1A 3671   1.778  -0.004   2.864  0.1760  4.4166  1.2795
   50CHL1   H1B 3672   1.637  -0.100   2.876  1.6263 -0.6035  0.7330
   50CHL1    C2 3673   1.637   0.003   2.689  0.5453 -0.0669 -0.4440
   50CHL1   H2A 3674   1.678  -0.089   2.643  1.8044  1.4042 -2.4373
   50CHL1   H2B 3675   1.679   0.096   2.646 -2.8213  2.2983  0.9291
   50CHL1   C20 3676   1.726   0.099   3.638 -0.1875  0.2882  0.1124
   50CHL1   H20 3677   1.730   0.210   3.634 -0.6494  0.3423  0.9725
   50CHL1   C21 3678   1.868   0.055   3.616 -0.3704  0.8621  0.2386
   50CHL1  H21A 3679   1.876  -0.055   3.603 -0.4018  0.8094  0.6352
   50CHL1  H21B 3680   1.942   0.082   3.694  1.6405  1.5736 -1.8178
   50CHL1  H21C 3681   1.914   0.106   3.529 -1.0998  0.4886 -0.3822
   50CHL1   C22 3682   1.671   0.040   3.766  0.1021  0.1512  0.6664
   50CHL1  H22A 3683   1.585   0.103   3.794  1.9366  3.1684 -0.0361
   50CHL1  H22B 3684   1.645  -0.068   3.767 -3.2293  0.8586  2.0790
   50CHL1   C23 3685   1.766   0.077   3.884 -0.1801  0.5498  0.2913
   50CHL1  H23A 3686   1.864   0.026   3.883  0.6602  2.0624 -2.1909
   50CHL1  H23B 3687   1.791   0.185   3.883 -0.1630  0.5505 -0.9830
   50CHL1   C24 3688   1.710   0.043   4.025  0.0684 -0.3170 -0.1872
   50CHL1  H24A 3689   1.792   0.069   4.095  0.5217  0.1708 -0.8984
   50CHL1  H24B 3690   1.621   0.097   4.063  0.2007 -1.0842  1.3239
   50CHL1   C25 3691   1.678  -0.107   4.051 -0.2034  0.4031  0.4232
   50CHL1   H25 3692   1.606  -0.143   3.974  0.3256 -1.3997  0.7238
   50CHL1   C26 3693   1.807  -0.197   4.027 -0.0534  0.1195  0.1178
   50CHL1  H26A 3694   1.878  -0.194   4.113 -0.7527  2.1207  0.6771
   50CHL1  H26B 3695   1.782  -0.305   4.026  0.5691 -0.0495  0.9775
   50CHL1  H26C 3696   1.866  -0.174   3.936 -0.0849 -0.4538 -0.0512
   50CHL1   C27 3697   1.605  -0.127   4.189  0.3319 -0.8586  0.2768
   50CHL1  H27A 3698   1.672  -0.116   4.277 -2.7480 -0.0638  2.6693
   50CHL1  H27B 3699   1.522  -0.053   4.187  0.9078 -0.1423 -2.5989
   50CHL1  H27C 3700   1.563  -0.229   4.194  0.8681 -1.0637  0.6650
   51CHL1    C3 3701   2.055   3.410   3.000 -0.3104  1.0345  0.2183
   51CHL1    H3 3702   1.963   3.464   3.032 -0.4448  1.4043 -0.7674
   51CHL1    O3 3703   2.041   3.385   2.861  0.2701 -0.2099 -0.7489
   51CHL1   H3' 3704   2.119   3.331   2.847 -0.2725 -0.6060 -2.5691
   51CHL1    C4 3705   2.180   3.489   3.021 -0.2065  0.1990 -0.3755
   51CHL1   H4A 3706   2.254   3.433   2.960  0.3627  0.3190  0.1967
   51CHL1   H4B 3707   2.170   3.579   2.957 -0.6225 -0.5413 -1.3858
   51CHL1    C5 3708   2.219   3.508   3.164  0.3391  1.1292  0.1951
   51CHL1    C6 3709   2.236   3.634   3.206  0.1566  0.0035 -0.4071
   51CHL1    H6 3710   2.232   3.715   3.132 -2.9047 -2.7280 -3.6210
   51CHL1    C7 3711   2.271   3.661   3.353  0.3576 -0.4278  0.3137
   51CHL1   H7A 3712   2.346   3.742   3.343  1.8452 -1.6175  1.3700
   51CHL1   H7B 3713   2.182   3.689   3.414  0.2974 -0.6575  0.3304
   51CHL1    C8 3714   2.334   3.529   3.416  0.0204 -0.4154  0.7984
   51CHL1    H8 3715   2.428   3.511   3.359  0.1094 -0.4443  0.9525
   51CHL1   C14 3716   2.352   3.549   3.568  0.0302  0.2431 -0.4449
   51CHL1   H14 3717   2.250   3.556   3.613  1.3370 -1.1969  3.1441
   51CHL1   C15 3718   2.407   3.676   3.628 -0.1522 -0.6514  0.2276
   51CHL1  H15A 3719   2.492   3.714   3.568 -0.0913 -1.2178 -0.0493
   51CHL1  H15B 3720   2.325   3.751   3.631  0.5894  0.1558  1.8518
   51CHL1   C16 3721   2.444   3.641   3.765 -0.2988  0.1775 -0.1914
   51CHL1  H16A 3722   2.551   3.661   3.787  0.3046 -1.0947 -1.7041
   51CHL1  H16B 3723   2.398   3.706   3.842  0.4016 -1.6751  1.8726
   51CHL1   C17 3724   2.406   3.495   3.791  0.5262 -0.0632  0.3400
   51CHL1   H17 3725   2.300   3.489   3.823 -0.8686 -2.0979 -3.9082
   51CHL1   C13 3726   2.399   3.430   3.651 -0.2815 -0.5343  0.6320
   51CHL1   C18 3727   2.542   3.391   3.606  0.3818 -0.2264  0.2063
   51CHL1  H18A 3728   2.602   3.484   3.614  1.0531 -0.5602 -0.7186
   51CHL1  H18B 3729   2.574   3.318   3.683  0.8451  0.3068  0.5280
   51CHL1  H18C 3730   2.547   3.362   3.499  0.9117 -2.5364  0.8043
   51CHL1   C12 3731   2.292   3.325   3.628  0.0053  0.4078 -0.0933
   51CHL1  H12A 3732   2.317   3.227   3.674 -1.6404  0.2328  0.5194
   51CHL1  H12B 3733   2.194   3.363   3.664 -0.1975 -0.5489  0.3785
   51CHL1   C11 3734   2.265   3.290   3.486  0.4954  0.2130  0.1405
   51CHL1  H11A 3735   2.349   3.232   3.441  0.8103  0.7485  0.0314
   51CHL1  H11B 3736   2.177   3.222   3.490  0.9393 -0.3306  1.0865
   51CHL1    C9 3737   2.235   3.408   3.388  0.0936  0.1349  0.0732
   51CHL1    H9 3738   2.133   3.432   3.425  0.4349  0.6980  0.6755
   51CHL1   C10 3739   2.228   3.375   3.246  0.7224  0.4434 -0.8430
   51CHL1   C19 3740   2.360   3.302   3.194  0.0763  0.0628 -0.1472
   51CHL1  H19A 3741   2.355   3.276   3.086  1.5472 -2.3455  0.2978
   51CHL1  H19B 3742   2.442   3.376   3.198 -1.9218  2.4912 -1.1433
   51CHL1  H19C 3743   2.379   3.208   3.251  0.0092 -0.3453 -0.7965
   51CHL1    C1 3744   2.109   3.284   3.218 -0.2394  0.2742  0.5281
   51CHL1   H1A 3745   2.118   3.185   3.268 -0.9780  0.6631  1.4581
   51CHL1   H1B 3746   2.016   3.329   3.259 -0.7483  0.0739 -0.3766
   51CHL1    C2 3747   2.077   3.267   3.067  0.6525  0.7595  0.1963
   51CHL1   H2A 3748   1.988   3.205   3.046  0.1540  1.3856  0.4482
   51CHL1   H2B 3749   2.172   3.240   3.015 -0.3309  0.5923 -1.6100
   51CHL1   C20 3750   2.481   3.423   3.907 -0.3588 -0.2323 -0.0689
   51CHL1   H20 3751   2.588   3.413   3.877 -0.5816 -0.3288 -0.8629
   51CHL1   C21 3752   2.426   3.281   3.919 -0.4261 -0.0129  0.4692
   51CHL1  H21A 3753   2.317   3.260   3.919  0.1243 -3.4139 -0.9783
   51CHL1  H21B 3754   2.450   3.238   4.018 -0.5729 -0.7079  0.2039
   51CHL1  H21C 3755   2.476   3.212   3.848  1.7276  1.4266  0.4761
   51CHL1   C22 3756   2.477   3.505   4.046 -0.1853 -1.0762  0.1639
   51CHL1  H22A 3757   2.473   3.614   4.029 -1.3855 -1.4632 -2.5825
   51CHL1  H22B 3758   2.389   3.468   4.102  0.0603 -0.8921  0.6767
   51CHL1   C23 3759   2.608   3.481   4.127  0.4295 -0.2109  0.1018
   51CHL1  H23A 3760   2.616   3.378   4.166 -1.0344 -0.4918 -0.2804
   51CHL1  H23B 3761   2.691   3.493   4.054  1.0139 -0.8019  0.6579
   51CHL1   C24 3762   2.630   3.591   4.232 -0.0778  0.6736  0.4248
   51CHL1  H24A 3763   2.578   3.685   4.206 -0.6767  0.4551  0.8242
   51CHL1  H24B 3764   2.580   3.555   4.325 -0.3864  0.2935  0.1201
   51CHL1   C25 3765   2.777   3.620   4.275  0.7638 -0.1996  0.3818
   51CHL1   H25 3766   2.846   3.629   4.188  0.9557  0.6667  0.6075
   51CHL1   C26 3767   2.785   3.773   4.323 -0.2067  0.3986  1.0540
   51CHL1  H26A 3768   2.771   3.832   4.229 -1.1579 -2.4724 -0.7524
   51CHL1  H26B 3769   2.714   3.786   4.407  2.0022 -0.5656  3.1841
   51CHL1  H26C 3770   2.889   3.788   4.358 -0.3730  0.2114  1.6229
   51CHL1   C27 3771   2.833   3.530   4.385 -0.0650  0.4915  0.4018
   51CHL1  H27A 3772   2.764   3.531   4.472 -2.2978 -0.7986 -1.2226
   51CHL1  H27B 3773   2.826   3.426   4.346  0.0057  0.3811  0.6791
   51CHL1  H27C 3774   2.936   3.552   4.421  0.2764 -3.1167  2.0866
   52CHL1    C3 3775   5.836   5.507   2.802 -0.0623 -0.1250  0.2154
   52CHL1    H3 3776   5.769   5.586   2.841 -2.7817 -1.3867 -1.5844
   52CHL1    O3 3777   5.801   5.481   2.664 -0.3383 -0.0791 -0.0348
   52CHL1   H3' 3778   5.855   5.408   2.636 -1.0170 -0.9235  0.7876
   52CHL1    C4 3779   5.989   5.534   2.822  0.3915  0.2307  0.1403
   52CHL1   H4A 3780   6.042   5.447   2.778  0.0316 -0.3427  0.8107
   52CHL1   H4B 3781   6.022   5.614   2.753  1.3557 -0.0734  0.2444
   52CHL1    C5 3782   6.023   5.562   2.970 -0.1250 -0.1094 -0.0207
   52CHL1    C6 3783   6.083   5.674   3.004  0.9024 -0.2045  0.1501
   52CHL1    H6 3784   6.099   5.753   2.929 -1.7545  0.4287  0.1433
   52CHL1    C7 3785   6.121   5.711   3.144 -0.2552 -0.5412 -0.3744
   52CHL1   H7A 3786   6.224   5.753   3.148 -0.9323  1.1143  0.8028
   52CHL1   H7B 3787   6.049   5.789   3.177 -0.2500  0.9195 -3.4828
   52CHL1    C8 3788   6.130   5.577   3.235  0.0505 -0.5387  0.3218
   52CHL1    H8 3789   6.225   5.526   3.209  1.0411  1.8487 -1.0730
   52CHL1   C14 3790   6.152   5.612   3.382  0.4623  0.1272 -0.0110
   52CHL1   H14 3791   6.061   5.670   3.409  0.6933  0.6599 -0.3649
   52CHL1   C15 3792   6.262   5.711   3.419 -0.2686 -0.0393  0.2781
   52CHL1  H15A 3793   6.349   5.678   3.358 -0.1939 -0.4342  0.5882
   52CHL1  H15B 3794   6.238   5.816   3.394  0.6040  0.1567  0.2262
   52CHL1   C16 3795   6.286   5.680   3.567  0.2721 -0.0512 -0.2405
   52CHL1  H16A 3796   6.385   5.643   3.603  0.1181 -0.2969 -0.0744
   52CHL1  H16B 3797   6.272   5.768   3.633 -2.3279 -0.4823 -0.1380
   52CHL1   C17 3798   6.183   5.568   3.601  0.0269 -0.6054 -0.1485
   52CHL1   H17 3799   6.095   5.627   3.632  1.1505  1.3661 -0.5197
   52CHL1   C13 3800   6.165   5.494   3.474  0.0732 -0.0231 -0.2252
   52CHL1   C18 3801   6.283   5.410   3.442 -0.1033  0.4909  0.0144
   52CHL1  H18A 3802   6.283   5.361   3.342 -0.0605 -0.4699  0.4741
   52CHL1  H18B 3803   6.378   5.468   3.445  0.2487 -0.0775  0.0188
   52CHL1  H18C 3804   6.288   5.324   3.512  0.1792  0.2238 -0.3315
   52CHL1   C12 3805   6.034   5.419   3.458  0.0152  0.0191 -0.1684
   52CHL1  H12A 3806   6.027   5.334   3.529  0.0262  0.0479 -0.1322
   52CHL1  H12B 3807   5.949   5.490   3.472  0.2568  0.5887 -1.4426
   52CHL1   C11 3808   6.007   5.373   3.317  0.1273 -0.6429 -0.0608
   52CHL1  H11A 3809   6.092   5.303   3.298  1.6843  0.9697  0.6298
   52CHL1  H11B 3810   5.904   5.333   3.310 -0.7701  1.4084  0.8981
   52CHL1    C9 3811   6.012   5.480   3.210 -0.7261 -0.9536 -0.1673
   52CHL1    H9 3812   5.939   5.562   3.229  0.6480  0.0973  0.8244
   52CHL1   C10 3813   5.993   5.440   3.060  0.4695 -0.3037 -0.1614
   52CHL1   C19 3814   6.093   5.333   3.034 -0.4679  0.3026 -0.0574
   52CHL1  H19A 3815   6.119   5.321   2.926  0.7490  0.4840  0.1999
   52CHL1  H19B 3816   6.188   5.354   3.088 -1.0660 -0.7035  1.4304
   52CHL1  H19C 3817   6.068   5.237   3.085 -0.6253  0.5006  0.2408
   52CHL1    C1 3818   5.841   5.398   3.040 -0.7356  0.0377  0.1151
   52CHL1   H1A 3819   5.822   5.304   3.095  1.3946 -0.4056  0.1785
   52CHL1   H1B 3820   5.772   5.481   3.069  0.0327  0.9823 -0.6753
   52CHL1    C2 3821   5.804   5.379   2.889  0.0489  0.1451 -0.1648
   52CHL1   H2A 3822   5.700   5.345   2.873  0.2083 -1.0236  1.1314
   52CHL1   H2B 3823   5.871   5.301   2.847  0.5201  1.1424 -1.3267
   52CHL1   C20 3824   6.230   5.495   3.733  0.9895  0.3056 -1.2379
   52CHL1   H20 3825   6.324   5.439   3.713  0.0904 -1.9199  0.2818
   52CHL1   C21 3826   6.129   5.394   3.774  0.4762 -0.0201 -0.3027
   52CHL1  H21A 3827   6.112   5.310   3.702 -2.7431  0.5908 -0.3771
   52CHL1  H21B 3828   6.034   5.445   3.800  0.5379  0.0600 -0.2341
   52CHL1  H21C 3829   6.168   5.345   3.865 -0.2769 -0.7715 -0.3709
   52CHL1   C22 3830   6.271   5.593   3.853 -0.5523 -0.6502 -0.2302
   52CHL1  H22A 3831   6.301   5.538   3.945 -1.6194  2.0420  1.8637
   52CHL1  H22B 3832   6.363   5.650   3.830 -0.7564 -1.1047 -2.4013
   52CHL1   C23 3833   6.159   5.683   3.905 -0.5536 -0.0188 -0.2246
   52CHL1  H23A 3834   6.158   5.777   3.846  3.3282  0.1545 -0.2686
   52CHL1  H23B 3835   6.060   5.635   3.891 -0.3587 -0.3410 -0.5175
   52CHL1   C24 3836   6.191   5.712   4.058 -0.0955 -0.5615 -0.3307
   52CHL1  H24A 3837   6.202   5.615   4.111  0.7958 -0.3425 -0.0922
   52CHL1  H24B 3838   6.288   5.765   4.069 -1.6589  2.4612 -0.0739
   52CHL1   C25 3839   6.080   5.788   4.129 -0.2281 -0.2527  0.0966
   52CHL1   H25 3840   5.982   5.758   4.086 -0.0594 -0.4044 -0.1767
   52CHL1   C26 3841   6.080   5.754   4.278 -0.3711  0.3877  0.1168
   52CHL1  H26A 3842   6.031   5.829   4.345  0.1753 -0.1565  1.1372
   52CHL1  H26B 3843   6.038   5.653   4.294  0.5039 -0.1239 -0.7579
   52CHL1  H26C 3844   6.179   5.761   4.328 -1.0272  2.0777  1.3143
   52CHL1   C27 3845   6.089   5.946   4.097  0.3730 -0.4527 -0.3539
   52CHL1  H27A 3846   6.055   5.959   3.992 -2.4431 -0.8211  0.4079
   52CHL1  H27B 3847   6.009   6.002   4.150 -0.7901 -2.2487 -0.1088
   52CHL1  H27C 3848   6.187   5.992   4.119  0.0808  0.1498 -0.3091
   53CHL1    C3 3849   3.685   3.891   3.184 -0.1141  0.3484  0.5741
   53CHL1    H3 3850   3.579   3.924   3.190  0.9882  5.1058 -1.1689
   53CHL1    O3 3851   3.711   3.886   3.042 -0.0185 -0.6257 -0.1005
   53CHL1   H3' 3852   3.664   3.810   3.008  0.1844 -1.7716  1.9959
   53CHL1    C4 3853   3.768   4.013   3.229  0.0393  0.0739 -0.1636
   53CHL1   H4A 3854   3.871   3.983   3.203  0.3748 -0.5316  1.7116
   53CHL1   H4B 3855   3.729   4.106   3.182  1.0394  1.0009  0.7875
   53CHL1    C5 3856   3.761   4.035   3.380  0.4242  0.0074 -0.3288
   53CHL1    C6 3857   3.712   4.147   3.443  0.3272 -0.0941  1.1620
   53CHL1    H6 3858   3.693   4.236   3.381 -0.4581 -0.3655  1.0103
   53CHL1    C7 3859   3.697   4.168   3.588  0.5616 -0.4709  0.0246
   53CHL1   H7A 3860   3.731   4.272   3.604 -3.4030  1.3991 -2.1581
   53CHL1   H7B 3861   3.588   4.165   3.613 -0.4703  1.1736 -3.5199
   53CHL1    C8 3862   3.767   4.062   3.675  0.1208 -0.0859 -0.1987
   53CHL1    H8 3863   3.876   4.084   3.668  0.1480 -0.2915 -0.4295
   53CHL1   C14 3864   3.696   4.069   3.813 -0.0888  0.1399  0.2872
   53CHL1   H14 3865   3.586   4.059   3.800  0.0033 -1.8711  0.7696
   53CHL1   C15 3866   3.689   4.204   3.888  0.3697 -0.1792 -0.3838
   53CHL1  H15A 3867   3.793   4.243   3.887  0.3950 -0.1598  1.3045
   53CHL1  H15B 3868   3.616   4.276   3.844  0.4736 -1.1717 -2.3020
   53CHL1   C16 3869   3.660   4.166   4.039 -0.3471  0.3246  0.2128
   53CHL1  H16A 3870   3.730   4.213   4.112  0.0987  1.8313 -1.1436
   53CHL1  H16B 3871   3.554   4.197   4.049 -0.2407  0.2065  2.0634
   53CHL1   C17 3872   3.660   4.005   4.044  0.1426 -0.1031 -0.7824
   53CHL1   H17 3873   3.557   3.966   4.035  0.2688 -0.8913  0.7777
   53CHL1   C13 3874   3.739   3.967   3.917  0.5555  0.0973 -0.2312
   53CHL1   C18 3875   3.889   3.980   3.932 -0.5397 -0.6751 -0.6574
   53CHL1  H18A 3876   3.933   3.895   3.988  2.7723  0.4090 -1.4155
   53CHL1  H18B 3877   3.941   3.979   3.834 -3.7981 -4.7981 -2.6999
   53CHL1  H18C 3878   3.913   4.073   3.988 -0.7535 -0.9013 -0.1932
   53CHL1   C12 3879   3.706   3.830   3.846 -0.2922  0.7213  0.3048
   53CHL1  H12A 3880   3.734   3.742   3.906  0.8228 -0.6035 -2.0151
   53CHL1  H12B 3881   3.595   3.829   3.843 -0.2740 -0.4960 -1.2623
   53CHL1   C11 3882   3.769   3.810   3.702 -0.1956  0.4772  0.0302
   53CHL1  H11A 3883   3.879   3.819   3.719 -0.1717 -0.7106  0.6601
   53CHL1  H11B 3884   3.750   3.706   3.669  1.6480  0.3139 -0.6159
   53CHL1    C9 3885   3.733   3.926   3.608 -0.8087 -0.5153  0.1548
   53CHL1    H9 3886   3.622   3.920   3.610 -0.7601 -1.7904  2.3156
   53CHL1   C10 3887   3.786   3.911   3.463 -0.2980  0.4152 -0.7046
   53CHL1   C19 3888   3.936   3.894   3.465 -0.1505  0.2866 -0.2839
   53CHL1  H19A 3889   3.981   3.883   3.364  2.2901  0.3710  0.7214
   53CHL1  H19B 3890   3.989   3.976   3.520 -0.8156  1.1224 -0.8626
   53CHL1  H19C 3891   3.968   3.801   3.517 -1.0500 -0.2531 -0.6941
   53CHL1    C1 3892   3.723   3.778   3.412  0.6154  0.1709 -0.1482
   53CHL1   H1A 3893   3.775   3.692   3.458  0.6526  0.3344  0.1162
   53CHL1   H1B 3894   3.617   3.768   3.445  1.1138  2.3446  2.4352
   53CHL1    C2 3895   3.727   3.763   3.258 -0.3079 -0.0210  0.3376
   53CHL1   H2A 3896   3.657   3.684   3.223 -1.3325  0.2613  1.6329
   53CHL1   H2B 3897   3.835   3.746   3.241 -0.1399  1.0127  0.2741
   53CHL1   C20 3898   3.700   3.949   4.179 -0.6421 -1.2179 -0.4000
   53CHL1   H20 3899   3.801   3.992   4.199 -1.7037  1.3306 -0.1407
   53CHL1   C21 3900   3.675   3.798   4.171 -0.1247 -0.0200 -0.3003
   53CHL1  H21A 3901   3.640   3.752   4.265 -1.4342  1.3741 -0.0675
   53CHL1  H21B 3902   3.763   3.740   4.134  0.2170  0.0658  0.3666
   53CHL1  H21C 3903   3.587   3.767   4.111 -0.9605  0.8003  0.4780
   53CHL1   C22 3904   3.613   4.013   4.292 -0.7137  0.4622  0.2275
   53CHL1  H22A 3905   3.607   4.122   4.273 -1.2512  0.5578  0.8969
   53CHL1  H22B 3906   3.513   3.964   4.283 -0.1674 -0.8670  1.1125
   53CHL1   C23 3907   3.666   3.997   4.427 -1.5316  0.4650 -0.1209
   53CHL1  H23A 3908   3.672   3.887   4.440 -0.1103  0.2389 -2.2240
   53CHL1  H23B 3909   3.775   4.021   4.435 -1.0252 -2.0435  1.8823
   53CHL1   C24 3910   3.581   4.053   4.546 -0.3865  0.1690  0.2371
   53CHL1  H24A 3911   3.535   4.149   4.513  1.1461  0.4052 -1.3792
   53CHL1  H24B 3912   3.485   3.998   4.556  0.1572 -0.7428  0.6417
   53CHL1   C25 3913   3.655   4.059   4.682 -0.3382 -0.2474 -0.2140
   53CHL1   H25 3914   3.753   4.110   4.677  0.3532 -1.3731  1.3196
   53CHL1   C26 3915   3.572   4.127   4.792  0.4259  0.2613 -0.1935
   53CHL1  H26A 3916   3.632   4.123   4.885 -0.3614 -3.2776  0.3266
   53CHL1  H26B 3917   3.547   4.231   4.761 -1.1929  0.5511  1.8487
   53CHL1  H26C 3918   3.480   4.067   4.809  1.5307 -1.3762  0.2644
   53CHL1   C27 3919   3.688   3.915   4.726  0.1696  0.4954  0.9512
   53CHL1  H27A 3920   3.759   3.862   4.659  0.3276  2.0434 -0.1384
   53CHL1  H27B 3921   3.739   3.922   4.824 -0.2036 -2.5612  1.4642
   53CHL1  H27C 3922   3.597   3.852   4.737 -0.1181  0.5651 -0.8371
   54CHL1    C3 3923   3.250   4.730   2.769  0.7665  0.3997  0.1450
   54CHL1    H3 3924   3.304   4.637   2.799  0.4938 -0.1467 -1.0153
   54CHL1    O3 3925   3.247   4.739   2.626  0.1568 -0.0537 -0.4842
   54CHL1   H3' 3926   3.212   4.655   2.596 -0.0008 -0.2027  0.1039
   54CHL1    C4 3927   3.106   4.718   2.821  0.1624  0.2154  0.0030
   54CHL1   H4A 3928   3.044   4.796   2.773 -0.3639  0.2722  0.7534
   54CHL1   H4B 3929   3.052   4.632   2.778  1.0548  0.1105 -0.9549
   54CHL1    C5 3930   3.104   4.725   2.971 -0.1997  0.0973  0.2293
   54CHL1    C6 3931   3.064   4.618   3.043 -0.3496  0.4954 -0.7731
   54CHL1    H6 3932   3.040   4.523   2.993 -0.6002  0.1160  0.0503
   54CHL1    C7 3933   3.064   4.621   3.195  0.2624 -0.5570 -0.0169
   54CHL1   H7A 3934   2.965   4.593   3.238  0.1267  1.6156  1.2388
   54CHL1   H7B 3935   3.140   4.553   3.239  0.5644 -1.4341 -1.7992
   54CHL1    C8 3936   3.075   4.766   3.251  0.5895  0.2301  0.3272
   54CHL1    H8 3937   2.976   4.810   3.224  0.1997 -0.1508  1.0990
   54CHL1   C14 3938   3.092   4.769   3.399 -0.3539 -0.0292  0.4424
   54CHL1   H14 3939   3.189   4.716   3.408 -0.9682 -1.3391 -0.3728
   54CHL1   C15 3940   2.990   4.696   3.488  0.5540  0.7194  0.2369
   54CHL1  H15A 3941   2.889   4.724   3.452  1.2311  3.1727 -0.0065
   54CHL1  H15B 3942   2.997   4.586   3.479  2.0304  0.6782  1.3777
   54CHL1   C16 3943   3.015   4.743   3.630  0.7660 -0.0766  0.9392
   54CHL1  H16A 3944   2.926   4.767   3.693  1.0310  0.4202  1.1247
   54CHL1  H16B 3945   3.064   4.663   3.690  0.5029 -1.2772 -0.3891
   54CHL1   C17 3946   3.103   4.863   3.612 -0.6696 -0.1461  0.5807
   54CHL1   H17 3947   3.207   4.824   3.615 -0.2059  0.8134 -1.4329
   54CHL1   C13 3948   3.103   4.906   3.459 -0.3636  0.2115  0.8411
   54CHL1   C18 3949   2.962   4.980   3.447 -0.2689 -0.4124  0.1886
   54CHL1  H18A 3950   2.978   5.083   3.487  2.1159 -1.2450  1.6210
   54CHL1  H18B 3951   2.937   4.987   3.339  0.4019  0.5841  0.0876
   54CHL1  H18C 3952   2.883   4.925   3.504  1.5352 -2.1652  1.1490
   54CHL1   C12 3953   3.219   4.983   3.400 -0.1989  0.5931  0.3476
   54CHL1  H12A 3954   3.231   5.086   3.441 -0.2270  0.4964  0.6019
   54CHL1  H12B 3955   3.312   4.928   3.427 -1.9864 -2.2277  1.1594
   54CHL1   C11 3956   3.197   4.993   3.243 -0.0736  0.4804  0.3521
   54CHL1  H11A 3957   3.114   5.063   3.219 -0.9877 -0.2886  1.1699
   54CHL1  H11B 3958   3.284   5.037   3.189 -1.0480  2.0974  0.0359
   54CHL1    C9 3959   3.177   4.854   3.184 -0.7862 -0.0372  0.5536
   54CHL1    H9 3960   3.277   4.811   3.206 -0.6780  0.6505  1.4836
   54CHL1   C10 3961   3.166   4.852   3.033 -0.3995  0.5676  0.4880
   54CHL1   C19 3962   3.080   4.968   2.987  0.1596  0.1599 -0.0474
   54CHL1  H19A 3963   3.063   4.959   2.878 -1.2985 -1.1358  0.2468
   54CHL1  H19B 3964   2.980   4.974   3.036  0.9916 -0.3056  1.7784
   54CHL1  H19C 3965   3.136   5.063   2.997  1.2178 -0.5955  1.7383
   54CHL1    C1 3966   3.311   4.863   2.975 -0.1240 -0.3083 -0.0091
   54CHL1   H1A 3967   3.363   4.957   3.005  0.9125  0.7509 -4.3667
   54CHL1   H1B 3968   3.376   4.781   3.012  1.3183  0.6503 -0.3462
   54CHL1    C2 3969   3.325   4.852   2.825 -0.7060 -0.1568  0.7091
   54CHL1   H2A 3970   3.429   4.844   2.787 -2.2776 -1.0557 -4.0956
   54CHL1   H2B 3971   3.275   4.940   2.780  1.9011  1.0872  0.0652
   54CHL1   C20 3972   3.087   4.975   3.723 -0.0084  0.0419 -0.2914
   54CHL1   H20 3973   2.984   5.016   3.711  0.3908  1.4073  0.7312
   54CHL1   C21 3974   3.187   5.088   3.702 -0.1592 -0.0046 -0.2216
   54CHL1  H21A 3975   3.189   5.157   3.789 -1.9480  0.0954 -0.2253
   54CHL1  H21B 3976   3.158   5.148   3.614  1.2445 -0.0643 -0.7584
   54CHL1  H21C 3977   3.292   5.052   3.691 -1.2795 -3.7270 -0.1077
   54CHL1   C22 3978   3.101   4.919   3.870 -0.1376  0.0285 -0.3760
   54CHL1  H22A 3979   3.052   4.820   3.882  1.7562 -0.9497 -0.4023
   54CHL1  H22B 3980   3.208   4.893   3.886 -0.5521 -2.1852 -0.9294
   54CHL1   C23 3981   3.039   5.008   3.968  0.6537 -0.0219 -0.8320
   54CHL1  H23A 3982   3.061   5.117   3.964  0.5769  0.2075  2.4165
   54CHL1  H23B 3983   2.929   5.001   3.953  0.1920  2.6690  0.5128
   54CHL1   C24 3984   3.078   4.983   4.114 -0.4280  0.2542  0.0177
   54CHL1  H24A 3985   3.051   4.879   4.142  1.0685 -0.0815  0.2979
   54CHL1  H24B 3986   3.189   4.979   4.109 -0.4026 -0.1339  0.6575
   54CHL1   C25 3987   3.045   5.090   4.224  0.0510 -0.0211 -0.0822
   54CHL1   H25 3988   3.081   5.187   4.182  1.3983 -0.9460 -1.1460
   54CHL1   C26 3989   2.892   5.095   4.245 -0.2680  0.2822  0.2125
   54CHL1  H26A 3990   2.863   4.988   4.256 -1.3684  0.2068 -2.6169
   54CHL1  H26B 3991   2.872   5.159   4.333  0.6664  0.2570  0.4484
   54CHL1  H26C 3992   2.838   5.135   4.157 -0.8433 -0.2528  0.3187
   54CHL1   C27 3993   3.125   5.060   4.351  0.2399 -0.4941 -0.3396
   54CHL1  H27A 3994   3.234   5.049   4.334  1.2093  2.1425  3.0059
   54CHL1  H27B 3995   3.103   5.146   4.418 -2.1602 -0.1721 -1.4150
   54CHL1  H27C 3996   3.092   4.964   4.398  0.3265 -0.1199  0.5076
   55CHL1    C3 3997   0.210   6.006   2.806  0.1778  0.1430 -0.2980
   55CHL1    H3 3998   0.276   6.089   2.839 -1.5088  0.1356  3.6616
   55CHL1    O3 3999   0.204   5.999   2.669 -0.4809  0.4853 -0.1825
   55CHL1   H3' 4000   0.150   6.072   2.635  0.0978  0.1120 -2.0324
   55CHL1    C4 4001   0.271   5.884   2.879 -1.2000  0.4430 -0.0098
   55CHL1   H4A 4002   0.209   5.800   2.840 -1.4706  1.4074 -1.7626
   55CHL1   H4B 4003   0.369   5.878   2.826 -1.6356  1.1570 -0.9277
   55CHL1    C5 4004   0.279   5.889   3.027 -0.2275  0.5099  0.9626
   55CHL1    C6 4005   0.392   5.889   3.091  0.2047 -0.0487 -0.3606
   55CHL1    H6 4006   0.484   5.860   3.040  2.7483  4.3800  1.1567
   55CHL1    C7 4007   0.404   5.905   3.241  0.1874  0.4716 -0.1612
   55CHL1   H7A 4008   0.475   5.834   3.289 -0.5676  0.0835  0.4227
   55CHL1   H7B 4009   0.436   6.007   3.271  0.4992 -0.1632  1.8315
   55CHL1    C8 4010   0.274   5.886   3.318  0.1101 -0.3012  0.5816
   55CHL1    H8 4011   0.262   5.776   3.326  0.7636 -0.3245  1.2783
   55CHL1   C14 4012   0.286   5.940   3.456 -0.2377 -0.5084  0.3347
   55CHL1   H14 4013   0.303   6.049   3.445  0.3637 -0.7000 -0.7332
   55CHL1   C15 4014   0.402   5.898   3.541  0.3268 -0.4259 -0.1158
   55CHL1  H15A 4015   0.419   5.788   3.529 -2.0449 -0.9165  0.4089
   55CHL1  H15B 4016   0.492   5.953   3.507 -0.7049  1.4555  0.0507
   55CHL1   C16 4017   0.361   5.929   3.682 -0.3088 -0.1889 -0.1558
   55CHL1  H16A 4018   0.327   5.840   3.740 -1.8031  0.8333  0.6122
   55CHL1  H16B 4019   0.432   5.993   3.738 -2.0101 -0.7023  2.8389
   55CHL1   C17 4020   0.220   5.999   3.678 -0.6837  0.7436  0.5338
   55CHL1   H17 4021   0.252   6.104   3.663 -0.0267  0.6984  1.5521
   55CHL1   C13 4022   0.161   5.935   3.552 -0.0138  0.2147  0.3497
   55CHL1   C18 4023   0.113   5.788   3.575  0.5645 -0.2572 -0.4360
   55CHL1  H18A 4024   0.100   5.741   3.476 -0.4475 -0.1209 -0.3725
   55CHL1  H18B 4025   0.183   5.721   3.630  1.7677  2.0750  1.0623
   55CHL1  H18C 4026   0.016   5.778   3.627  1.7631  0.7361  2.1821
   55CHL1   C12 4027   0.048   6.018   3.475 -0.4248  0.1591 -0.2054
   55CHL1  H12A 4028  -0.045   6.024   3.536  0.6560  1.0753  1.4236
   55CHL1  H12B 4029   0.087   6.122   3.474 -2.1657  0.8505  0.0489
   55CHL1   C11 4030   0.022   5.971   3.332  0.5505  0.2680 -0.6636
   55CHL1  H11A 4031  -0.024   5.871   3.336  0.4254  0.3431  1.8441
   55CHL1  H11B 4032  -0.047   6.047   3.290 -0.8259 -0.8365 -0.4696
   55CHL1    C9 4033   0.160   5.958   3.245 -0.3335  0.2012  0.1364
   55CHL1    H9 4034   0.195   6.064   3.243  0.0413  0.0894  0.5896
   55CHL1   C10 4035   0.148   5.926   3.095  0.5481  0.0387 -0.6009
   55CHL1   C19 4036   0.057   5.805   3.089 -0.4277 -0.1995  0.3521
   55CHL1  H19A 4037  -0.041   5.814   3.140 -1.4446  1.1768 -1.7289
   55CHL1  H19B 4038   0.031   5.780   2.984 -0.1304 -0.4829  0.3453
   55CHL1  H19C 4039   0.102   5.715   3.137 -1.7756 -1.3326 -0.4220
   55CHL1    C1 4040   0.082   6.048   3.020  0.4388  0.0013  0.6088
   55CHL1   H1A 4041  -0.025   6.057   3.051 -0.3460  1.5695 -2.2135
   55CHL1   H1B 4042   0.133   6.140   3.057 -0.1552  0.2882  0.7440
   55CHL1    C2 4043   0.074   6.030   2.864  0.1174 -0.0502  0.4300
   55CHL1   H2A 4044   0.022   6.116   2.819  2.2646  1.2526  0.2822
   55CHL1   H2B 4045   0.015   5.941   2.833  2.0838 -1.6454  0.9837
   55CHL1   C20 4046   0.137   5.983   3.810 -0.0944  0.2638 -0.7933
   55CHL1   H20 4047   0.075   5.892   3.802 -0.1109  0.0441  1.2133
   55CHL1   C21 4048   0.038   6.099   3.820  0.0324  1.0753 -0.5461
   55CHL1  H21A 4049  -0.021   6.088   3.914 -0.5457  0.3615 -0.9848
   55CHL1  H21B 4050  -0.033   6.104   3.734 -1.4697  0.9885  0.6390
   55CHL1  H21C 4051   0.093   6.195   3.829  1.6840 -0.0075  2.3725
   55CHL1   C22 4052   0.235   5.970   3.940  0.1730 -0.6128  0.2188
   55CHL1  H22A 4053   0.303   5.885   3.920  0.2905 -0.7556  1.1544
   55CHL1  H22B 4054   0.297   6.061   3.955 -0.8314  0.2791 -0.8041
   55CHL1   C23 4055   0.154   5.942   4.072 -0.1219  0.8607 -0.1087
   55CHL1  H23A 4056   0.102   6.035   4.103 -0.6260  1.0366 -1.4471
   55CHL1  H23B 4057   0.079   5.860   4.063 -1.8153  2.0262  2.4067
   55CHL1   C24 4058   0.262   5.895   4.170 -0.3902 -0.7835  0.1979
   55CHL1  H24A 4059   0.329   5.814   4.134 -0.5007  0.2684 -2.5947
   55CHL1  H24B 4060   0.313   5.994   4.176  0.0263 -0.8881 -1.1466
   55CHL1   C25 4061   0.213   5.856   4.314  0.0223  0.3766  0.4416
   55CHL1   H25 4062   0.305   5.878   4.372  0.2071 -1.0932  0.7440
   55CHL1   C26 4063   0.095   5.930   4.369  0.5848 -0.0070 -0.5672
   55CHL1  H26A 4064   0.072   5.903   4.474  0.8658  0.2961 -0.4253
   55CHL1  H26B 4065   0.088   6.040   4.356 -0.9984 -0.1024 -0.6805
   55CHL1  H26C 4066   0.005   5.912   4.307 -1.6199  1.9566  1.8328
   55CHL1   C27 4067   0.170   5.706   4.323 -0.5494  0.1298 -0.0940
   55CHL1  H27A 4068   0.249   5.646   4.272 -0.9991 -0.3231 -0.2782
   55CHL1  H27B 4069   0.146   5.675   4.427 -0.5472  0.7491  0.0911
   55CHL1  H27C 4070   0.078   5.687   4.262  0.6270  0.9616 -2.2411
   56CHL1    C3 4071   2.469   0.360   2.745  0.2662 -0.7247 -0.0111
   56CHL1    H3 4072   2.418   0.454   2.776 -1.6060 -1.5116 -0.5555
   56CHL1    O3 4073   2.458   0.330   2.606  0.2432  0.2271 -0.4275
   56CHL1   H3' 4074   2.515   0.254   2.593 -0.2936 -0.2544 -0.0232
   56CHL1    C4 4075   2.625   0.378   2.781  0.8657  0.3701 -0.4808
   56CHL1   H4A 4076   2.670   0.287   2.735 -0.8718  0.4091 -2.3954
   56CHL1   H4B 4077   2.658   0.469   2.727  0.7768 -1.6679 -4.2985
   56CHL1    C5 4078   2.657   0.399   2.932  0.2805  0.4552  0.0186
   56CHL1    C6 4079   2.729   0.503   2.974 -1.2363  0.6697  0.6244
   56CHL1    H6 4080   2.772   0.580   2.908 -0.5867  1.6589  2.1621
   56CHL1    C7 4081   2.760   0.523   3.116  0.3140 -0.2215 -0.9211
   56CHL1   H7A 4082   2.870   0.524   3.129  0.3295 -1.2963 -0.8631
   56CHL1   H7B 4083   2.710   0.617   3.146  1.8811  0.3477  0.0106
   56CHL1    C8 4084   2.714   0.407   3.211 -0.2316 -0.3134  0.0020
   56CHL1    H8 4085   2.795   0.330   3.203  0.4682  0.1319  2.0976
   56CHL1   C14 4086   2.700   0.450   3.360  0.6248  0.1190 -0.6543
   56CHL1   H14 4087   2.610   0.516   3.361  1.6902  1.7652  3.0409
   56CHL1   C15 4088   2.799   0.538   3.431 -0.4292 -0.2167 -0.3810
   56CHL1  H15A 4089   2.900   0.502   3.400 -1.5231 -2.8048 -1.2273
   56CHL1  H15B 4090   2.781   0.643   3.401  0.7802  0.4142  0.9641
   56CHL1   C16 4091   2.783   0.515   3.584 -0.2267 -0.2270  0.2000
   56CHL1  H16A 4092   2.880   0.478   3.624 -1.7572 -1.3052  3.3033
   56CHL1  H16B 4093   2.766   0.614   3.632  1.6602  0.0760  0.3078
   56CHL1   C17 4094   2.657   0.422   3.589 -0.9650 -0.1752 -0.3323
   56CHL1   H17 4095   2.576   0.497   3.576  0.0122  1.3856  1.7998
   56CHL1   C13 4096   2.660   0.342   3.457 -0.4331  0.0759 -0.1037
   56CHL1   C18 4097   2.770   0.231   3.466  0.4326  0.0698 -1.0570
   56CHL1  H18A 4098   2.749   0.157   3.546  0.9843 -0.0628 -1.0311
   56CHL1  H18B 4099   2.793   0.192   3.364 -0.3364 -0.3353 -1.0860
   56CHL1  H18C 4100   2.868   0.276   3.495 -0.5310  0.9627  0.9882
   56CHL1   C12 4101   2.519   0.289   3.422  0.0718 -0.8545  0.7987
   56CHL1  H12A 4102   2.488   0.211   3.495  0.6177 -0.9565  0.9249
   56CHL1  H12B 4103   2.448   0.371   3.445  3.4995  1.8295  2.7537
   56CHL1   C11 4104   2.521   0.241   3.275 -0.1561 -0.0424 -0.6346
   56CHL1  H11A 4105   2.584   0.150   3.263  1.2033  0.4659  1.9673
   56CHL1  H11B 4106   2.415   0.209   3.259 -0.2870 -2.1900  3.0929
   56CHL1    C9 4107   2.583   0.344   3.169 -0.2353  0.3165  0.3094
   56CHL1    H9 4108   2.505   0.423   3.163  0.5929  1.1475  0.3182
   56CHL1   C10 4109   2.580   0.292   3.019  0.2238 -0.1752 -0.1934
   56CHL1   C19 4110   2.648   0.157   3.012  0.0748  0.1896 -0.1109
   56CHL1  H19A 4111   2.588   0.075   3.059  0.6452 -0.3066 -0.2463
   56CHL1  H19B 4112   2.677   0.131   2.908  0.8898  0.4045  0.0577
   56CHL1  H19C 4113   2.744   0.150   3.067  0.8829 -2.4645 -1.6699
   56CHL1    C1 4114   2.433   0.273   2.981  0.3814  0.3735  0.1987
   56CHL1   H1A 4115   2.381   0.196   3.043 -1.5098  0.9862 -0.5521
   56CHL1   H1B 4116   2.378   0.367   3.003 -3.7856 -2.0342  1.1917
   56CHL1    C2 4117   2.414   0.246   2.829  0.0211  0.8230 -0.1677
   56CHL1   H2A 4118   2.304   0.245   2.813  0.1197 -0.7100 -0.9793
   56CHL1   H2B 4119   2.452   0.145   2.805  2.3619  0.8516  2.8711
   56CHL1   C20 4120   2.628   0.356   3.724 -0.0206  0.1299  0.3515
   56CHL1   H20 4121   2.563   0.271   3.693 -0.5515  1.0051 -1.0359
   56CHL1   C21 4122   2.534   0.445   3.814  0.3609  0.5708  0.0025
   56CHL1  H21A 4123   2.510   0.395   3.910 -0.3408 -0.7358 -0.8195
   56CHL1  H21B 4124   2.437   0.455   3.761  0.6537 -1.3068 -0.9710
   56CHL1  H21C 4125   2.567   0.550   3.828 -0.1166  0.8457 -0.8448
   56CHL1   C22 4126   2.743   0.299   3.811  0.1961 -0.1128  0.6104
   56CHL1  H22A 4127   2.830   0.274   3.747  0.1123  3.9893 -1.4369
   56CHL1  H22B 4128   2.776   0.383   3.876  0.8019 -1.6407  2.3638
   56CHL1   C23 4129   2.701   0.179   3.900  0.3279  0.0349 -0.0393
   56CHL1  H23A 4130   2.596   0.198   3.929 -0.1291 -0.4092 -1.3355
   56CHL1  H23B 4131   2.712   0.086   3.840 -3.1780 -1.2848  1.1440
   56CHL1   C24 4132   2.793   0.170   4.031  0.4712  0.1225  0.3984
   56CHL1  H24A 4133   2.902   0.171   4.008  0.5440 -2.2595  0.3960
   56CHL1  H24B 4134   2.781   0.262   4.092  1.6843  0.4965  0.1099
   56CHL1   C25 4135   2.759   0.043   4.122 -0.3634  0.0863  0.1379
   56CHL1   H25 4136   2.741  -0.048   4.060  1.2692 -0.5687  0.5750
   56CHL1   C26 4137   2.876   0.012   4.220 -0.4942 -1.1663 -0.0121
   56CHL1  H26A 4138   2.854  -0.068   4.294 -0.7602 -0.5249  0.6162
   56CHL1  H26B 4139   2.963  -0.022   4.159 -1.2255 -1.4845 -0.8964
   56CHL1  H26C 4140   2.909   0.105   4.271  0.8121 -2.1721  1.0608
   56CHL1   C27 4141   2.628   0.063   4.194  0.4706 -0.6018 -0.2866
   56CHL1  H27A 4142   2.558   0.108   4.120 -0.2139  2.4164  1.9938
   56CHL1  H27B 4143   2.573  -0.029   4.222 -0.3048  0.4983  2.0669
   56CHL1  H27C 4144   2.620   0.133   4.280 -1.7179 -1.2228  0.0573
   57SAPC     N 4145   0.291   5.326   6.807  0.2144 -0.6913 -0.2603
   57SAPC   C12 4146   0.393   5.384   6.710  0.1125  0.4357 -0.2753
   57SAPC  H12A 4147   0.339   5.465   6.662 -1.8295 -0.1955  0.7381
   57SAPC  H12B 4148   0.421   5.312   6.635 -0.5185  1.5018 -1.5904
   57SAPC   C13 4149   0.351   5.230   6.903 -0.2890 -0.2913 -0.4170
   57SAPC  H13A 4150   0.380   5.137   6.856 -1.1849 -0.0338 -1.5279
   57SAPC  H13B 4151   0.439   5.260   6.957 -0.7045 -0.5672  0.4298
   57SAPC  H13C 4152   0.280   5.205   6.980 -0.5787  2.3636  0.2756
   57SAPC   C14 4153   0.225   5.440   6.872 -0.8260 -0.2069  0.2936
   57SAPC  H14A 4154   0.309   5.503   6.897  0.6889 -1.4638 -1.3885
   57SAPC  H14B 4155   0.175   5.498   6.796 -0.1285  2.6382  1.8545
   57SAPC  H14C 4156   0.169   5.409   6.960 -0.7286  1.9854  1.1805
   57SAPC   C15 4157   0.191   5.257   6.728  0.6706  0.1869  0.4268
   57SAPC  H15A 4158   0.224   5.160   6.693  1.6269  0.1741  1.3014
   57SAPC  H15B 4159   0.108   5.225   6.789  1.6735 -2.2354  0.6455
   57SAPC  H15C 4160   0.163   5.318   6.644 -0.6324 -0.2316  0.5410
   57SAPC   C11 4161   0.518   5.453   6.766  0.3637 -0.0335  0.8515
   57SAPC  H11A 4162   0.588   5.491   6.689  1.0691  1.4031  2.1385
   57SAPC  H11B 4163   0.575   5.379   6.827 -0.5412 -3.0842 -1.7374
   57SAPC     P 4164   0.558   5.683   6.903 -0.1344  0.1783 -0.2091
   57SAPC   O13 4165   0.540   5.687   7.055 -0.0446 -0.0890  0.1836
   57SAPC   O14 4166   0.694   5.668   6.847 -0.4847  0.1265 -0.3194
   57SAPC   O12 4167   0.471   5.560   6.854  0.3340  0.2211 -0.0039
   57SAPC   O11 4168   0.499   5.817   6.844  0.3301 -0.3151  0.4965
   57SAPC    C1 4169   0.407   5.821   6.736 -0.7719  0.4572 -0.4753
   57SAPC    HA 4170   0.326   5.751   6.765  0.1310 -0.1670  0.6269
   57SAPC    HB 4171   0.362   5.922   6.724  0.0502  0.8081 -0.6590
   57SAPC    C2 4172   0.464   5.778   6.594  0.4171  0.1466  0.5363
   57SAPC    HS 4173   0.499   5.672   6.594 -0.8457 -0.3020 -0.3278
   57SAPC   O21 4174   0.563   5.875   6.562  0.2961  0.3386  0.0047
   57SAPC   C21 4175   0.679   5.825   6.520 -0.1665 -0.1980  0.1419
   57SAPC   O22 4176   0.697   5.707   6.494  0.4438 -0.8061 -0.1210
   57SAPC   C22 4177   0.788   5.933   6.511 -0.7439  0.2140  0.1353
   57SAPC   H2R 4178   0.740   6.023   6.554 -0.3854  0.9698 -0.9839
   57SAPC   H2S 4179   0.875   5.902   6.573  0.4629  1.4455 -0.8821
   57SAPC    C3 4180   0.341   5.773   6.494 -0.8357 -0.6063  0.3012
   57SAPC    HX 4181   0.301   5.876   6.486 -0.9924 -0.8044 -2.1130
   57SAPC    HY 4182   0.253   5.708   6.512  1.2853 -4.0466 -0.8213
   57SAPC   O31 4183   0.383   5.743   6.362 -0.1583  0.1594  0.5541
   57SAPC   C31 4184   0.410   5.609   6.336 -0.0636 -0.2959 -0.2191
   57SAPC   O32 4185   0.408   5.522   6.420 -0.3550 -0.7653 -0.1914
   57SAPC   C32 4186   0.411   5.586   6.181 -0.4675  0.4522  0.1373
   57SAPC   H2X 4187   0.515   5.555   6.158 -0.4136  0.1263  0.8137
   57SAPC   H2Y 4188   0.394   5.681   6.125  1.2087  1.4051  1.1534
   57SAPC   C23 4189   0.846   5.940   6.373  0.2701  0.3764  0.2457
   57SAPC   H3R 4190   0.877   5.841   6.334 -0.2637  0.0991  0.5023
   57SAPC   H3S 4191   0.940   5.998   6.385 -0.8712  1.9778  2.1814
   57SAPC   C24 4192   0.752   6.009   6.268  0.0388 -0.0496 -0.2374
   57SAPC   H4R 4193   0.714   6.105   6.309  0.1851 -0.5541  1.1293
   57SAPC   H4S 4194   0.660   5.948   6.255 -0.1791  0.2684 -0.2140
   57SAPC   C25 4195   0.818   6.019   6.138 -0.5075 -0.0687 -0.0340
   57SAPC   H5R 4196   0.889   6.103   6.125  0.3973 -1.1225 -2.5923
   57SAPC   C26 4197   0.785   5.959   6.025  0.0199 -0.3985  0.2339
   57SAPC   H6R 4198   0.846   5.985   5.938 -0.6384  0.1324 -0.0799
   57SAPC   C27 4199   0.687   5.843   6.016  0.2994 -0.3211  0.2671
   57SAPC   H7R 4200   0.601   5.876   5.953  0.9268  0.5918 -0.1365
   57SAPC   H7S 4201   0.641   5.817   6.113  0.2113 -1.2329 -0.0070
   57SAPC   C28 4202   0.738   5.718   5.952 -0.2245  0.2241  0.5399
   57SAPC   H8R 4203   0.833   5.684   5.996  0.4418  1.6445  0.2619
   57SAPC   C29 4204   0.689   5.658   5.837  0.8705  1.2490 -0.3007
   57SAPC   H9R 4205   0.739   5.570   5.795  0.7651  0.8416  0.4209
   57SAPC  C210 4206   0.560   5.694   5.760 -0.4642 -0.5638 -0.5721
   57SAPC  H10R 4207   0.494   5.771   5.806 -1.1472 -0.8760 -1.0042
   57SAPC  H10S 4208   0.501   5.600   5.757  0.0372 -0.9460  0.9506
   57SAPC  C211 4209   0.594   5.736   5.617 -0.3513 -0.1443 -0.1091
   57SAPC  H11R 4210   0.614   5.843   5.604  0.5030 -0.4732 -2.0180
   57SAPC  C212 4211   0.608   5.656   5.511 -0.2220  0.2904 -0.8494
   57SAPC  H12R 4212   0.622   5.701   5.412  0.8119 -0.0027 -0.8510
   57SAPC  C213 4213   0.599   5.502   5.511  0.2729 -0.7847 -0.1839
   57SAPC  H13R 4214   0.559   5.447   5.598  0.8791 -2.7989 -1.1153
   57SAPC  H13S 4215   0.701   5.458   5.510  0.3841 -0.5283 -0.3736
   57SAPC  C214 4216   0.513   5.466   5.383  0.3382 -0.2501  0.0581
   57SAPC  H14R 4217   0.410   5.504   5.388  0.2698 -0.5086  0.8398
   57SAPC  C215 4218   0.549   5.406   5.270 -0.1797 -0.5404 -0.3420
   57SAPC  H15R 4219   0.472   5.376   5.197  0.4616 -1.4146 -0.6752
   57SAPC  C216 4220   0.686   5.353   5.231  0.5572  0.2521 -0.5360
   57SAPC  H16R 4221   0.770   5.379   5.298  0.1586 -0.0448  0.0907
   57SAPC  H16S 4222   0.713   5.410   5.140  2.8648  1.8840  1.0630
   57SAPC  C217 4223   0.706   5.198   5.228  0.3437 -0.3482  0.5430
   57SAPC  H17R 4224   0.680   5.171   5.333 -3.0767  2.9372  0.7348
   57SAPC  H17S 4225   0.813   5.174   5.211 -0.0395 -0.4655 -2.0077
   57SAPC  C218 4226   0.610   5.139   5.122 -0.4775  0.3649  0.2119
   57SAPC  H18R 4227   0.501   5.149   5.143 -0.3594  1.1766  0.4932
   57SAPC  H18S 4228   0.626   5.030   5.128 -1.6735  0.1291 -0.5126
   57SAPC  C219 4229   0.628   5.179   4.979 -0.3160 -0.2797 -0.7626
   57SAPC  H19R 4230   0.734   5.172   4.945  0.0188 -0.3919  0.2549
   57SAPC  H19S 4231   0.592   5.284   4.975 -0.8756 -0.3057  1.7729
   57SAPC  C220 4232   0.539   5.100   4.890  0.6793  0.7533  0.2008
   57SAPC  H20R 4233   0.563   4.992   4.890 -0.8663  0.3869  0.2018
   57SAPC  H20S 4234   0.562   5.123   4.784 -0.5233 -2.0320 -0.7658
   57SAPC  H20T 4235   0.432   5.124   4.908  0.1854 -0.3457 -1.0947
   57SAPC   C33 4236   0.313   5.476   6.137  0.4414 -0.4484 -0.0689
   57SAPC   H3X 4237   0.211   5.509   6.167  0.6627  1.7918 -1.5357
   57SAPC   H3Y 4238   0.331   5.375   6.178 -0.3548 -0.1889  0.9572
   57SAPC   C34 4239   0.296   5.458   5.986 -0.1666  0.3548  0.6835
   57SAPC   H4X 4240   0.323   5.548   5.927  2.4361 -0.5964  0.3169
   57SAPC   H4Y 4241   0.187   5.446   5.968 -0.1062  0.2038  0.4160
   57SAPC   C35 4242   0.376   5.339   5.923  0.0539 -0.2250  0.2103
   57SAPC   H5X 4243   0.357   5.256   5.995 -1.8381  0.9369  1.1604
   57SAPC   H5Y 4244   0.485   5.354   5.932 -0.0041  0.0037  0.5910
   57SAPC   C36 4245   0.343   5.301   5.778  0.6695 -0.1436  0.0266
   57SAPC   H6X 4246   0.396   5.366   5.705 -0.7614  0.3674 -0.6046
   57SAPC   H6Y 4247   0.235   5.313   5.753 -0.2477 -4.3731  1.0862
   57SAPC   C37 4248   0.389   5.161   5.750  0.1211 -0.7628 -0.2054
   57SAPC   H7X 4249   0.376   5.089   5.833  0.6231  0.3639  0.8850
   57SAPC   H7Y 4250   0.495   5.158   5.716 -0.3724 -1.1680 -1.7878
   57SAPC   C38 4251   0.307   5.100   5.633 -0.7341  0.3761 -0.1534
   57SAPC   H8X 4252   0.303   5.177   5.553  0.6022 -1.7278 -2.3896
   57SAPC   H8Y 4253   0.203   5.076   5.664 -0.7426  0.6824  0.0577
   57SAPC   C39 4254   0.387   4.985   5.565  0.2887  0.0676  0.4168
   57SAPC   H9X 4255   0.375   4.895   5.629 -0.9367 -0.1851 -0.1183
   57SAPC   H9Y 4256   0.495   5.009   5.556  0.3703 -1.0190 -3.1950
   57SAPC  C310 4257   0.331   4.962   5.427  0.7790 -0.5380 -0.2641
   57SAPC  H10X 4258   0.313   5.061   5.379 -0.9545  0.0244  1.4353
   57SAPC  H10Y 4259   0.230   4.916   5.421 -0.4652  1.9846 -0.1184
   57SAPC  C311 4260   0.420   4.873   5.337  0.2197  0.0673  0.4223
   57SAPC  H11X 4261   0.443   4.777   5.387  0.5853 -0.3617 -0.5376
   57SAPC  H11Y 4262   0.514   4.933   5.332  0.1701  0.0353 -2.7014
   57SAPC  C312 4263   0.354   4.880   5.199  0.7586  0.4382  0.4002
   57SAPC  H12X 4264   0.356   4.984   5.162  0.7361  0.5460  0.6989
   57SAPC  H12Y 4265   0.249   4.847   5.217  1.4837 -1.1923  2.0269
   57SAPC  C313 4266   0.411   4.776   5.108  0.5696 -0.1567  0.1709
   57SAPC  H13X 4267   0.377   4.673   5.133 -1.0696  0.3526  0.1457
   57SAPC  H13Y 4268   0.520   4.794   5.111  0.6616 -0.7413  0.6423
   57SAPC  C314 4269   0.341   4.784   4.965 -0.2919  0.4289 -0.2733
   57SAPC  H14X 4270   0.343   4.894   4.946 -0.5218  0.2484 -1.3857
   57SAPC  H14Y 4271   0.235   4.755   4.978  0.3526 -0.9480  3.1346
   57SAPC  C315 4272   0.424   4.724   4.846 -0.9535  0.0828 -0.4905
   57SAPC  H15X 4273   0.454   4.620   4.870 -0.9304  0.2793  0.3539
   57SAPC  H15Y 4274   0.520   4.780   4.847 -2.0648  2.0603 -0.3168
   57SAPC  C316 4275   0.359   4.731   4.711 -0.0777  0.5512  0.2246
   57SAPC  H16X 4276   0.324   4.834   4.688  2.2388  1.4533  0.5531
   57SAPC  H16Y 4277   0.267   4.668   4.710  0.6238 -0.4720 -1.0237
   57SAPC  C317 4278   0.454   4.694   4.600 -0.0716 -0.6056 -0.2837
   57SAPC  H17X 4279   0.480   4.586   4.597 -1.1364 -0.8610 -1.1843
   57SAPC  H17Y 4280   0.549   4.750   4.612  0.1646 -0.9725 -0.4213
   57SAPC  C318 4281   0.399   4.729   4.461 -0.2974 -0.3395 -0.1342
   57SAPC  H18X 4282   0.303   4.674   4.445 -1.0906  0.9842 -0.1152
   57SAPC  H18Y 4283   0.473   4.686   4.390  1.6949 -0.9334  2.1918
   57SAPC  H18Z 4284   0.394   4.839   4.449  1.4181 -0.3228 -1.0149
   58SAPC     N 4285   5.861   4.469   6.945  0.3852  0.5173 -0.2449
   58SAPC   C12 4286   5.923   4.352   6.874  0.1709 -0.7122  0.4173
   58SAPC  H12A 4287   6.030   4.367   6.872 -0.0025  0.7174  0.5529
   58SAPC  H12B 4288   5.899   4.355   6.769  0.9170  0.3573  0.2561
   58SAPC   C13 4289   5.913   4.485   7.088  0.3402 -0.0769  0.0212
   58SAPC  H13A 4290   5.878   4.397   7.140 -0.2562 -0.4755 -1.0356
   58SAPC  H13B 4291   6.021   4.483   7.086  0.3590 -2.1048  0.9631
   58SAPC  H13C 4292   5.875   4.579   7.124  1.8049  0.5303  0.0521
   58SAPC   C14 4293   5.881   4.598   6.871 -0.3105  0.1216 -0.3683
   58SAPC  H14A 4294   5.854   4.597   6.767 -0.3722 -0.0510 -0.3500
   58SAPC  H14B 4295   5.832   4.681   6.922  0.6756  0.7757 -0.4633
   58SAPC  H14C 4296   5.987   4.616   6.877 -0.2206 -0.2613 -0.8182
   58SAPC   C15 4297   5.718   4.436   6.958 -0.1206 -0.2262  0.1285
   58SAPC  H15A 4298   5.668   4.504   7.026  0.4849  0.7105 -0.3464
   58SAPC  H15B 4299   5.674   4.437   6.859 -1.1183 -2.3343  0.5000
   58SAPC  H15C 4300   5.703   4.331   6.978  1.5708 -0.7889 -1.3861
   58SAPC   C11 4301   5.894   4.208   6.936 -0.3434 -0.3849  0.7210
   58SAPC  H11A 4302   5.919   4.220   7.044  0.5016 -0.9621  0.6005
   58SAPC  H11B 4303   5.968   4.139   6.890  0.4554 -0.0797  1.5140
   58SAPC     P 4304   5.719   4.114   6.758 -0.3790 -0.6124 -0.2120
   58SAPC   O13 4305   5.750   3.976   6.726  0.3717 -0.1110  0.1799
   58SAPC   O14 4306   5.576   4.147   6.744 -0.2015 -0.0793 -0.4915
   58SAPC   O12 4307   5.766   4.154   6.899 -0.0266 -0.6972 -0.5121
   58SAPC   O11 4308   5.801   4.214   6.662  0.1740  0.3570  0.0770
   58SAPC    C1 4309   5.749   4.313   6.578  0.3263 -0.0110 -0.2692
   58SAPC    HA 4310   5.652   4.355   6.612 -0.3054 -0.4177 -1.4726
   58SAPC    HB 4311   5.825   4.391   6.557 -0.2017  0.6565  0.2484
   58SAPC    C2 4312   5.726   4.259   6.433 -0.1528 -0.6569 -0.3282
   58SAPC    HS 4313   5.649   4.179   6.444 -0.7627  0.1060  1.3021
   58SAPC   O21 4314   5.851   4.217   6.380 -0.2915  0.0696 -0.5691
   58SAPC   C21 4315   5.862   4.147   6.263  0.2133 -0.4004  0.0439
   58SAPC   O22 4316   5.764   4.106   6.200  0.5172 -0.7821  0.4940
   58SAPC   C22 4317   6.002   4.155   6.223 -0.5314 -0.1926  0.1938
   58SAPC   H2R 4318   6.030   4.260   6.247 -1.0729  0.0385 -0.1488
   58SAPC   H2S 4319   6.049   4.077   6.286 -1.9252 -1.9527 -0.8525
   58SAPC    C3 4320   5.659   4.365   6.331  0.5556  0.8351 -0.3298
   58SAPC    HX 4321   5.631   4.313   6.237 -0.6321  0.2232  0.3332
   58SAPC    HY 4322   5.738   4.440   6.310  1.4279 -0.6231 -2.6358
   58SAPC   O31 4323   5.542   4.431   6.386  0.0027 -0.1262  0.1686
   58SAPC   C31 4324   5.436   4.353   6.423 -0.2048 -0.5799 -0.4537
   58SAPC   O32 4325   5.435   4.230   6.426 -0.1478 -0.3155  0.6991
   58SAPC   C32 4326   5.321   4.434   6.469  0.1219 -0.1039  0.3771
   58SAPC   H2X 4327   5.343   4.541   6.491 -0.7491  0.3981 -1.0503
   58SAPC   H2Y 4328   5.304   4.397   6.572 -2.5232  1.0836  0.4368
   58SAPC   C23 4329   6.019   4.112   6.072  0.3240  0.4322  0.5095
   58SAPC   H3R 4330   5.954   4.185   6.020 -1.0466 -0.5931  0.7279
   58SAPC   H3S 4331   5.976   4.012   6.055  0.3321  0.8369 -2.2945
   58SAPC   C24 4332   6.161   4.132   6.016  0.4352  0.1482  0.2518
   58SAPC   H4R 4333   6.187   4.234   6.051  2.4073 -0.2689  0.0972
   58SAPC   H4S 4334   6.151   4.124   5.906 -0.7718  0.3160  0.3316
   58SAPC   C25 4335   6.260   4.034   6.084  0.3892  0.6060 -0.1283
   58SAPC   H5R 4336   6.264   4.037   6.194 -0.0982  0.1913 -0.0968
   58SAPC   C26 4337   6.353   3.960   6.017  0.3773  0.1048  0.1812
   58SAPC   H6R 4338   6.410   3.891   6.081  0.8223  0.3709  0.0741
   58SAPC   C27 4339   6.367   3.945   5.865  0.4409  0.6010 -0.6833
   58SAPC   H7R 4340   6.270   3.966   5.817  1.6512 -0.6520 -3.9150
   58SAPC   H7S 4341   6.400   3.841   5.845 -1.1019 -0.7638  2.9461
   58SAPC   C28 4342   6.472   4.045   5.824 -0.3156  0.0932 -0.0733
   58SAPC   H8R 4343   6.455   4.140   5.875 -0.1737 -0.5530  1.2049
   58SAPC   C29 4344   6.587   4.040   5.749 -0.1149  0.4858 -0.5604
   58SAPC   H9R 4345   6.655   4.124   5.731  0.5310  0.3864  1.1783
   58SAPC  C210 4346   6.635   3.920   5.678 -0.1051  0.4236 -0.4104
   58SAPC  H10R 4347   6.624   3.946   5.570 -1.5262  3.2078  0.3213
   58SAPC  H10S 4348   6.564   3.840   5.707  1.9604 -1.8037 -1.1070
   58SAPC  C211 4349   6.779   3.882   5.720  1.0616 -0.1164  0.1237
   58SAPC  H11R 4350   6.807   3.921   5.819  0.4697  0.9100 -0.0983
   58SAPC  C212 4351   6.879   3.853   5.637 -0.1099  0.0643 -0.1401
   58SAPC  H12R 4352   6.978   3.831   5.680 -0.7784 -1.9573  0.4739
   58SAPC  C213 4353   6.856   3.814   5.491  0.0164  0.0020  0.3161
   58SAPC  H13R 4354   6.760   3.842   5.443  0.8553 -0.4793 -1.7143
   58SAPC  H13S 4355   6.855   3.704   5.481  1.1606  0.2296 -6.2323
   58SAPC  C214 4356   6.960   3.853   5.386 -0.1127  0.9167  0.3907
   58SAPC  H14R 4357   7.033   3.779   5.350 -0.9127 -0.3321  1.2850
   58SAPC  C215 4358   6.972   3.975   5.329 -0.4786  0.5656 -0.0669
   58SAPC  H15R 4359   7.058   3.989   5.262 -0.0486  0.8146  0.5285
   58SAPC  C216 4360   6.892   4.101   5.370 -0.5809  0.2436 -0.0734
   58SAPC  H16R 4361   6.801   4.069   5.425  0.9519 -0.5993  2.0994
   58SAPC  H16S 4362   6.863   4.137   5.269  2.1155 -2.7013 -2.0725
   58SAPC  C217 4363   6.988   4.202   5.439 -0.4585  0.1335  0.5849
   58SAPC  H17R 4364   6.943   4.304   5.448 -0.2715  0.2829 -0.0579
   58SAPC  H17S 4365   7.076   4.228   5.376  0.3922  1.4739  2.2231
   58SAPC  C218 4366   7.030   4.169   5.577  0.0508 -0.5615 -0.4252
   58SAPC  H18R 4367   7.077   4.069   5.565 -0.5284 -1.1647  1.7920
   58SAPC  H18S 4368   6.946   4.163   5.650  1.8449 -1.5831  1.6497
   58SAPC  C219 4369   7.143   4.258   5.641 -0.0795  0.2833  0.8544
   58SAPC  H19R 4370   7.086   4.342   5.686 -0.7878  0.5904 -0.5716
   58SAPC  H19S 4371   7.218   4.290   5.565 -1.8789 -0.5896 -1.3890
   58SAPC  C220 4372   7.210   4.193   5.760  0.1740  0.1543 -0.1955
   58SAPC  H20R 4373   7.296   4.257   5.791  1.6093 -1.9310  0.3884
   58SAPC  H20S 4374   7.258   4.096   5.735 -3.0318 -1.3811 -0.9034
   58SAPC  H20T 4375   7.135   4.167   5.838  1.5560 -1.1841  0.7447
   58SAPC   C33 4376   5.182   4.416   6.390  0.0208  0.8228  0.0909
   58SAPC   H3X 4377   5.105   4.443   6.466 -0.7378 -2.6509  0.7319
   58SAPC   H3Y 4378   5.162   4.308   6.376  0.1873  0.6637  1.0036
   58SAPC   C34 4379   5.166   4.498   6.268  0.3939  0.1686 -0.3726
   58SAPC   H4X 4380   5.182   4.605   6.293 -0.7355  0.3250 -0.2717
   58SAPC   H4Y 4381   5.057   4.488   6.249  0.8515 -0.8739 -2.7541
   58SAPC   C35 4382   5.254   4.459   6.148 -0.5259 -0.2367 -0.0066
   58SAPC   H5X 4383   5.236   4.351   6.133 -1.4055 -0.0084 -0.7269
   58SAPC   H5Y 4384   5.364   4.470   6.155 -0.5124  0.1423 -0.7174
   58SAPC   C36 4385   5.220   4.555   6.029 -0.2684  0.1405 -0.4916
   58SAPC   H6X 4386   5.259   4.656   6.054  2.5416 -1.0315  0.2436
   58SAPC   H6Y 4387   5.114   4.582   6.008  0.1148  2.0426 -0.2229
   58SAPC   C37 4388   5.271   4.517   5.892 -0.1760  0.0136 -0.0055
   58SAPC   H7X 4389   5.209   4.433   5.855 -0.1744  0.7600 -1.8380
   58SAPC   H7Y 4390   5.376   4.483   5.899  0.6069  2.0298 -0.8839
   58SAPC   C38 4391   5.269   4.622   5.790 -0.0695 -0.6069 -0.0600
   58SAPC   H8X 4392   5.337   4.707   5.809 -0.7539  0.2790 -1.3997
   58SAPC   H8Y 4393   5.170   4.672   5.778  0.4493  0.6764  0.8010
   58SAPC   C39 4394   5.308   4.566   5.652  0.1310 -1.1169 -0.3318
   58SAPC   H9X 4395   5.230   4.501   5.606 -2.9933  1.4798  0.9028
   58SAPC   H9Y 4396   5.401   4.506   5.663  0.1832 -0.6820  2.1426
   58SAPC  C310 4397   5.343   4.690   5.556 -0.1654  0.2572  0.7950
   58SAPC  H10X 4398   5.438   4.738   5.587  0.5492 -2.0433  2.5421
   58SAPC  H10Y 4399   5.266   4.768   5.570  0.4786  1.4579 -1.7500
   58SAPC  C311 4400   5.337   4.649   5.407 -0.3217 -0.0412  0.0433
   58SAPC  H11X 4401   5.308   4.736   5.343 -2.7172 -1.0847 -0.3946
   58SAPC  H11Y 4402   5.248   4.583   5.398 -0.4402  0.0718  0.3692
   58SAPC  C312 4403   5.462   4.577   5.361  0.5008 -0.5171  0.1457
   58SAPC  H12X 4404   5.465   4.486   5.424 -0.7612 -1.2638 -0.8267
   58SAPC  H12Y 4405   5.554   4.631   5.393 -1.1827  0.5268  3.6873
   58SAPC  C313 4406   5.465   4.541   5.206 -0.3550  0.5167  0.4652
   58SAPC  H13X 4407   5.434   4.636   5.158 -2.7874  0.4000  1.6603
   58SAPC  H13Y 4408   5.396   4.455   5.195 -0.7654  0.8172  0.6538
   58SAPC  C314 4409   5.608   4.497   5.173  0.0243  0.2935  0.8331
   58SAPC  H14X 4410   5.654   4.429   5.248 -0.6873 -2.2567 -0.8905
   58SAPC  H14Y 4411   5.671   4.586   5.191  1.2736 -0.5165  0.5688
   58SAPC  C315 4412   5.628   4.441   5.033  0.4507 -0.4543 -0.1459
   58SAPC  H15X 4413   5.723   4.490   5.001  1.3364 -0.7406  1.8522
   58SAPC  H15Y 4414   5.546   4.467   4.963  0.2182  2.3407  1.0439
   58SAPC  C316 4415   5.648   4.288   5.034  0.1602 -0.3790  0.3299
   58SAPC  H16X 4416   5.555   4.244   5.077 -0.1986  0.8793  0.9024
   58SAPC  H16Y 4417   5.731   4.265   5.104  1.7023 -0.1871 -1.3663
   58SAPC  C317 4418   5.682   4.241   4.890  0.3196  0.2244  0.1791
   58SAPC  H17X 4419   5.696   4.131   4.891 -1.9442 -0.1182 -0.6487
   58SAPC  H17Y 4420   5.776   4.285   4.849  0.6654  0.9142  1.6461
   58SAPC  C318 4421   5.571   4.256   4.792  0.0482  0.3408  0.5405
   58SAPC  H18X 4422   5.476   4.220   4.838 -0.2283  0.3634  0.0025
   58SAPC  H18Y 4423   5.602   4.181   4.716  2.8719 -1.5033  3.2932
   58SAPC  H18Z 4424   5.565   4.359   4.752 -1.9608  0.5126  1.1432
   59SAPC     N 4425   2.877   1.357   7.138 -0.2800  0.3127 -0.0762
   59SAPC   C12 4426   2.927   1.211   7.158  0.5516 -0.4529 -0.1974
   59SAPC  H12A 4427   2.889   1.148   7.079 -2.0319  1.1641 -0.3866
   59SAPC  H12B 4428   2.870   1.167   7.238  1.7499  0.1523  1.0137
   59SAPC   C13 4429   2.941   1.417   7.017 -0.4846  1.0829  0.2642
   59SAPC  H13A 4430   3.048   1.421   7.029 -0.3805 -1.9967  1.3268
   59SAPC  H13B 4431   2.934   1.344   6.937 -2.0951  2.3361 -0.8099
   59SAPC  H13C 4432   2.899   1.513   6.991 -1.2771  0.8071  0.4940
   59SAPC   C14 4433   2.727   1.348   7.113  0.4253 -0.0818  0.6552
   59SAPC  H14A 4434   2.671   1.310   7.197 -5.1167  2.1441 -1.5879
   59SAPC  H14B 4435   2.687   1.446   7.091 -0.1099 -0.6197 -0.9253
   59SAPC  H14C 4436   2.712   1.295   7.020 -0.9357  0.7156  0.3968
   59SAPC   C15 4437   2.909   1.432   7.262 -0.3129 -0.4780  0.3574
   59SAPC  H15A 4438   2.864   1.374   7.342 -0.3034 -0.7636  0.1548
   59SAPC  H15B 4439   3.013   1.439   7.289 -0.2146  2.0699 -0.4259
   59SAPC  H15C 4440   2.855   1.526   7.266 -1.3457 -1.0218 -0.2876
   59SAPC   C11 4441   3.079   1.182   7.176  0.3737  0.0392 -0.6408
   59SAPC  H11A 4442   3.104   1.081   7.215  0.8488  1.3115  2.6665
   59SAPC  H11B 4443   3.126   1.255   7.246  0.4397 -0.5535 -0.0529
   59SAPC     P 4444   3.181   1.102   6.950  0.1765  0.1181 -0.4332
   59SAPC   O13 4445   3.314   1.046   6.979  0.0586  0.2796 -0.8436
   59SAPC   O14 4446   3.072   1.002   6.938  0.0260  0.0678 -0.6355
   59SAPC   O12 4447   3.151   1.221   7.057 -0.5842  0.5722  0.5375
   59SAPC   O11 4448   3.188   1.182   6.812  0.3690  0.7835  0.3017
   59SAPC    C1 4449   3.255   1.306   6.803 -1.0414 -0.4258 -0.2580
   59SAPC    HA 4450   3.188   1.394   6.816  0.4362  0.9258 -1.3429
   59SAPC    HB 4451   3.341   1.313   6.873  0.3057 -0.0538 -1.8835
   59SAPC    C2 4452   3.326   1.330   6.663  0.4131  1.0399 -0.3065
   59SAPC    HS 4453   3.397   1.415   6.661  1.5267  0.1448 -0.0777
   59SAPC   O21 4454   3.226   1.356   6.566 -0.5870  0.0220 -0.3659
   59SAPC   C21 4455   3.179   1.472   6.557  1.1128 -0.0192 -0.1111
   59SAPC   O22 4456   3.213   1.571   6.624 -0.2293  0.3129  0.0895
   59SAPC   C22 4457   3.070   1.462   6.453  1.0220 -0.3882 -0.3672
   59SAPC   H2R 4458   3.087   1.378   6.384  0.6021 -2.5336  1.9851
   59SAPC   H2S 4459   2.973   1.436   6.502  1.1660 -0.3638 -0.0647
   59SAPC    C3 4460   3.394   1.200   6.610  1.0078  0.5297 -0.4576
   59SAPC    HX 4461   3.309   1.133   6.586 -0.5770  2.1147  0.5105
   59SAPC    HY 4462   3.451   1.148   6.690 -0.8306  0.7930  1.0843
   59SAPC   O31 4463   3.489   1.222   6.505  0.6406 -0.4301 -0.1784
   59SAPC   C31 4464   3.494   1.132   6.408 -0.2054 -0.0563 -0.9073
   59SAPC   O32 4465   3.409   1.044   6.392  0.1218 -0.1924 -0.2367
   59SAPC   C32 4466   3.618   1.151   6.315  0.2881 -0.0395 -0.4123
   59SAPC   H2X 4467   3.692   1.077   6.355  0.3391  0.3196  0.1799
   59SAPC   H2Y 4468   3.643   1.258   6.330 -2.0199  0.5587 -0.5592
   59SAPC   C23 4469   3.041   1.609   6.396 -0.2513 -0.0921  0.2188
   59SAPC   H3R 4470   3.031   1.678   6.483  1.0475 -2.3644  2.3088
   59SAPC   H3S 4471   2.939   1.608   6.352 -2.1873  1.8366  4.1646
   59SAPC   C24 4472   3.132   1.642   6.283  0.6348 -1.2383 -0.0943
   59SAPC   H4R 4473   3.216   1.705   6.321  0.5757 -0.8826 -0.5427
   59SAPC   H4S 4474   3.074   1.717   6.225  2.4758  0.5159  0.2101
   59SAPC   C25 4475   3.180   1.536   6.193  0.0524 -0.8177 -0.4113
   59SAPC   H5R 4476   3.249   1.473   6.250  0.7543  0.8930  0.7016
   59SAPC   C26 4477   3.160   1.510   6.062  0.2360 -0.1057 -0.9452
   59SAPC   H6R 4478   3.205   1.419   6.018  0.9570 -0.6799  0.8706
   59SAPC   C27 4479   3.075   1.594   5.966  0.0431  0.2304  0.3347
   59SAPC   H7R 4480   3.077   1.698   6.003 -1.2441  0.5127 -0.3342
   59SAPC   H7S 4481   2.972   1.555   5.977  0.3581 -0.1305  2.3493
   59SAPC   C28 4482   3.127   1.606   5.823 -0.6380  0.4618  0.2606
   59SAPC   H8R 4483   3.185   1.697   5.803 -0.9405  0.7076  0.4945
   59SAPC   C29 4484   3.109   1.524   5.724  0.2671  1.1497  0.4630
   59SAPC   H9R 4485   3.153   1.547   5.625  0.1285  0.4530  0.2399
   59SAPC  C210 4486   3.051   1.386   5.730  0.2988  0.6735 -0.6013
   59SAPC  H10R 4487   2.987   1.377   5.821 -0.6249  0.5004 -1.2609
   59SAPC  H10S 4488   3.132   1.312   5.748 -1.5106 -0.6701  3.0935
   59SAPC  C211 4489   2.953   1.346   5.623  1.4560  0.2591  0.4044
   59SAPC  H11R 4490   2.845   1.346   5.643  1.2198 -1.2613 -0.7052
   59SAPC  C212 4491   2.990   1.310   5.497 -0.1470  0.1337 -0.5518
   59SAPC  H12R 4492   2.912   1.293   5.421  0.4134 -1.0032 -0.9112
   59SAPC  C213 4493   3.137   1.291   5.461 -0.1621 -0.3117  0.1476
   59SAPC  H13R 4494   3.195   1.262   5.551  1.4316  0.8801 -0.4369
   59SAPC  H13S 4495   3.181   1.389   5.432 -2.2544  0.3167 -1.0826
   59SAPC  C214 4496   3.170   1.189   5.359  0.1693  0.1064  1.3316
   59SAPC  H14R 4497   3.185   1.088   5.400  1.6968 -0.8421 -1.3032
   59SAPC  C215 4498   3.164   1.199   5.231  0.5283  0.2066  0.4938
   59SAPC  H15R 4499   3.198   1.118   5.165 -1.1975  0.3304 -0.6214
   59SAPC  C216 4500   3.120   1.326   5.161  0.8545 -0.0679  0.0924
   59SAPC  H16R 4501   3.203   1.398   5.145  0.4446 -0.2514 -4.0160
   59SAPC  H16S 4502   3.032   1.379   5.202  0.2262 -1.2165  0.2756
   59SAPC  C217 4503   3.069   1.297   5.008 -0.6489 -0.0031 -0.1411
   59SAPC  H17R 4504   3.010   1.383   4.972  1.6046  1.1103 -1.3596
   59SAPC  H17S 4505   3.004   1.209   5.028 -1.4194  1.0858  2.6768
   59SAPC  C218 4506   3.194   1.265   4.920  0.1806  0.1085 -0.6916
   59SAPC  H18R 4507   3.170   1.210   4.826  1.3313 -0.4239 -0.6976
   59SAPC  H18S 4508   3.265   1.199   4.975  0.6410  1.3494  0.2606
   59SAPC  C219 4509   3.269   1.392   4.875 -0.8190 -0.7343 -0.0769
   59SAPC  H19R 4510   3.375   1.366   4.854 -1.4986 -3.1834 -0.7670
   59SAPC  H19S 4511   3.282   1.462   4.961  0.4283 -0.1562 -0.7097
   59SAPC  C220 4512   3.204   1.462   4.758 -0.0356 -0.6887  0.6051
   59SAPC  H20R 4513   3.229   1.570   4.750  0.7542 -0.9252 -0.2192
   59SAPC  H20S 4514   3.094   1.446   4.759  0.0698 -1.6042 -0.6621
   59SAPC  H20T 4515   3.244   1.407   4.671 -2.7388  0.1999 -1.3278
   59SAPC   C33 4516   3.587   1.118   6.165  0.4052 -0.1770  0.3590
   59SAPC   H3X 4517   3.559   1.011   6.155  0.2882 -0.1205  0.0726
   59SAPC   H3Y 4518   3.674   1.144   6.102 -0.8242  0.8051 -0.9935
   59SAPC   C34 4519   3.477   1.204   6.107  0.1912  0.5828  0.0415
   59SAPC   H4X 4520   3.518   1.306   6.125  2.8079 -0.5133  0.7534
   59SAPC   H4Y 4521   3.387   1.189   6.171  1.5862  0.9108  2.1890
   59SAPC   C35 4522   3.439   1.187   5.952 -0.2873  0.8378  0.4162
   59SAPC   H5X 4523   3.340   1.231   5.926 -1.8199 -0.5585  3.3962
   59SAPC   H5Y 4524   3.425   1.079   5.931  0.2972  0.4370  1.9769
   59SAPC   C36 4525   3.546   1.248   5.866  0.4919 -0.5731  0.4382
   59SAPC   H6X 4526   3.629   1.175   5.850 -0.0729 -1.0126 -0.5263
   59SAPC   H6Y 4527   3.589   1.328   5.932 -0.0659 -0.6904  0.9535
   59SAPC   C37 4528   3.498   1.308   5.738 -0.4464  0.5159 -0.1181
   59SAPC   H7X 4529   3.414   1.379   5.755 -1.1949 -0.4652  0.4226
   59SAPC   H7Y 4530   3.442   1.234   5.677  0.0157  1.0306 -1.1831
   59SAPC   C38 4531   3.606   1.378   5.653 -0.0093 -0.8188  0.2858
   59SAPC   H8X 4532   3.662   1.446   5.720 -1.1140  0.2144  0.1933
   59SAPC   H8Y 4533   3.553   1.445   5.582 -0.3320 -1.2059  0.1578
   59SAPC   C39 4534   3.682   1.278   5.568  0.3348  0.2468 -0.4244
   59SAPC   H9X 4535   3.604   1.230   5.504 -0.6618 -0.6932  1.4017
   59SAPC   H9Y 4536   3.729   1.205   5.636 -0.0050  0.5648  0.1607
   59SAPC  C310 4537   3.776   1.344   5.464  0.6799 -0.7644 -0.1174
   59SAPC  H10X 4538   3.821   1.260   5.407  1.6786 -0.0526 -0.3991
   59SAPC  H10Y 4539   3.852   1.408   5.513  0.8689 -0.1139 -1.2540
   59SAPC  C311 4540   3.714   1.438   5.365  0.3824 -0.1316 -0.0061
   59SAPC  H11X 4541   3.798   1.450   5.293  0.8552  0.5402  0.6393
   59SAPC  H11Y 4542   3.700   1.537   5.413  1.9184  0.1630 -0.0946
   59SAPC  C312 4543   3.602   1.381   5.287  0.0272 -0.9930  0.4378
   59SAPC  H12X 4544   3.519   1.357   5.358 -1.3033 -0.7759 -0.9952
   59SAPC  H12Y 4545   3.632   1.283   5.244  1.4587 -0.1754 -0.5135
   59SAPC  C313 4546   3.541   1.472   5.183  0.8733 -0.0220 -0.4748
   59SAPC  H13X 4547   3.495   1.564   5.227  0.9234 -0.1590 -0.1305
   59SAPC  H13Y 4548   3.470   1.408   5.128 -0.8923  0.5793  1.0204
   59SAPC  C314 4549   3.648   1.515   5.075 -0.3885  0.1107  0.4845
   59SAPC  H14X 4550   3.708   1.424   5.053 -0.4973  0.2575 -0.4802
   59SAPC  H14Y 4551   3.720   1.587   5.118  1.6328 -1.6729  0.2486
   59SAPC  C315 4552   3.572   1.571   4.948  0.1993  0.8302 -0.3392
   59SAPC  H15X 4553   3.480   1.625   4.977 -1.4949 -1.6217 -0.8513
   59SAPC  H15Y 4554   3.550   1.489   4.875 -1.4042  1.0058 -0.0845
   59SAPC  C316 4555   3.663   1.662   4.858  0.1149  0.0702 -0.7652
   59SAPC  H16X 4556   3.762   1.613   4.843  0.0195 -0.0605 -0.9703
   59SAPC  H16Y 4557   3.680   1.757   4.913  0.4112 -0.5847  0.3008
   59SAPC  C317 4558   3.586   1.703   4.733 -0.0782  0.8117  0.2768
   59SAPC  H17X 4559   3.492   1.754   4.764 -0.1129  1.8696 -1.4365
   59SAPC  H17Y 4560   3.568   1.609   4.676  2.0875  1.8386 -2.3514
   59SAPC  C318 4561   3.667   1.798   4.641  0.1841  0.6692  0.0450
   59SAPC  H18X 4562   3.673   1.897   4.690 -0.3767  1.0180 -0.5790
   59SAPC  H18Y 4563   3.613   1.822   4.547 -0.1833 -0.3149 -0.0104
   59SAPC  H18Z 4564   3.768   1.758   4.617 -1.8511 -3.4154 -3.0234
   60SAPC     N 4565   3.253   2.547   6.930  0.9580  0.5449 -0.3880
   60SAPC   C12 4566   3.159   2.481   6.823  0.1502  0.5666  0.1288
   60SAPC  H12A 4567   3.052   2.488   6.835 -0.2408 -0.7372 -2.0685
   60SAPC  H12B 4568   3.175   2.374   6.830  0.4947  0.5328 -1.0149
   60SAPC   C13 4569   3.239   2.701   6.930 -0.6265  0.1199  0.5075
   60SAPC  H13A 4570   3.262   2.740   6.832 -0.0160 -4.4414 -1.4252
   60SAPC  H13B 4571   3.136   2.722   6.951 -0.9236 -1.5380  0.8319
   60SAPC  H13C 4572   3.310   2.749   6.997 -0.6939  2.3399 -0.9107
   60SAPC   C14 4573   3.203   2.489   7.058 -0.0194  0.5222 -0.2010
   60SAPC  H14A 4574   3.239   2.548   7.141 -2.7341  2.3157 -0.1586
   60SAPC  H14B 4575   3.096   2.506   7.061 -0.1210  0.2825 -1.7690
   60SAPC  H14C 4576   3.217   2.382   7.066 -2.3610  0.3111  2.9076
   60SAPC   C15 4577   3.401   2.532   6.906 -0.1698  0.4943 -0.4505
   60SAPC  H15A 4578   3.414   2.577   6.809  0.3189 -1.2176 -1.2071
   60SAPC  H15B 4579   3.454   2.583   6.985  0.2840 -0.4029 -0.1647
   60SAPC  H15C 4580   3.425   2.427   6.907 -1.5561  0.1509  0.0673
   60SAPC   C11 4581   3.175   2.530   6.673  0.3902 -0.3235 -0.4970
   60SAPC  H11A 4582   3.121   2.459   6.606 -1.1217 -0.4577  0.7903
   60SAPC  H11B 4583   3.282   2.510   6.655  0.7850  0.6595  0.6295
   60SAPC     P 4584   2.978   2.693   6.653  0.3376 -0.1046 -0.4965
   60SAPC   O13 4585   2.912   2.609   6.756  0.1974 -0.2165 -0.8561
   60SAPC   O14 4586   2.954   2.842   6.659 -0.3010  0.6793 -0.0230
   60SAPC   O12 4587   3.132   2.669   6.652  1.0476  0.1899  0.0852
   60SAPC   O11 4588   2.933   2.651   6.510  0.1020 -0.0040 -0.5592
   60SAPC    C1 4589   3.022   2.651   6.394  0.4005  0.2729  0.0323
   60SAPC    HA 4590   3.068   2.751   6.385  0.6706  0.1719  0.2760
   60SAPC    HB 4591   3.101   2.574   6.407 -0.8493 -1.4163 -1.7620
   60SAPC    C2 4592   2.959   2.604   6.258 -0.8235  0.1269  1.0976
   60SAPC    HS 4593   3.032   2.615   6.175 -0.7001 -2.1775  0.8423
   60SAPC   O21 4594   2.846   2.688   6.235  0.2083  0.2899  0.2561
   60SAPC   C21 4595   2.867   2.808   6.173  0.0121  0.5212  0.0071
   60SAPC   O22 4596   2.975   2.856   6.155 -0.6632  0.1774  0.6093
   60SAPC   C22 4597   2.732   2.862   6.113 -0.1189  0.1420  0.9152
   60SAPC   H2R 4598   2.657   2.874   6.194 -0.7493  1.6304  0.1513
   60SAPC   H2S 4599   2.748   2.968   6.081 -0.6835 -0.3665 -1.1951
   60SAPC    C3 4600   2.904   2.463   6.254 -0.3388 -0.0858  0.4455
   60SAPC    HX 4601   2.843   2.454   6.346  1.1795  0.1755  1.5023
   60SAPC    HY 4602   2.989   2.394   6.274 -0.5228 -0.4391  0.0197
   60SAPC   O31 4603   2.817   2.436   6.140  0.6401  0.1697 -0.1158
   60SAPC   C31 4604   2.816   2.305   6.105  0.3674 -0.2446  0.7780
   60SAPC   O32 4605   2.886   2.219   6.151  0.1969 -0.2130 -0.0923
   60SAPC   C32 4606   2.734   2.282   5.983 -0.4010 -0.1921  0.0476
   60SAPC   H2X 4607   2.719   2.385   5.942  1.7365  0.6802  1.3136
   60SAPC   H2Y 4608   2.637   2.234   6.009 -1.6359  2.2749  0.2704
   60SAPC   C23 4609   2.674   2.788   5.995 -0.2648  0.5209 -0.0823
   60SAPC   H3R 4610   2.569   2.824   5.984 -0.6987 -0.7905 -0.3869
   60SAPC   H3S 4611   2.679   2.678   6.010  0.1890  0.5529  0.0240
   60SAPC   C24 4612   2.752   2.827   5.866  0.4195 -0.1036  0.4096
   60SAPC   H4R 4613   2.784   2.931   5.885 -0.3606  0.5018 -1.4399
   60SAPC   H4S 4614   2.671   2.820   5.790  1.5232 -0.3636 -0.7857
   60SAPC   C25 4615   2.867   2.735   5.839  0.6067  0.0418 -0.7470
   60SAPC   H5R 4616   2.944   2.746   5.917  0.4933  0.5213 -0.6999
   60SAPC   C26 4617   2.888   2.646   5.741  0.0751  0.1959 -0.0545
   60SAPC   H6R 4618   2.986   2.597   5.735  0.9838  1.8966  0.1889
   60SAPC   C27 4619   2.793   2.613   5.623  0.1100  0.3111 -0.0420
   60SAPC   H7R 4620   2.719   2.696   5.624  2.5363  2.6294 -0.9345
   60SAPC   H7S 4621   2.748   2.516   5.654  2.0908 -0.6329  0.0784
   60SAPC   C28 4622   2.858   2.585   5.492  0.4957  0.4992  0.2458
   60SAPC   H8R 4623   2.947   2.522   5.505  0.5380  0.2308 -1.1349
   60SAPC   C29 4624   2.815   2.613   5.365  0.4351 -0.7339 -0.1213
   60SAPC   H9R 4625   2.870   2.581   5.275 -2.7387 -4.1788 -1.0820
   60SAPC  C210 4626   2.696   2.701   5.327  0.7865 -0.3566  0.3021
   60SAPC  H10R 4627   2.728   2.763   5.241 -0.6695 -1.0041 -0.7494
   60SAPC  H10S 4628   2.665   2.771   5.407 -0.9230  0.7804 -1.2884
   60SAPC  C211 4629   2.564   2.634   5.300  0.1300 -1.6023 -0.0262
   60SAPC  H11R 4630   2.509   2.609   5.393 -0.8134  0.5547  0.0569
   60SAPC  C212 4631   2.504   2.626   5.181  0.0049  0.0420 -0.3334
   60SAPC  H12R 4632   2.402   2.586   5.177 -0.7305  1.9224 -1.4961
   60SAPC  C213 4633   2.564   2.677   5.054  0.1699 -0.5783  0.5515
   60SAPC  H13R 4634   2.673   2.658   5.057  0.4039 -0.9313 -3.6140
   60SAPC  H13S 4635   2.544   2.786   5.058 -1.5120 -0.7559 -1.2371
   60SAPC  C214 4636   2.500   2.609   4.933  0.2788  0.1792  0.0012
   60SAPC  H14R 4637   2.395   2.639   4.920  0.6468  1.7171  0.3322
   60SAPC  C215 4638   2.561   2.541   4.833 -0.1175 -0.0465  0.1792
   60SAPC  H15R 4639   2.502   2.498   4.751  1.9560 -2.7985 -0.0181
   60SAPC  C216 4640   2.707   2.502   4.824  0.0663  0.3596  0.3344
   60SAPC  H16R 4641   2.707   2.397   4.861 -0.8685  0.3047  0.2071
   60SAPC  H16S 4642   2.772   2.565   4.888 -0.7785  0.9233  0.6556
   60SAPC  C217 4643   2.754   2.511   4.683  0.3615 -0.4948  0.3281
   60SAPC  H17R 4644   2.860   2.479   4.686  1.1590  1.7677 -0.9239
   60SAPC  H17S 4645   2.763   2.617   4.649  3.3679 -0.3564  1.2980
   60SAPC  C218 4646   2.677   2.423   4.577 -0.0041  0.4489  0.3277
   60SAPC  H18R 4647   2.572   2.450   4.552  1.0107  1.3680 -3.6005
   60SAPC  H18S 4648   2.675   2.319   4.617 -2.5940  0.1482 -0.3885
   60SAPC  C219 4649   2.758   2.416   4.445 -0.4294  0.0454  0.0044
   60SAPC  H19R 4650   2.718   2.323   4.399  0.0080 -0.0037 -0.2892
   60SAPC  H19S 4651   2.865   2.394   4.468 -0.6957 -0.4395  0.8199
   60SAPC  C220 4652   2.744   2.522   4.344  0.2427 -0.0675  0.7015
   60SAPC  H20R 4653   2.801   2.612   4.373 -1.0256  1.1326 -0.3920
   60SAPC  H20S 4654   2.636   2.546   4.332  0.2036  0.6552  2.2224
   60SAPC  H20T 4655   2.801   2.495   4.252  0.5898  1.0770  0.5739
   60SAPC   C33 4656   2.792   2.206   5.863  0.0065 -0.3222  0.1341
   60SAPC   H3X 4657   2.824   2.101   5.883  0.0768  0.0902  2.4861
   60SAPC   H3Y 4658   2.882   2.259   5.825  0.2180  0.5482  1.7683
   60SAPC   C34 4659   2.702   2.202   5.735 -0.0131 -0.5693 -0.8512
   60SAPC   H4X 4660   2.682   2.307   5.704  1.5432  0.3082  0.9044
   60SAPC   H4Y 4661   2.610   2.141   5.749 -2.1699  2.7759  1.0464
   60SAPC   C35 4662   2.776   2.142   5.614  0.0123  0.0912  0.3093
   60SAPC   H5X 4663   2.781   2.032   5.624  0.0526  0.1461  0.9361
   60SAPC   H5Y 4664   2.877   2.188   5.612  0.5021 -0.8524 -2.8696
   60SAPC   C36 4665   2.717   2.182   5.480  0.3006  0.5785 -0.1503
   60SAPC   H6X 4666   2.713   2.292   5.462 -3.0533  0.6879  0.6040
   60SAPC   H6Y 4667   2.613   2.142   5.474 -0.0174  0.8127  2.6055
   60SAPC   C37 4668   2.805   2.127   5.363  1.2904  0.9872  0.1936
   60SAPC   H7X 4669   2.801   2.016   5.356 -2.8409  0.9363  0.6254
   60SAPC   H7Y 4670   2.911   2.162   5.366  1.4335  0.7137 -1.0522
   60SAPC   C38 4671   2.771   2.182   5.225 -0.7543 -0.4421 -0.1548
   60SAPC   H8X 4672   2.865   2.191   5.166 -0.4318 -0.6421  0.3266
   60SAPC   H8Y 4673   2.735   2.283   5.254  1.1350  0.5656 -1.1775
   60SAPC   C39 4674   2.656   2.118   5.146 -0.2824 -0.0002 -0.5999
   60SAPC   H9X 4675   2.572   2.088   5.212  0.5028 -1.5296 -0.2392
   60SAPC   H9Y 4676   2.691   2.020   5.106 -2.1613 -0.4713 -1.1846
   60SAPC  C310 4677   2.606   2.198   5.030 -0.0888  0.2880 -0.7688
   60SAPC  H10X 4678   2.696   2.214   4.966  1.3589 -3.0601  0.2109
   60SAPC  H10Y 4679   2.563   2.290   5.074 -0.3021 -0.0899 -0.1815
   60SAPC  C311 4680   2.509   2.118   4.941 -0.1962 -0.0306 -0.1548
   60SAPC  H11X 4681   2.423   2.076   4.998  0.9838 -0.1559  1.5841
   60SAPC  H11Y 4682   2.571   2.032   4.906  1.2423 -0.8376  3.8671
   60SAPC  C312 4683   2.451   2.214   4.837 -0.2584 -0.0890  0.1964
   60SAPC  H12X 4684   2.534   2.236   4.767 -0.7273 -0.4618 -0.4953
   60SAPC  H12Y 4685   2.408   2.301   4.890 -0.9471 -1.1936  1.5401
   60SAPC  C313 4686   2.334   2.149   4.763  0.2051 -0.1683  0.5245
   60SAPC  H13X 4687   2.250   2.111   4.825 -1.3238  0.1950 -1.2319
   60SAPC  H13Y 4688   2.374   2.059   4.713 -1.4765 -0.9755  0.5739
   60SAPC  C314 4689   2.267   2.235   4.647  0.2250 -0.2330 -0.5182
   60SAPC  H14X 4690   2.356   2.249   4.582 -0.4914 -0.6803 -1.6272
   60SAPC  H14Y 4691   2.220   2.327   4.688 -1.1990 -1.0319 -0.3028
   60SAPC  C315 4692   2.156   2.175   4.553  0.4617  0.4713  0.1982
   60SAPC  H15X 4693   2.076   2.139   4.621  0.3365 -0.8000 -0.5928
   60SAPC  H15Y 4694   2.191   2.096   4.483 -1.7516 -0.9725  0.6308
   60SAPC  C316 4695   2.082   2.284   4.475 -0.6556 -1.0098 -0.3412
   60SAPC  H16X 4696   2.093   2.262   4.367  1.5724  0.3041 -0.4546
   60SAPC  H16Y 4697   2.121   2.385   4.501 -2.4471  0.1682 -1.9865
   60SAPC  C317 4698   1.931   2.283   4.508 -0.9084  0.4594 -0.8926
   60SAPC  H17X 4699   1.907   2.351   4.593 -1.3086  0.2331 -0.8227
   60SAPC  H17Y 4700   1.896   2.181   4.535  0.5157 -0.0996 -1.1191
   60SAPC  C318 4701   1.845   2.321   4.393  0.0657 -0.5493  0.2958
   60SAPC  H18X 4702   1.742   2.351   4.421 -0.2100  0.5720 -1.7432
   60SAPC  H18Y 4703   1.836   2.236   4.323 -0.6350  0.3196 -0.7038
   60SAPC  H18Z 4704   1.886   2.411   4.343 -1.4009  1.1595  2.0074
   61SAPC     N 4705   2.277   2.567   6.833 -0.9421  0.0598  0.0628
   61SAPC   C12 4706   2.346   2.431   6.822 -0.0421 -0.0766  0.6933
   61SAPC  H12A 4707   2.419   2.425   6.901  1.5121 -0.3428 -0.6772
   61SAPC  H12B 4708   2.414   2.422   6.737 -1.8027 -2.4733 -0.5952
   61SAPC   C13 4709   2.173   2.564   6.938 -0.4819 -0.0999 -0.7320
   61SAPC  H13A 4710   2.099   2.490   6.915  2.7126 -3.4093 -1.2284
   61SAPC  H13B 4711   2.221   2.553   7.034 -0.7288  0.6066 -0.5201
   61SAPC  H13C 4712   2.117   2.656   6.945 -0.3877 -0.1254  0.7438
   61SAPC   C14 4713   2.384   2.671   6.857 -0.7014 -0.0154  0.1562
   61SAPC  H14A 4714   2.429   2.633   6.947 -1.1883  2.0370  1.3121
   61SAPC  H14B 4715   2.459   2.669   6.779  0.5929 -1.3281  1.3704
   61SAPC  H14C 4716   2.338   2.767   6.875  2.4953  1.2614  2.4615
   61SAPC   C15 4717   2.219   2.607   6.702  0.1927 -0.4598  0.6758
   61SAPC  H15A 4718   2.165   2.700   6.695  2.4146  0.7688 -2.1851
   61SAPC  H15B 4719   2.293   2.612   6.623  0.4109  2.8728  0.9842
   61SAPC  H15C 4720   2.147   2.527   6.688  1.0210 -1.2166  0.6126
   61SAPC   C11 4721   2.257   2.298   6.810 -0.3777 -0.8536  0.1115
   61SAPC  H11A 4722   2.221   2.287   6.915 -0.4605  0.0638  0.1865
   61SAPC  H11B 4723   2.330   2.218   6.788  1.1304 -0.0475  1.9487
   61SAPC     P 4724   2.175   2.281   6.557  0.3627  0.0193  0.1806
   61SAPC   O13 4725   2.160   2.137   6.540 -0.1373  0.1803  0.3956
   61SAPC   O14 4726   2.094   2.372   6.471 -0.2628  0.0192  0.7343
   61SAPC   O12 4727   2.159   2.313   6.708  0.2719 -0.9672 -0.3218
   61SAPC   O11 4728   2.329   2.303   6.534 -0.0699 -0.4588 -0.3759
   61SAPC    C1 4729   2.388   2.407   6.448 -1.0003 -0.4502 -0.1645
   61SAPC    HA 4730   2.346   2.510   6.452  1.4010  0.5547  0.9671
   61SAPC    HB 4731   2.495   2.409   6.478 -1.3876  2.9110  1.3577
   61SAPC    C2 4732   2.382   2.361   6.299 -0.1127 -0.0075 -0.0021
   61SAPC    HS 4733   2.281   2.387   6.261  0.0093  1.0408  0.3550
   61SAPC   O21 4734   2.421   2.221   6.274  0.4250 -0.3260  0.5511
   61SAPC   C21 4735   2.339   2.152   6.197 -0.0033 -0.2081  0.2449
   61SAPC   O22 4736   2.234   2.194   6.154  0.5553 -0.5036 -0.4297
   61SAPC   C22 4737   2.387   2.011   6.178  0.3197  0.5789  0.9700
   61SAPC   H2R 4738   2.492   2.026   6.147  0.2896  2.6063  1.7382
   61SAPC   H2S 4739   2.376   1.957   6.275 -1.0757  2.1837  1.7457
   61SAPC    C3 4740   2.470   2.456   6.219 -0.5545  0.7269  1.2399
   61SAPC    HX 4741   2.572   2.447   6.260 -0.3173  1.0514  0.7324
   61SAPC    HY 4742   2.448   2.564   6.233  1.9049  1.2553  1.3486
   61SAPC   O31 4743   2.487   2.425   6.076 -0.9704 -0.1142 -0.4248
   61SAPC   C31 4744   2.376   2.466   6.014  1.2144  0.0220  0.3731
   61SAPC   O32 4745   2.296   2.545   6.056  0.2543  0.1173  0.1048
   61SAPC   C32 4746   2.370   2.396   5.880  0.6669 -0.4199 -0.2460
   61SAPC   H2X 4747   2.277   2.336   5.868 -0.2964  0.9779 -0.0342
   61SAPC   H2Y 4748   2.455   2.325   5.871  1.8901  1.1216 -1.2976
   61SAPC   C23 4749   2.306   1.931   6.069  0.2839 -0.4318  0.7829
   61SAPC   H3R 4750   2.197   1.934   6.090  0.5097  0.9314  1.9393
   61SAPC   H3S 4751   2.329   1.823   6.066  1.7441 -0.1158 -0.8294
   61SAPC   C24 4752   2.330   1.990   5.925  0.6235 -1.0698  0.7152
   61SAPC   H4R 4753   2.439   1.983   5.906 -0.0179  0.3937 -5.7195
   61SAPC   H4S 4754   2.287   2.092   5.930 -2.5909 -2.2451 -0.2523
   61SAPC   C25 4755   2.279   1.911   5.811  0.0021  0.3612 -0.4011
   61SAPC   H5R 4756   2.281   1.801   5.822  2.9719  0.5519  2.3720
   61SAPC   C26 4757   2.221   1.958   5.699  1.0109  0.4300  0.6338
   61SAPC   H6R 4758   2.185   1.878   5.633  2.9719 -1.5503  1.7902
   61SAPC   C27 4759   2.197   2.104   5.665 -0.1907  0.0013  0.0685
   61SAPC   H7R 4760   2.295   2.150   5.642 -0.4042  0.6416  0.3880
   61SAPC   H7S 4761   2.157   2.165   5.749 -0.2571  0.6556 -0.4329
   61SAPC   C28 4762   2.111   2.114   5.543  0.2323 -0.3707 -0.2530
   61SAPC   H8R 4763   2.018   2.054   5.550 -0.3363  0.7163  3.8393
   61SAPC   C29 4764   2.141   2.183   5.427  0.0365  0.2993 -0.4508
   61SAPC   H9R 4765   2.060   2.166   5.355 -3.4824  2.5901  2.5871
   61SAPC  C210 4766   2.259   2.272   5.411 -0.0468 -0.2875  0.2369
   61SAPC  H10R 4767   2.350   2.247   5.469  0.3006  0.4213  0.0079
   61SAPC  H10S 4768   2.226   2.374   5.440 -0.5523 -0.7919  1.5265
   61SAPC  C211 4769   2.319   2.285   5.272  0.5925 -0.6919 -0.5041
   61SAPC  H11R 4770   2.425   2.256   5.268  0.7360 -0.2110 -0.3518
   61SAPC  C212 4771   2.256   2.347   5.167  0.0357  0.2059  0.8348
   61SAPC  H12R 4772   2.306   2.363   5.071  0.5321  0.6696  1.1664
   61SAPC  C213 4773   2.117   2.402   5.164  0.2075  0.0873 -0.2659
   61SAPC  H13R 4774   2.128   2.512   5.159  0.0676  0.2284  1.6391
   61SAPC  H13S 4775   2.065   2.384   5.261 -0.7738 -0.3143 -0.8483
   61SAPC  C214 4776   2.034   2.341   5.050 -0.4096  0.0481  1.1020
   61SAPC  H14R 4777   2.006   2.235   5.060  0.1690 -0.2487 -0.2921
   61SAPC  C215 4778   1.984   2.408   4.945 -0.0212 -0.1567  0.3240
   61SAPC  H15R 4779   1.934   2.348   4.868  0.2990 -0.3239  0.2465
   61SAPC  C216 4780   1.982   2.559   4.912  0.0145  0.5118 -0.8912
   61SAPC  H16R 4781   2.027   2.616   4.996 -1.7478  0.6247  0.0284
   61SAPC  H16S 4782   1.881   2.603   4.894 -0.7034  0.4181  2.3358
   61SAPC  C217 4783   2.056   2.588   4.777  0.8186  0.1978 -0.3294
   61SAPC  H17R 4784   2.014   2.529   4.693 -3.4614  0.7294  1.1637
   61SAPC  H17S 4785   2.157   2.544   4.794 -0.5049 -2.7043  0.7665
   61SAPC  C218 4786   2.075   2.735   4.745  0.0217 -0.4947  0.3165
   61SAPC  H18R 4787   2.151   2.739   4.664 -0.7531  1.8755 -0.3806
   61SAPC  H18S 4788   2.109   2.787   4.837 -1.0143  0.3126  0.2646
   61SAPC  C219 4789   1.946   2.798   4.687  0.0673 -0.5957 -0.0551
   61SAPC  H19R 4790   1.863   2.781   4.759  0.1591  0.0457  0.2084
   61SAPC  H19S 4791   1.915   2.746   4.594 -1.0121  1.5810 -0.9727
   61SAPC  C220 4792   1.952   2.950   4.659  0.1251  0.3677 -0.3960
   61SAPC  H20R 4793   1.848   2.980   4.636 -0.9256 -2.4900  0.1806
   61SAPC  H20S 4794   2.005   2.969   4.563  0.2875 -3.8516 -1.3711
   61SAPC  H20T 4795   2.002   3.006   4.740  3.7242  0.4976 -2.4901
   61SAPC   C33 4796   2.381   2.479   5.746 -0.9044 -0.3235 -0.2236
   61SAPC   H3X 4797   2.386   2.415   5.656  1.1092  0.8338 -1.0170
   61SAPC   H3Y 4798   2.479   2.531   5.747 -0.2859 -1.4773  0.7860
   61SAPC   C34 4799   2.263   2.579   5.745  0.0086 -0.2024 -0.1308
   61SAPC   H4X 4800   2.185   2.548   5.818 -1.2365 -0.1709 -1.4129
   61SAPC   H4Y 4801   2.207   2.575   5.649  1.3990  1.1482 -1.0496
   61SAPC   C35 4802   2.305   2.731   5.748  0.1762  0.4270  0.6115
   61SAPC   H5X 4803   2.378   2.750   5.829 -1.7083  0.2269  2.4259
   61SAPC   H5Y 4804   2.222   2.795   5.784 -0.0963  0.3593  0.1062
   61SAPC   C36 4805   2.373   2.778   5.620  0.2134 -0.4005 -0.3731
   61SAPC   H6X 4806   2.441   2.700   5.580 -1.1328 -2.8203  1.8129
   61SAPC   H6Y 4807   2.450   2.850   5.655  0.2601 -0.3936 -0.4875
   61SAPC   C37 4808   2.285   2.845   5.511 -0.2213  0.3962 -0.4781
   61SAPC   H7X 4809   2.347   2.907   5.443 -0.7471  0.9448 -0.4745
   61SAPC   H7Y 4810   2.212   2.913   5.561  0.4043  0.3328  0.5294
   61SAPC   C38 4811   2.209   2.734   5.439 -0.3744 -0.1321  0.4412
   61SAPC   H8X 4812   2.129   2.687   5.502  1.4994 -0.7838  2.4794
   61SAPC   H8Y 4813   2.275   2.646   5.422 -1.6129 -0.8116 -1.0568
   61SAPC   C39 4814   2.160   2.781   5.300 -0.3423 -0.0789 -0.3271
   61SAPC   H9X 4815   2.072   2.719   5.272 -2.2811  2.5664 -0.4294
   61SAPC   H9Y 4816   2.245   2.774   5.229  0.5009 -0.1156  0.6659
   61SAPC  C310 4817   2.090   2.918   5.287 -0.0514  0.5891 -0.7253
   61SAPC  H10X 4818   2.163   3.001   5.296  0.6354 -0.1395  0.9036
   61SAPC  H10Y 4819   2.027   2.927   5.378  0.6421  1.5339 -0.3206
   61SAPC  C311 4820   1.996   2.937   5.167  0.7119 -0.2974  0.2662
   61SAPC  H11X 4821   1.932   2.848   5.153 -1.3028  1.0531  0.5444
   61SAPC  H11Y 4822   2.058   2.944   5.075 -0.5178  3.0235 -0.4581
   61SAPC  C312 4823   1.908   3.065   5.171  0.1563 -0.3546 -0.6381
   61SAPC  H12X 4824   1.985   3.142   5.192  1.5576 -2.0724  0.9406
   61SAPC  H12Y 4825   1.850   3.051   5.265  0.0306 -0.0872 -0.6769
   61SAPC  C313 4826   1.810   3.088   5.055  0.6425 -0.1058 -0.1662
   61SAPC  H13X 4827   1.754   2.994   5.035 -0.4527  0.7222 -1.1487
   61SAPC  H13Y 4828   1.878   3.113   4.971 -0.0474  0.6083 -0.5321
   61SAPC  C314 4829   1.708   3.196   5.075  0.1367 -0.1683  0.3334
   61SAPC  H14X 4830   1.768   3.286   5.098  2.0087 -1.4301  0.6204
   61SAPC  H14Y 4831   1.633   3.185   5.156  1.2250  1.8499  1.7026
   61SAPC  C315 4832   1.619   3.217   4.950  0.1611  0.2402  0.2538
   61SAPC  H15X 4833   1.686   3.241   4.865  0.8057 -1.0038  0.3930
   61SAPC  H15Y 4834   1.542   3.297   4.963  1.0133  1.7627 -2.9986
   61SAPC  C316 4835   1.527   3.098   4.908 -0.4199 -0.3750 -0.0023
   61SAPC  H16X 4836   1.453   3.067   4.984 -0.7892  0.9677  0.2183
   61SAPC  H16Y 4837   1.597   3.013   4.898 -0.5924 -0.4107 -0.9492
   61SAPC  C317 4838   1.449   3.126   4.769 -0.7716 -0.2777  0.1146
   61SAPC  H17X 4839   1.376   3.042   4.768  1.8851 -2.8412  2.4872
   61SAPC  H17Y 4840   1.524   3.130   4.687  1.6348  1.6100  2.2416
   61SAPC  C318 4841   1.377   3.265   4.764  0.6233  0.1111  0.2948
   61SAPC  H18X 4842   1.314   3.279   4.674 -1.8441  2.8155  2.2437
   61SAPC  H18Y 4843   1.454   3.344   4.759  0.2777  0.4375  0.1279
   61SAPC  H18Z 4844   1.319   3.269   4.859 -0.9586 -1.3577 -0.5464
   62SAPC     N 4845   4.094   5.536   6.220  0.1457  0.1228 -0.1692
   62SAPC   C12 4846   4.063   5.617   6.347 -0.0776  0.7826  0.2293
   62SAPC  H12A 4847   4.144   5.587   6.413 -1.8217 -0.0327  2.1060
   62SAPC  H12B 4848   3.966   5.582   6.380 -0.6159 -0.3410 -2.3218
   62SAPC   C13 4849   3.985   5.539   6.124  0.1112  0.6034  0.1343
   62SAPC  H13A 4850   3.994   5.468   6.043 -2.6706  1.3360 -0.9533
   62SAPC  H13B 4851   3.888   5.522   6.169  0.2131  0.6012  0.3513
   62SAPC  H13C 4852   3.979   5.631   6.067  4.4099  0.3354 -1.1152
   62SAPC   C14 4853   4.210   5.592   6.155  0.0039 -0.0607 -0.0235
   62SAPC  H14A 4854   4.297   5.601   6.218  1.2410  3.4325 -1.9489
   62SAPC  H14B 4855   4.243   5.523   6.079  0.2265 -0.4772  0.4471
   62SAPC  H14C 4856   4.190   5.693   6.121  1.5398  0.5056  0.6768
   62SAPC   C15 4857   4.123   5.394   6.263 -0.0494  1.2082  0.4478
   62SAPC  H15A 4858   4.158   5.325   6.188  4.5610  0.6739  2.7228
   62SAPC  H15B 4859   4.206   5.402   6.332  1.0822 -0.2454 -0.6826
   62SAPC  H15C 4860   4.035   5.354   6.312 -1.8455  0.6072 -2.9415
   62SAPC   C11 4861   4.055   5.771   6.344 -0.1577 -0.3576 -0.1823
   62SAPC  H11A 4862   4.152   5.804   6.301 -1.3419  2.5829 -0.8759
   62SAPC  H11B 4863   4.054   5.824   6.442  0.3121  0.5733 -0.6615
   62SAPC     P 4864   3.801   5.800   6.313  0.1305 -0.0919  0.1155
   62SAPC   O13 4865   3.748   5.673   6.263 -0.0651 -0.0786  0.5955
   62SAPC   O14 4866   3.806   5.832   6.458 -0.1024 -0.2006  0.5182
   62SAPC   O12 4867   3.946   5.825   6.262  0.5691  0.5098  0.7665
   62SAPC   O11 4868   3.725   5.920   6.242  0.0377  0.3041  0.2099
   62SAPC    C1 4869   3.683   5.916   6.103  0.1010  0.3689 -0.1655
   62SAPC    HA 4870   3.775   5.913   6.040 -1.6831  1.3647 -3.0482
   62SAPC    HB 4871   3.617   5.828   6.087  0.9621 -0.3017 -0.0532
   62SAPC    C2 4872   3.621   6.050   6.055 -0.2067 -0.6142  1.2051
   62SAPC    HS 4873   3.674   6.133   6.107  0.6119 -0.9049  0.8456
   62SAPC   O21 4874   3.479   6.051   6.073 -0.4393  0.6788  0.2597
   62SAPC   C21 4875   3.442   6.113   6.184  0.2849 -0.2573  0.2457
   62SAPC   O22 4876   3.519   6.148   6.270 -0.1072  0.1363 -0.2723
   62SAPC   C22 4877   3.288   6.131   6.177  0.0246  0.9863 -0.2554
   62SAPC   H2R 4878   3.264   6.033   6.131  2.4611 -0.2573  0.9088
   62SAPC   H2S 4879   3.260   6.149   6.283 -0.0747 -2.2598  0.3650
   62SAPC    C3 4880   3.641   6.089   5.905 -0.2788 -0.8002  0.4799
   62SAPC    HX 4881   3.581   6.180   5.883  2.3222  0.8032 -0.4683
   62SAPC    HY 4882   3.604   5.996   5.858  1.3812 -0.6692 -1.2486
   62SAPC   O31 4883   3.785   6.109   5.878  0.7573  0.0184 -0.3320
   62SAPC   C31 4884   3.801   6.124   5.744 -0.1139 -0.1781  0.0082
   62SAPC   O32 4885   3.718   6.134   5.659  0.7461  0.0273  0.2741
   62SAPC   C32 4886   3.950   6.122   5.715 -0.5446 -0.0138 -0.1026
   62SAPC   H2X 4887   3.987   6.047   5.788 -1.2987 -0.6529 -0.3587
   62SAPC   H2Y 4888   4.003   6.217   5.735  1.0398 -0.9428  0.2735
   62SAPC   C23 4889   3.243   6.240   6.079  0.1926  0.1988  0.5264
   62SAPC   H3R 4890   3.150   6.196   6.036  0.6977  1.3969 -1.9782
   62SAPC   H3S 4891   3.309   6.247   5.990 -2.2155  1.3396 -1.3009
   62SAPC   C24 4892   3.222   6.375   6.145  0.4369 -0.6269  0.4628
   62SAPC   H4R 4893   3.165   6.358   6.239  2.0844  2.1096  2.0835
   62SAPC   H4S 4894   3.169   6.445   6.078 -1.9664 -1.6687  1.1520
   62SAPC   C25 4895   3.357   6.430   6.178 -0.5666  0.0873 -0.4178
   62SAPC   H5R 4896   3.382   6.441   6.284  1.8950  3.0141 -1.1705
   62SAPC   C26 4897   3.444   6.479   6.090 -0.2043 -0.0538  0.3929
   62SAPC   H6R 4898   3.547   6.502   6.120  0.2877  0.5310 -1.6003
   62SAPC   C27 4899   3.426   6.488   5.944  0.3652 -0.2591 -0.1381
   62SAPC   H7R 4900   3.316   6.494   5.924 -0.0551  1.1505  2.2408
   62SAPC   H7S 4901   3.446   6.386   5.906 -1.3054 -1.1234  1.1408
   62SAPC   C28 4902   3.499   6.597   5.882  0.1611 -0.0621 -0.5658
   62SAPC   H8R 4903   3.489   6.689   5.942 -2.1427 -2.0587  2.4653
   62SAPC   C29 4904   3.575   6.591   5.772 -0.0239 -0.0278 -0.6648
   62SAPC   H9R 4905   3.623   6.685   5.741 -0.5290  0.0277 -1.2947
   62SAPC  C210 4906   3.605   6.473   5.684 -0.5363  0.2525  0.0017
   62SAPC  H10R 4907   3.555   6.384   5.727 -0.9197  0.8218  0.7403
   62SAPC  H10S 4908   3.712   6.445   5.673 -1.1211 -2.7219  0.9903
   62SAPC  C211 4909   3.543   6.501   5.550  0.0135  0.4152  0.7962
   62SAPC  H11R 4910   3.450   6.559   5.557  0.7708  1.7556  0.1528
   62SAPC  C212 4911   3.577   6.463   5.421  1.0976 -0.0262  0.0836
   62SAPC  H12R 4912   3.500   6.474   5.343  0.0384 -0.8934  0.9644
   62SAPC  C213 4913   3.702   6.386   5.382 -0.5299 -0.0892  0.6113
   62SAPC  H13R 4914   3.765   6.354   5.467  1.8456 -1.6096 -1.5833
   62SAPC  H13S 4915   3.774   6.444   5.320 -0.0137 -1.3199  0.0409
   62SAPC  C214 4916   3.665   6.271   5.288 -0.0724  0.4185 -0.8013
   62SAPC  H14R 4917   3.652   6.176   5.341  0.3860  1.5508  1.4613
   62SAPC  C215 4918   3.642   6.275   5.157  0.6833 -0.6370 -0.4099
   62SAPC  H15R 4919   3.619   6.178   5.111 -0.1008 -1.5017  1.6800
   62SAPC  C216 4920   3.635   6.401   5.065  0.4763 -0.3103  0.2484
   62SAPC  H16R 4921   3.636   6.486   5.138 -1.1001  0.2860 -0.3856
   62SAPC  H16S 4922   3.532   6.408   5.024 -0.1056  0.8809  1.7846
   62SAPC  C217 4923   3.729   6.403   4.949 -0.1558 -0.0510  0.2362
   62SAPC  H17R 4924   3.688   6.463   4.865  1.6737 -0.9787 -1.4042
   62SAPC  H17S 4925   3.735   6.303   4.901  0.8777  1.2343 -2.5358
   62SAPC  C218 4926   3.873   6.442   4.992 -0.0331 -0.0325 -0.3299
   62SAPC  H18R 4927   3.929   6.386   5.070  0.2365  0.9180  0.1734
   62SAPC  H18S 4928   3.869   6.544   5.036  0.4188  0.1298 -0.6471
   62SAPC  C219 4929   3.968   6.446   4.861 -0.8853  1.0366 -0.2343
   62SAPC  H19R 4930   4.069   6.469   4.903  0.1138  0.5570 -2.2281
   62SAPC  H19S 4931   3.940   6.532   4.797  1.0587  1.7230 -0.2512
   62SAPC  C220 4932   3.979   6.316   4.795  0.9057  1.0336 -0.4097
   62SAPC  H20R 4933   4.067   6.316   4.726  0.1475 -0.9039 -1.4663
   62SAPC  H20S 4934   3.892   6.276   4.739  1.5442 -1.0843  0.0032
   62SAPC  H20T 4935   3.994   6.235   4.870  0.9653 -1.2122 -2.7022
   62SAPC   C33 4936   3.968   6.089   5.564 -0.1312  0.3273  0.6849
   62SAPC   H3X 4937   4.078   6.095   5.546 -0.3514  0.4291 -0.7134
   62SAPC   H3Y 4938   3.924   6.164   5.496  1.9249 -0.3799 -1.5819
   62SAPC   C34 4939   3.934   5.941   5.534 -0.1037  0.6794 -0.1315
   62SAPC   H4X 4940   3.826   5.930   5.556  0.5427 -1.5878  2.4532
   62SAPC   H4Y 4941   3.991   5.876   5.604 -0.3630  0.6991  0.0971
   62SAPC   C35 4942   3.960   5.904   5.388 -0.2593  0.7740  0.2064
   62SAPC   H5X 4943   4.021   5.812   5.382 -0.4037  0.7395 -4.2827
   62SAPC   H5Y 4944   4.021   5.976   5.329  0.7156 -0.7490 -0.7117
   62SAPC   C36 4945   3.840   5.868   5.304  0.2712  0.8075  0.0843
   62SAPC   H6X 4946   3.760   5.944   5.306 -0.8753 -0.3111 -0.9352
   62SAPC   H6Y 4947   3.791   5.779   5.350 -0.9377 -0.0412 -2.6239
   62SAPC   C37 4948   3.864   5.820   5.160 -0.1934 -0.1643 -0.7941
   62SAPC   H7X 4949   3.768   5.770   5.137  0.6803 -2.4651  0.2471
   62SAPC   H7Y 4950   3.939   5.738   5.162  0.0479 -0.0698 -3.0777
   62SAPC   C38 4951   3.914   5.927   5.072 -0.0098  0.3071 -0.4435
   62SAPC   H8X 4952   4.016   5.960   5.098 -0.4195  1.1418  0.1593
   62SAPC   H8Y 4953   3.856   6.021   5.085  0.6145  0.6269  0.0624
   62SAPC   C39 4954   3.904   5.901   4.919 -0.4518 -0.5298  0.9408
   62SAPC   H9X 4955   3.927   5.996   4.867  3.6482 -1.9178 -0.1865
   62SAPC   H9Y 4956   3.804   5.861   4.890  0.4671 -2.3802  0.1504
   62SAPC  C310 4957   3.996   5.785   4.864  0.2440  0.0093  0.3690
   62SAPC  H10X 4958   3.949   5.690   4.898 -0.5273  0.1338 -0.3253
   62SAPC  H10Y 4959   4.099   5.792   4.904 -0.3120 -0.0418  1.8804
   62SAPC  C311 4960   4.002   5.784   4.708  0.8880  0.0371 -0.8937
   62SAPC  H11X 4961   4.020   5.890   4.683 -0.2965  0.7163  0.8790
   62SAPC  H11Y 4962   3.899   5.752   4.681  0.2018 -0.2751  1.7363
   62SAPC  C312 4963   4.110   5.691   4.651  0.1673 -0.1639 -0.4481
   62SAPC  H12X 4964   4.063   5.591   4.658  1.8305 -1.3264 -3.8699
   62SAPC  H12Y 4965   4.191   5.702   4.727 -0.5323  0.6902  0.1982
   62SAPC  C313 4966   4.131   5.713   4.498 -0.0232  0.1854  0.3606
   62SAPC  H13X 4967   4.053   5.666   4.435 -1.1870 -1.1299  2.6486
   62SAPC  H13Y 4968   4.216   5.647   4.471 -1.5510 -1.1338 -1.4664
   62SAPC  C314 4969   4.142   5.857   4.449 -0.8242 -0.8133  0.0206
   62SAPC  H14X 4970   4.046   5.912   4.440 -0.0361  0.4418 -1.0267
   62SAPC  H14Y 4971   4.188   5.839   4.349  1.5844 -0.7911  1.0542
   62SAPC  C315 4972   4.247   5.948   4.513 -0.3391 -0.3963 -0.0054
   62SAPC  H15X 4973   4.344   5.895   4.508  0.3718  0.8394  0.3604
   62SAPC  H15Y 4974   4.227   5.968   4.620  0.7561 -1.0573  0.3407
   62SAPC  C316 4975   4.262   6.091   4.448 -0.6840 -0.1084  0.1574
   62SAPC  H16X 4976   4.347   6.150   4.488 -1.4617  1.3564 -0.2745
   62SAPC  H16Y 4977   4.175   6.157   4.470 -1.6009 -1.2795  0.1455
   62SAPC  C317 4978   4.303   6.072   4.301 -0.0334  0.2438  0.1836
   62SAPC  H17X 4979   4.277   6.161   4.239 -0.5008 -1.3273 -1.9971
   62SAPC  H17Y 4980   4.242   5.996   4.248 -2.6836  1.2108  1.6218
   62SAPC  C318 4981   4.446   6.035   4.292  0.0144 -0.3254 -1.0791
   62SAPC  H18X 4982   4.501   6.091   4.370  0.2508 -1.7101 -0.2078
   62SAPC  H18Y 4983   4.491   6.066   4.195 -0.2180 -1.2349 -1.4964
   62SAPC  H18Z 4984   4.463   5.926   4.308  2.7287  0.0339 -1.0221
   63SAPC     N 4985   5.254   1.873   7.177 -0.5766  0.0691  0.4928
   63SAPC   C12 4986   5.170   1.982   7.111 -0.1915  0.5310  0.3655
   63SAPC  H12A 4987   5.235   2.054   7.064 -0.8385  0.1906 -1.0985
   63SAPC  H12B 4988   5.112   2.030   7.188 -1.3662  0.9896 -0.7767
   63SAPC   C13 4989   5.338   1.790   7.079  0.0029  0.8048  0.5460
   63SAPC  H13A 4990   5.294   1.777   6.981 -0.5165 -0.8342  0.9605
   63SAPC  H13B 4991   5.437   1.825   7.055 -0.0343 -0.2194 -1.3030
   63SAPC  H13C 4992   5.362   1.694   7.121 -0.6595  1.1472  1.7610
   63SAPC   C14 4993   5.348   1.925   7.290 -0.0069  0.6910 -0.0586
   63SAPC  H14A 4994   5.442   1.965   7.256  1.4110 -0.4380  2.2952
   63SAPC  H14B 4995   5.296   2.006   7.340 -0.1613  0.1997  0.5886
   63SAPC  H14C 4996   5.379   1.853   7.364 -0.0158  1.6376  0.8980
   63SAPC   C15 4997   5.165   1.780   7.248 -0.8340  0.4569 -0.3117
   63SAPC  H15A 4998   5.224   1.727   7.321 -2.5230 -1.6576 -0.4091
   63SAPC  H15B 4999   5.081   1.827   7.297  0.1054 -0.0238  1.8581
   63SAPC  H15C 5000   5.124   1.708   7.179 -1.5707 -1.4996  2.0593
   63SAPC   C11 5001   5.064   1.945   6.999 -0.2887 -0.6321  0.4432
   63SAPC  H11A 5002   5.122   1.937   6.905  0.4264 -2.2191  0.9895
   63SAPC  H11B 5003   5.003   2.038   6.998  2.2990  1.1812 -1.3900
   63SAPC     P 5004   4.821   1.849   7.058 -0.0141 -0.2965 -0.2343
   63SAPC   O13 5005   4.757   1.711   7.059 -0.1755  0.0780 -0.9890
   63SAPC   O14 5006   4.819   1.927   7.182  0.5727 -0.3647 -0.4765
   63SAPC   O12 5007   4.978   1.831   7.021 -0.2906  0.0623  0.8921
   63SAPC   O11 5008   4.764   1.937   6.940  0.2245  0.0780 -0.7910
   63SAPC    C1 5009   4.747   1.873   6.810 -0.4223  0.0348 -0.2648
   63SAPC    HA 5010   4.742   1.762   6.808  2.5121 -0.1751 -1.6667
   63SAPC    HB 5011   4.650   1.900   6.761  0.1335 -1.1148 -2.1147
   63SAPC    C2 5012   4.854   1.915   6.706  0.2677  0.0182 -0.5350
   63SAPC    HS 5013   4.946   1.862   6.738 -1.5719 -3.8394 -1.0303
   63SAPC   O21 5014   4.867   2.058   6.698  0.2535  0.5898  0.2564
   63SAPC   C21 5015   4.981   2.101   6.667 -0.8505  0.4025  0.7173
   63SAPC   O22 5016   5.085   2.032   6.659  0.9921  0.1072 -0.2444
   63SAPC   C22 5017   4.983   2.252   6.645  0.3320 -0.2538 -0.4948
   63SAPC   H2R 5018   4.977   2.299   6.745 -1.3477  0.7771 -1.0348
   63SAPC   H2S 5019   5.078   2.269   6.589 -0.8056  1.8111 -1.9227
   63SAPC    C3 5020   4.815   1.869   6.563  0.3169 -0.0224 -0.5411
   63SAPC    HX 5021   4.751   1.942   6.510 -0.9935 -1.6200 -1.2501
   63SAPC    HY 5022   4.761   1.772   6.569  0.5155 -0.0675  0.9772
   63SAPC   O31 5023   4.937   1.862   6.481 -0.2254 -0.2005 -0.0924
   63SAPC   C31 5024   5.021   1.755   6.506  0.4977  0.3004 -0.1322
   63SAPC   O32 5025   4.988   1.657   6.567  0.0207 -0.3407 -0.4314
   63SAPC   C32 5026   5.152   1.787   6.438  0.0329 -0.7766 -0.1791
   63SAPC   H2X 5027   5.220   1.699   6.446  1.0458 -0.1041 -1.1073
   63SAPC   H2Y 5028   5.191   1.876   6.491  0.6371  0.8653 -3.1283
   63SAPC   C23 5029   4.886   2.319   6.551  0.2560 -0.0680 -0.0965
   63SAPC   H3R 5030   4.785   2.307   6.595 -0.8861  3.0190 -1.5437
   63SAPC   H3S 5031   4.882   2.275   6.449 -1.6231 -0.9298  0.3101
   63SAPC   C24 5032   4.912   2.469   6.517  0.4437  0.1728 -0.7755
   63SAPC   H4R 5033   4.861   2.486   6.420 -1.1870 -4.4560 -0.9920
   63SAPC   H4S 5034   5.020   2.476   6.492  0.4550  0.6466 -0.6047
   63SAPC   C25 5035   4.871   2.572   6.625 -0.3256 -0.0523  0.3690
   63SAPC   H5R 5036   4.856   2.537   6.728 -1.4567  1.2177  0.6689
   63SAPC   C26 5037   4.832   2.703   6.594 -0.1597  0.7561 -0.8719
   63SAPC   H6R 5038   4.785   2.760   6.675 -1.8140  0.1866 -1.3767
   63SAPC   C27 5039   4.828   2.766   6.456 -0.6714  0.1233  0.4909
   63SAPC   H7R 5040   4.903   2.722   6.387 -1.7152 -0.3662 -0.3581
   63SAPC   H7S 5041   4.867   2.867   6.481 -1.7594  0.1786  2.1552
   63SAPC   C28 5042   4.685   2.760   6.398  0.4439  0.3243  0.5320
   63SAPC   H8R 5043   4.603   2.765   6.472  1.1617 -1.6666  1.5204
   63SAPC   C29 5044   4.657   2.761   6.269 -0.1184 -0.0574 -0.4960
   63SAPC   H9R 5045   4.550   2.780   6.250  0.3438  1.6874 -1.5128
   63SAPC  C210 5046   4.750   2.773   6.150  0.2756 -0.1531 -0.4248
   63SAPC  H10R 5047   4.851   2.732   6.171 -0.0088 -0.9438 -0.5806
   63SAPC  H10S 5048   4.789   2.875   6.127  3.3719 -0.9628  0.7042
   63SAPC  C211 5049   4.687   2.704   6.036  0.0331 -0.2997 -0.1673
   63SAPC  H11R 5050   4.637   2.607   6.052 -0.2013 -0.5398 -2.0918
   63SAPC  C212 5051   4.694   2.741   5.906  0.8550 -0.0074  0.2466
   63SAPC  H12R 5052   4.640   2.682   5.832 -1.5661 -0.3116  2.1373
   63SAPC  C213 5053   4.755   2.868   5.859  0.2555  0.1613 -0.2156
   63SAPC  H13R 5054   4.853   2.846   5.812  0.6209  0.8104  0.2302
   63SAPC  H13S 5055   4.776   2.926   5.951 -0.3041 -1.7435  1.1689
   63SAPC  C214 5056   4.659   2.927   5.756 -0.3939 -0.8112  0.1469
   63SAPC  H14R 5057   4.582   2.988   5.806 -0.4046  0.3797 -1.2806
   63SAPC  C215 5058   4.663   2.932   5.623 -0.6534 -0.3208  0.8534
   63SAPC  H15R 5059   4.579   2.977   5.568  0.8622  0.4476 -0.9390
   63SAPC  C216 5060   4.780   2.880   5.534 -0.6768  0.0887  0.3554
   63SAPC  H16R 5061   4.736   2.793   5.480 -1.5410  0.6343  0.1579
   63SAPC  H16S 5062   4.872   2.841   5.581 -1.2786  0.1515  1.6394
   63SAPC  C217 5063   4.819   2.984   5.423 -0.9077 -0.9395  0.4488
   63SAPC  H17R 5064   4.877   3.060   5.480 -0.5703 -0.0297 -1.0678
   63SAPC  H17S 5065   4.730   3.032   5.378 -2.6834 -3.9254  0.5217
   63SAPC  C218 5066   4.910   2.922   5.316 -0.9334 -0.0793  0.2281
   63SAPC  H18R 5067   4.847   2.860   5.249 -2.3088  0.4731  0.9653
   63SAPC  H18S 5068   4.980   2.855   5.369  0.2820  2.2693  1.7710
   63SAPC  C219 5069   5.002   3.028   5.247  0.0545  0.3211 -0.1269
   63SAPC  H19R 5070   5.086   2.978   5.195 -0.0425  0.8984 -0.8515
   63SAPC  H19S 5071   5.053   3.083   5.329 -0.3885  0.0085  0.3702
   63SAPC  C220 5072   4.927   3.122   5.157 -0.6933 -0.0066  0.2924
   63SAPC  H20R 5073   4.831   3.163   5.194 -0.9245 -0.4401  0.1819
   63SAPC  H20S 5074   4.903   3.063   5.066  4.0592 -1.4884 -0.2642
   63SAPC  H20T 5075   4.996   3.207   5.137 -1.3521  0.2982 -0.7644
   63SAPC   C33 5076   5.145   1.834   6.287  0.2786  0.3664 -0.3388
   63SAPC   H3X 5077   5.106   1.937   6.284 -0.2770  0.1412 -0.9877
   63SAPC   H3Y 5078   5.079   1.765   6.230 -0.6001  1.4217 -0.6321
   63SAPC   C34 5079   5.273   1.821   6.202 -0.0663  0.3719  0.0070
   63SAPC   H4X 5080   5.277   1.711   6.184 -0.2192  0.2270  0.8400
   63SAPC   H4Y 5081   5.350   1.855   6.274 -0.5953  0.6372  0.4535
   63SAPC   C35 5082   5.285   1.885   6.072 -0.0541  0.1391 -0.3727
   63SAPC   H5X 5083   5.377   1.842   6.026  0.0182  1.0128 -1.0822
   63SAPC   H5Y 5084   5.287   1.994   6.092 -1.6048  0.1396 -0.0836
   63SAPC   C36 5085   5.172   1.851   5.966  0.0725 -0.3242 -0.4710
   63SAPC   H6X 5086   5.076   1.885   6.010  0.0269 -1.3168  0.2343
   63SAPC   H6Y 5087   5.144   1.743   5.961 -0.3148 -0.2909  0.6077
   63SAPC   C37 5088   5.202   1.923   5.830 -0.0810 -0.2919  0.7560
   63SAPC   H7X 5089   5.273   1.863   5.771  0.8970 -0.7655  2.3416
   63SAPC   H7Y 5090   5.247   2.023   5.848  0.1828 -0.6729  2.3653
   63SAPC   C38 5091   5.069   1.932   5.758 -0.4387 -0.1096 -0.3076
   63SAPC   H8X 5092   4.983   1.965   5.821 -0.2580  1.5480 -0.8868
   63SAPC   H8Y 5093   5.064   1.825   5.727 -2.9727 -0.4032  0.8494
   63SAPC   C39 5094   5.070   2.016   5.635 -0.0047 -0.3060  0.1994
   63SAPC   H9X 5095   5.153   1.980   5.570 -0.2895 -1.3538  0.4065
   63SAPC   H9Y 5096   5.091   2.123   5.659 -1.9702 -0.1254  1.2669
   63SAPC  C310 5097   4.941   2.011   5.553  0.1563  0.3506 -0.0004
   63SAPC  H10X 5098   4.858   2.049   5.617  1.6402  1.7660  1.1945
   63SAPC  H10Y 5099   4.924   1.905   5.527 -2.2416  0.0935  2.2576
   63SAPC  C311 5100   4.925   2.092   5.424 -0.0411 -0.2855 -0.1891
   63SAPC  H11X 5101   4.970   2.193   5.417 -1.6234  0.5917  1.5609
   63SAPC  H11Y 5102   4.816   2.102   5.406  0.0054 -0.0272 -0.3281
   63SAPC  C312 5103   4.975   2.018   5.303  0.4238 -0.2717  0.1934
   63SAPC  H12X 5104   4.933   1.917   5.283  1.0059 -0.5242  0.2335
   63SAPC  H12Y 5105   5.082   1.991   5.314  0.2679 -0.4323  1.4142
   63SAPC  C313 5106   4.946   2.103   5.174 -0.4563 -0.1507  0.0029
   63SAPC  H13X 5107   4.979   2.208   5.192 -0.3569 -0.1196 -0.3523
   63SAPC  H13Y 5108   4.838   2.125   5.165 -0.4810 -0.1580  0.2860
   63SAPC  C314 5109   5.008   2.044   5.048 -0.8055 -0.2957  0.2579
   63SAPC  H14X 5110   4.967   1.943   5.028  0.2349 -0.0526 -4.0438
   63SAPC  H14Y 5111   5.114   2.027   5.076 -0.3827 -0.7611 -1.5313
   63SAPC  C315 5112   5.008   2.122   4.914  0.0035  0.1442 -0.0614
   63SAPC  H15X 5113   4.975   2.226   4.933  0.1765 -0.1762  2.1872
   63SAPC  H15Y 5114   4.934   2.065   4.854  1.8232 -2.9207  0.3849
   63SAPC  C316 5115   5.127   2.133   4.828 -1.0719 -0.3261  0.1877
   63SAPC  H16X 5116   5.170   2.038   4.790  1.6405  1.5430 -1.7810
   63SAPC  H16Y 5117   5.201   2.194   4.882 -1.4599  0.0200  0.3335
   63SAPC  C317 5118   5.109   2.220   4.701 -0.0118 -0.0489  0.1507
   63SAPC  H17X 5119   5.102   2.327   4.728 -0.8860  0.8575 -3.2777
   63SAPC  H17Y 5120   5.016   2.191   4.648 -0.0964  2.3839 -1.1423
   63SAPC  C318 5121   5.222   2.202   4.596 -0.5509 -0.3326  0.0765
   63SAPC  H18X 5122   5.295   2.130   4.637 -1.3292 -0.3467  1.5072
   63SAPC  H18Y 5123   5.272   2.299   4.575  0.9947 -0.5660  2.3721
   63SAPC  H18Z 5124   5.179   2.150   4.508  0.9977 -1.3616 -0.1064
   64SAPC     N 5125   3.586   3.545   6.563 -0.2731 -0.4603 -0.1904
   64SAPC   C12 5126   3.444   3.552   6.615  0.1538  1.0556  0.1472
   64SAPC  H12A 5127   3.371   3.544   6.535 -0.4927  2.3579  0.5783
   64SAPC  H12B 5128   3.427   3.646   6.666  0.2031  0.5482  1.1205
   64SAPC   C13 5129   3.680   3.581   6.682 -0.0036  0.7929 -0.1471
   64SAPC  H13A 5130   3.672   3.501   6.755  0.6240  0.9746  0.1230
   64SAPC  H13B 5131   3.781   3.595   6.648 -0.0900  1.2039 -0.2450
   64SAPC  H13C 5132   3.651   3.674   6.728  0.2141  0.6191  0.3382
   64SAPC   C14 5133   3.634   3.419   6.503 -0.3109 -0.2171 -0.1803
   64SAPC  H14A 5134   3.647   3.340   6.575  0.3749  0.7299  0.7735
   64SAPC  H14B 5135   3.558   3.383   6.437  0.5545 -2.5525  0.0015
   64SAPC  H14C 5136   3.733   3.435   6.461 -0.2884 -0.6209 -0.2788
   64SAPC   C15 5137   3.602   3.655   6.462 -0.6029 -0.0435 -0.6487
   64SAPC  H15A 5138   3.543   3.633   6.374 -2.1918  0.8313  0.1598
   64SAPC  H15B 5139   3.580   3.751   6.506 -0.1545 -1.3493  2.7134
   64SAPC  H15C 5140   3.707   3.670   6.442 -0.6421  1.2063 -0.0079
   64SAPC   C11 5141   3.403   3.433   6.717 -0.6184 -0.8026  0.2353
   64SAPC  H11A 5142   3.429   3.338   6.665  1.2612 -0.1862 -0.0517
   64SAPC  H11B 5143   3.292   3.442   6.716 -0.6053 -0.6232 -0.4903
   64SAPC     P 5144   3.561   3.347   6.907 -0.3138  0.0776 -0.2430
   64SAPC   O13 5145   3.653   3.428   6.997 -0.5585 -0.6864  0.3746
   64SAPC   O14 5146   3.484   3.235   6.969 -0.4066  0.8586 -0.4117
   64SAPC   O12 5147   3.461   3.443   6.843  0.3176 -0.7726 -0.5171
   64SAPC   O11 5148   3.632   3.288   6.783 -0.0240 -0.5021  0.0059
   64SAPC    C1 5149   3.744   3.203   6.808 -0.2307 -0.0648  0.6740
   64SAPC    HA 5150   3.832   3.256   6.850  1.0353 -0.2996 -1.4938
   64SAPC    HB 5151   3.725   3.123   6.883  0.6263  0.3341  1.3379
   64SAPC    C2 5152   3.778   3.123   6.680  0.1051  0.1681  0.1272
   64SAPC    HS 5153   3.852   3.047   6.715 -1.4184 -2.0848 -1.3058
   64SAPC   O21 5154   3.839   3.205   6.576 -0.2327  0.0785  0.5684
   64SAPC   C21 5155   3.976   3.213   6.575  0.3972  0.9632 -0.2024
   64SAPC   O22 5156   4.052   3.147   6.648  0.2737  0.2746 -0.2795
   64SAPC   C22 5157   4.019   3.301   6.459 -0.3753 -1.0148  0.2739
   64SAPC   H2R 5158   3.973   3.257   6.368  1.5267 -0.9063 -0.7859
   64SAPC   H2S 5159   3.977   3.401   6.484  0.0299 -1.2042  1.7814
   64SAPC    C3 5160   3.656   3.043   6.616 -0.4579  0.4095  0.1737
   64SAPC    HX 5161   3.576   3.114   6.586 -1.6372 -1.0717 -0.3016
   64SAPC    HY 5162   3.612   2.975   6.692 -0.2056 -0.5362 -0.5105
   64SAPC   O31 5163   3.707   2.970   6.506  0.4228  0.1958  0.1172
   64SAPC   C31 5164   3.665   3.003   6.377 -0.0447  0.2687  0.2161
   64SAPC   O32 5165   3.572   3.077   6.363 -0.0117  0.0706  0.3884
   64SAPC   C32 5166   3.752   2.935   6.267 -0.3698  0.1562 -0.6405
   64SAPC   H2X 5167   3.783   2.834   6.301 -0.8390  0.3473  0.3934
   64SAPC   H2Y 5168   3.834   3.003   6.238  0.7087 -0.1366  1.5481
   64SAPC   C23 5169   4.173   3.309   6.444 -1.0606  0.3210  0.1666
   64SAPC   H3R 5170   4.218   3.210   6.463  0.0728  0.5763 -1.0323
   64SAPC   H3S 5171   4.208   3.378   6.524  0.0537  1.7279 -1.4470
   64SAPC   C24 5172   4.220   3.369   6.308  0.7911  0.3085  0.4614
   64SAPC   H4R 5173   4.324   3.409   6.309  1.4265 -1.2426 -0.6762
   64SAPC   H4S 5174   4.140   3.441   6.280  0.1080 -0.3942  0.5743
   64SAPC   C25 5175   4.224   3.246   6.217  0.4409  0.0373  0.4560
   64SAPC   H5R 5176   4.293   3.165   6.246  0.7449  0.1218 -0.0106
   64SAPC   C26 5177   4.176   3.237   6.093  0.5510  0.8221  0.1208
   64SAPC   H6R 5178   4.187   3.135   6.054 -1.0659 -0.5701  2.9192
   64SAPC   C27 5179   4.075   3.324   6.028 -0.6107 -0.1064 -0.3867
   64SAPC   H7R 5180   4.098   3.328   5.920 -1.4564 -1.3160 -0.6319
   64SAPC   H7S 5181   4.076   3.427   6.070 -1.3083  1.0368 -2.9638
   64SAPC   C28 5182   3.945   3.261   6.032 -0.2474 -0.4794  0.7820
   64SAPC   H8R 5183   3.873   3.297   6.107 -3.6710  0.5136 -2.6320
   64SAPC   C29 5184   3.902   3.170   5.939 -0.6461 -0.4351  0.1360
   64SAPC   H9R 5185   3.804   3.121   5.949  0.1450 -1.7960  1.5386
   64SAPC  C210 5186   3.975   3.125   5.815 -0.0112 -0.5322  0.9811
   64SAPC  H10R 5187   3.940   3.026   5.781  1.7961 -0.7398 -0.4495
   64SAPC  H10S 5188   4.084   3.113   5.835 -0.6795 -2.0068  4.3762
   64SAPC  C211 5189   3.951   3.228   5.696  0.6841 -0.1058 -0.4379
   64SAPC  H11R 5190   3.916   3.326   5.730 -2.5138 -0.8386 -1.3020
   64SAPC  C212 5191   3.951   3.213   5.565  0.3128  0.3560 -0.5527
   64SAPC  H12R 5192   3.920   3.302   5.508 -1.0585  0.2867  0.0339
   64SAPC  C213 5193   3.993   3.076   5.509  0.5322 -0.0565  0.4099
   64SAPC  H13R 5194   4.011   3.010   5.595 -0.7754 -0.8315  0.1213
   64SAPC  H13S 5195   4.084   3.091   5.448  2.4698  1.7667  3.4858
   64SAPC  C214 5196   3.873   3.019   5.426 -0.2800 -0.4492  0.2539
   64SAPC  H14R 5197   3.773   3.020   5.473 -0.2752  2.3011  0.3795
   64SAPC  C215 5198   3.872   2.952   5.310  0.1398  0.4349  0.1214
   64SAPC  H15R 5199   3.774   2.940   5.260 -1.0026  1.6331  1.9611
   64SAPC  C216 5200   3.994   2.935   5.228 -0.6924  0.4834 -0.3784
   64SAPC  H16R 5201   4.027   2.830   5.242 -1.9548  0.1649  0.3701
   64SAPC  H16S 5202   4.082   2.989   5.268  2.2446 -3.8014 -0.4709
   64SAPC  C217 5203   3.979   2.965   5.078 -0.0160  0.4548 -0.2823
   64SAPC  H17R 5204   3.918   2.883   5.034  0.7102 -0.3234  0.1274
   64SAPC  H17S 5205   4.082   2.969   5.036  0.8937  3.1770  1.8892
   64SAPC  C218 5206   3.914   3.097   5.039  0.4070  0.5316  0.5554
   64SAPC  H18R 5207   3.971   3.173   5.097 -0.0822  0.3013  1.3599
   64SAPC  H18S 5208   3.809   3.096   5.076  0.6019  0.7953  1.1430
   64SAPC  C219 5209   3.946   3.137   4.892 -0.2722 -0.1080 -0.1946
   64SAPC  H19R 5210   3.931   3.049   4.826  0.3249 -0.9962  0.8243
   64SAPC  H19S 5211   4.050   3.172   4.876  0.2900 -2.6569 -2.8648
   64SAPC  C220 5212   3.866   3.262   4.833 -0.1194  0.2436  0.2952
   64SAPC  H20R 5213   3.759   3.234   4.826 -0.2510  0.9836 -0.9453
   64SAPC  H20S 5214   3.917   3.279   4.736  1.7558 -1.3834  0.9367
   64SAPC  H20T 5215   3.885   3.353   4.894 -0.1449  0.1305  0.4729
   64SAPC   C33 5216   3.679   2.901   6.137  0.9944 -0.5022  0.3324
   64SAPC   H3X 5217   3.631   2.992   6.095  1.2737 -0.4955  0.0171
   64SAPC   H3Y 5218   3.593   2.834   6.156  0.7965  0.1425  1.8976
   64SAPC   C34 5219   3.763   2.830   6.026  0.0669  0.0736  0.5926
   64SAPC   H4X 5220   3.786   2.729   6.065  0.5965 -0.5751 -1.2716
   64SAPC   H4Y 5221   3.864   2.870   6.006 -0.1956  0.1323 -0.7599
   64SAPC   C35 5222   3.681   2.814   5.893 -0.6405 -0.1979 -1.0510
   64SAPC   H5X 5223   3.670   2.910   5.838  1.9949  0.5291 -0.4851
   64SAPC   H5Y 5224   3.578   2.785   5.921 -0.0027 -1.2447  0.3270
   64SAPC   C36 5225   3.735   2.701   5.798 -0.2585 -0.3303  0.3964
   64SAPC   H6X 5226   3.677   2.608   5.814 -0.2477 -0.2085  1.1903
   64SAPC   H6Y 5227   3.837   2.677   5.834 -0.8987 -2.3980  0.9259
   64SAPC   C37 5228   3.747   2.753   5.650  0.1202  0.2611  0.1742
   64SAPC   H7X 5229   3.841   2.811   5.640  0.9784 -0.6520  2.3093
   64SAPC   H7Y 5230   3.662   2.817   5.619  0.7124  1.2923  0.6197
   64SAPC   C38 5231   3.744   2.641   5.545 -0.0175  0.3126  0.3187
   64SAPC   H8X 5232   3.698   2.678   5.451 -3.4465 -1.9355  0.9505
   64SAPC   H8Y 5233   3.670   2.565   5.578 -0.7891  0.4005 -1.1287
   64SAPC   C39 5234   3.876   2.582   5.494 -0.3440 -0.0967 -0.3725
   64SAPC   H9X 5235   3.941   2.532   5.569 -1.0005 -1.1698 -0.4932
   64SAPC   H9Y 5236   3.938   2.656   5.440  1.5519 -1.2263  0.1559
   64SAPC  C310 5237   3.844   2.485   5.385  0.2153  0.2547  0.4934
   64SAPC  H10X 5238   3.782   2.549   5.318 -1.2308 -0.2830  1.2664
   64SAPC  H10Y 5239   3.780   2.401   5.418 -1.1401  1.1604  0.2512
   64SAPC  C311 5240   3.960   2.438   5.293  0.3949 -0.5589 -0.1086
   64SAPC  H11X 5241   4.047   2.411   5.356  0.2117  0.9280  0.8423
   64SAPC  H11Y 5242   3.991   2.528   5.236 -1.1933 -1.0415 -1.8392
   64SAPC  C312 5243   3.912   2.336   5.194  0.2930  0.5386  0.7741
   64SAPC  H12X 5244   3.826   2.389   5.147  0.5891  0.4485  0.1270
   64SAPC  H12Y 5245   3.883   2.246   5.252 -0.5906  0.7496  0.6737
   64SAPC  C313 5246   4.020   2.307   5.092 -0.1918  0.0642 -0.2030
   64SAPC  H13X 5247   4.116   2.289   5.144  0.5294  1.1628 -1.0959
   64SAPC  H13Y 5248   4.056   2.391   5.028  0.3952 -0.2165 -0.2439
   64SAPC  C314 5249   3.983   2.190   5.001  0.6438  0.1269  0.4328
   64SAPC  H14X 5250   3.876   2.193   4.971  0.0792  0.0036  2.2987
   64SAPC  H14Y 5251   3.998   2.090   5.045 -0.4525  0.5816  1.9002
   64SAPC  C315 5252   4.074   2.185   4.878  0.2135 -0.1526 -0.3608
   64SAPC  H15X 5253   4.183   2.201   4.894  0.2231  0.0041 -0.5775
   64SAPC  H15Y 5254   4.051   2.272   4.812 -1.1582  1.9751  2.6574
   64SAPC  C316 5255   4.038   2.062   4.790  0.2469 -0.1332  0.4280
   64SAPC  H16X 5256   3.930   2.073   4.771 -0.1890 -0.0911  2.6486
   64SAPC  H16Y 5257   4.060   1.974   4.855  0.8952  0.7192  1.4011
   64SAPC  C317 5258   4.120   2.053   4.660  0.1507  0.3003  0.1441
   64SAPC  H17X 5259   4.228   2.049   4.687  1.2451 -0.8753 -3.7610
   64SAPC  H17Y 5260   4.097   2.153   4.617 -0.5755  1.3012  2.6871
   64SAPC  C318 5261   4.077   1.933   4.563 -0.1087  0.1132  0.1112
   64SAPC  H18X 5262   4.117   1.839   4.605  0.1802 -0.9170 -2.2915
   64SAPC  H18Y 5263   4.118   1.949   4.460 -0.4928  0.9606  0.0832
   64SAPC  H18Z 5264   3.966   1.929   4.556 -0.1267  1.5043 -1.2469
   65SAPC     N 5265   2.633   1.057   2.279 -0.6093  0.9228  0.1920
   65SAPC   C12 5266   2.692   1.036   2.418  0.6063 -0.1196 -0.7200
   65SAPC  H12A 5267   2.798   1.055   2.419  0.6360  0.2279  2.6839
   65SAPC  H12B 5268   2.693   0.935   2.456  4.3060 -0.0183 -0.1655
   65SAPC   C13 5269   2.729   0.988   2.180  0.7823  0.5461  0.1131
   65SAPC  H13A 5270   2.832   1.020   2.186  0.8400  0.1891  1.1408
   65SAPC  H13B 5271   2.722   0.881   2.196  0.6208  0.6734  0.9401
   65SAPC  H13C 5272   2.694   0.997   2.078  0.0892  0.0001  0.2977
   65SAPC   C14 5273   2.501   0.982   2.276 -0.2280  0.0020 -0.2384
   65SAPC  H14A 5274   2.444   1.002   2.187 -0.7660  1.2968  0.3558
   65SAPC  H14B 5275   2.513   0.875   2.283  1.8569  0.2366  0.4310
   65SAPC  H14C 5276   2.450   1.019   2.364  1.3956  0.2428  0.6493
   65SAPC   C15 5277   2.615   1.198   2.235  0.3867 -0.1086 -0.0664
   65SAPC  H15A 5278   2.704   1.258   2.222 -1.1037  2.2754  0.0105
   65SAPC  H15B 5279   2.563   1.208   2.141  1.0962  1.4242 -0.3269
   65SAPC  H15C 5280   2.558   1.261   2.302 -2.8163 -0.6256 -2.1119
   65SAPC   C11 5281   2.625   1.114   2.536 -0.7810 -0.8069  0.0324
   65SAPC  H11A 5282   2.680   1.096   2.631 -1.8232 -2.5342  0.3479
   65SAPC  H11B 5283   2.532   1.057   2.557 -0.1806 -1.5937  0.6233
   65SAPC     P 5284   2.778   1.325   2.510  0.0414 -0.0088 -0.0061
   65SAPC   O13 5285   2.883   1.224   2.543 -0.3317 -0.3948 -0.0700
   65SAPC   O14 5286   2.796   1.404   2.386  0.2156 -0.1365  0.7295
   65SAPC   O12 5287   2.629   1.259   2.510 -0.2856  0.3784  0.3559
   65SAPC   O11 5288   2.778   1.428   2.632 -0.1331  0.5646 -0.1871
   65SAPC    C1 5289   2.665   1.470   2.703 -0.0256  0.2221 -0.2007
   65SAPC    HA 5290   2.603   1.536   2.639 -2.6354  0.0152  1.9369
   65SAPC    HB 5291   2.599   1.384   2.729 -0.2189  0.3086 -0.3928
   65SAPC    C2 5292   2.688   1.538   2.836  0.6565 -0.6258  0.3007
   65SAPC    HS 5293   2.686   1.468   2.922 -0.6292  0.3912  1.1396
   65SAPC   O21 5294   2.576   1.633   2.855  0.2642  0.1327 -0.0945
   65SAPC   C21 5295   2.472   1.586   2.924  0.5281 -0.3853  0.8871
   65SAPC   O22 5296   2.465   1.471   2.972  0.4934 -0.5801  0.0006
   65SAPC   C22 5297   2.357   1.691   2.940 -0.1415 -0.3564 -0.6702
   65SAPC   H2R 5298   2.400   1.761   3.015 -0.6975 -0.4382 -0.2721
   65SAPC   H2S 5299   2.345   1.750   2.847 -3.2939 -1.0880 -0.8139
   65SAPC    C3 5300   2.822   1.620   2.830 -0.4670 -0.1413  0.6588
   65SAPC    HX 5301   2.811   1.691   2.745 -1.3125 -1.8963 -0.7588
   65SAPC    HY 5302   2.900   1.544   2.809 -0.4467 -0.5328  2.0519
   65SAPC   O31 5303   2.846   1.676   2.963 -0.3979  0.1501 -0.2225
   65SAPC   C31 5304   2.972   1.724   2.972  0.5407 -0.4669  0.3847
   65SAPC   O32 5305   3.048   1.751   2.883 -0.2799  0.3114 -0.2964
   65SAPC   C32 5306   2.992   1.752   3.114 -0.2578  0.0548  0.2628
   65SAPC   H2X 5307   2.965   1.661   3.172  1.9305 -0.4877  0.5195
   65SAPC   H2Y 5308   2.932   1.834   3.159  2.1836  1.6725  0.7938
   65SAPC   C23 5309   2.216   1.646   2.988  0.0615 -0.1831  0.1942
   65SAPC   H3R 5310   2.220   1.585   3.081 -0.0156 -0.4514  0.0209
   65SAPC   H3S 5311   2.164   1.582   2.914 -0.0370 -0.6002  0.6135
   65SAPC   C24 5312   2.128   1.774   3.016  0.1729  0.1208 -0.2302
   65SAPC   H4R 5313   2.028   1.739   3.052  0.3726  0.0313  0.2421
   65SAPC   H4S 5314   2.123   1.825   2.917  3.5477  1.8656  0.3681
   65SAPC   C25 5315   2.184   1.871   3.118  0.5662  0.1564  0.0691
   65SAPC   H5R 5316   2.258   1.942   3.078  0.5855 -0.5836 -1.2675
   65SAPC   C26 5317   2.148   1.894   3.247  0.7138 -0.0929  0.0044
   65SAPC   H6R 5318   2.212   1.964   3.303 -0.2282  1.1245 -0.3964
   65SAPC   C27 5319   2.052   1.811   3.327  0.0141  0.3986  0.2040
   65SAPC   H7R 5320   2.111   1.738   3.386  0.5514  1.7465  1.3875
   65SAPC   H7S 5321   1.983   1.759   3.258 -0.3258 -0.8668  1.4595
   65SAPC   C28 5322   1.967   1.895   3.411 -0.2896 -0.5980 -0.2618
   65SAPC   H8R 5323   1.874   1.933   3.366  0.1418  0.3077 -0.4228
   65SAPC   C29 5324   1.968   1.894   3.544 -0.3030 -0.2875 -0.1392
   65SAPC   H9R 5325   1.906   1.961   3.604 -0.1460 -1.3350  1.2372
   65SAPC  C210 5326   2.072   1.829   3.634 -0.2024  0.6675 -1.1427
   65SAPC  H10R 5327   2.114   1.916   3.689 -1.3115  1.8470 -2.1125
   65SAPC  H10S 5328   2.163   1.778   3.594 -0.1791 -2.1394  2.0037
   65SAPC  C211 5329   1.995   1.742   3.738  0.2294 -0.2166  0.5471
   65SAPC  H11R 5330   1.956   1.648   3.695  2.8128 -0.2152 -2.1891
   65SAPC  C212 5331   1.970   1.768   3.869  0.0551 -0.2377 -0.4327
   65SAPC  H12R 5332   1.912   1.687   3.914  0.0312  0.4585  0.8203
   65SAPC  C213 5333   2.007   1.897   3.956  0.0248  0.4390 -0.1204
   65SAPC  H13R 5334   1.915   1.929   4.008 -0.7876 -0.9414 -0.6521
   65SAPC  H13S 5335   2.048   1.978   3.891  0.5882 -0.9739 -1.6057
   65SAPC  C214 5336   2.111   1.864   4.057  1.1965  0.1870  0.7152
   65SAPC  H14R 5337   2.215   1.884   4.028  1.1001 -1.8944 -1.3569
   65SAPC  C215 5338   2.085   1.817   4.180  0.0995 -0.0514  0.1456
   65SAPC  H15R 5339   2.165   1.803   4.254 -0.4224 -0.6909  0.5979
   65SAPC  C216 5340   1.947   1.778   4.238 -0.5369 -0.2535  0.9605
   65SAPC  H16R 5341   1.877   1.732   4.166 -2.4772  1.7865  1.4192
   65SAPC  H16S 5342   1.896   1.875   4.254 -0.8174  0.3142 -2.5854
   65SAPC  C217 5343   1.950   1.692   4.375 -0.2425 -0.2841  0.0509
   65SAPC  H17R 5344   2.041   1.629   4.367  1.2511  1.6872  0.5029
   65SAPC  H17S 5345   1.858   1.632   4.390 -0.3984  0.2587  1.4499
   65SAPC  C218 5346   1.966   1.789   4.499  0.9825 -1.1441  0.3102
   65SAPC  H18R 5347   2.065   1.838   4.487  0.4173 -0.4396 -1.8810
   65SAPC  H18S 5348   1.981   1.731   4.593  0.2901 -3.2987 -0.8485
   65SAPC  C219 5349   1.851   1.886   4.517 -0.1850 -0.2289  0.4252
   65SAPC  H19R 5350   1.754   1.832   4.506 -2.0735  3.2757 -1.9706
   65SAPC  H19S 5351   1.863   1.970   4.446  0.4129  0.1554  0.9784
   65SAPC  C220 5352   1.848   1.937   4.663 -0.4097  0.0742 -0.2052
   65SAPC  H20R 5353   1.826   1.847   4.724  0.9215 -0.7072 -0.8268
   65SAPC  H20S 5354   1.755   1.995   4.675 -2.0727 -2.1989 -1.3697
   65SAPC  H20T 5355   1.947   1.984   4.685  0.0928 -0.4110 -1.3484
   65SAPC   C33 5356   3.143   1.775   3.142  0.2961  0.4777 -0.3753
   65SAPC   H3X 5357   3.175   1.872   3.098 -1.6298  1.6367  0.6525
   65SAPC   H3Y 5358   3.205   1.696   3.094  2.1121  0.9411  1.0928
   65SAPC   C34 5359   3.182   1.760   3.291 -0.5159  0.6208 -0.7182
   65SAPC   H4X 5360   3.184   1.651   3.313 -2.0350  0.4706 -1.1893
   65SAPC   H4Y 5361   3.099   1.795   3.356 -1.5217 -1.8060 -0.5909
   65SAPC   C35 5362   3.322   1.811   3.323  0.6848  1.0003 -0.1240
   65SAPC   H5X 5363   3.340   1.902   3.262  0.2378  0.6903 -0.7185
   65SAPC   H5Y 5364   3.397   1.734   3.293 -2.8413 -1.9398 -2.1171
   65SAPC   C36 5365   3.355   1.837   3.471  0.6092 -0.2306  0.5751
   65SAPC   H6X 5366   3.283   1.917   3.501  0.0930 -1.2161  2.0822
   65SAPC   H6Y 5367   3.461   1.870   3.465  0.5820 -0.3210 -0.6217
   65SAPC   C37 5368   3.356   1.710   3.562 -0.6277  0.2260 -0.7184
   65SAPC   H7X 5369   3.432   1.652   3.505  0.2973  1.0024 -0.2991
   65SAPC   H7Y 5370   3.259   1.656   3.558 -0.2641 -0.4139 -1.0475
   65SAPC   C38 5371   3.398   1.733   3.704 -0.1956 -1.0057 -0.0438
   65SAPC   H8X 5372   3.503   1.770   3.699 -0.1221 -1.3056 -0.9247
   65SAPC   H8Y 5373   3.400   1.639   3.763 -2.3924 -0.7187  0.5714
   65SAPC   C39 5374   3.331   1.844   3.788  0.0886  0.9676 -0.3005
   65SAPC   H9X 5375   3.224   1.814   3.798  0.4614 -0.3709 -0.1489
   65SAPC   H9Y 5376   3.339   1.942   3.737 -0.3914  1.6172  0.8390
   65SAPC  C310 5377   3.392   1.851   3.925  0.1214 -0.5615  0.0895
   65SAPC  H10X 5378   3.334   1.922   3.988  2.3679  1.5805 -0.1018
   65SAPC  H10Y 5379   3.497   1.887   3.922  0.5591 -1.6452  1.2694
   65SAPC  C311 5380   3.405   1.726   4.017  0.1911  0.3720 -0.2516
   65SAPC  H11X 5381   3.465   1.644   3.970  0.0734 -0.5634  1.1751
   65SAPC  H11Y 5382   3.304   1.682   4.031  0.0535  0.3978 -1.1248
   65SAPC  C312 5383   3.469   1.753   4.151  0.3581 -0.6601 -0.4462
   65SAPC  H12X 5384   3.402   1.828   4.199  0.8448  0.2865 -1.2037
   65SAPC  H12Y 5385   3.575   1.787   4.145  0.0969  0.1062 -0.9159
   65SAPC  C313 5386   3.465   1.621   4.236  0.4668  0.8373 -0.4029
   65SAPC  H13X 5387   3.534   1.614   4.323  1.7707  2.4447 -1.2470
   65SAPC  H13Y 5388   3.508   1.539   4.174 -1.3387 -1.4098  1.1263
   65SAPC  C314 5389   3.325   1.565   4.269 -0.0860  0.6355 -0.2944
   65SAPC  H14X 5390   3.331   1.460   4.306 -0.1564  0.2143 -1.4398
   65SAPC  H14Y 5391   3.264   1.553   4.177 -0.8161 -5.1109  0.5277
   65SAPC  C315 5392   3.259   1.654   4.368 -0.2301  0.3262 -0.0343
   65SAPC  H15X 5393   3.228   1.751   4.323 -1.1858 -1.0058 -2.4353
   65SAPC  H15Y 5394   3.346   1.667   4.435  0.3791  2.6146 -1.1614
   65SAPC  C316 5395   3.129   1.586   4.425  0.0625 -0.8063 -0.0062
   65SAPC  H16X 5396   3.111   1.635   4.523  1.0343  0.0115 -0.2153
   65SAPC  H16Y 5397   3.152   1.480   4.449  0.3714 -0.6944  0.2116
   65SAPC  C317 5398   2.996   1.595   4.345  0.7865 -0.4999 -0.3747
   65SAPC  H17X 5399   2.922   1.523   4.386 -0.5943  1.0731  0.0269
   65SAPC  H17Y 5400   3.015   1.583   4.236  0.8419  2.1605 -0.7309
   65SAPC  C318 5401   2.923   1.732   4.358  0.4944  0.8506  0.1901
   65SAPC  H18X 5402   2.853   1.735   4.444  1.3300 -1.8326  1.0826
   65SAPC  H18Y 5403   2.873   1.743   4.260 -1.2773 -1.8460  0.6876
   65SAPC  H18Z 5404   3.007   1.804   4.369  1.8770 -0.7678  0.6535
   66SAPC     N 5405   2.331   1.871   2.165  0.0695  0.2145 -0.3075
   66SAPC   C12 5406   2.291   1.782   2.274 -1.3368  0.2548  0.0180
   66SAPC  H12A 5407   2.357   1.799   2.357 -0.4939 -0.7546 -0.4220
   66SAPC  H12B 5408   2.307   1.681   2.239 -1.2197 -0.9762  3.2886
   66SAPC   C13 5409   2.484   1.864   2.137  0.4308 -0.2559 -0.1191
   66SAPC  H13A 5410   2.515   1.760   2.143  2.6143  0.4111  1.1175
   66SAPC  H13B 5411   2.506   1.902   2.039 -0.6222  1.3910  0.2559
   66SAPC  H13C 5412   2.536   1.917   2.215 -1.2177 -1.2571  1.7660
   66SAPC   C14 5413   2.267   1.828   2.037 -0.2842  0.3816  0.6574
   66SAPC  H14A 5414   2.161   1.818   2.057 -0.7888  0.7819 -1.5392
   66SAPC  H14B 5415   2.282   1.900   1.958  2.0798 -0.8618 -0.1236
   66SAPC  H14C 5416   2.318   1.741   1.997 -0.7455  0.2026  0.4366
   66SAPC   C15 5417   2.284   2.015   2.186 -0.3770  0.6661  0.0736
   66SAPC  H15A 5418   2.177   2.010   2.195 -0.2665  0.3651  1.6172
   66SAPC  H15B 5419   2.322   2.060   2.278 -1.9083  1.2554  0.4486
   66SAPC  H15C 5420   2.305   2.072   2.097 -0.4724 -0.6572 -0.8050
   66SAPC   C11 5421   2.152   1.777   2.336  0.0772  0.0993  0.4119
   66SAPC  H11A 5422   2.143   1.870   2.396  3.5420  0.3666  0.7320
   66SAPC  H11B 5423   2.159   1.700   2.416  1.8717 -1.7718 -1.4051
   66SAPC     P 5424   1.931   1.854   2.216  0.3762 -0.4645  0.2895
   66SAPC   O13 5425   1.981   1.991   2.179 -0.0680  0.1369  0.1518
   66SAPC   O14 5426   1.841   1.788   2.123  0.2249  0.5317  0.1195
   66SAPC   O12 5427   2.049   1.756   2.242 -0.2124 -0.0077 -0.1858
   66SAPC   O11 5428   1.874   1.858   2.360 -0.0635  0.2904 -0.5256
   66SAPC    C1 5429   1.740   1.815   2.400  0.0130 -0.0286  0.1241
   66SAPC    HA 5430   1.675   1.897   2.437 -1.0808 -0.0645 -1.6253
   66SAPC    HB 5431   1.681   1.770   2.317  0.0487  2.9188 -1.6096
   66SAPC    C2 5432   1.752   1.708   2.512  0.3782 -0.4069  0.5766
   66SAPC    HS 5433   1.646   1.675   2.521  0.3593 -0.1435  1.3464
   66SAPC   O21 5434   1.809   1.770   2.632  0.4359 -0.1823  0.4713
   66SAPC   C21 5435   1.727   1.829   2.712 -0.2276 -0.2646 -0.5222
   66SAPC   O22 5436   1.607   1.825   2.708 -0.0924  0.6569  0.5410
   66SAPC   C22 5437   1.801   1.906   2.816 -0.1724 -1.2687 -0.2229
   66SAPC   H2R 5438   1.911   1.899   2.806  0.0122  0.2257  0.4682
   66SAPC   H2S 5439   1.797   2.011   2.782  2.2983 -0.4117  1.7835
   66SAPC    C3 5440   1.830   1.579   2.470  0.0525  0.0168 -0.0438
   66SAPC    HX 5441   1.934   1.610   2.447  0.0559 -0.6880 -1.0174
   66SAPC    HY 5442   1.802   1.544   2.369  0.8888 -0.2753 -0.1826
   66SAPC   O31 5443   1.816   1.474   2.568 -0.1013 -0.0834  0.5980
   66SAPC   C31 5444   1.927   1.459   2.642  0.1086 -0.3019 -0.4607
   66SAPC   O32 5445   2.026   1.528   2.643 -0.6120  0.0535  0.6083
   66SAPC   C32 5446   1.904   1.338   2.736  0.1291  0.1859  0.3954
   66SAPC   H2X 5447   1.910   1.249   2.669  0.7021  0.3380  0.2399
   66SAPC   H2Y 5448   1.800   1.332   2.774  0.6402 -1.0174  1.7124
   66SAPC   C23 5449   1.759   1.876   2.963 -0.3435 -0.1192 -0.2585
   66SAPC   H3R 5450   1.834   1.914   3.036  0.2416 -0.0521 -0.8903
   66SAPC   H3S 5451   1.739   1.769   2.986 -1.0037 -0.2275 -1.2750
   66SAPC   C24 5452   1.628   1.945   3.002  0.5047 -0.4704  0.0570
   66SAPC   H4R 5453   1.610   1.941   3.112 -0.0411  0.1558 -0.0087
   66SAPC   H4S 5454   1.549   1.878   2.961 -0.9399  0.9544  0.4439
   66SAPC   C25 5455   1.602   2.078   2.938  0.0192 -0.5268 -0.0349
   66SAPC   H5R 5456   1.594   2.081   2.828 -0.7178 -1.3887 -0.0157
   66SAPC   C26 5457   1.612   2.191   3.009 -0.5083 -0.9935 -0.1544
   66SAPC   H6R 5458   1.595   2.290   2.964 -2.6135 -0.2631  2.0086
   66SAPC   C27 5459   1.653   2.197   3.159  0.5958 -0.0432  0.3192
   66SAPC   H7R 5460   1.726   2.117   3.185  0.3686 -0.7131 -1.0634
   66SAPC   H7S 5461   1.560   2.188   3.219  0.4723  1.2426  0.3473
   66SAPC   C28 5462   1.715   2.326   3.201  0.1645 -0.3848  0.2599
   66SAPC   H8R 5463   1.697   2.415   3.139  0.3176 -0.0718  0.6513
   66SAPC   C29 5464   1.783   2.352   3.316 -0.8199  0.9686 -0.5090
   66SAPC   H9R 5465   1.815   2.453   3.347  1.8329 -0.7519  3.0766
   66SAPC  C210 5466   1.822   2.258   3.429 -0.1387  0.0561 -0.2841
   66SAPC  H10R 5467   1.803   2.149   3.416  0.4889  0.0162 -0.9371
   66SAPC  H10S 5468   1.762   2.292   3.516 -0.3619 -0.4326 -0.2454
   66SAPC  C211 5469   1.969   2.276   3.474 -0.5357 -1.4580 -0.3515
   66SAPC  H11R 5470   2.054   2.250   3.410  1.2141  1.9382  0.3682
   66SAPC  C212 5471   2.005   2.312   3.600 -0.3822  0.8947 -0.3844
   66SAPC  H12R 5472   2.111   2.312   3.628 -0.2306 -0.1487 -0.8997
   66SAPC  C213 5473   1.903   2.331   3.716  0.1490 -0.1210  0.0731
   66SAPC  H13R 5474   1.807   2.277   3.699  0.7159 -0.4007 -2.7290
   66SAPC  H13S 5475   1.863   2.435   3.722 -0.7834 -0.4635  0.0285
   66SAPC  C214 5476   1.963   2.262   3.837  0.0168  0.8073  0.1784
   66SAPC  H14R 5477   1.940   2.155   3.844  0.0999  0.7434 -0.4537
   66SAPC  C215 5478   2.044   2.309   3.929 -0.9478  0.0741 -0.3450
   66SAPC  H15R 5479   2.090   2.243   4.004 -0.6896  0.7455  0.1009
   66SAPC  C216 5480   2.087   2.455   3.944 -0.3029 -0.0543 -0.1093
   66SAPC  H16R 5481   2.014   2.520   3.894  0.3257  0.5351 -0.2743
   66SAPC  H16S 5482   2.174   2.476   3.879 -0.4826  0.8213 -0.0696
   66SAPC  C217 5483   2.127   2.508   4.081 -0.2141 -0.3847 -0.0222
   66SAPC  H17R 5484   2.038   2.487   4.144 -0.5210  0.7543 -0.0488
   66SAPC  H17S 5485   2.147   2.617   4.074 -0.4034 -0.3940 -0.8756
   66SAPC  C218 5486   2.238   2.425   4.149 -0.5431  0.1901  0.4526
   66SAPC  H18R 5487   2.201   2.325   4.177  0.7656 -0.1645  1.0315
   66SAPC  H18S 5488   2.263   2.481   4.242  1.4781  0.4523 -0.1909
   66SAPC  C219 5489   2.367   2.427   4.074  0.2093  0.4472  0.0230
   66SAPC  H19R 5490   2.350   2.375   3.977 -0.7178  0.0699  0.3766
   66SAPC  H19S 5491   2.440   2.358   4.121 -0.5379 -0.2685  0.1448
   66SAPC  C220 5492   2.437   2.564   4.061  0.2722  0.0300  0.1662
   66SAPC  H20R 5493   2.541   2.543   4.028  0.4688  0.7013  0.3521
   66SAPC  H20S 5494   2.451   2.612   4.160  0.4381 -0.2642  0.2872
   66SAPC  H20T 5495   2.366   2.624   4.000 -0.7447  0.0290  1.3228
   66SAPC   C33 5496   2.021   1.306   2.835 -0.1200  0.3208  0.1442
   66SAPC   H3X 5497   2.116   1.351   2.798  0.8884 -1.0481  0.9778
   66SAPC   H3Y 5498   2.035   1.197   2.826  2.6470  0.6130  0.1510
   66SAPC   C34 5499   1.992   1.340   2.978 -0.1784 -0.3253  0.1675
   66SAPC   H4X 5500   1.897   1.290   3.006 -0.4132 -0.8138 -1.4392
   66SAPC   H4Y 5501   1.977   1.448   2.995 -2.6076 -0.7412  1.1310
   66SAPC   C35 5502   2.099   1.297   3.079 -0.0601 -0.1426  0.0223
   66SAPC   H5X 5503   2.197   1.332   3.039  0.9135 -0.8273  1.7105
   66SAPC   H5Y 5504   2.104   1.186   3.089  1.4388 -0.1776 -0.7335
   66SAPC   C36 5505   2.082   1.375   3.213 -0.1391 -0.3762  0.0835
   66SAPC   H6X 5506   2.003   1.337   3.282  0.3338 -0.8889  0.3489
   66SAPC   H6Y 5507   2.062   1.482   3.188 -0.5068 -0.2076  1.0611
   66SAPC   C37 5508   2.218   1.363   3.296  0.1798  0.1015 -0.0075
   66SAPC   H7X 5509   2.296   1.382   3.219 -0.5892 -0.2905 -0.8999
   66SAPC   H7Y 5510   2.235   1.264   3.343  0.3847 -0.0112 -0.3146
   66SAPC   C38 5511   2.228   1.452   3.421 -0.8706  0.2309  0.0509
   66SAPC   H8X 5512   2.131   1.467   3.472 -1.9037 -0.6695 -1.5530
   66SAPC   H8Y 5513   2.270   1.548   3.383 -1.9704  1.1055  0.9687
   66SAPC   C39 5514   2.325   1.385   3.522  0.8670 -0.1620 -0.3218
   66SAPC   H9X 5515   2.405   1.332   3.467  0.9681 -1.3207  0.8555
   66SAPC   H9Y 5516   2.266   1.310   3.580  0.5934 -0.0216 -0.4138
   66SAPC  C310 5517   2.400   1.481   3.621 -0.1440 -0.0252 -0.0760
   66SAPC  H10X 5518   2.444   1.568   3.567  3.6737 -1.0750  1.0354
   66SAPC  H10Y 5519   2.491   1.432   3.661 -1.1303  0.5342  3.1071
   66SAPC  C311 5520   2.319   1.526   3.743 -0.1260  0.3720 -0.7698
   66SAPC  H11X 5521   2.268   1.432   3.774  0.5127  0.5376  0.8630
   66SAPC  H11Y 5522   2.238   1.601   3.733 -0.2767  0.4631  0.8759
   66SAPC  C312 5523   2.411   1.579   3.849 -0.2366 -0.1775  0.4290
   66SAPC  H12X 5524   2.511   1.530   3.846  0.3962  1.1207 -0.6230
   66SAPC  H12Y 5525   2.363   1.546   3.944 -0.5443 -3.5016 -0.7341
   66SAPC  C313 5526   2.431   1.726   3.851 -0.2850 -0.6023  0.8376
   66SAPC  H13X 5527   2.332   1.775   3.860 -1.1195 -1.3212 -2.8453
   66SAPC  H13Y 5528   2.476   1.741   3.751  0.6205 -2.5433  0.8896
   66SAPC  C314 5529   2.540   1.770   3.952  0.2584 -0.8706  0.3968
   66SAPC  H14X 5530   2.570   1.876   3.934  0.8037 -0.9073  1.0471
   66SAPC  H14Y 5531   2.629   1.706   3.936  0.6351  0.1242 -1.8364
   66SAPC  C315 5532   2.487   1.753   4.092 -0.2983  0.2948 -0.1041
   66SAPC  H15X 5533   2.498   1.644   4.112  0.1058  0.2097 -0.7541
   66SAPC  H15Y 5534   2.379   1.772   4.109  0.0809  0.3198  2.6701
   66SAPC  C316 5535   2.560   1.831   4.198  0.7677 -0.1517  0.1580
   66SAPC  H16X 5536   2.667   1.820   4.170  0.4549 -3.1462 -0.2855
   66SAPC  H16Y 5537   2.546   1.781   4.296  0.4601  0.6959  0.5551
   66SAPC  C317 5538   2.516   1.977   4.204  0.6003 -0.5969 -0.6041
   66SAPC  H17X 5539   2.406   1.989   4.203  0.4615 -0.1231  3.2082
   66SAPC  H17Y 5540   2.540   2.029   4.109 -0.3275  0.2713 -0.3719
   66SAPC  C318 5541   2.565   2.057   4.327  0.4345 -0.1762  0.3948
   66SAPC  H18X 5542   2.520   2.011   4.418 -1.0568  1.4660  0.5476
   66SAPC  H18Y 5543   2.540   2.165   4.318  2.1056  0.1324 -1.0708
   66SAPC  H18Z 5544   2.676   2.060   4.324  0.4019  1.7422 -0.8453
   67SAPC     N 5545   1.898   3.004   2.273  0.1033  0.0429  0.0361
   67SAPC   C12 5546   1.903   2.866   2.330  0.2849  1.2019  0.0033
   67SAPC  H12A 5547   1.933   2.806   2.245  0.2147  0.2982  0.6029
   67SAPC  H12B 5548   1.804   2.832   2.357 -0.5172  2.8495 -0.7192
   67SAPC   C13 5549   1.813   2.998   2.149 -0.1512  0.2645 -0.6262
   67SAPC  H13A 5550   1.802   3.097   2.107  0.7119  0.5331 -0.2567
   67SAPC  H13B 5551   1.861   2.936   2.075  0.4040  0.9499 -0.8525
   67SAPC  H13C 5552   1.719   2.957   2.180  0.1245  1.4138  2.0296
   67SAPC   C14 5553   1.840   3.101   2.369 -0.0417 -0.5797 -0.6379
   67SAPC  H14A 5554   1.911   3.113   2.449  0.6111  0.5941 -1.3674
   67SAPC  H14B 5555   1.833   3.202   2.331  0.6056 -1.1468 -2.3433
   67SAPC  H14C 5556   1.744   3.079   2.414  0.8937  0.1751  1.9209
   67SAPC   C15 5557   2.032   3.058   2.226  0.0278 -0.4494 -0.1203
   67SAPC  H15A 5558   2.101   3.053   2.309 -2.0045  0.7106  1.7401
   67SAPC  H15B 5559   2.058   3.017   2.130 -1.8516  0.4212 -1.0386
   67SAPC  H15C 5560   2.026   3.164   2.208  1.4357 -0.4125 -0.5351
   67SAPC   C11 5561   2.005   2.827   2.443  0.0466  0.7215  0.2778
   67SAPC  H11A 5562   1.959   2.730   2.470  1.8248 -0.8397 -1.9226
   67SAPC  H11B 5563   1.987   2.898   2.526  0.5584  1.1373  0.0373
   67SAPC     P 5564   2.214   2.713   2.324  0.1000 -0.0064  0.1431
   67SAPC   O13 5565   2.127   2.647   2.225  0.5318  0.7965 -0.0952
   67SAPC   O14 5566   2.353   2.739   2.287 -0.1818  0.1050  0.2856
   67SAPC   O12 5567   2.135   2.837   2.383 -0.2642  0.2802 -0.5732
   67SAPC   O11 5568   2.225   2.620   2.455  0.4433  0.1745 -0.0673
   67SAPC    C1 5569   2.254   2.650   2.592  0.4214 -0.2216 -0.1370
   67SAPC    HA 5570   2.216   2.750   2.623 -0.3974 -0.4570 -0.3674
   67SAPC    HB 5571   2.199   2.579   2.657  0.2941 -1.0958 -1.1813
   67SAPC    C2 5572   2.404   2.644   2.617  0.4114 -0.2027 -0.3948
   67SAPC    HS 5573   2.452   2.732   2.570 -0.4501  0.6138  0.2245
   67SAPC   O21 5574   2.453   2.522   2.556  0.3879  0.1690  0.0871
   67SAPC   C21 5575   2.586   2.530   2.532 -0.3895 -0.6437  0.2893
   67SAPC   O22 5576   2.649   2.632   2.536 -0.0714 -0.6309 -0.3929
   67SAPC   C22 5577   2.649   2.395   2.492  0.7310  0.7261  0.1834
   67SAPC   H2R 5578   2.566   2.332   2.455  1.4037 -1.3667  1.9821
   67SAPC   H2S 5579   2.720   2.409   2.408  0.5714 -2.7643 -0.6759
   67SAPC    C3 5580   2.421   2.635   2.769  0.0868  0.1034  0.2198
   67SAPC    HX 5581   2.529   2.643   2.795 -0.2368  1.5897  1.2021
   67SAPC    HY 5582   2.399   2.530   2.798 -0.3504 -0.2037 -1.1498
   67SAPC   O31 5583   2.333   2.711   2.850 -0.2000 -0.1271 -0.0383
   67SAPC   C31 5584   2.373   2.845   2.860  0.2956 -0.6874 -0.5339
   67SAPC   O32 5585   2.481   2.893   2.830  0.1583 -0.1377 -0.0186
   67SAPC   C32 5586   2.262   2.934   2.921  0.1728 -1.3561 -0.2541
   67SAPC   H2X 5587   2.174   2.923   2.853 -1.2940  0.8175  1.1570
   67SAPC   H2Y 5588   2.301   3.037   2.915  2.5032 -2.1660 -0.0541
   67SAPC   C23 5589   2.706   2.329   2.620 -0.5547  0.8985  0.2016
   67SAPC   H3R 5590   2.795   2.378   2.664  0.1367  0.8164 -1.0756
   67SAPC   H3S 5591   2.739   2.226   2.593 -1.8067  0.2201  1.1311
   67SAPC   C24 5592   2.605   2.317   2.732  0.2023  0.8837 -0.5884
   67SAPC   H4R 5593   2.586   2.421   2.768 -0.7520 -0.1099  2.0284
   67SAPC   H4S 5594   2.660   2.278   2.820  0.5331 -0.3062 -1.3074
   67SAPC   C25 5595   2.481   2.240   2.708 -0.4421 -0.8979 -0.3057
   67SAPC   H5R 5596   2.432   2.251   2.611 -0.4251  2.8915 -0.0188
   67SAPC   C26 5597   2.423   2.141   2.771  0.1272  0.8107 -0.4703
   67SAPC   H6R 5598   2.326   2.102   2.739  0.6807 -0.8693 -0.2016
   67SAPC   C27 5599   2.466   2.097   2.909 -0.3061 -0.1009 -0.8657
   67SAPC   H7R 5600   2.384   2.044   2.963  0.0276  1.2308  1.0595
   67SAPC   H7S 5601   2.500   2.185   2.968  0.1248  1.6335 -3.5396
   67SAPC   C28 5602   2.590   2.015   2.904 -0.6869 -0.3491 -0.0650
   67SAPC   H8R 5603   2.630   2.010   2.801 -2.6563  0.3751 -0.9061
   67SAPC   C29 5604   2.624   1.935   3.004 -0.1202 -0.1240  0.7406
   67SAPC   H9R 5605   2.720   1.882   2.999  0.3246  0.6643  0.8784
   67SAPC  C210 5606   2.570   1.940   3.142 -0.3531 -0.3670  0.3651
   67SAPC  H10R 5607   2.459   1.943   3.131 -0.1594 -0.3267 -2.3663
   67SAPC  H10S 5608   2.588   2.034   3.198  1.0566 -0.4451  0.0646
   67SAPC  C211 5609   2.612   1.812   3.218 -0.8738 -0.2076 -0.6457
   67SAPC  H11R 5610   2.664   1.734   3.160  2.1738  2.1010 -1.2343
   67SAPC  C212 5611   2.625   1.811   3.355  0.0800 -0.0832 -0.3246
   67SAPC  H12R 5612   2.656   1.722   3.410 -2.5702  0.1529  1.7627
   67SAPC  C213 5613   2.589   1.925   3.454  0.2282  0.0117 -0.2956
   67SAPC  H13R 5614   2.641   2.019   3.424 -1.9640  1.8399  1.2592
   67SAPC  H13S 5615   2.628   1.907   3.557  0.0058  2.3245  0.2501
   67SAPC  C214 5616   2.445   1.963   3.481  0.6495 -0.5294  0.1634
   67SAPC  H14R 5617   2.376   1.898   3.426 -0.1684 -1.6622  2.4239
   67SAPC  C215 5618   2.400   2.045   3.587  0.3105  0.4759  0.5246
   67SAPC  H15R 5619   2.293   2.067   3.602 -0.5972 -3.1750  0.3421
   67SAPC  C216 5620   2.490   2.105   3.684  0.6120 -0.2677 -0.6903
   67SAPC  H16R 5621   2.594   2.067   3.682  0.5449 -0.7228  1.4023
   67SAPC  H16S 5622   2.450   2.086   3.786 -1.1427 -0.5625 -1.3959
   67SAPC  C217 5623   2.509   2.261   3.673  0.3058 -0.5615  0.2155
   67SAPC  H17R 5624   2.412   2.315   3.673  0.9085  0.5925 -1.3056
   67SAPC  H17S 5625   2.546   2.285   3.571  0.5275  1.1667  0.6631
   67SAPC  C218 5626   2.602   2.318   3.781 -0.6031 -0.2601  0.1808
   67SAPC  H18R 5627   2.679   2.240   3.802  1.9151  2.2342  0.9157
   67SAPC  H18S 5628   2.548   2.319   3.878 -1.4861 -0.8933 -0.3003
   67SAPC  C219 5629   2.681   2.446   3.752  0.3760 -0.2311 -0.3928
   67SAPC  H19R 5630   2.604   2.523   3.730 -0.1879 -0.8653 -0.6848
   67SAPC  H19S 5631   2.726   2.431   3.652 -2.1956 -0.8893 -1.5298
   67SAPC  C220 5632   2.784   2.487   3.854  0.7829  0.6845 -0.4319
   67SAPC  H20R 5633   2.843   2.575   3.822  1.1587  0.4393 -0.4162
   67SAPC  H20S 5634   2.860   2.406   3.858 -0.5418 -0.7013 -1.8539
   67SAPC  H20T 5635   2.749   2.488   3.959 -0.0138 -3.5748 -0.4853
   67SAPC   C33 5636   2.244   2.901   3.073 -0.0912  0.1066 -0.0841
   67SAPC   H3X 5637   2.208   2.796   3.080  1.4496 -0.4324  0.1232
   67SAPC   H3Y 5638   2.170   2.973   3.115  0.6718  0.6317  0.3722
   67SAPC   C34 5639   2.372   2.921   3.151  0.3918 -0.5925  0.4776
   67SAPC   H4X 5640   2.401   3.028   3.147  1.5882 -0.8194  2.0040
   67SAPC   H4Y 5641   2.462   2.871   3.108  1.4916  1.8331 -0.2144
   67SAPC   C35 5642   2.352   2.875   3.298 -0.7077  0.3415 -0.2903
   67SAPC   H5X 5643   2.345   2.765   3.310 -0.2200  0.4515  1.1649
   67SAPC   H5Y 5644   2.257   2.920   3.335 -0.3794  1.4901 -0.8016
   67SAPC   C36 5645   2.464   2.931   3.395 -0.0156 -0.3949  0.1719
   67SAPC   H6X 5646   2.458   3.041   3.382  1.6321 -0.5315 -2.3800
   67SAPC   H6Y 5647   2.561   2.893   3.357 -0.7114 -2.3453  0.2366
   67SAPC   C37 5648   2.438   2.892   3.541 -0.3139 -0.0258 -0.2263
   67SAPC   H7X 5649   2.424   2.782   3.552 -1.1789  0.1804  0.8190
   67SAPC   H7Y 5650   2.344   2.940   3.575 -1.1401 -1.9667  0.3581
   67SAPC   C38 5651   2.553   2.926   3.644 -0.1427  0.8409  0.3239
   67SAPC   H8X 5652   2.555   3.037   3.649 -0.4694  0.8733 -0.2095
   67SAPC   H8Y 5653   2.653   2.892   3.608  0.2930  0.2008  2.0475
   67SAPC   C39 5654   2.516   2.881   3.786 -0.1168  0.1501 -0.0367
   67SAPC   H9X 5655   2.522   2.775   3.819 -0.2977  0.0488 -0.3236
   67SAPC   H9Y 5656   2.408   2.906   3.795  0.1598  1.4049 -0.0349
   67SAPC  C310 5657   2.612   2.958   3.890 -0.4927  0.9925  0.0496
   67SAPC  H10X 5658   2.564   2.959   3.990 -0.3794 -3.4054  0.3699
   67SAPC  H10Y 5659   2.629   3.059   3.848 -2.8690  1.3639 -0.1790
   67SAPC  C311 5660   2.753   2.890   3.900 -0.1366  0.1836  0.2980
   67SAPC  H11X 5661   2.805   2.928   3.810  0.5582  2.1413  1.4561
   67SAPC  H11Y 5662   2.747   2.779   3.891  1.0152  0.2399 -1.8975
   67SAPC  C312 5663   2.833   2.918   4.030 -0.1770  0.2352 -0.2109
   67SAPC  H12X 5664   2.939   2.895   4.007 -0.0531 -1.8107  2.0661
   67SAPC  H12Y 5665   2.788   2.858   4.112  1.0674  0.3302  0.5666
   67SAPC  C313 5666   2.834   3.069   4.074 -0.4627 -0.1951  0.0372
   67SAPC  H13X 5667   2.877   3.070   4.176 -0.1955  0.1555 -0.0766
   67SAPC  H13Y 5668   2.733   3.115   4.067 -0.4720 -0.1902  0.2085
   67SAPC  C314 5669   2.931   3.160   3.989 -0.6099  0.3319  0.1032
   67SAPC  H14X 5670   2.903   3.147   3.882 -1.1885 -0.8149  0.3713
   67SAPC  H14Y 5671   3.035   3.124   3.998 -1.6084 -2.6678  1.0151
   67SAPC  C315 5672   2.922   3.311   4.036  0.5688  0.2236  1.5507
   67SAPC  H15X 5673   3.007   3.340   4.101 -0.6944  3.3335  2.0299
   67SAPC  H15Y 5674   2.828   3.328   4.093  0.7756  3.7071  1.1227
   67SAPC  C316 5675   2.918   3.410   3.915  0.6275 -0.0562  0.0138
   67SAPC  H16X 5676   2.918   3.516   3.948  1.7478  0.3109 -1.0551
   67SAPC  H16Y 5677   2.834   3.382   3.848  0.6462  2.1060 -0.9718
   67SAPC  C317 5678   3.046   3.408   3.820  0.1403 -0.4014  0.5136
   67SAPC  H17X 5679   3.040   3.329   3.743 -0.7879  2.4508 -2.6131
   67SAPC  H17Y 5680   3.135   3.396   3.885  0.7554  2.3034  0.2798
   67SAPC  C318 5681   3.061   3.537   3.734 -0.6862  0.5864 -0.3325
   67SAPC  H18X 5682   2.976   3.561   3.666 -1.2565  2.5988  1.0107
   67SAPC  H18Y 5683   3.146   3.523   3.663 -0.7634  2.0670 -0.7404
   67SAPC  H18Z 5684   3.078   3.635   3.782 -0.3887  0.4581 -0.1719
   68SAPC     N 5685   5.371   1.587   2.141  0.4708  0.4988  0.7801
   68SAPC   C12 5686   5.413   1.438   2.149 -0.6076 -0.1340 -0.2235
   68SAPC  H12A 5687   5.520   1.430   2.140 -0.5988  0.4720 -0.6793
   68SAPC  H12B 5688   5.366   1.399   2.061 -1.3304  3.4004 -1.5573
   68SAPC   C13 5689   5.235   1.603   2.088 -0.4382  1.0300 -0.3745
   68SAPC  H13A 5690   5.219   1.545   1.998  0.8848 -3.3978  1.9172
   68SAPC  H13B 5691   5.171   1.571   2.169  1.2795 -1.1193  0.2362
   68SAPC  H13C 5692   5.208   1.705   2.067 -1.8075  0.8231  0.2498
   68SAPC   C14 5693   5.388   1.653   2.273  0.2386 -0.0383 -0.4368
   68SAPC  H14A 5694   5.347   1.751   2.285 -1.2275 -0.8175  1.2887
   68SAPC  H14B 5695   5.349   1.607   2.362  1.5896 -0.5437 -0.0762
   68SAPC  H14C 5696   5.493   1.649   2.300  0.2930  1.6412 -0.3157
   68SAPC   C15 5697   5.460   1.656   2.036 -0.2855  0.0873  0.0371
   68SAPC  H15A 5698   5.567   1.651   2.048 -0.1313  1.8147 -0.3706
   68SAPC  H15B 5699   5.434   1.621   1.938  1.8324 -2.0646  0.1390
   68SAPC  H15C 5700   5.440   1.762   2.035 -1.4057 -0.1166 -0.2263
   68SAPC   C11 5701   5.363   1.343   2.268  0.6123 -0.0513  0.8737
   68SAPC  H11A 5702   5.388   1.237   2.245  0.3691  0.0794 -0.0132
   68SAPC  H11B 5703   5.252   1.342   2.265  0.6292  0.0154 -0.7621
   68SAPC     P 5704   5.327   1.392   2.512  0.2906 -0.2413 -0.2213
   68SAPC   O13 5705   5.405   1.460   2.615  0.2876 -0.1919 -0.6130
   68SAPC   O14 5706   5.196   1.450   2.474  0.1289 -1.2858  0.3735
   68SAPC   O12 5707   5.419   1.386   2.388  0.2514 -0.1558  1.3067
   68SAPC   O11 5708   5.290   1.235   2.556 -0.4972  0.0948  0.1747
   68SAPC    C1 5709   5.402   1.137   2.556 -0.3531 -1.0160  0.1603
   68SAPC    HA 5710   5.460   1.128   2.462  4.4679 -2.7674  2.9405
   68SAPC    HB 5711   5.474   1.153   2.639 -0.0224 -0.1410 -0.2871
   68SAPC    C2 5712   5.348   0.984   2.580  0.3100 -0.0014 -0.1838
   68SAPC    HS 5713   5.301   0.960   2.483 -0.7923  2.0661 -0.2060
   68SAPC   O21 5714   5.252   0.983   2.689 -0.2963 -0.2082 -0.7136
   68SAPC   C21 5715   5.128   0.984   2.656  0.6331 -0.0206 -0.3265
   68SAPC   O22 5716   5.078   0.978   2.544  0.0046 -0.9093  0.3233
   68SAPC   C22 5717   5.041   0.974   2.784 -0.6083  0.3374  0.1102
   68SAPC   H2R 5718   5.018   0.868   2.807  0.3054  0.2749  0.7985
   68SAPC   H2S 5719   5.099   1.031   2.860  0.5148 -1.9615  1.0948
   68SAPC    C3 5720   5.470   0.888   2.595  0.3947  0.7909  0.0874
   68SAPC    HX 5721   5.522   0.890   2.496 -1.6389  0.4820 -1.0392
   68SAPC    HY 5722   5.428   0.791   2.628  0.6300  0.3398 -0.9094
   68SAPC   O31 5723   5.550   0.942   2.699  0.1253 -0.0985 -0.6827
   68SAPC   C31 5724   5.644   0.850   2.730 -0.1281 -0.1811 -0.0089
   68SAPC   O32 5725   5.662   0.748   2.666  0.1794  0.3343 -0.6329
   68SAPC   C32 5726   5.737   0.904   2.843  0.0205  0.9914 -0.4199
   68SAPC   H2X 5727   5.794   0.992   2.809 -1.1011  2.6285  1.6787
   68SAPC   H2Y 5728   5.809   0.821   2.852 -1.9631 -0.7943 -0.1141
   68SAPC   C23 5729   4.910   1.050   2.776 -0.1706 -0.3734  0.3052
   68SAPC   H3R 5730   4.843   1.010   2.697 -2.1953 -0.8513  2.1668
   68SAPC   H3S 5731   4.940   1.152   2.742  0.1500 -0.9976 -1.4339
   68SAPC   C24 5732   4.842   1.065   2.912  1.2291 -0.3934  0.2722
   68SAPC   H4R 5733   4.759   1.138   2.909 -0.7481 -2.5514 -0.5200
   68SAPC   H4S 5734   4.908   1.097   2.995  1.5144  0.4444 -0.2709
   68SAPC   C25 5735   4.769   0.945   2.959  0.0249 -0.0657  0.1648
   68SAPC   H5R 5736   4.684   0.913   2.898 -0.2991  1.1864 -0.0713
   68SAPC   C26 5737   4.811   0.856   3.055  0.0556 -0.0653 -0.4562
   68SAPC   H6R 5738   4.759   0.760   3.047 -0.3425  0.2115 -1.3988
   68SAPC   C27 5739   4.928   0.864   3.148  0.5128 -0.3269  0.3230
   68SAPC   H7R 5740   5.006   0.929   3.103  0.1115 -1.0564 -1.5305
   68SAPC   H7S 5741   4.978   0.766   3.155  3.5459  0.8445 -2.2954
   68SAPC   C28 5742   4.889   0.921   3.280 -0.1476  0.3460  1.0163
   68SAPC   H8R 5743   4.825   1.011   3.281 -0.3387  0.2667 -0.6022
   68SAPC   C29 5744   4.912   0.876   3.403  0.4549  0.5794  0.6625
   68SAPC   H9R 5745   4.889   0.943   3.487  1.0258  1.2657  0.2798
   68SAPC  C210 5746   4.995   0.754   3.428 -0.1511 -0.2900  0.2917
   68SAPC  H10R 5747   5.099   0.787   3.448 -0.1161  0.7119 -1.3933
   68SAPC  H10S 5748   4.998   0.672   3.352  0.7654  0.3374 -0.3597
   68SAPC  C211 5749   4.938   0.681   3.545 -0.3005 -0.1128 -0.1042
   68SAPC  H11R 5750   4.842   0.630   3.533 -0.1687 -0.4791  0.4131
   68SAPC  C212 5751   5.008   0.655   3.663 -0.8588  0.2616  0.8621
   68SAPC  H12R 5752   4.966   0.590   3.741 -3.0076 -2.6451 -2.3694
   68SAPC  C213 5753   5.141   0.705   3.706 -0.2022  0.7185 -0.2958
   68SAPC  H13R 5754   5.186   0.737   3.610 -1.6385  2.3190 -0.4877
   68SAPC  H13S 5755   5.200   0.632   3.766  2.6040  2.2418 -0.9959
   68SAPC  C214 5756   5.144   0.823   3.800  0.1929  0.0910  0.4319
   68SAPC  H14R 5757   5.074   0.902   3.769 -0.2300 -0.3805  0.1825
   68SAPC  C215 5758   5.189   0.829   3.924 -0.6905 -0.3784 -0.5744
   68SAPC  H15R 5759   5.176   0.917   3.989 -0.5279 -1.9490  1.7274
   68SAPC  C216 5760   5.288   0.731   3.987  0.5114  0.3759  0.2784
   68SAPC  H16R 5761   5.371   0.776   4.046  0.6745  3.2573 -1.9390
   68SAPC  H16S 5762   5.351   0.678   3.913 -1.3460 -0.7442 -0.5747
   68SAPC  C217 5763   5.215   0.628   4.074  0.2130  0.4488  0.6134
   68SAPC  H17R 5764   5.141   0.575   4.010 -0.8329 -2.3485  3.8328
   68SAPC  H17S 5765   5.152   0.682   4.147 -2.3992  0.0892 -1.2275
   68SAPC  C218 5766   5.298   0.516   4.126  0.2074 -0.7506 -0.3948
   68SAPC  H18R 5767   5.360   0.548   4.212 -0.7352  1.8309 -0.5618
   68SAPC  H18S 5768   5.370   0.480   4.049  2.4447  0.0216  1.2206
   68SAPC  C219 5769   5.221   0.382   4.149  0.0052  0.2197  0.2749
   68SAPC  H19R 5770   5.153   0.372   4.062  0.5903  0.7693 -0.2586
   68SAPC  H19S 5771   5.166   0.399   4.244 -0.3537  3.2397 -0.3680
   68SAPC  C220 5772   5.307   0.251   4.139  0.3369  0.4352 -0.8174
   68SAPC  H20R 5773   5.362   0.242   4.043  0.0568  0.2312 -0.9608
   68SAPC  H20S 5774   5.257   0.158   4.176  0.5334  1.4498  2.2918
   68SAPC  H20T 5775   5.389   0.257   4.213 -0.0350 -0.2330 -0.3417
   68SAPC   C33 5776   5.651   0.934   2.973  0.6785 -0.1337  0.1135
   68SAPC   H3X 5777   5.555   0.879   2.971 -0.1891  1.3175  0.1238
   68SAPC   H3Y 5778   5.622   1.041   2.977  1.6300  0.1178  0.5148
   68SAPC   C34 5779   5.727   0.877   3.096  1.1679 -0.5562  0.1055
   68SAPC   H4X 5780   5.837   0.889   3.081  1.3643  0.7345  2.0776
   68SAPC   H4Y 5781   5.707   0.768   3.106  0.9684 -0.5306 -0.0206
   68SAPC   C35 5782   5.679   0.938   3.232 -0.0431 -0.2949  0.3999
   68SAPC   H5X 5783   5.591   0.890   3.279  1.1897 -1.9534  1.1086
   68SAPC   H5Y 5784   5.648   1.041   3.202  0.6061 -0.0550  0.5450
   68SAPC   C36 5785   5.793   0.954   3.330 -0.1420 -0.1402  0.1596
   68SAPC   H6X 5786   5.869   1.024   3.289 -0.5497 -0.3791 -1.0429
   68SAPC   H6Y 5787   5.854   0.866   3.359  0.1864 -0.5804 -1.7456
   68SAPC   C37 5788   5.743   1.011   3.468  0.8847  0.2357 -0.1173
   68SAPC   H7X 5789   5.673   0.935   3.509  1.9779 -0.2998  0.8115
   68SAPC   H7Y 5790   5.684   1.102   3.444  1.1125  0.4642  0.1715
   68SAPC   C38 5791   5.854   1.031   3.570  0.4626 -0.6551  0.4934
   68SAPC   H8X 5792   5.936   1.099   3.537  0.7199 -1.2942 -0.2032
   68SAPC   H8Y 5793   5.905   0.933   3.573 -1.1770 -1.5510  0.1036
   68SAPC   C39 5794   5.807   1.073   3.705  1.2744 -0.2463 -0.2063
   68SAPC   H9X 5795   5.718   1.010   3.729  1.3268 -0.4067 -0.4326
   68SAPC   H9Y 5796   5.772   1.178   3.704 -0.3425 -0.6851  1.9583
   68SAPC  C310 5797   5.911   1.048   3.810 -0.4374 -0.1377  0.5900
   68SAPC  H10X 5798   5.978   0.960   3.798  0.3054  0.5549 -0.5503
   68SAPC  H10Y 5799   5.853   1.035   3.904 -0.5108  1.2120  0.7504
   68SAPC  C311 5800   6.008   1.164   3.830  0.2500 -0.3014 -0.4980
   68SAPC  H11X 5801   5.950   1.258   3.816  1.3858  0.4183 -0.4810
   68SAPC  H11Y 5802   6.091   1.171   3.756  0.6456 -0.7287 -0.1015
   68SAPC  C312 5803   6.070   1.174   3.969 -0.2792 -0.0669  0.4523
   68SAPC  H12X 5804   6.158   1.107   3.982  0.2591  0.3952 -0.6637
   68SAPC  H12Y 5805   6.004   1.164   4.058 -1.8602  3.0693 -0.2376
   68SAPC  C313 5806   6.136   1.311   3.994 -0.9338 -0.5892  0.2828
   68SAPC  H13X 5807   6.050   1.372   4.028 -1.4487 -0.6876 -0.7901
   68SAPC  H13Y 5808   6.170   1.347   3.895 -2.1245  0.9939  0.4057
   68SAPC  C314 5809   6.256   1.315   4.096  0.3712  0.2534  0.8230
   68SAPC  H14X 5810   6.333   1.241   4.066  0.9225  0.7078  1.0947
   68SAPC  H14Y 5811   6.213   1.277   4.191  0.9725 -1.9319  0.2861
   68SAPC  C315 5812   6.302   1.463   4.113 -0.0453  0.3409  0.4536
   68SAPC  H15X 5813   6.216   1.520   4.155 -0.9597  0.2273 -1.1657
   68SAPC  H15Y 5814   6.328   1.502   4.012  0.9759 -3.3534 -0.8455
   68SAPC  C316 5815   6.415   1.476   4.216 -1.0468  0.2497  0.1390
   68SAPC  H16X 5816   6.510   1.427   4.186  0.9663  2.6923  2.0823
   68SAPC  H16Y 5817   6.370   1.430   4.307 -3.7007  3.4163  0.6359
   68SAPC  C317 5818   6.451   1.628   4.221  0.0966 -0.3088 -0.1638
   68SAPC  H17X 5819   6.349   1.672   4.212  0.1392  0.0088  0.7443
   68SAPC  H17Y 5820   6.494   1.676   4.130 -0.0394 -1.2848 -0.7522
   68SAPC  C318 5821   6.527   1.681   4.341 -0.3429  0.0383 -0.4003
   68SAPC  H18X 5822   6.474   1.653   4.435  0.4923  0.0939  0.0996
   68SAPC  H18Y 5823   6.552   1.789   4.330 -0.6843  0.1722  0.0994
   68SAPC  H18Z 5824   6.619   1.619   4.346  1.0756  1.9972 -1.0477
   69SAPC     N 5825   2.073   4.107   2.090 -0.2159  0.4952  0.3479
   69SAPC   C12 5826   2.151   4.172   2.201 -0.5783  0.5169  0.7696
   69SAPC  H12A 5827   2.098   4.259   2.235  1.0039  1.1361  1.8154
   69SAPC  H12B 5828   2.243   4.216   2.165  0.6215 -0.6271  2.2736
   69SAPC   C13 5829   2.023   4.200   1.987 -0.4247 -0.6050  0.0791
   69SAPC  H13A 5830   1.950   4.266   2.031 -0.8105  1.5802 -3.4312
   69SAPC  H13B 5831   2.101   4.254   1.936 -0.7283  1.3309  1.5596
   69SAPC  H13C 5832   1.964   4.143   1.917 -0.5577 -0.0889 -0.2358
   69SAPC   C14 5833   2.161   3.997   2.024  0.9554  0.8046  0.7390
   69SAPC  H14A 5834   2.104   3.960   1.940  1.7846  1.1032  0.0331
   69SAPC  H14B 5835   2.257   4.024   1.983  0.7278 -0.3361 -0.6414
   69SAPC  H14C 5836   2.179   3.911   2.088 -1.3954  0.3149  0.8064
   69SAPC   C15 5837   1.952   4.040   2.143 -0.2189  0.0514  0.6553
   69SAPC  H15A 5838   1.885   3.989   2.076 -1.0241  1.2829  0.5111
   69SAPC  H15B 5839   1.986   3.951   2.195 -1.5971 -0.3294  0.9301
   69SAPC  H15C 5840   1.897   4.112   2.200 -1.4084 -0.9793  0.8542
   69SAPC   C11 5841   2.185   4.097   2.330 -0.2194 -0.2348  0.1419
   69SAPC  H11A 5842   2.087   4.087   2.381  0.4482  2.5626  2.2535
   69SAPC  H11B 5843   2.244   4.170   2.390 -0.0856 -0.3105  0.1029
   69SAPC     P 5844   2.216   3.838   2.360  0.0056 -0.4773 -0.0099
   69SAPC   O13 5845   2.073   3.823   2.337 -0.1340 -0.0999  0.1896
   69SAPC   O14 5846   2.309   3.724   2.321 -0.6876 -0.0695  0.0172
   69SAPC   O12 5847   2.259   3.974   2.290  0.0234  0.1492 -0.6888
   69SAPC   O11 5848   2.239   3.871   2.514 -0.1585 -0.7371  0.0681
   69SAPC    C1 5849   2.360   3.901   2.568  0.7845 -0.1842  0.4288
   69SAPC    HA 5850   2.439   3.914   2.491  2.0096 -0.8982  1.5155
   69SAPC    HB 5851   2.352   4.002   2.614  0.6673  0.8605 -1.7601
   69SAPC    C2 5852   2.396   3.801   2.683  0.3214  0.1566  0.2337
   69SAPC    HS 5853   2.301   3.778   2.735 -0.0901  2.0087  0.3490
   69SAPC   O21 5854   2.486   3.856   2.780  0.6001 -0.2046  0.4048
   69SAPC   C21 5855   2.438   3.913   2.885  0.0588  0.8008  0.3414
   69SAPC   O22 5856   2.320   3.923   2.918 -0.0740  0.2011  0.4667
   69SAPC   C22 5857   2.550   3.993   2.952  0.2394  0.2115 -0.0277
   69SAPC   H2R 5858   2.645   3.935   2.956 -0.0616 -0.2117  1.8033
   69SAPC   H2S 5859   2.566   4.082   2.888 -0.2173  1.6153  1.7415
   69SAPC    C3 5860   2.462   3.668   2.629  0.4828 -0.1410 -0.6248
   69SAPC    HX 5861   2.553   3.701   2.573  1.7174  0.2199  1.4860
   69SAPC    HY 5862   2.378   3.629   2.568 -2.2361  3.7941  0.2131
   69SAPC   O31 5863   2.490   3.584   2.741  0.6676  0.8378 -0.4423
   69SAPC   C31 5864   2.602   3.517   2.729  0.0975 -0.4691  0.1527
   69SAPC   O32 5865   2.698   3.540   2.654 -0.5886 -0.1925  0.4098
   69SAPC   C32 5866   2.611   3.451   2.871  0.6043  0.4649 -0.6105
   69SAPC   H2X 5867   2.690   3.373   2.869 -0.8070 -1.0072 -2.1711
   69SAPC   H2Y 5868   2.516   3.403   2.901  0.9690  0.9606  1.5032
   69SAPC   C23 5869   2.506   4.047   3.089 -0.0161 -0.6701  0.3721
   69SAPC   H3R 5870   2.404   4.091   3.093  0.0636 -0.2612 -1.4704
   69SAPC   H3S 5871   2.579   4.126   3.118 -1.1191  0.5735 -0.1349
   69SAPC   C24 5872   2.517   3.936   3.196 -0.8329  0.2743  0.8948
   69SAPC   H4R 5873   2.614   3.884   3.182 -0.9730 -0.1001  1.2914
   69SAPC   H4S 5874   2.441   3.856   3.182 -0.3163 -0.2470  1.0424
   69SAPC   C25 5875   2.507   3.999   3.330  0.1309  0.7321 -0.1220
   69SAPC   H5R 5876   2.410   4.045   3.352 -0.1229  1.0539 -1.8160
   69SAPC   C26 5877   2.606   4.002   3.423 -0.6554 -0.5717  0.4665
   69SAPC   H6R 5878   2.593   4.054   3.519  0.6139  0.8027 -0.0649
   69SAPC   C27 5879   2.745   3.957   3.408 -0.1568 -0.8415 -0.2599
   69SAPC   H7R 5880   2.818   4.031   3.449  0.1637  1.1794 -3.9916
   69SAPC   H7S 5881   2.774   3.974   3.302  2.8639 -1.9311  0.2885
   69SAPC   C28 5882   2.758   3.812   3.452  0.5468 -1.0558  0.2841
   69SAPC   H8R 5883   2.719   3.737   3.383  1.5239  0.2338 -1.7535
   69SAPC   C29 5884   2.799   3.768   3.570 -0.2763 -0.2534  0.1546
   69SAPC   H9R 5885   2.790   3.662   3.599  3.1129 -0.8048 -0.4747
   69SAPC  C210 5886   2.845   3.860   3.681  0.0916  0.1379  0.2324
   69SAPC  H10R 5887   2.812   3.966   3.676  1.1668  0.7453  3.7061
   69SAPC  H10S 5888   2.955   3.874   3.672  0.0002  1.1001  0.4964
   69SAPC  C211 5889   2.805   3.788   3.810 -0.2345 -0.2721 -1.1699
   69SAPC  H11R 5890   2.821   3.680   3.816 -3.4360 -0.9088 -2.3208
   69SAPC  C212 5891   2.764   3.851   3.924  0.1614 -0.4077 -0.3012
   69SAPC  H12R 5892   2.716   3.790   4.002 -0.1363  1.9669  1.5030
   69SAPC  C213 5893   2.733   3.997   3.932  0.3903  0.4976 -0.0530
   69SAPC  H13R 5894   2.828   4.046   3.901  1.5453 -0.0927  2.3385
   69SAPC  H13S 5895   2.703   4.027   4.035  1.1593 -0.7874  0.5638
   69SAPC  C214 5896   2.618   4.033   3.843  0.2171  0.3105  0.4596
   69SAPC  H14R 5897   2.545   3.953   3.823  1.5273 -1.0013  0.7450
   69SAPC  C215 5898   2.602   4.161   3.794  0.0648 -0.1328  0.5733
   69SAPC  H15R 5899   2.537   4.179   3.708  0.7692 -0.1427  0.0273
   69SAPC  C216 5900   2.698   4.276   3.819  0.8755  0.4047  0.2738
   69SAPC  H16R 5901   2.736   4.278   3.923  0.6967 -0.3621  0.3649
   69SAPC  H16S 5902   2.647   4.372   3.798  0.5410  0.0470 -0.6442
   69SAPC  C217 5903   2.814   4.253   3.715  0.0552  0.2164  0.8774
   69SAPC  H17R 5904   2.780   4.258   3.609  2.1789  0.1588  0.1344
   69SAPC  H17S 5905   2.871   4.158   3.719 -1.5245 -0.7423  1.5419
   69SAPC  C218 5906   2.908   4.373   3.703  0.6322  0.6124 -0.1365
   69SAPC  H18R 5907   2.850   4.461   3.669  1.8184  0.3797 -3.0199
   69SAPC  H18S 5908   2.988   4.357   3.628  2.1889 -0.9348  1.7454
   69SAPC  C219 5909   2.994   4.397   3.826 -0.2058 -0.1889 -0.5011
   69SAPC  H19R 5910   2.943   4.363   3.919  0.5312  0.8878  0.3215
   69SAPC  H19S 5911   3.012   4.506   3.833 -1.2232 -0.0515  0.2786
   69SAPC  C220 5912   3.131   4.323   3.815 -0.3801 -0.1056  0.1052
   69SAPC  H20R 5913   3.176   4.350   3.717  0.9771 -0.6468  0.5695
   69SAPC  H20S 5914   3.102   4.216   3.813  0.2849 -0.2842 -0.6453
   69SAPC  H20T 5915   3.201   4.335   3.900 -1.2033 -1.1479  0.9596
   69SAPC   C33 5916   2.634   3.554   2.984 -0.4483 -0.1797 -0.2010
   69SAPC   H3X 5917   2.638   3.507   3.084  3.9847  0.7559  0.2670
   69SAPC   H3Y 5918   2.563   3.640   2.991 -0.4794 -0.1570 -0.7555
   69SAPC   C34 5919   2.775   3.615   2.982  1.6823 -0.5727  0.3637
   69SAPC   H4X 5920   2.786   3.687   2.898  0.3868  0.3343  0.9357
   69SAPC   H4Y 5921   2.845   3.530   2.967 -0.8559 -2.5541 -1.1554
   69SAPC   C35 5922   2.812   3.686   3.108 -0.7946 -0.5641  0.2352
   69SAPC   H5X 5923   2.749   3.638   3.186 -0.8875 -2.5059 -0.9532
   69SAPC   H5Y 5924   2.771   3.789   3.102 -4.0222 -1.6411  1.7964
   69SAPC   C36 5925   2.965   3.694   3.148  0.2354 -0.7207 -0.5029
   69SAPC   H6X 5926   2.978   3.774   3.224  1.4931 -1.2684 -0.1179
   69SAPC   H6Y 5927   3.028   3.724   3.061  2.2568 -0.3969  0.9905
   69SAPC   C37 5928   3.013   3.557   3.199 -0.5802 -0.4269 -0.3043
   69SAPC   H7X 5929   3.015   3.474   3.125  0.2609 -0.9306  0.2633
   69SAPC   H7Y 5930   2.943   3.519   3.277  0.2521 -1.6921 -0.1382
   69SAPC   C38 5931   3.143   3.568   3.290  0.4406  0.6910  0.4862
   69SAPC   H8X 5932   3.130   3.481   3.358 -4.0607 -0.5381 -1.5399
   69SAPC   H8Y 5933   3.134   3.669   3.334  0.8182  0.5999  0.7714
   69SAPC   C39 5934   3.279   3.563   3.214  0.4811  0.0528  0.0810
   69SAPC   H9X 5935   3.295   3.668   3.179  0.5138  0.9521  2.5638
   69SAPC   H9Y 5936   3.273   3.491   3.131  0.2365  0.2252 -0.0504
   69SAPC  C310 5937   3.397   3.517   3.301 -0.1112  0.1839  0.4250
   69SAPC  H10X 5938   3.496   3.516   3.251 -0.6203 -1.4561 -0.6412
   69SAPC  H10Y 5939   3.378   3.410   3.326  1.8116 -0.4908 -0.8442
   69SAPC  C311 5940   3.409   3.581   3.439 -0.4982  0.5853 -0.3709
   69SAPC  H11X 5941   3.311   3.576   3.490  0.7829  1.7233  2.3655
   69SAPC  H11Y 5942   3.444   3.686   3.437  0.6160  0.2361  0.0472
   69SAPC  C312 5943   3.497   3.487   3.523 -0.9059  0.7033 -0.0722
   69SAPC  H12X 5944   3.602   3.473   3.490 -1.1612 -0.8180 -0.3182
   69SAPC  H12Y 5945   3.455   3.384   3.526 -0.6306  0.6089  0.8407
   69SAPC  C313 5946   3.491   3.541   3.675 -0.2945  0.1717  0.0734
   69SAPC  H13X 5947   3.385   3.526   3.702 -0.0855 -2.7972 -0.3405
   69SAPC  H13Y 5948   3.520   3.647   3.686  0.0969  0.0681  0.0676
   69SAPC  C314 5949   3.578   3.455   3.768 -0.4074  0.0477 -0.3083
   69SAPC  H14X 5950   3.686   3.466   3.745 -0.4389 -1.3343 -1.1891
   69SAPC  H14Y 5951   3.552   3.349   3.746 -0.7241  0.2416 -0.8976
   69SAPC  C315 5952   3.549   3.480   3.921  0.2342  0.1616  0.1114
   69SAPC  H15X 5953   3.444   3.451   3.942 -0.1542  2.7583  2.3184
   69SAPC  H15Y 5954   3.562   3.590   3.934  1.6452 -0.0451  0.6332
   69SAPC  C316 5955   3.633   3.395   4.022 -0.0584  0.7241  0.0156
   69SAPC  H16X 5956   3.738   3.432   4.013  0.2634 -0.2128 -0.1642
   69SAPC  H16Y 5957   3.615   3.289   3.996  0.1860  0.6705  0.0588
   69SAPC  C317 5958   3.594   3.417   4.168 -0.0934 -0.2235  1.0081
   69SAPC  H17X 5959   3.485   3.395   4.173 -0.7356  1.8722 -1.2857
   69SAPC  H17Y 5960   3.588   3.528   4.175 -2.5801  0.0523 -2.3712
   69SAPC  C318 5961   3.687   3.348   4.264  1.1876  0.2779  0.4850
   69SAPC  H18X 5962   3.660   3.381   4.367 -0.1954  1.3893 -0.2051
   69SAPC  H18Y 5963   3.793   3.372   4.240  1.3537 -1.8797 -1.2740
   69SAPC  H18Z 5964   3.673   3.238   4.260 -2.7748  0.6512  0.0667
   70SAPC     N 5965   6.067   3.582   1.809 -0.3052 -0.4597  0.0882
   70SAPC   C12 5966   6.125   3.678   1.914 -0.4386  0.3404  0.2430
   70SAPC  H12A 5967   6.144   3.768   1.856 -0.9942 -0.2583 -0.9014
   70SAPC  H12B 5968   6.222   3.647   1.949  0.2251  1.4367 -0.5402
   70SAPC   C13 5969   6.032   3.445   1.873 -0.8935 -0.0566 -0.0013
   70SAPC  H13A 5970   6.120   3.410   1.925  0.4700  0.7294 -1.6776
   70SAPC  H13B 5971   5.946   3.457   1.937 -0.3312  1.9885  0.4443
   70SAPC  H13C 5972   5.999   3.375   1.797 -1.0973  0.1026 -0.0605
   70SAPC   C14 5973   5.938   3.623   1.752  0.5229  0.5876 -0.3847
   70SAPC  H14A 5974   5.913   3.550   1.676  1.4326  1.2967 -1.3904
   70SAPC  H14B 5975   5.860   3.631   1.827  1.0516 -0.1205  0.2572
   70SAPC  H14C 5976   5.950   3.719   1.705 -0.3109  0.8654 -0.0486
   70SAPC   C15 5977   6.160   3.557   1.692  0.4468 -0.0043 -0.2655
   70SAPC  H15A 5978   6.238   3.491   1.727  1.3914  2.3378  2.4248
   70SAPC  H15B 5979   6.107   3.501   1.616 -2.6881 -0.2548  1.9131
   70SAPC  H15C 5980   6.202   3.646   1.646  0.5483  0.3987  0.5838
   70SAPC   C11 5981   6.040   3.709   2.037 -0.0447 -0.0811  0.1453
   70SAPC  H11A 5982   6.101   3.767   2.110 -2.2656  1.9604  0.5179
   70SAPC  H11B 5983   6.009   3.615   2.087  0.0282  0.5595  1.4557
   70SAPC     P 5984   5.928   3.942   1.998  0.6259 -0.3737 -0.0645
   70SAPC   O13 5985   6.054   3.985   1.941 -0.2606 -0.5302  0.2161
   70SAPC   O14 5986   5.804   4.004   1.944 -0.3581  0.0672 -0.3747
   70SAPC   O12 5987   5.915   3.783   2.007 -0.6384  0.0400 -0.0334
   70SAPC   O11 5988   5.932   3.987   2.152 -0.5096  0.0175 -0.5484
   70SAPC    C1 5989   5.832   3.936   2.237 -0.0352 -0.5105  0.2332
   70SAPC    HA 5990   5.740   3.988   2.204  1.4623  2.8802  0.9016
   70SAPC    HB 5991   5.820   3.826   2.235 -0.9202 -0.4347  0.6985
   70SAPC    C2 5992   5.874   3.962   2.386 -0.3334  0.2418 -0.7430
   70SAPC    HS 5993   5.794   3.917   2.448 -4.2493  4.4088 -2.2308
   70SAPC   O21 5994   5.865   4.104   2.408  0.0540 -0.4987  0.9123
   70SAPC   C21 5995   5.749   4.156   2.397  0.2347 -0.1524 -0.2692
   70SAPC   O22 5996   5.642   4.103   2.383 -0.6645  0.4909  1.3979
   70SAPC   C22 5997   5.754   4.306   2.428  0.2921 -0.0943  0.0482
   70SAPC   H2R 5998   5.856   4.330   2.464 -0.3619  1.0062  1.2671
   70SAPC   H2S 5999   5.735   4.350   2.327  2.1918  1.3235  0.2337
   70SAPC    C3 6000   6.016   3.902   2.425  0.5651  0.1542  0.0620
   70SAPC    HX 6001   6.090   3.943   2.353  1.1044  1.9322  1.5462
   70SAPC    HY 6002   6.014   3.793   2.407  0.2741  0.0984  0.4222
   70SAPC   O31 6003   6.045   3.912   2.565  0.4118 -0.1336  0.6088
   70SAPC   C31 6004   6.162   3.972   2.600  0.6229  1.0162  0.2411
   70SAPC   O32 6005   6.251   3.994   2.526  0.0211  0.2365  0.0487
   70SAPC   C32 6006   6.164   3.982   2.754  0.3899  0.1114 -0.6028
   70SAPC   H2X 6007   6.232   4.065   2.784  0.1979 -0.5988  1.9730
   70SAPC   H2Y 6008   6.216   3.888   2.782 -1.8997  0.1568  5.1547
   70SAPC   C23 6009   5.647   4.368   2.516 -0.2211  0.0155  0.0100
   70SAPC   H3R 6010   5.549   4.356   2.464  0.5711  2.2711 -2.2058
   70SAPC   H3S 6011   5.678   4.472   2.541 -1.0111  0.3366 -0.3044
   70SAPC   C24 6012   5.634   4.291   2.654  0.5449  0.7474 -0.0655
   70SAPC   H4R 6013   5.609   4.183   2.654 -0.8305  1.0404  0.5209
   70SAPC   H4S 6014   5.541   4.341   2.689 -0.9608 -2.1202  0.3264
   70SAPC   C25 6015   5.751   4.313   2.748 -0.8105 -0.5675  0.3062
   70SAPC   H5R 6016   5.851   4.310   2.703  0.0564  0.3798  2.0669
   70SAPC   C26 6017   5.745   4.360   2.878 -0.3857 -0.0288  0.0044
   70SAPC   H6R 6018   5.834   4.385   2.939 -0.3211 -0.0134 -0.0961
   70SAPC   C27 6019   5.618   4.368   2.957  0.9083  0.3528  0.4764
   70SAPC   H7R 6020   5.625   4.314   3.053  0.0071 -1.2853 -0.3345
   70SAPC   H7S 6021   5.532   4.325   2.900  0.9663  0.8565 -0.0069
   70SAPC   C28 6022   5.587   4.513   2.992 -0.3130  0.1803  0.2588
   70SAPC   H8R 6023   5.531   4.557   2.908  0.3269 -0.8880 -0.7636
   70SAPC   C29 6024   5.605   4.582   3.109  0.2257  0.1788 -0.0478
   70SAPC   H9R 6025   5.578   4.687   3.123  4.4269  1.3113  0.8749
   70SAPC  C210 6026   5.670   4.521   3.237 -0.0972  0.2306  0.4572
   70SAPC  H10R 6027   5.756   4.583   3.270 -0.3594  0.9429 -0.1720
   70SAPC  H10S 6028   5.703   4.420   3.204 -1.0295  0.1424 -0.2542
   70SAPC  C211 6029   5.573   4.508   3.348  0.2200 -0.5581 -0.0660
   70SAPC  H11R 6030   5.486   4.446   3.322 -1.2618  0.4478  2.1378
   70SAPC  C212 6031   5.570   4.568   3.468 -0.2788  0.3053  0.0755
   70SAPC  H12R 6032   5.486   4.538   3.532  0.0708 -0.9720 -0.0323
   70SAPC  C213 6033   5.679   4.650   3.525 -0.2305  0.4620  0.8007
   70SAPC  H13R 6034   5.633   4.703   3.612 -1.3576  0.2511  0.3503
   70SAPC  H13S 6035   5.708   4.733   3.458 -0.6911  1.3573  1.6712
   70SAPC  C214 6036   5.794   4.566   3.570 -0.6737  0.0546 -0.1756
   70SAPC  H14R 6037   5.820   4.485   3.500  0.4886  1.9663 -2.0699
   70SAPC  C215 6038   5.858   4.569   3.686 -0.5296 -0.7846 -0.1097
   70SAPC  H15R 6039   5.949   4.509   3.703  1.8773  2.7981  0.6557
   70SAPC  C216 6040   5.825   4.675   3.792  0.4869 -0.1751 -0.4879
   70SAPC  H16R 6041   5.788   4.771   3.749  2.8441  0.1548 -2.0036
   70SAPC  H16S 6042   5.925   4.713   3.823 -0.9803  3.0526  0.6851
   70SAPC  C217 6043   5.733   4.625   3.907  0.4510  0.0103  0.0940
   70SAPC  H17R 6044   5.632   4.597   3.871 -0.1375 -0.6369  2.1364
   70SAPC  H17S 6045   5.728   4.708   3.980  4.4917  2.2902 -1.8182
   70SAPC  C218 6046   5.795   4.503   3.980 -0.4745  0.7132 -0.0395
   70SAPC  H18R 6047   5.835   4.430   3.907  3.5693  1.2264  1.4100
   70SAPC  H18S 6048   5.714   4.453   4.037 -1.2501  0.5069 -1.2740
   70SAPC  C219 6049   5.903   4.544   4.070 -0.3880  0.5661 -0.5978
   70SAPC  H19R 6050   5.868   4.625   4.138 -1.3326  0.4608 -0.9474
   70SAPC  H19S 6051   5.986   4.589   4.011 -0.3553  0.5876 -0.5355
   70SAPC  C220 6052   5.959   4.423   4.151 -0.2950  0.0832 -0.0285
   70SAPC  H20R 6053   6.048   4.457   4.207 -0.6950  1.3652 -0.1462
   70SAPC  H20S 6054   5.988   4.350   4.072  0.5008  0.3812 -0.0230
   70SAPC  H20T 6055   5.882   4.380   4.219 -1.5682  1.5446 -0.4871
   70SAPC   C33 6056   6.029   3.985   2.818  0.1148  0.0901 -0.1316
   70SAPC   H3X 6057   5.976   3.889   2.804 -1.0994  0.5423  1.1092
   70SAPC   H3Y 6058   5.953   4.058   2.783 -1.6432 -1.9050 -0.6184
   70SAPC   C34 6059   6.039   3.977   2.976  0.5938 -0.5725  0.7151
   70SAPC   H4X 6060   6.059   4.078   3.017  2.0512 -1.6349  2.8171
   70SAPC   H4Y 6061   6.125   3.911   2.998  0.7480 -1.8320 -3.0436
   70SAPC   C35 6062   5.910   3.933   3.048 -0.1409  0.6550 -0.1408
   70SAPC   H5X 6063   5.883   3.826   3.041  1.0606  0.3326  0.0036
   70SAPC   H5Y 6064   5.828   3.986   2.994 -0.2403  1.9407  1.2034
   70SAPC   C36 6065   5.915   3.974   3.192 -1.1038 -0.4904 -0.3581
   70SAPC   H6X 6066   5.824   3.928   3.235 -0.4381 -0.1278  1.5481
   70SAPC   H6Y 6067   5.903   4.084   3.207 -1.4789 -0.2989 -1.8641
   70SAPC   C37 6068   6.041   3.928   3.259 -0.1303 -0.4360 -0.7638
   70SAPC   H7X 6069   6.063   3.819   3.248  1.0170 -0.6316  2.5043
   70SAPC   H7Y 6070   6.124   3.982   3.209  1.6176 -0.3744  2.0418
   70SAPC   C38 6071   6.052   3.977   3.406 -0.4228  0.3294 -0.0438
   70SAPC   H8X 6072   6.031   4.086   3.410  1.2814  0.6505  0.9233
   70SAPC   H8Y 6073   6.154   3.962   3.446 -0.1344 -2.3755 -1.5514
   70SAPC   C39 6074   5.957   3.908   3.499 -0.2656  0.0928  0.3960
   70SAPC   H9X 6075   5.983   3.800   3.487 -1.4883 -0.0881 -0.8318
   70SAPC   H9Y 6076   5.855   3.920   3.456 -1.0049 -0.2254  2.0037
   70SAPC  C310 6077   5.970   3.940   3.649 -0.0895 -0.2604 -0.2088
   70SAPC  H10X 6078   6.070   3.905   3.682  0.3559 -0.6449 -1.8606
   70SAPC  H10Y 6079   5.889   3.877   3.692 -0.7885  0.3464 -0.6030
   70SAPC  C311 6080   5.940   4.084   3.682 -0.0675  0.2103 -0.0731
   70SAPC  H11X 6081   5.840   4.124   3.655 -0.0475  0.7938  0.6802
   70SAPC  H11Y 6082   6.019   4.139   3.625  0.1894 -1.9978 -1.9467
   70SAPC  C312 6083   5.938   4.113   3.834 -0.7449  0.2818 -0.3243
   70SAPC  H12X 6084   5.914   4.220   3.849  0.4814  0.6215 -0.6335
   70SAPC  H12Y 6085   6.035   4.112   3.889 -1.4600  2.7836  1.1119
   70SAPC  C313 6086   5.845   4.023   3.912 -0.1572  0.5277  0.5263
   70SAPC  H13X 6087   5.862   3.915   3.894  0.0631  0.1519  2.6975
   70SAPC  H13Y 6088   5.749   4.051   3.863  0.8172  1.8470 -0.7331
   70SAPC  C314 6089   5.819   4.049   4.056  0.2548  0.1097  0.0322
   70SAPC  H14X 6090   5.786   4.154   4.071  2.0118  0.9539 -1.5745
   70SAPC  H14Y 6091   5.913   4.032   4.112  0.7755  4.2350  0.7414
   70SAPC  C315 6092   5.711   3.951   4.108  0.6413 -0.4695 -0.0631
   70SAPC  H15X 6093   5.740   3.852   4.067 -0.1714 -0.1955 -1.3529
   70SAPC  H15Y 6094   5.619   3.974   4.051  1.9509  1.5605 -1.4907
   70SAPC  C316 6095   5.679   3.953   4.256  0.7711 -0.1314  0.3791
   70SAPC  H16X 6096   5.623   3.858   4.271 -1.6547  0.7727 -2.1198
   70SAPC  H16Y 6097   5.611   4.036   4.285 -0.6367 -0.2509 -2.2805
   70SAPC  C317 6098   5.796   3.942   4.358 -0.6229  0.1589 -0.5386
   70SAPC  H17X 6099   5.863   4.029   4.348  0.7528 -0.9008 -0.7991
   70SAPC  H17Y 6100   5.851   3.852   4.323 -1.2443 -0.5793  0.3380
   70SAPC  C318 6101   5.758   3.922   4.505 -0.0781  0.6619  0.4258
   70SAPC  H18X 6102   5.846   3.894   4.566 -0.9404 -1.5230  0.7829
   70SAPC  H18Y 6103   5.678   3.846   4.518 -1.6181  2.0458 -0.5739
   70SAPC  H18Z 6104   5.705   4.011   4.546 -4.9725 -1.8580  0.3810
   71SAPC     N 6105   4.602   1.667   1.893  0.4162  0.1240  0.0336
   71SAPC   C12 6106   4.514   1.704   2.010  0.4556 -0.0812 -0.3501
   71SAPC  H12A 6107   4.430   1.638   2.027  0.9594 -0.7627 -0.4350
   71SAPC  H12B 6108   4.450   1.786   1.981 -0.0718 -1.0847 -2.2457
   71SAPC   C13 6109   4.533   1.677   1.763  0.6967  0.5479 -0.1526
   71SAPC  H13A 6110   4.473   1.767   1.751  2.2838  1.8853  1.3207
   71SAPC  H13B 6111   4.605   1.678   1.683 -1.2977 -0.6397 -2.0505
   71SAPC  H13C 6112   4.468   1.592   1.752  0.0625  1.1273 -1.0478
   71SAPC   C14 6113   4.720   1.769   1.893 -0.1695  0.2569  0.2723
   71SAPC  H14A 6114   4.766   1.760   1.990  1.9148 -1.3125 -0.7717
   71SAPC  H14B 6115   4.799   1.739   1.827 -1.6270 -0.4463 -1.2406
   71SAPC  H14C 6116   4.694   1.871   1.872 -0.2257  0.3013  0.5575
   71SAPC   C15 6117   4.654   1.534   1.904  0.2114 -0.0931 -0.0274
   71SAPC  H15A 6118   4.737   1.511   1.838 -0.4291  0.9056 -1.2245
   71SAPC  H15B 6119   4.694   1.513   2.002  0.8137  0.1029 -0.2230
   71SAPC  H15C 6120   4.585   1.452   1.890  0.7920 -0.9346  1.7560
   71SAPC   C11 6121   4.583   1.738   2.150  0.6905 -0.2330 -0.5569
   71SAPC  H11A 6122   4.508   1.771   2.225  1.5137  0.7499 -0.1374
   71SAPC  H11B 6123   4.647   1.828   2.135  0.2283  0.5023  1.6194
   71SAPC     P 6124   4.812   1.625   2.225 -0.2921  0.0775 -0.3087
   71SAPC   O13 6125   4.858   1.483   2.222 -0.1246 -0.3974 -0.1594
   71SAPC   O14 6126   4.884   1.705   2.129 -0.1831  0.1139  0.9569
   71SAPC   O12 6127   4.656   1.622   2.190 -0.1385 -0.4424 -0.0897
   71SAPC   O11 6128   4.830   1.678   2.377  0.1274  0.3177  0.2189
   71SAPC    C1 6129   4.730   1.689   2.471  0.0522 -0.5288  0.3668
   71SAPC    HA 6130   4.751   1.787   2.520  0.5212 -0.4698  0.0537
   71SAPC    HB 6131   4.633   1.715   2.424  2.0725  0.4114 -3.7261
   71SAPC    C2 6132   4.724   1.575   2.575 -0.2225 -0.2448 -0.2643
   71SAPC    HS 6133   4.666   1.607   2.665  0.5445  0.4027  0.0100
   71SAPC   O21 6134   4.857   1.536   2.611  0.3682 -0.5252  0.2374
   71SAPC   C21 6135   4.879   1.471   2.723  0.6091  0.7374  0.0937
   71SAPC   O22 6136   4.791   1.445   2.804 -0.2264  0.0623  0.3184
   71SAPC   C22 6137   5.028   1.444   2.748  0.4065  0.3472  0.0468
   71SAPC   H2R 6138   5.061   1.369   2.673 -3.2532 -1.8878  0.3955
   71SAPC   H2S 6139   5.088   1.536   2.732 -1.7096  1.8747  0.4015
   71SAPC    C3 6140   4.657   1.452   2.506 -0.1018 -0.3719  0.2568
   71SAPC    HX 6141   4.730   1.412   2.433  0.8698  1.0762  0.3991
   71SAPC    HY 6142   4.575   1.491   2.442  0.7573  0.7302 -0.1999
   71SAPC   O31 6143   4.615   1.350   2.608  0.3123  0.4637  0.1159
   71SAPC   C31 6144   4.508   1.374   2.680  0.3104 -0.2951  0.5409
   71SAPC   O32 6145   4.434   1.477   2.672 -0.5904 -0.0142 -0.4487
   71SAPC   C32 6146   4.477   1.257   2.768 -0.6554 -0.1714 -0.5883
   71SAPC   H2X 6147   4.566   1.227   2.826 -0.6777 -2.1391 -1.4967
   71SAPC   H2Y 6148   4.465   1.162   2.712 -0.8479 -1.1929  1.1339
   71SAPC   C23 6149   5.051   1.399   2.896 -0.0483 -0.3769  0.0227
   71SAPC   H3R 6150   4.999   1.306   2.929 -0.8116  0.7994  2.3053
   71SAPC   H3S 6151   5.011   1.486   2.951  2.0768 -0.8285  2.4607
   71SAPC   C24 6152   5.200   1.408   2.931 -0.8058  0.4149 -0.3451
   71SAPC   H4R 6153   5.210   1.426   3.041  1.2241 -3.2125  0.2188
   71SAPC   H4S 6154   5.241   1.496   2.877 -2.3871  1.8220  0.6445
   71SAPC   C25 6155   5.275   1.285   2.894 -0.3278 -0.6041  0.2190
   71SAPC   H5R 6156   5.253   1.269   2.787  1.3144  2.3169 -0.6684
   71SAPC   C26 6157   5.360   1.214   2.963 -0.8268  1.4587 -0.6156
   71SAPC   H6R 6158   5.396   1.117   2.926 -1.5111  0.4482  1.2661
   71SAPC   C27 6159   5.391   1.226   3.109 -0.4237  0.2059 -0.0305
   71SAPC   H7R 6160   5.353   1.322   3.150 -1.7181 -0.2036 -0.2299
   71SAPC   H7S 6161   5.500   1.212   3.128 -0.7563 -0.5830  1.3636
   71SAPC   C28 6162   5.330   1.115   3.183 -0.1525 -0.0349 -0.0424
   71SAPC   H8R 6163   5.335   1.019   3.130 -1.6151 -0.4332  0.4908
   71SAPC   C29 6164   5.286   1.111   3.306  0.9053 -0.8828 -0.1881
   71SAPC   H9R 6165   5.249   1.011   3.334  0.0190 -0.0328  1.9160
   71SAPC  C210 6166   5.279   1.218   3.406 -0.4654 -0.6829 -0.4114
   71SAPC  H10R 6167   5.358   1.295   3.391  0.0129 -1.5428 -2.7901
   71SAPC  H10S 6168   5.297   1.173   3.506  0.1257  0.4174 -0.0040
   71SAPC  C211 6169   5.144   1.287   3.399  0.0435 -0.3860 -0.1010
   71SAPC  H11R 6170   5.103   1.302   3.298  0.8976  2.2845 -0.1386
   71SAPC  C212 6171   5.095   1.345   3.514 -0.0610 -0.6060 -0.1667
   71SAPC  H12R 6172   5.006   1.408   3.497 -0.6432 -1.8789 -2.1105
   71SAPC  C213 6173   5.164   1.341   3.651 -0.4557 -0.7781  0.1720
   71SAPC  H13R 6174   5.154   1.440   3.700  0.9895 -1.3896  1.7958
   71SAPC  H13S 6175   5.274   1.330   3.644 -0.4923 -1.4979  0.6098
   71SAPC  C214 6176   5.107   1.226   3.725  0.3772  0.1094  0.1291
   71SAPC  H14R 6177   5.071   1.146   3.660  2.7263 -1.6872  0.8834
   71SAPC  C215 6178   5.110   1.220   3.864 -0.2174  0.6049 -0.2928
   71SAPC  H15R 6179   5.065   1.133   3.913  1.9270  0.6526  1.9437
   71SAPC  C216 6180   5.176   1.318   3.957  0.6031 -0.7736 -0.5835
   71SAPC  H16R 6181   5.125   1.317   4.055  2.0288 -2.0737  0.1935
   71SAPC  H16S 6182   5.165   1.419   3.912  2.5100  0.4954  1.5854
   71SAPC  C217 6183   5.327   1.297   3.956 -0.0878 -1.1876 -0.4453
   71SAPC  H17R 6184   5.384   1.390   3.978  1.1426 -1.7573 -1.1319
   71SAPC  H17S 6185   5.357   1.284   3.850  0.3415 -1.6535 -0.2688
   71SAPC  C218 6186   5.380   1.180   4.051 -0.2901 -0.2262  0.6451
   71SAPC  H18R 6187   5.326   1.095   4.006  1.3633 -1.2253  0.4541
   71SAPC  H18S 6188   5.348   1.184   4.157 -2.0022  1.9838  0.1215
   71SAPC  C219 6189   5.520   1.157   4.017 -0.5351  0.4703  0.0894
   71SAPC  H19R 6190   5.566   1.256   4.038 -2.1546  1.3563 -0.4467
   71SAPC  H19S 6191   5.526   1.129   3.910 -0.3838  0.3876  0.1181
   71SAPC  C220 6192   5.571   1.052   4.113 -0.0527 -0.0789  0.3234
   71SAPC  H20R 6193   5.674   1.014   4.093  1.0400  0.5441  3.9622
   71SAPC  H20S 6194   5.501   0.966   4.103 -0.4929  0.5286 -2.6329
   71SAPC  H20T 6195   5.568   1.082   4.220  0.2617  4.2094 -0.7053
   71SAPC   C33 6196   4.345   1.271   2.844  0.3661 -0.1048  0.3335
   71SAPC   H3X 6197   4.319   1.170   2.881  0.1399  0.2673  1.2345
   71SAPC   H3Y 6198   4.262   1.318   2.786  1.0514  2.1257  1.0356
   71SAPC   C34 6199   4.358   1.357   2.976  0.3833  0.0123 -0.1651
   71SAPC   H4X 6200   4.264   1.344   3.034  1.2814  1.5206  1.7286
   71SAPC   H4Y 6201   4.351   1.464   2.949 -0.5959  0.5370  2.0000
   71SAPC   C35 6202   4.482   1.324   3.058 -0.5032 -1.0333 -0.0515
   71SAPC   H5X 6203   4.583   1.333   3.012 -0.0934 -0.5410  0.9244
   71SAPC   H5Y 6204   4.477   1.218   3.092  2.8993 -0.7299  1.8563
   71SAPC   C36 6205   4.480   1.394   3.201 -0.5770 -0.3264  0.9871
   71SAPC   H6X 6206   4.379   1.385   3.246 -0.8973 -1.5917  0.0568
   71SAPC   H6Y 6207   4.494   1.503   3.181 -1.3447 -0.1668  1.2637
   71SAPC   C37 6208   4.586   1.348   3.305  0.6559 -0.1981 -0.1044
   71SAPC   H7X 6209   4.690   1.361   3.270 -0.0632  0.1875 -2.2189
   71SAPC   H7Y 6210   4.569   1.244   3.341  0.7079  0.9397  3.7433
   71SAPC   C38 6211   4.568   1.413   3.447  0.3959 -0.0960  0.8615
   71SAPC   H8X 6212   4.460   1.419   3.473 -0.1001 -1.2961 -0.7746
   71SAPC   H8Y 6213   4.600   1.519   3.433 -0.1925 -0.2782 -3.1605
   71SAPC   C39 6214   4.639   1.347   3.567  0.0877  0.5712  0.0230
   71SAPC   H9X 6215   4.750   1.349   3.564  0.1767  0.7382  2.1079
   71SAPC   H9Y 6216   4.608   1.240   3.572  0.9915  0.2181 -1.3646
   71SAPC  C310 6217   4.607   1.422   3.693 -0.5193 -0.5541  0.1025
   71SAPC  H10X 6218   4.502   1.397   3.718 -1.5002  2.1889 -0.8981
   71SAPC  H10Y 6219   4.608   1.533   3.684  0.6948 -0.4339  1.3234
   71SAPC  C311 6220   4.703   1.377   3.803  0.0498 -0.2151  0.6451
   71SAPC  H11X 6221   4.808   1.403   3.776 -0.8139  2.5140 -0.4850
   71SAPC  H11Y 6222   4.701   1.266   3.809  0.9074 -0.2182  1.1263
   71SAPC  C312 6223   4.671   1.434   3.937 -0.0813  0.0208  0.4345
   71SAPC  H12X 6224   4.563   1.421   3.960  0.1765 -0.0306  1.7087
   71SAPC  H12Y 6225   4.696   1.541   3.923  1.6576 -0.4535 -0.3969
   71SAPC  C313 6226   4.764   1.369   4.041  0.3022 -0.2917 -0.2509
   71SAPC  H13X 6227   4.866   1.398   4.008 -0.7077  2.3614 -1.3363
   71SAPC  H13Y 6228   4.741   1.261   4.042  0.0672 -0.2627 -1.1740
   71SAPC  C314 6229   4.769   1.436   4.181 -0.8856 -0.2259  0.5248
   71SAPC  H14X 6230   4.671   1.411   4.226 -1.8536 -2.5567 -2.5585
   71SAPC  H14Y 6231   4.780   1.547   4.174  1.3759 -0.5067 -1.9090
   71SAPC  C315 6232   4.885   1.384   4.266 -0.5587  0.2493  0.5544
   71SAPC  H15X 6233   4.985   1.429   4.248 -1.1530  2.4261  2.1851
   71SAPC  H15Y 6234   4.894   1.276   4.242 -0.4661  0.6517 -1.3724
   71SAPC  C316 6235   4.862   1.412   4.417 -0.5908  1.0736  0.2529
   71SAPC  H16X 6236   4.916   1.323   4.455 -2.3356  0.0206  0.3853
   71SAPC  H16Y 6237   4.755   1.407   4.448 -0.1512  1.0358  1.8541
   71SAPC  C317 6238   4.926   1.542   4.468 -0.2249 -0.3034 -0.9774
   71SAPC  H17X 6239   5.018   1.558   4.408  1.0555 -0.8525  0.7658
   71SAPC  H17Y 6240   4.965   1.529   4.572  0.3902  4.2094 -0.4611
   71SAPC  C318 6241   4.845   1.670   4.477  0.2928  0.3400 -0.7023
   71SAPC  H18X 6242   4.743   1.644   4.512  1.8182 -2.3105  2.2155
   71SAPC  H18Y 6243   4.849   1.730   4.383  1.3905  0.3015 -0.6859
   71SAPC  H18Z 6244   4.887   1.735   4.557 -0.9545  1.4332 -0.8841
   72SAPC     N 6245   4.816   6.535   2.360  0.3905 -0.3421  0.3335
   72SAPC   C12 6246   4.906   6.413   2.355  0.1554  0.2006  0.2225
   72SAPC  H12A 6247   4.946   6.407   2.255  0.6587 -0.2966  0.4528
   72SAPC  H12B 6248   4.844   6.325   2.360  0.0092  0.1000 -2.0341
   72SAPC   C13 6249   4.707   6.528   2.252 -0.2457  0.2044 -0.5337
   72SAPC  H13A 6250   4.648   6.439   2.267 -1.0986  0.6544 -1.1053
   72SAPC  H13B 6251   4.637   6.611   2.251 -1.3458 -0.7029 -0.5472
   72SAPC  H13C 6252   4.738   6.521   2.149  0.5065 -0.1931 -0.2793
   72SAPC   C14 6253   4.743   6.546   2.489  0.0443 -0.6826 -0.3604
   72SAPC  H14A 6254   4.801   6.514   2.575 -1.4445 -0.9316  0.6013
   72SAPC  H14B 6255   4.716   6.646   2.517  0.0224 -0.9184  0.4993
   72SAPC  H14C 6256   4.652   6.488   2.496  1.9002 -3.7463  0.6400
   72SAPC   C15 6257   4.889   6.664   2.327 -0.4964  1.6247 -0.0654
   72SAPC  H15A 6258   4.827   6.752   2.335 -4.3635 -0.9486  1.2810
   72SAPC  H15B 6259   4.972   6.675   2.396 -0.2216  0.8825 -0.2637
   72SAPC  H15C 6260   4.925   6.650   2.226  0.1916 -1.2638  0.4640
   72SAPC   C11 6261   5.017   6.406   2.461 -0.5673 -0.0176 -1.2781
   72SAPC  H11A 6262   5.052   6.303   2.483  3.4322  1.2566 -0.9136
   72SAPC  H11B 6263   4.981   6.455   2.554  1.3936  1.1627 -1.0978
   72SAPC     P 6264   5.223   6.579   2.478 -0.2944 -0.1409  0.6550
   72SAPC   O13 6265   5.361   6.542   2.433 -0.2387  0.0240 -0.0407
   72SAPC   O14 6266   5.174   6.722   2.440 -0.2107 -0.0090 -0.2139
   72SAPC   O12 6267   5.129   6.481   2.406 -0.0464 -0.1266 -0.5227
   72SAPC   O11 6268   5.207   6.561   2.637 -0.2660  0.7524  0.2018
   72SAPC    C1 6269   5.274   6.662   2.719  0.2592  0.4832 -0.2694
   72SAPC    HA 6270   5.324   6.611   2.805  2.2888  3.2154  0.3019
   72SAPC    HB 6271   5.362   6.712   2.673 -0.3721  0.5989 -1.4037
   72SAPC    C2 6272   5.172   6.760   2.778 -0.6035  0.6721  0.4902
   72SAPC    HS 6273   5.150   6.842   2.706 -2.1804  1.9140  2.2869
   72SAPC   O21 6274   5.216   6.799   2.905 -0.1102  0.2594 -0.4299
   72SAPC   C21 6275   5.304   6.901   2.901  0.2122 -0.4391 -0.3496
   72SAPC   O22 6276   5.343   6.951   2.796 -0.5195 -0.5144 -0.6891
   72SAPC   C22 6277   5.310   6.962   3.038  1.0203 -0.1678 -0.0953
   72SAPC   H2R 6278   5.233   7.042   3.046  0.9836 -0.4239  3.4706
   72SAPC   H2S 6279   5.287   6.879   3.107 -1.0225 -0.9839 -1.6437
   72SAPC    C3 6280   5.035   6.684   2.785  0.3677 -0.3532 -0.1455
   72SAPC    HX 6281   5.051   6.582   2.827 -1.2918 -0.2096  0.9577
   72SAPC    HY 6282   5.001   6.668   2.681 -1.1840  0.0238  0.2772
   72SAPC   O31 6283   4.932   6.753   2.867 -0.3956  0.1238  0.6585
   72SAPC   C31 6284   4.815   6.684   2.863  0.5632 -0.1084 -0.1991
   72SAPC   O32 6285   4.810   6.576   2.797 -0.8193 -0.0459  0.5748
   72SAPC   C32 6286   4.715   6.732   2.972 -0.2099 -0.3344 -0.6655
   72SAPC   H2X 6287   4.683   6.830   2.931 -1.5280 -0.3782  0.2028
   72SAPC   H2Y 6288   4.760   6.745   3.072  0.6130  0.1062 -1.0859
   72SAPC   C23 6289   5.440   7.017   3.092 -0.2123  0.7625  0.3792
   72SAPC   H3R 6290   5.465   7.106   3.031  0.1158 -0.6453 -1.6354
   72SAPC   H3S 6291   5.521   6.948   3.060 -0.8944  0.9094 -1.7987
   72SAPC   C24 6292   5.439   7.061   3.241  0.0668 -0.9355 -0.6810
   72SAPC   H4R 6293   5.412   6.978   3.310  2.7920  1.0721  3.1751
   72SAPC   H4S 6294   5.360   7.138   3.256 -0.8035 -1.7433 -0.9927
   72SAPC   C25 6295   5.582   7.096   3.288  0.0049  1.1677 -0.5042
   72SAPC   H5R 6296   5.642   7.161   3.222  2.8137  0.6795  1.3826
   72SAPC   C26 6297   5.630   7.058   3.413 -0.0248  0.0744 -0.3335
   72SAPC   H6R 6298   5.737   7.081   3.421  0.0221  0.1522 -1.0960
   72SAPC   C27 6299   5.572   6.969   3.524 -0.8169 -0.1639 -0.0006
   72SAPC   H7R 6300   5.471   7.005   3.554 -0.8682 -0.1581 -0.1780
   72SAPC   H7S 6301   5.643   6.983   3.608 -0.5002 -2.3701  0.1655
   72SAPC   C28 6302   5.571   6.823   3.505  0.3473  0.1831  0.1323
   72SAPC   H8R 6303   5.648   6.788   3.435 -1.5492 -0.5370 -1.7060
   72SAPC   C29 6304   5.485   6.732   3.549 -0.4974  0.7990 -0.7529
   72SAPC   H9R 6305   5.501   6.632   3.507  1.0520  1.3634 -1.6015
   72SAPC  C210 6306   5.367   6.748   3.641 -0.2988 -0.3068  0.5574
   72SAPC  H10R 6307   5.285   6.792   3.579 -0.3888 -0.7669  0.3499
   72SAPC  H10S 6308   5.380   6.833   3.712  1.8803  0.5092 -0.7367
   72SAPC  C211 6309   5.329   6.622   3.719 -0.5798 -0.9334  0.6117
   72SAPC  H11R 6310   5.412   6.575   3.774  0.7208  2.3890  1.7391
   72SAPC  C212 6311   5.212   6.556   3.707  0.5774  0.1112 -0.8398
   72SAPC  H12R 6312   5.190   6.464   3.763 -2.1044 -0.5353 -2.7556
   72SAPC  C213 6313   5.101   6.599   3.614 -0.4822 -0.1883  0.2233
   72SAPC  H13R 6314   5.113   6.544   3.518 -1.8087  2.5065 -1.6137
   72SAPC  H13S 6315   5.107   6.705   3.582 -2.6255  1.3704  4.2224
   72SAPC  C214 6316   4.961   6.583   3.675 -0.4708  0.1070 -0.0653
   72SAPC  H14R 6317   4.915   6.673   3.718  2.7181  1.7464  0.2243
   72SAPC  C215 6318   4.884   6.471   3.674  0.2651  0.7407 -0.3058
   72SAPC  H15R 6319   4.792   6.450   3.730 -0.1276  1.6437 -0.5944
   72SAPC  C216 6320   4.927   6.336   3.605  0.2468  0.0369 -0.5284
   72SAPC  H16R 6321   4.970   6.363   3.506  0.9087  1.7061  0.1903
   72SAPC  H16S 6322   4.836   6.274   3.586  0.3616 -0.8879  1.6007
   72SAPC  C217 6323   5.028   6.231   3.672  0.2030 -0.2759  0.0977
   72SAPC  H17R 6324   5.111   6.302   3.693 -1.8744  2.1695  0.4984
   72SAPC  H17S 6325   5.058   6.151   3.600 -1.6426 -1.0214  0.1002
   72SAPC  C218 6326   4.981   6.162   3.799 -0.2004  0.8963  0.9265
   72SAPC  H18R 6327   4.938   6.236   3.869 -1.0917  0.5741  0.7296
   72SAPC  H18S 6328   5.068   6.114   3.849 -0.8406 -1.0747  0.2637
   72SAPC  C219 6329   4.863   6.056   3.787 -0.5385  0.4622  0.1754
   72SAPC  H19R 6330   4.888   5.976   3.713  3.0320  2.9812 -1.6709
   72SAPC  H19S 6331   4.773   6.107   3.745 -1.3569 -0.5714  0.6315
   72SAPC  C220 6332   4.817   5.997   3.924 -0.7192  0.5925 -0.5796
   72SAPC  H20R 6333   4.907   5.976   3.986  1.1199  1.5944 -2.7461
   72SAPC  H20S 6334   4.745   5.916   3.901 -0.5923  0.5912 -0.9891
   72SAPC  H20T 6335   4.766   6.072   3.987 -0.0673  1.0592 -0.5923
   72SAPC   C33 6336   4.591   6.642   2.994 -0.0037 -0.1430  0.6635
   72SAPC   H3X 6337   4.560   6.600   2.896 -1.3013  1.6114  0.2662
   72SAPC   H3Y 6338   4.509   6.703   3.038 -0.2220  0.1775 -0.1674
   72SAPC   C34 6339   4.614   6.536   3.102  0.1047  0.4911  0.2760
   72SAPC   H4X 6340   4.642   6.576   3.201 -1.9962  1.0622  0.6836
   72SAPC   H4Y 6341   4.694   6.471   3.059 -1.6381 -0.6741 -1.4225
   72SAPC   C35 6342   4.490   6.449   3.119  0.2968 -0.2806  0.3991
   72SAPC   H5X 6343   4.475   6.391   3.025 -1.0888  2.1014 -0.9481
   72SAPC   H5Y 6344   4.401   6.515   3.122  0.2694 -0.3458  1.3233
   72SAPC   C36 6345   4.493   6.350   3.236 -1.0698 -0.2113  0.2783
   72SAPC   H6X 6346   4.579   6.282   3.221 -0.6825  0.3511 -0.0999
   72SAPC   H6Y 6347   4.401   6.290   3.219 -0.6230 -1.0070  0.6560
   72SAPC   C37 6348   4.503   6.400   3.376 -0.4616  0.3422 -0.4123
   72SAPC   H7X 6349   4.410   6.453   3.402  0.5047  1.7441  0.3152
   72SAPC   H7Y 6350   4.593   6.464   3.385 -0.2286  0.2591 -1.8184
   72SAPC   C38 6351   4.523   6.278   3.475 -1.0328 -0.3476  0.3157
   72SAPC   H8X 6352   4.633   6.271   3.494 -0.2315 -0.0039 -3.4140
   72SAPC   H8Y 6353   4.492   6.190   3.415  2.0275  0.8862 -3.5234
   72SAPC   C39 6354   4.442   6.312   3.602  0.4912  0.6713 -0.4158
   72SAPC   H9X 6355   4.459   6.222   3.665 -0.0385  0.7682 -0.1313
   72SAPC   H9Y 6356   4.333   6.314   3.586  0.3496  0.7262  0.4870
   72SAPC  C310 6357   4.493   6.433   3.676  0.8977 -0.2472  0.0949
   72SAPC  H10X 6358   4.461   6.525   3.623 -2.9124 -0.8938  0.9085
   72SAPC  H10Y 6359   4.603   6.428   3.675  0.9416 -1.1277 -3.8764
   72SAPC  C311 6360   4.435   6.430   3.831  0.2936  0.3016  0.1360
   72SAPC  H11X 6361   4.505   6.477   3.903 -0.6818  2.1115 -0.0235
   72SAPC  H11Y 6362   4.426   6.326   3.867  0.1923 -0.6900 -2.5458
   72SAPC  C312 6363   4.306   6.510   3.853  0.1603  0.8106 -0.5459
   72SAPC  H12X 6364   4.227   6.488   3.778 -1.3538 -0.0987  1.2574
   72SAPC  H12Y 6365   4.340   6.615   3.834  1.0036  0.5994 -0.2697
   72SAPC  C313 6366   4.242   6.492   3.997 -0.3113 -0.4876  0.6078
   72SAPC  H13X 6367   4.260   6.388   4.032 -1.1454 -0.0863  2.3289
   72SAPC  H13Y 6368   4.132   6.500   4.008 -0.0060  0.0994  4.7296
   72SAPC  C314 6369   4.314   6.582   4.096  0.2812 -0.5433 -0.3386
   72SAPC  H14X 6370   4.271   6.684   4.093 -0.0994 -0.6741  0.5236
   72SAPC  H14Y 6371   4.423   6.577   4.072 -0.2022 -3.2526 -2.5543
   72SAPC  C315 6372   4.307   6.530   4.246 -0.3359  0.0215 -0.4967
   72SAPC  H15X 6373   4.343   6.425   4.254 -2.2460 -0.5203  1.9884
   72SAPC  H15Y 6374   4.204   6.529   4.286 -0.7994  1.0436 -1.5788
   72SAPC  C316 6375   4.395   6.611   4.344 -0.3503 -0.3856 -0.2088
   72SAPC  H16X 6376   4.363   6.718   4.347 -0.9698 -0.5729  0.0855
   72SAPC  H16Y 6377   4.500   6.607   4.309 -0.5797 -2.5217 -0.7453
   72SAPC  C317 6378   4.391   6.545   4.489 -0.0641 -0.4297  0.7765
   72SAPC  H17X 6379   4.431   6.441   4.486  0.0531 -0.3719 -0.3162
   72SAPC  H17Y 6380   4.282   6.555   4.502 -0.3980  0.5802 -2.0203
   72SAPC  C318 6381   4.459   6.621   4.601  0.8446 -0.0446  0.5113
   72SAPC  H18X 6382   4.422   6.587   4.700 -1.9082 -0.6040 -0.6287
   72SAPC  H18Y 6383   4.427   6.727   4.590  2.2171  0.3736  0.3650
   72SAPC  H18Z 6384   4.569   6.625   4.584  0.6281  0.2857 -0.9557
   73SLPC     N 6385   4.536   0.145   6.965 -0.4392  0.6908  0.1658
   73SLPC   C13 6386   4.644   0.052   7.030 -0.2369 -0.2520  0.4537
   73SLPC  H13A 6387   4.619   0.009   7.126 -0.8566  1.2472  1.0039
   73SLPC  H13B 6388   4.646  -0.034   6.965 -0.7531 -1.0143  1.4253
   73SLPC  H13C 6389   4.742   0.095   7.034  0.3533 -1.4883 -0.1991
   73SLPC   C14 6390   4.520   0.269   7.049  0.3118 -0.6016  0.3676
   73SLPC  H14A 6391   4.499   0.245   7.152  1.7611  1.5125  1.2558
   73SLPC  H14B 6392   4.612   0.324   7.067 -1.5346  2.2530  1.7857
   73SLPC  H14C 6393   4.450   0.338   7.005  0.9337 -0.3443 -0.2466
   73SLPC   C15 6394   4.403   0.075   6.965  0.4249 -0.1181 -0.1499
   73SLPC  H15A 6395   4.330   0.144   6.927  0.8369  0.3087 -0.1750
   73SLPC  H15B 6396   4.417  -0.010   6.899 -0.0387  0.4900 -1.0397
   73SLPC  H15C 6397   4.377   0.064   7.069  0.4242  1.3461  0.0182
   73SLPC   C12 6398   4.583   0.175   6.823 -0.2253  0.1038 -0.0393
   73SLPC  H12A 6399   4.668   0.241   6.821 -1.2199  1.4727  1.2328
   73SLPC  H12B 6400   4.508   0.226   6.765  1.4600  0.2927 -2.1807
   73SLPC   C11 6401   4.611   0.057   6.728 -0.2352  0.7805  0.9742
   73SLPC  H11A 6402   4.687  -0.002   6.784  0.9841  1.7040  0.3462
   73SLPC  H11B 6403   4.657   0.077   6.629  1.4627 -2.3950  0.9834
   73SLPC     P 6404   4.390   0.020   6.594  0.3203 -0.2625 -0.2043
   73SLPC   O13 6405   4.284  -0.081   6.584  0.8965  0.7611  0.0096
   73SLPC   O14 6406   4.345   0.155   6.629  0.3034  0.2376 -0.4988
   73SLPC   O12 6407   4.496  -0.025   6.701 -0.2514 -0.0370  0.0659
   73SLPC   O11 6408   4.473   0.009   6.460  0.5247  0.1478 -0.2196
   73SLPC    C1 6409   4.548  -0.117   6.442 -0.0858 -0.8795 -0.2364
   73SLPC    HA 6410   4.646  -0.106   6.493 -0.2217 -0.4556 -0.0565
   73SLPC    HB 6411   4.501  -0.214   6.469  0.0810 -0.7475  0.5587
   73SLPC    C2 6412   4.575  -0.142   6.290 -0.0437  0.2771 -0.6287
   73SLPC    HS 6413   4.633  -0.236   6.276 -1.9345 -0.9106 -0.8425
   73SLPC   O21 6414   4.654  -0.039   6.227  0.5887  0.1996  0.2296
   73SLPC   C21 6415   4.775  -0.027   6.270 -0.3049 -0.4543 -0.0674
   73SLPC   O22 6416   4.843  -0.114   6.327  0.0844 -0.3293 -0.7075
   73SLPC   C22 6417   4.833   0.110   6.230 -0.6396  0.1142 -0.5259
   73SLPC   H2R 6418   4.764   0.145   6.150 -1.0549 -1.6756 -1.0056
   73SLPC   H2S 6419   4.820   0.178   6.316 -0.6666 -0.1663 -0.3068
   73SLPC    C3 6420   4.449  -0.172   6.210 -0.0472 -0.0234  0.6751
   73SLPC    HX 6421   4.370  -0.125   6.273 -3.4461 -2.5160 -1.3467
   73SLPC    HY 6422   4.414  -0.278   6.216 -3.7308  0.7959 -2.4336
   73SLPC   O31 6423   4.443  -0.121   6.077  0.5720 -0.8337  0.2839
   73SLPC   C31 6424   4.424   0.011   6.063 -0.7596  0.4927  0.2381
   73SLPC   O32 6425   4.384   0.084   6.152 -0.3214  0.0069 -0.1449
   73SLPC   C32 6426   4.449   0.061   5.916 -0.5229 -0.6704  0.0267
   73SLPC   H2X 6427   4.378   0.146   5.913 -1.2104 -1.2384 -2.5544
   73SLPC   H2Y 6428   4.417  -0.013   5.839 -2.0114 -1.2466  1.1490
   73SLPC   C23 6429   4.984   0.115   6.200 -0.1615  0.4229 -0.5912
   73SLPC   H3R 6430   5.037   0.080   6.291  0.4273 -1.6932 -1.6719
   73SLPC   H3S 6431   5.018   0.218   6.177  1.5544  0.2266  0.8634
   73SLPC   C24 6432   5.039   0.024   6.103 -0.2930  0.4174  0.1720
   73SLPC   H4R 6433   5.019  -0.084   6.120  0.7647 -0.1468 -1.7622
   73SLPC   H4S 6434   5.150   0.029   6.101 -0.1503 -1.8723 -0.8573
   73SLPC   C25 6435   4.986   0.054   5.957  0.7393  0.0176  0.4196
   73SLPC   H5R 6436   5.025   0.157   5.942  2.1661 -0.8849 -2.8519
   73SLPC   H5S 6437   4.875   0.062   5.958  0.7873  0.8118  0.1995
   73SLPC   C26 6438   5.043  -0.040   5.852 -0.0205 -0.2214  0.7441
   73SLPC   H6R 6439   5.012  -0.144   5.874  1.9177 -1.1903 -0.7332
   73SLPC   H6S 6440   5.151  -0.039   5.827 -0.0874  2.1814  0.3260
   73SLPC   C27 6441   4.978  -0.005   5.715  0.1654  0.2337  0.3873
   73SLPC   H7R 6442   5.022   0.090   5.681 -0.8503 -0.3812 -3.0179
   73SLPC   H7S 6443   4.869   0.016   5.724 -0.3653  0.4991 -4.3780
   73SLPC   C28 6444   5.007  -0.118   5.608  0.0882  0.8358 -0.8339
   73SLPC   H8R 6445   4.992  -0.215   5.660  1.7381  1.1727  0.3730
   73SLPC   H8S 6446   5.113  -0.123   5.575  0.7595 -0.1885  1.2755
   73SLPC   C29 6447   4.902  -0.089   5.506  0.1145  0.3865  0.1850
   73SLPC   H9R 6448   4.807  -0.065   5.556  0.5643  1.1103  0.7267
   73SLPC  C210 6449   4.933  -0.058   5.379  0.5253 -0.8244 -1.0713
   73SLPC  H10R 6450   4.856  -0.047   5.301  0.2050  1.7268 -0.4720
   73SLPC  C211 6451   5.067  -0.055   5.318 -0.2849  0.5149 -0.7289
   73SLPC  H11R 6452   5.093  -0.160   5.293 -1.1220  0.1479 -0.1168
   73SLPC  H11S 6453   5.147  -0.033   5.391  0.1496 -1.3518 -0.6016
   73SLPC  C212 6454   5.075   0.043   5.197 -0.4619 -0.1446 -0.4722
   73SLPC  H12R 6455   5.105   0.145   5.224  0.2520  0.1996 -2.4363
   73SLPC  C213 6456   5.060   0.006   5.067 -0.4023 -0.2354 -0.1232
   73SLPC  H13R 6457   5.058   0.086   4.992 -2.1921 -2.8065 -3.0812
   73SLPC  C214 6458   5.020  -0.128   5.015  0.2567  0.2468 -0.3399
   73SLPC  H14R 6459   4.926  -0.119   4.957  0.2195 -0.2773 -0.3677
   73SLPC  H14S 6460   5.012  -0.195   5.104  1.2850  1.7845  0.9519
   73SLPC  C215 6461   5.117  -0.194   4.921 -0.7297 -0.2877 -0.0989
   73SLPC  H15R 6462   5.142  -0.128   4.836 -1.2524  1.0216  0.7339
   73SLPC  H15S 6463   5.062  -0.278   4.873 -2.5013  1.4438 -1.2715
   73SLPC  C216 6464   5.248  -0.250   4.975  0.2161  0.2783 -0.4953
   73SLPC  H16R 6465   5.237  -0.348   5.025  0.6195 -0.0109 -0.9560
   73SLPC  H16S 6466   5.283  -0.184   5.057  1.0586 -0.6771 -0.0569
   73SLPC  C217 6467   5.347  -0.276   4.857 -0.6413  0.8053 -0.5144
   73SLPC  H17R 6468   5.345  -0.181   4.799 -2.9430  1.2804  0.2646
   73SLPC  H17S 6469   5.302  -0.356   4.794 -0.0313 -0.2188  0.3007
   73SLPC  C218 6470   5.489  -0.320   4.902  0.0621  0.3161 -0.0351
   73SLPC  H18R 6471   5.489  -0.417   4.956 -0.3402  0.1040 -0.4117
   73SLPC  H18S 6472   5.567  -0.256   4.950  1.8708 -1.4781 -0.4688
   73SLPC  H18T 6473   5.544  -0.343   4.808 -0.8677 -0.6961 -0.3407
   73SLPC   C33 6474   4.595   0.124   5.893 -0.4846  0.4492  0.2126
   73SLPC   H3X 6475   4.663   0.039   5.874  0.2912  1.1445 -0.1555
   73SLPC   H3Y 6476   4.623   0.176   5.987  1.7443 -0.3068  0.0099
   73SLPC   C34 6477   4.609   0.220   5.780  0.0713 -0.0487  0.0741
   73SLPC   H4X 6478   4.712   0.263   5.779 -0.2899  0.8569 -1.5257
   73SLPC   H4Y 6479   4.541   0.308   5.785  1.1295  0.7967 -0.0955
   73SLPC   C35 6480   4.574   0.156   5.643  0.5935  0.2089  0.0158
   73SLPC   H5X 6481   4.467   0.128   5.642  0.5624  0.1951 -2.7446
   73SLPC   H5Y 6482   4.637   0.065   5.643 -0.2299 -0.4637  2.8349
   73SLPC   C36 6483   4.614   0.252   5.532 -0.2637  0.2773 -0.3209
   73SLPC   H6X 6484   4.707   0.307   5.560  0.4387 -0.3242 -1.4270
   73SLPC   H6Y 6485   4.532   0.326   5.518  0.0287  0.6135 -0.2902
   73SLPC   C37 6486   4.632   0.188   5.396  0.3288  0.0649 -0.2218
   73SLPC   H7X 6487   4.533   0.142   5.378 -1.8551  3.8746  0.8885
   73SLPC   H7Y 6488   4.710   0.109   5.402  1.1416  0.9230  1.5413
   73SLPC   C38 6489   4.681   0.284   5.284 -0.5974  0.0181  0.0581
   73SLPC   H8X 6490   4.780   0.325   5.315  1.3781 -3.7347 -0.7144
   73SLPC   H8Y 6491   4.606   0.366   5.287 -2.4391 -1.4886 -1.8056
   73SLPC   C39 6492   4.686   0.218   5.141 -0.0327 -0.0252 -0.8682
   73SLPC   H9X 6493   4.578   0.194   5.130 -0.5030  0.0749  2.6286
   73SLPC   H9Y 6494   4.744   0.124   5.157 -2.4206 -1.5129 -0.4994
   73SLPC  C310 6495   4.747   0.312   5.040 -0.1213  0.2056  0.2478
   73SLPC  H10X 6496   4.853   0.326   5.071  0.5715  0.1581 -1.9169
   73SLPC  H10Y 6497   4.687   0.405   5.051 -1.2518 -0.6022  1.1388
   73SLPC  C311 6498   4.733   0.261   4.896  0.4426 -0.0523  0.3929
   73SLPC  H11X 6499   4.790   0.334   4.834  2.1352  0.1235  2.0629
   73SLPC  H11Y 6500   4.626   0.244   4.873  0.9460 -2.5081 -0.4710
   73SLPC  C312 6501   4.807   0.127   4.867 -0.3111  0.4849  0.2743
   73SLPC  H12X 6502   4.785   0.048   4.941 -0.2767 -2.3691 -2.5265
   73SLPC  H12Y 6503   4.911   0.156   4.890 -0.2843  0.9060 -0.3474
   73SLPC  C313 6504   4.774   0.072   4.725  0.0598 -0.2455  0.1136
   73SLPC  H13X 6505   4.773   0.155   4.652 -1.7897 -0.1942  0.1443
   73SLPC  H13Y 6506   4.667   0.043   4.721  0.2131 -0.6628 -2.0950
   73SLPC  C314 6507   4.852  -0.054   4.685 -0.5769  0.0371  0.1482
   73SLPC  H14X 6508   4.833  -0.136   4.758 -1.6812  0.8000  0.7542
   73SLPC  H14Y 6509   4.961  -0.030   4.689 -0.0192 -1.8623 -1.9049
   73SLPC  C315 6510   4.822  -0.101   4.542 -0.3321 -0.3105  0.4046
   73SLPC  H15X 6511   4.711  -0.110   4.542 -0.4365  0.2024 -2.4919
   73SLPC  H15Y 6512   4.861  -0.202   4.520  0.5226  0.5590 -2.4483
   73SLPC  C316 6513   4.864  -0.008   4.434  0.3703 -0.5083 -0.9646
   73SLPC  H16X 6514   4.814   0.091   4.445 -0.3667 -1.1488  2.5916
   73SLPC  H16Y 6515   4.826  -0.046   4.336 -1.0688  1.5662 -1.2659
   73SLPC  C317 6516   5.019   0.022   4.430 -0.4451  0.4352  0.3531
   73SLPC  H17X 6517   5.051   0.043   4.326  1.9744 -1.8569  0.5223
   73SLPC  H17Y 6518   5.082  -0.063   4.465  1.3629  0.3269 -2.8225
   73SLPC  C318 6519   5.071   0.152   4.510  0.1368  0.1293 -0.6336
   73SLPC  H18X 6520   5.013   0.245   4.493  2.4562  2.4705  2.7897
   73SLPC  H18Y 6521   5.169   0.176   4.464  0.4256  0.3558  0.0779
   73SLPC  H18Z 6522   5.079   0.132   4.619  2.1575  1.8880 -0.3935
   74SLPC     N 6523   4.810   4.756   6.900  0.1011  0.4361  0.7749
   74SLPC   C13 6524   4.899   4.727   7.016 -0.5091 -0.5903 -0.6481
   74SLPC  H13A 6525   5.003   4.751   6.997 -1.1126  2.3426 -0.7249
   74SLPC  H13B 6526   4.880   4.795   7.098  0.7231  1.5798 -2.0708
   74SLPC  H13C 6527   4.893   4.621   7.039 -0.6687 -0.5176 -0.3464
   74SLPC   C14 6528   4.832   4.898   6.855  0.4543  0.0808  0.0356
   74SLPC  H14A 6529   4.938   4.913   6.839  0.4801  0.7574  0.8323
   74SLPC  H14B 6530   4.779   4.912   6.762 -0.4129  0.0463  0.5222
   74SLPC  H14C 6531   4.807   4.976   6.925 -1.3934 -0.9728  0.6076
   74SLPC   C15 6532   4.666   4.730   6.940  0.0533 -0.2016 -0.2208
   74SLPC  H15A 6533   4.661   4.796   7.025  2.0317  0.3740 -0.4995
   74SLPC  H15B 6534   4.601   4.764   6.861 -0.9145  1.2745  1.1376
   74SLPC  H15C 6535   4.640   4.628   6.965  0.6563  0.1282  2.0173
   74SLPC   C12 6536   4.843   4.675   6.780  0.2322  0.1638  0.3924
   74SLPC  H12A 6537   4.832   4.572   6.812  1.9780 -0.3377 -0.5189
   74SLPC  H12B 6538   4.948   4.686   6.761  0.2708 -1.6220 -0.6766
   74SLPC   C11 6539   4.759   4.689   6.649  0.0429  0.2149 -0.0646
   74SLPC  H11A 6540   4.806   4.630   6.567 -2.6699  0.4785 -1.9493
   74SLPC  H11B 6541   4.753   4.797   6.626  0.3938  0.6335  1.6810
   74SLPC     P 6542   4.598   4.489   6.657  0.4816  0.1457  0.0456
   74SLPC   O13 6543   4.712   4.399   6.708  0.7288 -0.3751  0.3024
   74SLPC   O14 6544   4.464   4.450   6.705 -0.1703 -0.4279 -0.1930
   74SLPC   O12 6545   4.629   4.634   6.681  0.7583 -0.1322  0.1036
   74SLPC   O11 6546   4.590   4.484   6.496 -0.2564  0.0413  0.9079
   74SLPC    C1 6547   4.531   4.596   6.422 -0.5108 -0.0077 -0.1195
   74SLPC    HA 6548   4.421   4.588   6.436 -0.3543 -2.1230  0.2123
   74SLPC    HB 6549   4.565   4.692   6.469 -2.7782 -0.0874  1.8823
   74SLPC    C2 6550   4.571   4.581   6.274 -0.3149 -0.4521 -0.7015
   74SLPC    HS 6551   4.521   4.660   6.214 -0.3967 -0.3060 -0.4465
   74SLPC   O21 6552   4.550   4.456   6.215  0.0197  0.7369 -0.6933
   74SLPC   C21 6553   4.420   4.428   6.209  0.7259 -0.8456  0.5771
   74SLPC   O22 6554   4.330   4.503   6.244 -1.0740 -0.4896 -0.2668
   74SLPC   C22 6555   4.404   4.295   6.130  0.7479  0.1066  0.2821
   74SLPC   H2R 6556   4.493   4.231   6.147  0.1381 -1.7339 -2.6040
   74SLPC   H2S 6557   4.309   4.247   6.163  0.6259 -0.7332 -1.1931
   74SLPC    C3 6558   4.725   4.613   6.261  0.5319 -0.2374  0.3159
   74SLPC    HX 6559   4.787   4.529   6.299 -1.6737 -1.7826  0.7276
   74SLPC    HY 6560   4.754   4.693   6.332  2.1759 -0.4671 -0.0620
   74SLPC   O31 6561   4.766   4.646   6.128  0.8243  0.2238 -0.4828
   74SLPC   C31 6562   4.860   4.735   6.107  0.6482 -0.6206 -0.3650
   74SLPC   O32 6563   4.916   4.800   6.190  0.2496  0.1632  0.4906
   74SLPC   C32 6564   4.880   4.755   5.955  0.1461 -0.0566 -0.7475
   74SLPC   H2X 6565   4.788   4.718   5.904  0.1636  1.2634 -1.7689
   74SLPC   H2Y 6566   4.966   4.690   5.928 -2.0558 -4.4292  1.5706
   74SLPC   C23 6567   4.415   4.310   5.978 -0.3095 -0.5980  0.2273
   74SLPC   H3R 6568   4.481   4.398   5.959 -0.8468  0.0844  1.4148
   74SLPC   H3S 6569   4.317   4.341   5.935  0.8526  2.1672 -0.6407
   74SLPC   C24 6570   4.446   4.175   5.905 -0.8596 -1.0951  0.7902
   74SLPC   H4R 6571   4.376   4.094   5.936 -0.0441 -1.3546  2.0248
   74SLPC   H4S 6572   4.548   4.137   5.927 -0.4038 -1.3292 -1.5123
   74SLPC   C25 6573   4.433   4.184   5.751 -0.2242  0.1683  0.1624
   74SLPC   H5R 6574   4.477   4.281   5.719 -0.0711 -0.1473 -0.6076
   74SLPC   H5S 6575   4.324   4.193   5.734 -0.1649 -1.0840 -1.1021
   74SLPC   C26 6576   4.493   4.081   5.661 -0.4188 -0.4066  0.5602
   74SLPC   H6R 6577   4.478   3.989   5.721  0.1448 -0.5861  0.4264
   74SLPC   H6S 6578   4.603   4.089   5.646 -0.5173  1.0463  0.4138
   74SLPC   C27 6579   4.426   4.085   5.523 -0.1465  0.9711  0.1658
   74SLPC   H7R 6580   4.427   4.194   5.497  0.6182  1.4164  1.9269
   74SLPC   H7S 6581   4.320   4.057   5.538 -0.2230 -1.1803 -3.3127
   74SLPC   C28 6582   4.494   4.002   5.412  0.1300 -0.3957  0.3119
   74SLPC   H8R 6583   4.600   4.034   5.416 -0.0935  0.7223 -1.4943
   74SLPC   H8S 6584   4.452   4.052   5.322  0.3551 -2.6393 -1.1174
   74SLPC   C29 6585   4.479   3.853   5.413  0.8247 -0.5826 -0.7091
   74SLPC   H9R 6586   4.514   3.814   5.509  1.3657 -1.0661 -1.0990
   74SLPC  C210 6587   4.449   3.766   5.321  0.0228  0.3575  0.0072
   74SLPC  H10R 6588   4.455   3.661   5.352  0.3230  0.4388  0.2265
   74SLPC  C211 6589   4.410   3.801   5.183  0.2671 -0.1440  0.5801
   74SLPC  H11R 6590   4.405   3.911   5.167  2.5413 -0.0250  0.4084
   74SLPC  H11S 6591   4.304   3.768   5.172 -0.2469  0.7529  2.3586
   74SLPC  C212 6592   4.494   3.730   5.078 -0.4359 -0.1346 -0.3791
   74SLPC  H12R 6593   4.600   3.712   5.102 -0.9025  0.4482  2.4356
   74SLPC  C213 6594   4.458   3.676   4.964 -0.2733  0.5839 -0.2191
   74SLPC  H13R 6595   4.536   3.631   4.901  0.2771 -0.5491  1.2184
   74SLPC  C214 6596   4.316   3.672   4.908 -0.2438 -0.1670  0.1746
   74SLPC  H14R 6597   4.291   3.770   4.863  1.2468 -0.3040 -1.0487
   74SLPC  H14S 6598   4.244   3.656   4.991  0.6787  2.0124  1.4549
   74SLPC  C215 6599   4.305   3.569   4.790 -0.5380 -0.4384 -1.3706
   74SLPC  H15R 6600   4.368   3.479   4.805  1.9706  1.1952 -1.4927
   74SLPC  H15S 6601   4.349   3.621   4.703  0.0388  0.9467 -0.2898
   74SLPC  C216 6602   4.164   3.542   4.750  0.0310 -0.3113  0.1403
   74SLPC  H16R 6603   4.113   3.639   4.734 -0.1251 -0.5885 -1.1285
   74SLPC  H16S 6604   4.102   3.489   4.826 -0.8779 -0.2155 -0.5253
   74SLPC  C217 6605   4.161   3.457   4.623  0.0403  0.9035 -0.3538
   74SLPC  H17R 6606   4.170   3.348   4.644 -3.3031 -0.0594 -3.0053
   74SLPC  H17S 6607   4.240   3.495   4.554  0.1285  2.3058  0.4775
   74SLPC  C218 6608   4.029   3.478   4.544  0.2264  0.2334 -0.0696
   74SLPC  H18R 6609   4.033   3.452   4.436 -2.0068  0.0590 -0.1426
   74SLPC  H18S 6610   4.018   3.588   4.537 -0.5453  0.3033  1.7025
   74SLPC  H18T 6611   3.938   3.434   4.589 -0.3672 -1.2927 -2.5556
   74SLPC   C33 6612   4.902   4.900   5.908 -0.1040 -0.1591  0.3162
   74SLPC   H3X 6613   4.981   4.954   5.964  1.0132 -3.5679  2.3476
   74SLPC   H3Y 6614   4.810   4.959   5.928  1.4647  2.2844  0.7313
   74SLPC   C34 6615   4.932   4.912   5.758 -0.0170 -0.3592 -0.6226
   74SLPC   H4X 6616   4.853   4.860   5.700 -1.0407 -1.7510  1.8686
   74SLPC   H4Y 6617   5.018   4.847   5.728  0.8403  0.6712 -0.4467
   74SLPC   C35 6618   4.971   5.055   5.727  0.1576  0.9270  0.1983
   74SLPC   H5X 6619   5.073   5.078   5.763  0.6535 -0.1014 -0.4953
   74SLPC   H5Y 6620   4.899   5.129   5.768 -1.2287  0.8010 -1.8369
   74SLPC   C36 6621   4.947   5.080   5.579  0.1159 -0.0908 -0.1694
   74SLPC   H6X 6622   4.960   5.188   5.555  1.7915 -0.0946  0.5525
   74SLPC   H6Y 6623   4.842   5.051   5.556  0.0970 -0.0300 -0.1609
   74SLPC   C37 6624   5.047   5.011   5.487 -0.0478  0.0780  0.3030
   74SLPC   H7X 6625   5.030   4.902   5.494 -0.3897  0.1377  0.4097
   74SLPC   H7Y 6626   5.152   5.032   5.517  0.7630 -0.2232 -2.0855
   74SLPC   C38 6627   5.024   5.067   5.343 -0.2402  0.3353 -0.0087
   74SLPC   H8X 6628   5.060   5.172   5.347 -0.3866  0.3735  0.3007
   74SLPC   H8Y 6629   4.917   5.076   5.317 -0.7292  1.5181  2.2298
   74SLPC   C39 6630   5.103   4.990   5.232  0.0891 -0.1197  0.4435
   74SLPC   H9X 6631   5.109   4.880   5.240  2.2543  0.0847  2.9888
   74SLPC   H9Y 6632   5.208   5.028   5.233  0.1244 -0.2028 -0.0346
   74SLPC  C310 6633   5.047   5.018   5.096 -0.2589 -0.0115  0.7682
   74SLPC  H10X 6634   5.031   5.127   5.082 -0.6146 -0.1840 -0.3280
   74SLPC  H10Y 6635   4.955   4.957   5.086  0.4185 -0.8497 -0.8300
   74SLPC  C311 6636   5.125   4.953   4.982 -0.0981  0.0745 -0.5117
   74SLPC  H11X 6637   5.153   4.851   5.015 -3.3431 -0.2753  1.6362
   74SLPC  H11Y 6638   5.208   5.025   4.962 -1.4260  1.8394  0.0418
   74SLPC  C312 6639   5.059   4.944   4.842 -0.3000  0.2172  0.7227
   74SLPC  H12X 6640   4.953   4.914   4.851  0.1376 -0.9358  2.6141
   74SLPC  H12Y 6641   5.095   4.857   4.783  2.4650 -0.1676  2.7475
   74SLPC  C313 6642   5.074   5.072   4.764  0.4158  0.3614 -0.3492
   74SLPC  H13X 6643   5.182   5.097   4.758  0.6929 -0.9673 -1.4539
   74SLPC  H13Y 6644   5.021   5.149   4.824  3.3281  2.5783 -0.3916
   74SLPC  C314 6645   5.025   5.073   4.622  0.1833 -0.1784  0.3161
   74SLPC  H14X 6646   5.010   5.178   4.592 -4.3008 -0.6205  0.3668
   74SLPC  H14Y 6647   4.925   5.026   4.630 -0.1896  0.2751 -1.4253
   74SLPC  C315 6648   5.110   4.984   4.528  0.3283 -0.0259 -0.6871
   74SLPC  H15X 6649   5.085   4.878   4.549  0.5950 -0.3734 -1.9978
   74SLPC  H15Y 6650   5.220   5.000   4.528  0.3193  0.0583  0.1971
   74SLPC  C316 6651   5.062   5.011   4.384  0.4721 -0.2206 -0.7915
   74SLPC  H16X 6652   5.075   4.915   4.330 -3.0257 -0.4770 -1.3672
   74SLPC  H16Y 6653   5.122   5.096   4.345 -0.2982  0.4891 -0.4481
   74SLPC  C317 6654   4.911   5.061   4.367 -0.2831 -0.3859  0.4508
   74SLPC  H17X 6655   4.903   5.085   4.259  1.2374  2.2904  0.8631
   74SLPC  H17Y 6656   4.905   5.164   4.408 -0.7408  0.1862 -0.9724
   74SLPC  C318 6657   4.797   4.966   4.398 -0.7808  0.0797  0.6759
   74SLPC  H18X 6658   4.811   4.922   4.499  1.1979 -0.9719 -0.0046
   74SLPC  H18Y 6659   4.803   4.883   4.325  0.5045  1.0946 -0.4275
   74SLPC  H18Z 6660   4.703   5.023   4.383 -0.4473  0.2575 -0.8890
   75SLPC     N 6661   6.063   6.506   6.630  0.3592  0.2894 -0.2152
   75SLPC   C13 6662   6.185   6.427   6.664 -0.0042  0.2607 -0.3143
   75SLPC  H13A 6663   6.276   6.484   6.656 -0.5057  1.6949  2.7207
   75SLPC  H13B 6664   6.175   6.391   6.765  0.2339 -0.6467 -0.6034
   75SLPC  H13C 6665   6.209   6.345   6.598  0.0950  0.3722 -0.4164
   75SLPC   C14 6666   6.065   6.635   6.705 -0.3530  0.0560 -0.0718
   75SLPC  H14A 6667   5.984   6.698   6.673 -0.0050  0.2140 -0.6606
   75SLPC  H14B 6668   6.054   6.611   6.809  1.5358 -0.7221 -0.0004
   75SLPC  H14C 6669   6.160   6.682   6.686 -0.9766  1.2307 -0.3922
   75SLPC   C15 6670   5.942   6.438   6.679  0.1183  0.7131  0.1844
   75SLPC  H15A 6671   5.851   6.487   6.647  0.7313  0.3264 -2.3709
   75SLPC  H15B 6672   5.942   6.338   6.639  0.6577  0.7411  0.1027
   75SLPC  H15C 6673   5.931   6.430   6.786 -1.1081 -0.0522  0.0238
   75SLPC   C12 6674   6.067   6.525   6.480  0.2914 -0.1922  0.3578
   75SLPC  H12A 6675   5.974   6.575   6.455  0.7279  1.0374  1.0961
   75SLPC  H12B 6676   6.078   6.424   6.444  0.1176  0.1704 -0.7461
   75SLPC   C11 6677   6.178   6.605   6.406 -0.3571  0.2594  0.1325
   75SLPC  H11A 6678   6.144   6.591   6.301 -2.7902 -2.6847  1.1964
   75SLPC  H11B 6679   6.268   6.542   6.425  0.2165  0.9064 -0.3376
   75SLPC     P 6680   6.089   6.856   6.401 -0.0806  0.7979 -0.2023
   75SLPC   O13 6681   5.954   6.805   6.409  0.7943  0.5319  0.4319
   75SLPC   O14 6682   6.123   6.977   6.484 -0.0394  0.6906 -0.6394
   75SLPC   O12 6683   6.193   6.738   6.451  0.0945 -0.1437 -0.2266
   75SLPC   O11 6684   6.118   6.881   6.242 -0.0497 -0.0004  0.2137
   75SLPC    C1 6685   6.257   6.877   6.201 -0.2421 -0.6241  0.4300
   75SLPC    HA 6686   6.338   6.901   6.274  0.1981 -1.6199  0.2854
   75SLPC    HB 6687   6.292   6.776   6.171  4.2359  1.4026 -2.2850
   75SLPC    C2 6688   6.268   6.982   6.081  0.4207  0.4916 -0.0555
   75SLPC    HS 6689   6.197   6.947   6.003  1.4128  1.5024 -1.4569
   75SLPC   O21 6690   6.406   6.976   6.025  0.2795  0.1963 -0.3345
   75SLPC   C21 6691   6.405   7.007   5.897 -0.4571 -0.0766  0.0329
   75SLPC   O22 6692   6.309   7.032   5.828  0.4170 -0.6853  0.1135
   75SLPC   C22 6693   6.548   7.005   5.844  0.5283 -0.0436 -0.3930
   75SLPC   H2R 6694   6.618   7.045   5.920 -0.1570  2.2867 -0.9185
   75SLPC   H2S 6695   6.573   6.899   5.818  1.2038 -0.0033  0.0633
   75SLPC    C3 6696   6.240   7.129   6.128 -0.1286 -0.3755 -0.2694
   75SLPC    HX 6697   6.323   7.161   6.195 -1.1765  1.4566  0.2232
   75SLPC    HY 6698   6.150   7.119   6.193 -0.4295 -0.2058 -0.6530
   75SLPC   O31 6699   6.218   7.230   6.028  0.6567  0.1245 -0.0660
   75SLPC   C31 6700   6.104   7.232   5.960 -0.3538  0.1619  0.6606
   75SLPC   O32 6701   6.008   7.164   5.993 -0.6012  0.0491 -0.2755
   75SLPC   C32 6702   6.109   7.318   5.837 -0.9396  0.1570  0.0086
   75SLPC   H2X 6703   6.210   7.313   5.791 -1.5327  1.4927 -1.5522
   75SLPC   H2Y 6704   6.109   7.419   5.884 -0.9099 -0.8741  2.3795
   75SLPC   C23 6705   6.574   7.094   5.721  0.5079  0.8366  0.1642
   75SLPC   H3R 6706   6.683   7.109   5.731  0.9783 -2.8378  2.1383
   75SLPC   H3S 6707   6.530   7.195   5.736 -3.4044 -0.5600 -0.6963
   75SLPC   C24 6708   6.522   7.024   5.591  0.9014  0.6275 -0.6126
   75SLPC   H4R 6709   6.413   7.029   5.610  0.8436 -0.2617 -0.6618
   75SLPC   H4S 6710   6.543   6.915   5.601 -0.8892  0.4363  1.7664
   75SLPC   C25 6711   6.559   7.067   5.451 -0.0399 -0.3270  0.2266
   75SLPC   H5R 6712   6.535   6.985   5.381  1.5582 -1.2620  0.7146
   75SLPC   H5S 6713   6.670   7.077   5.456 -0.0539 -0.7731  3.4427
   75SLPC   C26 6714   6.508   7.211   5.423  0.1966  0.3129  0.2509
   75SLPC   H6R 6715   6.555   7.288   5.487 -0.0401 -0.7726  1.7730
   75SLPC   H6S 6716   6.403   7.225   5.454  0.5117  1.5491  0.7996
   75SLPC   C27 6717   6.528   7.249   5.274  0.4586  0.0291  0.1171
   75SLPC   H7R 6718   6.482   7.349   5.259  1.4825  1.0045  2.8990
   75SLPC   H7S 6719   6.464   7.179   5.217 -0.5098 -0.3450  1.6125
   75SLPC   C28 6720   6.677   7.249   5.224 -0.1255  0.1903  0.1478
   75SLPC   H8R 6721   6.679   7.162   5.154 -0.4019 -1.0328  1.6170
   75SLPC   H8S 6722   6.747   7.231   5.308  1.3386  1.7628 -0.6678
   75SLPC   C29 6723   6.708   7.380   5.149 -0.3531  0.2251 -1.1016
   75SLPC   H9R 6724   6.732   7.460   5.220  1.8688 -1.0617 -0.3017
   75SLPC  C210 6725   6.685   7.406   5.020 -0.6164  0.5065  0.3863
   75SLPC  H10R 6726   6.712   7.503   4.978 -0.5178  0.2685 -0.1049
   75SLPC  C211 6727   6.649   7.305   4.918 -0.2177  0.2194  0.3262
   75SLPC  H11R 6728   6.648   7.202   4.959  0.7600  1.0420  2.5886
   75SLPC  H11S 6729   6.733   7.297   4.847 -0.3715  0.2239  0.1431
   75SLPC  C212 6730   6.526   7.326   4.840 -0.2216  0.3302 -0.1607
   75SLPC  H12R 6731   6.441   7.258   4.859  0.1542  0.1991  1.0832
   75SLPC  C213 6732   6.509   7.406   4.735  0.3731 -0.3214  0.2095
   75SLPC  H13R 6733   6.409   7.429   4.696  0.4130  1.6834  1.1980
   75SLPC  C214 6734   6.616   7.492   4.676  0.2013 -0.6743 -0.6787
   75SLPC  H14R 6735   6.689   7.425   4.625  0.7169 -2.5340  2.2756
   75SLPC  H14S 6736   6.674   7.544   4.755  3.9820  0.3650 -3.8288
   75SLPC  C215 6737   6.564   7.600   4.579  0.1513 -0.2737  0.2245
   75SLPC  H15R 6738   6.494   7.663   4.638 -0.4607 -1.5696  0.9225
   75SLPC  H15S 6739   6.516   7.535   4.503  1.0952 -0.2561 -0.4084
   75SLPC  C216 6740   6.669   7.692   4.528 -0.3607 -0.6004 -0.0633
   75SLPC  H16R 6741   6.754   7.639   4.480 -0.3907  0.2545 -1.0949
   75SLPC  H16S 6742   6.710   7.751   4.614 -2.2854  1.1438 -0.2632
   75SLPC  C217 6743   6.615   7.802   4.429 -0.5152 -0.4318 -0.6813
   75SLPC  H17R 6744   6.700   7.861   4.387 -1.7442  1.7549 -0.2765
   75SLPC  H17S 6745   6.550   7.878   4.478  0.0696 -0.1564 -0.3198
   75SLPC  C218 6746   6.548   7.748   4.306  0.4226  0.2434  0.0596
   75SLPC  H18R 6747   6.603   7.671   4.249  0.7275 -1.4958  2.5287
   75SLPC  H18S 6748   6.518   7.839   4.250  2.3730  2.4429  2.3506
   75SLPC  H18T 6749   6.457   7.694   4.338  0.5032 -0.4404 -0.8481
   75SLPC   C33 6750   6.001   7.272   5.737 -0.2013 -0.3711  0.1206
   75SLPC   H3X 6751   5.897   7.284   5.775 -0.1343  1.1259 -0.1143
   75SLPC   H3Y 6752   6.017   7.163   5.728  0.3197 -0.4190  1.4084
   75SLPC   C34 6753   5.996   7.331   5.595 -0.2684  0.4235 -0.0567
   75SLPC   H4X 6754   6.000   7.442   5.587  0.7671  0.4289  0.4273
   75SLPC   H4Y 6755   5.905   7.295   5.542  1.2116 -1.1581 -1.6842
   75SLPC   C35 6756   6.106   7.277   5.501  0.1511  0.3471  0.4871
   75SLPC   H5X 6757   6.132   7.176   5.538  0.7273  0.4591  0.3947
   75SLPC   H5Y 6758   6.200   7.336   5.497  0.2599  0.2964 -4.7882
   75SLPC   C36 6759   6.061   7.264   5.355 -0.2053 -0.6067  1.1391
   75SLPC   H6X 6760   5.962   7.215   5.347  0.5010 -2.2765  2.1175
   75SLPC   H6Y 6761   6.131   7.189   5.311 -0.0450 -0.1375  0.5875
   75SLPC   C37 6762   6.071   7.400   5.276 -0.1282  0.2136  0.9024
   75SLPC   H7X 6763   6.174   7.435   5.301  0.9969 -0.9719 -1.6893
   75SLPC   H7Y 6764   5.995   7.468   5.320  1.7193  1.6081  2.1023
   75SLPC   C38 6765   6.052   7.390   5.128 -0.4430 -0.1384  0.1611
   75SLPC   H8X 6766   6.069   7.485   5.074 -0.0884 -0.6679 -0.6783
   75SLPC   H8Y 6767   5.943   7.371   5.121  0.0735 -4.4843  0.5629
   75SLPC   C39 6768   6.117   7.280   5.055 -0.1815  1.3235  0.2059
   75SLPC   H9X 6769   6.125   7.183   5.109  1.5018  0.6915 -1.0665
   75SLPC   H9Y 6770   6.220   7.307   5.023 -0.2155  1.1439 -0.0621
   75SLPC  C310 6771   6.035   7.224   4.925  0.5484 -0.0198  0.8038
   75SLPC  H10X 6772   6.035   7.312   4.857 -0.4760 -1.8556 -1.7038
   75SLPC  H10Y 6773   5.932   7.204   4.961  0.1784  0.5817  0.1132
   75SLPC  C311 6774   6.087   7.099   4.862  0.2898 -0.7029  0.3164
   75SLPC  H11X 6775   6.094   7.010   4.928  2.0107 -0.3423  0.6754
   75SLPC  H11Y 6776   6.187   7.104   4.815 -0.7225  1.4624 -1.7787
   75SLPC  C312 6777   5.989   7.046   4.753  0.4171 -0.6926  0.0130
   75SLPC  H12X 6778   5.892   7.033   4.805  0.8161 -2.5026  0.3829
   75SLPC  H12Y 6779   6.024   6.942   4.733  1.1313 -0.2922 -0.8523
   75SLPC  C313 6780   5.982   7.123   4.625 -0.3301 -0.3723 -0.1842
   75SLPC  H13X 6781   5.980   7.233   4.640 -1.5325 -0.5546  1.2641
   75SLPC  H13Y 6782   5.883   7.111   4.576 -0.5104  1.9110 -0.4873
   75SLPC  C314 6783   6.110   7.094   4.540  0.1064 -0.2465  0.2394
   75SLPC  H14X 6784   6.107   6.983   4.532  0.7200 -0.3913  1.6545
   75SLPC  H14Y 6785   6.204   7.115   4.596 -0.4066 -2.9321  2.3333
   75SLPC  C315 6786   6.105   7.160   4.404 -0.2330  1.1554  0.2700
   75SLPC  H15X 6787   6.076   7.265   4.426  2.5437  2.0552 -0.0785
   75SLPC  H15Y 6788   6.012   7.119   4.359  0.5499  1.8080 -2.0866
   75SLPC  C316 6789   6.225   7.156   4.315  0.3622  0.6440  0.2422
   75SLPC  H16X 6790   6.285   7.064   4.331  1.4577  1.2141 -0.4983
   75SLPC  H16Y 6791   6.290   7.239   4.352  0.8632  0.5353 -0.3926
   75SLPC  C317 6792   6.186   7.177   4.165 -0.4833 -0.3224  0.9897
   75SLPC  H17X 6793   6.123   7.268   4.165  1.6875  1.3435 -1.9698
   75SLPC  H17Y 6794   6.117   7.094   4.137 -0.2042 -0.1044 -0.3831
   75SLPC  C318 6795   6.303   7.201   4.071 -0.9465 -0.1039  0.4736
   75SLPC  H18X 6796   6.366   7.281   4.115 -1.2293 -0.5122  1.6371
   75SLPC  H18Y 6797   6.261   7.227   3.971 -1.8769 -0.4690  0.7562
   75SLPC  H18Z 6798   6.362   7.108   4.059 -0.1897  0.1345  2.1735
   76SLPC     N 6799   1.899   1.472   6.792  0.7503 -0.9908 -0.4643
   76SLPC   C13 6800   2.009   1.525   6.883 -0.0111  0.9272 -0.1599
   76SLPC  H13A 6801   2.021   1.632   6.893 -2.2784  1.3435 -1.2350
   76SLPC  H13B 6802   1.986   1.476   6.976 -0.0287  0.2895 -0.4882
   76SLPC  H13C 6803   2.101   1.493   6.835 -0.7721 -0.9204 -0.4987
   76SLPC   C14 6804   1.761   1.530   6.833  0.4639 -0.4204 -0.1341
   76SLPC  H14A 6805   1.763   1.634   6.803 -0.9419 -0.5573 -0.7468
   76SLPC  H14B 6806   1.678   1.479   6.787  1.9023 -1.0503 -2.1660
   76SLPC  H14C 6807   1.756   1.524   6.941 -1.3970 -0.1746 -0.1889
   76SLPC   C15 6808   1.887   1.328   6.794  0.5898  0.5522 -0.6737
   76SLPC  H15A 6809   1.984   1.295   6.762 -0.2428 -0.2548 -2.5189
   76SLPC  H15B 6810   1.878   1.295   6.896  1.3732  1.1654 -0.3992
   76SLPC  H15C 6811   1.799   1.298   6.739 -0.6251  2.2001  0.2816
   76SLPC   C12 6812   1.929   1.520   6.653 -0.1692 -0.2885 -0.0206
   76SLPC  H12A 6813   1.954   1.625   6.663 -0.0099 -0.4603  1.7160
   76SLPC  H12B 6814   1.834   1.513   6.601 -0.6547 -2.2705  1.0479
   76SLPC   C11 6815   2.041   1.454   6.563 -0.2426  0.4517  0.0062
   76SLPC  H11A 6816   2.054   1.500   6.462 -0.6178  0.0136 -0.2448
   76SLPC  H11B 6817   2.012   1.351   6.535 -0.4337  0.1787  1.1997
   76SLPC     P 6818   2.268   1.345   6.638  0.5997  0.0373  0.2579
   76SLPC   O13 6819   2.265   1.281   6.774  0.2217 -0.8894  0.1136
   76SLPC   O14 6820   2.251   1.249   6.530  0.1626 -0.2705 -0.1400
   76SLPC   O12 6821   2.163   1.466   6.630  1.3016  0.0525 -0.2343
   76SLPC   O11 6822   2.410   1.411   6.620 -0.0093 -0.8139 -0.1034
   76SLPC    C1 6823   2.432   1.507   6.518 -0.2197  0.1874 -0.1875
   76SLPC    HA 6824   2.342   1.564   6.484  2.2645  3.8420 -1.2494
   76SLPC    HB 6825   2.489   1.594   6.557  0.2964  0.8002 -2.1960
   76SLPC    C2 6826   2.514   1.458   6.401  0.8443  0.0721 -0.2496
   76SLPC    HS 6827   2.556   1.542   6.342 -0.5277 -0.1720 -1.6402
   76SLPC   O21 6828   2.442   1.369   6.313 -0.5236 -0.4587 -0.2632
   76SLPC   C21 6829   2.341   1.433   6.252  0.0720  0.5540 -0.1751
   76SLPC   O22 6830   2.313   1.552   6.261  0.8180  0.1582  0.0093
   76SLPC   C22 6831   2.272   1.334   6.158  0.2338  0.1176  0.3897
   76SLPC   H2R 6832   2.236   1.244   6.212 -0.2165 -0.0935 -0.2558
   76SLPC   H2S 6833   2.191   1.395   6.112  0.1640 -0.4512 -0.2414
   76SLPC    C3 6834   2.641   1.393   6.445 -0.4733  0.2587 -0.3418
   76SLPC    HX 6835   2.615   1.299   6.498 -1.0491  0.5046 -0.1811
   76SLPC    HY 6836   2.689   1.447   6.529  0.7789 -0.3591 -0.6203
   76SLPC   O31 6837   2.738   1.375   6.334 -0.9914 -0.1823  0.3580
   76SLPC   C31 6838   2.731   1.253   6.280 -0.3787 -0.4765 -0.1691
   76SLPC   O32 6839   2.664   1.163   6.330 -0.0259  0.0327 -0.1571
   76SLPC   C32 6840   2.833   1.248   6.167 -0.0997 -0.1777  1.0288
   76SLPC   H2X 6841   2.928   1.281   6.213  0.1379  2.0184 -0.8767
   76SLPC   H2Y 6842   2.801   1.325   6.094  0.7311  0.6408  1.5066
   76SLPC   C23 6843   2.367   1.275   6.051  0.8151 -1.1788  0.2829
   76SLPC   H3R 6844   2.291   1.220   5.992 -3.5205  2.9299  1.4950
   76SLPC   H3S 6845   2.445   1.207   6.093  1.2122 -0.7570  0.2385
   76SLPC   C24 6846   2.433   1.390   5.962  0.2867  0.2786  0.0364
   76SLPC   H4R 6847   2.478   1.467   6.028 -2.6424  0.8181  1.5513
   76SLPC   H4S 6848   2.339   1.434   5.922  0.8738  0.7659 -0.8510
   76SLPC   C25 6849   2.532   1.342   5.856  0.0556 -0.0861  0.1450
   76SLPC   H5R 6850   2.604   1.268   5.894 -1.1541 -0.9764  0.7568
   76SLPC   H5S 6851   2.593   1.433   5.837  1.0404 -0.5415  1.0570
   76SLPC   C26 6852   2.466   1.289   5.729 -0.4705  0.0454 -0.9837
   76SLPC   H6R 6853   2.400   1.374   5.701  0.3533  0.4178 -1.8783
   76SLPC   H6S 6854   2.424   1.187   5.733 -0.7459  0.2148  1.5955
   76SLPC   C27 6855   2.575   1.293   5.619 -0.0033  0.8204  0.3555
   76SLPC   H7R 6856   2.651   1.235   5.676 -0.9904  0.6611  1.5759
   76SLPC   H7S 6857   2.619   1.393   5.599  1.9113 -0.1932 -0.7142
   76SLPC   C28 6858   2.537   1.216   5.491  0.5963  0.1157  0.3965
   76SLPC   H8R 6859   2.475   1.129   5.519 -0.3489 -0.2396 -2.5035
   76SLPC   H8S 6860   2.628   1.178   5.441  0.5020 -1.6352  1.4549
   76SLPC   C29 6861   2.459   1.301   5.399 -0.6277 -0.5038  0.1621
   76SLPC   H9R 6862   2.356   1.331   5.422 -1.2100  0.5436 -3.2771
   76SLPC  C210 6863   2.508   1.367   5.286 -0.7272 -0.2322 -0.8952
   76SLPC  H10R 6864   2.434   1.430   5.235 -2.8435 -0.8221  1.2784
   76SLPC  C211 6865   2.650   1.367   5.242  0.1628  0.6515 -0.0557
   76SLPC  H11R 6866   2.666   1.290   5.163 -0.6426 -1.6017  1.8576
   76SLPC  H11S 6867   2.714   1.320   5.320 -0.0670 -1.9635 -1.3305
   76SLPC  C212 6868   2.704   1.503   5.206  0.1856 -0.7096 -0.1494
   76SLPC  H12R 6869   2.772   1.537   5.285 -0.5009  0.0952  0.1047
   76SLPC  C213 6870   2.674   1.583   5.100  0.1672 -0.3902 -0.1013
   76SLPC  H13R 6871   2.721   1.681   5.084 -1.6422  0.6815  0.7966
   76SLPC  C214 6872   2.584   1.555   4.983  0.6885 -0.7349  0.4597
   76SLPC  H14R 6873   2.489   1.611   4.998  0.5870 -0.7991  0.0602
   76SLPC  H14S 6874   2.559   1.447   4.980 -1.0989 -0.4287  2.3076
   76SLPC  C215 6875   2.645   1.609   4.846  0.8751  0.1751  0.3853
   76SLPC  H15R 6876   2.697   1.704   4.870  2.0115 -0.6875  1.4961
   76SLPC  H15S 6877   2.563   1.621   4.772  0.9080  1.7616  0.5792
   76SLPC  C216 6878   2.756   1.524   4.778  0.1791  0.6087 -0.0149
   76SLPC  H16R 6879   2.839   1.519   4.853  0.2060  1.0691 -0.0094
   76SLPC  H16S 6880   2.801   1.565   4.685 -1.4293 -0.6077 -1.3777
   76SLPC  C217 6881   2.722   1.376   4.752  0.6078  0.4284 -0.7021
   76SLPC  H17R 6882   2.618   1.382   4.713 -0.2225 -2.1456  0.8663
   76SLPC  H17S 6883   2.715   1.319   4.847 -1.1543  1.8364  0.0634
   76SLPC  C218 6884   2.821   1.309   4.661  0.3784  0.0267 -0.1964
   76SLPC  H18R 6885   2.778   1.207   4.651  0.5292 -0.6070  3.9663
   76SLPC  H18S 6886   2.919   1.292   4.712  0.6570 -0.2193 -0.8043
   76SLPC  H18T 6887   2.837   1.366   4.567 -0.4305  1.6093  0.5939
   76SLPC   C33 6888   2.853   1.103   6.101 -0.4966  0.6719  0.0021
   76SLPC   H3X 6889   2.756   1.074   6.055  0.0632  1.0028 -1.4561
   76SLPC   H3Y 6890   2.874   1.026   6.179 -0.2334  1.2838  0.5356
   76SLPC   C34 6891   2.976   1.105   6.007 -0.1694  0.8310 -0.6429
   76SLPC   H4X 6892   3.056   1.163   6.058 -0.9168  2.4342 -1.2393
   76SLPC   H4Y 6893   2.943   1.178   5.930  0.5670  0.6288 -1.1612
   76SLPC   C35 6894   3.010   0.971   5.953 -0.3346  0.0086 -0.3302
   76SLPC   H5X 6895   2.923   0.902   5.957 -1.8285  1.5139 -3.3833
   76SLPC   H5Y 6896   3.090   0.936   6.022 -1.8898  1.3202  2.3076
   76SLPC   C36 6897   3.080   0.976   5.822  0.0390  0.1969  1.1977
   76SLPC   H6X 6898   3.176   1.032   5.829  0.6196 -0.7533  1.0052
   76SLPC   H6Y 6899   3.012   1.034   5.756  0.4854  0.5587  1.0488
   76SLPC   C37 6900   3.108   0.837   5.769 -0.4741 -0.7687 -0.1408
   76SLPC   H7X 6901   3.023   0.770   5.741 -0.6464 -0.6208  0.0245
   76SLPC   H7Y 6902   3.171   0.791   5.847  2.4951  0.7541 -1.4611
   76SLPC   C38 6903   3.203   0.840   5.641 -0.1353 -0.1297  0.0815
   76SLPC   H8X 6904   3.148   0.848   5.546 -0.1034  0.0678  0.0811
   76SLPC   H8Y 6905   3.243   0.736   5.646  2.1697  0.5627 -2.0317
   76SLPC   C39 6906   3.315   0.936   5.637 -0.3641  0.1280 -0.6956
   76SLPC   H9X 6907   3.349   0.973   5.736 -0.1455  0.9537 -1.0746
   76SLPC   H9Y 6908   3.268   1.020   5.581 -1.9876 -0.6068 -0.4877
   76SLPC  C310 6909   3.444   0.885   5.567  1.0099 -0.2092 -0.3467
   76SLPC  H10X 6910   3.495   0.815   5.638  3.0376  0.1509 -1.3886
   76SLPC  H10Y 6911   3.518   0.968   5.572 -0.7712  1.7066 -3.2344
   76SLPC  C311 6912   3.449   0.846   5.422  0.5885  0.2081  0.4025
   76SLPC  H11X 6913   3.369   0.775   5.391  1.1888 -0.5934  0.6504
   76SLPC  H11Y 6914   3.531   0.771   5.427  1.7077  1.4938  2.0824
   76SLPC  C312 6915   3.464   0.960   5.327  0.1044 -0.2904 -0.1876
   76SLPC  H12X 6916   3.538   1.034   5.366  0.5146 -0.8315  0.0793
   76SLPC  H12Y 6917   3.370   1.019   5.328  0.0351 -0.3886 -0.6869
   76SLPC  C313 6918   3.484   0.914   5.182  0.8695 -0.4453  0.8578
   76SLPC  H13X 6919   3.399   0.854   5.143  1.4750 -0.6879 -0.1334
   76SLPC  H13Y 6920   3.576   0.852   5.181 -0.9730 -3.3686  1.7569
   76SLPC  C314 6921   3.493   1.039   5.090  0.2404  1.0462 -0.4325
   76SLPC  H14X 6922   3.582   1.101   5.110  2.0440 -1.2469 -0.9158
   76SLPC  H14Y 6923   3.406   1.107   5.104  0.9514  1.4017  3.2072
   76SLPC  C315 6924   3.501   1.010   4.936  0.7125 -0.3707 -0.2365
   76SLPC  H15X 6925   3.501   1.115   4.901  0.6699 -0.5299 -0.7132
   76SLPC  H15Y 6926   3.412   0.952   4.906  0.2723 -1.1284  2.2676
   76SLPC  C316 6927   3.630   0.942   4.917 -0.6008  0.0231 -0.4004
   76SLPC  H16X 6928   3.626   0.839   4.961  1.7560 -0.5560 -1.3624
   76SLPC  H16Y 6929   3.716   0.998   4.960 -0.8737  0.8558 -0.9369
   76SLPC  C317 6930   3.655   0.920   4.770  0.1008 -0.2626 -0.6261
   76SLPC  H17X 6931   3.650   1.021   4.722  1.0908 -0.3854 -1.0293
   76SLPC  H17Y 6932   3.570   0.866   4.725 -1.6849  1.5488  0.4157
   76SLPC  C318 6933   3.776   0.836   4.736  0.2775 -0.3254 -0.5841
   76SLPC  H18X 6934   3.755   0.733   4.772  1.7578 -0.5083 -0.1923
   76SLPC  H18Y 6935   3.864   0.884   4.783  1.0999 -1.4583 -0.9204
   76SLPC  H18Z 6936   3.775   0.830   4.625  1.3362  2.3701 -0.8202
   77SLPC     N 6937   1.784   2.129   6.489  0.4081  0.1752  0.4387
   77SLPC   C13 6938   1.782   2.163   6.638 -0.5926 -0.1678 -0.0008
   77SLPC  H13A 6939   1.881   2.197   6.665 -1.2856  0.7378  1.5836
   77SLPC  H13B 6940   1.718   2.249   6.652  0.1070  0.7659 -2.0987
   77SLPC  H13C 6941   1.771   2.077   6.703 -1.4884 -0.3799 -0.4210
   77SLPC   C14 6942   1.782   2.258   6.412  0.1469 -0.1591  0.6014
   77SLPC  H14A 6943   1.865   2.324   6.428  0.8433 -0.8666 -0.0307
   77SLPC  H14B 6944   1.785   2.231   6.307 -1.3631 -0.4856  0.6197
   77SLPC  H14C 6945   1.695   2.320   6.430  1.5688  1.8866  0.7428
   77SLPC   C15 6946   1.654   2.055   6.458  0.2497  0.1062  0.0678
   77SLPC  H15A 6947   1.644   1.968   6.521  0.2122 -1.8477 -2.4650
   77SLPC  H15B 6948   1.568   2.119   6.477  1.3181  1.8029 -0.5491
   77SLPC  H15C 6949   1.639   2.031   6.354 -1.5304 -1.6970  0.6775
   77SLPC   C12 6950   1.896   2.037   6.461  0.5040 -0.3218  0.4552
   77SLPC  H12A 6951   1.896   1.950   6.526  1.5505 -1.7074 -1.2946
   77SLPC  H12B 6952   1.987   2.088   6.488  0.3429  0.6759 -0.7842
   77SLPC   C11 6953   1.902   1.990   6.309 -0.4290 -0.2666 -0.0375
   77SLPC  H11A 6954   1.998   1.936   6.295 -0.7613 -0.7156 -0.6366
   77SLPC  H11B 6955   1.896   2.078   6.241  0.3333  0.2681  0.5752
   77SLPC     P 6956   1.803   1.752   6.341 -0.3351 -0.2858 -0.3081
   77SLPC   O13 6957   1.919   1.744   6.432 -0.0702  0.7333 -0.1771
   77SLPC   O14 6958   1.665   1.722   6.394 -0.5042 -0.0187  0.1428
   77SLPC   O12 6959   1.799   1.891   6.276 -0.4182 -0.7788  0.1087
   77SLPC   O11 6960   1.832   1.660   6.217 -0.0390 -0.8614  0.3610
   77SLPC    C1 6961   1.954   1.678   6.138  0.3018 -0.1573  0.4297
   77SLPC    HA 6962   1.952   1.780   6.096  0.7413  0.5932  2.1482
   77SLPC    HB 6963   2.049   1.652   6.190  1.2447 -0.5993 -1.4232
   77SLPC    C2 6964   1.952   1.579   6.022  0.0674 -0.5069  0.8518
   77SLPC    HS 6965   1.856   1.578   5.966 -0.4179 -0.2349  1.6570
   77SLPC   O21 6966   1.972   1.443   6.075 -0.0970 -0.4613 -0.3756
   77SLPC   C21 6967   1.858   1.390   6.117  0.2480  0.3014  1.1252
   77SLPC   O22 6968   1.743   1.432   6.099 -0.4617  0.3957  0.0550
   77SLPC   C22 6969   1.889   1.249   6.171 -0.2283  0.8386 -0.7733
   77SLPC   H2R 6970   1.992   1.243   6.211 -0.4374  1.0909 -0.1867
   77SLPC   H2S 6971   1.823   1.234   6.260  0.2572  0.5078 -0.4626
   77SLPC    C3 6972   2.062   1.607   5.911  1.0492  0.3831 -0.5541
   77SLPC    HX 6973   2.160   1.587   5.959  0.1352 -0.5559  0.9953
   77SLPC    HY 6974   2.082   1.711   5.879  1.7290 -0.1728 -2.0593
   77SLPC   O31 6975   2.021   1.516   5.804 -0.7095  0.3330 -0.2322
   77SLPC   C31 6976   2.117   1.512   5.710  0.2083 -0.5260 -0.1112
   77SLPC   O32 6977   2.225   1.563   5.728 -0.4279  0.0547  0.3720
   77SLPC   C32 6978   2.074   1.420   5.593 -0.0081 -0.0929 -0.2651
   77SLPC   H2X 6979   1.981   1.367   5.623 -0.4974  0.7522 -0.2686
   77SLPC   H2Y 6980   2.163   1.360   5.565  1.1873  1.0883  0.8986
   77SLPC   C23 6981   1.852   1.135   6.066  0.1460 -0.3652  0.3977
   77SLPC   H3R 6982   1.756   1.154   6.013  0.2402  0.1627  0.4055
   77SLPC   H3S 6983   1.859   1.039   6.121  1.6864  0.6508  2.1186
   77SLPC   C24 6984   1.964   1.139   5.957  0.6257  0.1828  1.0049
   77SLPC   H4R 6985   2.060   1.170   6.003  2.0750  0.1466 -1.7455
   77SLPC   H4S 6986   1.937   1.213   5.879 -0.4461 -0.7883  0.4085
   77SLPC   C25 6987   1.986   0.996   5.898  0.1086 -0.6059 -0.9284
   77SLPC   H5R 6988   1.893   0.947   5.862  0.7768 -0.1256 -3.5539
   77SLPC   H5S 6989   2.023   0.932   5.980  0.9191  1.4282  0.3743
   77SLPC   C26 6990   2.090   0.989   5.779 -0.0653 -0.5738 -0.3308
   77SLPC   H6R 6991   2.102   0.881   5.759  0.3327 -1.2221  2.8839
   77SLPC   H6S 6992   2.187   1.037   5.807 -0.8494  0.3941  0.8178
   77SLPC   C27 6993   2.042   1.049   5.650 -0.0063  0.1870  0.4412
   77SLPC   H7R 6994   2.015   1.156   5.664 -1.8288 -0.0628 -0.7359
   77SLPC   H7S 6995   1.945   0.998   5.630 -0.7978  1.5387  0.6731
   77SLPC   C28 6996   2.138   1.033   5.536 -0.4651  0.5169  0.3650
   77SLPC   H8R 6997   2.199   0.941   5.553 -1.0771  0.5059  2.9897
   77SLPC   H8S 6998   2.215   1.113   5.545  0.3277 -0.1015 -0.6245
   77SLPC   C29 6999   2.080   1.040   5.403 -0.4192  0.1743  0.4643
   77SLPC   H9R 7000   1.996   1.111   5.396  0.3621  1.0080 -1.0698
   77SLPC  C210 7001   2.130   0.988   5.286  0.1603 -0.7770  0.8527
   77SLPC  H10R 7002   2.075   1.013   5.194 -0.8409  2.4116  2.1796
   77SLPC  C211 7003   2.245   0.891   5.271 -0.1817  0.4189 -0.5025
   77SLPC  H11R 7004   2.212   0.793   5.231  0.1390 -0.5224  1.4220
   77SLPC  H11S 7005   2.286   0.869   5.372 -1.7118  1.1349  0.3114
   77SLPC  C212 7006   2.355   0.961   5.187  1.0165  0.1176  0.5873
   77SLPC  H12R 7007   2.325   1.036   5.113  0.5272 -2.2594 -1.7941
   77SLPC  C213 7008   2.483   0.927   5.182  0.4824 -0.3733 -0.1430
   77SLPC  H13R 7009   2.544   0.984   5.110 -0.7678  0.4589 -0.5809
   77SLPC  C214 7010   2.546   0.822   5.271  0.2417 -0.1592 -0.6197
   77SLPC  H14R 7011   2.610   0.756   5.210  1.5544  1.2980 -0.8850
   77SLPC  H14S 7012   2.467   0.754   5.310 -1.0153  0.9334 -1.1736
   77SLPC  C215 7013   2.608   0.883   5.400  0.0741 -0.0338  0.2404
   77SLPC  H15R 7014   2.522   0.928   5.452 -2.2150 -3.2201 -0.4628
   77SLPC  H15S 7015   2.682   0.960   5.371  0.4948 -1.2661 -2.2462
   77SLPC  C216 7016   2.664   0.773   5.493 -0.0878 -0.3579  0.3813
   77SLPC  H16R 7017   2.733   0.720   5.424 -0.6301 -1.2781  0.5305
   77SLPC  H16S 7018   2.589   0.719   5.554 -1.1663  1.7866  1.0734
   77SLPC  C217 7019   2.756   0.840   5.607 -0.6214  0.3774 -0.8009
   77SLPC  H17R 7020   2.804   0.924   5.553  1.5285 -0.5537 -0.4417
   77SLPC  H17S 7021   2.834   0.767   5.636 -0.5731  1.3840  1.8012
   77SLPC  C218 7022   2.678   0.890   5.731  0.5591  0.3529  0.5777
   77SLPC  H18R 7023   2.736   0.865   5.822  1.3298 -1.1484 -0.2828
   77SLPC  H18S 7024   2.581   0.837   5.740  0.4168  0.3895 -0.5898
   77SLPC  H18T 7025   2.664   1.001   5.733  2.7208  0.8214 -2.4536
   77SLPC   C33 7026   2.034   1.507   5.478 -0.0989  0.2636 -0.0898
   77SLPC   H3X 7027   2.113   1.582   5.456  0.6975 -0.8693 -1.2275
   77SLPC   H3Y 7028   1.938   1.558   5.503 -1.3260 -1.1155 -1.6985
   77SLPC   C34 7029   2.006   1.424   5.355 -0.0159  0.0258  0.1578
   77SLPC   H4X 7030   1.940   1.483   5.287 -0.2019 -0.0569  0.2644
   77SLPC   H4Y 7031   1.949   1.339   5.399  1.7107 -0.8437  0.8258
   77SLPC   C35 7032   2.127   1.372   5.276 -0.7152 -0.2627 -1.0387
   77SLPC   H5X 7033   2.166   1.286   5.334 -1.5911 -1.4312 -2.1185
   77SLPC   H5Y 7034   2.201   1.454   5.271 -0.6070 -0.4372 -3.7362
   77SLPC   C36 7035   2.089   1.322   5.142 -0.4963  0.6627  0.5551
   77SLPC   H6X 7036   2.025   1.395   5.088  0.3966 -0.6954 -2.5908
   77SLPC   H6Y 7037   2.025   1.233   5.160  1.7570 -0.8111  1.7930
   77SLPC   C37 7038   2.203   1.301   5.043  0.7348 -0.0778  0.2805
   77SLPC   H7X 7039   2.286   1.249   5.097  0.2429  0.3967  1.5456
   77SLPC   H7Y 7040   2.237   1.405   5.019 -2.5424  1.2397  0.7875
   77SLPC   C38 7041   2.169   1.214   4.919  0.4023 -0.2770 -0.6630
   77SLPC   H8X 7042   2.135   1.114   4.952  0.8752  0.6496  3.1065
   77SLPC   H8Y 7043   2.254   1.202   4.848  0.6861  0.6460 -0.4909
   77SLPC   C39 7044   2.052   1.253   4.837  0.5249 -0.0256  0.1250
   77SLPC   H9X 7045   2.064   1.347   4.779 -1.3756  0.0937 -0.1175
   77SLPC   H9Y 7046   1.964   1.257   4.905  1.2018 -2.1944  1.2406
   77SLPC  C310 7047   2.015   1.144   4.737  0.3481 -0.1470  0.6435
   77SLPC  H10X 7048   1.912   1.159   4.698  0.8832 -0.9737 -1.2473
   77SLPC  H10Y 7049   2.017   1.058   4.807  2.0485  0.5748  1.5454
   77SLPC  C311 7050   2.108   1.132   4.619  0.1259  0.7207  0.5505
   77SLPC  H11X 7051   2.182   1.052   4.644  0.3062  0.7943  0.2545
   77SLPC  H11Y 7052   2.158   1.229   4.596 -1.3639  1.2810 -0.4825
   77SLPC  C312 7053   2.033   1.086   4.490  0.3222 -0.1084  0.5351
   77SLPC  H12X 7054   1.976   1.167   4.440 -0.0948 -0.2534  0.7686
   77SLPC  H12Y 7055   1.960   1.009   4.522 -0.1709  0.6904  1.3529
   77SLPC  C313 7056   2.128   1.013   4.394 -0.3349 -0.0364 -0.0349
   77SLPC  H13X 7057   2.201   0.938   4.431  1.3873  0.4469 -2.2820
   77SLPC  H13Y 7058   2.190   1.099   4.361 -1.2603  0.2952 -0.9817
   77SLPC  C314 7059   2.066   0.939   4.274  1.2164 -0.4238 -0.1776
   77SLPC  H14X 7060   2.016   1.016   4.212 -0.3633 -0.9395  0.4018
   77SLPC  H14Y 7061   1.990   0.872   4.319 -1.0503  0.7604 -2.0252
   77SLPC  C315 7062   2.161   0.855   4.187 -0.1987 -0.2048 -0.0380
   77SLPC  H15X 7063   2.250   0.921   4.180 -0.2625 -0.1765 -0.6922
   77SLPC  H15Y 7064   2.121   0.832   4.086 -1.9241  0.2929  0.4998
   77SLPC  C316 7065   2.200   0.715   4.244 -0.4184  0.2968  0.2178
   77SLPC  H16X 7066   2.103   0.668   4.267 -0.7321  0.5803 -0.4835
   77SLPC  H16Y 7067   2.261   0.751   4.330 -0.4466  2.3566 -0.5679
   77SLPC  C317 7068   2.276   0.636   4.136  0.3908  0.3805  0.5266
   77SLPC  H17X 7069   2.350   0.694   4.077 -0.2625  0.7025  0.0222
   77SLPC  H17Y 7070   2.203   0.609   4.057  0.4662 -1.7494  1.1279
   77SLPC  C318 7071   2.342   0.504   4.177  0.0546 -0.8928 -0.4182
   77SLPC  H18X 7072   2.267   0.426   4.203 -1.5061  0.5641 -0.3879
   77SLPC  H18Y 7073   2.407   0.510   4.267 -0.7039 -0.4337  0.0997
   77SLPC  H18Z 7074   2.407   0.458   4.099  0.6176 -2.0138  0.6696
   78SLPC     N 7075   4.415   1.638   7.229 -0.4295  0.0646 -0.0664
   78SLPC   C13 7076   4.295   1.557   7.183  0.0741 -0.6297 -0.1472
   78SLPC  H13A 7077   4.337   1.477   7.123 -1.6616 -0.7514 -1.2738
   78SLPC  H13B 7078   4.241   1.522   7.269 -0.7798  0.1071 -0.3651
   78SLPC  H13C 7079   4.229   1.619   7.123  1.3076 -1.2357 -2.2201
   78SLPC   C14 7080   4.526   1.546   7.274 -0.5408  0.8365  0.1358
   78SLPC  H14A 7081   4.555   1.466   7.207  0.3725 -0.5752  2.1034
   78SLPC  H14B 7082   4.616   1.603   7.292 -0.9748  1.9917 -1.1963
   78SLPC  H14C 7083   4.490   1.500   7.364  1.6240  0.4241  0.8503
   78SLPC   C15 7084   4.371   1.708   7.352 -0.2597  0.1869  0.6616
   78SLPC  H15A 7085   4.281   1.766   7.341 -0.4017 -0.2640 -0.6812
   78SLPC  H15B 7086   4.348   1.640   7.433 -1.0757  1.8712  1.8984
   78SLPC  H15C 7087   4.446   1.775   7.390  1.6376 -1.4965  0.0970
   78SLPC   C12 7088   4.456   1.735   7.121 -0.5951  0.4948 -0.6558
   78SLPC  H12A 7089   4.497   1.676   7.040  1.1764 -0.9673  1.1816
   78SLPC  H12B 7090   4.530   1.801   7.166  0.1097 -2.3591  2.8931
   78SLPC   C11 7091   4.352   1.816   7.046  0.4233  0.5549 -0.1266
   78SLPC  H11A 7092   4.285   1.747   6.989  1.5301 -0.5166 -0.1738
   78SLPC  H11B 7093   4.401   1.866   6.959  0.7505 -0.1571 -0.3639
   78SLPC     P 7094   4.346   2.041   7.178 -0.0204  0.4642 -0.1442
   78SLPC   O13 7095   4.282   2.084   7.305 -0.2527 -0.5801 -0.1550
   78SLPC   O14 7096   4.493   2.037   7.174  0.1625 -0.0692  0.4720
   78SLPC   O12 7097   4.280   1.912   7.124  0.1861  0.4608 -0.3096
   78SLPC   O11 7098   4.306   2.145   7.064 -0.4616  0.6394  0.7255
   78SLPC    C1 7099   4.185   2.173   6.999 -0.0757  0.2409 -0.4326
   78SLPC    HA 7100   4.096   2.131   7.050 -0.7071 -0.7079 -2.2125
   78SLPC    HB 7101   4.183   2.284   6.996  1.0720  0.4072  2.2190
   78SLPC    C2 7102   4.175   2.107   6.861 -0.8420  0.3108 -0.6561
   78SLPC    HS 7103   4.168   1.999   6.883 -2.2554  0.3007 -1.0915
   78SLPC   O21 7104   4.293   2.145   6.794 -0.0553  0.2909  0.3105
   78SLPC   C21 7105   4.372   2.054   6.742 -0.3742  0.3544  0.2247
   78SLPC   O22 7106   4.342   1.938   6.722 -0.2074 -0.4117 -0.3131
   78SLPC   C22 7107   4.501   2.116   6.705 -1.1934 -0.0392  0.9067
   78SLPC   H2R 7108   4.561   2.132   6.797 -0.2156 -0.5572  0.3850
   78SLPC   H2S 7109   4.561   2.049   6.640  1.7610  2.4281  0.8080
   78SLPC    C3 7110   4.052   2.160   6.791 -0.3968 -0.4305 -0.1882
   78SLPC    HX 7111   4.064   2.270   6.800 -1.3568 -0.3339 -0.0769
   78SLPC    HY 7112   3.957   2.131   6.839  0.8649  0.1534  2.9296
   78SLPC   O31 7113   4.051   2.136   6.653  0.3078  0.3143 -0.1444
   78SLPC   C31 7114   4.015   2.020   6.615  0.3183 -0.0011  0.1610
   78SLPC   O32 7115   3.977   1.932   6.697  0.4761 -0.0781  0.1180
   78SLPC   C32 7116   4.016   1.997   6.459 -0.7804  0.7895  0.2094
   78SLPC   H2X 7117   4.028   2.098   6.413 -1.2160  0.5847 -0.3803
   78SLPC   H2Y 7118   3.910   1.963   6.452 -1.0091  0.8218  2.7342
   78SLPC   C23 7119   4.486   2.252   6.629 -0.0549 -0.0043 -0.5077
   78SLPC   H3R 7120   4.584   2.280   6.587 -0.4056  1.4888 -0.3761
   78SLPC   H3S 7121   4.455   2.326   6.706 -1.8875 -1.9498  0.7659
   78SLPC   C24 7122   4.390   2.253   6.516 -0.2761  0.5864 -0.2953
   78SLPC   H4R 7123   4.377   2.358   6.482 -1.2651 -0.1324 -2.2578
   78SLPC   H4S 7124   4.290   2.216   6.548 -0.5577  1.1742 -0.4822
   78SLPC   C25 7125   4.433   2.163   6.393  0.3426  0.4493  0.2273
   78SLPC   H5R 7126   4.355   2.155   6.315  0.7659 -0.9904 -0.0737
   78SLPC   H5S 7127   4.432   2.057   6.428 -1.3619  0.8352  1.4507
   78SLPC   C26 7128   4.562   2.210   6.319  0.0034 -0.0212  0.0874
   78SLPC   H6R 7129   4.645   2.190   6.390 -1.2148 -0.5255  1.4095
   78SLPC   H6S 7130   4.558   2.319   6.298  0.1001 -0.3764 -2.0223
   78SLPC   C27 7131   4.593   2.140   6.182 -0.5208  0.1080 -0.0303
   78SLPC   H7R 7132   4.493   2.133   6.133  0.4501 -2.2486 -1.8324
   78SLPC   H7S 7133   4.624   2.035   6.199 -1.1193  0.0280  0.6392
   78SLPC   C28 7134   4.708   2.204   6.108  0.0647 -0.1342  0.3765
   78SLPC   H8R 7135   4.800   2.175   6.163 -0.8516 -0.6784  1.6671
   78SLPC   H8S 7136   4.711   2.315   6.102  0.7320  0.1053  3.6396
   78SLPC   C29 7137   4.713   2.147   5.966  0.3265 -0.8352 -0.3911
   78SLPC   H9R 7138   4.771   2.054   5.965  1.6869 -0.1399  2.6771
   78SLPC  C210 7139   4.627   2.178   5.865  0.0102  0.3808 -0.5988
   78SLPC  H10R 7140   4.642   2.123   5.772  0.0966  2.8050 -2.1152
   78SLPC  C211 7141   4.530   2.300   5.853 -0.6476 -0.0870 -1.0927
   78SLPC  H11R 7142   4.503   2.328   5.957 -0.9370  3.4574 -1.9955
   78SLPC  H11S 7143   4.436   2.273   5.800 -1.9556  2.7809 -0.4073
   78SLPC  C212 7144   4.610   2.412   5.797 -0.3759  0.0688 -0.7541
   78SLPC  H12R 7145   4.688   2.450   5.864 -1.3405  1.2219 -0.2771
   78SLPC  C213 7146   4.602   2.456   5.670  0.6877 -0.0961  0.4240
   78SLPC  H13R 7147   4.664   2.539   5.633  0.2372  0.9738  1.9794
   78SLPC  C214 7148   4.511   2.406   5.558 -0.6338 -0.7734 -0.3206
   78SLPC  H14R 7149   4.451   2.493   5.524  0.3567 -0.1898 -0.6280
   78SLPC  H14S 7150   4.438   2.338   5.607 -1.0949 -1.2602 -1.6592
   78SLPC  C215 7151   4.576   2.336   5.437 -0.4997  0.5301 -0.6211
   78SLPC  H15R 7152   4.657   2.262   5.458 -1.3628 -0.6266 -1.2528
   78SLPC  H15S 7153   4.628   2.409   5.371 -0.8848 -0.5332 -2.1417
   78SLPC  C216 7154   4.465   2.256   5.368 -1.0889 -0.4059  0.1540
   78SLPC  H16R 7155   4.378   2.318   5.335 -2.4326 -0.4903  3.2259
   78SLPC  H16S 7156   4.440   2.177   5.442  2.6552 -2.8607 -0.9411
   78SLPC  C217 7157   4.526   2.182   5.251  0.4035  0.5696  0.6193
   78SLPC  H17R 7158   4.591   2.099   5.287 -1.2976 -0.8457  0.5894
   78SLPC  H17S 7159   4.594   2.257   5.205 -1.5091  2.3074  0.5311
   78SLPC  C218 7160   4.413   2.130   5.157  0.3475 -0.1746 -0.2338
   78SLPC  H18R 7161   4.453   2.086   5.064  1.0320 -0.2754  0.0990
   78SLPC  H18S 7162   4.340   2.211   5.136 -1.6554 -2.0822 -1.0046
   78SLPC  H18T 7163   4.356   2.056   5.218 -1.2469  1.5981  0.5481
   78SLPC   C33 7164   4.117   1.896   6.402  0.5649 -0.7816 -0.2083
   78SLPC   H3X 7165   4.110   1.813   6.475  1.0149  0.8545  1.7708
   78SLPC   H3Y 7166   4.220   1.932   6.419  0.3003 -0.5385  0.9672
   78SLPC   C34 7167   4.091   1.863   6.257 -0.2435  0.2780  0.0731
   78SLPC   H4X 7168   3.981   1.849   6.252 -0.6858  1.9022  3.0566
   78SLPC   H4Y 7169   4.143   1.767   6.234  1.1723  1.3312 -1.3703
   78SLPC   C35 7170   4.144   1.977   6.169 -0.0610 -0.7908  0.0492
   78SLPC   H5X 7171   4.250   1.997   6.194  0.3149 -0.7322 -1.4869
   78SLPC   H5Y 7172   4.092   2.072   6.196 -0.1275 -0.6826 -0.4534
   78SLPC   C36 7173   4.131   1.954   6.019  0.6713 -0.2910  0.2382
   78SLPC   H6X 7174   4.025   1.982   5.999  1.0019 -0.4550 -2.0410
   78SLPC   H6Y 7175   4.144   1.848   5.988 -2.0197 -0.4796 -0.5461
   78SLPC   C37 7176   4.220   2.042   5.939  0.2048  0.4391 -0.4941
   78SLPC   H7X 7177   4.308   1.978   5.917 -0.3922  0.0995 -1.9840
   78SLPC   H7Y 7178   4.265   2.121   6.003 -0.0533  0.1722  0.0201
   78SLPC   C38 7179   4.158   2.103   5.822  0.0628 -0.4534  0.0719
   78SLPC   H8X 7180   4.209   2.199   5.795 -0.2348 -0.4357 -0.4444
   78SLPC   H8Y 7181   4.054   2.123   5.853 -0.1371 -0.8090 -0.3699
   78SLPC   C39 7182   4.181   2.010   5.703 -0.5255 -1.2868  0.0369
   78SLPC   H9X 7183   4.131   1.915   5.733 -0.3977 -1.0709  0.9585
   78SLPC   H9Y 7184   4.285   1.979   5.683  0.6189  1.7578  0.7448
   78SLPC  C310 7185   4.117   2.071   5.578  0.1153 -0.2761 -0.6787
   78SLPC  H10X 7186   4.191   2.134   5.525  1.5733 -1.3321  0.0269
   78SLPC  H10Y 7187   4.044   2.147   5.610  0.2425  0.9199 -3.0120
   78SLPC  C311 7188   4.048   1.976   5.482 -0.0945 -0.1957  0.2094
   78SLPC  H11X 7189   3.981   2.042   5.422  1.4816  0.4927 -0.8359
   78SLPC  H11Y 7190   3.969   1.914   5.530 -1.0537 -0.0236 -1.0822
   78SLPC  C312 7191   4.121   1.888   5.395 -0.6222 -0.4184  0.1117
   78SLPC  H12X 7192   4.160   1.798   5.446  0.7599  1.0278  1.7733
   78SLPC  H12Y 7193   4.207   1.947   5.355 -1.5475  0.1668 -1.1058
   78SLPC  C313 7194   4.037   1.862   5.272 -0.2278  0.3420  0.1456
   78SLPC  H13X 7195   4.083   1.804   5.189  0.1761 -0.4761  0.9250
   78SLPC  H13Y 7196   4.013   1.961   5.228  0.1896  1.6334  2.6536
   78SLPC  C314 7197   3.901   1.788   5.289 -1.3015 -0.4303 -0.0411
   78SLPC  H14X 7198   3.899   1.722   5.379  0.4363  0.5158  0.7300
   78SLPC  H14Y 7199   3.896   1.709   5.211 -1.2193 -0.6893  0.2110
   78SLPC  C315 7200   3.777   1.873   5.296  0.1338  0.1914 -0.0158
   78SLPC  H15X 7201   3.767   1.912   5.399 -1.0036  0.6882 -0.2976
   78SLPC  H15Y 7202   3.697   1.796   5.288  2.6601 -2.4434 -2.1095
   78SLPC  C316 7203   3.753   1.968   5.180  0.0170 -0.2877  0.1780
   78SLPC  H16X 7204   3.742   1.915   5.082  0.3522 -2.7601  1.3857
   78SLPC  H16Y 7205   3.844   2.030   5.170  0.8462 -1.5748 -0.6079
   78SLPC  C317 7206   3.632   2.054   5.205  0.3367  0.3118  0.2199
   78SLPC  H17X 7207   3.652   2.120   5.293 -1.7321  0.8500  0.3181
   78SLPC  H17Y 7208   3.541   1.992   5.219  0.9678 -0.8719 -0.6760
   78SLPC  C318 7209   3.594   2.167   5.107  0.3693 -0.1371  0.2917
   78SLPC  H18X 7210   3.669   2.249   5.092  1.2746 -1.2934 -2.0351
   78SLPC  H18Y 7211   3.498   2.209   5.143 -0.8995 -3.0256  0.4879
   78SLPC  H18Z 7212   3.567   2.123   5.008 -1.0606  2.1067 -0.3897
   79SLPC     N 7213   2.500   0.200   6.290 -0.2510 -0.2725 -0.4222
   79SLPC   C13 7214   2.573   0.329   6.320  0.9506 -0.5641 -0.0918
   79SLPC  H13A 7215   2.658   0.341   6.254  0.8640 -1.2787 -0.3464
   79SLPC  H13B 7216   2.502   0.405   6.292 -0.8792 -1.9753  0.4870
   79SLPC  H13C 7217   2.593   0.338   6.425 -0.2961 -2.4868  0.3650
   79SLPC   C14 7218   2.571   0.077   6.342 -0.4711 -0.4475 -0.0344
   79SLPC  H14A 7219   2.526  -0.020   6.330  0.0704 -0.4774 -2.3358
   79SLPC  H14B 7220   2.668   0.066   6.296 -1.5814 -0.0516 -2.6638
   79SLPC  H14C 7221   2.599   0.077   6.446 -0.8754 -0.6114  0.0757
   79SLPC   C15 7222   2.491   0.189   6.144 -0.3988 -0.3296 -0.4223
   79SLPC  H15A 7223   2.429   0.266   6.102 -2.7991 -2.5425 -1.1874
   79SLPC  H15B 7224   2.591   0.214   6.110  1.3655 -1.9076  3.0154
   79SLPC  H15C 7225   2.458   0.091   6.111  0.0499  0.3383 -3.1096
   79SLPC   C12 7226   2.359   0.206   6.356  0.8321 -0.8742  0.6984
   79SLPC  H12A 7227   2.369   0.209   6.463  0.5966  2.1720  0.7208
   79SLPC  H12B 7228   2.300   0.121   6.325 -1.7560 -0.0832  3.0481
   79SLPC   C11 7229   2.255   0.316   6.318  0.1943  0.6904  0.0004
   79SLPC  H11A 7230   2.164   0.275   6.367  0.0246  2.9745  1.7661
   79SLPC  H11B 7231   2.243   0.316   6.207 -0.9371 -1.6800  0.0532
   79SLPC     P 7232   2.193   0.513   6.473  0.1878 -0.3768  0.1924
   79SLPC   O13 7233   2.147   0.408   6.564 -0.1326 -0.2810 -0.8046
   79SLPC   O14 7234   2.251   0.636   6.531  0.5255 -0.4371  0.0025
   79SLPC   O12 7235   2.290   0.446   6.370  0.0727 -0.4920 -0.1199
   79SLPC   O11 7236   2.062   0.558   6.384 -0.6479  0.1233 -0.1434
   79SLPC    C1 7237   2.067   0.605   6.248 -0.0171 -0.2297  0.1667
   79SLPC    HA 7238   2.134   0.693   6.238 -1.8432  1.0042 -1.9234
   79SLPC    HB 7239   2.105   0.531   6.175 -0.9644 -0.9091  0.3424
   79SLPC    C2 7240   1.934   0.659   6.193  0.2379  0.1324  0.5193
   79SLPC    HS 7241   1.851   0.587   6.209  0.1121  0.1028 -0.2067
   79SLPC   O21 7242   1.940   0.672   6.047 -0.5394  0.2802  0.1545
   79SLPC   C21 7243   1.920   0.562   5.975  0.2358 -1.1147  0.4207
   79SLPC   O22 7244   1.913   0.450   6.017  0.5541  0.4705 -0.3059
   79SLPC   C22 7245   1.885   0.597   5.826  0.5173 -0.4778 -0.6687
   79SLPC   H2R 7246   1.787   0.647   5.843  1.6272  1.0819  1.7794
   79SLPC   H2S 7247   1.960   0.671   5.791  0.8003 -0.7622 -0.6648
   79SLPC    C3 7248   1.890   0.793   6.246 -1.2242 -0.3928  0.1421
   79SLPC    HX 7249   1.964   0.871   6.219 -1.3548  0.3641  1.8354
   79SLPC    HY 7250   1.884   0.803   6.357  1.3378  2.8323  0.1459
   79SLPC   O31 7251   1.756   0.829   6.192 -0.1125  0.2810  0.2343
   79SLPC   C31 7252   1.653   0.766   6.257  0.0469 -0.5605  0.7961
   79SLPC   O32 7253   1.669   0.685   6.344 -0.3770 -0.1455  0.2422
   79SLPC   C32 7254   1.515   0.820   6.201 -0.4859  0.7107 -1.0145
   79SLPC   H2X 7255   1.537   0.921   6.159 -0.2549 -0.5630 -4.2601
   79SLPC   H2Y 7256   1.448   0.818   6.289  0.1673 -2.3234 -0.4733
   79SLPC   C23 7257   1.866   0.471   5.739 -0.5072 -0.3114  0.3734
   79SLPC   H3R 7258   1.797   0.399   5.788 -0.7433 -0.1262  0.3111
   79SLPC   H3S 7259   1.968   0.432   5.719 -0.8834 -0.5384 -1.2149
   79SLPC   C24 7260   1.811   0.492   5.596 -0.3380  0.6757 -0.3603
   79SLPC   H4R 7261   1.709   0.536   5.604  0.2781  2.1502 -0.2664
   79SLPC   H4S 7262   1.794   0.394   5.546 -2.6531  0.0534  1.4648
   79SLPC   C25 7263   1.902   0.593   5.510 -0.2017  0.0556  0.0055
   79SLPC   H5R 7264   2.005   0.550   5.506 -0.2173 -0.1078  1.0633
   79SLPC   H5S 7265   1.916   0.685   5.571 -0.1703 -1.1328  1.8768
   79SLPC   C26 7266   1.846   0.608   5.372 -0.5717 -0.4790 -0.0450
   79SLPC   H6R 7267   1.740   0.640   5.369 -0.2335  0.6621 -0.5591
   79SLPC   H6S 7268   1.846   0.507   5.326  1.1197 -0.4582 -0.1367
   79SLPC   C27 7269   1.924   0.704   5.296  0.5192 -0.0245  0.6513
   79SLPC   H7R 7270   2.033   0.681   5.295  0.3471 -1.1450  2.8068
   79SLPC   H7S 7271   1.909   0.800   5.350  0.6135  1.0428 -1.1178
   79SLPC   C28 7272   1.875   0.709   5.146  0.3887 -0.0121 -0.8168
   79SLPC   H8R 7273   1.905   0.810   5.108  0.5443  0.2185 -0.0928
   79SLPC   H8S 7274   1.764   0.720   5.139  0.5970  2.3595 -1.6699
   79SLPC   C29 7275   1.940   0.604   5.067  0.5252  0.2063  0.0102
   79SLPC   H9R 7276   1.885   0.509   5.068 -1.3789  1.2445  2.7016
   79SLPC  C210 7277   2.042   0.611   4.976  0.5939  0.0474 -0.2839
   79SLPC  H10R 7278   2.075   0.519   4.927  0.8878  0.8879 -1.7076
   79SLPC  C211 7279   2.120   0.731   4.943  0.2458  0.3395  0.7001
   79SLPC  H11R 7280   2.226   0.709   4.964 -0.2635 -1.5354  1.4330
   79SLPC  H11S 7281   2.100   0.825   4.998  1.0964  1.1825 -0.3727
   79SLPC  C212 7282   2.096   0.760   4.791 -0.1603 -0.8413 -0.3025
   79SLPC  H12R 7283   2.039   0.853   4.779  2.5398  1.3228  2.0994
   79SLPC  C213 7284   2.159   0.722   4.680  0.9926  0.7356 -0.4216
   79SLPC  H13R 7285   2.122   0.741   4.578  2.6142 -2.1900 -1.6729
   79SLPC  C214 7286   2.280   0.624   4.687 -0.0636 -0.4064 -0.4099
   79SLPC  H14R 7287   2.292   0.559   4.598  1.8956 -0.2344 -0.2982
   79SLPC  H14S 7288   2.280   0.565   4.781 -0.0907  0.3265  0.0647
   79SLPC  C215 7289   2.411   0.714   4.681  0.4067 -0.6402 -0.1980
   79SLPC  H15R 7290   2.393   0.769   4.586  1.7024 -2.4146 -1.5638
   79SLPC  H15S 7291   2.488   0.640   4.649 -0.6410 -2.0106  0.3676
   79SLPC  C216 7292   2.435   0.805   4.796 -0.5921 -0.0365 -0.6685
   79SLPC  H16R 7293   2.434   0.746   4.890 -1.2430  1.2419  0.1623
   79SLPC  H16S 7294   2.358   0.885   4.803 -0.3982  0.1453 -0.5944
   79SLPC  C217 7295   2.569   0.883   4.784  0.0807  0.9250  0.3228
   79SLPC  H17R 7296   2.663   0.823   4.792  1.5523  3.0108 -0.4729
   79SLPC  H17S 7297   2.568   0.957   4.866  0.0477 -1.1039  2.2514
   79SLPC  C218 7298   2.574   0.960   4.650  0.2875  1.1623  0.1263
   79SLPC  H18R 7299   2.471   0.998   4.639 -0.6537 -1.5763 -1.3940
   79SLPC  H18S 7300   2.615   0.889   4.574  1.1653  0.6565  1.0425
   79SLPC  H18T 7301   2.657   1.034   4.658  1.8542 -0.4458 -0.3852
   79SLPC   C33 7302   1.442   0.736   6.094  0.0186  0.2599  0.9146
   79SLPC   H3X 7303   1.343   0.781   6.074  0.1176 -0.0912 -0.4668
   79SLPC   H3Y 7304   1.421   0.634   6.134 -0.6000 -0.8363 -1.9746
   79SLPC   C34 7305   1.505   0.714   5.951 -0.1749  0.4568  0.1223
   79SLPC   H4X 7306   1.448   0.649   5.881  0.1765 -0.4474  0.6618
   79SLPC   H4Y 7307   1.599   0.658   5.970 -1.2257 -1.3022  0.3805
   79SLPC   C35 7308   1.544   0.845   5.883 -0.2579  0.2644  0.4543
   79SLPC   H5X 7309   1.637   0.877   5.936 -0.5441 -0.1683  1.2428
   79SLPC   H5Y 7310   1.463   0.920   5.896  0.0082  0.2346  2.6515
   79SLPC   C36 7311   1.568   0.817   5.731 -0.2433  0.5771 -0.5859
   79SLPC   H6X 7312   1.633   0.727   5.727 -1.5760 -0.3736 -1.7110
   79SLPC   H6Y 7313   1.629   0.899   5.688 -0.6587  1.0600 -0.2728
   79SLPC   C37 7314   1.450   0.815   5.636  0.1860 -0.1931  0.0296
   79SLPC   H7X 7315   1.395   0.909   5.658  1.2135  0.3366  0.4271
   79SLPC   H7Y 7316   1.375   0.734   5.651 -0.5955  0.4464 -0.3463
   79SLPC   C38 7317   1.488   0.819   5.488  0.1164 -0.0718 -0.3225
   79SLPC   H8X 7318   1.405   0.778   5.426  1.7760 -1.1035 -1.9435
   79SLPC   H8Y 7319   1.567   0.742   5.476 -0.6256 -1.0514  0.8753
   79SLPC   C39 7320   1.527   0.958   5.432  0.0710  0.3552 -0.5829
   79SLPC   H9X 7321   1.593   1.016   5.500 -0.2107 -1.6461  1.5634
   79SLPC   H9Y 7322   1.430   1.011   5.431 -0.8867 -1.2797  0.5152
   79SLPC  C310 7323   1.590   0.946   5.291 -0.1139 -0.4861 -0.3587
   79SLPC  H10X 7324   1.505   0.911   5.229 -0.7118 -0.0891  0.2174
   79SLPC  H10Y 7325   1.678   0.878   5.288 -1.0584 -1.7467 -0.2634
   79SLPC  C311 7326   1.636   1.080   5.225  0.0781 -0.5732  0.1767
   79SLPC  H11X 7327   1.720   1.118   5.287  1.0046  0.1655 -1.4564
   79SLPC  H11Y 7328   1.554   1.154   5.231 -1.0111 -1.7072 -0.3488
   79SLPC  C312 7329   1.700   1.063   5.084  0.2773  0.3218 -0.8728
   79SLPC  H12X 7330   1.780   0.988   5.097 -1.3528 -1.5178 -1.0830
   79SLPC  H12Y 7331   1.744   1.161   5.053 -1.1738  1.3328  0.1635
   79SLPC  C313 7332   1.603   1.020   4.976  0.5870 -0.3829  0.3625
   79SLPC  H13X 7333   1.515   1.089   4.973  0.8522 -0.0157  0.8682
   79SLPC  H13Y 7334   1.566   0.920   5.008  1.3077 -0.2541  1.6557
   79SLPC  C314 7335   1.678   1.020   4.839  0.3380 -0.3029 -0.1205
   79SLPC  H14X 7336   1.755   0.939   4.843  0.9945  0.3573  1.7009
   79SLPC  H14Y 7337   1.729   1.117   4.827 -1.4165  0.6758 -0.0406
   79SLPC  C315 7338   1.578   1.001   4.727  0.0168  0.7644 -0.5388
   79SLPC  H15X 7339   1.533   1.101   4.711 -1.1640  0.5975  1.4724
   79SLPC  H15Y 7340   1.510   0.915   4.746  1.9923 -0.8808 -0.5895
   79SLPC  C316 7341   1.650   0.974   4.596 -0.4555  0.6082  0.2868
   79SLPC  H16X 7342   1.711   0.881   4.590  0.1035  1.0299 -0.9784
   79SLPC  H16Y 7343   1.707   1.062   4.559 -1.3864  0.1553 -2.4662
   79SLPC  C317 7344   1.547   0.955   4.480  0.1729  0.4349 -0.6569
   79SLPC  H17X 7345   1.497   1.045   4.438  1.6323  1.7119  0.2756
   79SLPC  H17Y 7346   1.479   0.878   4.522  1.3402  0.8832  2.2628
   79SLPC  C318 7347   1.626   0.890   4.362 -0.1141  0.3915  0.1069
   79SLPC  H18X 7348   1.699   0.961   4.319  1.1225 -0.3167  0.9931
   79SLPC  H18Y 7349   1.548   0.861   4.288 -0.3612  0.2429  0.4205
   79SLPC  H18Z 7350   1.675   0.798   4.399 -1.4566  0.2532  1.6591
   80SLPC     N 7351   2.593   3.132   6.833 -0.4675  0.3568 -0.5633
   80SLPC   C13 7352   2.735   3.085   6.864  0.1979  0.2584  0.2331
   80SLPC  H13A 7353   2.765   3.007   6.796 -1.2259 -0.3819  0.3160
   80SLPC  H13B 7354   2.798   3.172   6.851  1.2375 -0.2660  1.4695
   80SLPC  H13C 7355   2.717   3.055   6.966  0.5377 -0.7655  0.0012
   80SLPC   C14 7356   2.555   3.238   6.929  1.0231 -0.0139 -0.1061
   80SLPC  H14A 7357   2.627   3.319   6.929  1.4006 -0.3448  0.6607
   80SLPC  H14B 7358   2.458   3.279   6.905  0.5440  0.0341  1.7825
   80SLPC  H14C 7359   2.541   3.193   7.026  0.0463 -1.0245 -0.6773
   80SLPC   C15 7360   2.510   3.010   6.842  0.4643  0.8962  0.0996
   80SLPC  H15A 7361   2.548   2.929   6.782  1.6673  2.3594 -1.2214
   80SLPC  H15B 7362   2.489   2.970   6.940 -2.7962  1.4567 -0.2551
   80SLPC  H15C 7363   2.408   3.032   6.817 -0.2849  1.0635  2.9172
   80SLPC   C12 7364   2.582   3.188   6.696 -0.8657 -0.1644 -0.0556
   80SLPC  H12A 7365   2.479   3.220   6.690 -1.1091 -0.6724  1.1138
   80SLPC  H12B 7366   2.592   3.109   6.623  1.9493  0.0443 -0.0138
   80SLPC   C11 7367   2.685   3.303   6.650  0.0652  0.5794 -0.6003
   80SLPC  H11A 7368   2.715   3.297   6.543 -1.0367 -0.2600 -0.8812
   80SLPC  H11B 7369   2.780   3.292   6.706 -0.7939 -1.4548  0.6044
   80SLPC     P 7370   2.692   3.561   6.625 -0.1203 -0.2176  0.1390
   80SLPC   O13 7371   2.610   3.674   6.657  0.4449 -0.3254 -0.4627
   80SLPC   O14 7372   2.836   3.560   6.665  0.3030 -0.3262 -0.5199
   80SLPC   O12 7373   2.624   3.431   6.674  0.4065  0.1735 -0.2832
   80SLPC   O11 7374   2.692   3.545   6.467  0.2659 -0.9173 -0.4546
   80SLPC    C1 7375   2.579   3.485   6.400 -0.1584  0.4221 -0.6304
   80SLPC    HA 7376   2.565   3.377   6.423  0.8530  0.5086  0.5261
   80SLPC    HB 7377   2.487   3.535   6.437  0.5060  0.8395  0.5458
   80SLPC    C2 7378   2.596   3.479   6.245 -0.1915 -0.5064  0.8357
   80SLPC    HS 7379   2.531   3.403   6.197  0.3292 -0.3298 -0.1947
   80SLPC   O21 7380   2.734   3.465   6.205  0.1062 -0.0993 -0.5599
   80SLPC   C21 7381   2.788   3.339   6.220  0.3627 -0.1146 -0.5179
   80SLPC   O22 7382   2.736   3.242   6.270 -0.4014  0.2354 -0.4338
   80SLPC   C22 7383   2.925   3.349   6.166 -0.9017  0.4044 -0.3209
   80SLPC   H2R 7384   2.954   3.437   6.105  2.5337 -1.0259 -1.0185
   80SLPC   H2S 7385   2.989   3.348   6.257 -0.1079 -0.7697 -0.8613
   80SLPC    C3 7386   2.552   3.618   6.176 -0.4417  0.3023  0.3267
   80SLPC    HX 7387   2.639   3.684   6.197 -1.4077  2.2661 -1.4180
   80SLPC    HY 7388   2.464   3.657   6.233 -2.3555 -1.9639 -0.9087
   80SLPC   O31 7389   2.523   3.607   6.037 -0.1296 -0.0950 -0.5452
   80SLPC   C31 7390   2.405   3.567   6.015  0.1384  0.0962 -0.3028
   80SLPC   O32 7391   2.317   3.536   6.094  0.2328 -0.3992  0.6198
   80SLPC   C32 7392   2.390   3.578   5.861  0.2258  0.5508  0.1059
   80SLPC   H2X 7393   2.466   3.522   5.803 -2.7808 -2.3832 -1.3320
   80SLPC   H2Y 7394   2.409   3.685   5.837 -0.1903  0.8086  0.8974
   80SLPC   C23 7395   2.969   3.217   6.087 -0.3486  0.0973  0.8856
   80SLPC   H3R 7396   2.956   3.115   6.131 -0.5554 -0.5619 -0.6384
   80SLPC   H3S 7397   3.075   3.229   6.056 -0.0632 -1.0473  1.3455
   80SLPC   C24 7398   2.893   3.198   5.954 -0.0980  0.0643  0.0620
   80SLPC   H4R 7399   2.877   3.303   5.921 -1.1536 -0.5516 -1.5241
   80SLPC   H4S 7400   2.797   3.153   5.988 -1.8281  2.3172 -1.4631
   80SLPC   C25 7401   2.967   3.123   5.845  0.4255 -0.0276  0.0675
   80SLPC   H5R 7402   2.985   3.018   5.877 -0.3020  0.1398  1.0622
   80SLPC   H5S 7403   3.064   3.175   5.827  0.1823  1.0695  1.7102
   80SLPC   C26 7404   2.896   3.117   5.709  0.1027 -0.2270 -0.6681
   80SLPC   H6R 7405   2.876   3.222   5.675  0.6911  1.1759  2.8881
   80SLPC   H6S 7406   2.801   3.061   5.720 -0.0685  0.4201  1.5496
   80SLPC   C27 7407   2.985   3.047   5.601  0.0303 -0.7108 -0.2844
   80SLPC   H7R 7408   3.008   2.942   5.629  0.2157 -1.5758 -3.3354
   80SLPC   H7S 7409   3.085   3.092   5.588 -0.6266  1.2841  1.0099
   80SLPC   C28 7410   2.911   3.060   5.468  0.8846 -0.8878  0.7764
   80SLPC   H8R 7411   2.911   3.168   5.440 -0.5836 -0.6991  1.3887
   80SLPC   H8S 7412   2.804   3.029   5.462 -0.3015  2.8601 -2.2798
   80SLPC   C29 7413   2.983   2.973   5.380 -0.9406  0.2164 -0.3658
   80SLPC   H9R 7414   3.014   2.878   5.425  2.4636  1.0579 -0.6808
   80SLPC  C210 7415   3.009   3.001   5.253  0.0740 -0.1916 -0.2812
   80SLPC  H10R 7416   3.046   2.922   5.186 -1.2174 -1.5168  0.5104
   80SLPC  C211 7417   2.959   3.118   5.177 -0.3922  0.1879  0.0925
   80SLPC  H11R 7418   2.960   3.209   5.240  0.0033  1.0491 -1.1095
   80SLPC  H11S 7419   2.850   3.100   5.170 -0.4934  0.5197  0.7563
   80SLPC  C212 7420   3.038   3.122   5.048 -0.2093 -0.1562  0.6937
   80SLPC  H12R 7421   3.114   3.201   5.039 -0.7456  0.3819  0.7837
   80SLPC  C213 7422   3.008   3.038   4.941  0.4772 -0.4259 -0.3747
   80SLPC  H13R 7423   3.061   3.048   4.845  0.0239 -2.4404 -0.8779
   80SLPC  C214 7424   2.897   2.933   4.938  0.5758  0.3459 -0.1286
   80SLPC  H14R 7425   2.846   2.919   5.036  1.8441 -0.7773  0.4089
   80SLPC  H14S 7426   2.925   2.830   4.907  0.4444  0.7444 -1.6193
   80SLPC  C215 7427   2.778   2.961   4.842 -0.0964 -0.2396 -0.0523
   80SLPC  H15R 7428   2.735   3.059   4.872  0.8693  0.4384 -0.8191
   80SLPC  H15S 7429   2.698   2.885   4.858 -0.5199  0.2566  0.1944
   80SLPC  C216 7430   2.817   2.976   4.694 -0.1167  0.2467  0.1960
   80SLPC  H16R 7431   2.878   2.885   4.678  0.9998  0.9554  0.3154
   80SLPC  H16S 7432   2.895   3.053   4.676 -0.2451  0.1261 -0.9215
   80SLPC  C217 7433   2.699   2.988   4.598 -0.1773 -0.1601  0.2666
   80SLPC  H17R 7434   2.643   3.082   4.619 -1.5440 -1.2843  1.8747
   80SLPC  H17S 7435   2.640   2.896   4.617  0.6695 -0.3611  2.2011
   80SLPC  C218 7436   2.742   2.985   4.444  0.4679 -0.0228  0.0148
   80SLPC  H18R 7437   2.657   3.005   4.377  0.7852  1.1344 -0.0530
   80SLPC  H18S 7438   2.800   2.893   4.421  2.7833  1.6063 -1.0104
   80SLPC  H18T 7439   2.814   3.067   4.426  0.2652  0.6428  2.0156
   80SLPC   C33 7440   2.256   3.536   5.803 -0.0183 -0.1215 -0.8058
   80SLPC   H3X 7441   2.176   3.569   5.872  1.2982 -0.4099  0.9236
   80SLPC   H3Y 7442   2.256   3.427   5.780  0.0683 -0.3235  0.1234
   80SLPC   C34 7443   2.241   3.600   5.664 -1.1784  0.1641 -1.0069
   80SLPC   H4X 7444   2.264   3.708   5.663 -0.3946  0.0733  1.4648
   80SLPC   H4Y 7445   2.138   3.581   5.626 -0.6081  0.9569 -3.1040
   80SLPC   C35 7446   2.324   3.518   5.557  0.2958  0.1459 -0.7885
   80SLPC   H5X 7447   2.304   3.409   5.569  3.0983 -0.4178 -0.4624
   80SLPC   H5Y 7448   2.433   3.539   5.570  0.1730  0.3896 -0.1320
   80SLPC   C36 7449   2.285   3.551   5.415  0.2223  0.0544  0.1761
   80SLPC   H6X 7450   2.284   3.661   5.401 -0.3318 -0.3603 -4.6658
   80SLPC   H6Y 7451   2.186   3.503   5.405 -0.3378  0.7291  1.9827
   80SLPC   C37 7452   2.368   3.493   5.305 -0.3056  0.1208 -0.7108
   80SLPC   H7X 7453   2.353   3.383   5.319  2.4985 -0.4181 -1.1146
   80SLPC   H7Y 7454   2.474   3.509   5.336 -0.7155 -0.7294  1.2766
   80SLPC   C38 7455   2.344   3.545   5.165  0.0709 -0.4971 -0.3414
   80SLPC   H8X 7456   2.429   3.528   5.095  0.3128 -2.2992  0.3399
   80SLPC   H8Y 7457   2.321   3.654   5.160 -0.0949 -0.4896  0.4766
   80SLPC   C39 7458   2.226   3.465   5.111  0.6518  0.4426  0.0652
   80SLPC   H9X 7459   2.131   3.478   5.166  0.6424 -1.6565  0.6275
   80SLPC   H9Y 7460   2.264   3.361   5.124  1.3221  1.0185  3.3826
   80SLPC  C310 7461   2.202   3.500   4.967 -0.7917 -0.9941 -0.1522
   80SLPC  H10X 7462   2.301   3.490   4.918 -2.0008  0.0074 -3.0774
   80SLPC  H10Y 7463   2.164   3.603   4.951  0.6928 -0.5836 -1.1530
   80SLPC  C311 7464   2.107   3.408   4.888  0.2705 -0.2569 -0.6483
   80SLPC  H11X 7465   2.004   3.433   4.922  0.3685 -0.5666 -0.1017
   80SLPC  H11Y 7466   2.131   3.303   4.915 -2.9579 -0.7640  0.7966
   80SLPC  C312 7467   2.116   3.419   4.739  0.2422  0.1999 -0.6086
   80SLPC  H12X 7468   2.210   3.392   4.686  0.8828  1.3779 -0.1257
   80SLPC  H12Y 7469   2.098   3.528   4.729  0.0617  0.1816 -0.4856
   80SLPC  C313 7470   2.006   3.333   4.674 -0.9403 -0.1701  0.0705
   80SLPC  H13X 7471   1.911   3.326   4.731 -0.4501  1.2040  1.1347
   80SLPC  H13Y 7472   2.041   3.227   4.677  2.3295  0.8204  1.1231
   80SLPC  C314 7473   1.978   3.371   4.528  0.1529  0.7598  0.8463
   80SLPC  H14X 7474   2.055   3.364   4.448 -0.3052 -0.6193  0.5128
   80SLPC  H14Y 7475   1.940   3.476   4.532 -1.3137  0.3081 -0.4067
   80SLPC  C315 7476   1.863   3.290   4.475 -0.2753 -0.5061  0.4433
   80SLPC  H15X 7477   1.784   3.273   4.552  1.2119 -1.4837  1.8014
   80SLPC  H15Y 7478   1.898   3.187   4.452  0.1811 -0.5863  1.4397
   80SLPC  C316 7479   1.808   3.335   4.343  0.0941 -0.6983 -0.2959
   80SLPC  H16X 7480   1.746   3.256   4.295 -0.0658 -0.9130  0.2560
   80SLPC  H16Y 7481   1.894   3.352   4.276  0.0073  1.3204  0.0364
   80SLPC  C317 7482   1.732   3.472   4.338 -0.5752  0.0022  0.3496
   80SLPC  H17X 7483   1.713   3.486   4.229 -2.3768 -0.8356  0.5154
   80SLPC  H17Y 7484   1.801   3.548   4.379 -1.1242  1.1177 -0.6997
   80SLPC  C318 7485   1.609   3.487   4.421 -0.1613  0.0756  0.0959
   80SLPC  H18X 7486   1.624   3.456   4.526 -1.0409 -0.0356  0.1968
   80SLPC  H18Y 7487   1.533   3.415   4.386  0.5099 -0.1157 -1.0011
   80SLPC  H18Z 7488   1.562   3.588   4.420 -1.1192 -0.3168  1.8647
   81SLPC     N 7489   3.245   2.910   2.229  0.8453 -0.6696 -0.3070
   81SLPC   C13 7490   3.169   2.783   2.204  0.5422  0.2793 -0.2392
   81SLPC  H13A 7491   3.239   2.705   2.231  0.5117  0.1831 -0.4387
   81SLPC  H13B 7492   3.077   2.774   2.260  0.6163  0.4216 -0.0942
   81SLPC  H13C 7493   3.144   2.771   2.100 -0.1490  1.3595 -0.2160
   81SLPC   C14 7494   3.221   2.938   2.378 -0.0351 -1.1878 -0.6274
   81SLPC  H14A 7495   3.234   2.850   2.439 -0.8319 -2.7693 -2.6202
   81SLPC  H14B 7496   3.278   3.026   2.402  0.2391 -1.0959 -1.5819
   81SLPC  H14C 7497   3.117   2.968   2.386  0.0135 -1.1797  0.0246
   81SLPC   C15 7498   3.186   3.012   2.140  0.8066  0.2222  0.6550
   81SLPC  H15A 7499   3.232   3.107   2.164  3.4652 -1.1205  1.2653
   81SLPC  H15B 7500   3.205   2.983   2.037 -0.1440  0.6695  0.3393
   81SLPC  H15C 7501   3.080   3.027   2.147  0.8251  0.0322  1.3364
   81SLPC   C12 7502   3.399   2.893   2.211  0.1760 -0.1745  0.1304
   81SLPC  H12A 7503   3.440   2.991   2.229 -1.7682  0.7678 -0.2785
   81SLPC  H12B 7504   3.419   2.878   2.106 -1.6329 -1.6166 -0.0542
   81SLPC   C11 7505   3.482   2.796   2.295 -0.4266  0.3445 -0.5824
   81SLPC  H11A 7506   3.475   2.820   2.404 -0.5222  1.0148 -0.7301
   81SLPC  H11B 7507   3.588   2.814   2.270 -0.9520 -0.0188 -3.3338
   81SLPC     P 7508   3.560   2.550   2.276 -0.1433 -0.3758 -0.4223
   81SLPC   O13 7509   3.493   2.423   2.274 -0.4980 -0.0827 -0.8233
   81SLPC   O14 7510   3.661   2.560   2.173 -0.4639  0.8952 -0.3525
   81SLPC   O12 7511   3.448   2.659   2.272 -0.2600 -0.3192  0.3346
   81SLPC   O11 7512   3.631   2.576   2.414  0.3378 -0.1527 -0.2039
   81SLPC    C1 7513   3.743   2.499   2.455 -0.2549 -0.2470  0.2661
   81SLPC    HA 7514   3.803   2.464   2.368  0.0023  0.3837  0.1850
   81SLPC    HB 7515   3.807   2.562   2.519 -0.5659  0.4182 -0.0697
   81SLPC    C2 7516   3.693   2.378   2.540  0.1129 -0.0140  0.0847
   81SLPC    HS 7517   3.609   2.333   2.483 -0.0096  0.8867 -0.4714
   81SLPC   O21 7518   3.650   2.422   2.671  0.0432 -0.1495  0.8379
   81SLPC   C21 7519   3.576   2.333   2.737 -0.5013  0.5079  0.1681
   81SLPC   O22 7520   3.540   2.223   2.693  0.5479 -0.7399  0.3891
   81SLPC   C22 7521   3.576   2.373   2.880  0.2991 -0.5278  0.6197
   81SLPC   H2R 7522   3.675   2.413   2.912  0.2840 -0.4128  0.5244
   81SLPC   H2S 7523   3.501   2.455   2.880 -2.7817 -3.0872 -1.8859
   81SLPC    C3 7524   3.795   2.263   2.550  0.1320  0.1247  0.0633
   81SLPC    HX 7525   3.860   2.265   2.460  2.0767  1.2459  1.4137
   81SLPC    HY 7526   3.746   2.163   2.557  2.5356 -1.2142 -0.9821
   81SLPC   O31 7527   3.873   2.275   2.668  0.1420 -0.0905 -0.3348
   81SLPC   C31 7528   3.984   2.358   2.658  0.6811  0.2825  0.1777
   81SLPC   O32 7529   4.015   2.414   2.555 -0.4416 -0.3441 -0.3618
   81SLPC   C32 7530   4.066   2.359   2.781 -0.7507 -0.7041 -0.4005
   81SLPC   H2X 7531   4.092   2.257   2.815  0.9514 -0.1977 -0.1119
   81SLPC   H2Y 7532   4.006   2.420   2.852  0.3400 -1.6768  1.4373
   81SLPC   C23 7533   3.530   2.256   2.971 -0.1082 -0.2205  0.0773
   81SLPC   H3R 7534   3.601   2.176   2.944 -1.1111 -1.8435  2.0222
   81SLPC   H3S 7535   3.428   2.222   2.943 -0.2462  1.4694 -1.7771
   81SLPC   C24 7536   3.521   2.299   3.118  0.0300  0.1056  0.1645
   81SLPC   H4R 7537   3.448   2.384   3.116 -2.1048 -1.6530 -0.7369
   81SLPC   H4S 7538   3.617   2.343   3.153  0.2086 -1.0592  1.1930
   81SLPC   C25 7539   3.467   2.194   3.212  0.2730 -0.7367  0.5288
   81SLPC   H5R 7540   3.536   2.107   3.215 -2.1601 -2.7711  1.4283
   81SLPC   H5S 7541   3.368   2.159   3.176  0.4129  0.1578 -0.8092
   81SLPC   C26 7542   3.444   2.249   3.352 -0.3125 -0.9311  0.6127
   81SLPC   H6R 7543   3.382   2.341   3.351  2.2806  0.9309  0.6187
   81SLPC   H6S 7544   3.542   2.271   3.400  0.3151 -0.7376 -0.7129
   81SLPC   C27 7545   3.369   2.153   3.451  0.1963 -0.2229 -0.1997
   81SLPC   H7R 7546   3.442   2.080   3.491  0.4626  0.3199  0.3168
   81SLPC   H7S 7547   3.289   2.109   3.387 -0.0008  2.9844 -2.4454
   81SLPC   C28 7548   3.323   2.228   3.582  0.0024  0.1631 -0.0109
   81SLPC   H8R 7549   3.269   2.156   3.647  1.5479 -0.9232  0.1135
   81SLPC   H8S 7550   3.253   2.308   3.550  0.2926  0.6081  0.4430
   81SLPC   C29 7551   3.438   2.296   3.657  0.6133  0.8244 -0.1019
   81SLPC   H9R 7552   3.509   2.335   3.583  1.0642 -1.0558 -0.7296
   81SLPC  C210 7553   3.468   2.289   3.790  0.1012 -0.8855 -0.2715
   81SLPC  H10R 7554   3.555   2.343   3.832  0.8092 -1.6261 -0.7515
   81SLPC  C211 7555   3.384   2.240   3.905  0.7139  0.0964 -0.2812
   81SLPC  H11R 7556   3.450   2.230   3.994 -1.7132 -0.7042  1.5182
   81SLPC  H11S 7557   3.368   2.135   3.870 -3.4189  0.5754 -0.3172
   81SLPC  C212 7558   3.242   2.300   3.931  0.1773 -0.8452 -0.4178
   81SLPC  H12R 7559   3.154   2.238   3.907 -1.0139  0.7124 -0.2240
   81SLPC  C213 7560   3.216   2.419   3.987 -0.5424 -1.0388 -0.1311
   81SLPC  H13R 7561   3.113   2.452   4.003 -0.0099  0.3976  0.4970
   81SLPC  C214 7562   3.320   2.516   4.035  0.4229 -0.4329  0.1919
   81SLPC  H14R 7563   3.306   2.621   4.002  1.0985  0.5188  2.6731
   81SLPC  H14S 7564   3.421   2.485   3.999 -0.6119 -1.0381 -2.3871
   81SLPC  C215 7565   3.314   2.529   4.195  0.0256  0.4608 -0.2604
   81SLPC  H15R 7566   3.408   2.585   4.213  0.5422  0.2151 -2.0089
   81SLPC  H15S 7567   3.323   2.436   4.254 -1.0247 -0.0577 -0.8821
   81SLPC  C216 7568   3.194   2.608   4.246 -0.4940  0.5597 -0.0810
   81SLPC  H16R 7569   3.099   2.555   4.224 -0.7590  0.6374  0.8613
   81SLPC  H16S 7570   3.189   2.705   4.191 -2.3989  1.1719  1.0982
   81SLPC  C217 7571   3.219   2.643   4.392 -0.0775  0.0946 -0.5000
   81SLPC  H17R 7572   3.316   2.697   4.399  2.2249 -3.8246  0.4496
   81SLPC  H17S 7573   3.236   2.550   4.449  2.2350  1.0743  0.5708
   81SLPC  C218 7574   3.105   2.723   4.452 -0.6026  0.2730 -0.1985
   81SLPC  H18R 7575   3.136   2.756   4.554 -0.4636  0.7305 -0.3866
   81SLPC  H18S 7576   3.009   2.667   4.458  0.0410 -0.7582  0.8472
   81SLPC  H18T 7577   3.081   2.821   4.404 -0.0844  1.3830  1.6674
   81SLPC   C33 7578   4.207   2.421   2.773 -0.1271  0.2523  0.8145
   81SLPC   H3X 7579   4.191   2.519   2.723 -2.6289 -0.6844 -0.3953
   81SLPC   H3Y 7580   4.284   2.357   2.723  0.6612  2.2268 -0.6089
   81SLPC   C34 7581   4.266   2.454   2.912 -0.4671  0.3127 -0.4957
   81SLPC   H4X 7582   4.187   2.494   2.979  0.9038  2.3583 -0.0004
   81SLPC   H4Y 7583   4.346   2.530   2.898  0.3868 -0.7140 -1.3691
   81SLPC   C35 7584   4.332   2.326   2.981  0.1613 -0.3926  0.5535
   81SLPC   H5X 7585   4.408   2.366   3.052  0.0564 -1.7217  1.4379
   81SLPC   H5Y 7586   4.384   2.263   2.905 -0.1139 -1.0446  0.9043
   81SLPC   C36 7587   4.233   2.243   3.066  0.7713 -0.0410 -0.5834
   81SLPC   H6X 7588   4.171   2.195   2.988  1.8105 -0.8337 -0.9393
   81SLPC   H6Y 7589   4.173   2.306   3.135 -1.1510 -0.4817 -1.7809
   81SLPC   C37 7590   4.302   2.124   3.132 -0.0363  0.1510 -0.3750
   81SLPC   H7X 7591   4.368   2.077   3.056 -1.6031 -1.7010 -0.6847
   81SLPC   H7Y 7592   4.219   2.055   3.160  1.3933 -1.2961  0.4909
   81SLPC   C38 7593   4.374   2.179   3.259  0.4970 -0.8385 -0.3397
   81SLPC   H8X 7594   4.294   2.232   3.315 -2.1430 -2.5617 -2.2472
   81SLPC   H8Y 7595   4.455   2.252   3.238 -1.2315  1.8624  1.7310
   81SLPC   C39 7596   4.424   2.065   3.346  0.1416 -0.0597  0.0305
   81SLPC   H9X 7597   4.504   2.007   3.295  1.4258  1.7632 -0.1359
   81SLPC   H9Y 7598   4.342   1.998   3.378  1.4854 -1.4204  0.7766
   81SLPC  C310 7599   4.481   2.124   3.481 -0.3400  0.4757 -0.2998
   81SLPC  H10X 7600   4.553   2.208   3.472  0.8471 -0.6258 -1.5262
   81SLPC  H10Y 7601   4.539   2.045   3.533 -1.1284  0.7814  1.0911
   81SLPC  C311 7602   4.378   2.158   3.588  0.0713  0.4417  0.4513
   81SLPC  H11X 7603   4.329   2.070   3.635  1.8343 -1.1560 -0.5706
   81SLPC  H11Y 7604   4.290   2.213   3.549 -3.0214 -1.9202  3.4579
   81SLPC  C312 7605   4.425   2.235   3.714  0.4414  0.1021 -0.5453
   81SLPC  H12X 7606   4.340   2.266   3.779 -1.5615 -2.3555 -1.8466
   81SLPC  H12Y 7607   4.482   2.328   3.689  0.1847  0.8702  1.4727
   81SLPC  C313 7608   4.498   2.151   3.809 -0.0073 -0.7763 -1.0435
   81SLPC  H13X 7609   4.593   2.112   3.766  2.0965  1.8064  0.9763
   81SLPC  H13Y 7610   4.432   2.066   3.839 -1.6621  0.5556 -0.7893
   81SLPC  C314 7611   4.536   2.223   3.937 -0.1874 -0.0979  0.5079
   81SLPC  H14X 7612   4.611   2.303   3.920  0.8230 -1.2796 -1.0229
   81SLPC  H14Y 7613   4.585   2.153   4.008 -0.0564  1.0637  1.5867
   81SLPC  C315 7614   4.410   2.283   4.011 -0.5085 -0.4266 -0.0235
   81SLPC  H15X 7615   4.308   2.258   3.975 -1.5052  1.2175  1.4977
   81SLPC  H15Y 7616   4.414   2.389   3.976 -3.2576 -0.5178 -0.8401
   81SLPC  C316 7617   4.428   2.263   4.156 -0.0317  1.1315  0.1959
   81SLPC  H16X 7618   4.530   2.296   4.183  1.2393 -1.0970 -1.5592
   81SLPC  H16Y 7619   4.432   2.152   4.150 -1.9672  1.0547 -0.3473
   81SLPC  C317 7620   4.320   2.301   4.250 -0.0486  0.1263  0.0866
   81SLPC  H17X 7621   4.296   2.408   4.237  1.7328  0.8908  2.4612
   81SLPC  H17Y 7622   4.346   2.286   4.357  0.8255  0.5540 -0.0560
   81SLPC  C318 7623   4.192   2.221   4.223 -0.5397 -0.4157  0.3211
   81SLPC  H18X 7624   4.138   2.235   4.127 -1.6461 -1.8239  0.6989
   81SLPC  H18Y 7625   4.111   2.242   4.296 -2.9296 -3.6168 -1.1678
   81SLPC  H18Z 7626   4.221   2.114   4.224  2.6611  0.3479  0.3364
   82SLPC     N 7627   5.779   2.849   2.521  0.8653  0.9600  0.4461
   82SLPC   C13 7628   5.719   2.960   2.595 -0.1310  0.3441 -0.1297
   82SLPC  H13A 7629   5.778   3.050   2.603 -0.6417  0.6200  0.6758
   82SLPC  H13B 7630   5.623   2.981   2.550 -0.8044 -0.6478  0.7867
   82SLPC  H13C 7631   5.693   2.920   2.692  0.8182 -1.4241 -0.5580
   82SLPC   C14 7632   5.818   2.891   2.384  0.0686  0.4911  0.3753
   82SLPC  H14A 7633   5.868   2.811   2.332  1.1943  0.1467  1.8965
   82SLPC  H14B 7634   5.739   2.938   2.327  0.1025  1.7605  1.3223
   82SLPC  H14C 7635   5.902   2.959   2.390  1.4297 -0.9584 -1.0778
   82SLPC   C15 7636   5.672   2.739   2.516 -0.3588  0.4129  0.0389
   82SLPC  H15A 7637   5.642   2.703   2.613  0.9563 -0.9270 -0.0238
   82SLPC  H15B 7638   5.578   2.768   2.470 -0.3954 -1.1584 -0.9344
   82SLPC  H15C 7639   5.709   2.654   2.462 -1.0295  0.0306  0.1653
   82SLPC   C12 7640   5.911   2.796   2.593 -0.3552 -0.2999  0.0066
   82SLPC  H12A 7641   5.882   2.775   2.694 -1.8472 -1.7893 -0.6826
   82SLPC  H12B 7642   5.979   2.880   2.598 -2.3369  1.7689 -3.3727
   82SLPC   C11 7643   5.990   2.680   2.531 -0.4980 -1.0979 -0.2265
   82SLPC  H11A 7644   5.932   2.588   2.510 -1.8021 -0.2419 -0.4881
   82SLPC  H11B 7645   6.062   2.654   2.611 -0.9944  0.4846  0.7820
   82SLPC     P 7646   6.197   2.805   2.431  0.4064  0.6252  0.4435
   82SLPC   O13 7647   6.264   2.813   2.302 -0.7848  0.1063 -0.4022
   82SLPC   O14 7648   6.147   2.927   2.496  0.2139 -0.4286 -0.0910
   82SLPC   O12 7649   6.062   2.719   2.415 -0.4439  0.4289 -0.2034
   82SLPC   O11 7650   6.287   2.720   2.531  0.6127 -0.1903  0.6391
   82SLPC    C1 7651   6.414   2.769   2.578  0.0841 -0.0122  0.8563
   82SLPC    HA 7652   6.496   2.696   2.559  0.5299  1.0201 -1.6097
   82SLPC    HB 7653   6.444   2.857   2.516 -0.4824  0.5864  1.4186
   82SLPC    C2 7654   6.408   2.811   2.731 -1.0186  0.8594  0.1575
   82SLPC    HS 7655   6.516   2.812   2.757 -1.1312 -0.9158  0.8576
   82SLPC   O21 7656   6.338   2.727   2.820  0.0216 -0.2599  0.2501
   82SLPC   C21 7657   6.389   2.609   2.844 -0.3179 -0.0474  0.1719
   82SLPC   O22 7658   6.494   2.564   2.796 -0.2176  0.0693 -0.1114
   82SLPC   C22 7659   6.304   2.527   2.939 -0.2307 -0.1297  0.2316
   82SLPC   H2R 7660   6.248   2.458   2.873 -1.2379  1.5618 -0.7474
   82SLPC   H2S 7661   6.385   2.472   2.993  1.5824  0.9449 -1.2795
   82SLPC    C3 7662   6.349   2.959   2.749 -0.4059  0.6222 -0.0196
   82SLPC    HX 7663   6.238   2.961   2.758 -0.4773  0.9696 -0.8600
   82SLPC    HY 7664   6.377   3.012   2.656  0.6517 -0.7894 -0.5534
   82SLPC   O31 7665   6.408   3.027   2.861 -0.1629 -0.2440 -0.5952
   82SLPC   C31 7666   6.335   3.029   2.968 -0.0457  0.0854 -0.8443
   82SLPC   O32 7667   6.224   2.976   2.979 -0.2387 -0.0687 -0.0567
   82SLPC   C32 7668   6.413   3.089   3.087 -0.3109 -0.3648  0.3268
   82SLPC   H2X 7669   6.426   3.199   3.074 -2.2991 -0.2174 -0.7734
   82SLPC   H2Y 7670   6.515   3.045   3.075  0.2497  0.9664  0.0536
   82SLPC   C23 7671   6.213   2.611   3.030 -0.2737  0.2218 -0.1766
   82SLPC   H3R 7672   6.145   2.544   3.087  0.9859 -1.9519 -1.0868
   82SLPC   H3S 7673   6.143   2.675   2.973 -2.3334 -0.9337  0.9401
   82SLPC   C24 7674   6.286   2.697   3.131 -0.2150 -0.1296  0.3664
   82SLPC   H4R 7675   6.214   2.763   3.184  1.2411  2.8392 -1.1085
   82SLPC   H4S 7676   6.350   2.775   3.084 -3.1247  0.5672 -2.8010
   82SLPC   C25 7677   6.358   2.609   3.227 -0.4128 -0.8417 -0.7651
   82SLPC   H5R 7678   6.458   2.581   3.187 -0.0185 -1.2183  0.4113
   82SLPC   H5S 7679   6.290   2.525   3.251  0.0148 -1.3797 -1.3953
   82SLPC   C26 7680   6.380   2.681   3.356  0.6616 -0.3813  0.0396
   82SLPC   H6R 7681   6.286   2.712   3.408  2.4443  0.5430  2.9333
   82SLPC   H6S 7682   6.436   2.774   3.334 -0.3868  0.6082  1.3360
   82SLPC   C27 7683   6.463   2.590   3.443  0.2862 -0.1356 -0.3808
   82SLPC   H7R 7684   6.524   2.655   3.509 -1.0709  0.4718  0.3195
   82SLPC   H7S 7685   6.525   2.525   3.378 -1.2107 -1.9053 -0.1244
   82SLPC   C28 7686   6.376   2.518   3.538  0.0064  0.2163 -0.4195
   82SLPC   H8R 7687   6.304   2.468   3.471 -1.3960  3.1659 -1.2795
   82SLPC   H8S 7688   6.311   2.597   3.581 -0.4770  0.8081 -2.1547
   82SLPC   C29 7689   6.441   2.426   3.636 -0.1386 -0.5283 -0.1686
   82SLPC   H9R 7690   6.473   2.331   3.592  0.1776 -0.7205  0.4598
   82SLPC  C210 7691   6.454   2.445   3.774  0.1629  0.3706 -0.3484
   82SLPC  H10R 7692   6.513   2.368   3.825  0.2418  0.2125 -0.6758
   82SLPC  C211 7693   6.410   2.565   3.860 -0.1323 -0.3224  0.4270
   82SLPC  H11R 7694   6.387   2.655   3.799  0.4479  0.3628  1.2064
   82SLPC  H11S 7695   6.486   2.604   3.930 -0.7206 -0.8488  1.3788
   82SLPC  C212 7696   6.283   2.525   3.934  0.6910 -0.3916 -0.4630
   82SLPC  H12R 7697   6.183   2.556   3.900 -0.8736 -0.2093  3.7251
   82SLPC  C213 7698   6.277   2.475   4.063 -0.0589  0.3955  0.6557
   82SLPC  H13R 7699   6.177   2.453   4.103 -0.6577 -1.4762 -1.6163
   82SLPC  C214 7700   6.402   2.439   4.142  0.1193  0.8011  0.4665
   82SLPC  H14R 7701   6.460   2.529   4.170 -0.4672  2.2726 -2.6615
   82SLPC  H14S 7702   6.471   2.363   4.100  0.8621  0.3006  2.4370
   82SLPC  C215 7703   6.352   2.371   4.271  0.3105 -0.6031 -0.4352
   82SLPC  H15R 7704   6.277   2.290   4.255 -0.4117 -0.6347  2.4852
   82SLPC  H15S 7705   6.299   2.452   4.325  2.2146  1.3166 -1.3194
   82SLPC  C216 7706   6.468   2.322   4.365  0.1234  0.1355 -0.4072
   82SLPC  H16R 7707   6.448   2.363   4.467 -1.1400 -3.0225  0.7345
   82SLPC  H16S 7708   6.568   2.361   4.338  0.8093  0.6395  2.5173
   82SLPC  C217 7709   6.473   2.174   4.370 -0.2007  0.7137 -0.2141
   82SLPC  H17R 7710   6.485   2.145   4.263 -0.5343  1.3993 -0.4468
   82SLPC  H17S 7711   6.379   2.145   4.420 -0.4704 -2.3805 -2.2858
   82SLPC  C218 7712   6.586   2.105   4.450 -0.9673 -0.1477 -0.0641
   82SLPC  H18R 7713   6.579   1.994   4.448 -1.7885 -0.1022  0.0788
   82SLPC  H18S 7714   6.585   2.129   4.559 -2.0968 -3.6152  0.8337
   82SLPC  H18T 7715   6.688   2.134   4.417 -0.6638  1.1077  1.7919
   82SLPC   C33 7716   6.351   3.062   3.226  0.0851 -0.0532 -0.6757
   82SLPC   H3X 7717   6.306   2.962   3.239 -1.5206  0.5276 -1.5011
   82SLPC   H3Y 7718   6.261   3.126   3.236  0.2533  0.1173 -0.2429
   82SLPC   C34 7719   6.445   3.088   3.345  0.0672 -0.8091 -0.0647
   82SLPC   H4X 7720   6.485   3.191   3.340 -2.1928  0.3976  3.3404
   82SLPC   H4Y 7721   6.530   3.020   3.365  0.2238 -0.3810  0.7756
   82SLPC   C35 7722   6.374   3.078   3.479  0.2973  0.2912 -0.0713
   82SLPC   H5X 7723   6.313   2.985   3.489  1.8155 -0.8491 -1.0059
   82SLPC   H5Y 7724   6.299   3.160   3.473  0.0949  0.3599  2.4293
   82SLPC   C36 7725   6.467   3.092   3.605  0.3665  0.1164 -0.4360
   82SLPC   H6X 7726   6.510   3.194   3.606 -0.0114  0.2755 -0.3949
   82SLPC   H6Y 7727   6.551   3.019   3.603 -1.0436 -1.6189  0.4125
   82SLPC   C37 7728   6.383   3.069   3.732 -0.3966  0.0881  0.1729
   82SLPC   H7X 7729   6.320   2.979   3.724  0.7746 -0.7411  0.0129
   82SLPC   H7Y 7730   6.327   3.164   3.746 -0.3800  0.8405 -3.7402
   82SLPC   C38 7731   6.483   3.041   3.848 -0.0758 -0.1745 -0.9154
   82SLPC   H8X 7732   6.525   3.137   3.885 -0.9178 -0.7051  1.6348
   82SLPC   H8Y 7733   6.567   2.980   3.807  1.2308  1.5372 -0.8984
   82SLPC   C39 7734   6.416   2.969   3.966 -0.2135  0.4092 -0.1520
   82SLPC   H9X 7735   6.357   2.882   3.932 -3.0611  1.1524  2.4674
   82SLPC   H9Y 7736   6.344   3.045   4.005  0.5865 -0.3115  3.0661
   82SLPC  C310 7737   6.507   2.926   4.079  0.0722  0.5910 -0.3301
   82SLPC  H10X 7738   6.567   3.011   4.118  1.5645 -0.7940  0.5157
   82SLPC  H10Y 7739   6.579   2.848   4.045 -1.6823 -1.2788  0.0647
   82SLPC  C311 7740   6.410   2.849   4.179 -0.6416 -0.2072  1.0178
   82SLPC  H11X 7741   6.356   2.769   4.123 -1.6095 -0.0906  1.7575
   82SLPC  H11Y 7742   6.337   2.928   4.205 -0.8943 -0.1205  0.0789
   82SLPC  C312 7743   6.488   2.797   4.303 -0.4609  0.1282 -0.2569
   82SLPC  H12X 7744   6.548   2.883   4.341 -0.8867  0.8791 -1.2415
   82SLPC  H12Y 7745   6.562   2.716   4.284 -0.5480 -0.0248  0.0613
   82SLPC  C313 7746   6.382   2.746   4.405  0.4390  0.1727  0.0316
   82SLPC  H13X 7747   6.310   2.675   4.358  2.2780 -1.4353 -0.4904
   82SLPC  H13Y 7748   6.326   2.837   4.436  0.6656  0.5679 -0.6985
   82SLPC  C314 7749   6.427   2.676   4.528  0.0356 -0.7431 -1.1126
   82SLPC  H14X 7750   6.468   2.752   4.597 -2.6122  1.1444 -1.4768
   82SLPC  H14Y 7751   6.512   2.606   4.511 -0.2410 -2.2374  2.7671
   82SLPC  C315 7752   6.311   2.607   4.600  0.6155  0.1992 -0.2089
   82SLPC  H15X 7753   6.290   2.511   4.548 -0.6464  0.7720 -0.7947
   82SLPC  H15Y 7754   6.227   2.679   4.602  1.5491  1.3665 -1.0521
   82SLPC  C316 7755   6.337   2.582   4.750 -0.7372 -0.1047 -0.3676
   82SLPC  H16X 7756   6.247   2.558   4.811 -0.5868  2.4079  1.0113
   82SLPC  H16Y 7757   6.365   2.682   4.792 -2.8212 -0.0023  0.9484
   82SLPC  C317 7758   6.449   2.482   4.771 -0.3216 -0.0469  0.0291
   82SLPC  H17X 7759   6.534   2.534   4.722 -0.9272  2.3130  1.2932
   82SLPC  H17Y 7760   6.417   2.387   4.724 -3.4915  1.2794 -0.8182
   82SLPC  C318 7761   6.484   2.481   4.914  0.2900 -0.3657 -0.3710
   82SLPC  H18X 7762   6.486   2.582   4.959 -0.8184 -0.5123  0.0540
   82SLPC  H18Y 7763   6.582   2.432   4.930  1.0265  0.1782 -2.7733
   82SLPC  H18Z 7764   6.401   2.428   4.966 -0.8802  0.9718 -0.8148
   83SLPC     N 7765   0.562   1.819   2.199  1.2778 -0.2876 -0.2604
   83SLPC   C13 7766   0.433   1.868   2.263  0.1881  1.1492 -0.3959
   83SLPC  H13A 7767   0.355   1.796   2.282 -0.3878  1.2813 -2.0870
   83SLPC  H13B 7768   0.465   1.923   2.350  2.2937  2.1949 -1.7223
   83SLPC  H13C 7769   0.386   1.943   2.201  0.5963  0.6016 -1.4002
   83SLPC   C14 7770   0.533   1.772   2.059  0.1087  0.3545  0.0735
   83SLPC  H14A 7771   0.457   1.696   2.057 -0.2570  0.6843 -2.9077
   83SLPC  H14B 7772   0.492   1.851   1.998 -1.6594 -0.4103  0.2111
   83SLPC  H14C 7773   0.619   1.741   2.002  0.1161 -3.4831  1.8350
   83SLPC   C15 7774   0.606   1.709   2.285 -0.0250  0.1971 -0.1558
   83SLPC  H15A 7775   0.702   1.670   2.254 -0.8762 -0.3326 -2.2835
   83SLPC  H15B 7776   0.592   1.743   2.387 -1.2209  0.9191 -0.5454
   83SLPC  H15C 7777   0.541   1.624   2.271  1.1127 -0.5279 -1.3626
   83SLPC   C12 7778   0.664   1.931   2.201  0.1044  0.8508 -0.2046
   83SLPC  H12A 7779   0.629   2.011   2.136  0.1730  0.9348 -0.1385
   83SLPC  H12B 7780   0.751   1.893   2.151 -0.9881 -1.4590 -0.4534
   83SLPC   C11 7781   0.704   1.985   2.340 -0.2707 -0.2886 -0.2432
   83SLPC  H11A 7782   0.792   2.049   2.319  0.3033 -0.6328  1.0358
   83SLPC  H11B 7783   0.736   1.904   2.409 -2.1718 -0.6009  0.3146
   83SLPC     P 7784   0.560   2.188   2.331  0.1915 -0.0631  0.1901
   83SLPC   O13 7785   0.647   2.221   2.218  0.3007  0.2398 -0.4915
   83SLPC   O14 7786   0.415   2.201   2.305 -0.0778 -0.0141 -0.1592
   83SLPC   O12 7787   0.593   2.053   2.397 -0.1011  0.2844  0.2853
   83SLPC   O11 7788   0.596   2.293   2.439  0.0052 -0.2858 -0.0569
   83SLPC    C1 7789   0.537   2.292   2.571 -0.1686 -0.2802 -0.1336
   83SLPC    HA 7790   0.469   2.379   2.586  2.7427  2.3851 -1.2124
   83SLPC    HB 7791   0.469   2.206   2.587  0.1820 -0.1962  2.2006
   83SLPC    C2 7792   0.645   2.273   2.685 -1.1560 -0.0057  0.2483
   83SLPC    HS 7793   0.582   2.248   2.773 -0.7996 -0.6221  0.3310
   83SLPC   O21 7794   0.727   2.391   2.708 -0.0519  0.3400  0.4646
   83SLPC   C21 7795   0.669   2.501   2.752 -1.9160 -0.5445  0.1487
   83SLPC   O22 7796   0.550   2.514   2.778  0.3724 -0.0588  0.2257
   83SLPC   C22 7797   0.782   2.615   2.769 -0.1665 -0.6043 -0.4154
   83SLPC   H2R 7798   0.865   2.596   2.698  0.7970 -0.2583  0.5761
   83SLPC   H2S 7799   0.748   2.717   2.741  0.6333 -0.2746 -0.2109
   83SLPC    C3 7800   0.729   2.143   2.666 -0.2366  0.2655 -0.1602
   83SLPC    HX 7801   0.787   2.159   2.572 -0.3410 -0.3257 -0.3319
   83SLPC    HY 7802   0.655   2.066   2.636 -1.3406 -0.2471  3.4227
   83SLPC   O31 7803   0.803   2.095   2.776  0.3236  0.9034  1.0733
   83SLPC   C31 7804   0.934   2.118   2.777 -0.8168 -0.3347  0.1064
   83SLPC   O32 7805   0.997   2.194   2.706 -0.1096  0.6315 -0.3016
   83SLPC   C32 7806   0.983   2.049   2.906 -0.5533 -0.3993  0.4735
   83SLPC   H2X 7807   1.087   2.086   2.916 -0.4186  0.1264 -2.0924
   83SLPC   H2Y 7808   0.979   1.938   2.899 -1.9583 -0.5785  2.9805
   83SLPC   C23 7809   0.832   2.629   2.915 -0.5113 -0.5449  0.0562
   83SLPC   H3R 7810   0.935   2.671   2.912 -0.4137 -0.7851  0.0512
   83SLPC   H3S 7811   0.833   2.530   2.965 -1.3881  1.2793  4.1642
   83SLPC   C24 7812   0.741   2.720   3.002  0.2552  0.1847  0.7900
   83SLPC   H4R 7813   0.634   2.688   2.998  0.4222 -0.2685 -0.8129
   83SLPC   H4S 7814   0.749   2.820   2.955 -1.1328  0.4129  0.9911
   83SLPC   C25 7815   0.785   2.725   3.152  0.4984  0.3879  0.3043
   83SLPC   H5R 7816   0.720   2.803   3.198 -0.3233  0.2734 -0.6176
   83SLPC   H5S 7817   0.893   2.747   3.157  0.3920  0.7323  1.3713
   83SLPC   C26 7818   0.756   2.592   3.213 -0.0793  0.6414 -0.6152
   83SLPC   H6R 7819   0.821   2.510   3.175 -1.5067 -0.2405 -1.2302
   83SLPC   H6S 7820   0.655   2.562   3.179 -0.6653  2.9122 -1.0887
   83SLPC   C27 7821   0.754   2.579   3.364 -0.2876  0.0908 -0.1776
   83SLPC   H7R 7822   0.689   2.496   3.398 -0.7075  0.3893 -0.2471
   83SLPC   H7S 7823   0.716   2.674   3.408 -0.1225 -0.7231  1.8343
   83SLPC   C28 7824   0.891   2.562   3.432 -0.2574  0.2976  0.0223
   83SLPC   H8R 7825   0.863   2.571   3.539  1.9341 -0.6021  0.7221
   83SLPC   H8S 7826   0.960   2.643   3.402 -1.0012  0.5072 -1.1851
   83SLPC   C29 7827   0.960   2.428   3.411 -0.1121  0.4619  0.1888
   83SLPC   H9R 7828   1.025   2.413   3.323  0.8915 -1.2589  1.1787
   83SLPC  C210 7829   0.956   2.320   3.485 -0.1646  0.4375 -0.1854
   83SLPC  H10R 7830   1.015   2.233   3.456 -0.8248  0.5245 -1.9502
   83SLPC  C211 7831   0.887   2.304   3.617  0.0131 -0.3895  0.1294
   83SLPC  H11R 7832   0.777   2.293   3.606  0.0364 -1.2122  0.6488
   83SLPC  H11S 7833   0.906   2.398   3.673 -0.4735 -0.4365  0.3769
   83SLPC  C212 7834   0.935   2.190   3.706  1.0443 -0.0347 -0.6752
   83SLPC  H12R 7835   0.928   2.090   3.660  2.6724 -0.0665 -0.9091
   83SLPC  C213 7836   0.970   2.198   3.836  0.4769 -0.2664  0.4138
   83SLPC  H13R 7837   1.000   2.106   3.888  0.3124  1.2530  3.4431
   83SLPC  C214 7838   0.980   2.324   3.918  0.2823 -0.2626  0.6304
   83SLPC  H14R 7839   0.916   2.410   3.888  1.3762  0.2030 -0.4213
   83SLPC  H14S 7840   1.078   2.365   3.886 -1.2059  2.2587 -1.0661
   83SLPC  C215 7841   0.985   2.302   4.069  0.0086  0.2350  0.1529
   83SLPC  H15R 7842   1.002   2.398   4.124  2.8599  0.3534 -0.7800
   83SLPC  H15S 7843   1.077   2.243   4.091  0.2333  0.6401  0.3361
   83SLPC  C216 7844   0.862   2.220   4.119 -0.5854 -0.4255 -0.6076
   83SLPC  H16R 7845   0.883   2.193   4.225 -0.6417  1.9273  0.0514
   83SLPC  H16S 7846   0.860   2.125   4.062  0.7811  0.6175 -2.5137
   83SLPC  C217 7847   0.732   2.300   4.113 -0.1398  0.1531  0.3135
   83SLPC  H17R 7848   0.705   2.294   4.005 -0.9203  1.7526  0.3951
   83SLPC  H17S 7849   0.747   2.406   4.142 -0.8158  1.2459 -2.8889
   83SLPC  C218 7850   0.609   2.232   4.183 -0.0386 -0.2685 -0.3555
   83SLPC  H18R 7851   0.607   2.121   4.177 -1.5941 -0.1905 -2.9969
   83SLPC  H18S 7852   0.515   2.277   4.143 -0.8922 -2.1895 -0.6711
   83SLPC  H18T 7853   0.621   2.250   4.292 -0.8866 -0.3799 -0.2383
   83SLPC   C33 7854   0.901   2.076   3.028  0.4252 -0.3779  0.0794
   83SLPC   H3X 7855   0.804   2.022   3.027  1.7929 -3.0032 -0.6658
   83SLPC   H3Y 7856   0.883   2.184   3.046 -0.4519 -0.3395 -0.9343
   83SLPC   C34 7857   0.962   2.025   3.154 -0.3221  0.3550 -0.0019
   83SLPC   H4X 7858   0.977   1.915   3.147 -2.0628  0.1131 -0.4593
   83SLPC   H4Y 7859   0.894   2.052   3.238 -0.0666  0.5405  0.1466
   83SLPC   C35 7860   1.103   2.087   3.190 -0.5043  0.0019  0.6580
   83SLPC   H5X 7861   1.091   2.196   3.212  1.8333  0.6956 -1.1368
   83SLPC   H5Y 7862   1.180   2.099   3.111  1.7459  2.8403  3.0652
   83SLPC   C36 7863   1.176   2.004   3.302  0.1978 -0.0454 -0.4354
   83SLPC   H6X 7864   1.210   1.907   3.260  1.8434  0.7224 -0.9779
   83SLPC   H6Y 7865   1.097   1.982   3.377  0.7479 -0.4179  0.0435
   83SLPC   C37 7866   1.284   2.076   3.382  0.4936  0.8503 -0.2183
   83SLPC   H7X 7867   1.240   2.163   3.435 -0.6478 -0.0630  0.3826
   83SLPC   H7Y 7868   1.357   2.110   3.306  1.1728 -1.3771 -0.6418
   83SLPC   C38 7869   1.351   1.979   3.488 -0.4472  0.3147  0.2666
   83SLPC   H8X 7870   1.405   1.899   3.432  0.9222  0.9112  0.6804
   83SLPC   H8Y 7871   1.272   1.939   3.554 -0.7774 -1.0112 -0.8792
   83SLPC   C39 7872   1.475   2.031   3.567  0.3268 -0.3574  0.2609
   83SLPC   H9X 7873   1.447   2.121   3.626 -0.2751 -2.1885  2.9363
   83SLPC   H9Y 7874   1.546   2.068   3.490  0.1431 -0.4106  0.0659
   83SLPC  C310 7875   1.537   1.929   3.656 -0.4759 -0.2139  0.4054
   83SLPC  H10X 7876   1.611   1.877   3.591 -0.4295  1.9950 -1.4282
   83SLPC  H10Y 7877   1.461   1.860   3.699 -2.2924  1.5371  0.1375
   83SLPC  C311 7878   1.604   1.996   3.770  0.8006 -0.2806  0.5186
   83SLPC  H11X 7879   1.681   2.067   3.733  0.1152 -0.8086 -2.0550
   83SLPC  H11Y 7880   1.643   1.916   3.837  0.1385 -0.3431  0.8340
   83SLPC  C312 7881   1.511   2.068   3.869 -0.4539 -0.3476  0.4740
   83SLPC  H12X 7882   1.430   2.006   3.913 -1.9537  0.9433 -0.3246
   83SLPC  H12Y 7883   1.457   2.154   3.823  0.2711  0.4025  0.9937
   83SLPC  C313 7884   1.575   2.148   3.985 -0.6120 -0.5685  0.4668
   83SLPC  H13X 7885   1.651   2.223   3.953 -0.3758 -0.6146  0.9026
   83SLPC  H13Y 7886   1.626   2.071   4.047 -1.8038 -1.6325  0.1539
   83SLPC  C314 7887   1.466   2.196   4.078  0.1652 -0.3598  0.2438
   83SLPC  H14X 7888   1.419   2.098   4.097  0.6957 -0.1269  3.4380
   83SLPC  H14Y 7889   1.409   2.274   4.023  1.9465  1.1388  0.3941
   83SLPC  C315 7890   1.518   2.238   4.214 -0.4731 -0.0149 -0.5631
   83SLPC  H15X 7891   1.576   2.331   4.200 -1.2255  1.2819  3.6785
   83SLPC  H15Y 7892   1.592   2.163   4.251 -0.3113  1.1863  1.7072
   83SLPC  C316 7893   1.416   2.269   4.329  0.2719  0.1840  0.4896
   83SLPC  H16X 7894   1.329   2.325   4.288  0.4826  0.5835  0.5737
   83SLPC  H16Y 7895   1.451   2.317   4.423  0.1570 -2.6489  2.0723
   83SLPC  C317 7896   1.362   2.141   4.381  0.0951 -0.4518 -1.1952
   83SLPC  H17X 7897   1.436   2.067   4.418  0.6101  0.6054 -0.0305
   83SLPC  H17Y 7898   1.312   2.095   4.293 -1.3806 -1.0866 -0.0742
   83SLPC  C318 7899   1.258   2.158   4.502  0.0638 -0.5981  0.2062
   83SLPC  H18X 7900   1.314   2.193   4.591  2.1982 -1.4778 -0.7168
   83SLPC  H18Y 7901   1.202   2.063   4.514 -1.3834 -0.1390 -2.2364
   83SLPC  H18Z 7902   1.179   2.230   4.471  1.3188 -0.2018 -2.2729
   84SLPC     N 7903   4.588   6.778   1.794 -1.1378  0.2629 -0.1396
   84SLPC   C13 7904   4.528   6.901   1.738  0.7179 -0.2468  0.0492
   84SLPC  H13A 7905   4.598   6.982   1.750  0.6853 -0.2417  0.2204
   84SLPC  H13B 7906   4.516   6.877   1.634 -1.7106 -2.0132  0.6187
   84SLPC  H13C 7907   4.445   6.940   1.795  2.7736  0.9817  2.3674
   84SLPC   C14 7908   4.620   6.794   1.939  0.9119  0.0441 -0.1782
   84SLPC  H14A 7909   4.525   6.780   1.988  0.6254  1.0011 -0.4369
   84SLPC  H14B 7910   4.694   6.727   1.982  0.6818 -0.2478 -0.2395
   84SLPC  H14C 7911   4.651   6.897   1.951  2.3859 -0.4384  0.4390
   84SLPC   C15 7912   4.720   6.755   1.721  0.3394 -0.6487 -0.4723
   84SLPC  H15A 7913   4.778   6.844   1.744  0.3330 -0.4422 -1.2424
   84SLPC  H15B 7914   4.774   6.665   1.748  3.0741  0.7383 -0.9178
   84SLPC  H15C 7915   4.704   6.759   1.615  1.2669  1.6318 -0.5928
   84SLPC   C12 7916   4.497   6.659   1.778  0.4790 -0.1917  0.3861
   84SLPC  H12A 7917   4.546   6.573   1.821 -0.7109 -0.5738  1.0073
   84SLPC  H12B 7918   4.468   6.649   1.674 -0.7915  2.5727  0.4135
   84SLPC   C11 7919   4.361   6.670   1.840 -0.0537  0.3518  0.5746
   84SLPC  H11A 7920   4.298   6.589   1.798  0.0579  0.1893  0.7155
   84SLPC  H11B 7921   4.311   6.764   1.812 -1.2701 -0.7272 -1.0536
   84SLPC     P 7922   4.394   6.510   2.044 -0.3574  0.1400  0.1453
   84SLPC   O13 7923   4.266   6.429   2.041  0.4059 -0.5450 -0.0763
   84SLPC   O14 7924   4.520   6.450   1.995 -0.5468  0.0677  0.0091
   84SLPC   O12 7925   4.370   6.653   1.984  0.0384 -0.1111  0.1170
   84SLPC   O11 7926   4.419   6.540   2.198 -1.0114 -0.1616 -0.5980
   84SLPC    C1 7927   4.351   6.645   2.267  0.0813  0.3687 -0.6171
   84SLPC    HA 7928   4.416   6.735   2.275  1.0475 -0.2239 -1.4650
   84SLPC    HB 7929   4.254   6.664   2.218 -1.6628 -1.4883  1.8858
   84SLPC    C2 7930   4.332   6.589   2.410  0.8766  0.3527 -0.7317
   84SLPC    HS 7931   4.424   6.593   2.472 -0.6831  1.2227  1.6440
   84SLPC   O21 7932   4.278   6.456   2.410  0.2605  0.1491  0.3897
   84SLPC   C21 7933   4.359   6.347   2.409 -0.3755  0.4332 -0.1363
   84SLPC   O22 7934   4.480   6.350   2.421  0.2087  0.4449 -0.1616
   84SLPC   C22 7935   4.264   6.223   2.375  0.0470  0.3975  0.0246
   84SLPC   H2R 7936   4.160   6.260   2.364  0.4421  2.4425  2.3429
   84SLPC   H2S 7937   4.304   6.187   2.278  2.3128  0.9321  0.6967
   84SLPC    C3 7938   4.243   6.685   2.495 -0.0012 -0.3670  0.1373
   84SLPC    HX 7939   4.157   6.714   2.432 -0.4625 -0.4980  0.6926
   84SLPC    HY 7940   4.304   6.773   2.525 -0.3281 -0.0018 -0.2642
   84SLPC   O31 7941   4.188   6.612   2.611 -0.6260 -0.3637  0.3708
   84SLPC   C31 7942   4.277   6.597   2.711 -0.7909 -0.5721  0.5005
   84SLPC   O32 7943   4.389   6.648   2.714 -0.1709  0.1145  0.4644
   84SLPC   C32 7944   4.221   6.526   2.825 -0.1365  0.4738  0.5532
   84SLPC   H2X 7945   4.283   6.533   2.917  1.9316 -0.6353 -0.6682
   84SLPC   H2Y 7946   4.221   6.418   2.799  0.2793  0.7508 -0.6857
   84SLPC   C23 7947   4.271   6.111   2.478  0.6120 -0.6616 -1.0999
   84SLPC   H3R 7948   4.379   6.085   2.490  0.5031 -0.1254  1.6373
   84SLPC   H3S 7949   4.226   6.015   2.447 -0.2464 -0.2481 -1.1463
   84SLPC   C24 7950   4.225   6.146   2.626  0.3380  0.6093  0.9272
   84SLPC   H4R 7951   4.136   6.213   2.620 -0.3549 -0.0632  2.8726
   84SLPC   H4S 7952   4.314   6.196   2.669  1.1111  1.3100 -1.3555
   84SLPC   C25 7953   4.185   6.015   2.696  0.0030  0.4734 -0.0932
   84SLPC   H5R 7954   4.278   5.954   2.690 -0.5082 -0.1673 -2.5906
   84SLPC   H5S 7955   4.112   5.953   2.640  0.8790 -0.4378 -0.2695
   84SLPC   C26 7956   4.136   6.040   2.839  0.1956 -0.1127  0.3694
   84SLPC   H6R 7957   4.206   6.109   2.892  2.1626 -1.6778 -0.0562
   84SLPC   H6S 7958   4.141   5.949   2.902  3.4313 -0.8518 -0.7401
   84SLPC   C27 7959   3.992   6.095   2.847  0.2724 -0.6113 -0.0602
   84SLPC   H7R 7960   3.932   6.025   2.784 -1.4533  2.2211 -1.8231
   84SLPC   H7S 7961   3.964   6.195   2.809 -1.4753 -1.2880 -0.6793
   84SLPC   C28 7962   3.934   6.095   2.983  0.2456  0.2609 -0.5034
   84SLPC   H8R 7963   3.928   5.989   3.017  1.5910 -0.4623 -2.3211
   84SLPC   H8S 7964   3.829   6.132   2.985 -0.1220 -0.7868  0.8025
   84SLPC   C29 7965   3.994   6.191   3.084  0.0656  0.9587  0.0034
   84SLPC   H9R 7966   3.993   6.298   3.058  1.0846  1.1917  0.8168
   84SLPC  C210 7967   4.079   6.152   3.183  0.6948 -0.0659  0.4597
   84SLPC  H10R 7968   4.110   6.229   3.256 -0.6490  0.4776  0.4821
   84SLPC  C211 7969   4.126   6.011   3.213  0.0513 -0.4431  0.5350
   84SLPC  H11R 7970   4.152   5.958   3.119  3.4186 -1.7813  2.0794
   84SLPC  H11S 7971   4.048   5.940   3.248 -0.2969 -0.3992 -0.1465
   84SLPC  C212 7972   4.245   5.987   3.307 -0.0660 -0.7077 -0.4764
   84SLPC  H12R 7973   4.348   5.992   3.267  0.3180 -0.0164  0.5598
   84SLPC  C213 7974   4.233   5.974   3.437  0.1503  0.1911  0.3136
   84SLPC  H13R 7975   4.323   5.963   3.500 -0.1657  0.7539  0.8777
   84SLPC  C214 7976   4.103   5.965   3.508  0.4796  0.4951 -0.6022
   84SLPC  H14R 7977   4.072   5.858   3.508  0.7318  0.4234 -0.9679
   84SLPC  H14S 7978   4.032   6.026   3.448 -0.5869 -0.5493 -0.4416
   84SLPC  C215 7979   4.111   6.045   3.636 -0.6544 -0.4125 -0.9129
   84SLPC  H15R 7980   4.012   6.059   3.684  0.3117 -0.1772  1.1059
   84SLPC  H15S 7981   4.150   6.145   3.606  0.0806  0.0137  1.2621
   84SLPC  C216 7982   4.210   6.000   3.745 -0.2692 -0.3171 -0.7888
   84SLPC  H16R 7983   4.311   5.972   3.706  1.3670  0.6991  2.4080
   84SLPC  H16S 7984   4.173   5.900   3.777  2.3827 -1.5650 -1.3207
   84SLPC  C217 7985   4.241   6.091   3.866  0.6247  0.3744  0.3994
   84SLPC  H17R 7986   4.253   6.190   3.817  0.9788  0.6094  0.9517
   84SLPC  H17S 7987   4.336   6.056   3.912  0.7234 -1.9540 -1.3603
   84SLPC  C218 7988   4.131   6.114   3.970  0.2071 -0.6364  0.0774
   84SLPC  H18R 7989   4.030   6.121   3.925  0.4573 -1.0867 -0.5644
   84SLPC  H18S 7990   4.157   6.203   4.031  2.9550 -1.0453 -0.3658
   84SLPC  H18T 7991   4.131   6.033   4.046 -0.6982  0.9943  1.9135
   84SLPC   C33 7992   4.076   6.560   2.861  0.3384 -0.7015 -0.2536
   84SLPC   H3X 7993   4.049   6.484   2.937  0.5490 -1.1981 -0.6656
   84SLPC   H3Y 7994   4.018   6.547   2.767  0.5769 -0.6294 -0.4101
   84SLPC   C34 7995   4.057   6.698   2.925  0.7218  0.0536  0.8052
   84SLPC   H4X 7996   3.959   6.734   2.962  0.8438 -0.4105  1.5966
   84SLPC   H4Y 7997   4.088   6.778   2.854  2.3644  0.8677  2.3589
   84SLPC   C35 7998   4.138   6.728   3.054  0.3036 -0.0170 -0.8147
   84SLPC   H5X 7999   4.118   6.835   3.073  3.2088  0.6460 -1.0521
   84SLPC   H5Y 8000   4.246   6.724   3.028  0.1467 -1.1632 -1.3829
   84SLPC   C36 8001   4.099   6.641   3.178  0.6599 -0.2366 -0.1031
   84SLPC   H6X 8002   4.125   6.534   3.160  2.3744  0.1562 -0.1552
   84SLPC   H6Y 8003   3.990   6.645   3.200  0.7316 -2.8171  1.1107
   84SLPC   C37 8004   4.174   6.672   3.306 -0.9806  0.9706 -0.2597
   84SLPC   H7X 8005   4.283   6.671   3.286 -1.0302  0.2096 -0.4917
   84SLPC   H7Y 8006   4.154   6.584   3.370  1.2369  1.5365  1.3407
   84SLPC   C38 8007   4.144   6.814   3.359 -0.5664 -0.7167 -0.5932
   84SLPC   H8X 8008   4.042   6.853   3.340 -0.1452  0.0751 -1.2894
   84SLPC   H8Y 8009   4.204   6.892   3.306  1.2813  1.0428  3.6506
   84SLPC   C39 8010   4.180   6.832   3.500 -0.2738 -0.6552  0.4843
   84SLPC   H9X 8011   4.291   6.831   3.511 -0.1071 -1.6775 -1.0405
   84SLPC   H9Y 8012   4.123   6.754   3.555 -1.2210 -0.9963 -0.9474
   84SLPC  C310 8013   4.145   6.977   3.548  0.3939  0.0487 -0.2688
   84SLPC  H10X 8014   4.040   7.000   3.518  0.3241 -0.3277 -0.3179
   84SLPC  H10Y 8015   4.214   7.035   3.484 -0.8235  0.5312 -1.1986
   84SLPC  C311 8016   4.164   7.000   3.693  0.1527  0.6989 -0.3338
   84SLPC  H11X 8017   4.144   7.109   3.704 -2.2044  0.3222 -0.3420
   84SLPC  H11Y 8018   4.272   6.981   3.708 -0.2894 -0.6450  1.3276
   84SLPC  C312 8019   4.081   6.933   3.810 -0.0883 -0.0354 -0.3956
   84SLPC  H12X 8020   4.107   6.825   3.816 -1.2908 -0.3002  0.6622
   84SLPC  H12Y 8021   3.974   6.942   3.780 -0.3582 -1.7128 -0.0597
   84SLPC  C313 8022   4.108   6.982   3.959  0.1730 -0.0944  0.1565
   84SLPC  H13X 8023   4.041   6.923   4.025  1.2270 -0.0551  1.3007
   84SLPC  H13Y 8024   4.095   7.092   3.969  0.7245 -0.0222  0.1178
   84SLPC  C314 8025   4.254   6.967   3.996  0.0295  0.4844 -0.5091
   84SLPC  H14X 8026   4.324   7.005   3.919  1.3773 -0.3070  0.2718
   84SLPC  H14Y 8027   4.273   6.857   3.992  0.9260  0.4964  1.7331
   84SLPC  C315 8028   4.299   7.021   4.127  0.7118 -0.0637 -0.4910
   84SLPC  H15X 8029   4.231   6.987   4.208 -0.7704 -0.6152 -1.8865
   84SLPC  H15Y 8030   4.282   7.131   4.117 -1.5495 -0.4269 -1.3179
   84SLPC  C316 8031   4.444   6.979   4.145  1.1789  0.0051 -0.7256
   84SLPC  H16X 8032   4.502   7.011   4.056  0.6013 -2.0021 -1.8923
   84SLPC  H16Y 8033   4.428   6.870   4.162  1.7288 -0.0005 -0.2154
   84SLPC  C317 8034   4.504   7.048   4.267 -0.3655 -0.0563 -0.1354
   84SLPC  H17X 8035   4.490   7.156   4.244 -2.2016 -0.2919 -0.2437
   84SLPC  H17Y 8036   4.613   7.030   4.263 -0.4188 -0.0619 -2.7787
   84SLPC  C318 8037   4.446   7.027   4.405 -0.0626  0.0180  0.3956
   84SLPC  H18X 8038   4.335   7.038   4.403 -0.0969 -0.3600  0.3222
   84SLPC  H18Y 8039   4.476   7.097   4.486 -3.2165 -2.5259  4.1300
   84SLPC  H18Z 8040   4.457   6.924   4.445 -1.6206 -0.6412 -0.7433
   85SLPC     N 8041   0.683   3.231   2.353  0.3385  0.4197 -0.1351
   85SLPC   C13 8042   0.645   3.376   2.357 -0.7458  0.3680  0.8879
   85SLPC  H13A 8043   0.590   3.392   2.448 -0.1883 -1.4260  1.5764
   85SLPC  H13B 8044   0.724   3.448   2.347 -0.2770 -0.3604 -1.4085
   85SLPC  H13C 8045   0.591   3.413   2.270 -0.2017  1.4853  1.0074
   85SLPC   C14 8046   0.798   3.210   2.445  0.5186 -0.1749  0.3957
   85SLPC  H14A 8047   0.788   3.261   2.540  3.2227  0.1552  0.5801
   85SLPC  H14B 8048   0.825   3.107   2.461 -1.3852 -1.0551 -1.4484
   85SLPC  H14C 8049   0.888   3.255   2.406  0.7914 -1.3229 -0.3709
   85SLPC   C15 8050   0.715   3.197   2.212  0.6210 -0.1309 -0.2075
   85SLPC  H15A 8051   0.786   3.258   2.158  0.8374 -0.1150  0.0904
   85SLPC  H15B 8052   0.742   3.093   2.206 -2.4454 -1.0451  0.0899
   85SLPC  H15C 8053   0.619   3.206   2.162 -0.4782 -0.6977  1.6895
   85SLPC   C12 8054   0.571   3.141   2.394 -0.2016  0.1467  0.0785
   85SLPC  H12A 8055   0.617   3.044   2.400 -1.1803 -0.4106 -0.9769
   85SLPC  H12B 8056   0.503   3.148   2.310  0.1948 -1.9569 -0.4665
   85SLPC   C11 8057   0.497   3.164   2.531  0.4070  0.0721 -0.5262
   85SLPC  H11A 8058   0.572   3.178   2.611 -0.4996 -0.0849  0.3712
   85SLPC  H11B 8059   0.441   3.076   2.568 -0.6118  2.3084  3.8701
   85SLPC     P 8060   0.296   3.308   2.440 -0.1397 -0.0253 -0.4398
   85SLPC   O13 8061   0.261   3.450   2.431  0.1166 -0.2219 -0.5051
   85SLPC   O14 8062   0.301   3.249   2.306 -0.2157 -0.3361  0.2222
   85SLPC   O12 8063   0.426   3.290   2.525  0.1431  0.3780 -0.0601
   85SLPC   O11 8064   0.184   3.245   2.534 -0.6686  0.3184  0.1951
   85SLPC    C1 8065   0.131   3.326   2.637 -0.0358 -0.8520  0.7465
   85SLPC    HA 8066   0.098   3.427   2.607 -2.4408 -0.8659  2.9624
   85SLPC    HB 8067   0.037   3.285   2.681 -1.8121  1.8280 -0.3315
   85SLPC    C2 8068   0.224   3.343   2.760  0.0067  0.2297 -0.0602
   85SLPC    HS 8069   0.314   3.398   2.726  0.6959 -0.9895 -0.2566
   85SLPC   O21 8070   0.262   3.210   2.790  0.7500 -0.5856  0.2138
   85SLPC   C21 8071   0.376   3.193   2.863 -0.2433 -0.7428  0.7840
   85SLPC   O22 8072   0.442   3.287   2.900 -0.1541 -0.3489 -0.1577
   85SLPC   C22 8073   0.401   3.045   2.883 -0.2488  0.9621 -0.1932
   85SLPC   H2R 8074   0.342   3.014   2.972  1.5045 -2.3344 -0.0447
   85SLPC   H2S 8075   0.374   2.983   2.795  1.5553 -0.9138  0.5037
   85SLPC    C3 8076   0.159   3.422   2.875  0.2890 -0.2163  0.4903
   85SLPC    HX 8077   0.052   3.392   2.881  0.2599 -0.9350 -2.1461
   85SLPC    HY 8078   0.168   3.528   2.842  0.5601  0.3513  2.3038
   85SLPC   O31 8079   0.213   3.397   3.007 -0.0067  0.1780  0.4734
   85SLPC   C31 8080   0.243   3.506   3.078 -1.1109  0.3351 -0.9213
   85SLPC   O32 8081   0.237   3.618   3.036  0.0046 -0.3632  0.1859
   85SLPC   C32 8082   0.282   3.470   3.213 -0.2000  0.1314  0.1052
   85SLPC   H2X 8083   0.266   3.361   3.230 -1.6327  0.5348  1.6405
   85SLPC   H2Y 8084   0.217   3.524   3.285 -1.0793  0.8060 -1.1657
   85SLPC   C23 8085   0.548   3.016   2.925 -0.3534  0.1838  0.3145
   85SLPC   H3R 8086   0.616   3.070   2.854  1.9099  0.7354  2.7421
   85SLPC   H3S 8087   0.568   2.908   2.905 -1.3449  0.3613 -1.9108
   85SLPC   C24 8088   0.575   3.056   3.073  0.4782 -0.9029  0.8469
   85SLPC   H4R 8089   0.557   3.164   3.091 -2.3044 -1.2168  0.4098
   85SLPC   H4S 8090   0.681   3.040   3.102  0.3633 -1.6592  0.8713
   85SLPC   C25 8091   0.493   2.982   3.178  0.5502 -0.4123  0.8007
   85SLPC   H5R 8092   0.393   3.032   3.178  1.3106  1.1992  1.6157
   85SLPC   H5S 8093   0.483   2.875   3.152  0.0361  0.0329 -0.9955
   85SLPC   C26 8094   0.550   2.996   3.321  0.3836 -0.0425  0.4312
   85SLPC   H6R 8095   0.531   3.099   3.356  2.1930  0.5138 -0.1290
   85SLPC   H6S 8096   0.658   2.969   3.323  0.5381  0.1830 -1.9283
   85SLPC   C27 8097   0.480   2.895   3.415 -0.2999  0.6770 -0.4258
   85SLPC   H7R 8098   0.513   2.792   3.388 -2.2550 -0.0266 -0.3210
   85SLPC   H7S 8099   0.371   2.904   3.398 -0.6793  1.2522  1.8867
   85SLPC   C28 8100   0.498   2.937   3.564  0.2629 -0.8911  0.4800
   85SLPC   H8R 8101   0.447   2.871   3.637 -1.4997 -1.2531 -1.0062
   85SLPC   H8S 8102   0.443   3.032   3.578  0.2049 -0.8823  0.2091
   85SLPC   C29 8103   0.643   2.948   3.609  0.3078 -0.6089  0.0634
   85SLPC   H9R 8104   0.686   3.047   3.585 -1.3067  0.4443  1.3362
   85SLPC  C210 8105   0.720   2.863   3.679 -0.0179  1.2087  0.6087
   85SLPC  H10R 8106   0.824   2.890   3.703 -0.1031  4.2899 -1.9640
   85SLPC  C211 8107   0.672   2.723   3.727 -0.3021  0.6726 -0.2526
   85SLPC  H11R 8108   0.687   2.664   3.634 -0.0732  0.1898  0.0911
   85SLPC  H11S 8109   0.561   2.728   3.736 -0.3230  0.8842 -0.6107
   85SLPC  C212 8110   0.745   2.661   3.845 -0.0092  0.4677 -0.6842
   85SLPC  H12R 8111   0.855   2.669   3.843  0.0407 -0.0547 -0.2828
   85SLPC  C213 8112   0.686   2.600   3.950  0.5880 -0.7240 -0.6085
   85SLPC  H13R 8113   0.741   2.565   4.039 -2.1483 -0.2065  1.3722
   85SLPC  C214 8114   0.539   2.574   3.961 -0.2909  0.0831 -0.0632
   85SLPC  H14R 8115   0.515   2.473   4.000 -0.8121  0.3714  0.3785
   85SLPC  H14S 8116   0.495   2.567   3.859 -0.4243  0.3622 -0.0244
   85SLPC  C215 8117   0.456   2.683   4.027 -0.2285  0.4945  1.0324
   85SLPC  H15R 8118   0.346   2.670   4.022 -0.0867 -0.3048 -1.1091
   85SLPC  H15S 8119   0.470   2.780   3.974  0.0986 -1.3654 -2.6441
   85SLPC  C216 8120   0.487   2.685   4.176  0.5098 -0.8022 -0.4678
   85SLPC  H16R 8121   0.586   2.729   4.202  0.1992  0.4401 -1.3201
   85SLPC  H16S 8122   0.507   2.580   4.205  3.4982  0.4343  2.7301
   85SLPC  C217 8123   0.372   2.754   4.265 -0.1531  0.0924 -0.3694
   85SLPC  H17R 8124   0.274   2.737   4.217  0.5100  0.6581 -2.0008
   85SLPC  H17S 8125   0.394   2.863   4.258 -1.2939  0.2696 -1.5889
   85SLPC  C218 8126   0.382   2.710   4.409 -0.0815 -0.5803 -0.5362
   85SLPC  H18R 8127   0.475   2.759   4.447 -1.3047  4.1654 -2.9068
   85SLPC  H18S 8128   0.358   2.602   4.417  0.0892 -0.5844 -0.0530
   85SLPC  H18T 8129   0.300   2.759   4.466 -1.2527 -1.9029 -1.0590
   85SLPC   C33 8130   0.428   3.499   3.250  0.6837  0.6061 -0.4287
   85SLPC   H3X 8131   0.457   3.604   3.227 -0.7263  0.6622 -2.1418
   85SLPC   H3Y 8132   0.492   3.437   3.184  0.4667 -0.8347  0.6834
   85SLPC   C34 8133   0.459   3.454   3.391  0.7401  0.0271 -0.6019
   85SLPC   H4X 8134   0.423   3.348   3.388  0.4903  0.1167 -0.8490
   85SLPC   H4Y 8135   0.395   3.519   3.455 -0.7865  0.7314 -2.7187
   85SLPC   C35 8136   0.596   3.477   3.440 -0.4287  0.2384  0.3583
   85SLPC   H5X 8137   0.611   3.585   3.418  1.6623 -0.1329 -0.1945
   85SLPC   H5Y 8138   0.674   3.413   3.394  0.1098 -0.2907  1.9499
   85SLPC   C36 8139   0.603   3.461   3.597  0.6301  0.2035  0.0435
   85SLPC   H6X 8140   0.547   3.372   3.631 -0.2567  0.0175 -1.7616
   85SLPC   H6Y 8141   0.555   3.553   3.638 -2.8590 -0.4549 -2.1370
   85SLPC   C37 8142   0.746   3.450   3.638  0.0833  0.1479 -0.1961
   85SLPC   H7X 8143   0.804   3.544   3.628 -0.2642  0.4388  0.4325
   85SLPC   H7Y 8144   0.790   3.381   3.563  0.4374 -0.0457  0.1873
   85SLPC   C38 8145   0.769   3.397   3.779  0.0824  0.0151  1.5519
   85SLPC   H8X 8146   0.734   3.291   3.783 -1.0472  0.1756 -1.4453
   85SLPC   H8Y 8147   0.711   3.461   3.849  3.1475  1.0141  3.3151
   85SLPC   C39 8148   0.904   3.412   3.832  0.1320 -0.5795  0.2700
   85SLPC   H9X 8149   0.928   3.519   3.848 -0.0350 -0.7797  1.9757
   85SLPC   H9Y 8150   0.983   3.382   3.760 -1.0455 -0.0066 -1.3173
   85SLPC  C310 8151   0.898   3.350   3.973 -0.2866  0.2142  0.4715
   85SLPC  H10X 8152   0.864   3.244   3.966 -3.9382  1.1810  1.2355
   85SLPC  H10Y 8153   0.829   3.400   4.044 -1.5315 -0.1465 -0.4466
   85SLPC  C311 8154   1.035   3.355   4.047 -1.1000  0.2390  0.2498
   85SLPC  H11X 8155   1.112   3.316   3.977 -0.9337  0.2156  0.4440
   85SLPC  H11Y 8156   1.020   3.293   4.138  1.8317  2.1327  2.2229
   85SLPC  C312 8157   1.076   3.496   4.085 -0.0761  0.5021  0.4416
   85SLPC  H12X 8158   0.992   3.545   4.139 -1.1610  0.5766 -1.2193
   85SLPC  H12Y 8159   1.112   3.541   3.990  1.0034  0.1112  0.6523
   85SLPC  C313 8160   1.196   3.520   4.180 -0.1228  0.7188  0.5439
   85SLPC  H13X 8161   1.283   3.453   4.162 -0.3945  0.5521 -0.1658
   85SLPC  H13Y 8162   1.149   3.493   4.277  0.9760  1.0015  1.1715
   85SLPC  C314 8163   1.247   3.665   4.184 -0.5506 -0.0925  0.3745
   85SLPC  H14X 8164   1.198   3.730   4.109  0.2121  2.4149  1.9057
   85SLPC  H14Y 8165   1.352   3.666   4.146 -0.5117  0.3217  0.4813
   85SLPC  C315 8166   1.258   3.723   4.327  1.1729  0.7188  0.2888
   85SLPC  H15X 8167   1.307   3.648   4.393  2.0758  2.3185  1.5077
   85SLPC  H15Y 8168   1.157   3.742   4.370  0.2779 -1.3801 -0.7101
   85SLPC  C316 8169   1.338   3.854   4.327  0.4839  0.3113 -0.0278
   85SLPC  H16X 8170   1.313   3.931   4.252 -1.1798  1.9626  2.1110
   85SLPC  H16Y 8171   1.445   3.841   4.300  0.1384  1.9798 -2.4799
   85SLPC  C317 8172   1.341   3.916   4.473  0.3405 -0.0640  0.6291
   85SLPC  H17X 8173   1.382   3.832   4.533  0.2261  0.8288  2.0036
   85SLPC  H17Y 8174   1.247   3.950   4.520 -0.6220  0.9499 -1.8374
   85SLPC  C318 8175   1.424   4.037   4.468 -0.1390 -0.1800 -0.6430
   85SLPC  H18X 8176   1.381   4.114   4.401 -0.0139  1.8246  1.4609
   85SLPC  H18Y 8177   1.524   4.008   4.428 -0.5517 -1.2530 -0.9406
   85SLPC  H18Z 8178   1.436   4.084   4.567 -1.3041  3.3592 -2.0383
   86SLPC     N 8179   6.748   1.995   1.980  0.5025 -1.2101  0.6878
   86SLPC   C13 8180   6.873   1.916   1.954  0.0416 -0.4150  0.3793
   86SLPC  H13A 8181   6.873   1.823   2.009  1.3836  0.3187  1.6978
   86SLPC  H13B 8182   6.895   1.906   1.849 -0.0074  1.3266  0.1691
   86SLPC  H13C 8183   6.951   1.985   1.985 -2.0718  2.7699 -0.8056
   86SLPC   C14 8184   6.629   1.925   1.922  0.4626 -0.1192  0.0459
   86SLPC  H14A 8185   6.537   1.944   1.976  1.0872  1.1648  0.6964
   86SLPC  H14B 8186   6.620   1.943   1.816 -1.1604 -1.7867 -0.1548
   86SLPC  H14C 8187   6.634   1.818   1.938 -0.4176 -0.0508  0.8976
   86SLPC   C15 8188   6.751   2.135   1.915 -0.4821  0.6115  0.5090
   86SLPC  H15A 8189   6.828   2.197   1.959  0.2124 -0.2649  0.5600
   86SLPC  H15B 8190   6.794   2.108   1.819  1.2885  0.3315  1.3427
   86SLPC  H15C 8191   6.651   2.176   1.915 -1.3670 -1.4257 -0.3329
   86SLPC   C12 8192   6.730   2.023   2.126 -0.1243 -0.8140 -0.1756
   86SLPC  H12A 8193   6.643   2.085   2.140  0.5347 -0.3379  2.4982
   86SLPC  H12B 8194   6.812   2.084   2.162 -0.8899  1.6092 -2.2139
   86SLPC   C11 8195   6.727   1.908   2.229 -0.9896 -0.6733 -0.4997
   86SLPC  H11A 8196   6.631   1.853   2.221 -0.2510 -2.7808  2.9098
   86SLPC  H11B 8197   6.738   1.953   2.330  1.8405  0.7947 -1.3432
   86SLPC     P 8198   6.977   1.837   2.281 -0.2380 -0.2228 -0.3702
   86SLPC   O13 8199   7.082   1.760   2.214  0.3146  0.1860 -0.4892
   86SLPC   O14 8200   7.013   1.981   2.297  0.1285 -0.0466 -0.3579
   86SLPC   O12 8201   6.838   1.807   2.211 -0.5655  0.0461 -0.3540
   86SLPC   O11 8202   6.961   1.775   2.426 -0.9327  0.6387 -0.0446
   86SLPC    C1 8203   6.839   1.696   2.454 -0.7996  0.8099  1.0384
   86SLPC    HA 8204   6.756   1.770   2.452 -1.6532 -0.1463 -0.5416
   86SLPC    HB 8205   6.815   1.612   2.386 -3.4507  0.6905  1.9739
   86SLPC    C2 8206   6.851   1.629   2.591 -0.0380  0.0162  0.5424
   86SLPC    HS 8207   6.751   1.607   2.634 -0.5213  0.9517 -0.0514
   86SLPC   O21 8208   6.931   1.691   2.688 -0.1785  0.1887  0.3555
   86SLPC   C21 8209   6.902   1.822   2.714  0.1886 -0.7058  0.1905
   86SLPC   O22 8210   6.797   1.877   2.694 -0.2604  0.2188  0.2516
   86SLPC   C22 8211   7.014   1.880   2.797 -0.5065  0.3591  0.2488
   86SLPC   H2R 8212   7.064   1.797   2.851 -0.5785  0.2073  0.0878
   86SLPC   H2S 8213   7.094   1.916   2.729  1.2278 -0.8435  1.5709
   86SLPC    C3 8214   6.907   1.483   2.576  0.2011  0.0893 -0.3925
   86SLPC    HX 8215   7.013   1.482   2.540  0.1064  0.4601 -0.6788
   86SLPC    HY 8216   6.843   1.434   2.500  0.5577 -2.9394  1.0927
   86SLPC   O31 8217   6.901   1.421   2.703 -0.5281  0.3430 -0.2883
   86SLPC   C31 8218   7.011   1.386   2.772  0.2725 -0.3163 -0.0601
   86SLPC   O32 8219   7.123   1.385   2.735 -0.1320  0.3073 -0.0415
   86SLPC   C32 8220   6.963   1.303   2.891 -0.2585  0.5759  0.0470
   86SLPC   H2X 8221   7.025   1.211   2.892 -0.3534  0.5113  1.3481
   86SLPC   H2Y 8222   6.853   1.289   2.891 -0.4369  1.8335 -0.7411
   86SLPC   C23 8223   6.978   1.999   2.890  0.1859  0.2773  0.6187
   86SLPC   H3R 8224   6.942   2.077   2.819  1.2126 -1.4347 -1.9277
   86SLPC   H3S 8225   7.073   2.032   2.935  0.2735 -0.9979  1.4277
   86SLPC   C24 8226   6.879   1.967   2.999 -0.0134 -0.2604 -0.6364
   86SLPC   H4R 8227   6.784   1.934   2.954  0.6269 -0.9582 -1.5155
   86SLPC   H4S 8228   6.864   2.052   3.068  0.1962 -0.9393  0.2637
   86SLPC   C25 8229   6.927   1.855   3.089  0.6927  0.1680  0.5294
   86SLPC   H5R 8230   7.035   1.868   3.112  0.4064 -0.4258  2.4018
   86SLPC   H5S 8231   6.915   1.759   3.035 -0.5547  0.1118  0.8770
   86SLPC   C26 8232   6.850   1.838   3.221 -0.1887 -0.0402 -0.5212
   86SLPC   H6R 8233   6.743   1.842   3.190 -1.0486  0.6749  2.2223
   86SLPC   H6S 8234   6.869   1.924   3.289 -1.2580 -1.9246  2.3496
   86SLPC   C27 8235   6.879   1.706   3.293  0.0625 -0.1485 -0.3403
   86SLPC   H7R 8236   6.987   1.702   3.318  0.2497 -2.5973 -1.2374
   86SLPC   H7S 8237   6.872   1.621   3.223  0.1006  0.3506 -0.9558
   86SLPC   C28 8238   6.794   1.676   3.415  0.3007  0.1645 -0.5130
   86SLPC   H8R 8239   6.811   1.575   3.459  2.2758  0.3189 -0.8400
   86SLPC   H8S 8240   6.688   1.666   3.384 -0.0150 -0.8728  0.8132
   86SLPC   C29 8241   6.813   1.781   3.519  0.0744 -0.2690  0.2517
   86SLPC   H9R 8242   6.837   1.883   3.486 -1.5323 -0.3769 -1.3711
   86SLPC  C210 8243   6.825   1.774   3.651 -0.2198  0.0898  0.1958
   86SLPC  H10R 8244   6.844   1.867   3.706 -1.3311  0.4073  0.0706
   86SLPC  C211 8245   6.818   1.651   3.738  0.2656  0.2235  0.0058
   86SLPC  H11R 8246   6.920   1.623   3.772  0.2090 -0.0493 -0.0531
   86SLPC  H11S 8247   6.806   1.567   3.667  3.7927 -0.2510 -0.2389
   86SLPC  C212 8248   6.704   1.658   3.839 -0.1751 -0.2506 -0.5048
   86SLPC  H12R 8249   6.710   1.736   3.916 -0.3394  2.1721 -2.7658
   86SLPC  C213 8250   6.588   1.594   3.820  0.4777 -0.5465  0.4142
   86SLPC  H13R 8251   6.503   1.606   3.888 -1.9235 -2.6848 -1.9991
   86SLPC  C214 8252   6.556   1.493   3.711 -0.2934  0.1621  0.4308
   86SLPC  H14R 8253   6.637   1.476   3.637 -0.1274  0.9345  0.4265
   86SLPC  H14S 8254   6.471   1.534   3.651  0.0640 -1.4841 -1.2867
   86SLPC  C215 8255   6.517   1.362   3.781  0.8115  0.3840 -0.6238
   86SLPC  H15R 8256   6.433   1.386   3.850  1.3923  2.0430 -0.4492
   86SLPC  H15S 8257   6.597   1.320   3.845  0.8963 -0.7887 -1.4887
   86SLPC  C216 8258   6.464   1.253   3.682  0.0427 -0.6063 -0.4942
   86SLPC  H16R 8259   6.541   1.232   3.605  1.6603 -1.4392  1.2703
   86SLPC  H16S 8260   6.375   1.299   3.633 -0.2655 -0.1932  0.4224
   86SLPC  C217 8261   6.420   1.120   3.750 -0.5490  0.1249 -0.1799
   86SLPC  H17R 8262   6.330   1.146   3.810 -0.3993 -0.3710  0.2639
   86SLPC  H17S 8263   6.505   1.079   3.808  0.6240  0.3769 -1.6609
   86SLPC  C218 8264   6.384   1.014   3.653  0.6430  0.2386 -0.3032
   86SLPC  H18R 8265   6.345   0.922   3.700 -0.9694  1.9489  1.9256
   86SLPC  H18S 8266   6.476   0.983   3.598  1.0108  1.8084 -0.6226
   86SLPC  H18T 8267   6.315   1.061   3.580  0.8653  0.7530 -0.1860
   86SLPC   C33 8268   6.990   1.398   3.016 -0.4995 -0.5799  0.3412
   86SLPC   H3X 8269   6.912   1.472   3.042  1.5222  1.2070  1.6361
   86SLPC   H3Y 8270   7.085   1.451   2.996 -1.5639  0.4357 -2.7033
   86SLPC   C34 8271   7.032   1.321   3.145 -0.0451  0.2785  0.5693
   86SLPC   H4X 8272   7.069   1.390   3.224 -0.2524  0.1791  0.7547
   86SLPC   H4Y 8273   7.116   1.252   3.121  0.2818  0.0008  2.3382
   86SLPC   C35 8274   6.927   1.219   3.201  0.0781 -0.4904  0.1547
   86SLPC   H5X 8275   6.974   1.133   3.255  0.5578 -1.5488 -1.8356
   86SLPC   H5Y 8276   6.883   1.166   3.114  0.9835  2.8827 -2.5897
   86SLPC   C36 8277   6.821   1.285   3.294 -0.1000 -0.5452  0.6408
   86SLPC   H6X 8278   6.728   1.224   3.294 -0.0912 -0.5656 -0.1680
   86SLPC   H6Y 8279   6.793   1.375   3.234 -0.3518  0.3039  1.9842
   86SLPC   C37 8280   6.865   1.329   3.430 -0.4268 -0.4594  0.3393
   86SLPC   H7X 8281   6.781   1.379   3.483 -0.2038 -0.0152  0.2778
   86SLPC   H7Y 8282   6.947   1.400   3.410  1.0081 -2.4184 -1.0570
   86SLPC   C38 8283   6.920   1.222   3.534 -0.5038  0.0199 -0.0285
   86SLPC   H8X 8284   7.005   1.167   3.489  1.4078  2.1323  0.7801
   86SLPC   H8Y 8285   6.846   1.143   3.557 -0.1897  0.1882  1.7666
   86SLPC   C39 8286   6.960   1.282   3.662 -0.5134 -0.5329  0.1495
   86SLPC   H9X 8287   6.871   1.339   3.697  0.3975  2.0991 -1.5282
   86SLPC   H9Y 8288   7.047   1.350   3.647 -0.4065 -0.4882  0.9395
   86SLPC  C310 8289   6.997   1.166   3.756 -0.6785 -0.0887  0.1937
   86SLPC  H10X 8290   7.030   1.086   3.688 -1.3569  0.7448 -1.1631
   86SLPC  H10Y 8291   6.915   1.145   3.829 -0.0200 -1.9160  0.4539
   86SLPC  C311 8292   7.120   1.195   3.847  0.7262  0.1276  0.1900
   86SLPC  H11X 8293   7.092   1.275   3.919  1.3294  2.0286 -1.6023
   86SLPC  H11Y 8294   7.202   1.235   3.785 -1.3542  0.9409 -2.1805
   86SLPC  C312 8295   7.183   1.065   3.904  0.1862  0.0755 -1.0022
   86SLPC  H12X 8296   7.289   1.089   3.929  0.3204 -2.4009  1.1835
   86SLPC  H12Y 8297   7.190   0.989   3.824 -1.1349  0.9310 -1.9704
   86SLPC  C313 8298   7.103   1.006   4.023  0.1785  0.7191 -0.4418
   86SLPC  H13X 8299   7.002   0.970   3.995  0.3985 -1.3679  1.1547
   86SLPC  H13Y 8300   7.074   1.093   4.086  0.1264  0.9455 -0.7783
   86SLPC  C314 8301   7.168   0.891   4.102  0.1633  0.5840  0.0078
   86SLPC  H14X 8302   7.277   0.915   4.101 -0.1254  2.0166 -0.7212
   86SLPC  H14Y 8303   7.163   0.794   4.049  0.4598 -0.4693  1.8284
   86SLPC  C315 8304   7.108   0.864   4.238  0.4401  0.3319 -0.0023
   86SLPC  H15X 8305   7.008   0.823   4.214  0.6504  0.2211 -0.7150
   86SLPC  H15Y 8306   7.078   0.953   4.298 -1.1603 -1.3019  1.7523
   86SLPC  C316 8307   7.190   0.761   4.324 -0.0195  0.1363  0.6463
   86SLPC  H16X 8308   7.204   0.662   4.276  2.4356  0.9357 -0.4565
   86SLPC  H16Y 8309   7.134   0.751   4.419 -2.7157  1.3853 -0.7188
   86SLPC  C317 8310   7.328   0.809   4.372 -0.6681  0.6028  0.2747
   86SLPC  H17X 8311   7.384   0.849   4.284 -2.2438  0.0425 -1.0222
   86SLPC  H17Y 8312   7.387   0.722   4.406 -0.9588 -0.0522 -0.8563
   86SLPC  C318 8313   7.315   0.908   4.495 -0.2302 -0.1244 -0.6923
   86SLPC  H18X 8314   7.248   0.994   4.478 -0.4819  0.0497  0.9977
   86SLPC  H18Y 8315   7.408   0.966   4.513 -1.0021  1.2016 -0.9260
   86SLPC  H18Z 8316   7.280   0.849   4.583  0.2408 -0.4488 -0.7135
   87SLPC     N 8317   6.385   6.200   2.181 -0.1065  0.2959 -0.3083
   87SLPC   C13 8318   6.408   6.164   2.326  0.2095 -0.5212  0.4373
   87SLPC  H13A 8319   6.314   6.132   2.370  0.5523 -1.6598  0.3766
   87SLPC  H13B 8320   6.482   6.087   2.338 -0.5667 -1.2228  0.8693
   87SLPC  H13C 8321   6.438   6.249   2.385 -0.5550  0.8599 -1.1151
   87SLPC   C14 8322   6.331   6.083   2.116 -0.0243  0.4414  0.6570
   87SLPC  H14A 8323   6.339   6.107   2.011  1.5759  2.1246  1.1224
   87SLPC  H14B 8324   6.386   5.991   2.129  0.8874  0.7387 -0.7800
   87SLPC  H14C 8325   6.227   6.066   2.138 -0.7119  1.0256 -1.8389
   87SLPC   C15 8326   6.517   6.238   2.118  0.3459  0.1459  0.1915
   87SLPC  H15A 8327   6.512   6.242   2.010 -0.5476 -0.4738  0.1964
   87SLPC  H15B 8328   6.558   6.326   2.165  1.9538 -0.1951 -0.4759
   87SLPC  H15C 8329   6.591   6.162   2.142  0.9058  0.8157  0.6381
   87SLPC   C12 8330   6.290   6.317   2.162 -0.6198  0.0776  0.7430
   87SLPC  H12A 8331   6.277   6.330   2.056 -0.6179  3.5617  1.0719
   87SLPC  H12B 8332   6.339   6.407   2.196 -1.8966  0.8508  0.6316
   87SLPC   C11 8333   6.139   6.305   2.217 -0.5006 -0.2339  0.1682
   87SLPC  H11A 8334   6.102   6.400   2.173  4.8316  0.9255 -2.7257
   87SLPC  H11B 8335   6.139   6.320   2.327 -0.4343 -0.0493  0.1447
   87SLPC     P 8336   5.927   6.155   2.235 -0.3946  0.1589  0.0287
   87SLPC   O13 8337   5.818   6.250   2.200  0.2018  0.1544  0.1738
   87SLPC   O14 8338   5.898   6.011   2.213  0.4102  0.0298  0.0440
   87SLPC   O12 8339   6.067   6.194   2.165  0.4213  0.1629 -0.2439
   87SLPC   O11 8340   5.963   6.171   2.390  0.5615 -0.2056  0.0974
   87SLPC    C1 8341   6.067   6.105   2.455  0.0845  0.8038  1.0211
   87SLPC    HA 8342   6.140   6.065   2.382 -1.9491 -1.6164  0.1817
   87SLPC    HB 8343   6.111   6.183   2.522 -3.9045  2.7835  1.6294
   87SLPC    C2 8344   6.019   5.987   2.548  0.0028 -0.3349 -1.1518
   87SLPC    HS 8345   5.971   5.910   2.483 -0.7342  0.5316 -1.6724
   87SLPC   O21 8346   5.926   6.040   2.640 -0.4587 -0.4464  0.8818
   87SLPC   C21 8347   5.855   5.952   2.708 -0.3511  0.4742  0.1908
   87SLPC   O22 8348   5.858   5.831   2.691  0.1297  0.2220  0.2082
   87SLPC   C22 8349   5.762   6.021   2.802 -0.1381 -0.7959 -0.2317
   87SLPC   H2R 8350   5.824   6.086   2.868 -1.2360  0.5643 -0.4973
   87SLPC   H2S 8351   5.689   6.071   2.736 -0.6684  1.3907  1.8524
   87SLPC    C3 8352   6.136   5.920   2.615 -0.3111 -0.1525  0.3531
   87SLPC    HX 8353   6.197   5.879   2.531 -2.0164  0.7623 -1.4130
   87SLPC    HY 8354   6.101   5.842   2.686 -2.7107  0.3503 -0.1897
   87SLPC   O31 8355   6.225   6.011   2.680 -0.4140  0.1067 -0.6730
   87SLPC   C31 8356   6.186   6.046   2.804  0.0382  0.3084 -0.0572
   87SLPC   O32 8357   6.124   5.969   2.886 -0.1620 -0.4986 -0.1035
   87SLPC   C32 8358   6.229   6.193   2.832 -0.1035  1.0142  0.0184
   87SLPC   H2X 8359   6.196   6.252   2.744 -1.7287  0.6167  0.3238
   87SLPC   H2Y 8360   6.338   6.194   2.850 -0.1784  0.7854  0.5126
   87SLPC   C23 8361   5.669   5.932   2.884 -0.1290 -0.2057 -0.0686
   87SLPC   H3R 8362   5.734   5.872   2.951  0.0936 -0.5310 -0.5691
   87SLPC   H3S 8363   5.618   5.859   2.818 -4.2607 -0.2854  2.8412
   87SLPC   C24 8364   5.557   6.010   2.950 -0.1738 -0.5351 -0.2529
   87SLPC   H4R 8365   5.486   5.931   2.982  0.7249 -2.3498 -2.5355
   87SLPC   H4S 8366   5.503   6.066   2.871  5.4111  2.2706 -2.6376
   87SLPC   C25 8367   5.598   6.109   3.061  0.3795 -0.6532 -0.0484
   87SLPC   H5R 8368   5.518   6.150   3.126  1.9484 -0.5936  1.9576
   87SLPC   H5S 8369   5.650   6.194   3.011 -1.7880  0.0675 -1.2045
   87SLPC   C26 8370   5.685   6.053   3.167 -0.6446  0.1949  0.3473
   87SLPC   H6R 8371   5.721   6.137   3.230  0.2381 -0.8424  1.2470
   87SLPC   H6S 8372   5.768   6.010   3.108  1.1193  1.7530  1.5869
   87SLPC   C27 8373   5.618   5.948   3.252 -0.1387  0.3590  0.3689
   87SLPC   H7R 8374   5.568   5.878   3.181 -0.3877  0.0257  0.8612
   87SLPC   H7S 8375   5.539   5.996   3.314 -0.7857  2.8217 -2.1793
   87SLPC   C28 8376   5.707   5.873   3.355  0.4381  0.3631 -0.3943
   87SLPC   H8R 8377   5.739   5.950   3.428  0.9649  0.7951 -1.0754
   87SLPC   H8S 8378   5.799   5.837   3.306 -0.2319 -0.8985 -0.7643
   87SLPC   C29 8379   5.646   5.748   3.410  0.2166 -0.0737  0.0591
   87SLPC   H9R 8380   5.567   5.701   3.349 -0.4104 -0.0515  0.8431
   87SLPC  C210 8381   5.671   5.698   3.534  0.1308  0.0996 -0.3267
   87SLPC  H10R 8382   5.599   5.626   3.575 -0.8859  1.5105  0.4662
   87SLPC  C211 8383   5.765   5.758   3.641  0.1950 -0.1434  0.0182
   87SLPC  H11R 8384   5.708   5.853   3.656  1.1984  0.5019 -0.1411
   87SLPC  H11S 8385   5.863   5.796   3.603 -0.0502  2.3796  1.6363
   87SLPC  C212 8386   5.771   5.681   3.771 -0.5252 -0.4190 -0.0020
   87SLPC  H12R 8387   5.796   5.574   3.762  1.4015 -0.0323  0.3524
   87SLPC  C213 8388   5.728   5.738   3.885 -0.1931  0.6283 -0.1909
   87SLPC  H13R 8389   5.732   5.682   3.980 -0.2051 -0.7990 -1.0061
   87SLPC  C214 8390   5.690   5.885   3.901 -0.5210 -0.7319  0.1960
   87SLPC  H14R 8391   5.587   5.905   3.865  0.0999 -1.4169 -2.0736
   87SLPC  H14S 8392   5.751   5.950   3.835 -2.0752  0.5768 -0.0260
   87SLPC  C215 8393   5.709   5.923   4.048  0.6034 -0.8438  0.2590
   87SLPC  H15R 8394   5.719   6.034   4.043 -0.6438 -0.7541 -2.0360
   87SLPC  H15S 8395   5.797   5.877   4.098  1.9782  1.0576 -0.2800
   87SLPC  C216 8396   5.585   5.880   4.127  0.0566  0.3367 -0.5076
   87SLPC  H16R 8397   5.582   5.769   4.134 -0.0359  0.3728  0.0740
   87SLPC  H16S 8398   5.496   5.917   4.071  0.2883  1.3442 -0.2278
   87SLPC  C217 8399   5.564   5.937   4.270  0.1863 -0.4942 -0.4008
   87SLPC  H17R 8400   5.457   5.916   4.291 -0.0016 -0.3648 -1.2253
   87SLPC  H17S 8401   5.573   6.047   4.260 -0.8559 -0.3366  0.2655
   87SLPC  C218 8402   5.649   5.889   4.381 -0.4493  0.7046 -0.6625
   87SLPC  H18R 8403   5.752   5.881   4.340 -0.0456 -0.5915  0.5287
   87SLPC  H18S 8404   5.620   5.792   4.426  0.5656  0.7899  0.2146
   87SLPC  H18T 8405   5.642   5.969   4.459  1.7916  0.5097 -0.1893
   87SLPC   C33 8406   6.154   6.245   2.954 -0.3178  0.3040  0.2746
   87SLPC   H3X 8407   6.046   6.224   2.939 -0.3886  0.5047  0.4885
   87SLPC   H3Y 8408   6.168   6.355   2.951 -1.0238  0.3814 -0.6483
   87SLPC   C34 8409   6.213   6.189   3.083  0.1014 -0.2063 -0.2094
   87SLPC   H4X 8410   6.324   6.197   3.089 -0.0221  1.4172  0.2217
   87SLPC   H4Y 8411   6.207   6.078   3.077  1.0314 -0.4650  2.4010
   87SLPC   C35 8412   6.133   6.229   3.215 -0.5933  0.9660 -0.3686
   87SLPC   H5X 8413   6.029   6.248   3.181 -0.3481  0.9096 -1.1779
   87SLPC   H5Y 8414   6.170   6.320   3.266  0.5189  0.2660  0.1238
   87SLPC   C36 8415   6.118   6.118   3.317  0.9901  0.0086  0.0793
   87SLPC   H6X 8416   6.220   6.098   3.357  1.7740  0.4655 -1.6266
   87SLPC   H6Y 8417   6.096   6.023   3.263  1.0370 -0.5598  1.0206
   87SLPC   C37 8418   6.006   6.143   3.418  0.3283  0.5371 -0.6855
   87SLPC   H7X 8419   5.915   6.129   3.356 -0.7126  1.2415  0.6142
   87SLPC   H7Y 8420   6.006   6.251   3.444 -2.1044  0.6809 -0.9844
   87SLPC   C38 8421   5.989   6.044   3.527  0.5222 -0.1709  0.0768
   87SLPC   H8X 8422   5.979   5.942   3.484 -0.3197 -0.1272  0.1433
   87SLPC   H8Y 8423   5.888   6.061   3.571  0.7300  1.4059  0.0238
   87SLPC   C39 8424   6.087   6.054   3.642 -0.3099 -0.3180  0.9843
   87SLPC   H9X 8425   6.194   6.051   3.612 -0.3886  1.5654  0.3797
   87SLPC   H9Y 8426   6.076   5.968   3.712 -0.1514 -0.0904  1.2857
   87SLPC  C310 8427   6.081   6.185   3.717 -0.0805  0.5590 -0.0921
   87SLPC  H10X 8428   5.980   6.184   3.763 -0.4140 -0.3032 -0.8070
   87SLPC  H10Y 8429   6.073   6.271   3.647 -0.9409 -0.2285 -1.0096
   87SLPC  C311 8430   6.185   6.191   3.827 -1.0283 -0.2491  0.2080
   87SLPC  H11X 8431   6.291   6.181   3.795 -0.6502  1.2441  0.9248
   87SLPC  H11Y 8432   6.164   6.106   3.896 -1.7689 -1.7749 -1.7951
   87SLPC  C312 8433   6.181   6.322   3.908 -0.0873 -0.7715 -0.2122
   87SLPC  H12X 8434   6.117   6.313   3.999 -0.8705 -0.3861 -0.7096
   87SLPC  H12Y 8435   6.130   6.395   3.841  2.4686 -0.9767 -2.5072
   87SLPC  C313 8436   6.314   6.368   3.962  0.2696  1.0280  0.0933
   87SLPC  H13X 8437   6.391   6.368   3.881  0.9965  0.2594  0.7638
   87SLPC  H13Y 8438   6.346   6.293   4.037 -0.2200  2.6600  2.0065
   87SLPC  C314 8439   6.314   6.505   4.031 -0.2818  0.2914  0.4088
   87SLPC  H14X 8440   6.398   6.514   4.103 -0.6388 -2.5484  1.2821
   87SLPC  H14Y 8441   6.219   6.507   4.090 -1.1310  1.9782 -0.9260
   87SLPC  C315 8442   6.304   6.629   3.940  0.5409  0.0548 -0.1233
   87SLPC  H15X 8443   6.208   6.629   3.884 -0.5698  0.3130  1.7123
   87SLPC  H15Y 8444   6.391   6.620   3.871 -0.3208 -2.8515 -1.0123
   87SLPC  C316 8445   6.307   6.767   4.009 -0.3365  0.2110 -0.1852
   87SLPC  H16X 8446   6.295   6.849   3.935 -0.3741  0.4253  0.0578
   87SLPC  H16Y 8447   6.407   6.780   4.055 -0.7559 -0.7991  1.0745
   87SLPC  C317 8448   6.200   6.787   4.118  0.5971 -0.0554  0.2934
   87SLPC  H17X 8449   6.201   6.897   4.134 -1.1427  0.2266 -1.2013
   87SLPC  H17Y 8450   6.234   6.734   4.209  0.9202 -0.0854  0.1558
   87SLPC  C318 8451   6.056   6.766   4.072  0.2858  0.6165 -0.4438
   87SLPC  H18X 8452   5.984   6.816   4.140 -1.1441 -2.1949  0.2649
   87SLPC  H18Y 8453   6.027   6.659   4.075  0.5654  0.5354 -0.6257
   87SLPC  H18Z 8454   6.047   6.802   3.967  1.1098  0.8405 -0.4397
   88SLPC     N 8455   0.679   6.056   2.131  0.1829  0.5052 -0.8649
   88SLPC   C13 8456   0.644   5.927   2.068  0.6482 -0.4050  0.0346
   88SLPC  H13A 8457   0.546   5.894   2.098  0.0158  0.6476 -0.7768
   88SLPC  H13B 8458   0.626   5.930   1.961 -0.5653 -0.1262  0.2387
   88SLPC  H13C 8459   0.718   5.850   2.084 -1.3252 -2.1798  0.9936
   88SLPC   C14 8460   0.798   6.104   2.055  0.7845 -0.1994 -0.0742
   88SLPC  H14A 8461   0.843   6.199   2.078 -0.2433  0.4506 -0.6507
   88SLPC  H14B 8462   0.878   6.032   2.044  2.0110  1.2094 -0.6487
   88SLPC  H14C 8463   0.771   6.110   1.951  2.4071 -1.5198 -0.6273
   88SLPC   C15 8464   0.725   6.024   2.269 -0.5506  0.3918 -0.2605
   88SLPC  H15A 8465   0.734   6.116   2.325  0.2238  0.5727 -0.6628
   88SLPC  H15B 8466   0.649   5.959   2.309 -0.8048  0.3323 -0.8211
   88SLPC  H15C 8467   0.817   5.968   2.264  1.8146  3.4773  3.4883
   88SLPC   C12 8468   0.565   6.151   2.130  0.0846 -0.6112  0.5578
   88SLPC  H12A 8469   0.496   6.134   2.211 -1.1026 -1.0275 -0.5056
   88SLPC  H12B 8470   0.512   6.136   2.037 -0.6191 -0.2126  0.8881
   88SLPC   C11 8471   0.608   6.303   2.142 -0.2495  0.4373  0.2937
   88SLPC  H11A 8472   0.510   6.355   2.149 -0.4516 -0.0191  0.9581
   88SLPC  H11B 8473   0.661   6.324   2.047 -0.1884 -0.5074  0.1051
   88SLPC     P 8474   0.749   6.455   2.302 -0.2497  0.4344  0.2268
   88SLPC   O13 8475   0.805   6.455   2.436  0.8469  0.4068 -0.3249
   88SLPC   O14 8476   0.847   6.495   2.204  0.1364 -0.2338 -0.2977
   88SLPC   O12 8477   0.684   6.310   2.264  0.2658 -0.0774 -0.6500
   88SLPC   O11 8478   0.628   6.555   2.291  0.4866 -0.1623 -0.1005
   88SLPC    C1 8479   0.500   6.560   2.349  0.5183  0.8735  0.3679
   88SLPC    HA 8480   0.426   6.580   2.268  0.5628 -1.5607 -0.3611
   88SLPC    HB 8481   0.474   6.466   2.403 -1.1467  0.8347 -0.4516
   88SLPC    C2 8482   0.478   6.681   2.442 -0.2787  0.2706  0.4663
   88SLPC    HS 8483   0.444   6.772   2.387 -2.1241  0.7017  2.2015
   88SLPC   O21 8484   0.600   6.698   2.514  0.0855  0.8603  0.2443
   88SLPC   C21 8485   0.675   6.800   2.487  0.1630  0.3454 -0.3530
   88SLPC   O22 8486   0.644   6.895   2.420  0.0723  0.2014 -0.5434
   88SLPC   C22 8487   0.813   6.795   2.553  0.5207  1.1460 -0.1059
   88SLPC   H2R 8488   0.806   6.740   2.649  1.5376 -0.3027 -0.8161
   88SLPC   H2S 8489   0.875   6.739   2.480 -2.3463 -0.5997 -1.3726
   88SLPC    C3 8490   0.358   6.656   2.534 -0.1667 -0.3326  0.1787
   88SLPC    HX 8491   0.276   6.644   2.460  0.3407 -1.3235 -0.2413
   88SLPC    HY 8492   0.351   6.747   2.597  1.4850  0.5271 -0.8057
   88SLPC   O31 8493   0.374   6.537   2.616  0.3985 -0.4937 -0.2636
   88SLPC   C31 8494   0.264   6.511   2.687  0.0346  0.7854  0.4160
   88SLPC   O32 8495   0.168   6.585   2.701  0.5546  0.4569  0.6201
   88SLPC   C32 8496   0.289   6.372   2.753  0.3013 -0.2082  0.1418
   88SLPC   H2X 8497   0.385   6.333   2.713 -1.0533 -1.3823 -2.2158
   88SLPC   H2Y 8498   0.209   6.300   2.723  1.9657 -3.1285  2.2444
   88SLPC   C23 8499   0.869   6.934   2.586 -0.1816 -0.0539  0.5739
   88SLPC   H3R 8500   0.841   7.007   2.508  0.1267  0.4579  0.9344
   88SLPC   H3S 8501   0.979   6.925   2.573 -0.4065  0.5708 -2.5312
   88SLPC   C24 8502   0.830   6.984   2.724  0.5369 -0.2659 -1.0061
   88SLPC   H4R 8503   0.720   6.984   2.741  0.8273  1.5550  1.3981
   88SLPC   H4S 8504   0.858   7.092   2.720 -0.6003  0.0192 -1.8927
   88SLPC   C25 8505   0.918   6.919   2.838  0.0140  0.8009  0.0170
   88SLPC   H5R 8506   1.024   6.922   2.805 -0.5194  3.0120 -1.8143
   88SLPC   H5S 8507   0.900   6.811   2.851  3.7364 -0.4096 -2.8860
   88SLPC   C26 8508   0.912   6.988   2.971 -0.3279  0.1666 -0.2437
   88SLPC   H6R 8509   0.809   6.965   3.005 -0.4026  2.2148  1.0792
   88SLPC   H6S 8510   0.918   7.096   2.947  2.5809 -0.1647 -1.4547
   88SLPC   C27 8511   1.018   6.926   3.066  0.5662 -0.9637  0.7893
   88SLPC   H7R 8512   1.119   6.924   3.020 -0.8971  0.6201 -2.8560
   88SLPC   H7S 8513   0.995   6.817   3.067  1.0251 -1.0864 -0.7341
   88SLPC   C28 8514   1.034   6.987   3.210 -0.6347 -0.0179  0.0713
   88SLPC   H8R 8515   1.082   7.085   3.188 -3.3020  0.8962 -2.4056
   88SLPC   H8S 8516   1.104   6.922   3.267  1.1613  1.5326 -0.2388
   88SLPC   C29 8517   0.893   7.001   3.262  0.2441 -0.2069 -0.5356
   88SLPC   H9R 8518   0.807   6.970   3.200 -0.0421 -0.6336  0.0672
   88SLPC  C210 8519   0.868   7.032   3.389 -0.4722 -0.4294 -0.0001
   88SLPC  H10R 8520   0.765   7.059   3.419  0.5964  4.4504  0.1952
   88SLPC  C211 8521   0.973   7.085   3.484 -0.0532 -0.5539 -0.6008
   88SLPC  H11R 8522   1.029   7.165   3.432  0.2161 -1.2183 -1.3587
   88SLPC  H11S 8523   1.048   7.006   3.502  1.8141  1.1051 -0.8463
   88SLPC  C212 8524   0.938   7.145   3.615  0.0641  0.4966 -0.4056
   88SLPC  H12R 8525   0.831   7.138   3.637  0.2093  2.7295  1.3454
   88SLPC  C213 8526   1.020   7.177   3.716  0.1646 -0.5468  0.0784
   88SLPC  H13R 8527   0.974   7.204   3.811  2.0578  2.3255  0.3037
   88SLPC  C214 8528   1.172   7.171   3.714 -0.1957  0.1508 -0.6158
   88SLPC  H14R 8529   1.212   7.259   3.769  1.1490 -0.9588  0.2693
   88SLPC  H14S 8530   1.219   7.165   3.614  1.4296 -2.7622  0.1906
   88SLPC  C215 8531   1.217   7.051   3.787 -0.5233  0.9009  0.2422
   88SLPC  H15R 8532   1.327   7.037   3.789 -0.1877  3.2710  1.5966
   88SLPC  H15S 8533   1.178   6.955   3.745  2.0201 -1.2853  2.5296
   88SLPC  C216 8534   1.173   7.043   3.938 -0.7823  0.0222 -0.3676
   88SLPC  H16R 8535   1.064   7.021   3.940 -0.6448 -0.6382  1.2882
   88SLPC  H16S 8536   1.204   7.139   3.984  3.7222 -0.1763 -2.4568
   88SLPC  C217 8537   1.246   6.932   4.013  0.5861 -0.1822 -0.4859
   88SLPC  H17R 8538   1.357   6.931   4.015  0.6826  0.4025  3.3174
   88SLPC  H17S 8539   1.207   6.837   3.970  0.2695 -0.3160  0.0858
   88SLPC  C218 8540   1.195   6.908   4.159 -0.2369 -0.4678 -0.2616
   88SLPC  H18R 8541   1.221   6.993   4.226 -0.0128 -0.9293  0.2388
   88SLPC  H18S 8542   1.226   6.812   4.205 -1.9959 -1.2612 -0.6587
   88SLPC  H18T 8543   1.085   6.891   4.156 -0.3423  0.2574 -2.3063
   88SLPC   C33 8544   0.285   6.376   2.911 -0.4137 -0.1902 -0.2418
   88SLPC   H3X 8545   0.233   6.287   2.951  0.2555 -0.8666 -0.8495
   88SLPC   H3Y 8546   0.226   6.463   2.947 -1.3013  0.1329 -2.3533
   88SLPC   C34 8547   0.428   6.380   2.976 -0.2235 -0.0969  0.0457
   88SLPC   H4X 8548   0.488   6.454   2.918 -0.2039 -0.8577 -0.9278
   88SLPC   H4Y 8549   0.471   6.278   2.967 -1.2283 -0.5532  0.3204
   88SLPC   C35 8550   0.420   6.418   3.118 -0.1771  0.0105  0.6408
   88SLPC   H5X 8551   0.354   6.507   3.134 -1.5667 -1.1674  1.7638
   88SLPC   H5Y 8552   0.522   6.447   3.152  0.1371  0.4159 -0.5948
   88SLPC   C36 8553   0.369   6.304   3.218 -0.2592 -0.0394  0.4560
   88SLPC   H6X 8554   0.426   6.212   3.191 -0.2117  0.5445 -1.6216
   88SLPC   H6Y 8555   0.260   6.288   3.199 -0.1965 -2.8152  1.8849
   88SLPC   C37 8556   0.399   6.340   3.368  1.0262  0.3147  0.5599
   88SLPC   H7X 8557   0.348   6.265   3.431 -2.5070  1.5009 -0.6579
   88SLPC   H7Y 8558   0.345   6.438   3.373 -0.3474 -0.3526 -0.4549
   88SLPC   C38 8559   0.550   6.334   3.399 -0.4529  0.5859 -0.5093
   88SLPC   H8X 8560   0.611   6.381   3.319 -1.2097  2.2687 -0.1366
   88SLPC   H8Y 8561   0.583   6.227   3.396 -0.0397  0.6948 -0.0096
   88SLPC   C39 8562   0.590   6.388   3.542  0.1325  1.1198 -0.4639
   88SLPC   H9X 8563   0.555   6.493   3.540 -0.1388  1.0169 -1.5629
   88SLPC   H9Y 8564   0.701   6.379   3.547  0.2496  0.1529 -3.1095
   88SLPC  C310 8565   0.523   6.299   3.655 -0.1715 -0.0079 -0.8816
   88SLPC  H10X 8566   0.550   6.193   3.637  3.7498  0.8376 -0.7772
   88SLPC  H10Y 8567   0.412   6.307   3.650 -0.1124  0.9709 -0.7651
   88SLPC  C311 8568   0.562   6.343   3.791  0.1660 -0.1418 -0.1507
   88SLPC  H11X 8569   0.546   6.451   3.812  2.0762 -0.1176  1.5753
   88SLPC  H11Y 8570   0.670   6.316   3.800  0.9663  2.4632 -1.1093
   88SLPC  C312 8571   0.489   6.270   3.903 -0.7554  0.3070  0.8323
   88SLPC  H12X 8572   0.536   6.170   3.911  1.0370  0.9714 -0.6120
   88SLPC  H12Y 8573   0.381   6.255   3.882 -0.9129  0.4703  1.5307
   88SLPC  C313 8574   0.507   6.333   4.043  0.4050  0.0099  0.5496
   88SLPC  H13X 8575   0.423   6.403   4.065 -0.2736 -1.0813  1.4893
   88SLPC  H13Y 8576   0.604   6.388   4.043 -0.2670  1.2566  0.9660
   88SLPC  C314 8577   0.508   6.231   4.159  0.4428 -0.0285  0.4415
   88SLPC  H14X 8578   0.590   6.157   4.151  1.2829  0.4109  3.6402
   88SLPC  H14Y 8579   0.409   6.184   4.174  0.3857 -0.0048  0.1556
   88SLPC  C315 8580   0.537   6.303   4.289  0.4319  0.4496 -0.0924
   88SLPC  H15X 8581   0.448   6.357   4.327  0.8039  1.5686 -0.7706
   88SLPC  H15Y 8582   0.603   6.389   4.268 -1.4304  2.2437  0.9959
   88SLPC  C316 8583   0.590   6.214   4.404 -0.1510 -0.2388  0.0873
   88SLPC  H16X 8584   0.620   6.278   4.491  0.0518  2.3424 -1.7561
   88SLPC  H16Y 8585   0.682   6.163   4.369 -0.6921 -2.1856  1.3815
   88SLPC  C317 8586   0.491   6.100   4.439 -0.6151 -0.0692  0.1715
   88SLPC  H17X 8587   0.478   6.046   4.343  0.9458  2.1648 -1.4116
   88SLPC  H17Y 8588   0.396   6.143   4.478 -0.8990  0.8103 -1.3907
   88SLPC  C318 8589   0.548   5.992   4.540  0.5600 -0.3495  0.6826
   88SLPC  H18X 8590   0.622   5.924   4.494  1.0663  0.8057 -0.2702
   88SLPC  H18Y 8591   0.455   5.942   4.575  0.5284 -0.7169  0.0730
   88SLPC  H18Z 8592   0.599   6.038   4.627  1.0162 -0.9211  0.7180
   89SAPE     N 8593   4.840   5.796   6.581  0.1220 -0.2191  0.6789
   89SAPE   HN1 8594   4.756   5.848   6.613  0.3838  0.7241 -0.1261
   89SAPE   HN2 8595   4.809   5.702   6.548  0.1433  0.4067 -1.2739
   89SAPE   HN3 8596   4.913   5.786   6.654 -1.3706  0.6183  2.3567
   89SAPE   C12 8597   4.883   5.885   6.470 -0.4697 -0.5211 -0.1761
   89SAPE  H12A 8598   4.892   5.988   6.509 -1.5238  0.3895 -2.1794
   89SAPE  H12B 8599   4.804   5.890   6.392  0.9398 -2.3709 -1.8529
   89SAPE   C11 8600   5.014   5.842   6.393 -0.4371 -0.5434 -0.0602
   89SAPE  H11A 8601   5.045   5.923   6.324  2.1589 -0.6335  0.8817
   89SAPE  H11B 8602   4.997   5.753   6.329  0.6687 -0.7029 -0.1578
   89SAPE     P 8603   5.267   5.792   6.436  0.0390 -0.0475  0.0387
   89SAPE   O13 8604   5.358   5.861   6.525  0.4868  0.0474 -1.0556
   89SAPE   O14 8605   5.293   5.649   6.421  0.1557  0.0676  0.1609
   89SAPE   O12 8606   5.119   5.807   6.489  0.2234  0.2246 -0.3927
   89SAPE   O11 8607   5.267   5.868   6.298 -0.1626 -0.2627 -0.1660
   89SAPE    C1 8608   5.321   5.805   6.178 -0.6802  0.4225  0.0051
   89SAPE    HA 8609   5.418   5.757   6.200 -2.3796 -2.0764  2.7454
   89SAPE    HB 8610   5.252   5.724   6.148  2.2639 -2.2580 -0.0791
   89SAPE    C2 8611   5.325   5.917   6.067  0.3313  0.6844 -0.1239
   89SAPE    HS 8612   5.348   5.865   5.972 -0.9524 -0.7397  0.3088
   89SAPE   O21 8613   5.420   6.018   6.101  0.0813 -0.5774 -0.5298
   89SAPE   C21 8614   5.542   5.992   6.063 -0.1446 -0.7830  0.4512
   89SAPE   O22 8615   5.578   5.891   6.006 -0.4742  0.6870 -0.6321
   89SAPE   C22 8616   5.631   6.104   6.121 -0.2560  0.1196 -0.4980
   89SAPE   H2R 8617   5.595   6.125   6.224 -1.1141  0.6497 -0.8979
   89SAPE   H2S 8618   5.733   6.061   6.135  0.0769  0.7817 -0.8470
   89SAPE    C3 8619   5.188   5.986   6.042 -0.3700  0.2579 -0.0556
   89SAPE    HX 8620   5.185   6.042   6.138  1.0065 -0.1601  0.2520
   89SAPE    HY 8621   5.110   5.907   6.029  0.3564 -0.2997 -1.1676
   89SAPE   O31 8622   5.204   6.065   5.925  0.0717 -0.0241 -0.2446
   89SAPE   C31 8623   5.095   6.144   5.918  0.3983 -0.5091  0.2828
   89SAPE   O32 8624   4.992   6.128   5.974  0.6109 -0.3299 -0.1631
   89SAPE   C32 8625   5.118   6.265   5.847  0.2317 -0.2079  0.5505
   89SAPE   H2X 8626   5.226   6.281   5.828  0.1060 -0.3341 -0.3219
   89SAPE   H2Y 8627   5.064   6.347   5.898 -0.4900  0.3466 -1.0171
   89SAPE   C23 8628   5.637   6.223   6.026  0.2224  0.0002  0.5921
   89SAPE   H3R 8629   5.683   6.313   6.071  1.5811  0.9328 -2.4097
   89SAPE   H3S 8630   5.532   6.252   6.007 -0.2956 -0.1066  2.9121
   89SAPE   C24 8631   5.721   6.197   5.897 -0.8290  0.2403  0.7169
   89SAPE   H4R 8632   5.705   6.090   5.871  0.8064 -0.1197  1.0612
   89SAPE   H4S 8633   5.832   6.194   5.904 -0.7926 -2.6655  0.1115
   89SAPE   C25 8634   5.687   6.290   5.777 -0.3136 -0.4125  0.1371
   89SAPE   H5R 8635   5.691   6.397   5.802 -0.4387 -0.2982 -0.3119
   89SAPE   C26 8636   5.631   6.254   5.660  0.9582 -0.2981 -0.6667
   89SAPE   H6R 8637   5.614   6.331   5.583  1.4515 -0.3100 -0.7918
   89SAPE   C27 8638   5.611   6.113   5.618  0.1797  0.3782 -0.3344
   89SAPE   H7R 8639   5.697   6.049   5.645  0.2223  0.7898  0.5333
   89SAPE   H7S 8640   5.609   6.113   5.507 -0.4741  0.6719 -0.3233
   89SAPE   C28 8641   5.482   6.062   5.679  0.2573 -0.3557 -0.3909
   89SAPE   H8R 8642   5.498   6.026   5.782  0.5706  1.1086  0.0876
   89SAPE   C29 8643   5.368   6.028   5.617  0.0903  0.0660  0.4768
   89SAPE   H9R 8644   5.279   6.002   5.675 -0.5132  0.2483 -0.3539
   89SAPE  C210 8645   5.339   6.055   5.470  0.5173  0.5996 -0.1007
   89SAPE  H10R 8646   5.431   6.058   5.408 -0.3429  0.6618 -1.4212
   89SAPE  H10S 8647   5.293   6.155   5.455 -0.7990 -0.4107 -3.8661
   89SAPE  C211 8648   5.241   5.956   5.410 -0.0663  0.7467 -0.3453
   89SAPE  H11R 8649   5.187   5.889   5.478 -0.1353 -1.3549 -2.3341
   89SAPE  C212 8650   5.216   5.944   5.273  0.2162 -0.0528  0.0691
   89SAPE  H12R 8651   5.139   5.874   5.236 -0.8030  0.4937  1.0948
   89SAPE  C213 8652   5.282   6.016   5.158  0.6950 -0.1434  0.3010
   89SAPE  H13R 8653   5.330   5.942   5.090 -1.0533  0.3192 -1.5204
   89SAPE  H13S 8654   5.358   6.086   5.199 -0.3892  1.7414 -0.7532
   89SAPE  C214 8655   5.181   6.093   5.070  0.2369 -0.8317  0.6488
   89SAPE  H14R 8656   5.169   6.197   5.103  0.1450 -0.5407 -0.2707
   89SAPE  C215 8657   5.103   6.049   4.967 -0.8358  0.5270  0.4417
   89SAPE  H15R 8658   5.029   6.105   4.908 -0.6400 -1.3935 -1.7488
   89SAPE  C216 8659   5.108   5.903   4.922 -0.2030  0.1210 -0.0499
   89SAPE  H16R 8660   5.014   5.875   4.871  0.8611 -1.5070 -1.2207
   89SAPE  H16S 8661   5.130   5.825   4.998 -0.2974  0.9435  0.8388
   89SAPE  C217 8662   5.204   5.879   4.801  0.3275  0.4944  0.0590
   89SAPE  H17R 8663   5.199   5.770   4.778 -1.1113  0.8498 -1.4886
   89SAPE  H17S 8664   5.310   5.896   4.828  0.3523 -0.9437  0.9841
   89SAPE  C218 8665   5.169   5.971   4.678  0.2119  0.2905 -0.3553
   89SAPE  H18R 8666   5.161   6.078   4.709  3.2570  0.3135  0.6827
   89SAPE  H18S 8667   5.068   5.931   4.656 -0.2236  1.0054  0.2757
   89SAPE  C219 8668   5.271   5.962   4.560 -0.3540 -0.0826 -0.5891
   89SAPE  H19R 8669   5.275   5.857   4.523 -0.4682 -0.3906  0.2338
   89SAPE  H19S 8670   5.368   5.999   4.601 -1.6606  0.0332  2.7297
   89SAPE  C220 8671   5.223   6.040   4.435  0.6697 -0.2334  0.4836
   89SAPE  H20R 8672   5.220   6.150   4.455  1.3783  0.1237 -1.2376
   89SAPE  H20S 8673   5.124   6.019   4.391 -0.4064  3.0625  1.0190
   89SAPE  H20T 8674   5.297   6.022   4.354  0.8515  1.1806  0.3014
   89SAPE   C33 8675   5.056   6.254   5.708 -0.2852 -0.3350 -0.7666
   89SAPE   H3X 8676   4.948   6.238   5.727 -0.0529  0.4001  1.4204
   89SAPE   H3Y 8677   5.095   6.165   5.654  1.6426 -0.5547  0.8828
   89SAPE   C34 8678   5.073   6.384   5.631  0.2166 -0.4970 -0.1974
   89SAPE   H4X 8679   5.177   6.418   5.615  1.0785 -2.6402  0.5389
   89SAPE   H4Y 8680   5.010   6.456   5.687 -0.0708 -1.1555  0.3397
   89SAPE   C35 8681   5.021   6.359   5.485 -0.0380 -0.0639 -0.4699
   89SAPE   H5X 8682   5.041   6.257   5.447 -0.5049 -0.4365  0.2594
   89SAPE   H5Y 8683   5.072   6.432   5.419  0.4985 -0.5049 -0.5540
   89SAPE   C36 8684   4.874   6.383   5.481 -0.5070 -0.1479 -1.1025
   89SAPE   H6X 8685   4.859   6.491   5.501 -0.3949 -0.0301 -1.6371
   89SAPE   H6Y 8686   4.839   6.325   5.570  4.0820 -1.8838 -0.1667
   89SAPE   C37 8687   4.809   6.333   5.348 -0.4047 -0.1214 -0.1941
   89SAPE   H7X 8688   4.706   6.374   5.353 -0.8617 -0.8653 -2.5750
   89SAPE   H7Y 8689   4.827   6.224   5.347  0.9537 -0.1282  3.8679
   89SAPE   C38 8690   4.874   6.388   5.222 -0.0608 -0.2955 -0.4393
   89SAPE   H8X 8691   4.976   6.344   5.220  0.2960  0.5299 -1.0952
   89SAPE   H8Y 8692   4.877   6.499   5.229  0.6677 -0.4227  2.8144
   89SAPE   C39 8693   4.814   6.345   5.095  0.2360  0.3432 -0.8327
   89SAPE   H9X 8694   4.705   6.369   5.100 -0.1335 -1.0411 -1.6757
   89SAPE   H9Y 8695   4.824   6.235   5.097 -0.4797  0.2697 -0.8745
   89SAPE  C310 8696   4.891   6.405   4.980  0.0556  0.0231  0.3406
   89SAPE  H10X 8697   4.998   6.388   5.004  0.9395  1.4636 -2.1777
   89SAPE  H10Y 8698   4.881   6.516   4.986 -1.2174 -0.0328 -0.4833
   89SAPE  C311 8699   4.839   6.356   4.843  0.2874  0.8475 -0.3462
   89SAPE  H11X 8700   4.754   6.423   4.816 -1.6108 -1.6140 -0.8208
   89SAPE  H11Y 8701   4.814   6.248   4.853  3.5437  0.0347  0.1693
   89SAPE  C312 8702   4.960   6.360   4.751  0.0916  1.1250 -0.4447
   89SAPE  H12X 8703   5.031   6.293   4.803 -0.4749  0.7489 -0.1436
   89SAPE  H12Y 8704   5.011   6.459   4.749  2.6666 -0.1129 -0.2470
   89SAPE  C313 8705   4.923   6.307   4.613 -1.3316 -0.0533 -0.2980
   89SAPE  H13X 8706   4.911   6.197   4.616  1.7928 -0.4809  0.9955
   89SAPE  H13Y 8707   5.011   6.318   4.547 -1.1672 -1.0901 -0.2649
   89SAPE  C314 8708   4.794   6.371   4.552  0.9891  0.2861 -0.5361
   89SAPE  H14X 8709   4.807   6.481   4.553 -2.7173  0.8183  0.0846
   89SAPE  H14Y 8710   4.695   6.347   4.595  0.1018  1.0739 -2.0864
   89SAPE  C315 8711   4.793   6.324   4.402 -0.9265 -0.2267 -0.0742
   89SAPE  H15X 8712   4.795   6.213   4.396  2.4849 -0.1873 -2.2928
   89SAPE  H15Y 8713   4.885   6.366   4.356 -2.3355  2.3469 -0.7523
   89SAPE  C316 8714   4.675   6.372   4.323 -0.2778 -1.1971  0.0403
   89SAPE  H16X 8715   4.648   6.474   4.356 -3.3854 -1.2924 -1.7362
   89SAPE  H16Y 8716   4.588   6.311   4.357 -1.9845  0.1510 -1.6887
   89SAPE  C317 8717   4.697   6.359   4.172  0.2588 -0.7112  0.1047
   89SAPE  H17X 8718   4.597   6.357   4.123 -0.0533  0.1610  0.6829
   89SAPE  H17Y 8719   4.736   6.258   4.150  0.3266 -0.6835  0.0992
   89SAPE  C318 8720   4.791   6.468   4.117 -0.0839 -0.6987  0.1241
   89SAPE  H18X 8721   4.883   6.472   4.179  0.5025  1.2646 -0.7748
   89SAPE  H18Y 8722   4.748   6.567   4.146 -3.6927 -2.4689  1.3563
   89SAPE  H18Z 8723   4.819   6.448   4.011 -3.3975 -4.7575 -0.2372
   90SAPE     N 8724   5.837   5.597   6.601 -0.0285 -0.0619  0.4408
   90SAPE   HN1 8725   5.895   5.657   6.663 -3.8798  2.7962  1.7044
   90SAPE   HN2 8726   5.745   5.645   6.597 -0.0386 -0.1664 -1.1154
   90SAPE   HN3 8727   5.817   5.505   6.647 -1.9420  0.2115  0.2160
   90SAPE   C12 8728   5.885   5.586   6.463 -0.4184 -0.2781 -0.2239
   90SAPE  H12A 8729   5.832   5.505   6.407  1.5741 -2.3342  0.6977
   90SAPE  H12B 8730   5.991   5.556   6.477 -0.7468 -1.1755  0.4354
   90SAPE   C11 8731   5.876   5.722   6.390 -0.3607 -0.1013  0.1732
   90SAPE  H11A 8732   5.765   5.719   6.392 -0.4409  1.5945  0.3516
   90SAPE  H11B 8733   5.909   5.720   6.284 -3.5207  0.2020 -0.9312
   90SAPE     P 8734   6.069   5.895   6.442  0.0452  0.2285  0.2849
   90SAPE   O13 8735   6.044   6.031   6.393 -0.9073  0.5000 -0.1417
   90SAPE   O14 8736   6.146   5.891   6.565  0.0447 -0.7351 -0.2025
   90SAPE   O12 8737   5.934   5.822   6.473  0.0338 -0.3522  0.1940
   90SAPE   O11 8738   6.132   5.810   6.331 -1.0382 -0.5004 -0.4271
   90SAPE    C1 8739   6.122   5.843   6.191 -0.2680 -0.2117  0.1705
   90SAPE    HA 8740   6.081   5.754   6.139 -0.2227 -0.0866 -0.0837
   90SAPE    HB 8741   6.052   5.927   6.169  1.0893  0.8819 -0.1349
   90SAPE    C2 8742   6.262   5.885   6.135  0.5386  0.4161 -0.3508
   90SAPE    HS 8743   6.286   5.975   6.197 -0.3467 -0.1602  0.8810
   90SAPE   O21 8744   6.239   5.908   5.998 -0.0267  0.4981 -0.0004
   90SAPE   C21 8745   6.172   6.011   5.955  0.4138 -0.2998 -0.6467
   90SAPE   O22 8746   6.126   6.111   6.018  0.1869  0.4270 -0.9831
   90SAPE   C22 8747   6.150   6.009   5.809  0.1161  0.4399  0.0380
   90SAPE   H2R 8748   6.240   5.961   5.766  1.2319  0.9072  1.7626
   90SAPE   H2S 8749   6.060   5.948   5.785  0.4812 -0.8408  1.7790
   90SAPE    C3 8750   6.380   5.777   6.155  0.0018 -0.3241  0.0374
   90SAPE    HX 8751   6.333   5.685   6.116  0.2300  0.6707 -2.8517
   90SAPE    HY 8752   6.402   5.763   6.263 -0.5759 -1.9856 -0.0440
   90SAPE   O31 8753   6.505   5.801   6.084  0.1951 -0.1322 -0.4752
   90SAPE   C31 8754   6.588   5.887   6.154  0.4485  0.9395  0.3817
   90SAPE   O32 8755   6.568   5.920   6.273  0.0919  0.6939  0.6281
   90SAPE   C32 8756   6.709   5.938   6.072  0.9757 -0.0680 -0.3007
   90SAPE   H2X 8757   6.786   5.875   6.121  1.8533  1.0809 -0.1769
   90SAPE   H2Y 8758   6.740   6.041   6.100  0.6603  0.8009 -2.8633
   90SAPE   C23 8759   6.127   6.149   5.746 -0.3434 -0.2157  0.1912
   90SAPE   H3R 8760   6.216   6.214   5.763 -0.4796 -0.2459  1.0751
   90SAPE   H3S 8761   6.046   6.201   5.801  1.4760  2.2226  0.7373
   90SAPE   C24 8762   6.109   6.144   5.596 -0.5634 -0.2488  0.2549
   90SAPE   H4R 8763   6.191   6.085   5.550 -1.0181 -1.0361  0.4256
   90SAPE   H4S 8764   6.103   6.250   5.564 -0.4363 -0.3573 -0.1313
   90SAPE   C25 8765   5.981   6.080   5.548 -0.3524 -0.4574 -0.2939
   90SAPE   H5R 8766   5.897   6.086   5.617  0.0568  0.2753  0.1438
   90SAPE   C26 8767   5.960   6.018   5.431  0.2204 -0.1877  0.7453
   90SAPE   H6R 8768   5.859   5.985   5.403 -0.1637 -0.9386  2.8477
   90SAPE   C27 8769   6.064   6.009   5.316  0.1261  0.5492  0.1596
   90SAPE   H7R 8770   6.116   6.107   5.302  2.2886 -0.3579  1.3304
   90SAPE   H7S 8771   6.016   6.001   5.217 -1.5468 -0.0253  0.9815
   90SAPE   C28 8772   6.168   5.898   5.347 -0.3067  0.1414 -0.0710
   90SAPE   H8R 8773   6.204   5.900   5.451  3.0477 -0.0077 -1.1128
   90SAPE   C29 8774   6.215   5.816   5.255 -0.0886 -0.5523  0.1756
   90SAPE   H9R 8775   6.283   5.736   5.287  2.0439  0.6228 -1.2129
   90SAPE  C210 8776   6.188   5.807   5.106 -0.1406 -1.3452 -0.0677
   90SAPE  H10R 8777   6.080   5.807   5.077 -0.1819  1.4776 -0.1888
   90SAPE  H10S 8778   6.217   5.705   5.072  0.6796 -1.3960  0.7572
   90SAPE  C211 8779   6.246   5.918   5.019 -0.4725  0.1424 -0.5753
   90SAPE  H11R 8780   6.322   5.975   5.074 -1.8467  1.7960 -0.3029
   90SAPE  C212 8781   6.232   5.936   4.886 -0.1504  0.2497 -0.1160
   90SAPE  H12R 8782   6.277   6.025   4.840  0.5460 -0.0224  0.0253
   90SAPE  C213 8783   6.148   5.844   4.800 -0.1148  0.8703  0.5588
   90SAPE  H13R 8784   6.139   5.736   4.828 -0.6738  0.5497 -0.8018
   90SAPE  H13S 8785   6.206   5.854   4.706 -0.5254  2.4324  0.4446
   90SAPE  C214 8786   6.008   5.909   4.783  0.2107  0.0648  0.0604
   90SAPE  H14R 8787   6.000   6.000   4.844  0.8964 -0.4944  1.0153
   90SAPE  C215 8788   5.910   5.858   4.710  0.0429 -0.0698  0.8080
   90SAPE  H15R 8789   5.817   5.914   4.689  0.3392  0.9206  1.9836
   90SAPE  C216 8790   5.919   5.731   4.626 -0.8262  0.6058  0.5086
   90SAPE  H16R 8791   6.024   5.728   4.590 -0.2529 -0.9153  2.1240
   90SAPE  H16S 8792   5.857   5.739   4.535 -0.1954 -0.3044 -0.0161
   90SAPE  C217 8793   5.911   5.593   4.693  0.5055  0.7400 -0.2083
   90SAPE  H17R 8794   5.812   5.583   4.742 -0.9887  1.8569 -2.7964
   90SAPE  H17S 8795   5.986   5.579   4.774 -1.0072 -0.5475  1.0287
   90SAPE  C218 8796   5.946   5.478   4.594 -0.4935 -0.2562  0.4167
   90SAPE  H18R 8797   6.055   5.457   4.606 -0.0643  0.6059 -1.5412
   90SAPE  H18S 8798   5.927   5.502   4.487 -0.1860  1.3108  0.6956
   90SAPE  C219 8799   5.882   5.345   4.622  0.5470  0.1009  0.0824
   90SAPE  H19R 8800   5.773   5.352   4.603  0.6350 -2.5654 -2.0252
   90SAPE  H19S 8801   5.903   5.319   4.728  2.3806  1.8118  0.2138
   90SAPE  C220 8802   5.931   5.239   4.527 -0.2218 -0.3580  0.3805
   90SAPE  H20R 8803   5.952   5.277   4.425 -2.3898  2.9675  1.0047
   90SAPE  H20S 8804   5.861   5.152   4.522  0.6499 -1.0366 -0.3742
   90SAPE  H20T 8805   6.021   5.187   4.566 -1.2351 -2.7830 -0.2998
   90SAPE   C33 8806   6.714   5.920   5.917  0.6491  0.4695 -0.0990
   90SAPE   H3X 8807   6.716   5.812   5.889 -1.8579  0.4456 -0.4280
   90SAPE   H3Y 8808   6.811   5.964   5.884  0.3650  2.2712  1.3277
   90SAPE   C34 8809   6.599   5.982   5.838 -0.7927  0.5917  0.4386
   90SAPE   H4X 8810   6.562   6.077   5.882  0.4872  1.7847 -0.9340
   90SAPE   H4Y 8811   6.511   5.915   5.834 -0.5980  0.3680 -0.4257
   90SAPE   C35 8812   6.635   6.013   5.686  0.2670  0.0537  0.1408
   90SAPE   H5X 8813   6.658   5.922   5.626 -1.0024 -1.2461  1.5192
   90SAPE   H5Y 8814   6.727   6.075   5.686  0.2148  0.1338  0.7078
   90SAPE   C36 8815   6.529   6.103   5.613 -0.7395  0.1527 -0.8097
   90SAPE   H6X 8816   6.520   6.209   5.646  2.0736  0.1282  0.2725
   90SAPE   H6Y 8817   6.429   6.054   5.621 -0.4465 -0.2630  0.7633
   90SAPE   C37 8818   6.570   6.116   5.463 -0.6142  0.4044  0.0675
   90SAPE   H7X 8819   6.582   6.017   5.415 -1.4044  0.4104 -0.1639
   90SAPE   H7Y 8820   6.671   6.162   5.462  1.6342 -3.7761  2.9758
   90SAPE   C38 8821   6.467   6.196   5.388  0.0080  0.8290  0.6253
   90SAPE   H8X 8822   6.412   6.261   5.460 -3.0884 -1.7106  0.7602
   90SAPE   H8Y 8823   6.385   6.130   5.353  0.3478  0.7085  0.0404
   90SAPE   C39 8824   6.521   6.260   5.260 -0.2568  0.3515  0.8973
   90SAPE   H9X 8825   6.576   6.185   5.200  0.2016  1.3110  0.0906
   90SAPE   H9Y 8826   6.582   6.350   5.280  0.8915 -0.6104  1.8163
   90SAPE  C310 8827   6.401   6.295   5.163 -0.2308  0.1805 -0.1683
   90SAPE  H10X 8828   6.328   6.355   5.222 -2.5548  0.0926 -2.7558
   90SAPE  H10Y 8829   6.346   6.206   5.125 -1.5918  2.5767 -4.5222
   90SAPE  C311 8830   6.439   6.365   5.030  0.2284 -0.3186  0.5506
   90SAPE  H11X 8831   6.479   6.464   5.059  0.1984 -0.6261  1.6742
   90SAPE  H11Y 8832   6.349   6.384   4.966 -0.4482 -2.5323  0.7550
   90SAPE  C312 8833   6.551   6.298   4.940 -0.2599  0.4904 -0.1393
   90SAPE  H12X 8834   6.504   6.198   4.929 -2.9303  1.5638  0.6067
   90SAPE  H12Y 8835   6.640   6.296   5.005  0.0569 -0.1701 -0.5767
   90SAPE  C313 8836   6.582   6.369   4.806 -0.0248 -0.5098 -0.5911
   90SAPE  H13X 8837   6.630   6.465   4.836 -0.4323  0.2289 -2.1826
   90SAPE  H13Y 8838   6.481   6.384   4.763 -0.3542 -1.4970 -0.1808
   90SAPE  C314 8839   6.679   6.286   4.718  0.0127  0.7029  0.3696
   90SAPE  H14X 8840   6.609   6.228   4.655  0.0649  1.3468 -0.2893
   90SAPE  H14Y 8841   6.732   6.210   4.780 -2.3415 -0.2144  1.3743
   90SAPE  C315 8842   6.778   6.375   4.643  0.1113  0.2870  0.0540
   90SAPE  H15X 8843   6.846   6.437   4.705 -0.1903  0.7431 -0.0707
   90SAPE  H15Y 8844   6.716   6.449   4.589  1.2281  1.2916  0.0978
   90SAPE  C316 8845   6.871   6.302   4.539 -0.4166 -0.3252 -0.1092
   90SAPE  H16X 8846   6.821   6.211   4.500  0.0572  0.4152 -2.5848
   90SAPE  H16Y 8847   6.965   6.272   4.589 -1.3338 -2.1540  0.6053
   90SAPE  C317 8848   6.905   6.390   4.416 -0.1147 -0.2566 -0.0630
   90SAPE  H17X 8849   6.961   6.482   4.446  0.8168 -2.3424  5.9731
   90SAPE  H17Y 8850   6.809   6.425   4.373 -1.4516 -1.8555  1.4874
   90SAPE  C318 8851   6.999   6.332   4.313  0.0021 -0.0289  0.1937
   90SAPE  H18X 8852   7.051   6.406   4.248  0.6335  0.3090  1.0602
   90SAPE  H18Y 8853   6.940   6.259   4.254 -2.4513  0.2115  2.2067
   90SAPE  H18Z 8854   7.082   6.274   4.359  0.8184 -0.9316 -2.2544
   91SAPE     N 8855   4.162   6.624   6.539 -0.5053  0.9179 -0.2854
   91SAPE   HN1 8856   4.179   6.603   6.438  0.4729 -2.0088  0.3769
   91SAPE   HN2 8857   4.058   6.620   6.548 -1.2364  0.6105 -5.5086
   91SAPE   HN3 8858   4.191   6.721   6.562  0.9800  0.2019  0.9908
   91SAPE   C12 8859   4.238   6.521   6.627  0.1575 -0.7377  0.4040
   91SAPE  H12A 8860   4.216   6.550   6.732  1.0792  1.2876  0.0754
   91SAPE  H12B 8861   4.345   6.548   6.616  0.2049 -0.9870  0.2470
   91SAPE   C11 8862   4.205   6.373   6.601 -0.7868  0.0344  0.4884
   91SAPE  H11A 8863   4.273   6.315   6.667  0.2124 -0.3775 -0.8434
   91SAPE  H11B 8864   4.241   6.339   6.501 -0.9626  1.1725  0.0254
   91SAPE     P 8865   4.006   6.220   6.547  0.0830 -0.2216 -0.1958
   91SAPE   O13 8866   4.085   6.101   6.580 -0.5763  0.6157  0.0907
   91SAPE   O14 8867   3.868   6.215   6.587  0.3236  0.1463 -0.3651
   91SAPE   O12 8868   4.070   6.352   6.617 -0.0618 -0.5345 -0.9055
   91SAPE   O11 8869   4.017   6.256   6.399  0.0392 -0.1042  0.4063
   91SAPE    C1 8870   3.948   6.188   6.293 -0.3311  0.0378  0.4749
   91SAPE    HA 8871   4.005   6.094   6.275 -0.0971  0.3527 -0.4653
   91SAPE    HB 8872   3.846   6.155   6.324 -0.8652  1.0542 -0.1478
   91SAPE    C2 8873   3.952   6.263   6.160  0.9505 -0.2913  0.1298
   91SAPE    HS 8874   3.892   6.204   6.088 -0.1178  1.1875 -0.2546
   91SAPE   O21 8875   4.089   6.287   6.121  0.2743  0.1996  0.8692
   91SAPE   C21 8876   4.149   6.189   6.057  0.5242  0.3173  0.4075
   91SAPE   O22 8877   4.098   6.086   6.023  0.0372 -0.2789  0.1053
   91SAPE   C22 8878   4.295   6.221   6.026 -0.1317 -0.1309  0.3510
   91SAPE   H2R 8879   4.332   6.321   6.057  1.9739 -0.8019  0.1578
   91SAPE   H2S 8880   4.356   6.159   6.095  2.0327  0.2143 -1.1511
   91SAPE    C3 8881   3.883   6.398   6.167 -0.0529  0.6478 -0.0301
   91SAPE    HX 8882   3.935   6.473   6.230 -0.1978 -0.5655  1.5908
   91SAPE    HY 8883   3.794   6.386   6.232  1.8610 -0.1255  2.6372
   91SAPE   O31 8884   3.844   6.458   6.042 -0.2551 -0.3245  0.6385
   91SAPE   C31 8885   3.941   6.522   5.978 -0.1108 -0.1763 -0.1864
   91SAPE   O32 8886   4.046   6.560   6.027  0.2137 -0.1064 -0.2495
   91SAPE   C32 8887   3.907   6.538   5.828 -0.2035  0.4151  0.3100
   91SAPE   H2X 8888   3.841   6.627   5.819 -0.2178  0.4253  0.5046
   91SAPE   H2Y 8889   3.859   6.441   5.806  0.6505 -0.2828  1.4133
   91SAPE   C23 8890   4.339   6.198   5.877  0.4755  0.4751 -0.2123
   91SAPE   H3R 8891   4.281   6.265   5.809 -0.5453  2.6754  2.6282
   91SAPE   H3S 8892   4.311   6.093   5.857  0.2219  0.2073  1.4100
   91SAPE   C24 8893   4.492   6.226   5.862 -0.5901  0.3576 -0.1937
   91SAPE   H4R 8894   4.541   6.146   5.920 -0.3853 -0.7586 -1.8575
   91SAPE   H4S 8895   4.525   6.321   5.909  1.3973  0.5436 -1.8415
   91SAPE   C25 8896   4.558   6.226   5.726 -0.0810 -0.6356 -0.1438
   91SAPE   H5R 8897   4.541   6.321   5.674 -0.8905 -0.2935  0.7160
   91SAPE   C26 8898   4.614   6.128   5.654 -0.0112 -0.4683  0.3543
   91SAPE   H6R 8899   4.670   6.157   5.564  1.6899 -0.6874  1.3051
   91SAPE   C27 8900   4.636   5.990   5.703 -0.1668 -0.8815 -0.1681
   91SAPE   H7R 8901   4.658   5.948   5.602  1.3872  0.7168 -0.5328
   91SAPE   H7S 8902   4.537   5.954   5.741 -0.4132 -0.7794 -0.7002
   91SAPE   C28 8903   4.751   5.966   5.799  0.2795  0.8215  0.5120
   91SAPE   H8R 8904   4.728   5.999   5.901  0.3929 -0.1119  0.8479
   91SAPE   C29 8905   4.868   5.904   5.765 -0.0778 -0.0365 -0.3698
   91SAPE   H9R 8906   4.950   5.917   5.838  0.7686 -0.2415 -1.2702
   91SAPE  C210 8907   4.922   5.863   5.630  0.1380  0.7784 -0.8444
   91SAPE  H10R 8908   4.888   5.758   5.622  0.2554  0.7703 -1.2854
   91SAPE  H10S 8909   5.033   5.865   5.641  0.0965  0.5573 -0.3782
   91SAPE  C211 8910   4.885   5.933   5.504 -0.5685  0.2770  1.2334
   91SAPE  H11R 8911   4.881   6.041   5.522  1.0917  0.9070 -1.6146
   91SAPE  C212 8912   4.836   5.877   5.392  0.5180  0.1815  0.3188
   91SAPE  H12R 8913   4.820   5.939   5.303 -0.9939  0.0221  0.4519
   91SAPE  C213 8914   4.813   5.731   5.358  0.4018 -0.3036  0.4285
   91SAPE  H13R 8915   4.706   5.703   5.365 -0.3322  1.8865 -1.0739
   91SAPE  H13S 8916   4.886   5.677   5.422 -0.3114 -0.1356  1.4048
   91SAPE  C214 8917   4.863   5.709   5.218 -0.2368 -0.2304 -0.4617
   91SAPE  H14R 8918   4.965   5.668   5.224  0.0013  0.5370  4.2097
   91SAPE  C215 8919   4.805   5.741   5.101  0.4430  0.3756  0.3143
   91SAPE  H15R 8920   4.868   5.736   5.010  0.3259 -0.4265  0.2677
   91SAPE  C216 8921   4.667   5.777   5.076 -0.3010 -0.6891 -0.2046
   91SAPE  H16R 8922   4.614   5.807   5.169 -3.6771 -0.3839 -2.0629
   91SAPE  H16S 8923   4.614   5.691   5.030 -1.0218 -0.5327  0.3023
   91SAPE  C217 8924   4.656   5.903   4.988 -0.3773 -0.0655 -0.4850
   91SAPE  H17R 8925   4.722   5.912   4.899  1.7340 -1.1726  0.8640
   91SAPE  H17S 8926   4.688   5.977   5.064  1.1696  0.9773 -2.0717
   91SAPE  C218 8927   4.507   5.939   4.958 -1.0827  0.9094 -0.4545
   91SAPE  H18R 8928   4.490   6.047   4.978  1.5505  1.1554  0.9115
   91SAPE  H18S 8929   4.435   5.896   5.030 -0.1388 -0.3839 -0.2511
   91SAPE  C219 8930   4.471   5.912   4.813 -0.7315  0.0411 -0.1012
   91SAPE  H19R 8931   4.536   5.963   4.739 -0.3797 -0.8069 -0.3846
   91SAPE  H19S 8932   4.366   5.948   4.801 -0.6512  0.3409  0.0761
   91SAPE  C220 8933   4.461   5.761   4.789 -0.5658 -0.7100  0.3297
   91SAPE  H20R 8934   4.393   5.733   4.705 -1.3129  2.3789 -0.2468
   91SAPE  H20S 8935   4.440   5.713   4.887 -0.8216  0.0074  0.6376
   91SAPE  H20T 8936   4.558   5.717   4.758 -0.9001 -1.2399  0.0301
   91SAPE   C33 8937   4.030   6.561   5.737 -0.5772 -0.5611  1.1158
   91SAPE   H3X 8938   4.107   6.485   5.761  2.3244  1.6002 -0.6059
   91SAPE   H3Y 8939   4.079   6.658   5.761 -0.4727 -0.4768  0.5745
   91SAPE   C34 8940   3.997   6.558   5.583 -0.2692 -0.3401 -0.0623
   91SAPE   H4X 8941   3.948   6.464   5.549  0.9156 -2.5634  3.7376
   91SAPE   H4Y 8942   4.089   6.570   5.523  0.1776 -1.9858  0.2412
   91SAPE   C35 8943   3.898   6.675   5.552  0.6129  0.2166  1.1234
   91SAPE   H5X 8944   3.939   6.761   5.609  0.3442 -0.4320  2.3108
   91SAPE   H5Y 8945   3.797   6.658   5.594 -0.2058  1.9391 -0.0023
   91SAPE   C36 8946   3.889   6.725   5.404 -0.9108  0.1536 -0.7212
   91SAPE   H6X 8947   3.835   6.822   5.405 -0.5365  0.3636 -0.5639
   91SAPE   H6Y 8948   3.827   6.651   5.348  0.2775 -1.7119  0.3159
   91SAPE   C37 8949   4.020   6.743   5.324  1.0295  0.2423 -0.0384
   91SAPE   H7X 8950   4.065   6.641   5.320  0.3872 -0.0332 -0.3476
   91SAPE   H7Y 8951   4.099   6.811   5.362  0.9897  0.4845 -0.3797
   91SAPE   C38 8952   3.992   6.794   5.183 -0.6434 -0.2100 -0.6356
   91SAPE   H8X 8953   3.944   6.890   5.210 -1.4531 -1.2018  1.7588
   91SAPE   H8Y 8954   3.923   6.722   5.134  0.4239 -1.3261 -0.5594
   91SAPE   C39 8955   4.124   6.803   5.100 -0.0111  0.5382 -0.0646
   91SAPE   H9X 8956   4.177   6.706   5.110 -2.3135 -1.0434 -2.0785
   91SAPE   H9Y 8957   4.183   6.885   5.146 -1.5951  1.9160 -0.3614
   91SAPE  C310 8958   4.102   6.823   4.954 -0.0416  0.7803  0.5299
   91SAPE  H10X 8959   4.035   6.911   4.940  0.9203  1.4132 -0.2297
   91SAPE  H10Y 8960   4.036   6.742   4.916 -2.0569  3.0314 -1.0696
   91SAPE  C311 8961   4.224   6.842   4.867  0.5852 -0.1203  0.1672
   91SAPE  H11X 8962   4.287   6.751   4.871 -0.6950 -1.0569 -0.3741
   91SAPE  H11Y 8963   4.283   6.923   4.914 -0.4033  1.2698 -0.8968
   91SAPE  C312 8964   4.199   6.896   4.723  0.2733  1.0394 -0.3117
   91SAPE  H12X 8965   4.298   6.886   4.673  1.3699 -1.0995  2.0253
   91SAPE  H12Y 8966   4.164   7.000   4.735 -0.3680  0.9332 -1.1681
   91SAPE  C313 8967   4.102   6.813   4.635 -0.0176 -0.2249 -0.1872
   91SAPE  H13X 8968   3.999   6.834   4.672  0.7198  3.5515  0.0239
   91SAPE  H13Y 8969   4.121   6.703   4.629 -1.0485 -0.3812 -0.8732
   91SAPE  C314 8970   4.104   6.863   4.489 -0.3276 -0.0769 -0.6087
   91SAPE  H14X 8971   4.206   6.842   4.451 -0.0081 -1.5064  0.9272
   91SAPE  H14Y 8972   4.067   6.967   4.500 -1.1609 -0.3965 -0.3113
   91SAPE  C315 8973   4.003   6.791   4.405  0.0184 -0.5335 -0.1860
   91SAPE  H15X 8974   4.054   6.701   4.365  2.7281  1.2647 -1.0738
   91SAPE  H15Y 8975   3.991   6.860   4.318  1.3817 -0.7152 -0.5412
   91SAPE  C316 8976   3.868   6.763   4.465 -0.0046 -0.7528  0.5049
   91SAPE  H16X 8977   3.831   6.858   4.510  1.0629 -0.9168  1.7953
   91SAPE  H16Y 8978   3.880   6.691   4.548  1.0320 -1.2749 -0.0856
   91SAPE  C317 8979   3.770   6.712   4.356  0.0198  0.5050 -0.0240
   91SAPE  H17X 8980   3.806   6.621   4.303 -1.3087 -0.0530 -0.0242
   91SAPE  H17Y 8981   3.763   6.792   4.279 -0.2040  0.4232 -0.0905
   91SAPE  C318 8982   3.635   6.678   4.415  0.0879  0.5814  0.0589
   91SAPE  H18X 8983   3.581   6.767   4.455  0.6183  0.1349  1.8576
   91SAPE  H18Y 8984   3.646   6.601   4.494  0.0392 -1.3265 -1.7230
   91SAPE  H18Z 8985   3.582   6.621   4.336  1.9028 -1.7186  0.3951
   92SAPE     N 8986   2.993   0.748   6.937  0.1795 -0.1067  0.3530
   92SAPE   HN1 8987   2.931   0.721   7.015 -3.7927  1.8608 -1.8233
   92SAPE   HN2 8988   3.003   0.851   6.927  2.6734 -0.4574 -1.7486
   92SAPE   HN3 8989   2.957   0.709   6.847 -0.8087 -0.6439  0.9638
   92SAPE   C12 8990   3.135   0.701   6.958 -0.0442 -0.3717 -0.2663
   92SAPE  H12A 8991   3.120   0.605   7.012 -3.4368  0.6594  0.8716
   92SAPE  H12B 8992   3.181   0.774   7.028 -0.5530 -0.1495 -0.1638
   92SAPE   C11 8993   3.216   0.707   6.824 -0.1362  0.5383 -0.1002
   92SAPE  H11A 8994   3.233   0.815   6.802 -0.0739  0.4435 -0.5227
   92SAPE  H11B 8995   3.162   0.655   6.742 -3.1489  3.2301 -0.0359
   92SAPE     P 8996   3.421   0.548   6.771 -0.1762  0.0861  0.0648
   92SAPE   O13 8997   3.568   0.553   6.790  0.1161 -0.0193 -0.5281
   92SAPE   O14 8998   3.349   0.427   6.810 -0.2150  0.1040  0.3502
   92SAPE   O12 8999   3.354   0.668   6.850  0.0511 -0.0364  0.8097
   92SAPE   O11 9000   3.388   0.569   6.623 -0.5611  0.1275  0.0648
   92SAPE    C1 9001   3.374   0.695   6.556 -0.2494 -0.8668 -0.1826
   92SAPE    HA 9002   3.268   0.716   6.531  0.0131 -0.6815 -1.1872
   92SAPE    HB 9003   3.406   0.779   6.621  2.6974 -0.3940 -2.0436
   92SAPE    C2 9004   3.470   0.702   6.429 -0.2816 -0.2846 -0.7280
   92SAPE    HS 9005   3.450   0.794   6.370  3.2017  0.4610 -0.9894
   92SAPE   O21 9006   3.464   0.589   6.348 -0.2233  0.0509 -0.3332
   92SAPE   C21 9007   3.346   0.562   6.301 -0.6358 -0.0543 -0.8168
   92SAPE   O22 9008   3.251   0.635   6.291 -0.8021  0.1082  0.0491
   92SAPE   C22 9009   3.357   0.421   6.249  0.0421 -0.0839  0.4636
   92SAPE   H2R 9010   3.459   0.377   6.256  0.4281  0.4151 -1.3676
   92SAPE   H2S 9011   3.285   0.364   6.311 -2.8330  1.2764 -1.4302
   92SAPE    C3 9012   3.621   0.711   6.486  0.7474  0.2413 -0.1020
   92SAPE    HX 9013   3.641   0.616   6.539 -1.0146  0.8436  1.8010
   92SAPE    HY 9014   3.629   0.799   6.553  0.9036  1.1196 -1.2419
   92SAPE   O31 9015   3.715   0.738   6.381  0.8044  0.1846 -0.0978
   92SAPE   C31 9016   3.797   0.637   6.342  0.3561 -0.0782 -0.4465
   92SAPE   O32 9017   3.775   0.523   6.364 -0.2474  0.4735 -0.0514
   92SAPE   C32 9018   3.914   0.689   6.260  0.3186 -0.7912  0.3247
   92SAPE   H2X 9019   3.967   0.609   6.204  1.2220  0.9433 -1.4300
   92SAPE   H2Y 9020   3.984   0.741   6.329 -1.6728  1.1308  0.9893
   92SAPE   C23 9021   3.295   0.413   6.110  0.2081  0.3561  0.4428
   92SAPE   H3R 9022   3.217   0.490   6.093  1.2678  1.3945  0.1570
   92SAPE   H3S 9023   3.248   0.312   6.106  2.3198 -0.6895  0.0249
   92SAPE   C24 9024   3.405   0.409   5.999  0.1763  0.5256  0.1832
   92SAPE   H4R 9025   3.349   0.363   5.915  0.3784 -0.8043  0.7450
   92SAPE   H4S 9026   3.488   0.343   6.033 -1.3143 -1.4236  0.2112
   92SAPE   C25 9027   3.457   0.550   5.968 -0.2415  0.2616 -0.0038
   92SAPE   H5R 9028   3.453   0.620   6.053  1.3163 -0.7837  0.9977
   92SAPE   C26 9029   3.505   0.587   5.851  0.0031  0.2791 -0.0333
   92SAPE   H6R 9030   3.518   0.695   5.831 -1.5238  0.3686 -0.6236
   92SAPE   C27 9031   3.528   0.500   5.733 -0.5431 -0.0864  0.3786
   92SAPE   H7R 9032   3.556   0.395   5.758 -2.0975 -0.6133  0.0429
   92SAPE   H7S 9033   3.617   0.533   5.675  1.2451 -1.8829  1.9691
   92SAPE   C28 9034   3.410   0.494   5.644  0.5483  0.5862 -0.2584
   92SAPE   H8R 9035   3.311   0.518   5.687  0.6649  2.4090 -0.9222
   92SAPE   C29 9036   3.421   0.472   5.512 -0.1548 -0.1947  0.7807
   92SAPE   H9R 9037   3.330   0.461   5.451 -0.3903 -0.4177  1.1615
   92SAPE  C210 9038   3.549   0.466   5.421 -0.2927 -0.7130 -0.5980
   92SAPE  H10R 9039   3.599   0.367   5.432  2.0249  0.2417 -1.9430
   92SAPE  H10S 9040   3.622   0.538   5.463 -0.2642 -1.4250  0.6129
   92SAPE  C211 9041   3.536   0.503   5.274  0.6643 -0.2811 -0.1720
   92SAPE  H11R 9042   3.441   0.551   5.243  0.3175 -2.4882 -2.9300
   92SAPE  C212 9043   3.628   0.490   5.175 -0.2969 -1.0758  0.2313
   92SAPE  H12R 9044   3.598   0.522   5.074  2.0611  2.8248  0.5829
   92SAPE  C213 9045   3.759   0.431   5.193 -0.2810 -0.3423  0.1721
   92SAPE  H13R 9046   3.745   0.331   5.146 -0.1978  0.7295 -2.2399
   92SAPE  H13S 9047   3.785   0.423   5.301  3.1725 -0.2833 -0.5308
   92SAPE  C214 9048   3.865   0.507   5.129 -0.5457 -0.0553 -0.2776
   92SAPE  H14R 9049   3.934   0.566   5.190 -0.9369  0.5637 -0.4200
   92SAPE  C215 9050   3.892   0.490   4.999  0.4002 -0.3788 -0.0154
   92SAPE  H15R 9051   3.976   0.549   4.957 -0.4103  1.6146  1.0036
   92SAPE  C216 9052   3.818   0.398   4.904 -0.2582  0.4253 -0.4507
   92SAPE  H16R 9053   3.795   0.449   4.808 -1.1767 -2.0646 -1.6418
   92SAPE  H16S 9054   3.715   0.370   4.935 -1.1495  1.6396 -2.1905
   92SAPE  C217 9055   3.897   0.266   4.875 -0.0239 -0.5994 -0.4091
   92SAPE  H17R 9056   3.890   0.200   4.964 -1.3528  0.0052 -0.0564
   92SAPE  H17S 9057   4.006   0.280   4.857 -0.1227 -0.5562 -0.9693
   92SAPE  C218 9058   3.820   0.177   4.781  0.0806  0.1198  0.8635
   92SAPE  H18R 9059   3.890   0.105   4.733  0.2378  1.1788 -0.5938
   92SAPE  H18S 9060   3.776   0.233   4.695 -0.2214 -1.5604 -0.1062
   92SAPE  C219 9061   3.699   0.108   4.853 -0.3914 -0.1002  0.2940
   92SAPE  H19R 9062   3.616   0.181   4.865  1.3077  2.0744 -0.5581
   92SAPE  H19S 9063   3.725   0.072   4.955  3.7090  0.3143 -0.4305
   92SAPE  C220 9064   3.634  -0.011   4.779 -0.7522 -0.1314 -0.1282
   92SAPE  H20R 9065   3.714  -0.077   4.740 -1.2500 -0.3474 -0.7937
   92SAPE  H20S 9066   3.572   0.017   4.692  0.0946 -0.3909 -0.8233
   92SAPE  H20T 9067   3.572  -0.069   4.851 -2.1224  0.3736 -0.8543
   92SAPE   C33 9068   3.867   0.791   6.156  0.4959 -0.2904  0.1829
   92SAPE   H3X 9069   3.952   0.808   6.086  0.2482  2.3775  0.4159
   92SAPE   H3Y 9070   3.854   0.887   6.211  1.8853 -0.3347  0.6277
   92SAPE   C34 9071   3.750   0.748   6.068  0.2932  0.8981  0.3699
   92SAPE   H4X 9072   3.652   0.745   6.120  1.0977  1.9267  2.0044
   92SAPE   H4Y 9073   3.773   0.649   6.025  0.3506  1.6782 -1.5111
   92SAPE   C35 9074   3.741   0.846   5.948 -0.0600 -0.7411  0.0896
   92SAPE   H5X 9075   3.772   0.942   5.993  0.6826 -0.2998 -1.2916
   92SAPE   H5Y 9076   3.636   0.847   5.913 -0.1869  1.9963  0.3769
   92SAPE   C36 9077   3.828   0.811   5.825  0.1275  0.7415  0.0281
   92SAPE   H6X 9078   3.794   0.709   5.796  0.2344  0.2504  1.5280
   92SAPE   H6Y 9079   3.934   0.802   5.856  0.7282 -0.0067 -2.0480
   92SAPE   C37 9080   3.815   0.908   5.704  0.1116 -0.4144 -0.4070
   92SAPE   H7X 9081   3.872   0.997   5.738 -1.9820  0.8883 -0.1078
   92SAPE   H7Y 9082   3.712   0.942   5.680  0.2550 -0.0863 -0.5525
   92SAPE   C38 9083   3.884   0.840   5.588  0.1806 -0.0810  0.1285
   92SAPE   H8X 9084   3.825   0.751   5.558 -1.3620  0.0786  2.4426
   92SAPE   H8Y 9085   3.984   0.807   5.624 -0.9228 -3.0118  0.8012
   92SAPE   C39 9086   3.888   0.929   5.468  0.2045  0.1499 -0.7440
   92SAPE   H9X 9087   3.948   1.021   5.486 -2.6066  2.3088 -1.7130
   92SAPE   H9Y 9088   3.785   0.968   5.459  0.2814 -0.1345 -4.1316
   92SAPE  C310 9089   3.928   0.850   5.345 -0.2019  0.4695  0.2076
   92SAPE  H10X 9090   3.848   0.773   5.338  1.8308 -1.8795  1.4190
   92SAPE  H10Y 9091   4.025   0.796   5.346  0.8491  2.2210 -1.0083
   92SAPE  C311 9092   3.928   0.927   5.208 -0.1327 -0.5432 -0.2410
   92SAPE  H11X 9093   3.825   0.966   5.188 -0.1882  0.9190  2.3414
   92SAPE  H11Y 9094   3.941   0.850   5.129  1.1725  1.2107 -1.8125
   92SAPE  C312 9095   4.035   1.035   5.196  0.1745 -0.3080  0.5855
   92SAPE  H12X 9096   4.119   0.999   5.258  0.1414  0.2713  0.9783
   92SAPE  H12Y 9097   3.993   1.118   5.258  0.0251  0.2935 -0.3076
   92SAPE  C313 9098   4.069   1.078   5.055  0.0593 -0.5384  0.2727
   92SAPE  H13X 9099   4.128   1.172   5.059  2.4007 -1.9096 -0.1823
   92SAPE  H13Y 9100   3.971   1.112   5.016  0.4380  1.2609  0.8312
   92SAPE  C314 9101   4.116   0.970   4.960 -0.8997  0.1224  0.4903
   92SAPE  H14X 9102   4.043   0.886   4.963 -0.6951 -0.0402  1.6930
   92SAPE  H14Y 9103   4.217   0.931   4.987 -0.7282 -0.7062 -1.2243
   92SAPE  C315 9104   4.137   1.018   4.818 -0.1911 -0.2398 -0.3199
   92SAPE  H15X 9105   4.219   1.093   4.812 -1.6307  1.2840 -1.5134
   92SAPE  H15Y 9106   4.053   1.077   4.778 -0.6586  1.5522  2.9932
   92SAPE  C316 9107   4.176   0.899   4.730  0.2078 -0.0330  0.5787
   92SAPE  H16X 9108   4.107   0.811   4.734 -1.3144  1.0563 -0.6265
   92SAPE  H16Y 9109   4.273   0.861   4.771  1.3145  0.7428 -1.2073
   92SAPE  C317 9110   4.192   0.939   4.590  0.3589  0.2422  0.5334
   92SAPE  H17X 9111   4.220   0.852   4.527 -1.5940  0.0923 -0.1943
   92SAPE  H17Y 9112   4.274   1.013   4.574 -0.7487  1.4925  0.5124
   92SAPE  C318 9113   4.056   0.994   4.523 -0.1411 -0.4372 -0.2181
   92SAPE  H18X 9114   4.060   1.010   4.414 -1.6930 -0.4890 -0.2999
   92SAPE  H18Y 9115   4.022   1.091   4.564  0.3190 -0.1847 -0.4317
   92SAPE  H18Z 9116   3.974   0.923   4.546 -2.1656  1.5570 -0.8841
   93SAPE     N 9117   3.135   1.816   6.738 -0.1317  0.2314  0.4038
   93SAPE   HN1 9118   3.190   1.742   6.690 -0.7579  0.4898 -0.7756
   93SAPE   HN2 9119   3.034   1.822   6.713 -0.5040  1.4378  2.0611
   93SAPE   HN3 9120   3.180   1.904   6.707 -1.5959  0.3330 -1.6950
   93SAPE   C12 9121   3.133   1.789   6.888  0.1886  0.1882  0.1250
   93SAPE  H12A 9122   3.218   1.842   6.935  2.1416 -2.3549 -0.3474
   93SAPE  H12B 9123   3.142   1.679   6.899 -1.0195  0.1856  1.3708
   93SAPE   C11 9124   3.006   1.848   6.942 -0.4137  0.3751 -0.8585
   93SAPE  H11A 9125   3.005   1.853   7.053 -2.6593  2.3000 -0.8664
   93SAPE  H11B 9126   2.914   1.789   6.920 -1.0643  0.7468  0.6882
   93SAPE     P 9127   3.040   2.106   6.982  0.2579 -0.5532 -0.1613
   93SAPE   O13 9128   2.934   2.157   7.070 -0.0090 -0.0628 -0.1283
   93SAPE   O14 9129   3.172   2.069   7.030  0.5069  0.2221  0.0434
   93SAPE   O12 9130   2.981   1.984   6.902  0.0164  0.6722 -0.1169
   93SAPE   O11 9131   3.062   2.201   6.859  0.0509  0.0984  0.3220
   93SAPE    C1 9132   2.951   2.237   6.778  0.2389  0.1632  0.9674
   93SAPE    HA 9133   2.847   2.214   6.810  0.0703  2.0044  1.9139
   93SAPE    HB 9134   2.956   2.348   6.766  0.1728  0.1185  0.4816
   93SAPE    C2 9135   2.944   2.175   6.633 -0.0987  0.1890  0.4288
   93SAPE    HS 9136   2.957   2.066   6.651  0.6092  0.6331  2.8206
   93SAPE   O21 9137   3.054   2.235   6.564  0.4030 -0.1851 -0.0496
   93SAPE   C21 9138   3.160   2.155   6.552 -0.1883  0.0081  0.2125
   93SAPE   O22 9139   3.171   2.044   6.598  0.2930 -0.3064 -0.3394
   93SAPE   C22 9140   3.266   2.220   6.465 -0.1111 -0.0707  0.4087
   93SAPE   H2R 9141   3.215   2.306   6.417 -1.7495 -1.5023 -0.5556
   93SAPE   H2S 9142   3.349   2.261   6.526  0.4345  2.8073 -2.0793
   93SAPE    C3 9143   2.810   2.189   6.558  0.1821 -0.7644  0.0364
   93SAPE    HX 9144   2.770   2.293   6.557 -0.1854 -0.9013 -0.3963
   93SAPE    HY 9145   2.737   2.132   6.619  0.7273 -1.2039  0.2744
   93SAPE   O31 9146   2.818   2.136   6.426 -0.0387 -0.3098 -0.3236
   93SAPE   C31 9147   2.734   2.038   6.399  0.2507  0.3153 -0.2031
   93SAPE   O32 9148   2.634   2.009   6.463  0.9667  0.3877  0.0897
   93SAPE   C32 9149   2.770   1.962   6.276 -0.1451  0.6319 -0.5403
   93SAPE   H2X 9150   2.881   1.966   6.270  0.0226 -2.0952 -0.6880
   93SAPE   H2Y 9151   2.723   2.016   6.191 -2.4473 -0.8365 -0.2701
   93SAPE   C23 9152   3.317   2.115   6.361  0.2877 -0.1161 -0.7261
   93SAPE   H3R 9153   3.350   2.017   6.401  1.0795  0.4117 -0.0506
   93SAPE   H3S 9154   3.405   2.163   6.314 -0.0339  0.5594 -0.6580
   93SAPE   C24 9155   3.207   2.098   6.250 -0.4723 -0.5633  0.6257
   93SAPE   H4R 9156   3.194   2.197   6.202  0.7484 -0.1728  1.0633
   93SAPE   H4S 9157   3.114   2.055   6.293 -0.6613 -0.3719  0.4117
   93SAPE   C25 9158   3.279   2.011   6.148 -1.1687  0.4982  0.6739
   93SAPE   H5R 9159   3.331   1.927   6.196 -0.0416  0.1285 -1.0810
   93SAPE   C26 9160   3.275   2.015   6.008 -0.3934 -0.1806 -0.2785
   93SAPE   H6R 9161   3.329   1.940   5.948 -1.2869 -0.3983 -0.8212
   93SAPE   C27 9162   3.200   2.114   5.925 -0.2613 -0.6201  0.1533
   93SAPE   H7R 9163   3.265   2.196   5.886  0.5401  0.2427  3.0319
   93SAPE   H7S 9164   3.134   2.173   5.992  0.0227  0.3220 -0.3662
   93SAPE   C28 9165   3.107   2.039   5.834  0.1139 -0.1938 -0.1106
   93SAPE   H8R 9166   3.039   1.969   5.885 -0.4195  0.0189 -0.5128
   93SAPE   C29 9167   3.099   2.055   5.694  0.0346 -0.2280  0.1946
   93SAPE   H9R 9168   3.010   2.005   5.655 -0.6813  1.0926  0.0594
   93SAPE  C210 9169   3.168   2.137   5.595  0.5170 -0.4230  0.1929
   93SAPE  H10R 9170   3.100   2.170   5.514 -0.1527  0.1828  0.9879
   93SAPE  H10S 9171   3.235   2.067   5.540 -1.0226 -0.3807 -1.8686
   93SAPE  C211 9172   3.234   2.269   5.627  0.7067 -0.0699 -0.6870
   93SAPE  H11R 9173   3.161   2.351   5.636 -0.0378 -0.7735 -0.0822
   93SAPE  C212 9174   3.362   2.282   5.650 -0.1629 -0.7021 -0.3913
   93SAPE  H12R 9175   3.390   2.384   5.677 -1.0851 -0.4083 -0.4999
   93SAPE  C213 9176   3.471   2.177   5.659 -0.7439 -0.3397  0.0844
   93SAPE  H13R 9177   3.444   2.084   5.604 -2.6686 -1.1708  2.2511
   93SAPE  H13S 9178   3.496   2.161   5.766 -0.1018  3.0194  0.5504
   93SAPE  C214 9179   3.605   2.233   5.598  0.3283  0.9735  0.0312
   93SAPE  H14R 9180   3.596   2.267   5.494  0.0080 -0.7146 -0.5177
   93SAPE  C215 9181   3.723   2.254   5.660 -0.0404  0.2008 -0.0505
   93SAPE  H15R 9182   3.799   2.310   5.604 -0.5272 -0.3306 -1.2734
   93SAPE  C216 9183   3.752   2.205   5.801  0.2610  0.4445  0.3008
   93SAPE  H16R 9184   3.852   2.157   5.809 -0.6602 -1.4420  1.0280
   93SAPE  H16S 9185   3.676   2.134   5.839 -0.5089  1.7706  1.3407
   93SAPE  C217 9186   3.733   2.317   5.902  0.8686 -0.3406 -1.0088
   93SAPE  H17R 9187   3.636   2.368   5.884  0.8516 -0.1236 -0.3501
   93SAPE  H17S 9188   3.800   2.402   5.875  0.3999  0.5654  0.5076
   93SAPE  C218 9189   3.756   2.278   6.050  0.3265  0.5220  0.6495
   93SAPE  H18R 9190   3.731   2.364   6.117  0.7622 -0.7172  2.4804
   93SAPE  H18S 9191   3.865   2.262   6.046  0.3795  1.0051 -0.0078
   93SAPE  C219 9192   3.680   2.150   6.098 -0.3508  0.7507 -0.0533
   93SAPE  H19R 9193   3.712   2.068   6.030  0.2079  1.4755 -0.6780
   93SAPE  H19S 9194   3.569   2.163   6.094 -0.4095  0.6555  1.0174
   93SAPE  C220 9195   3.732   2.117   6.242 -0.0130 -0.0556 -0.6091
   93SAPE  H20R 9196   3.843   2.107   6.237  0.2422 -0.4134  3.1909
   93SAPE  H20S 9197   3.680   2.026   6.278  0.4894  0.8076  2.5708
   93SAPE  H20T 9198   3.696   2.199   6.307 -0.1484 -0.3867 -0.2612
   93SAPE   C33 9199   2.716   1.816   6.271 -0.3636  0.5220  0.5190
   93SAPE   H3X 9200   2.606   1.820   6.284 -0.5583  0.2383 -0.8709
   93SAPE   H3Y 9201   2.761   1.746   6.344  0.0599 -0.5449 -0.7255
   93SAPE   C34 9202   2.750   1.748   6.138 -0.4517  0.8656  0.1426
   93SAPE   H4X 9203   2.690   1.655   6.138 -1.3213  1.4076 -0.3657
   93SAPE   H4Y 9204   2.855   1.711   6.136 -1.5557 -2.7421  0.9175
   93SAPE   C35 9205   2.723   1.811   6.005 -0.6434 -0.3520 -0.2148
   93SAPE   H5X 9206   2.786   1.902   6.011 -1.1928 -0.0560  3.3582
   93SAPE   H5Y 9207   2.617   1.839   5.989  0.1218  3.5889  0.6485
   93SAPE   C36 9208   2.784   1.738   5.889 -0.2881  0.6034  0.2205
   93SAPE   H6X 9209   2.806   1.631   5.906  3.1979  1.4091  1.5409
   93SAPE   H6Y 9210   2.887   1.777   5.878  0.3435 -0.9735  0.2897
   93SAPE   C37 9211   2.702   1.755   5.762  0.2182  0.1737 -0.3678
   93SAPE   H7X 9212   2.689   1.864   5.746  0.4890  0.3911  0.7671
   93SAPE   H7Y 9213   2.602   1.712   5.783 -0.6982  2.1203 -0.4853
   93SAPE   C38 9214   2.769   1.697   5.643 -0.6825  0.0103 -0.4190
   93SAPE   H8X 9215   2.748   1.588   5.637  0.3433 -0.1477 -1.3078
   93SAPE   H8Y 9216   2.876   1.726   5.650 -0.6254 -0.4861  1.5463
   93SAPE   C39 9217   2.712   1.765   5.517 -0.1308 -0.7749 -0.1117
   93SAPE   H9X 9218   2.738   1.722   5.417 -1.7432  0.2560 -1.0248
   93SAPE   H9Y 9219   2.752   1.868   5.512  1.4650 -1.4013 -2.7466
   93SAPE  C310 9220   2.558   1.779   5.506  0.3659  0.5501 -0.4119
   93SAPE  H10X 9221   2.518   1.839   5.590 -0.8910  0.5805 -1.0094
   93SAPE  H10Y 9222   2.515   1.678   5.526 -2.6190  2.0077  1.1939
   93SAPE  C311 9223   2.508   1.837   5.369  0.3272  0.4370 -0.1361
   93SAPE  H11X 9224   2.557   1.806   5.274 -2.2059 -2.0432 -0.7552
   93SAPE  H11Y 9225   2.514   1.947   5.373  2.3191  0.4052 -0.9125
   93SAPE  C312 9226   2.359   1.800   5.340 -0.1097  0.4622 -0.3962
   93SAPE  H12X 9227   2.306   1.831   5.432  0.2360 -2.1605  0.7677
   93SAPE  H12Y 9228   2.354   1.690   5.331  2.1201  0.1698  1.2746
   93SAPE  C313 9229   2.313   1.863   5.211  0.3647  0.6860 -0.5219
   93SAPE  H13X 9230   2.387   1.834   5.134 -2.3152  0.3178 -3.1324
   93SAPE  H13Y 9231   2.308   1.974   5.218  1.3563  0.6891  0.4817
   93SAPE  C314 9232   2.177   1.804   5.194  0.5541 -0.1430  0.2150
   93SAPE  H14X 9233   2.105   1.830   5.275  0.3701 -0.3478  0.1185
   93SAPE  H14Y 9234   2.172   1.693   5.192  0.3549 -0.2190  2.4557
   93SAPE  C315 9235   2.106   1.842   5.058  0.5351  0.5616 -0.8503
   93SAPE  H15X 9236   2.099   1.953   5.056 -1.3368  0.4817 -0.2378
   93SAPE  H15Y 9237   2.004   1.799   5.059  0.1818  1.3821 -0.8835
   93SAPE  C316 9238   2.179   1.790   4.935 -0.0965  0.0150 -0.0453
   93SAPE  H16X 9239   2.270   1.733   4.966  0.2116 -0.0451 -1.0324
   93SAPE  H16Y 9240   2.203   1.880   4.875  0.7813  0.5516  1.0589
   93SAPE  C317 9241   2.087   1.696   4.850  0.1351  0.1862  0.2528
   93SAPE  H17X 9242   1.997   1.751   4.814 -2.0542 -2.9955  0.4525
   93SAPE  H17Y 9243   2.054   1.614   4.917  3.5193  0.3819  2.3471
   93SAPE  C318 9244   2.165   1.631   4.736  0.0093  0.3684  0.1280
   93SAPE  H18X 9245   2.102   1.571   4.666  1.5963 -0.3546 -0.7325
   93SAPE  H18Y 9246   2.253   1.576   4.774  1.6291  1.4287 -1.8481
   93SAPE  H18Z 9247   2.216   1.703   4.668  1.7845 -0.5207  0.4632
   94SAPE     N 9248   6.056   0.873   6.947 -0.1149 -0.3811 -0.3093
   94SAPE   HN1 9249   6.013   0.781   6.924 -1.1519 -0.1904  0.7393
   94SAPE   HN2 9250   5.985   0.948   6.962  1.4605  1.4503 -1.5623
   94SAPE   HN3 9251   6.116   0.895   6.866  0.9293  2.5170  1.1037
   94SAPE   C12 9252   6.148   0.862   7.065  0.4461  0.0226  0.3771
   94SAPE  H12A 9253   6.093   0.810   7.147  0.7401 -0.1397  0.4729
   94SAPE  H12B 9254   6.178   0.963   7.102 -1.8674  0.9831 -0.2028
   94SAPE   C11 9255   6.277   0.777   7.042  0.0877  0.4900  0.3537
   94SAPE  H11A 9256   6.248   0.706   6.961  0.2786 -0.4467  1.0772
   94SAPE  H11B 9257   6.302   0.716   7.132 -0.2457 -0.8679 -0.4431
   94SAPE     P 9258   6.416   0.901   6.876  0.2132 -0.2073 -0.3426
   94SAPE   O13 9259   6.291   0.899   6.796  0.8469 -0.2457 -0.0540
   94SAPE   O14 9260   6.491   1.024   6.865 -0.1396  0.2182  0.3124
   94SAPE   O12 9261   6.391   0.851   7.025  0.5953  0.2432 -0.7234
   94SAPE   O11 9262   6.494   0.778   6.823 -0.1837  0.6431 -0.5815
   94SAPE    C1 9263   6.634   0.780   6.825 -0.1547 -0.0854  0.1755
   94SAPE    HA 9264   6.675   0.837   6.911 -0.9332  1.2083 -0.2778
   94SAPE    HB 9265   6.677   0.681   6.850 -0.1615 -0.9943 -3.0247
   94SAPE    C2 9266   6.691   0.834   6.691 -0.0604 -0.3350  0.4726
   94SAPE    HS 9267   6.672   0.943   6.687 -0.3100 -0.4158 -2.3212
   94SAPE   O21 9268   6.626   0.768   6.583  0.6294 -0.8296  0.1062
   94SAPE   C21 9269   6.622   0.825   6.458  0.6130  0.2324 -0.7016
   94SAPE   O22 9270   6.646   0.941   6.433 -0.5002  0.0444  0.2388
   94SAPE   C22 9271   6.570   0.731   6.349  0.1188 -0.0676 -0.3698
   94SAPE   H2R 9272   6.628   0.637   6.355  1.1103  0.6030  2.1463
   94SAPE   H2S 9273   6.462   0.715   6.372  0.1357 -0.7905 -0.7783
   94SAPE    C3 9274   6.844   0.809   6.682  0.0830  0.4939  0.2812
   94SAPE    HX 9275   6.851   0.698   6.684 -0.8040  0.4354  0.3401
   94SAPE    HY 9276   6.895   0.862   6.766  0.1335  1.9045 -0.6007
   94SAPE   O31 9277   6.901   0.883   6.566 -0.0125 -0.4395  0.6742
   94SAPE   C31 9278   6.932   0.809   6.462  0.2683 -0.0313 -0.0274
   94SAPE   O32 9279   6.907   0.689   6.444  0.2763 -0.5828  0.2011
   94SAPE   C32 9280   7.008   0.891   6.364 -0.7417  0.9460 -0.0613
   94SAPE   H2X 9281   7.102   0.921   6.415 -0.6678  0.3664  0.1533
   94SAPE   H2Y 9282   6.948   0.979   6.333 -0.8361  1.2614  1.0017
   94SAPE   C23 9283   6.590   0.787   6.203  0.1729 -0.1303 -0.3053
   94SAPE   H3R 9284   6.690   0.836   6.209 -0.1701  0.4105  2.9726
   94SAPE   H3S 9285   6.518   0.870   6.185  0.2810  0.0718  0.1771
   94SAPE   C24 9286   6.581   0.681   6.093 -0.5405 -0.4813  0.5706
   94SAPE   H4R 9287   6.676   0.625   6.094  0.4543  1.0479 -1.2319
   94SAPE   H4S 9288   6.580   0.728   5.992 -1.3123 -1.4040  0.1307
   94SAPE   C25 9289   6.467   0.580   6.112 -0.3593 -0.5867 -0.2045
   94SAPE   H5R 9290   6.480   0.491   6.174  0.0238  0.0707  0.6773
   94SAPE   C26 9291   6.343   0.607   6.078 -0.0948  0.4790  0.1367
   94SAPE   H6R 9292   6.256   0.548   6.110 -1.1061  2.2086  0.7515
   94SAPE   C27 9293   6.300   0.729   6.006  0.0787 -0.1121  0.0499
   94SAPE   H7R 9294   6.249   0.693   5.915 -0.9745 -0.3114  0.6975
   94SAPE   H7S 9295   6.385   0.795   5.978 -0.5453  1.7151  2.1521
   94SAPE   C28 9296   6.212   0.816   6.097 -0.3180 -0.5067 -1.1899
   94SAPE   H8R 9297   6.240   0.820   6.203 -2.4171  0.1075 -0.6099
   94SAPE   C29 9298   6.116   0.902   6.059 -0.3065  0.4196 -0.6534
   94SAPE   H9R 9299   6.077   0.970   6.136  1.8307  0.7335  0.2142
   94SAPE  C210 9300   6.059   0.914   5.921  0.2966 -0.3295 -0.1866
   94SAPE  H10R 9301   5.964   0.971   5.919  1.1650  1.1438 -0.4136
   94SAPE  H10S 9302   6.040   0.812   5.880  1.0322 -0.9139  0.8816
   94SAPE  C211 9303   6.159   0.983   5.826  0.9550 -0.7591  0.1068
   94SAPE  H11R 9304   6.195   1.073   5.877 -0.4836  0.0325 -0.2101
   94SAPE  C212 9305   6.180   0.962   5.696  0.1263  0.3038  0.0648
   94SAPE  H12R 9306   6.240   1.037   5.643 -0.3662 -0.1217 -1.1576
   94SAPE  C213 9307   6.134   0.840   5.623  0.8059  0.0861 -0.0206
   94SAPE  H13R 9308   6.103   0.871   5.521 -0.1581  0.0622  0.2563
   94SAPE  H13S 9309   6.045   0.796   5.673  0.8487 -0.5604 -0.5055
   94SAPE  C214 9310   6.242   0.728   5.614  0.7063  0.9387  1.2014
   94SAPE  H14R 9311   6.213   0.633   5.661  0.3615 -0.5349 -1.7182
   94SAPE  C215 9312   6.365   0.732   5.559 -0.1632 -0.2125  0.0209
   94SAPE  H15R 9313   6.424   0.640   5.562 -0.6989 -0.6717 -2.0259
   94SAPE  C216 9314   6.426   0.850   5.481 -0.0573 -0.6716  0.3028
   94SAPE  H16R 9315   6.520   0.890   5.524 -0.1990 -0.0094  0.0101
   94SAPE  H16S 9316   6.360   0.939   5.481 -0.8335 -1.2148  1.8362
   94SAPE  C217 9317   6.461   0.818   5.339 -0.5262 -0.6847 -0.3325
   94SAPE  H17R 9318   6.531   0.733   5.327 -0.9975 -1.0879 -0.2027
   94SAPE  H17S 9319   6.516   0.906   5.298 -0.3680 -0.9619 -0.7237
   94SAPE  C218 9320   6.339   0.823   5.242 -0.0798  0.8286 -0.3269
   94SAPE  H18R 9321   6.283   0.917   5.262 -0.2809  0.9175 -1.2754
   94SAPE  H18S 9322   6.261   0.747   5.266 -0.2868  1.5644  1.4563
   94SAPE  C219 9323   6.383   0.816   5.092  0.3774  0.4006 -0.7156
   94SAPE  H19R 9324   6.447   0.727   5.075 -0.1819 -0.0865 -0.3119
   94SAPE  H19S 9325   6.440   0.908   5.069  0.7139  0.1104 -1.0453
   94SAPE  C220 9326   6.265   0.797   4.997  0.4825 -0.4415 -0.1520
   94SAPE  H20R 9327   6.181   0.866   5.022  0.3378 -0.9245  0.7117
   94SAPE  H20S 9328   6.238   0.690   5.011  1.5667 -0.7777 -0.5619
   94SAPE  H20T 9329   6.290   0.815   4.890  2.2709 -2.5536 -0.1588
   94SAPE   C33 9330   7.036   0.816   6.226 -0.0469  0.2376 -0.0470
   94SAPE   H3X 9331   6.939   0.776   6.190 -0.2306  0.6718 -0.0401
   94SAPE   H3Y 9332   7.115   0.738   6.235 -0.1907  0.1331  0.3270
   94SAPE   C34 9333   7.105   0.906   6.124 -0.2094 -0.7311  0.9064
   94SAPE   H4X 9334   7.211   0.912   6.160  0.4321 -1.3706 -0.7891
   94SAPE   H4Y 9335   7.062   1.008   6.119 -0.2549 -0.8095 -0.7728
   94SAPE   C35 9336   7.111   0.843   5.987 -0.6684 -0.1379  0.7525
   94SAPE   H5X 9337   7.006   0.851   5.951 -0.4210 -3.4127 -1.1078
   94SAPE   H5Y 9338   7.138   0.735   5.981  0.1202  0.0989 -0.3644
   94SAPE   C36 9339   7.202   0.920   5.892  0.1776  0.1842  0.7924
   94SAPE   H6X 9340   7.311   0.900   5.906 -0.3505 -3.2730  0.7948
   94SAPE   H6Y 9341   7.186   1.030   5.901  0.3440  0.5665 -2.3242
   94SAPE   C37 9342   7.171   0.895   5.740 -0.9696  0.0411 -0.1244
   94SAPE   H7X 9343   7.079   0.953   5.716 -1.5280 -0.7903 -0.0518
   94SAPE   H7Y 9344   7.149   0.786   5.734  0.7451 -0.4163  1.1390
   94SAPE   C38 9345   7.288   0.940   5.652 -0.1603  0.4616 -0.4923
   94SAPE   H8X 9346   7.381   0.882   5.672 -0.0101  1.1856  1.0472
   94SAPE   H8Y 9347   7.311   1.044   5.684  1.5070 -0.0140 -0.0162
   94SAPE   C39 9348   7.243   0.925   5.507 -0.0008  0.1401 -0.1332
   94SAPE   H9X 9349   7.165   1.000   5.480  1.0464  0.8388 -1.3379
   94SAPE   H9Y 9350   7.213   0.819   5.490  2.2631 -0.3960 -1.1945
   94SAPE  C310 9351   7.362   0.959   5.403 -0.7454  0.3678 -0.6680
   94SAPE  H10X 9352   7.443   0.887   5.428  0.6480  1.6037 -1.4318
   94SAPE  H10Y 9353   7.397   1.061   5.429 -0.8522 -0.0742  1.3883
   94SAPE  C311 9354   7.331   0.959   5.254  0.7444  0.5428  0.2734
   94SAPE  H11X 9355   7.253   1.037   5.239 -1.4156 -1.3052  1.3331
   94SAPE  H11Y 9356   7.293   0.857   5.235 -0.1437  0.8465  0.3588
   94SAPE  C312 9357   7.444   0.989   5.150 -0.3238  0.1942 -0.0519
   94SAPE  H12X 9358   7.413   0.976   5.044  0.2685  0.5402 -0.2723
   94SAPE  H12Y 9359   7.531   0.923   5.169  1.2579  2.3871  0.8191
   94SAPE  C313 9360   7.516   1.128   5.161 -0.0089  0.4199 -0.4418
   94SAPE  H13X 9361   7.561   1.131   5.263  2.4912  1.5049 -1.4963
   94SAPE  H13Y 9362   7.450   1.216   5.145  1.4872  1.2366 -2.6280
   94SAPE  C314 9363   7.638   1.147   5.064 -0.1426  1.3110 -0.2390
   94SAPE  H14X 9364   7.723   1.081   5.094  0.6302  2.0626 -0.7214
   94SAPE  H14Y 9365   7.661   1.255   5.058 -0.1572  1.3221 -0.1114
   94SAPE  C315 9366   7.606   1.124   4.916 -0.1162 -0.1949 -0.2155
   94SAPE  H15X 9367   7.577   1.017   4.903 -0.3866  0.1772 -3.2480
   94SAPE  H15Y 9368   7.698   1.146   4.858  1.0641 -0.5056  1.4690
   94SAPE  C316 9369   7.484   1.214   4.881 -0.4499  0.3356  0.2380
   94SAPE  H16X 9370   7.500   1.319   4.912  1.3925 -0.0981  0.8707
   94SAPE  H16Y 9371   7.389   1.184   4.930  0.0708 -0.6130  0.7061
   94SAPE  C317 9372   7.455   1.206   4.727  0.2755  1.5587  0.2399
   94SAPE  H17X 9373   7.423   1.104   4.698 -1.3175  1.7448  1.2258
   94SAPE  H17Y 9374   7.545   1.235   4.668  1.6632  0.4668  1.7414
   94SAPE  C318 9375   7.337   1.296   4.689 -0.3006 -0.3013  0.0022
   94SAPE  H18X 9376   7.372   1.402   4.692  0.4662 -0.5550  0.0727
   94SAPE  H18Y 9377   7.265   1.280   4.772 -1.2991 -1.6625 -1.0770
   94SAPE  H18Z 9378   7.290   1.271   4.592 -3.7584  0.2073  1.3934
   95SAPE     N 9379   3.331   1.947   7.203 -0.5191 -0.3496  0.5448
   95SAPE   HN1 9380   3.298   1.848   7.209 -0.2462 -0.5957 -1.2622
   95SAPE   HN2 9381   3.272   2.005   7.139 -1.4962 -1.4884  0.3734
   95SAPE   HN3 9382   3.432   1.952   7.179 -0.3778  1.8546  1.3375
   95SAPE   C12 9383   3.318   2.030   7.333  0.6061  0.8727 -0.2238
   95SAPE  H12A 9384   3.389   1.984   7.405  0.8911  0.4763 -0.7547
   95SAPE  H12B 9385   3.217   2.007   7.374 -0.0054  1.1649 -1.5279
   95SAPE   C11 9386   3.346   2.174   7.323 -0.2871 -0.5591  0.3471
   95SAPE  H11A 9387   3.327   2.215   7.425  0.8089 -1.2853  0.8587
   95SAPE  H11B 9388   3.269   2.223   7.259 -1.0502  0.4413  1.9692
   95SAPE     P 9389   3.535   2.339   7.259 -0.2822 -0.2555  0.1846
   95SAPE   O13 9390   3.429   2.441   7.280  0.2213  0.2673 -0.7212
   95SAPE   O14 9391   3.660   2.350   7.333 -0.0264 -0.1845 -0.3404
   95SAPE   O12 9392   3.478   2.196   7.279  0.4150  1.9853 -0.3987
   95SAPE   O11 9393   3.574   2.337   7.109  0.5062 -0.3946 -0.3185
   95SAPE    C1 9394   3.673   2.250   7.063 -0.1512 -0.1993  0.2614
   95SAPE    HA 9395   3.773   2.299   7.068 -0.2320  0.0138 -0.1350
   95SAPE    HB 9396   3.684   2.158   7.123  1.2583 -1.3171 -1.5830
   95SAPE    C2 9397   3.632   2.197   6.926 -0.0596  0.5852  0.7404
   95SAPE    HS 9398   3.709   2.122   6.897 -2.1858 -1.6327  0.5272
   95SAPE   O21 9399   3.633   2.309   6.831  0.1340  0.7218  0.2899
   95SAPE   C21 9400   3.655   2.286   6.702  0.0856  0.0888 -0.0216
   95SAPE   O22 9401   3.683   2.181   6.647  0.0164 -0.2868 -0.3665
   95SAPE   C22 9402   3.611   2.416   6.639 -0.2275 -0.5271  0.2308
   95SAPE   H2R 9403   3.505   2.443   6.657 -0.9239 -2.9902  0.1772
   95SAPE   H2S 9404   3.676   2.493   6.687  1.6937 -1.5545 -0.5944
   95SAPE    C3 9405   3.495   2.115   6.931  0.4612 -0.2911  0.0158
   95SAPE    HX 9406   3.428   2.200   6.959  1.0598  0.1035  0.2715
   95SAPE    HY 9407   3.496   2.049   7.020  1.6730  1.2646  1.2336
   95SAPE   O31 9408   3.453   2.036   6.818 -0.0783 -0.1426  0.5428
   95SAPE   C31 9409   3.524   1.936   6.792  0.1522  0.5710 -0.2790
   95SAPE   O32 9410   3.618   1.900   6.855  0.2359  0.0693 -0.0064
   95SAPE   C32 9411   3.484   1.863   6.661 -0.0423 -0.3680  0.0219
   95SAPE   H2X 9412   3.439   1.946   6.602 -0.4789 -1.8705 -1.8482
   95SAPE   H2Y 9413   3.401   1.796   6.691 -0.3256  0.1350  0.3836
   95SAPE   C23 9414   3.644   2.410   6.488 -0.0380 -0.3537  0.4530
   95SAPE   H3R 9415   3.580   2.347   6.424 -0.1251 -0.6975  0.8752
   95SAPE   H3S 9416   3.747   2.371   6.479  0.4377  1.1464 -1.3031
   95SAPE   C24 9417   3.659   2.555   6.437 -0.3292 -0.6430  0.4074
   95SAPE   H4R 9418   3.692   2.555   6.331 -1.0096  1.1013  0.1476
   95SAPE   H4S 9419   3.732   2.601   6.507 -1.1567 -1.0891  1.5955
   95SAPE   C25 9420   3.535   2.632   6.430 -0.1106  1.0805 -0.0833
   95SAPE   H5R 9421   3.505   2.692   6.518 -0.2014 -0.0626  0.6782
   95SAPE   C26 9422   3.445   2.622   6.335 -0.3677  0.1093 -0.6373
   95SAPE   H6R 9423   3.366   2.699   6.333  0.6189  1.1610 -0.2249
   95SAPE   C27 9424   3.456   2.539   6.210 -0.4014  0.4789 -0.0883
   95SAPE   H7R 9425   3.539   2.465   6.213 -1.1528 -0.3809 -0.0988
   95SAPE   H7S 9426   3.492   2.604   6.127 -1.7388  0.0190 -1.0678
   95SAPE   C28 9427   3.320   2.483   6.163  0.3364 -0.0710 -0.3935
   95SAPE   H8R 9428   3.268   2.432   6.245 -3.5845  1.7009 -1.5260
   95SAPE   C29 9429   3.255   2.487   6.047  0.2802 -0.4887  1.1760
   95SAPE   H9R 9430   3.166   2.424   6.028 -1.6553  2.2630  0.5489
   95SAPE  C210 9431   3.311   2.564   5.927  0.4125  0.2072  0.3670
   95SAPE  H10R 9432   3.323   2.496   5.840 -0.8348 -0.1695  0.4745
   95SAPE  H10S 9433   3.416   2.596   5.944 -0.1220  1.9214  0.6813
   95SAPE  C211 9434   3.249   2.694   5.881 -0.5265 -0.4384  0.2059
   95SAPE  H11R 9435   3.220   2.752   5.969 -1.8410 -2.6078  1.2823
   95SAPE  C212 9436   3.234   2.734   5.753  0.3516 -0.2923 -0.3247
   95SAPE  H12R 9437   3.177   2.826   5.735 -1.6135 -1.7484 -1.9894
   95SAPE  C213 9438   3.265   2.665   5.627 -0.2984  0.4026  1.0027
   95SAPE  H13R 9439   3.173   2.646   5.569 -0.3345  0.2714  1.1035
   95SAPE  H13S 9440   3.322   2.572   5.644  1.7275  1.3592 -0.0920
   95SAPE  C214 9441   3.351   2.750   5.535 -0.2894 -0.4462  0.3844
   95SAPE  H14R 9442   3.404   2.826   5.594  1.1041 -0.6362 -0.5625
   95SAPE  C215 9443   3.386   2.725   5.403 -0.5413 -0.3592 -0.8593
   95SAPE  H15R 9444   3.441   2.794   5.338 -0.9352  0.9113  0.1245
   95SAPE  C216 9445   3.318   2.616   5.320 -0.6447  0.7949 -0.1476
   95SAPE  H16R 9446   3.267   2.541   5.383  0.4345 -0.1080 -0.3138
   95SAPE  H16S 9447   3.406   2.567   5.272 -0.0986  0.0490  1.5298
   95SAPE  C217 9448   3.213   2.672   5.225 -0.4410  1.2767  0.0803
   95SAPE  H17R 9449   3.247   2.764   5.173 -1.3371  0.6675 -1.6443
   95SAPE  H17S 9450   3.128   2.693   5.294 -1.1266 -0.5949 -0.1344
   95SAPE  C218 9451   3.168   2.558   5.124 -0.4318 -0.3138 -0.3674
   95SAPE  H18R 9452   3.138   2.464   5.175 -1.1181 -1.0641 -2.0974
   95SAPE  H18S 9453   3.265   2.529   5.079  0.6726  0.1241  1.6087
   95SAPE  C219 9454   3.057   2.596   5.026 -0.7984 -0.8970 -0.3501
   95SAPE  H19R 9455   3.091   2.687   4.973  1.3231 -0.8559  0.9830
   95SAPE  H19S 9456   2.959   2.613   5.076  0.2638 -0.9374  1.8352
   95SAPE  C220 9457   3.040   2.483   4.921  0.8076 -0.0070 -0.1516
   95SAPE  H20R 9458   3.009   2.524   4.823 -2.0806  0.7953  0.9866
   95SAPE  H20S 9459   2.961   2.414   4.957  1.3115  0.7904  2.7873
   95SAPE  H20T 9460   3.137   2.430   4.906  1.0941 -0.1606  1.9219
   95SAPE   C33 9461   3.600   1.796   6.586 -0.3879  0.0643  0.1154
   95SAPE   H3X 9462   3.670   1.749   6.659 -0.4731 -0.8159 -0.3550
   95SAPE   H3Y 9463   3.668   1.870   6.538  0.9747  1.3914  3.7467
   95SAPE   C34 9464   3.545   1.693   6.484  0.4247 -1.1714  0.2708
   95SAPE   H4X 9465   3.485   1.745   6.407 -1.3075 -0.4654  2.0029
   95SAPE   H4Y 9466   3.473   1.628   6.538  1.1781 -1.1666  1.3232
   95SAPE   C35 9467   3.651   1.609   6.419 -0.4422 -0.0049 -0.0433
   95SAPE   H5X 9468   3.605   1.515   6.383  0.3540  0.5135 -2.6324
   95SAPE   H5Y 9469   3.716   1.588   6.507 -3.8891  1.8207  3.2551
   95SAPE   C36 9470   3.734   1.688   6.320  0.2914  0.1083 -0.1120
   95SAPE   H6X 9471   3.840   1.658   6.331  0.4304 -0.3390 -2.2263
   95SAPE   H6Y 9472   3.728   1.795   6.350 -1.7269 -0.3110  1.1635
   95SAPE   C37 9473   3.699   1.660   6.179  0.4316  0.1728 -0.2775
   95SAPE   H7X 9474   3.588   1.660   6.180  0.3640  1.9373 -2.1953
   95SAPE   H7Y 9475   3.738   1.566   6.135 -1.1380  0.5361 -2.6045
   95SAPE   C38 9476   3.744   1.764   6.082 -1.2124  1.0144  0.6069
   95SAPE   H8X 9477   3.853   1.782   6.090 -0.6426 -0.7738 -1.8520
   95SAPE   H8Y 9478   3.698   1.859   6.115  0.9495  1.5937  2.2059
   95SAPE   C39 9479   3.703   1.723   5.932  0.1836  0.3017 -0.5471
   95SAPE   H9X 9480   3.592   1.716   5.935  0.0129  2.5208  0.5063
   95SAPE   H9Y 9481   3.742   1.621   5.916 -2.4710 -1.2739  2.1217
   95SAPE  C310 9482   3.751   1.822   5.829 -1.2029  0.6644 -0.4300
   95SAPE  H10X 9483   3.862   1.822   5.823 -1.2553 -1.1132 -2.8758
   95SAPE  H10Y 9484   3.709   1.924   5.841 -0.6182  0.8068  0.5334
   95SAPE  C311 9485   3.706   1.776   5.683  0.8906  0.0043  0.6976
   95SAPE  H11X 9486   3.737   1.671   5.667  0.7820 -0.3689  2.7379
   95SAPE  H11Y 9487   3.746   1.849   5.608 -0.2912 -0.6117 -0.5807
   95SAPE  C312 9488   3.556   1.786   5.663  0.3387  0.1895 -0.0159
   95SAPE  H12X 9489   3.514   1.881   5.703 -0.7744  0.0403 -0.8001
   95SAPE  H12Y 9490   3.521   1.697   5.719 -0.4170  1.4731  1.6387
   95SAPE  C313 9491   3.517   1.782   5.518  1.3079 -0.2103  0.1975
   95SAPE  H13X 9492   3.566   1.706   5.453 -1.2713 -1.3074 -0.6215
   95SAPE  H13Y 9493   3.530   1.882   5.473 -5.2885  0.4966 -1.2526
   95SAPE  C314 9494   3.362   1.752   5.500 -0.3201  0.0394  0.1597
   95SAPE  H14X 9495   3.303   1.813   5.571  0.4595  1.7158 -0.5772
   95SAPE  H14Y 9496   3.350   1.645   5.527  1.2546 -0.3893 -0.6838
   95SAPE  C315 9497   3.304   1.780   5.357 -0.1118 -0.7687 -0.6167
   95SAPE  H15X 9498   3.349   1.724   5.273 -0.1187 -0.0472 -1.1075
   95SAPE  H15Y 9499   3.353   1.878   5.337  1.0325 -1.1617  0.1376
   95SAPE  C316 9500   3.152   1.796   5.353 -0.6035  0.2346  0.1923
   95SAPE  H16X 9501   3.114   1.880   5.414 -0.1451  1.0640 -0.6350
   95SAPE  H16Y 9502   3.098   1.708   5.391  0.4647 -0.0048  1.2207
   95SAPE  C317 9503   3.106   1.823   5.221 -0.1558 -0.5946 -0.2296
   95SAPE  H17X 9504   3.175   1.899   5.181 -1.2770  0.1325 -0.8551
   95SAPE  H17Y 9505   3.002   1.863   5.223  0.9074  2.4109  0.8021
   95SAPE  C318 9506   3.107   1.700   5.125  0.0770 -0.5031  0.2770
   95SAPE  H18X 9507   3.200   1.642   5.138  0.9872  0.5495 -1.3177
   95SAPE  H18Y 9508   3.113   1.740   5.022 -0.5368  0.1713  0.4911
   95SAPE  H18Z 9509   3.017   1.634   5.132  0.3331 -0.9432 -0.5027
   96SAPE     N 9510   0.652   2.451   6.520  0.0562  0.1335  0.3875
   96SAPE   HN1 9511   0.621   2.385   6.594  0.1994 -2.3728 -1.6713
   96SAPE   HN2 9512   0.753   2.464   6.539 -0.2744  2.2781  1.0060
   96SAPE   HN3 9513   0.596   2.537   6.536 -1.7616 -0.7817 -0.7396
   96SAPE   C12 9514   0.622   2.376   6.394  0.7133 -0.3519 -1.2506
   96SAPE  H12A 9515   0.690   2.288   6.395  0.8086 -0.3121  0.9592
   96SAPE  H12B 9516   0.637   2.447   6.310 -0.5952  3.6742  1.5996
   96SAPE   C11 9517   0.478   2.337   6.408  0.2258 -0.2185  0.6421
   96SAPE  H11A 9518   0.432   2.314   6.310  0.1131  0.0429  0.6334
   96SAPE  H11B 9519   0.423   2.429   6.437  0.1668 -0.2820  0.7292
   96SAPE     P 9520   0.340   2.235   6.604  0.0907  0.2567  0.5228
   96SAPE   O13 9521   0.371   2.141   6.715  0.2640  0.1721  0.2457
   96SAPE   O14 9522   0.316   2.376   6.648 -0.1784 -0.0211  0.2015
   96SAPE   O12 9523   0.458   2.229   6.499  0.1100 -0.4123  0.0263
   96SAPE   O11 9524   0.209   2.186   6.527 -0.4842 -0.1651 -0.3173
   96SAPE    C1 9525   0.210   2.058   6.458 -0.2069  0.2406  0.5424
   96SAPE    HA 9526   0.293   1.990   6.486 -1.8330 -3.9799 -3.5945
   96SAPE    HB 9527   0.118   1.998   6.477 -0.9151  0.5482 -1.6295
   96SAPE    C2 9528   0.225   2.068   6.307  0.1971 -0.1926 -0.3737
   96SAPE    HS 9529   0.306   2.139   6.282 -2.0332  2.1369 -1.3656
   96SAPE   O21 9530   0.106   2.130   6.251  0.0746  0.0605 -0.0690
   96SAPE   C21 9531   0.124   2.212   6.143 -0.6615  0.0860 -0.7990
   96SAPE   O22 9532   0.230   2.246   6.095 -0.1066  0.0038  0.7598
   96SAPE   C22 9533  -0.016   2.252   6.088 -0.2232  0.0306  0.0776
   96SAPE   H2R 9534  -0.071   2.159   6.064 -1.8251  1.0077 -0.2361
   96SAPE   H2S 9535  -0.068   2.285   6.181 -0.7547  0.9160 -0.5158
   96SAPE    C3 9536   0.236   1.925   6.249 -0.1875 -0.0283 -0.1245
   96SAPE    HX 9537   0.146   1.869   6.281  0.3859  0.3726  2.5002
   96SAPE    HY 9538   0.322   1.872   6.297 -0.6020 -0.3790  0.2435
   96SAPE   O31 9539   0.270   1.932   6.110  0.1455  0.5972 -0.1260
   96SAPE   C31 9540   0.163   1.930   6.029  0.2508  0.4559  0.3547
   96SAPE   O32 9541   0.047   1.908   6.062  0.0080  0.8592  0.2995
   96SAPE   C32 9542   0.213   1.956   5.886  0.1717  0.0656 -0.3323
   96SAPE   H2X 9543   0.279   1.873   5.857 -1.3960 -1.2985 -0.1538
   96SAPE   H2Y 9544   0.269   2.049   5.908  2.2127 -1.3167  0.5666
   96SAPE   C23 9545  -0.020   2.355   5.972  0.3141 -0.1858  0.5144
   96SAPE   H3R 9546   0.023   2.309   5.881 -1.1578 -0.2488 -0.1865
   96SAPE   H3S 9547   0.047   2.439   6.000  0.7523 -0.4880  0.3818
   96SAPE   C24 9548  -0.164   2.403   5.943  0.7246  0.2244 -0.1043
   96SAPE   H4R 9549  -0.136   2.485   5.873  0.7050 -0.8542 -1.4140
   96SAPE   H4S 9550  -0.215   2.436   6.036 -0.6080  0.1442 -0.7763
   96SAPE   C25 9551  -0.241   2.305   5.868  0.4088  0.5593  0.2604
   96SAPE   H5R 9552  -0.292   2.230   5.931 -0.3625  2.2640  1.7730
   96SAPE   C26 9553  -0.260   2.299   5.739  0.2222 -0.0589  0.0453
   96SAPE   H6R 9554  -0.312   2.215   5.692 -0.5331  1.4986 -2.0373
   96SAPE   C27 9555  -0.182   2.389   5.641  0.7328 -0.8804 -0.1737
   96SAPE   H7R 9556  -0.093   2.338   5.598  0.4696  1.8325 -4.6019
   96SAPE   H7S 9557  -0.138   2.483   5.681  0.8273 -0.7806 -0.4996
   96SAPE   C28 9558  -0.276   2.418   5.528 -0.1999  0.0730  0.5568
   96SAPE   H8R 9559  -0.383   2.428   5.548 -0.4545 -2.0534  0.4591
   96SAPE   C29 9560  -0.234   2.436   5.399  0.2075 -0.3988  0.1375
   96SAPE   H9R 9561  -0.311   2.462   5.325 -1.5419 -2.7285  1.0041
   96SAPE  C210 9562  -0.095   2.423   5.348  0.0591 -0.3220  0.2149
   96SAPE  H10R 9563  -0.099   2.362   5.255  3.1137 -0.1553 -0.1337
   96SAPE  H10S 9564  -0.025   2.365   5.413  0.7255 -1.0570 -1.0985
   96SAPE  C211 9565  -0.044   2.556   5.295  0.2998  0.2818 -0.3725
   96SAPE  H11R 9566  -0.096   2.642   5.340  2.0515  1.8909 -1.2551
   96SAPE  C212 9567   0.050   2.578   5.200  0.3597 -0.5392  0.5522
   96SAPE  H12R 9568   0.065   2.680   5.161  1.5371 -1.5483 -1.8248
   96SAPE  C213 9569   0.126   2.480   5.114 -0.0705  0.3228  0.4717
   96SAPE  H13R 9570   0.078   2.456   5.016 -0.4140  2.5459  0.0363
   96SAPE  H13S 9571   0.120   2.383   5.168 -2.3999 -0.1258 -0.4686
   96SAPE  C214 9572   0.280   2.507   5.095 -0.0615  0.1073  0.5639
   96SAPE  H14R 9573   0.329   2.546   5.186  1.4664 -1.5850  0.5069
   96SAPE  C215 9574   0.351   2.492   4.980  0.1601  0.1734 -0.4999
   96SAPE  H15R 9575   0.461   2.494   4.985  0.2232  0.1221 -1.5571
   96SAPE  C216 9576   0.302   2.458   4.839 -0.0106  0.6028  0.3253
   96SAPE  H16R 9577   0.287   2.546   4.773  2.1760 -0.0321 -1.1320
   96SAPE  H16S 9578   0.209   2.399   4.845  1.5782 -2.0766  0.0774
   96SAPE  C217 9579   0.405   2.358   4.771  0.4421  0.1283  0.5906
   96SAPE  H17R 9580   0.429   2.274   4.840  2.4204  2.9844  3.7058
   96SAPE  H17S 9581   0.500   2.413   4.749  0.0978  0.6362  0.3585
   96SAPE  C218 9582   0.353   2.291   4.634 -0.1646  0.5308  0.5508
   96SAPE  H18R 9583   0.443   2.242   4.590  1.5256  1.3568  2.8711
   96SAPE  H18S 9584   0.317   2.367   4.561 -1.5430 -0.4479  0.1727
   96SAPE  C219 9585   0.248   2.188   4.655  0.0417  0.2928  0.3664
   96SAPE  H19R 9586   0.161   2.248   4.689 -0.9202 -0.0083 -1.4470
   96SAPE  H19S 9587   0.272   2.119   4.739  0.2275  0.0594  0.1205
   96SAPE  C220 9588   0.189   2.121   4.528  0.8393  0.9592 -0.5194
   96SAPE  H20R 9589   0.124   2.043   4.573  1.0800  1.1013  0.0856
   96SAPE  H20S 9590   0.268   2.061   4.478 -0.2129  0.1897 -1.2978
   96SAPE  H20T 9591   0.115   2.184   4.474 -1.1555 -1.6370 -1.0195
   96SAPE   C33 9592   0.096   1.967   5.792 -0.0988  0.1515  0.4340
   96SAPE   H3X 9593   0.045   2.064   5.809  0.9530  0.6576  0.7996
   96SAPE   H3Y 9594   0.022   1.885   5.803  0.8336 -1.1604 -2.2962
   96SAPE   C34 9595   0.152   1.955   5.650 -0.3070 -0.6421  0.3570
   96SAPE   H4X 9596   0.214   1.865   5.632  0.2977  0.2313 -2.3309
   96SAPE   H4Y 9597   0.215   2.040   5.617 -0.6492 -0.0897  1.1053
   96SAPE   C35 9598   0.029   1.942   5.551  0.5089  0.1877 -0.7929
   96SAPE   H5X 9599  -0.062   1.987   5.595  0.7091 -0.8356  0.7571
   96SAPE   H5Y 9600   0.016   1.831   5.545  1.0724  0.0373  0.4698
   96SAPE   C36 9601   0.026   2.014   5.416  0.0103  0.1162 -1.0128
   96SAPE   H6X 9602   0.039   2.124   5.421 -3.4904  0.5853  1.0545
   96SAPE   H6Y 9603  -0.074   1.998   5.371  0.1024 -0.4781 -1.0219
   96SAPE   C37 9604   0.134   1.961   5.318 -0.1552  0.0737 -0.1147
   96SAPE   H7X 9605   0.107   1.854   5.300  2.0382 -1.0815  2.6467
   96SAPE   H7Y 9606   0.233   1.955   5.368 -0.1158  0.2885 -0.1660
   96SAPE   C38 9607   0.154   2.048   5.187  1.1144 -0.4554 -0.6135
   96SAPE   H8X 9608   0.222   2.004   5.111 -1.7070 -2.0833 -2.3449
   96SAPE   H8Y 9609   0.197   2.149   5.207  0.2668 -0.1919 -0.0839
   96SAPE   C39 9610   0.026   2.071   5.107 -0.2349 -0.3985  0.4191
   96SAPE   H9X 9611  -0.036   2.151   5.152  0.3670 -0.4557  1.3859
   96SAPE   H9Y 9612  -0.034   1.978   5.115 -1.6506  0.5932  2.2026
   96SAPE  C310 9613   0.041   2.091   4.952 -0.6327  0.1995  0.1692
   96SAPE  H10X 9614   0.086   2.007   4.896  0.5611  0.4961  0.6604
   96SAPE  H10Y 9615   0.115   2.174   4.951  0.7593 -0.9384  1.6870
   96SAPE  C311 9616  -0.090   2.145   4.887  1.0498 -1.0775 -0.9757
   96SAPE  H11X 9617  -0.068   2.204   4.796  0.6393 -2.7059 -2.1852
   96SAPE  H11Y 9618  -0.141   2.208   4.963  1.4351 -0.7075 -1.0217
   96SAPE  C312 9619  -0.184   2.024   4.861 -0.5300 -0.3411 -0.8490
   96SAPE  H12X 9620  -0.288   2.063   4.852 -0.0381  1.4500  0.6478
   96SAPE  H12Y 9621  -0.189   1.960   4.952  0.7062  0.9300  0.1641
   96SAPE  C313 9622  -0.148   1.947   4.742 -0.1906 -0.1586  0.1152
   96SAPE  H13X 9623  -0.044   1.910   4.737  0.4468  1.6066 -0.1542
   96SAPE  H13Y 9624  -0.164   1.999   4.645  0.5399  0.1061  0.1309
   96SAPE  C314 9625  -0.231   1.823   4.732  0.5158  0.3495 -0.0583
   96SAPE  H14X 9626  -0.333   1.854   4.701 -0.2825 -0.9786  1.1486
   96SAPE  H14Y 9627  -0.230   1.760   4.824 -3.9706  3.1660  2.2921
   96SAPE  C315 9628  -0.181   1.737   4.614  0.5822 -0.2968 -0.1449
   96SAPE  H15X 9629  -0.177   1.797   4.521 -1.4577 -3.3648 -2.4200
   96SAPE  H15Y 9630  -0.263   1.666   4.594  1.0921 -0.7570 -0.6380
   96SAPE  C316 9631  -0.038   1.658   4.637 -0.0889  0.2434  0.1654
   96SAPE  H16X 9632  -0.025   1.655   4.748 -1.3720 -1.9057  0.3163
   96SAPE  H16Y 9633   0.040   1.716   4.583 -0.7655  1.7400  0.7123
   96SAPE  C317 9634  -0.041   1.516   4.592  0.2801  0.4209  0.8741
   96SAPE  H17X 9635  -0.099   1.513   4.497 -1.1201  2.9073  1.5677
   96SAPE  H17Y 9636  -0.104   1.449   4.654  1.1774 -1.8142 -0.5160
   96SAPE  C318 9637   0.091   1.436   4.571  0.3560 -0.2241  0.2645
   96SAPE  H18X 9638   0.058   1.337   4.533 -0.6966  0.5647 -0.9330
   96SAPE  H18Y 9639   0.153   1.440   4.664 -1.0837 -1.5197  1.3179
   96SAPE  H18Z 9640   0.145   1.487   4.488 -1.5046 -0.7494 -1.3187
   97SAPE     N 9641   0.477   4.017   6.554  0.1060  0.4268  0.3227
   97SAPE   HN1 9642   0.526   3.931   6.585 -1.5309 -0.6987 -0.0643
   97SAPE   HN2 9643   0.382   4.007   6.597  0.0444  0.1717  0.1326
   97SAPE   HN3 9644   0.466   4.019   6.451  0.6556  0.8451  0.2716
   97SAPE   C12 9645   0.540   4.147   6.590  0.4288  0.2836 -0.5051
   97SAPE  H12A 9646   0.635   4.144   6.531  0.6600 -4.1642 -0.2619
   97SAPE  H12B 9647   0.556   4.141   6.700  1.1143 -2.0566 -0.6714
   97SAPE   C11 9648   0.446   4.264   6.544  0.1845  0.8716 -0.0817
   97SAPE  H11A 9649   0.445   4.256   6.433  1.2056  0.4977 -0.0701
   97SAPE  H11B 9650   0.492   4.357   6.583 -0.4624  1.9291 -1.7371
   97SAPE     P 9651   0.218   4.370   6.613 -0.4529 -0.0045 -0.2214
   97SAPE   O13 9652   0.172   4.369   6.750 -0.1452 -0.2009 -0.2990
   97SAPE   O14 9653   0.288   4.489   6.565 -0.4661 -0.1439 -0.0483
   97SAPE   O12 9654   0.317   4.243   6.601 -0.4602  0.0687 -0.0609
   97SAPE   O11 9655   0.094   4.339   6.512 -0.3597 -0.3240  0.3138
   97SAPE    C1 9656   0.078   4.215   6.440 -0.3001  0.1848 -0.2494
   97SAPE    HA 9657   0.106   4.128   6.503 -2.3665 -1.0883 -0.9872
   97SAPE    HB 9658  -0.029   4.205   6.412 -0.3111 -1.4048  0.2449
   97SAPE    C2 9659   0.171   4.201   6.315 -0.1216 -0.0118  0.4414
   97SAPE    HS 9660   0.276   4.209   6.349  0.0759 -1.5574  0.2567
   97SAPE   O21 9661   0.132   4.312   6.228  0.4582  0.3080  0.4483
   97SAPE   C21 9662   0.228   4.388   6.181  0.1358 -0.7441  0.7657
   97SAPE   O22 9663   0.346   4.365   6.198 -0.1438  0.2761 -0.3656
   97SAPE   C22 9664   0.183   4.486   6.083 -0.8393 -0.2072 -0.2827
   97SAPE   H2R 9665   0.102   4.446   6.019 -2.0280  0.4560  0.7739
   97SAPE   H2S 9666   0.150   4.572   6.144 -0.9363  0.0201 -0.6529
   97SAPE    C3 9667   0.154   4.064   6.249  0.9871 -0.1099  0.0427
   97SAPE    HX 9668   0.054   4.067   6.202  2.0687 -1.8201 -2.5994
   97SAPE    HY 9669   0.156   3.980   6.323  1.2819  0.3694  0.5859
   97SAPE   O31 9670   0.244   4.038   6.141  0.0419  0.3095 -0.2149
   97SAPE   C31 9671   0.359   3.979   6.177  0.7958 -0.0927 -0.3476
   97SAPE   O32 9672   0.402   3.980   6.296 -0.0546  0.2535  0.6713
   97SAPE   C32 9673   0.435   3.942   6.052 -0.2376  0.3174 -0.2209
   97SAPE   H2X 9674   0.434   4.027   5.982  1.7633  1.3112  0.8677
   97SAPE   H2Y 9675   0.384   3.852   6.012 -0.3819  0.0607  0.5078
   97SAPE   C23 9676   0.300   4.535   6.002 -0.1364 -0.0188  0.2069
   97SAPE   H3R 9677   0.337   4.451   5.939 -0.9318  1.0555 -1.7588
   97SAPE   H3S 9678   0.393   4.572   6.051  0.7031  0.1831 -1.4958
   97SAPE   C24 9679   0.267   4.634   5.891 -0.0493  0.2837  0.0272
   97SAPE   H4R 9680   0.185   4.588   5.831  0.5854 -1.4840  0.4362
   97SAPE   H4S 9681   0.347   4.621   5.815  1.6277 -1.0763  1.9197
   97SAPE   C25 9682   0.236   4.770   5.934  0.1509 -0.4555  0.3746
   97SAPE   H5R 9683   0.321   4.826   5.977 -0.2888  1.2100 -0.7976
   97SAPE   C26 9684   0.126   4.844   5.891 -0.6267  0.0004 -0.5653
   97SAPE   H6R 9685   0.126   4.944   5.935  3.0876 -0.7210  1.5132
   97SAPE   C27 9686   0.012   4.798   5.804  0.1062 -0.0792  0.2654
   97SAPE   H7R 9687  -0.081   4.800   5.864 -0.2898 -1.7494 -0.2368
   97SAPE   H7S 9688   0.026   4.688   5.792 -2.5552 -0.5154  0.5995
   97SAPE   C28 9689  -0.001   4.877   5.678  0.9784 -0.6514  0.0692
   97SAPE   H8R 9690   0.004   4.987   5.684 -3.5907 -0.2363 -0.1631
   97SAPE   C29 9691  -0.002   4.820   5.553  1.0349 -0.4356 -0.6853
   97SAPE   H9R 9692   0.002   4.875   5.458 -0.3985 -1.8416 -1.6054
   97SAPE  C210 9693  -0.003   4.675   5.527 -0.0098 -0.0512  0.1848
   97SAPE  H10R 9694  -0.093   4.649   5.466  0.3792 -0.2161 -0.3286
   97SAPE  H10S 9695  -0.013   4.614   5.619  1.5524 -0.5176  0.0713
   97SAPE  C211 9696   0.120   4.651   5.438  0.2921  0.2198 -0.5771
   97SAPE  H11R 9697   0.215   4.653   5.492  1.1397  0.8298 -2.0352
   97SAPE  C212 9698   0.123   4.618   5.306  0.7644  0.0476  0.4087
   97SAPE  H12R 9699   0.220   4.592   5.262  0.0058 -1.6190 -0.3309
   97SAPE  C213 9700  -0.004   4.605   5.224  0.2452  0.3222 -0.7036
   97SAPE  H13R 9701  -0.077   4.678   5.265  0.6453  0.3412 -0.0028
   97SAPE  H13S 9702  -0.047   4.506   5.247  1.3647  0.2184  1.1730
   97SAPE  C214 9703   0.013   4.631   5.073  0.1565 -0.3705  0.4385
   97SAPE  H14R 9704  -0.068   4.697   5.036  0.7720 -0.7486 -1.7066
   97SAPE  C215 9705   0.084   4.563   4.980 -0.5004  0.2649 -0.7140
   97SAPE  H15R 9706   0.090   4.602   4.877  1.2693 -0.5395 -0.9728
   97SAPE  C216 9707   0.172   4.448   5.015 -0.4761  0.0979 -0.9855
   97SAPE  H16R 9708   0.173   4.407   5.118 -1.0643  2.1635 -0.1060
   97SAPE  H16S 9709   0.277   4.472   4.986  0.1792 -0.5572  0.7363
   97SAPE  C217 9710   0.137   4.331   4.923  0.3635 -0.2945  0.7172
   97SAPE  H17R 9711   0.156   4.350   4.815  1.2436  0.6140  1.0127
   97SAPE  H17S 9712   0.030   4.301   4.933  0.8235 -2.0129  0.8737
   97SAPE  C218 9713   0.191   4.190   4.963 -0.0437 -0.3881  0.2900
   97SAPE  H18R 9714   0.126   4.139   5.037  0.2293 -0.3957  0.5256
   97SAPE  H18S 9715   0.294   4.200   5.002 -0.6589  1.8783  1.4701
   97SAPE  C219 9716   0.187   4.078   4.855 -0.4271  0.1643 -0.3876
   97SAPE  H19R 9717   0.238   3.986   4.891 -1.7986 -1.6624 -2.8444
   97SAPE  H19S 9718   0.235   4.122   4.765  1.8522 -2.0482 -0.3335
   97SAPE  C220 9719   0.046   4.037   4.806  0.2352  0.5222  0.0618
   97SAPE  H20R 9720  -0.007   4.000   4.896  1.4146 -0.4361  0.3894
   97SAPE  H20S 9721   0.049   3.956   4.730 -0.7981  0.7325 -0.2111
   97SAPE  H20T 9722  -0.013   4.124   4.770  1.1980  0.7161 -1.1381
   97SAPE   C33 9723   0.577   3.891   6.074  0.6869 -0.4187 -0.2469
   97SAPE   H3X 9724   0.558   3.798   6.132  1.7981 -0.8353 -0.5432
   97SAPE   H3Y 9725   0.628   3.945   6.157 -0.7411  0.3066  0.1901
   97SAPE   C34 9726   0.654   3.864   5.948 -0.4855  0.4041  0.6454
   97SAPE   H4X 9727   0.704   3.959   5.920 -1.3226  0.7984  0.4533
   97SAPE   H4Y 9728   0.582   3.831   5.870 -2.8471 -0.9862  3.1804
   97SAPE   C35 9729   0.757   3.758   5.970 -0.3471 -0.6707  0.3763
   97SAPE   H5X 9730   0.709   3.658   5.970 -1.6616 -0.0665 -0.1905
   97SAPE   H5Y 9731   0.814   3.769   6.065  1.8747 -0.5561 -0.8811
   97SAPE   C36 9732   0.862   3.749   5.859 -0.6176 -0.3312  0.9418
   97SAPE   H6X 9733   0.935   3.671   5.888  2.3575  0.9457 -2.4536
   97SAPE   H6Y 9734   0.926   3.838   5.870 -0.5314 -0.2135 -0.4095
   97SAPE   C37 9735   0.806   3.718   5.709  0.5107  0.2584  0.1088
   97SAPE   H7X 9736   0.719   3.779   5.676  0.0756 -1.0420 -1.2665
   97SAPE   H7Y 9737   0.767   3.615   5.720  0.1471  0.4190  0.3648
   97SAPE   C38 9738   0.914   3.704   5.605  0.4602  0.4079 -0.6827
   97SAPE   H8X 9739   0.973   3.619   5.644 -0.9995 -0.1135  0.4831
   97SAPE   H8Y 9740   0.972   3.799   5.606  1.3443  0.1995  5.4448
   97SAPE   C39 9741   0.869   3.655   5.466  0.3298  0.4265 -0.4700
   97SAPE   H9X 9742   0.775   3.707   5.436  0.0879  0.0474 -0.3761
   97SAPE   H9Y 9743   0.855   3.545   5.466 -1.8330  0.6328 -1.8161
   97SAPE  C310 9744   0.980   3.699   5.368  0.6598  0.6864  0.5527
   97SAPE  H10X 9745   1.083   3.677   5.402  0.7506  0.5876  0.2254
   97SAPE  H10Y 9746   0.986   3.806   5.340  2.2117 -0.1183 -2.8515
   97SAPE  C311 9747   0.957   3.627   5.231 -0.5381 -0.1066 -0.6786
   97SAPE  H11X 9748   0.860   3.666   5.194 -0.5816  0.9271  0.4556
   97SAPE  H11Y 9749   0.947   3.518   5.246 -0.7968  0.1203  0.9632
   97SAPE  C312 9750   1.071   3.645   5.128 -0.2595 -0.1949  0.6663
   97SAPE  H12X 9751   1.165   3.648   5.188  0.7317 -0.2720 -0.8491
   97SAPE  H12Y 9752   1.058   3.748   5.087 -0.1636  0.6202  2.5704
   97SAPE  C313 9753   1.069   3.543   5.018  0.1580  0.2943  0.4491
   97SAPE  H13X 9754   1.013   3.452   5.047 -0.0942  1.0776  2.6742
   97SAPE  H13Y 9755   1.172   3.510   4.990  0.6126  0.6220  1.6550
   97SAPE  C314 9756   1.006   3.595   4.884  0.7170  0.5684 -0.6229
   97SAPE  H14X 9757   1.083   3.664   4.841  0.3062  0.1994 -1.9816
   97SAPE  H14Y 9758   0.912   3.645   4.916  0.9104  0.2914  0.4268
   97SAPE  C315 9759   0.992   3.472   4.794 -0.3198  0.0408 -0.6146
   97SAPE  H15X 9760   0.925   3.393   4.835 -0.6709  0.8726  0.4555
   97SAPE  H15Y 9761   1.090   3.426   4.770  0.7357  2.0980 -0.4339
   97SAPE  C316 9762   0.926   3.511   4.668 -0.5920  0.4943 -0.5469
   97SAPE  H16X 9763   0.986   3.593   4.623  0.3872  0.2509  0.2716
   97SAPE  H16Y 9764   0.826   3.548   4.700 -0.5980 -0.3443  0.4584
   97SAPE  C317 9765   0.901   3.396   4.567  0.7729  0.0844 -0.0067
   97SAPE  H17X 9766   0.847   3.315   4.620  1.3676 -0.4675 -0.2438
   97SAPE  H17Y 9767   1.000   3.351   4.547  0.8215 -0.5551  1.5437
   97SAPE  C318 9768   0.828   3.442   4.443  0.3674  0.2227 -0.5165
   97SAPE  H18X 9769   0.793   3.350   4.391  0.6010  0.5388 -1.2473
   97SAPE  H18Y 9770   0.897   3.496   4.374  0.1197  0.5565 -0.5031
   97SAPE  H18Z 9771   0.742   3.504   4.477 -1.1642 -1.9770 -0.1756
   98SAPE     N 9772   6.480   4.198   6.917 -0.0423 -0.4137 -0.1930
   98SAPE   HN1 9773   6.467   4.240   7.012 -3.0720 -0.3143 -0.5326
   98SAPE   HN2 9774   6.388   4.189   6.869 -0.5717  0.0807  0.6900
   98SAPE   HN3 9775   6.504   4.097   6.926 -2.5716 -1.4257 -3.0290
   98SAPE   C12 9776   6.577   4.271   6.837  0.0898 -0.1031  0.3106
   98SAPE  H12A 9777   6.656   4.307   6.906  0.1098  2.4493 -0.9220
   98SAPE  H12B 9778   6.523   4.365   6.812 -0.2421  0.3998  2.6658
   98SAPE   C11 9779   6.645   4.188   6.726  0.1819  0.0399 -0.1238
   98SAPE  H11A 9780   6.734   4.245   6.691  0.5310 -0.5268 -0.1719
   98SAPE  H11B 9781   6.578   4.193   6.638 -1.5858 -0.7220  1.1096
   98SAPE     P 9782   6.764   3.964   6.671 -0.0473 -0.4160  0.4145
   98SAPE   O13 9783   6.909   4.002   6.671 -0.1931 -0.0497  0.0080
   98SAPE   O14 9784   6.735   3.818   6.705  0.0643 -0.7605  0.2842
   98SAPE   O12 9785   6.684   4.056   6.765  0.4881  0.3581 -0.5776
   98SAPE   O11 9786   6.704   3.996   6.532 -0.3767  0.2692 -0.7129
   98SAPE    C1 9787   6.561   3.957   6.507  0.6989  0.3925  0.1773
   98SAPE    HA 9788   6.557   3.847   6.518  1.4904  0.4851  1.7224
   98SAPE    HB 9789   6.490   4.000   6.580  0.6077 -0.6245  0.7006
   98SAPE    C2 9790   6.519   3.999   6.364 -0.5832 -1.1604  0.1902
   98SAPE    HS 9791   6.423   3.945   6.346 -1.1477 -0.3218  0.5797
   98SAPE   O21 9792   6.625   3.973   6.275  0.2089 -0.2919 -0.4461
   98SAPE   C21 9793   6.623   3.856   6.222 -0.3392 -0.0820  0.3926
   98SAPE   O22 9794   6.537   3.772   6.239  0.1870 -0.5138  0.3352
   98SAPE   C22 9795   6.735   3.858   6.113  0.7847 -0.9768 -0.1168
   98SAPE   H2R 9796   6.678   3.856   6.018 -0.6061 -0.1910  0.6615
   98SAPE   H2S 9797   6.791   3.954   6.111  1.1672 -1.1860  0.3345
   98SAPE    C3 9798   6.487   4.146   6.368 -0.1257  0.7074 -0.3636
   98SAPE    HX 9799   6.561   4.194   6.436  1.5252  0.3613 -1.8442
   98SAPE    HY 9800   6.393   4.171   6.421 -0.7680  0.5654 -1.4075
   98SAPE   O31 9801   6.482   4.207   6.238 -0.1539 -0.4644  0.0244
   98SAPE   C31 9802   6.592   4.286   6.211 -0.0158  0.7235 -0.2322
   98SAPE   O32 9803   6.659   4.345   6.294  0.1834  0.9043  0.2015
   98SAPE   C32 9804   6.602   4.298   6.061 -0.2139  0.2584  0.1964
   98SAPE   H2X 9805   6.501   4.312   6.016 -0.1719  0.2760  0.1080
   98SAPE   H2Y 9806   6.643   4.197   6.040  0.0822  0.1976  1.0382
   98SAPE   C23 9807   6.818   3.730   6.132 -0.2906 -1.0973 -0.0150
   98SAPE   H3R 9808   6.756   3.639   6.126 -0.9722 -0.7391  1.2612
   98SAPE   H3S 9809   6.875   3.744   6.227  1.2804  0.7505 -1.1512
   98SAPE   C24 9810   6.939   3.728   6.026  1.0143  0.0054 -0.0133
   98SAPE   H4R 9811   6.989   3.827   6.031  0.2215  0.6501 -2.8203
   98SAPE   H4S 9812   6.887   3.714   5.928 -0.2436 -4.5867  1.0608
   98SAPE   C25 9813   7.037   3.623   6.062 -0.7477  0.4294 -0.2152
   98SAPE   H5R 9814   7.012   3.573   6.157 -1.0925  2.6164  0.9039
   98SAPE   C26 9815   7.140   3.570   5.991 -0.1444  0.2211  0.4700
   98SAPE   H6R 9816   7.208   3.497   6.037  0.4215  0.7041  0.4064
   98SAPE   C27 9817   7.170   3.606   5.848  0.9137 -0.0563 -0.1491
   98SAPE   H7R 9818   7.119   3.704   5.838 -3.9119 -1.9697  2.3174
   98SAPE   H7S 9819   7.109   3.538   5.784  0.4532 -0.0211  0.2410
   98SAPE   C28 9820   7.312   3.606   5.803  0.2288  1.0612 -0.8347
   98SAPE   H8R 9821   7.386   3.582   5.881  0.2182  1.2730 -0.7609
   98SAPE   C29 9822   7.357   3.649   5.682  0.7026 -0.0285  0.2830
   98SAPE   H9R 9823   7.465   3.639   5.664  0.8198  1.0677  0.3098
   98SAPE  C210 9824   7.266   3.717   5.578 -0.8435 -0.7708 -0.7063
   98SAPE  H10R 9825   7.157   3.722   5.599 -0.9778  0.7961 -1.5504
   98SAPE  H10S 9826   7.277   3.673   5.477 -1.1788 -0.4578 -0.8835
   98SAPE  C211 9827   7.296   3.867   5.582 -0.5835  0.2013  0.0641
   98SAPE  H11R 9828   7.292   3.916   5.681 -0.4791 -0.0265  0.1811
   98SAPE  C212 9829   7.346   3.936   5.478 -0.2149 -0.6024 -0.0164
   98SAPE  H12R 9830   7.367   4.043   5.487 -0.7729 -0.6681  3.0408
   98SAPE  C213 9831   7.372   3.864   5.344 -0.0504  0.0874  0.1343
   98SAPE  H13R 9832   7.282   3.808   5.311  0.8019 -1.2102 -0.0309
   98SAPE  H13S 9833   7.444   3.781   5.360 -0.8687 -0.3670  1.7042
   98SAPE  C214 9834   7.417   3.955   5.232 -0.6653 -0.3643 -0.5779
   98SAPE  H14R 9835   7.437   4.061   5.251  1.1512 -0.3196 -2.4256
   98SAPE  C215 9836   7.426   3.925   5.104  0.1516  0.0361  0.7724
   98SAPE  H15R 9837   7.453   4.007   5.036  3.1873 -0.4724  1.2153
   98SAPE  C216 9838   7.391   3.800   5.028 -0.2017 -0.5993 -0.1670
   98SAPE  H16R 9839   7.311   3.826   4.955  0.9811 -1.8785 -2.0142
   98SAPE  H16S 9840   7.338   3.728   5.095 -1.6601  0.5728 -0.0176
   98SAPE  C217 9841   7.501   3.726   4.950  0.0422 -0.5857 -0.4934
   98SAPE  H17R 9842   7.575   3.694   5.027  0.3483  1.6509  0.2163
   98SAPE  H17S 9843   7.553   3.799   4.884 -2.0862 -0.1426 -1.7754
   98SAPE  C218 9844   7.456   3.605   4.877 -0.4185 -0.2407 -0.0495
   98SAPE  H18R 9845   7.392   3.539   4.940  0.1817  0.3451  1.2051
   98SAPE  H18S 9846   7.544   3.543   4.846  0.0559  0.7730 -0.7708
   98SAPE  C219 9847   7.383   3.631   4.748  0.0617 -0.1345 -0.4159
   98SAPE  H19R 9848   7.451   3.693   4.686 -0.3078 -0.6221 -1.3395
   98SAPE  H19S 9849   7.302   3.705   4.764 -0.2526 -0.3835 -0.8271
   98SAPE  C220 9850   7.349   3.501   4.674 -0.3952 -0.5058 -0.0136
   98SAPE  H20R 9851   7.446   3.448   4.662 -0.6027 -0.3814 -2.9795
   98SAPE  H20S 9852   7.313   3.512   4.570  0.0351 -0.2283 -0.1351
   98SAPE  H20T 9853   7.269   3.438   4.719  1.7646 -2.7172  0.9599
   98SAPE   C33 9854   6.697   4.403   6.005 -0.1403 -0.7459 -0.1001
   98SAPE   H3X 9855   6.792   4.405   6.061  0.4679  2.0585 -1.0383
   98SAPE   H3Y 9856   6.643   4.499   6.019  0.4369 -0.4349  0.0272
   98SAPE   C34 9857   6.722   4.402   5.853  0.3388  0.4023  0.2779
   98SAPE   H4X 9858   6.736   4.297   5.821 -1.8282 -0.3239  1.5090
   98SAPE   H4Y 9859   6.812   4.464   5.835 -1.8521  3.1458 -2.5137
   98SAPE   C35 9860   6.597   4.460   5.772 -0.3331  0.0919  0.1678
   98SAPE   H5X 9861   6.593   4.568   5.798  2.9689 -0.5238  4.5913
   98SAPE   H5Y 9862   6.505   4.411   5.811 -1.1360  1.9745  0.7338
   98SAPE   C36 9863   6.617   4.435   5.622 -0.2448  0.1815  0.0321
   98SAPE   H6X 9864   6.631   4.327   5.598  3.3471  0.7078 -0.8024
   98SAPE   H6Y 9865   6.718   4.471   5.593  0.0522  2.0087  2.8952
   98SAPE   C37 9866   6.505   4.483   5.532  0.7229  0.0961  0.1595
   98SAPE   H7X 9867   6.496   4.594   5.527 -1.7842 -0.1018 -1.7555
   98SAPE   H7Y 9868   6.409   4.439   5.569 -0.9752  1.9073 -1.7909
   98SAPE   C38 9869   6.530   4.434   5.383  0.1032 -0.0242 -0.0189
   98SAPE   H8X 9870   6.537   4.323   5.373  0.4447  0.1234 -1.7417
   98SAPE   H8Y 9871   6.626   4.483   5.355  0.5249 -1.5866 -1.5492
   98SAPE   C39 9872   6.419   4.487   5.290  0.1366  0.0898 -0.2771
   98SAPE   H9X 9873   6.396   4.591   5.322 -1.1715 -1.1741  3.4635
   98SAPE   H9Y 9874   6.329   4.427   5.314  1.2928 -0.8765  1.9188
   98SAPE  C310 9875   6.456   4.500   5.139  0.7134  0.2732 -0.0870
   98SAPE  H10X 9876   6.545   4.566   5.131  1.4329 -0.0774  3.2406
   98SAPE  H10Y 9877   6.376   4.550   5.081  1.7082  0.0255 -1.7126
   98SAPE  C311 9878   6.492   4.361   5.085 -0.1808  0.1460 -0.0470
   98SAPE  H11X 9879   6.414   4.289   5.119 -1.7763  1.2069 -1.2666
   98SAPE  H11Y 9880   6.588   4.326   5.127 -0.0701 -0.7046 -0.9760
   98SAPE  C312 9881   6.499   4.367   4.928 -0.3837  1.1240 -0.8403
   98SAPE  H12X 9882   6.415   4.429   4.889 -2.8170 -2.8533 -2.4489
   98SAPE  H12Y 9883   6.494   4.265   4.885  0.9568 -0.0234  1.4830
   98SAPE  C313 9884   6.630   4.434   4.876  0.1890  0.2533 -0.2524
   98SAPE  H13X 9885   6.713   4.378   4.925  0.3491  0.0788 -0.7132
   98SAPE  H13Y 9886   6.635   4.538   4.917 -0.8156 -0.2924  1.3367
   98SAPE  C314 9887   6.643   4.433   4.726 -0.2038 -0.7474  0.9701
   98SAPE  H14X 9888   6.565   4.505   4.691  0.5913 -0.5094 -0.4109
   98SAPE  H14Y 9889   6.615   4.330   4.696  1.8855 -1.7098  2.1262
   98SAPE  C315 9890   6.777   4.474   4.651  0.3106  0.0819  0.0347
   98SAPE  H15X 9891   6.861   4.414   4.692  0.4085 -0.4548 -0.9125
   98SAPE  H15Y 9892   6.796   4.582   4.666  0.9159  0.1492 -1.0939
   98SAPE  C316 9893   6.761   4.465   4.497 -0.0523 -0.2503 -0.1142
   98SAPE  H16X 9894   6.652   4.469   4.476 -0.1838 -0.1271  0.5628
   98SAPE  H16Y 9895   6.790   4.364   4.460  2.3746  0.0567  0.7730
   98SAPE  C317 9896   6.846   4.567   4.422 -0.0006 -0.3533 -0.2106
   98SAPE  H17X 9897   6.824   4.547   4.315  0.2800  0.6230 -0.4575
   98SAPE  H17Y 9898   6.954   4.553   4.439 -0.4297 -1.9212  1.5745
   98SAPE  C318 9899   6.800   4.718   4.440 -0.4005  0.0005  0.2175
   98SAPE  H18X 9900   6.831   4.759   4.539 -0.1640 -1.3834  0.7345
   98SAPE  H18Y 9901   6.691   4.740   4.437 -0.8249 -1.3099  3.0425
   98SAPE  H18Z 9902   6.858   4.775   4.365 -0.1690 -0.5274 -0.0097
   99SAPE     N 9903   0.055   2.562   6.459  0.5467  0.1971  0.0246
   99SAPE   HN1 9904   0.004   2.652   6.475 -0.9919 -0.5136 -0.6671
   99SAPE   HN2 9905  -0.004   2.477   6.469  0.9151  0.0635  1.3337
   99SAPE   HN3 9906   0.124   2.554   6.537 -0.8696 -3.3031  1.1160
   99SAPE   C12 9907   0.110   2.554   6.322  0.3602  0.6788 -0.4563
   99SAPE  H12A 9908   0.026   2.549   6.249 -0.4714  1.4006  0.4315
   99SAPE  H12B 9909   0.166   2.459   6.312 -0.6501  0.2640 -2.7043
   99SAPE   C11 9910   0.208   2.669   6.296  0.4737  0.1136 -0.0586
   99SAPE  H11A 9911   0.155   2.767   6.298 -0.6961 -0.4549 -1.2300
   99SAPE  H11B 9912   0.236   2.661   6.189 -3.3476  2.4571 -1.4651
   99SAPE     P 9913   0.420   2.771   6.423 -0.3302 -0.2179  0.1950
   99SAPE   O13 9914   0.348   2.874   6.508 -0.5179  0.0510 -0.3262
   99SAPE   O14 9915   0.533   2.708   6.491  0.0571  0.1786 -0.4086
   99SAPE   O12 9916   0.324   2.656   6.378 -0.4066 -0.2324  0.2779
   99SAPE   O11 9917   0.483   2.842   6.295  0.8227 -0.0589  0.3341
   99SAPE    C1 9918   0.622   2.873   6.298  0.2934 -0.0693 -0.9244
   99SAPE    HA 9919   0.642   2.979   6.321  0.4953 -0.0179 -1.3326
   99SAPE    HB 9920   0.682   2.814   6.370  0.0049 -1.1431 -1.5394
   99SAPE    C2 9921   0.695   2.849   6.161  0.7306  0.3490 -0.7624
   99SAPE    HS 9922   0.675   2.936   6.095 -0.8622  0.1165 -0.6403
   99SAPE   O21 9923   0.665   2.711   6.105 -0.7938 -0.2262 -0.1620
   99SAPE   C21 9924   0.560   2.729   6.029 -0.0161 -0.1471  0.4159
   99SAPE   O22 9925   0.503   2.835   6.006 -0.2783  0.3378 -0.1184
   99SAPE   C22 9926   0.518   2.598   5.970  0.0887  0.7888  0.1035
   99SAPE   H2R 9927   0.602   2.565   5.906  0.0603  0.8702  0.0233
   99SAPE   H2S 9928   0.494   2.527   6.052  1.6226 -1.5609 -1.3659
   99SAPE    C3 9929   0.845   2.855   6.184 -0.2647 -0.2911  0.4245
   99SAPE    HX 9930   0.860   2.779   6.263 -3.7740 -0.2708  1.2546
   99SAPE    HY 9931   0.878   2.955   6.219 -2.0022  0.6898 -0.5885
   99SAPE   O31 9932   0.916   2.810   6.066  0.0223 -0.0349 -0.2470
   99SAPE   C31 9933   0.928   2.900   5.971  0.4420  0.4085 -0.2939
   99SAPE   O32 9934   0.887   3.014   5.971 -0.1203  0.2912  0.0298
   99SAPE   C32 9935   0.994   2.829   5.849  0.3077  0.1963 -0.1693
   99SAPE   H2X 9936   1.100   2.821   5.880  0.2563 -0.5246 -0.1579
   99SAPE   H2Y 9937   0.973   2.902   5.768 -0.8147 -0.3315 -0.3804
   99SAPE   C23 9938   0.393   2.616   5.878  0.3456  0.2066 -0.1097
   99SAPE   H3R 9939   0.420   2.696   5.806 -0.3265  0.3978 -0.1576
   99SAPE   H3S 9940   0.304   2.657   5.931  0.2732  2.3376 -1.7462
   99SAPE   C24 9941   0.370   2.483   5.807 -0.7821 -0.7211 -0.3413
   99SAPE   H4R 9942   0.365   2.396   5.876  0.8635 -1.5244 -1.1642
   99SAPE   H4S 9943   0.463   2.460   5.750  1.3950 -0.0844  2.7113
   99SAPE   C25 9944   0.246   2.481   5.716  0.2016 -0.1864  0.2316
   99SAPE   H5R 9945   0.153   2.495   5.772  0.6585  0.7116  0.8047
   99SAPE   C26 9946   0.240   2.452   5.585  0.0244 -0.5362  0.2440
   99SAPE   H6R 9947   0.145   2.457   5.530  0.1735  0.1017  0.0416
   99SAPE   C27 9948   0.356   2.420   5.499  0.6199  0.5305 -0.1170
   99SAPE   H7R 9949   0.442   2.490   5.504 -0.0383  1.4200 -0.7650
   99SAPE   H7S 9950   0.334   2.448   5.393 -1.5700  0.6453  0.3284
   99SAPE   C28 9951   0.405   2.282   5.516  0.4328 -0.2022  0.0816
   99SAPE   H8R 9952   0.338   2.214   5.571  1.6234 -1.4887  0.0076
   99SAPE   C29 9953   0.524   2.238   5.473  0.2463 -1.1273  0.0722
   99SAPE   H9R 9954   0.545   2.131   5.484  0.7538 -1.0252  0.0957
   99SAPE  C210 9955   0.624   2.319   5.398  0.4638  0.0586  0.8204
   99SAPE  H10R 9956   0.667   2.393   5.469  2.1508 -0.5612  0.4665
   99SAPE  H10S 9957   0.573   2.392   5.330  1.9327 -2.1171 -2.8922
   99SAPE  C211 9958   0.737   2.246   5.336 -0.2635 -0.1476  0.4337
   99SAPE  H11R 9959   0.808   2.209   5.411 -0.7265 -0.7134  0.6038
   99SAPE  C212 9960   0.751   2.215   5.205  0.2941 -0.3729 -0.0502
   99SAPE  H12R 9961   0.837   2.158   5.166 -0.6008  0.8379 -4.2959
   99SAPE  C213 9962   0.663   2.254   5.088  0.3411  0.2091 -0.1509
   99SAPE  H13R 9963   0.730   2.255   5.000 -1.5820  4.4518 -1.8556
   99SAPE  H13S 9964   0.629   2.359   5.105 -0.3937  0.2414 -1.6137
   99SAPE  C214 9965   0.553   2.155   5.080 -0.5017  0.4273  0.5558
   99SAPE  H14R 9966   0.462   2.185   5.134 -0.7886 -2.0108  1.5348
   99SAPE  C215 9967   0.555   2.028   5.019  0.0222 -0.1639  0.1086
   99SAPE  H15R 9968   0.469   1.961   5.027  0.2553 -0.5400 -0.5291
   99SAPE  C216 9969   0.671   1.977   4.941 -0.1181 -0.4210 -0.3112
   99SAPE  H16R 9970   0.708   1.888   4.997  0.8815  1.1622  1.6690
   99SAPE  H16S 9971   0.758   2.045   4.957 -0.1720  0.4036 -3.0607
   99SAPE  C217 9972   0.658   1.932   4.792  0.7693 -0.5418  0.6098
   99SAPE  H17R 9973   0.574   1.859   4.792  0.2616 -0.0261 -1.5117
   99SAPE  H17S 9974   0.744   1.885   4.739 -0.9938 -1.9520 -1.1831
   99SAPE  C218 9975   0.629   2.054   4.712  0.4724 -0.1253  0.3311
   99SAPE  H18R 9976   0.556   2.118   4.766 -1.5294 -2.9467  1.1987
   99SAPE  H18S 9977   0.580   2.028   4.616 -0.4971  1.3080  0.3967
   99SAPE  C219 9978   0.748   2.145   4.685  0.2100 -0.2229 -0.3796
   99SAPE  H19R 9979   0.804   2.171   4.778  0.9380 -2.1898 -0.2290
   99SAPE  H19S 9980   0.705   2.240   4.645 -1.7670 -0.8340  0.1893
   99SAPE  C220 9981   0.841   2.092   4.575  0.6706 -0.0861 -0.0359
   99SAPE  H20R 9982   0.896   2.003   4.612  1.2124  0.6027  0.8754
   99SAPE  H20S 9983   0.917   2.172   4.558 -0.0563  0.1483 -2.5419
   99SAPE  H20T 9984   0.790   2.073   4.479 -1.3085  3.3602  0.1738
   99SAPE   C33 9985   0.938   2.690   5.802  0.7291  0.7089 -0.7053
   99SAPE   H3X 9986   0.831   2.678   5.828  0.6318  1.2228 -0.8613
   99SAPE   H3Y 9987   0.988   2.624   5.876 -1.7372  0.0873  0.5126
   99SAPE   C34 9988   0.952   2.660   5.656 -0.3515 -0.2081 -0.1317
   99SAPE   H4X 9989   0.934   2.551   5.647  1.0181 -0.5814  1.1382
   99SAPE   H4Y 9990   1.055   2.689   5.624 -0.4379 -1.3708 -1.5654
   99SAPE   C35 9991   0.848   2.722   5.564  0.0562 -0.1128 -0.1684
   99SAPE   H5X 9992   0.835   2.831   5.577  1.4776  0.0849 -0.2853
   99SAPE   H5Y 9993   0.749   2.678   5.591  0.6479 -1.5218 -0.1747
   99SAPE   C36 9994   0.877   2.701   5.417 -0.2552 -0.4774 -0.6060
   99SAPE   H6X 9995   0.898   2.593   5.401  0.4554 -0.7836  1.9398
   99SAPE   H6Y 9996   0.975   2.750   5.402 -0.8809  0.5191 -1.5811
   99SAPE   C37 9997   0.750   2.755   5.344 -0.4256  0.2456 -0.0238
   99SAPE   H7X 9998   0.743   2.862   5.371  0.2146  0.1613  0.4999
   99SAPE   H7Y 9999   0.664   2.694   5.379  1.2185 -1.8882  0.5341
   99SAPE   C3810000   0.767   2.736   5.189 -0.0661 -0.7464 -0.4142
   99SAPE   H8X10001   0.772   2.628   5.164 -3.8236 -1.1258 -0.0875
   99SAPE   H8Y10002   0.856   2.794   5.156 -0.8062 -0.1786 -1.4595
   99SAPE   C3910003   0.640   2.787   5.118  0.2104 -0.0207  0.2185
   99SAPE   H9X10004   0.622   2.890   5.157  0.9653  0.2924 -0.2290
   99SAPE   H9Y10005   0.556   2.718   5.139 -0.0533 -0.1179 -1.0714
   99SAPE  C31010006   0.655   2.797   4.971 -0.0554 -0.2725  0.4825
   99SAPE  H10X10007   0.717   2.884   4.942  0.3223 -0.5787  0.3648
   99SAPE  H10Y10008   0.560   2.819   4.917 -0.4162  0.7519  1.4852
   99SAPE  C31110009   0.718   2.678   4.911  0.0056  0.8614 -0.2886
   99SAPE  H11X10010   0.688   2.579   4.953  0.3203  0.5225 -0.8476
   99SAPE  H11Y10011   0.828   2.665   4.903 -0.1284 -0.0540 -0.9219
   99SAPE  C31210012   0.682   2.661   4.756 -0.9537 -0.2275 -0.5083
   99SAPE  H12X10013   0.718   2.754   4.707 -1.9545  1.6643  2.1188
   99SAPE  H12Y10014   0.571   2.653   4.755 -0.9418 -1.3811  1.4978
   99SAPE  C31310015   0.746   2.546   4.680 -0.1964 -0.0540  0.7550
   99SAPE  H13X10016   0.707   2.449   4.718  2.5328 -0.7750  1.9708
   99SAPE  H13Y10017   0.855   2.552   4.698 -0.3105  0.9443  1.2211
   99SAPE  C31410018   0.718   2.570   4.533 -0.5272  0.2326 -0.1074
   99SAPE  H14X10019   0.748   2.673   4.505 -1.7918  1.5981  3.0906
   99SAPE  H14Y10020   0.608   2.564   4.519 -0.4706  0.7402 -0.8052
   99SAPE  C31510021   0.784   2.475   4.431 -0.3961  0.1873  0.1187
   99SAPE  H15X10022   0.746   2.493   4.328  0.5112  0.2685 -0.2101
   99SAPE  H15Y10023   0.749   2.375   4.467 -0.9738 -1.2730 -3.9916
   99SAPE  C31610024   0.936   2.466   4.430  0.5205  0.1252 -0.2620
   99SAPE  H16X10025   0.971   2.380   4.368  1.6419  1.4505 -1.5426
   99SAPE  H16Y10026   0.967   2.438   4.534  2.3834 -0.6306 -0.9656
   99SAPE  C31710027   1.001   2.592   4.382 -0.1454 -0.4699 -0.7181
   99SAPE  H17X10028   0.962   2.685   4.429 -1.4076 -1.3414  0.0145
   99SAPE  H17Y10029   0.982   2.614   4.274  0.5655  3.4459 -0.1772
   99SAPE  C31810030   1.162   2.592   4.392 -0.3479 -0.4202  0.0569
   99SAPE  H18X10031   1.187   2.599   4.501 -3.2033  1.2983  0.7009
   99SAPE  H18Y10032   1.206   2.678   4.336 -0.2690 -1.1640 -1.0459
   99SAPE  H18Z10033   1.203   2.495   4.358 -2.1480 -0.8934 -0.8937
  100SAPE     N10034   4.344   5.741   6.785 -0.3624 -0.4804 -0.3224
  100SAPE   HN110035   4.241   5.743   6.799 -0.3163 -0.7621  0.0630
  100SAPE   HN210036   4.388   5.753   6.878 -0.3834  0.1019 -0.3822
  100SAPE   HN310037   4.374   5.822   6.728 -1.9692  1.3011  1.2335
  100SAPE   C1210038   4.374   5.611   6.722 -0.0218 -0.8109  0.4303
  100SAPE  H12A10039   4.341   5.535   6.796 -0.7573 -0.7970  0.1258
  100SAPE  H12B10040   4.482   5.615   6.698 -0.0462  0.2025  0.4366
  100SAPE   C1110041   4.301   5.603   6.590 -0.0725 -0.1421 -0.2881
  100SAPE  H11A10042   4.192   5.598   6.607  0.0422  2.2677  1.6257
  100SAPE  H11B10043   4.304   5.504   6.539 -1.4768 -1.2695  1.6569
  100SAPE     P10044   4.450   5.743   6.423  0.2450 -0.1607  0.2789
  100SAPE   O1310045   4.435   5.865   6.336  0.4596 -0.6403 -0.0147
  100SAPE   O1410046   4.568   5.747   6.516  0.0135  0.1634 -0.2826
  100SAPE   O1210047   4.318   5.717   6.505 -0.6117  0.2937 -0.2454
  100SAPE   O1110048   4.451   5.616   6.320 -0.4097  0.0418  0.1581
  100SAPE    C110049   4.571   5.610   6.244 -0.4382  1.3514  0.2747
  100SAPE    HA10050   4.599   5.707   6.197  0.7908  1.3027  0.8487
  100SAPE    HB10051   4.658   5.596   6.312 -0.1915 -1.3637 -0.4846
  100SAPE    C210052   4.566   5.498   6.134 -1.0611 -0.0286  0.4641
  100SAPE    HS10053   4.666   5.479   6.089 -1.4513 -0.7274 -0.1283
  100SAPE   O2110054   4.472   5.532   6.031 -0.3161  0.1457 -0.7416
  100SAPE   C2110055   4.515   5.618   5.939 -0.2435  0.1653 -0.0820
  100SAPE   O2210056   4.628   5.664   5.931  0.0259  0.5572  0.2037
  100SAPE   C2210057   4.397   5.652   5.843 -0.0747 -0.0802  0.0909
  100SAPE   H2R10058   4.314   5.587   5.881  1.0787  0.1193  3.2814
  100SAPE   H2S10059   4.379   5.761   5.854  3.7779  0.5775  1.2870
  100SAPE    C310060   4.530   5.366   6.204 -0.4927  0.1668  0.3392
  100SAPE    HX10061   4.424   5.353   6.234 -1.0562 -0.4237 -1.7460
  100SAPE    HY10062   4.585   5.368   6.300 -0.9562  0.6564  0.5979
  100SAPE   O3110063   4.576   5.259   6.115  0.4730 -0.7607 -0.1937
  100SAPE   C3110064   4.486   5.202   6.034  0.0282  0.0817 -0.1099
  100SAPE   O3210065   4.364   5.216   6.042 -0.0583  0.1030 -0.3709
  100SAPE   C3210066   4.554   5.109   5.932  0.2590 -0.0603 -0.2242
  100SAPE   H2X10067   4.564   5.008   5.977  0.1294  0.8283  1.9359
  100SAPE   H2Y10068   4.660   5.139   5.916  0.2429 -0.5051 -1.1972
  100SAPE   C2310069   4.425   5.620   5.683 -0.2509 -0.3405 -0.0101
  100SAPE   H3R10070   4.413   5.510   5.669 -2.6029 -0.2614  0.8826
  100SAPE   H3S10071   4.526   5.646   5.646  0.3913 -2.0658  0.4012
  100SAPE   C2410072   4.313   5.693   5.597  0.1498 -0.2188 -0.3227
  100SAPE   H4R10073   4.312   5.800   5.625 -1.3437 -0.0710 -0.8507
  100SAPE   H4S10074   4.216   5.661   5.640 -0.5205  1.2852 -0.6541
  100SAPE   C2510075   4.341   5.679   5.452 -0.1462 -0.7597  0.4872
  100SAPE   H5R10076   4.428   5.726   5.404 -0.9008 -0.4632 -0.6487
  100SAPE   C2610077   4.270   5.608   5.363 -0.1923  0.0054  0.3252
  100SAPE   H6R10078   4.301   5.639   5.263  0.9626  2.1302  1.2761
  100SAPE   C2710079   4.153   5.512   5.381  0.9183  0.3070  0.1563
  100SAPE   H7R10080   4.090   5.505   5.289  1.4744  0.8562 -0.2804
  100SAPE   H7S10081   4.087   5.562   5.455  0.7508 -0.0188  0.2281
  100SAPE   C2810082   4.182   5.371   5.436 -0.3616 -0.3500 -0.1846
  100SAPE   H8R10083   4.266   5.375   5.508 -0.1494 -0.5683 -0.4175
  100SAPE   C2910084   4.147   5.252   5.389 -0.4508 -0.5970 -0.7974
  100SAPE   H9R10085   4.173   5.167   5.453  0.2415 -1.3805 -2.0772
  100SAPE  C21010086   4.058   5.218   5.269 -0.3477  0.2943 -1.2446
  100SAPE  H10R10087   3.999   5.303   5.230 -0.8001  0.5226 -0.1197
  100SAPE  H10S10088   3.976   5.151   5.305  0.6938 -0.5962 -0.4562
  100SAPE  C21110089   4.143   5.152   5.166 -0.1960 -0.1237  0.0368
  100SAPE  H11R10090   4.150   5.043   5.175 -3.6186 -0.6302 -1.7075
  100SAPE  C21210091   4.198   5.201   5.052 -0.4265 -0.8468  0.3754
  100SAPE  H12R10092   4.259   5.128   4.997  0.3547 -0.1083  0.2389
  100SAPE  C21310093   4.200   5.349   5.008  0.3078  0.3220 -0.5695
  100SAPE  H13R10094   4.265   5.416   5.069 -0.0398  0.0253  0.1397
  100SAPE  H13S10095   4.098   5.387   5.031  0.1407 -0.6257  0.3163
  100SAPE  C21410096   4.229   5.378   4.864 -0.6072  0.1235  0.2262
  100SAPE  H14R10097   4.309   5.453   4.853  0.9818 -1.4647  0.5915
  100SAPE  C21510098   4.181   5.320   4.753 -0.1045 -0.3403 -0.1882
  100SAPE  H15R10099   4.220   5.361   4.659  0.6412  1.6310  0.9140
  100SAPE  C21610100   4.075   5.214   4.748 -0.2733  0.1519  0.6560
  100SAPE  H16R10101   3.991   5.245   4.681  0.1087  0.4419  0.3068
  100SAPE  H16S10102   4.031   5.200   4.849 -2.0041 -0.7261 -0.1704
  100SAPE  C21710103   4.122   5.075   4.692 -0.6069  0.2713 -0.0669
  100SAPE  H17R10104   4.213   5.053   4.752 -1.2020 -0.8523  0.4538
  100SAPE  H17S10105   4.152   5.082   4.585  3.1153 -0.1312  0.8380
  100SAPE  C21810106   4.021   4.966   4.720  0.2265 -1.2313  0.3000
  100SAPE  H18R10107   3.991   4.972   4.827 -0.1674 -0.6232  0.1592
  100SAPE  H18S10108   4.059   4.869   4.682  4.9329  0.5894 -0.3707
  100SAPE  C21910109   3.884   4.984   4.650 -0.6543 -0.3871 -0.1425
  100SAPE  H19R10110   3.901   4.993   4.541 -1.2126  0.9629 -0.1368
  100SAPE  H19S10111   3.850   5.088   4.670 -0.3245 -0.3179  0.0782
  100SAPE  C22010112   3.769   4.905   4.706 -0.5900 -0.5531 -0.5530
  100SAPE  H20R10113   3.665   4.935   4.683 -1.0108 -1.0043  0.6567
  100SAPE  H20S10114   3.770   4.916   4.817  0.0597  1.2892 -0.7062
  100SAPE  H20T10115   3.774   4.798   4.677 -0.2862  0.0145 -2.7758
  100SAPE   C3310116   4.487   5.105   5.795 -0.0135  0.0810  1.1618
  100SAPE   H3X10117   4.475   5.209   5.760 -0.3716 -0.1199  0.6771
  100SAPE   H3Y10118   4.383   5.069   5.809  0.1246 -0.2095  1.4543
  100SAPE   C3410119   4.571   5.039   5.687 -0.4986  0.1119 -0.6772
  100SAPE   H4X10120   4.609   4.947   5.737 -0.8359  0.4068  0.1386
  100SAPE   H4Y10121   4.660   5.104   5.673  0.0100 -0.3539  0.3026
  100SAPE   C3510122   4.500   5.005   5.556  0.1099 -0.7553 -0.3721
  100SAPE   H5X10123   4.450   5.097   5.518  3.2620  0.6488 -1.4541
  100SAPE   H5Y10124   4.428   4.928   5.589  0.5000 -0.7855  0.4208
  100SAPE   C3610125   4.596   4.946   5.457 -0.5086 -0.0443 -0.0699
  100SAPE   H6X10126   4.635   4.850   5.496 -0.6911  0.3002  0.9846
  100SAPE   H6Y10127   4.672   5.025   5.439 -0.1452  0.1829  2.1709
  100SAPE   C3710128   4.545   4.907   5.317 -0.6288  1.1206  0.6823
  100SAPE   H7X10129   4.466   4.977   5.284 -1.8600  0.3428  1.8627
  100SAPE   H7Y10130   4.496   4.808   5.329  1.0602  0.1134 -0.3346
  100SAPE   C3810131   4.658   4.898   5.216  0.6192 -0.7691  0.3089
  100SAPE   H8X10132   4.723   4.810   5.234 -0.0783 -0.6977  4.0485
  100SAPE   H8Y10133   4.734   4.977   5.237 -0.1277 -0.4656  2.0875
  100SAPE   C3910134   4.617   4.898   5.067 -0.0903  0.5080 -0.2592
  100SAPE   H9X10135   4.633   4.997   5.018 -0.0406  1.6054  1.8511
  100SAPE   H9Y10136   4.512   4.863   5.065  0.5539 -1.6617  0.6988
  100SAPE  C31010137   4.695   4.791   4.988  0.5061  0.2499  0.0248
  100SAPE  H10X10138   4.677   4.692   5.033  0.6102 -0.0688 -0.6137
  100SAPE  H10Y10139   4.803   4.814   4.999  0.1056  1.6419  1.2998
  100SAPE  C31110140   4.660   4.799   4.840  0.4976 -0.2378 -0.1266
  100SAPE  H11X10141   4.751   4.765   4.787  0.8031 -1.7388  1.2888
  100SAPE  H11Y10142   4.641   4.907   4.818  0.5740  0.3501  2.4038
  100SAPE  C31210143   4.540   4.711   4.813  0.6768 -0.3956 -0.3859
  100SAPE  H12X10144   4.450   4.762   4.853 -0.5656 -2.5900 -0.2278
  100SAPE  H12Y10145   4.557   4.617   4.871 -1.9470  0.7888  2.6006
  100SAPE  C31310146   4.516   4.687   4.661  0.5682 -0.2202  0.2393
  100SAPE  H13X10147   4.453   4.596   4.663  0.2186  0.0115 -0.1049
  100SAPE  H13Y10148   4.610   4.669   4.604 -1.5929 -0.9397 -3.3841
  100SAPE  C31410149   4.426   4.796   4.596  0.2521 -0.6245 -0.1548
  100SAPE  H14X10150   4.486   4.889   4.587  1.4168 -1.2490  0.8411
  100SAPE  H14Y10151   4.341   4.822   4.663  1.3199  0.9698  0.6262
  100SAPE  C31510152   4.360   4.747   4.460  0.5378  0.3228  0.0818
  100SAPE  H15X10153   4.309   4.649   4.469 -1.1446  0.8517 -2.5245
  100SAPE  H15Y10154   4.428   4.733   4.373 -0.7794 -0.9211 -0.7853
  100SAPE  C31610155   4.251   4.836   4.405  0.3055  0.8017 -0.7813
  100SAPE  H16X10156   4.300   4.929   4.369  0.2050  1.0098 -0.3866
  100SAPE  H16Y10157   4.186   4.862   4.491  0.7135  0.4711 -0.3719
  100SAPE  C31710158   4.175   4.783   4.280 -0.2763  0.1305 -0.1581
  100SAPE  H17X10159   4.256   4.760   4.207 -1.1972 -2.1807 -0.5140
  100SAPE  H17Y10160   4.124   4.872   4.237 -0.8867 -0.5074 -0.7765
  100SAPE  C31810161   4.075   4.662   4.284  0.1479  0.2457 -0.5129
  100SAPE  H18X10162   4.130   4.579   4.333 -1.1250 -0.6472 -0.5649
  100SAPE  H18Y10163   4.053   4.637   4.178  2.9780  0.3360 -1.1988
  100SAPE  H18Z10164   3.982   4.686   4.340  0.5933  0.9059 -0.0420
  101SAPE     N10165   2.569   5.866   6.464 -0.0046  0.2871 -0.2135
  101SAPE   HN110166   2.651   5.930   6.467  0.6832 -0.5966  1.0560
  101SAPE   HN210167   2.486   5.917   6.428 -1.4748 -2.2447 -0.7231
  101SAPE   HN310168   2.542   5.835   6.560 -0.7210 -2.0699 -1.0893
  101SAPE   C1210169   2.597   5.753   6.367  0.3900  0.8540 -0.3347
  101SAPE  H12A10170   2.530   5.670   6.398  0.5084  0.6850 -0.5350
  101SAPE  H12B10171   2.704   5.727   6.374  0.7829  2.6722  2.0765
  101SAPE   C1110172   2.560   5.790   6.228  0.5945 -0.2754  0.0782
  101SAPE  H11A10173   2.584   5.712   6.152  2.5241  0.0474  0.3056
  101SAPE  H11B10174   2.642   5.860   6.198  2.1271 -2.2942 -0.6658
  101SAPE     P10175   2.300   5.764   6.172 -0.1797  0.3184 -0.0536
  101SAPE   O1310176   2.272   5.650   6.264 -0.3032  0.3243  0.1888
  101SAPE   O1410177   2.188   5.856   6.160  0.0114 -0.6194  0.2120
  101SAPE   O1210178   2.427   5.851   6.222  0.5009  0.0857  0.4747
  101SAPE   O1110179   2.349   5.706   6.038 -0.6811 -0.5576 -0.0153
  101SAPE    C110180   2.423   5.791   5.945 -0.9662 -0.3360 -0.7508
  101SAPE    HA10181   2.433   5.894   5.984 -2.2290 -0.8189  0.9744
  101SAPE    HB10182   2.518   5.736   5.928 -0.0358  0.5543  1.2331
  101SAPE    C210183   2.366   5.799   5.802  0.3972  0.1400 -0.0417
  101SAPE    HS10184   2.439   5.860   5.745  1.8482  0.8407  2.4210
  101SAPE   O2110185   2.235   5.855   5.797 -0.2019  0.7357 -0.1551
  101SAPE   C2110186   2.219   5.975   5.746  0.4321 -0.1340  0.4434
  101SAPE   O2210187   2.307   6.047   5.707 -0.4669  0.0508 -0.0886
  101SAPE   C2210188   2.067   6.017   5.754  0.2646  0.2091  0.6286
  101SAPE   H2R10189   2.038   6.005   5.861  0.9329 -2.9359  0.5460
  101SAPE   H2S10190   2.059   6.126   5.735 -0.6056  0.0006 -0.2649
  101SAPE    C310191   2.360   5.650   5.751  0.7402  0.1268  0.1802
  101SAPE    HX10192   2.272   5.596   5.792 -1.2879  1.7105 -1.8112
  101SAPE    HY10193   2.446   5.591   5.788 -0.9927 -0.8095  3.0686
  101SAPE   O3110194   2.347   5.645   5.606 -0.3205  0.2674  0.0559
  101SAPE   C3110195   2.464   5.676   5.540 -0.5338 -0.6902  0.1985
  101SAPE   O3210196   2.563   5.723   5.598  0.6922  0.0437 -0.0226
  101SAPE   C3210197   2.441   5.682   5.393 -0.4121 -0.2520  0.3978
  101SAPE   H2X10198   2.380   5.774   5.381 -2.4510 -1.7530 -1.5460
  101SAPE   H2Y10199   2.383   5.591   5.365 -0.5099  0.1424 -0.6845
  101SAPE   C2310200   1.968   5.930   5.667  0.2603  0.2571 -0.7429
  101SAPE   H3R10201   1.872   5.950   5.720  1.1266  1.1134  0.5580
  101SAPE   H3S10202   1.990   5.821   5.670 -1.3045 -0.0904 -0.9959
  101SAPE   C2410203   1.962   5.959   5.517 -0.3787 -0.2236  0.1984
  101SAPE   H4R10204   1.959   6.069   5.505 -0.1107 -0.1485  0.7856
  101SAPE   H4S10205   1.863   5.932   5.473  0.0831  0.2308 -1.1567
  101SAPE   C2510206   2.081   5.903   5.442 -0.2578 -0.2453  0.1735
  101SAPE   H5R10207   2.169   5.960   5.474 -0.4789  1.1092 -1.4828
  101SAPE   C2610208   2.088   5.802   5.357  0.6426  0.3204 -0.4084
  101SAPE   H6R10209   2.188   5.766   5.328  1.5153  0.1847  2.4554
  101SAPE   C2710210   1.974   5.726   5.312 -0.0867 -0.1821 -0.3945
  101SAPE   H7R10211   1.877   5.777   5.334  0.5582  0.6459  0.6193
  101SAPE   H7S10212   1.972   5.633   5.374 -1.4462 -2.3145 -3.3611
  101SAPE   C2810213   1.975   5.676   5.173 -0.5149  0.1762 -0.0813
  101SAPE   H8R10214   2.025   5.578   5.168 -0.7522  0.0097  0.6564
  101SAPE   C2910215   1.954   5.741   5.062 -0.2180  1.0523 -0.1837
  101SAPE   H9R10216   1.982   5.693   4.967  0.9150 -2.6471  1.8230
  101SAPE  C21010217   1.895   5.882   5.052 -0.5945  0.8242 -0.1056
  101SAPE  H10R10218   1.929   5.943   5.138  0.4793  1.9278 -1.2742
  101SAPE  H10S10219   1.784   5.882   5.054 -0.6303 -0.7579 -0.5072
  101SAPE  C21110220   1.947   5.953   4.928  0.0045 -0.5890  1.0481
  101SAPE  H11R10221   2.052   5.986   4.924 -0.7169  1.7362 -0.3555
  101SAPE  C21210222   1.863   6.016   4.838 -0.3419 -0.1054  0.1936
  101SAPE  H12R10223   1.904   6.080   4.759  0.6008 -0.2166  0.5763
  101SAPE  C21310224   1.716   5.999   4.824 -0.0155  0.4727 -0.0121
  101SAPE  H13R10225   1.686   5.893   4.842  0.1936 -0.1934 -3.0227
  101SAPE  H13S10226   1.688   6.002   4.716 -0.6249  0.3914  0.1400
  101SAPE  C21410227   1.635   6.092   4.901 -0.2451  0.2389 -0.1246
  101SAPE  H14R10228   1.656   6.091   5.009  0.8581 -0.4349 -0.3330
  101SAPE  C21510229   1.536   6.171   4.854 -0.3838  0.1302 -0.6315
  101SAPE  H15R10230   1.483   6.236   4.926  1.4895  2.3327 -1.1525
  101SAPE  C21610231   1.479   6.177   4.719  0.1963 -0.1621  1.2457
  101SAPE  H16R10232   1.556   6.186   4.640 -1.2569 -2.5874 -0.5884
  101SAPE  H16S10233   1.402   6.256   4.705  1.1251  0.4921 -0.5101
  101SAPE  C21710234   1.397   6.055   4.670  0.2238  0.2770  0.3406
  101SAPE  H17R10235   1.316   6.033   4.743 -0.9452 -1.0322 -1.2901
  101SAPE  H17S10236   1.459   5.964   4.670 -1.0725 -0.6461  1.5642
  101SAPE  C21810237   1.326   6.066   4.531 -0.1171 -0.0306 -0.3493
  101SAPE  H18R10238   1.256   6.152   4.538  1.1323  0.8568  2.6025
  101SAPE  H18S10239   1.264   5.976   4.512 -0.6300 -0.3407  2.3993
  101SAPE  C21910240   1.428   6.074   4.418 -0.7800  0.1345 -0.0342
  101SAPE  H19R10241   1.505   6.153   4.432  1.4452 -1.2756 -3.1490
  101SAPE  H19S10242   1.377   6.103   4.324 -0.7503  1.6057  0.3766
  101SAPE  C22010243   1.505   5.951   4.373 -0.2849  0.2163  0.1745
  101SAPE  H20R10244   1.566   5.961   4.281 -0.9639 -1.9670 -0.5770
  101SAPE  H20S10245   1.439   5.863   4.355  2.2046 -1.4722 -1.3243
  101SAPE  H20T10246   1.569   5.915   4.456 -1.4470 -1.7801  0.2748
  101SAPE   C3310247   2.575   5.694   5.316 -0.0774 -0.1479  0.2642
  101SAPE   H3X10248   2.627   5.602   5.352 -1.6033 -0.6919  1.1700
  101SAPE   H3Y10249   2.628   5.785   5.348 -0.8696  0.9064 -1.2925
  101SAPE   C3410250   2.564   5.696   5.160  0.1146  0.3160  0.3823
  101SAPE   H4X10251   2.485   5.624   5.131  2.1157 -2.5031  1.4919
  101SAPE   H4Y10252   2.655   5.650   5.117 -0.2863 -1.3977  1.2962
  101SAPE   C3510253   2.544   5.836   5.104  0.3789  0.2533  0.2575
  101SAPE   H5X10254   2.613   5.916   5.138  0.9882 -0.5820  1.0242
  101SAPE   H5Y10255   2.443   5.866   5.138 -0.4208 -3.1023  1.1488
  101SAPE   C3610256   2.551   5.825   4.949  0.6791 -0.5297  0.6372
  101SAPE   H6X10257   2.492   5.739   4.912  3.0382 -2.0828  0.2993
  101SAPE   H6Y10258   2.654   5.796   4.923  0.9283 -0.0089  1.0210
  101SAPE   C3710259   2.515   5.956   4.873 -0.1375  0.9821  0.2257
  101SAPE   H7X10260   2.604   6.020   4.888  1.8843 -1.1276 -1.8017
  101SAPE   H7Y10261   2.417   6.001   4.900  0.4353  2.7144 -0.4349
  101SAPE   C3810262   2.510   5.935   4.719  0.2813 -0.1738 -0.1321
  101SAPE   H8X10263   2.596   5.876   4.683 -1.6403 -2.6620 -0.9007
  101SAPE   H8Y10264   2.521   6.037   4.676  0.0323  2.1002  4.5206
  101SAPE   C3910265   2.375   5.870   4.673 -0.5756 -0.4832 -0.3407
  101SAPE   H9X10266   2.289   5.936   4.694  0.4149  0.9662 -0.7011
  101SAPE   H9Y10267   2.360   5.767   4.714 -0.6298 -0.7843 -1.1014
  101SAPE  C31010268   2.382   5.843   4.517 -0.4153  0.2019  0.6392
  101SAPE  H10X10269   2.472   5.783   4.491  1.8765  4.3686 -2.2603
  101SAPE  H10Y10270   2.412   5.941   4.473 -0.2343  0.5938  1.6144
  101SAPE  C31110271   2.259   5.778   4.466  0.4846  0.1500 -0.5235
  101SAPE  H11X10272   2.236   5.698   4.540  0.6022  0.5233 -0.0844
  101SAPE  H11Y10273   2.274   5.732   4.366  1.2751  1.4885 -1.0411
  101SAPE  C31210274   2.140   5.872   4.455 -0.3527  0.1441 -0.2712
  101SAPE  H12X10275   2.170   5.961   4.396  1.9564  0.9113  1.9177
  101SAPE  H12Y10276   2.123   5.907   4.559  0.6636 -0.9417  0.2948
  101SAPE  C31310277   2.015   5.795   4.407  0.6272  0.6881 -0.2939
  101SAPE  H13X10278   1.990   5.733   4.496 -0.5140  1.6606  0.0763
  101SAPE  H13Y10279   2.034   5.726   4.322  0.0577 -2.1559  1.7197
  101SAPE  C31410280   1.898   5.883   4.382 -1.0230  0.6805 -0.2098
  101SAPE  H14X10281   1.900   5.959   4.464  1.9763 -0.4973  0.9648
  101SAPE  H14Y10282   1.804   5.824   4.379 -0.0984 -0.7916 -1.6232
  101SAPE  C31510283   1.914   5.959   4.253 -0.0350  0.3056  0.0719
  101SAPE  H15X10284   1.827   5.959   4.184  0.1158 -1.3983 -0.1375
  101SAPE  H15Y10285   2.000   5.917   4.197 -1.0456 -1.5132 -0.1964
  101SAPE  C31610286   1.943   6.109   4.270 -0.6820  0.5818 -0.3285
  101SAPE  H16X10287   2.045   6.136   4.304 -0.6080  0.7536 -0.6862
  101SAPE  H16Y10288   1.873   6.139   4.350 -1.0059  2.5751 -1.3078
  101SAPE  C31710289   1.921   6.200   4.147 -0.2484  0.0779 -0.1985
  101SAPE  H17X10290   1.818   6.177   4.111 -0.6968  2.0754 -0.3070
  101SAPE  H17Y10291   1.992   6.170   4.067  1.3074  0.9864  0.7807
  101SAPE  C31810292   1.938   6.349   4.171 -0.3601 -0.2619  0.8222
  101SAPE  H18X10293   2.040   6.375   4.206  0.4165 -1.7430 -0.2309
  101SAPE  H18Y10294   1.876   6.391   4.254 -0.2205 -2.4836  2.1306
  101SAPE  H18Z10295   1.915   6.403   4.077  1.3422  1.7561  1.4941
  102SAPE     N10296   0.604   0.526   6.663 -0.3904  0.3704  0.1544
  102SAPE   HN110297   0.549   0.471   6.595  1.4594  0.6401 -1.6777
  102SAPE   HN210298   0.562   0.620   6.671  0.6977  0.8961 -0.0296
  102SAPE   HN310299   0.694   0.535   6.610 -1.0078  4.3997 -0.4927
  102SAPE   C1210300   0.618   0.439   6.786  0.3578  0.4621 -0.2667
  102SAPE  H12A10301   0.517   0.410   6.822  0.3124  1.1517  0.1851
  102SAPE  H12B10302   0.674   0.497   6.863  1.0240  1.9048 -1.7718
  102SAPE   C1110303   0.691   0.305   6.762 -0.1323 -0.0880 -0.0841
  102SAPE  H11A10304   0.638   0.252   6.680  0.6094  0.6228 -1.0462
  102SAPE  H11B10305   0.678   0.239   6.851 -0.2217 -0.3266 -0.2746
  102SAPE     P10306   0.908   0.217   6.667  0.0996 -0.2289 -0.4208
  102SAPE   O1310307   1.046   0.260   6.633  0.4757 -0.6733  0.5657
  102SAPE   O1410308   0.898   0.112   6.768 -0.5115  0.1331 -0.7884
  102SAPE   O1210309   0.821   0.339   6.715  0.1075  0.1192  0.1656
  102SAPE   O1110310   0.829   0.171   6.532 -0.1585  0.0904 -0.2712
  102SAPE    C110311   0.821   0.270   6.432 -0.0267 -0.0157  0.1246
  102SAPE    HA10312   0.719   0.315   6.427 -1.6545 -3.4545 -0.4908
  102SAPE    HB10313   0.902   0.345   6.427  0.0028  0.1238  2.0398
  102SAPE    C210314   0.827   0.192   6.300 -1.0960 -0.0183 -0.0715
  102SAPE    HS10315   0.798   0.262   6.219 -0.1828 -0.1488 -0.5273
  102SAPE   O2110316   0.724   0.086   6.298 -0.4310  0.2304  0.3120
  102SAPE   C2110317   0.609   0.114   6.265 -0.4640 -0.0139 -0.2368
  102SAPE   O2210318   0.569   0.222   6.224 -0.2611  0.1638 -0.1715
  102SAPE   C2210319   0.528  -0.009   6.269  0.4891 -0.5366 -0.3198
  102SAPE   H2R10320   0.534  -0.051   6.372 -0.4409 -0.5140 -0.2514
  102SAPE   H2S10321   0.427   0.034   6.251  1.0566  1.4895  0.9319
  102SAPE    C310322   0.963   0.126   6.273  0.9351  0.4095  0.2795
  102SAPE    HX10323   1.001   0.062   6.355  0.0386 -0.5185 -0.0010
  102SAPE    HY10324   1.035   0.208   6.254  0.5161  0.5612 -0.7263
  102SAPE   O3110325   0.949   0.048   6.152 -0.0407 -0.1555  0.1221
  102SAPE   C3110326   1.057  -0.013   6.106 -0.2317 -0.5601  0.7420
  102SAPE   O3210327   1.166  -0.019   6.162  0.5252 -0.2534  0.2078
  102SAPE   C3210328   1.037  -0.053   5.961 -0.0145  0.2623 -0.4081
  102SAPE   H2X10329   0.933  -0.091   5.953 -0.3373  0.8940  0.6018
  102SAPE   H2Y10330   1.118  -0.126   5.943  1.3574  0.5940  3.4458
  102SAPE   C2310331   0.558  -0.127   6.174 -0.5848 -0.0634 -0.4240
  102SAPE   H3R10332   0.487  -0.208   6.201  1.2246 -0.8005  2.5351
  102SAPE   H3S10333   0.655  -0.179   6.187 -0.6954  0.2393  2.1408
  102SAPE   C2410334   0.538  -0.105   6.020  0.4001  0.1351  0.2391
  102SAPE   H4R10335   0.437  -0.063   6.008  0.5132  0.2951 -0.1555
  102SAPE   H4S10336   0.520  -0.201   5.967  1.1128 -0.6866  1.4364
  102SAPE   C2510337   0.631  -0.002   5.952 -0.1248  0.8755 -0.3988
  102SAPE   H5R10338   0.694   0.057   6.020  1.3495 -1.9541  0.8335
  102SAPE   C2610339   0.632   0.008   5.818 -0.2060 -0.1126 -0.4117
  102SAPE   H6R10340   0.703   0.078   5.771 -1.0385  1.4656  0.5787
  102SAPE   C2710341   0.553  -0.083   5.726 -0.0989 -0.1789  0.4941
  102SAPE   H7R10342   0.447  -0.083   5.759 -0.4943 -2.4994 -0.5436
  102SAPE   H7S10343   0.593  -0.187   5.723 -0.5395 -0.3398  0.2039
  102SAPE   C2810344   0.550  -0.010   5.588  0.0644 -0.2288 -0.1196
  102SAPE   H8R10345   0.559   0.099   5.575  1.7408 -0.1430  1.4263
  102SAPE   C2910346   0.526  -0.075   5.474  0.7532  0.3895 -0.4356
  102SAPE   H9R10347   0.502  -0.012   5.387  1.2709 -0.6159 -1.3312
  102SAPE  C21010348   0.491  -0.222   5.462 -0.0008  0.3157 -0.7299
  102SAPE  H10R10349   0.471  -0.266   5.562  1.0943 -0.6376 -0.9098
  102SAPE  H10S10350   0.587  -0.270   5.433  0.6336  0.4697  1.0106
  102SAPE  C21110351   0.370  -0.253   5.372 -0.1477  0.2943  0.5503
  102SAPE  H11R10352   0.287  -0.302   5.427  1.2227 -0.4643  2.0364
  102SAPE  C21210353   0.359  -0.257   5.244 -0.1107  0.4461  0.8547
  102SAPE  H12R10354   0.263  -0.280   5.196  0.6299  1.2978 -1.1216
  102SAPE  C21310355   0.467  -0.218   5.148  0.6015 -0.4729 -0.7681
  102SAPE  H13R10356   0.505  -0.304   5.088  2.1553 -1.6871  1.7782
  102SAPE  H13S10357   0.559  -0.186   5.201 -0.7683  0.2039  1.3091
  102SAPE  C21410358   0.426  -0.113   5.044 -1.4599 -0.4366 -0.2222
  102SAPE  H14R10359   0.321  -0.103   5.013 -1.0910 -0.4434 -1.5289
  102SAPE  C21510360   0.508  -0.032   4.972 -0.1528  0.1672 -0.2450
  102SAPE  H15R10361   0.464   0.047   4.909 -0.2381  1.4858  1.3725
  102SAPE  C21610362   0.659  -0.005   4.979  0.4268 -0.3089 -0.6671
  102SAPE  H16R10363   0.715  -0.090   5.025  0.5236 -0.7696 -1.6228
  102SAPE  H16S10364   0.677   0.087   5.038 -2.9122 -0.3127  0.5620
  102SAPE  C21710365   0.721  -0.011   4.837 -0.4831  1.0584 -0.4476
  102SAPE  H17R10366   0.826   0.023   4.850 -0.2108 -0.4556  1.9225
  102SAPE  H17S10367   0.674   0.061   4.767  1.4136  1.0047 -1.8864
  102SAPE  C21810368   0.725  -0.148   4.773 -0.5621  0.2952 -0.1722
  102SAPE  H18R10369   0.625  -0.172   4.733 -0.4150  2.2202 -1.8407
  102SAPE  H18S10370   0.752  -0.223   4.851  1.1570  0.3719 -0.6424
  102SAPE  C21910371   0.820  -0.180   4.653 -1.0404 -0.5900  0.2271
  102SAPE  H19R10372   0.822  -0.290   4.634 -3.8186 -0.6081 -0.2938
  102SAPE  H19S10373   0.919  -0.142   4.688 -1.3553  0.8362 -0.3810
  102SAPE  C22010374   0.771  -0.114   4.528 -0.1889 -0.1023 -0.0771
  102SAPE  H20R10375   0.662  -0.134   4.522 -0.4111  0.7363  0.8749
  102SAPE  H20S10376   0.831  -0.154   4.444 -1.2771 -0.7963 -0.5389
  102SAPE  H20T10377   0.778  -0.003   4.534 -0.7011  0.0812 -2.1313
  102SAPE   C3310378   1.045   0.073   5.873 -0.5140  0.5063 -0.9118
  102SAPE   H3X10379   1.147   0.116   5.879 -0.4832  0.2038  1.5854
  102SAPE   H3Y10380   0.977   0.154   5.906 -0.1828 -0.1441  1.5506
  102SAPE   C3410381   1.014   0.043   5.726 -0.0531 -0.3099 -0.0738
  102SAPE   H4X10382   0.913  -0.003   5.729  0.3818 -1.2570  0.3694
  102SAPE   H4Y10383   1.085  -0.035   5.693 -1.1166 -1.4644  0.3230
  102SAPE   C3510384   1.024   0.170   5.639  0.0033  0.2020  0.5879
  102SAPE   H5X10385   1.122   0.220   5.656  0.2450 -0.2936  0.6530
  102SAPE   H5Y10386   0.941   0.243   5.658  0.0922  0.4573  0.0201
  102SAPE   C3610387   1.011   0.123   5.494 -0.3662  0.7176  0.0208
  102SAPE   H6X10388   0.906   0.090   5.482 -0.1498  0.9306 -3.4488
  102SAPE   H6Y10389   1.075   0.032   5.486 -0.3364  0.8042 -0.7615
  102SAPE   C3710390   1.061   0.229   5.393  0.3734 -0.0986  0.1147
  102SAPE   H7X10391   1.170   0.219   5.377  0.4176 -0.9961  0.8274
  102SAPE   H7Y10392   1.036   0.329   5.435 -1.4753 -0.7964  0.7747
  102SAPE   C3810393   0.975   0.226   5.258  0.0975 -0.1970 -0.2825
  102SAPE   H8X10394   0.870   0.223   5.292 -0.0023  0.8372 -0.4587
  102SAPE   H8Y10395   1.004   0.127   5.215  1.2246 -0.9035  1.9336
  102SAPE   C3910396   1.012   0.336   5.158  1.2722 -0.0291 -0.5050
  102SAPE   H9X10397   1.122   0.341   5.144  1.4192  0.5338  0.6767
  102SAPE   H9Y10398   0.967   0.432   5.194  0.9423  0.2044 -1.5190
  102SAPE  C31010399   0.947   0.335   5.016 -0.4230  0.2529 -0.3854
  102SAPE  H10X10400   0.836   0.343   5.018 -0.3540  1.2006 -0.1252
  102SAPE  H10Y10401   0.951   0.233   4.971  0.8014  0.9862 -2.0104
  102SAPE  C31110402   1.006   0.441   4.918 -0.2406  0.1061 -0.2315
  102SAPE  H11X10403   1.112   0.411   4.898 -0.2753  0.8254 -1.6486
  102SAPE  H11Y10404   0.988   0.542   4.959  0.8686  0.0332  0.4928
  102SAPE  C31210405   0.948   0.436   4.779  0.1158 -0.2395  0.0172
  102SAPE  H12X10406   0.845   0.477   4.784  0.5920  1.0601 -0.3083
  102SAPE  H12Y10407   0.938   0.331   4.745 -2.0396 -0.1387  0.2258
  102SAPE  C31310408   1.039   0.506   4.674  0.0168 -0.0809 -0.8506
  102SAPE  H13X10409   1.128   0.440   4.675 -1.5946 -2.3395 -0.3779
  102SAPE  H13Y10410   1.059   0.610   4.708 -0.0444 -0.1813 -0.5060
  102SAPE  C31410411   0.985   0.512   4.532  0.4521 -0.7973  0.3872
  102SAPE  H14X10412   1.048   0.581   4.472 -0.1013 -0.3294  0.3310
  102SAPE  H14Y10413   0.881   0.551   4.522  1.0993  0.5999 -1.5476
  102SAPE  C31510414   0.983   0.379   4.460 -0.2016  0.3518 -1.0106
  102SAPE  H15X10415   0.916   0.319   4.526  3.5688 -3.1249  0.0704
  102SAPE  H15Y10416   1.083   0.330   4.458  0.5680  1.8647 -1.0442
  102SAPE  C31610417   0.908   0.380   4.322  0.0472  0.3594 -1.1607
  102SAPE  H16X10418   0.969   0.450   4.261 -0.2561  0.2156 -1.6385
  102SAPE  H16Y10419   0.806   0.414   4.351  0.5626  0.9132  0.0872
  102SAPE  C31710420   0.899   0.242   4.257  0.1191 -0.9895  0.7248
  102SAPE  H17X10421   0.853   0.185   4.340 -1.8229 -1.3297 -0.5415
  102SAPE  H17Y10422   1.002   0.204   4.237  1.6328  3.1609 -0.4316
  102SAPE  C31810423   0.809   0.239   4.126 -0.2567  0.8283 -0.2079
  102SAPE  H18X10424   0.714   0.293   4.149 -0.0967  0.5162  1.3307
  102SAPE  H18Y10425   0.776   0.137   4.097 -3.0661  1.0157  1.8927
  102SAPE  H18Z10426   0.865   0.288   4.044 -0.3049  1.7607  0.3082
  103SAPE     N10427   0.239   3.833   2.320 -0.2012  0.0978 -0.2076
  103SAPE   HN110428   0.273   3.793   2.410  0.5702 -0.9341 -0.9445
  103SAPE   HN210429   0.189   3.758   2.268  1.0671  0.6891 -2.4123
  103SAPE   HN310430   0.318   3.874   2.267 -0.0105  1.1539  0.8504
  103SAPE   C1210431   0.147   3.962   2.343  0.3008  0.4307  0.2076
  103SAPE  H12A10432   0.075   3.931   2.422  0.4264  1.5060  0.7653
  103SAPE  H12B10433   0.101   3.992   2.247 -1.4305 -1.8210  0.2588
  103SAPE   C1110434   0.221   4.087   2.401 -0.0453 -0.0396  0.3934
  103SAPE  H11A10435   0.270   4.075   2.500  1.4339  0.2357 -0.2831
  103SAPE  H11B10436   0.133   4.154   2.411 -0.0070  0.2805 -1.1077
  103SAPE     P10437   0.466   4.109   2.304 -0.6177 -0.4663 -0.0987
  103SAPE   O1310438   0.485   3.966   2.264 -0.5901  0.6108 -0.5970
  103SAPE   O1410439   0.541   4.199   2.216  0.5606  0.2355 -0.2130
  103SAPE   O1210440   0.313   4.134   2.308 -0.1675 -0.4390  0.5000
  103SAPE   O1110441   0.513   4.128   2.457  0.1896 -0.0487  0.1745
  103SAPE    C110442   0.536   4.016   2.539 -0.2635 -0.8029 -0.2434
  103SAPE    HA10443   0.441   3.971   2.576  0.0521 -1.9508 -0.7891
  103SAPE    HB10444   0.593   3.939   2.482 -0.4026 -1.1572  0.0874
  103SAPE    C210445   0.620   4.071   2.669  0.4196  0.4243 -0.5113
  103SAPE    HS10446   0.626   3.980   2.733 -1.5195 -0.0291 -0.9055
  103SAPE   O2110447   0.537   4.167   2.730 -0.1448 -0.4407  0.3456
  103SAPE   C2110448   0.438   4.118   2.804  0.1787 -0.1789 -0.2062
  103SAPE   O2210449   0.426   3.999   2.841 -0.3725 -0.5559 -0.2925
  103SAPE   C2210450   0.343   4.235   2.846 -0.0261 -0.5186 -0.5865
  103SAPE   H2R10451   0.383   4.336   2.820 -1.7141  0.8177  1.6070
  103SAPE   H2S10452   0.248   4.213   2.793  1.3290 -1.5605 -2.7598
  103SAPE    C310453   0.749   4.130   2.637  0.2711 -0.3717  0.2731
  103SAPE    HX10454   0.718   4.202   2.558  0.2202 -1.3257 -0.5777
  103SAPE    HY10455   0.804   4.051   2.583 -0.7234 -0.9630  0.0954
  103SAPE   O3110456   0.813   4.188   2.754 -0.1509 -0.3429  0.2745
  103SAPE   C3110457   0.946   4.213   2.744  0.1471 -0.8785 -0.3247
  103SAPE   O3210458   1.012   4.201   2.643 -0.2320  0.0803  0.1120
  103SAPE   C3210459   0.982   4.259   2.884 -0.3643 -0.5836 -0.4139
  103SAPE   H2X10460   0.913   4.216   2.959  0.2878  2.7132  2.3043
  103SAPE   H2Y10461   0.959   4.367   2.890 -2.6304 -1.0847  1.0990
  103SAPE   C2310462   0.313   4.251   2.995  0.6863 -0.4230  0.0828
  103SAPE   H3R10463   0.300   4.153   3.046 -0.2985  1.4325  3.7168
  103SAPE   H3S10464   0.220   4.311   2.998 -0.3134 -1.8900 -0.6170
  103SAPE   C2410465   0.412   4.335   3.071  0.0139 -0.5243  0.9164
  103SAPE   H4R10466   0.379   4.380   3.167 -2.2031  0.3325 -0.1927
  103SAPE   H4S10467   0.438   4.428   3.015 -1.8112 -1.2880 -1.3394
  103SAPE   C2510468   0.540   4.270   3.095 -0.3726 -0.1466  0.0281
  103SAPE   H5R10469   0.612   4.270   3.012 -0.2709 -0.1806  0.1175
  103SAPE   C2610470   0.582   4.224   3.211  0.0223 -0.5036 -0.3253
  103SAPE   H6R10471   0.683   4.181   3.212  0.2605  0.0154 -1.0787
  103SAPE   C2710472   0.509   4.213   3.342 -0.3390  0.1698  0.2283
  103SAPE   H7R10473   0.518   4.111   3.386  1.1654  1.0706  2.1630
  103SAPE   H7S10474   0.399   4.232   3.333 -0.5235 -0.2105  1.5258
  103SAPE   C2810475   0.562   4.318   3.439 -0.6886  1.0171  0.0129
  103SAPE   H8R10476   0.586   4.412   3.388 -0.0471  0.2895 -1.0513
  103SAPE   C2910477   0.553   4.316   3.575  0.6388  0.2032 -0.5242
  103SAPE   H9R10478   0.578   4.405   3.634  0.6684  0.4154 -0.8529
  103SAPE  C21010479   0.525   4.198   3.666 -0.1564 -0.3773  0.9869
  103SAPE  H10R10480   0.609   4.125   3.672  0.9576  0.8920  1.2660
  103SAPE  H10S10481   0.446   4.140   3.614 -1.0270 -0.9787  2.8934
  103SAPE  C21110482   0.487   4.226   3.808  0.1337  0.1287 -0.0846
  103SAPE  H11R10483   0.379   4.225   3.832 -0.2747 -1.0305 -1.8225
  103SAPE  C21210484   0.570   4.228   3.921 -0.1484  0.2308 -0.5377
  103SAPE  H12R10485   0.526   4.255   4.019 -0.0448 -0.4585 -0.2916
  103SAPE  C21310486   0.720   4.220   3.926  0.5047 -0.2241 -0.2628
  103SAPE  H13R10487   0.768   4.185   3.832  0.5257 -0.9004 -0.0015
  103SAPE  H13S10488   0.747   4.136   3.994  1.1552  0.1477 -0.0575
  103SAPE  C21410489   0.783   4.351   3.967 -0.2925 -0.0777 -0.0451
  103SAPE  H14R10490   0.792   4.425   3.886  2.0691  1.0569  1.1623
  103SAPE  C21510491   0.835   4.386   4.085 -0.5384 -0.0870  0.3869
  103SAPE  H15R10492   0.881   4.485   4.091  1.0845 -0.7862 -0.1207
  103SAPE  C21610493   0.847   4.309   4.216  0.3558 -0.4683 -0.1978
  103SAPE  H16R10494   0.944   4.256   4.228 -0.1237 -1.0954  1.0616
  103SAPE  H16S10495   0.778   4.222   4.207 -0.9896  0.6752 -1.4763
  103SAPE  C21710496   0.820   4.397   4.337  0.7187  0.4360 -0.0048
  103SAPE  H17R10497   0.716   4.434   4.329  0.4786 -0.3026 -0.4913
  103SAPE  H17S10498   0.877   4.492   4.330 -0.3712  1.5153  3.7283
  103SAPE  C21810499   0.855   4.344   4.474  0.4810  0.0103 -0.0206
  103SAPE  H18R10500   0.959   4.306   4.479 -0.1543 -1.7650  0.6655
  103SAPE  H18S10501   0.784   4.262   4.497 -1.3603  1.8909  1.5033
  103SAPE  C21910502   0.822   4.442   4.589  0.8512 -0.1843 -0.3361
  103SAPE  H19R10503   0.713   4.458   4.604  0.8243 -0.9719  0.4174
  103SAPE  H19S10504   0.876   4.537   4.569  1.3412 -0.4187 -0.1608
  103SAPE  C22010505   0.875   4.398   4.723  0.3204  0.4279  0.0812
  103SAPE  H20R10506   0.849   4.465   4.808 -2.2901  2.7881 -2.3680
  103SAPE  H20S10507   0.982   4.376   4.708 -0.0975 -0.4561 -1.8938
  103SAPE  H20T10508   0.844   4.294   4.749 -0.0826  0.3612 -0.6488
  103SAPE   C3310509   1.126   4.235   2.930 -0.1860 -0.0824  0.6333
  103SAPE   H3X10510   1.197   4.278   2.856  1.2943 -2.4438  0.5731
  103SAPE   H3Y10511   1.148   4.126   2.926 -0.0374 -0.0306 -2.3080
  103SAPE   C3410512   1.146   4.296   3.071 -0.8298 -0.8215  0.2711
  103SAPE   H4X10513   1.128   4.405   3.071  0.4499 -0.5789  1.4078
  103SAPE   H4Y10514   1.255   4.300   3.094 -0.8019  0.3359 -0.0377
  103SAPE   C3510515   1.063   4.234   3.183  0.1875  0.6769  0.0923
  103SAPE   H5X10516   1.090   4.128   3.165 -0.1697  0.5604  0.2346
  103SAPE   H5Y10517   0.954   4.249   3.168  0.3049  2.1585  0.5609
  103SAPE   C3610518   1.119   4.275   3.325 -0.2303 -0.1326 -0.1779
  103SAPE   H6X10519   1.131   4.386   3.324 -1.1703 -0.0185 -1.3882
  103SAPE   H6Y10520   1.223   4.238   3.339 -0.3544 -0.8795 -1.1110
  103SAPE   C3710521   1.029   4.239   3.446 -0.1067  0.0746 -0.1192
  103SAPE   H7X10522   0.993   4.136   3.429  3.9621 -1.3365 -1.4121
  103SAPE   H7Y10523   0.941   4.307   3.454  0.2304  0.2901  4.0997
  103SAPE   C3810524   1.098   4.242   3.579 -0.1025  0.3168 -0.3250
  103SAPE   H8X10525   1.163   4.333   3.580 -1.1385  1.0740 -0.1097
  103SAPE   H8Y10526   1.165   4.155   3.566  1.5778  1.6468 -0.9244
  103SAPE   C3910527   1.017   4.246   3.708  0.0460 -0.6490 -0.0631
  103SAPE   H9X10528   0.928   4.182   3.690  0.2403 -0.9612  0.0716
  103SAPE   H9Y10529   0.975   4.345   3.735 -1.2235 -1.0781 -0.4152
  103SAPE  C31010530   1.088   4.193   3.843  0.0780  0.0990 -0.2756
  103SAPE  H10X10531   1.105   4.084   3.825  1.3566  0.3299 -0.6329
  103SAPE  H10Y10532   1.034   4.204   3.939  0.0525  1.4836 -0.4370
  103SAPE  C31110533   1.229   4.253   3.867 -0.6032 -0.4940 -0.1558
  103SAPE  H11X10534   1.212   4.363   3.880  0.2267 -0.2544 -0.9991
  103SAPE  H11Y10535   1.286   4.244   3.772 -0.4227 -3.3276  0.1505
  103SAPE  C31210536   1.305   4.182   3.978 -0.3772 -0.1375  0.1967
  103SAPE  H12X10537   1.407   4.226   3.979 -0.9550  1.3002 -0.9241
  103SAPE  H12Y10538   1.325   4.074   3.958 -0.2596 -0.4218  1.7136
  103SAPE  C31310539   1.262   4.209   4.121 -0.2048  0.8243 -0.8122
  103SAPE  H13X10540   1.327   4.166   4.200  1.9037  1.1961 -2.2547
  103SAPE  H13Y10541   1.166   4.152   4.127  0.3748 -0.1027 -0.0620
  103SAPE  C31410542   1.259   4.356   4.155 -0.3147 -0.2601  1.2073
  103SAPE  H14X10543   1.184   4.401   4.087 -0.6856 -4.1945 -1.2924
  103SAPE  H14Y10544   1.353   4.409   4.126 -0.1157 -1.9326 -1.5628
  103SAPE  C31510545   1.226   4.389   4.299  0.1673  0.2783  0.6373
  103SAPE  H15X10546   1.293   4.328   4.364  0.1208 -0.0067  0.4186
  103SAPE  H15Y10547   1.122   4.356   4.320 -0.2988  1.0406 -0.3581
  103SAPE  C31610548   1.230   4.541   4.323 -0.0641 -0.0472 -0.5195
  103SAPE  H16X10549   1.165   4.575   4.240 -0.2122 -2.8568 -1.6359
  103SAPE  H16Y10550   1.336   4.570   4.304  0.4164 -1.6430 -0.4227
  103SAPE  C31710551   1.185   4.595   4.456  0.2834 -0.0208 -0.0175
  103SAPE  H17X10552   1.088   4.556   4.493  0.9582  0.3296  2.2754
  103SAPE  H17Y10553   1.186   4.706   4.447 -0.2965 -0.0789 -1.0066
  103SAPE  C31810554   1.279   4.558   4.575 -0.7388 -0.1188  0.3019
  103SAPE  H18X10555   1.380   4.591   4.543 -1.3987  0.5769 -1.1548
  103SAPE  H18Y10556   1.293   4.455   4.614 -0.9287  0.1575  1.1189
  103SAPE  H18Z10557   1.253   4.626   4.659  0.3162  1.6038 -0.7040
  104SAPE     N10558   6.302   1.582   2.483  0.1159  0.2764  0.1186
  104SAPE   HN110559   6.227   1.629   2.536  0.9245  0.7750  0.8549
  104SAPE   HN210560   6.274   1.490   2.444  2.9979 -0.1382 -1.2588
  104SAPE   HN310561   6.375   1.553   2.551 -0.0130  1.0102  0.5837
  104SAPE   C1210562   6.358   1.678   2.378  0.4210 -0.1443 -0.4763
  104SAPE  H12A10563   6.276   1.686   2.305 -1.6643  0.3191  1.7954
  104SAPE  H12B10564   6.444   1.624   2.332 -0.3826 -1.5389 -0.3746
  104SAPE   C1110565   6.380   1.809   2.439  0.4788  0.3267  0.9125
  104SAPE  H11A10566   6.440   1.867   2.366 -1.3513  0.7346 -0.3428
  104SAPE  H11B10567   6.446   1.795   2.528  0.5886  1.2269  0.9835
  104SAPE     P10568   6.260   2.025   2.525 -0.2535  0.4388  0.1631
  104SAPE   O1310569   6.310   2.124   2.426 -0.3834  0.2883  0.4374
  104SAPE   O1410570   6.128   2.057   2.582 -0.4649  0.0729 -0.3600
  104SAPE   O1210571   6.253   1.882   2.456  0.5125 -0.2898 -0.1550
  104SAPE   O1110572   6.365   2.015   2.642  0.3710 -0.6651 -0.6444
  104SAPE    C110573   6.346   1.939   2.770 -0.3057  0.5133  0.4156
  104SAPE    HA10574   6.248   1.947   2.822 -0.9946 -0.6501 -0.6395
  104SAPE    HB10575   6.368   1.834   2.743  1.3974  0.5239  1.6509
  104SAPE    C210576   6.451   2.001   2.864 -0.0114  0.1099 -0.3472
  104SAPE    HS10577   6.549   1.966   2.825 -0.4806 -0.4401 -1.0591
  104SAPE   O2110578   6.422   1.965   3.003 -0.2818 -0.3523  1.2214
  104SAPE   C2110579   6.467   1.847   3.036 -0.0211 -0.6552  0.6688
  104SAPE   O2210580   6.547   1.789   2.963  0.5767  0.2670 -0.0923
  104SAPE   C2210581   6.424   1.805   3.177 -0.6700  0.2680  1.4045
  104SAPE   H2R10582   6.350   1.725   3.156  1.8741 -1.8224 -0.1488
  104SAPE   H2S10583   6.516   1.764   3.225 -0.5187 -0.6105  0.3886
  104SAPE    C310584   6.443   2.154   2.862 -0.6768 -0.1168  0.2131
  104SAPE    HX10585   6.341   2.176   2.898  0.7035  1.9518  3.2828
  104SAPE    HY10586   6.460   2.186   2.757  5.2132  1.4905  1.3007
  104SAPE   O3110587   6.535   2.224   2.950 -0.7095  0.4329  0.7022
  104SAPE   C3110588   6.655   2.236   2.906  0.0219  0.2840  0.5140
  104SAPE   O3210589   6.697   2.191   2.798 -0.0219 -0.0304 -0.0608
  104SAPE   C3210590   6.750   2.319   2.988  0.6248 -0.0068  0.6749
  104SAPE   H2X10591   6.712   2.422   2.974 -1.4466 -0.6347  1.3304
  104SAPE   H2Y10592   6.854   2.307   2.950 -0.3854 -0.8961 -2.0333
  104SAPE   C2310593   6.368   1.913   3.266  1.0890 -0.3173  0.2966
  104SAPE   H3R10594   6.290   1.961   3.204 -1.1658 -2.4336  1.3393
  104SAPE   H3S10595   6.437   1.998   3.285  0.2251  0.4779 -0.0968
  104SAPE   C2410596   6.312   1.857   3.401 -0.5580 -0.2595 -0.2522
  104SAPE   H4R10597   6.244   1.779   3.360 -2.3389  1.4673 -0.7781
  104SAPE   H4S10598   6.249   1.935   3.450 -0.3270  0.4245 -1.0197
  104SAPE   C2510599   6.425   1.806   3.488  0.3160 -0.0791  0.5962
  104SAPE   H5R10600   6.473   1.711   3.464  0.6423  0.0465  0.7415
  104SAPE   C2610601   6.492   1.882   3.572 -0.2901 -0.2163 -0.5772
  104SAPE   H6R10602   6.574   1.834   3.628 -1.4985  0.6358  2.0484
  104SAPE   C2710603   6.476   2.025   3.611  0.2281  0.3711  0.0598
  104SAPE   H7R10604   6.418   2.037   3.706  0.0081  0.3293 -0.0679
  104SAPE   H7S10605   6.422   2.082   3.533 -1.6922 -0.0849  0.9853
  104SAPE   C2810606   6.600   2.101   3.640  0.0281  0.3571 -0.4026
  104SAPE   H8R10607   6.620   2.174   3.559  1.4905 -0.5369 -0.8986
  104SAPE   C2910608   6.685   2.110   3.749  0.0729  0.0896  0.1792
  104SAPE   H9R10609   6.776   2.171   3.739  1.3785 -1.8605 -0.5361
  104SAPE  C21010610   6.665   2.024   3.875 -0.4229 -0.3742 -0.4055
  104SAPE  H10R10611   6.754   1.959   3.885 -1.0192 -1.0957  0.3226
  104SAPE  H10S10612   6.578   1.954   3.872 -0.1060 -0.7896  0.0455
  104SAPE  C21110613   6.651   2.118   4.000 -0.3821 -0.1014 -0.5164
  104SAPE  H11R10614   6.573   2.195   4.005 -0.3609  0.1662 -2.9253
  104SAPE  C21210615   6.760   2.134   4.089  0.0620 -0.0642  0.2686
  104SAPE  H12R10616   6.736   2.198   4.175 -1.1626  0.3451 -0.3523
  104SAPE  C21310617   6.884   2.046   4.088 -0.4917 -0.0951 -0.0824
  104SAPE  H13R10618   6.962   2.086   4.021  0.0318  0.4900  0.8505
  104SAPE  H13S10619   6.857   1.943   4.055  1.9920 -0.6055 -0.7613
  104SAPE  C21410620   6.936   2.023   4.223 -0.3693  0.9180 -0.3010
  104SAPE  H14R10621   6.929   2.100   4.302 -1.7745  2.2416 -1.6388
  104SAPE  C21510622   6.998   1.906   4.256  0.2556  0.5520  0.0163
  104SAPE  H15R10623   7.044   1.897   4.356 -0.0915 -0.3204  0.1007
  104SAPE  C21610624   7.013   1.781   4.180  0.0916  0.0104  0.6110
  104SAPE  H16R10625   7.118   1.767   4.148 -0.9797 -1.8727 -2.5870
  104SAPE  H16S10626   6.953   1.781   4.086 -0.1359 -0.2620  0.7526
  104SAPE  C21710627   6.958   1.649   4.249  0.1712  0.1590  0.3977
  104SAPE  H17R10628   6.856   1.673   4.286  0.9097 -0.4485  3.0114
  104SAPE  H17S10629   7.006   1.621   4.345  1.0619 -0.1632 -0.1315
  104SAPE  C21810630   6.931   1.526   4.163  0.3153 -0.1919  0.1393
  104SAPE  H18R10631   7.034   1.491   4.143  0.8481  0.0295  2.2944
  104SAPE  H18S10632   6.889   1.576   4.073  0.5014 -0.2667  0.0107
  104SAPE  C21910633   6.840   1.406   4.214 -0.0072 -0.7111 -0.3760
  104SAPE  H19R10634   6.741   1.454   4.230  0.4091 -0.5541  2.2620
  104SAPE  H19S10635   6.866   1.372   4.316 -1.6644 -0.9620 -0.0088
  104SAPE  C22010636   6.817   1.301   4.109 -0.0370  0.3799 -0.1071
  104SAPE  H20R10637   6.911   1.250   4.079  0.3962  1.5206 -0.7436
  104SAPE  H20S10638   6.789   1.343   4.011  2.0006  2.8625  0.2789
  104SAPE  H20T10639   6.741   1.229   4.145  0.0072 -0.1455 -1.0309
  104SAPE   C3310640   6.738   2.286   3.134  0.5407  0.2531 -0.5196
  104SAPE   H3X10641   6.741   2.176   3.150 -2.2922  0.3212  1.1198
  104SAPE   H3Y10642   6.632   2.309   3.159  0.5857 -1.1268  1.0981
  104SAPE   C3410643   6.827   2.370   3.220 -0.3142  0.1439  0.0155
  104SAPE   H4X10644   6.796   2.470   3.183 -2.7710 -0.5109  0.1191
  104SAPE   H4Y10645   6.933   2.345   3.200 -1.2430 -2.3997 -2.4186
  104SAPE   C3510646   6.798   2.350   3.371  0.9286 -0.0266  0.5167
  104SAPE   H5X10647   6.791   2.241   3.388  0.8075  0.2329  2.3106
  104SAPE   H5Y10648   6.700   2.391   3.402 -0.5531 -3.9629  1.5806
  104SAPE   C3610649   6.899   2.424   3.460 -0.9206  0.3730 -0.2482
  104SAPE   H6X10650   6.879   2.533   3.469  3.7255  1.4585 -0.4844
  104SAPE   H6Y10651   7.000   2.408   3.416 -2.2151 -1.5226 -2.8208
  104SAPE   C3710652   6.912   2.386   3.609 -0.3364  0.1521 -0.4319
  104SAPE   H7X10653   6.956   2.284   3.611  2.3234  1.2381  0.8416
  104SAPE   H7Y10654   6.814   2.381   3.662  0.6727 -0.1263  1.5097
  104SAPE   C3810655   7.011   2.473   3.675  0.7188  0.7030  0.1160
  104SAPE   H8X10656   6.971   2.577   3.682  0.1336  0.4284  1.0121
  104SAPE   H8Y10657   7.106   2.472   3.617  0.4021 -0.4652 -0.4128
  104SAPE   C3910658   7.041   2.418   3.809  0.0071 -0.1233 -0.5351
  104SAPE   H9X10659   7.151   2.415   3.822 -0.1831 -1.8074  1.2410
  104SAPE   H9Y10660   7.015   2.311   3.825  1.5194 -0.1678  2.2779
  104SAPE  C31010661   6.984   2.495   3.924 -0.1503 -0.0498  0.4480
  104SAPE  H10X10662   6.875   2.517   3.915 -0.0875  1.6758  2.8171
  104SAPE  H10Y10663   7.022   2.599   3.929 -1.3599  0.3731  1.4163
  104SAPE  C31110664   7.003   2.419   4.061  0.2620 -0.4041 -0.0651
  104SAPE  H11X10665   7.110   2.416   4.090  0.9811 -0.3275 -2.4572
  104SAPE  H11Y10666   6.982   2.310   4.049  4.4131 -1.3595  0.0109
  104SAPE  C31210667   6.927   2.484   4.170  0.0914 -0.4060 -0.2752
  104SAPE  H12X10668   6.818   2.468   4.160 -0.0736  0.7312 -0.4021
  104SAPE  H12Y10669   6.940   2.594   4.178 -2.8951 -0.0855  1.9578
  104SAPE  C31310670   6.956   2.440   4.314 -0.3192  0.6061  0.0403
  104SAPE  H13X10671   7.064   2.462   4.330  0.2570 -2.4181  1.0929
  104SAPE  H13Y10672   6.939   2.330   4.309 -1.8294  0.7007  1.8429
  104SAPE  C31410673   6.871   2.492   4.430  0.3294  0.1224 -0.1751
  104SAPE  H14X10674   6.767   2.470   4.399  0.7376 -0.4713 -1.1692
  104SAPE  H14Y10675   6.883   2.603   4.434 -1.7865  0.4121 -0.6953
  104SAPE  C31510676   6.905   2.436   4.566  0.5313  0.0595 -0.4548
  104SAPE  H15X10677   7.009   2.467   4.589  0.0542 -0.4527  2.8086
  104SAPE  H15Y10678   6.900   2.325   4.567 -1.3270  0.1096  0.9824
  104SAPE  C31610679   6.820   2.493   4.679 -0.3854 -0.1232 -0.2145
  104SAPE  H16X10680   6.867   2.461   4.775  0.4198  1.1205 -0.1760
  104SAPE  H16Y10681   6.717   2.455   4.662  0.2534 -1.9931 -0.1216
  104SAPE  C31710682   6.827   2.644   4.696  0.6603 -0.0251 -0.4303
  104SAPE  H17X10683   6.742   2.667   4.764  0.3000 -0.1892 -0.8149
  104SAPE  H17Y10684   6.797   2.693   4.600  0.6446 -0.4667 -0.6524
  104SAPE  C31810685   6.962   2.697   4.740  0.1954  0.5691  0.3603
  104SAPE  H18X10686   6.951   2.802   4.774 -1.8924  0.0116  1.5154
  104SAPE  H18Y10687   7.034   2.698   4.655  1.1133 -1.0041  1.0812
  104SAPE  H18Z10688   7.005   2.646   4.829  0.4405  0.5599  0.2401
  105SAPE     N10689   6.725   0.011   2.364 -0.2349  1.1491  0.5593
  105SAPE   HN110690   6.643   0.065   2.398 -0.2237 -0.3029  3.2027
  105SAPE   HN210691   6.808   0.065   2.392  0.1469  0.6051  0.4941
  105SAPE   HN310692   6.706  -0.004   2.263 -0.2256  1.0780  0.5674
  105SAPE   C1210693   6.726  -0.110   2.452 -0.5614  0.5254 -0.1284
  105SAPE  H12A10694   6.776  -0.081   2.547  0.3560  1.8417 -0.9775
  105SAPE  H12B10695   6.790  -0.189   2.406  0.1620  2.3113 -2.3912
  105SAPE   C1110696   6.587  -0.165   2.475  0.1693  0.1632 -0.0625
  105SAPE  H11A10697   6.517  -0.102   2.534 -1.0820 -0.4597 -0.8367
  105SAPE  H11B10698   6.602  -0.257   2.534  0.2519  1.4944  2.0974
  105SAPE     P10699   6.447  -0.311   2.291 -0.1410 -0.0224 -0.1111
  105SAPE   O1310700   6.377  -0.275   2.167 -0.1998  0.2137 -0.1354
  105SAPE   O1410701   6.530  -0.431   2.280  0.7639  0.1095 -0.3307
  105SAPE   O1210702   6.533  -0.190   2.349  0.9999  0.3409  0.0769
  105SAPE   O1110703   6.344  -0.335   2.412 -0.9638 -0.3014  0.3387
  105SAPE    C110704   6.251  -0.236   2.446 -0.5368  0.2584  0.0774
  105SAPE    HA10705   6.309  -0.143   2.463 -0.5174 -0.0581  2.0166
  105SAPE    HB10706   6.176  -0.215   2.367  1.2922  3.5029 -0.9781
  105SAPE    C210707   6.169  -0.268   2.582 -0.0483 -0.1856 -0.0203
  105SAPE    HS10708   6.128  -0.172   2.620  0.3746  0.4665 -1.1467
  105SAPE   O2110709   6.267  -0.330   2.670  0.4720 -0.3943 -0.6950
  105SAPE   C2110710   6.356  -0.244   2.708  0.0428  0.2394  0.2580
  105SAPE   O2210711   6.348  -0.122   2.702  0.7227  0.0819  0.3297
  105SAPE   C2210712   6.481  -0.308   2.774 -0.4382 -0.3280  0.3263
  105SAPE   H2R10713   6.576  -0.291   2.719 -0.5777 -1.8740 -0.4492
  105SAPE   H2S10714   6.490  -0.252   2.870 -0.2272  0.1136  0.0464
  105SAPE    C310715   6.046  -0.362   2.561  0.6363  0.5848  0.1650
  105SAPE    HX10716   6.082  -0.467   2.551  0.2910  0.4191  0.6240
  105SAPE    HY10717   5.994  -0.333   2.467 -1.5371  0.2860  1.2288
  105SAPE   O3110718   5.946  -0.355   2.672  0.3175 -0.1211  0.0365
  105SAPE   C3110719   5.911  -0.467   2.729 -0.1140 -0.0638 -0.0253
  105SAPE   O3210720   5.951  -0.578   2.700  0.3343 -0.0783 -0.3278
  105SAPE   C3210721   5.826  -0.444   2.854 -0.1430 -0.4644  1.1692
  105SAPE   H2X10722   5.885  -0.380   2.924  0.3024  0.9345 -0.3896
  105SAPE   H2Y10723   5.807  -0.544   2.897 -1.5555  0.0168  1.7011
  105SAPE   C2310724   6.468  -0.462   2.817  0.0925 -0.4546  0.5279
  105SAPE   H3R10725   6.469  -0.525   2.725 -0.8313  0.4938 -0.1575
  105SAPE   H3S10726   6.368  -0.479   2.863 -0.1691  0.1366  0.1835
  105SAPE   C2410727   6.570  -0.503   2.932 -0.1270 -0.0386 -0.2944
  105SAPE   H4R10728   6.556  -0.610   2.959  1.0754  0.2350  1.6540
  105SAPE   H4S10729   6.533  -0.449   3.022  0.9337  0.8570 -0.3788
  105SAPE   C2510730   6.708  -0.473   2.896  0.8844  0.3447  0.0980
  105SAPE   H5R10731   6.749  -0.495   2.797  1.5803 -0.2921  0.5190
  105SAPE   C2610732   6.812  -0.459   2.986  0.4386 -0.0980 -0.7153
  105SAPE   H6R10733   6.911  -0.448   2.940  1.1769  2.4032  1.2401
  105SAPE   C2710734   6.800  -0.448   3.137 -0.0328  0.3304 -0.3500
  105SAPE   H7R10735   6.691  -0.467   3.151  0.4705 -4.9539 -1.6586
  105SAPE   H7S10736   6.849  -0.357   3.177  1.3668  0.9980 -3.3346
  105SAPE   C2810737   6.868  -0.569   3.204 -0.1517 -0.0176 -0.4489
  105SAPE   H8R10738   6.855  -0.656   3.137 -1.8712  0.5430 -0.8828
  105SAPE   C2910739   6.915  -0.585   3.330  0.2525 -0.4778 -0.5174
  105SAPE   H9R10740   6.949  -0.687   3.353  1.0862 -1.0683 -3.8877
  105SAPE  C21010741   6.922  -0.468   3.422  0.3912  0.2942 -0.1919
  105SAPE  H10R10742   6.818  -0.433   3.434  0.0695 -0.5644 -0.3891
  105SAPE  H10S10743   6.979  -0.382   3.380 -1.2048  1.2180 -0.5440
  105SAPE  C21110744   6.977  -0.510   3.552 -0.0641 -0.2114  0.5033
  105SAPE  H11R10745   7.086  -0.509   3.566  0.1375 -1.4960 -0.7374
  105SAPE  C21210746   6.903  -0.533   3.666  0.1234 -0.0094 -1.2336
  105SAPE  H12R10747   6.958  -0.554   3.759 -1.0872 -1.2728 -0.7727
  105SAPE  C21310748   6.753  -0.529   3.684  0.1886  0.2015 -0.2930
  105SAPE  H13R10749   6.718  -0.608   3.755  0.0317 -0.8792 -1.5397
  105SAPE  H13S10750   6.699  -0.544   3.588 -0.9427 -0.2248  0.3876
  105SAPE  C21410751   6.703  -0.398   3.721 -0.0794 -0.8453 -0.6468
  105SAPE  H14R10752   6.673  -0.337   3.635  0.6330  1.3236  0.5537
  105SAPE  C21510753   6.672  -0.352   3.846  0.3994 -0.7054  0.5076
  105SAPE  H15R10754   6.649  -0.246   3.863  0.6405 -0.4192 -0.8746
  105SAPE  C21610755   6.691  -0.432   3.969  0.6883  0.1808 -0.0910
  105SAPE  H16R10756   6.724  -0.534   3.940 -0.9570  0.1779 -2.1950
  105SAPE  H16S10757   6.594  -0.450   4.020 -0.4564  2.2725 -1.3600
  105SAPE  C21710758   6.774  -0.365   4.076 -0.3868 -0.5477  0.9382
  105SAPE  H17R10759   6.881  -0.347   4.051 -0.8169  1.9307  0.6186
  105SAPE  H17S10760   6.770  -0.434   4.163  0.3917 -0.5983  0.9417
  105SAPE  C21810761   6.719  -0.227   4.113 -0.0190  0.2437  0.0233
  105SAPE  H18R10762   6.608  -0.238   4.121 -0.1165 -1.1876 -2.4224
  105SAPE  H18S10763   6.725  -0.145   4.038 -1.9350  2.0395  1.6931
  105SAPE  C21910764   6.784  -0.183   4.241  0.1311 -0.4344 -0.7417
  105SAPE  H19R10765   6.895  -0.190   4.233 -0.1230 -2.5793 -3.2700
  105SAPE  H19S10766   6.753  -0.253   4.322  0.8193  1.3285  1.1631
  105SAPE  C22010767   6.740  -0.044   4.292  0.3120 -0.0921 -0.0627
  105SAPE  H20R10768   6.759   0.042   4.223  2.5651 -0.4670  0.0069
  105SAPE  H20S10769   6.801  -0.033   4.384  0.3268 -0.5135 -0.0207
  105SAPE  H20T10770   6.636  -0.061   4.326  0.9021  0.9595  2.5153
  105SAPE   C3310771   5.681  -0.394   2.821  0.0638  0.5512  0.3830
  105SAPE   H3X10772   5.627  -0.455   2.746  1.3847 -0.4760  0.2239
  105SAPE   H3Y10773   5.675  -0.292   2.778 -0.1984  0.6598  0.6796
  105SAPE   C3410774   5.588  -0.413   2.940 -0.4518  0.3086  0.7544
  105SAPE   H4X10775   5.577  -0.522   2.957 -0.6872 -0.2626 -2.4349
  105SAPE   H4Y10776   5.483  -0.394   2.909 -0.4699 -0.7844  0.0838
  105SAPE   C3510777   5.610  -0.331   3.070 -0.5478  0.1363  0.0994
  105SAPE   H5X10778   5.606  -0.222   3.045  2.6138  0.1833 -0.6449
  105SAPE   H5Y10779   5.709  -0.353   3.114  0.2095  1.5645 -0.7915
  105SAPE   C3610780   5.513  -0.362   3.185 -0.2224 -0.3587 -0.2335
  105SAPE   H6X10781   5.417  -0.311   3.162 -0.3751  0.5239  2.1508
  105SAPE   H6Y10782   5.545  -0.306   3.275  0.8659 -1.2536 -0.0444
  105SAPE   C3710783   5.483  -0.504   3.223 -0.0774 -0.1789 -0.0977
  105SAPE   H7X10784   5.584  -0.552   3.218 -1.0300 -2.8711  2.9155
  105SAPE   H7Y10785   5.425  -0.559   3.146 -3.7544 -0.6579  2.7432
  105SAPE   C3810786   5.427  -0.523   3.359 -0.2187  0.1997  0.2198
  105SAPE   H8X10787   5.344  -0.456   3.391  1.0451  1.6462  0.5609
  105SAPE   H8Y10788   5.507  -0.522   3.436 -1.5960 -1.7669  1.7855
  105SAPE   C3910789   5.369  -0.666   3.370  0.2644  0.4390 -0.0045
  105SAPE   H9X10790   5.439  -0.729   3.310  0.1932  0.1280  0.2381
  105SAPE   H9Y10791   5.269  -0.674   3.323  0.5504 -2.9778 -0.3328
  105SAPE  C31010792   5.376  -0.714   3.513  0.4337 -0.3647 -0.6782
  105SAPE  H10X10793   5.334  -0.816   3.527 -1.1872  0.6697  3.2788
  105SAPE  H10Y10794   5.314  -0.643   3.572  3.7884  1.7997  0.5440
  105SAPE  C31110795   5.512  -0.720   3.592 -0.4338 -1.1976  0.2102
  105SAPE  H11X10796   5.547  -0.617   3.615 -2.4568 -0.0046 -1.6121
  105SAPE  H11Y10797   5.590  -0.774   3.535  0.3209 -1.8641  1.8036
  105SAPE  C31210798   5.492  -0.786   3.726  0.4713 -0.2028  0.3592
  105SAPE  H12X10799   5.589  -0.784   3.779  0.6645 -0.0818  0.0042
  105SAPE  H12Y10800   5.467  -0.892   3.703 -0.3857  0.1942 -0.6386
  105SAPE  C31310801   5.389  -0.716   3.815 -0.0212  0.2234  0.5125
  105SAPE  H13X10802   5.286  -0.715   3.773 -0.9320  4.7820  2.2027
  105SAPE  H13Y10803   5.419  -0.609   3.809 -0.1037  0.1734 -1.6677
  105SAPE  C31410804   5.371  -0.779   3.951 -0.1139 -0.5171 -0.8000
  105SAPE  H14X10805   5.468  -0.792   4.003 -1.0530 -1.6247  0.7419
  105SAPE  H14Y10806   5.354  -0.885   3.922  1.6318 -0.3741 -2.5661
  105SAPE  C31510807   5.268  -0.707   4.032 -0.5148  0.8964  0.1341
  105SAPE  H15X10808   5.251  -0.779   4.115 -1.0019  2.2095  1.1994
  105SAPE  H15Y10809   5.169  -0.699   3.982 -1.3311 -0.5278  1.4116
  105SAPE  C31610810   5.312  -0.570   4.090 -0.4737 -0.0530 -0.3766
  105SAPE  H16X10811   5.349  -0.509   4.004 -0.5685 -0.0579 -0.4205
  105SAPE  H16Y10812   5.399  -0.585   4.157  1.4956 -3.3940 -3.2728
  105SAPE  C31710813   5.187  -0.507   4.156 -0.3173  0.3738 -0.3546
  105SAPE  H17X10814   5.125  -0.580   4.212  1.9647 -1.2206  0.2174
  105SAPE  H17Y10815   5.134  -0.461   4.070  1.2726  2.9606 -0.0848
  105SAPE  C31810816   5.227  -0.392   4.251  0.0381 -0.0365  0.4140
  105SAPE  H18X10817   5.234  -0.296   4.196  0.7016 -0.4700 -0.2728
  105SAPE  H18Y10818   5.326  -0.416   4.295  0.0032 -1.9222 -0.4521
  105SAPE  H18Z10819   5.141  -0.375   4.320 -0.8793 -0.0473 -0.7016
  106SAPE     N10820   5.461   4.413   2.030  0.3249  0.0595 -0.8433
  106SAPE   HN110821   5.505   4.486   1.971  1.1113  0.1552 -0.1631
  106SAPE   HN210822   5.503   4.321   2.006 -0.3535 -1.3969  2.8249
  106SAPE   HN310823   5.358   4.416   2.022  0.1863 -1.4956  0.0174
  106SAPE   C1210824   5.480   4.437   2.175 -0.0119 -0.0170  0.7127
  106SAPE  H12A10825   5.590   4.430   2.190  0.3181 -4.0154 -2.0822
  106SAPE  H12B10826   5.416   4.368   2.234 -3.1317  1.0622 -1.1518
  106SAPE   C1110827   5.428   4.575   2.216  0.6573 -0.5647 -0.8838
  106SAPE  H11A10828   5.408   4.581   2.326 -2.0164 -0.6361 -1.2880
  106SAPE  H11B10829   5.332   4.595   2.164  0.0959  0.6721  0.5293
  106SAPE     P10830   5.487   4.790   2.066 -0.3268  0.4175 -0.1250
  106SAPE   O1310831   5.609   4.856   2.021 -0.2187 -0.2157 -0.1489
  106SAPE   O1410832   5.396   4.736   1.960 -0.0222 -0.8599 -0.0697
  106SAPE   O1210833   5.519   4.676   2.177 -0.1726  0.0412 -0.0377
  106SAPE   O1110834   5.395   4.881   2.150 -0.1528  0.0274  0.0395
  106SAPE    C110835   5.435   4.916   2.286 -0.1518 -0.6457 -0.0275
  106SAPE    HA10836   5.493   4.836   2.336  1.0982 -0.3762 -1.0092
  106SAPE    HB10837   5.501   5.005   2.284  1.0962 -1.5737 -1.1173
  106SAPE    C210838   5.314   4.965   2.375  0.0242 -0.1479  0.2898
  106SAPE    HS10839   5.259   4.876   2.412  0.5341 -1.1518 -1.2590
  106SAPE   O2110840   5.231   5.041   2.287 -0.0298 -0.4257 -0.3432
  106SAPE   C2110841   5.105   5.034   2.306  0.6201  0.4811 -0.0862
  106SAPE   O2210842   5.048   4.950   2.378  0.0341 -0.0849 -0.3152
  106SAPE   C2210843   5.036   5.146   2.224  0.6193  0.3408 -0.4493
  106SAPE   H2R10844   5.061   5.127   2.117  1.0829  1.1803 -0.4938
  106SAPE   H2S10845   4.933   5.108   2.244  1.5315 -2.5952 -0.7895
  106SAPE    C310846   5.369   5.056   2.489 -0.0702 -0.4658  0.1667
  106SAPE    HX10847   5.438   5.135   2.452 -0.4805  0.3505  1.1140
  106SAPE    HY10848   5.433   4.995   2.556  1.9887  0.0870 -1.1954
  106SAPE   O3110849   5.269   5.121   2.565  0.5067  0.3752  0.3191
  106SAPE   C3110850   5.209   5.051   2.659 -0.2773 -0.2102 -0.4036
  106SAPE   O3210851   5.238   4.934   2.684  0.4391 -0.1467 -0.0976
  106SAPE   C3210852   5.103   5.135   2.730  0.4692 -0.2771 -0.3328
  106SAPE   H2X10853   5.003   5.141   2.682  0.1030 -1.3681  0.2484
  106SAPE   H2Y10854   5.147   5.237   2.736 -0.6760  0.1814  0.7817
  106SAPE   C2310855   5.067   5.288   2.269  0.3027 -0.2628  0.6447
  106SAPE   H3R10856   5.023   5.365   2.202  2.5217  0.5091 -0.0166
  106SAPE   H3S10857   5.173   5.318   2.258 -0.3883  1.6703 -1.5677
  106SAPE   C2410858   5.033   5.328   2.417  0.2921 -0.0159 -0.0686
  106SAPE   H4R10859   5.064   5.432   2.440  0.7830 -0.6405  2.3369
  106SAPE   H4S10860   5.088   5.262   2.487  0.5475  0.2348 -0.0299
  106SAPE   C2510861   4.890   5.302   2.448 -0.3130  0.0396 -0.0339
  106SAPE   H5R10862   4.825   5.256   2.372 -0.6093 -0.3122  0.4241
  106SAPE   C2610863   4.829   5.339   2.561 -1.0258  0.2501  0.7180
  106SAPE   H6R10864   4.724   5.306   2.566 -0.8660 -0.3422  0.2766
  106SAPE   C2710865   4.886   5.423   2.673  0.1746 -0.0146 -0.1613
  106SAPE   H7R10866   4.977   5.475   2.636  0.6420 -1.1587 -0.6526
  106SAPE   H7S10867   4.927   5.363   2.757  2.2208  0.6383 -0.6319
  106SAPE   C2810868   4.788   5.523   2.720 -0.4295 -0.4723 -0.1548
  106SAPE   H8R10869   4.738   5.578   2.639  0.8179 -0.2740 -0.8248
  106SAPE   C2910870   4.774   5.572   2.848 -0.2245  0.5748  0.8694
  106SAPE   H9R10871   4.703   5.654   2.870  0.1217  0.5908  1.9848
  106SAPE  C21010872   4.858   5.525   2.971  0.1662 -0.1138 -0.0604
  106SAPE  H10R10873   4.958   5.574   2.971  0.2531 -0.2911 -0.2148
  106SAPE  H10S10874   4.888   5.418   2.969 -2.2747 -0.9087  1.6369
  106SAPE  C21110875   4.795   5.559   3.108 -0.1682  0.0614 -0.1773
  106SAPE  H11R10876   4.685   5.553   3.100 -0.0836 -2.0389 -0.0927
  106SAPE  C21210877   4.852   5.555   3.230  0.0604  0.8799  0.2086
  106SAPE  H12R10878   4.783   5.556   3.316  1.8541 -3.8358  2.0430
  106SAPE  C21310879   4.998   5.534   3.255 -0.0844 -1.0486 -1.2978
  106SAPE  H13R10880   5.027   5.589   3.347 -2.0355 -0.4110 -1.0162
  106SAPE  H13S10881   5.058   5.584   3.177  0.1778  2.5917  0.9798
  106SAPE  C21410882   5.025   5.389   3.279 -0.3627  0.0541 -0.2380
  106SAPE  H14R10883   5.004   5.328   3.190 -1.0696  0.6042 -0.4590
  106SAPE  C21510884   5.087   5.333   3.380 -0.9300 -0.1502  0.3615
  106SAPE  H15R10885   5.083   5.223   3.380  0.6159 -0.2238  1.0357
  106SAPE  C21610886   5.129   5.399   3.513 -0.6096  0.3083  0.2845
  106SAPE  H16R10887   5.045   5.452   3.562 -1.0587  0.0024 -0.1430
  106SAPE  H16S10888   5.203   5.482   3.503  2.3356 -2.1805 -0.2641
  106SAPE  C21710889   5.191   5.304   3.607 -0.1208 -0.2689  0.1233
  106SAPE  H17R10890   5.270   5.241   3.560 -1.6909 -0.0357 -3.0993
  106SAPE  H17S10891   5.114   5.224   3.620  0.1976 -0.3504  1.7074
  106SAPE  C21810892   5.245   5.370   3.739  0.1355  0.2307 -0.0981
  106SAPE  H18R10893   5.160   5.421   3.788 -1.5356 -0.6191 -1.9365
  106SAPE  H18S10894   5.316   5.445   3.699  1.6749 -0.7350  0.7081
  106SAPE  C21910895   5.320   5.260   3.819 -1.0154  0.0979  0.0679
  106SAPE  H19R10896   5.404   5.208   3.768 -0.4957 -0.1915  1.1820
  106SAPE  H19S10897   5.260   5.173   3.852 -0.3009 -1.2998 -2.0615
  106SAPE  C22010898   5.391   5.331   3.937 -0.2824  0.1480  0.1391
  106SAPE  H20R10899   5.448   5.251   3.990 -1.8749 -1.7181 -0.8372
  106SAPE  H20S10900   5.319   5.368   4.012 -0.3012 -0.1787  0.2863
  106SAPE  H20T10901   5.458   5.409   3.895  1.0379  1.1217  3.6708
  106SAPE   C3310902   5.066   5.064   2.867 -0.4591  0.0191  0.1035
  106SAPE   H3X10903   5.041   4.958   2.848  0.0752  0.2668 -2.2535
  106SAPE   H3Y10904   4.968   5.101   2.905 -1.3854 -1.9258 -0.2567
  106SAPE   C3410905   5.183   5.074   2.969  0.0426 -0.3331 -0.1591
  106SAPE   H4X10906   5.212   5.181   2.972 -0.7806 -0.1300  1.7653
  106SAPE   H4Y10907   5.274   5.026   2.929  0.2155  0.3167 -0.5765
  106SAPE   C3510908   5.149   5.030   3.116 -0.4914 -0.2520 -0.2080
  106SAPE   H5X10909   5.085   4.939   3.111 -0.2165 -0.3913 -2.1395
  106SAPE   H5Y10910   5.093   5.107   3.174 -2.5632 -0.7941 -1.3757
  106SAPE   C3610911   5.281   4.987   3.184 -0.6846 -1.0000 -0.1620
  106SAPE   H6X10912   5.338   5.078   3.212 -1.8548 -0.7688  1.6465
  106SAPE   H6Y10913   5.347   4.923   3.122 -1.3405 -0.5781 -1.3073
  106SAPE   C3710914   5.259   4.908   3.310  0.1093 -0.4238 -0.2672
  106SAPE   H7X10915   5.256   4.797   3.301 -2.8817 -0.4283 -0.2117
  106SAPE   H7Y10916   5.169   4.952   3.359  1.3284  0.7080  1.0294
  106SAPE   C3810917   5.360   4.935   3.424 -0.4230  0.4088  0.7499
  106SAPE   H8X10918   5.340   5.039   3.455  0.7062  1.0608 -0.6117
  106SAPE   H8Y10919   5.465   4.913   3.392 -1.1297  0.5582 -1.9127
  106SAPE   C3910920   5.326   4.850   3.543  0.0196  0.3362  0.1341
  106SAPE   H9X10921   5.327   4.739   3.536  0.3122  0.2730  1.0595
  106SAPE   H9Y10922   5.221   4.874   3.569 -0.0044  1.3000 -0.7919
  106SAPE  C31010923   5.418   4.889   3.651 -0.1796 -0.7064 -0.6419
  106SAPE  H10X10924   5.393   4.997   3.665  1.0210 -0.6748  1.8118
  106SAPE  H10Y10925   5.527   4.888   3.627 -0.4510 -0.1166 -2.0242
  106SAPE  C31110926   5.392   4.820   3.787  0.7499  0.7118  0.2374
  106SAPE  H11X10927   5.421   4.715   3.766 -0.7987  0.0485  1.1937
  106SAPE  H11Y10928   5.283   4.815   3.810  0.6542 -1.6474 -0.4265
  106SAPE  C31210929   5.468   4.882   3.906 -0.0143 -0.3071  0.2322
  106SAPE  H12X10930   5.420   4.980   3.922  0.7240 -0.3611  3.4343
  106SAPE  H12Y10931   5.574   4.887   3.873 -0.1602 -1.4632 -0.5018
  106SAPE  C31310932   5.451   4.791   4.030 -0.1299 -0.1371  0.1672
  106SAPE  H13X10933   5.475   4.685   4.009 -1.8368 -0.7822  1.2293
  106SAPE  H13Y10934   5.346   4.788   4.066  0.2072  0.3216  1.2521
  106SAPE  C31410935   5.535   4.841   4.152 -0.6660 -0.1808 -0.5217
  106SAPE  H14X10936   5.636   4.864   4.114 -0.0719  1.1703  1.6892
  106SAPE  H14Y10937   5.556   4.774   4.239  0.4165  0.4488 -0.2903
  106SAPE  C31510938   5.480   4.969   4.204 -0.3938  0.1172  0.2163
  106SAPE  H15X10939   5.370   4.960   4.216 -0.4213 -0.1028 -0.1921
  106SAPE  H15Y10940   5.489   5.046   4.124 -2.1308 -0.3363 -0.4554
  106SAPE  C31610941   5.561   5.015   4.323  0.1774 -0.4899 -0.5692
  106SAPE  H16X10942   5.671   5.002   4.310  0.3884  1.3242 -0.7700
  106SAPE  H16Y10943   5.527   4.954   4.409  1.0789  0.8617  0.7920
  106SAPE  C31710944   5.538   5.168   4.351 -0.0029  0.4330 -0.0278
  106SAPE  H17X10945   5.584   5.221   4.265 -0.1706  0.6028 -0.0145
  106SAPE  H17Y10946   5.592   5.210   4.439 -0.0859  1.9559 -0.6687
  106SAPE  C31810947   5.388   5.215   4.363  0.8593  0.5325 -0.9429
  106SAPE  H18X10948   5.340   5.158   4.445 -1.1122 -0.5592 -2.7510
  106SAPE  H18Y10949   5.336   5.204   4.265 -1.3768  0.7857  0.1720
  106SAPE  H18Z10950   5.375   5.321   4.392  0.5288  0.4099 -0.6433
  107SAPE     N10951   1.262   0.896   2.327  0.6826 -0.2639  0.1076
  107SAPE   HN110952   1.206   0.862   2.247 -1.2428  0.9191  0.8874
  107SAPE   HN210953   1.248   0.996   2.350  0.9404 -0.0768 -0.5233
  107SAPE   HN310954   1.364   0.900   2.305  0.8587  4.1075  0.8134
  107SAPE   C1210955   1.237   0.813   2.450  1.0846  0.1371 -0.2183
  107SAPE  H12A10956   1.317   0.812   2.527 -1.4964  0.5700  2.6435
  107SAPE  H12B10957   1.252   0.710   2.410  1.6914  0.4515 -0.8292
  107SAPE   C1110958   1.100   0.844   2.515  0.0752 -0.9189 -0.3132
  107SAPE  H11A10959   1.097   0.944   2.563  1.0521 -1.1288  0.2151
  107SAPE  H11B10960   1.085   0.769   2.596 -1.8149 -1.1649 -0.8513
  107SAPE     P10961   0.888   0.709   2.431 -0.7285  0.0987 -0.5737
  107SAPE   O1310962   0.767   0.741   2.345  0.7153 -0.1818 -0.0377
  107SAPE   O1410963   0.967   0.583   2.412  0.0565 -0.5197 -0.1344
  107SAPE   O1210964   0.984   0.829   2.420 -0.4999 -0.3834 -0.1831
  107SAPE   O1110965   0.852   0.710   2.581 -0.3059  0.1093  0.2614
  107SAPE    C110966   0.774   0.818   2.624  0.5107  0.4798  0.0222
  107SAPE    HA10967   0.822   0.917   2.609  2.6023 -0.4468  0.2334
  107SAPE    HB10968   0.679   0.813   2.568  0.8623  0.9951 -0.6308
  107SAPE    C210969   0.732   0.812   2.775 -0.2926 -0.1598 -0.1470
  107SAPE    HS10970   0.823   0.817   2.838 -0.1717 -1.5312 -0.1902
  107SAPE   O2110971   0.663   0.688   2.794 -0.0869  0.0226  0.0650
  107SAPE   C2110972   0.656   0.651   2.918 -0.8668 -0.0553  0.4867
  107SAPE   O2210973   0.709   0.706   3.011 -0.0519 -0.1649  0.1287
  107SAPE   C2210974   0.562   0.536   2.927 -0.0278 -0.1762  0.3623
  107SAPE   H2R10975   0.478   0.558   2.858 -1.3496 -1.9243  1.3440
  107SAPE   H2S10976   0.604   0.442   2.886 -2.5941 -1.4911  0.5853
  107SAPE    C310977   0.642   0.935   2.809 -0.5672 -0.4065 -0.2949
  107SAPE    HX10978   0.540   0.933   2.766 -1.1617  1.9755  0.8768
  107SAPE    HY10979   0.688   1.025   2.764 -1.4130  1.3875  2.2189
  107SAPE   O3110980   0.618   0.954   2.951 -0.6110  0.4426  0.1062
  107SAPE   C3110981   0.712   1.014   3.017 -0.2080  0.0917  0.4140
  107SAPE   O3210982   0.805   1.078   2.964 -0.4212  0.6729  0.3086
  107SAPE   C3210983   0.678   1.026   3.170 -0.3202  0.5108  0.2220
  107SAPE   H2X10984   0.632   0.926   3.190 -1.7353  0.6561 -1.9502
  107SAPE   H2Y10985   0.597   1.101   3.178 -1.4308 -0.6888  0.5823
  107SAPE   C2310986   0.504   0.505   3.063  0.6490  0.0435 -0.4700
  107SAPE   H3R10987   0.400   0.474   3.041  0.6181  0.9660 -1.7452
  107SAPE   H3S10988   0.503   0.596   3.127 -2.9815 -0.2674  0.0910
  107SAPE   C2410989   0.579   0.385   3.134 -0.1453  0.2128  0.5133
  107SAPE   H4R10990   0.689   0.397   3.123  0.0343 -1.8959 -0.3596
  107SAPE   H4S10991   0.571   0.291   3.076 -1.4593  0.5228  0.1551
  107SAPE   C2510992   0.534   0.373   3.276  0.0100 -0.1101 -0.4669
  107SAPE   H5R10993   0.453   0.300   3.289  0.2651 -0.7030 -2.0331
  107SAPE   C2610994   0.580   0.452   3.376 -0.9879 -0.0916 -0.5573
  107SAPE   H6R10995   0.549   0.441   3.481  2.0662  1.3772  0.6347
  107SAPE   C2710996   0.698   0.550   3.353 -0.0568  0.0990 -0.0977
  107SAPE   H7R10997   0.701   0.589   3.249  0.0621 -0.2164 -0.2156
  107SAPE   H7S10998   0.796   0.497   3.353 -0.3272 -0.5883 -3.2714
  107SAPE   C2810999   0.713   0.665   3.441 -0.4745  0.1693 -0.9045
  107SAPE   H8R11000   0.689   0.765   3.404 -0.8099 -0.3868 -2.2456
  107SAPE   C2911001   0.780   0.653   3.558 -0.1666 -0.2825  0.0073
  107SAPE   H9R11002   0.795   0.738   3.626  2.2281 -0.6677  0.0313
  107SAPE  C21011003   0.848   0.530   3.619  0.3454 -0.8443  0.1376
  107SAPE  H10R11004   0.957   0.515   3.599  0.4300 -2.4327  1.5006
  107SAPE  H10S11005   0.797   0.436   3.591 -0.2030 -0.5845  0.2488
  107SAPE  C21111006   0.831   0.546   3.769 -0.0874  0.4090 -0.8350
  107SAPE  H11R11007   0.727   0.550   3.806 -0.2163 -2.6278 -0.5982
  107SAPE  C21211008   0.930   0.558   3.863 -0.0764  1.0287 -0.3259
  107SAPE  H12R11009   0.893   0.582   3.963  0.8308 -0.3013  0.3455
  107SAPE  C21311010   1.080   0.566   3.845  0.4257  0.0140  0.1415
  107SAPE  H13R11011   1.103   0.541   3.739 -1.3936 -1.9801  0.1634
  107SAPE  H13S11012   1.131   0.484   3.900  0.6946  0.7045  0.9484
  107SAPE  C21411013   1.131   0.702   3.881  0.1538 -0.0957 -0.1720
  107SAPE  H14R11014   1.060   0.777   3.842 -0.7510 -1.8529 -2.1331
  107SAPE  C21511015   1.232   0.738   3.963 -0.6387 -0.2896 -0.1404
  107SAPE  H15R11016   1.252   0.842   3.990 -2.6364 -0.0796  0.6893
  107SAPE  C21611017   1.330   0.646   4.028  0.3287  0.5513 -0.2136
  107SAPE  H16R11018   1.432   0.687   4.010 -0.8051  3.2893 -1.0505
  107SAPE  H16S11019   1.331   0.540   3.995  2.2460  1.0837 -2.1372
  107SAPE  C21711020   1.300   0.636   4.178 -0.6999  0.3377  0.5455
  107SAPE  H17R11021   1.194   0.603   4.178  0.3666 -3.4959 -0.5684
  107SAPE  H17S11022   1.325   0.739   4.211  0.2427  0.9188 -1.7915
  107SAPE  C21811023   1.386   0.533   4.257 -0.1902  0.4459  0.1310
  107SAPE  H18R11024   1.362   0.517   4.364  2.5484 -1.2126  0.6228
  107SAPE  H18S11025   1.493   0.561   4.245 -0.3914  0.7496 -1.0270
  107SAPE  C21911026   1.367   0.387   4.207  0.0680  0.1657 -1.0473
  107SAPE  H19R11027   1.382   0.379   4.097 -0.3404  1.1053 -1.1833
  107SAPE  H19S11028   1.261   0.357   4.218  0.6145 -1.0296  2.2674
  107SAPE  C22011029   1.460   0.296   4.291  0.1781  0.5068  0.3799
  107SAPE  H20R11030   1.410   0.199   4.311 -2.7101  1.3002 -2.2322
  107SAPE  H20S11031   1.484   0.353   4.383 -0.4966  0.4342  0.6080
  107SAPE  H20T11032   1.556   0.288   4.234  0.2583  0.8127  0.4739
  107SAPE   C3311033   0.798   1.055   3.251 -0.1563  0.2186  0.0645
  107SAPE   H3X11034   0.827   1.157   3.218  1.4582 -0.8545 -2.0786
  107SAPE   H3Y11035   0.881   0.986   3.225  0.7882  1.0511  0.7793
  107SAPE   C3411036   0.774   1.055   3.403 -0.5510  0.0023 -0.2193
  107SAPE   H4X11037   0.746   0.949   3.422 -2.2165  0.0049 -2.2825
  107SAPE   H4Y11038   0.690   1.116   3.442 -0.9099 -0.2545 -0.5844
  107SAPE   C3511039   0.898   1.078   3.492 -0.0865 -0.5846 -0.0110
  107SAPE   H5X11040   0.967   1.158   3.458  1.8087 -1.5293  1.4073
  107SAPE   H5Y11041   0.962   0.988   3.499  2.0135  0.9456  1.6989
  107SAPE   C3611042   0.860   1.105   3.643  0.2613  0.5870  0.6545
  107SAPE   H6X11043   0.810   1.013   3.679  0.0833 -0.0882 -1.1803
  107SAPE   H6Y11044   0.794   1.194   3.658 -2.8207 -1.0570 -2.0039
  107SAPE   C3711045   0.980   1.115   3.734 -0.3586 -0.1006 -0.6690
  107SAPE   H7X11046   1.035   1.204   3.697  3.6029  0.0230  4.4138
  107SAPE   H7Y11047   1.059   1.037   3.729 -1.4019 -1.3026  0.5995
  107SAPE   C3811048   0.949   1.138   3.878 -0.0182 -0.1020  0.0489
  107SAPE   H8X11049   0.903   1.041   3.909  2.2520 -0.7757  1.5364
  107SAPE   H8Y11050   0.887   1.230   3.880 -1.4775 -1.0447  0.3935
  107SAPE   C3911051   1.068   1.165   3.968  0.2399  0.4874  0.1283
  107SAPE   H9X11052   1.131   1.236   3.910 -1.0968  2.4312  0.9091
  107SAPE   H9Y11053   1.121   1.068   3.971 -0.0320  0.2816 -1.2559
  107SAPE  C31011054   1.033   1.223   4.104  0.9591  0.1245  0.9099
  107SAPE  H10X11055   0.975   1.144   4.156  0.1171 -0.2078 -0.4975
  107SAPE  H10Y11056   0.955   1.300   4.085  0.1185 -1.1303 -0.9092
  107SAPE  C31111057   1.149   1.278   4.189 -0.2172 -0.8893  0.0245
  107SAPE  H11X11058   1.238   1.300   4.126 -1.3962  2.7582 -0.6117
  107SAPE  H11Y11059   1.172   1.185   4.247  0.3128 -0.3174  0.7448
  107SAPE  C31211060   1.119   1.400   4.277  0.0174 -0.1435 -0.0332
  107SAPE  H12X11061   1.050   1.369   4.358 -1.5832  0.6301 -1.0589
  107SAPE  H12Y11062   1.069   1.478   4.216 -0.2590 -0.9541 -0.8636
  107SAPE  C31311063   1.257   1.452   4.333 -0.0180  0.4707  0.1936
  107SAPE  H13X11064   1.325   1.508   4.266 -1.9192  0.9650 -1.4178
  107SAPE  H13Y11065   1.317   1.363   4.364 -1.3135 -0.4949  0.0270
  107SAPE  C31411066   1.228   1.555   4.452 -0.6647 -0.1673  0.4553
  107SAPE  H14X11067   1.162   1.513   4.532 -0.6138  0.3624  0.7773
  107SAPE  H14Y11068   1.177   1.645   4.412 -0.5185 -0.0399  0.5555
  107SAPE  C31511069   1.357   1.590   4.533  0.1487  0.3611 -0.7492
  107SAPE  H15X11070   1.442   1.596   4.463  0.4751 -1.8444 -0.5899
  107SAPE  H15Y11071   1.379   1.507   4.603 -0.4720 -1.6242 -2.8159
  107SAPE  C31611072   1.344   1.720   4.608 -0.2928  0.0522 -0.2855
  107SAPE  H16X11073   1.257   1.707   4.677  2.2473 -1.3406  2.9392
  107SAPE  H16Y11074   1.326   1.792   4.526 -1.3693 -0.7471 -0.7772
  107SAPE  C31711075   1.475   1.747   4.675  0.2638 -0.5712  0.3748
  107SAPE  H17X11076   1.549   1.779   4.599  0.2818 -4.9808 -1.7705
  107SAPE  H17Y11077   1.509   1.653   4.723 -0.9325 -1.1997  0.0164
  107SAPE  C31811078   1.464   1.851   4.789  0.3238  0.4940  0.4049
  107SAPE  H18X11079   1.570   1.862   4.821  1.2018 -0.5896 -1.9124
  107SAPE  H18Y11080   1.406   1.793   4.864 -0.1450 -1.1100 -1.1381
  107SAPE  H18Z11081   1.417   1.946   4.757  1.8477  0.8920 -0.7549
  108SAPE     N11082   5.412   6.779   2.274 -0.4565 -0.0795 -0.1288
  108SAPE   HN111083   5.359   6.750   2.359  1.5711 -1.5117  0.7364
  108SAPE   HN211084   5.375   6.866   2.231  0.8519  0.3436 -0.4581
  108SAPE   HN311085   5.395   6.706   2.202 -0.7947  0.1066 -0.2379
  108SAPE   C1211086   5.565   6.781   2.298  0.8284  0.6345 -0.2671
  108SAPE  H12A11087   5.613   6.823   2.208  2.2920 -1.2659 -0.4366
  108SAPE  H12B11088   5.601   6.676   2.301  0.4508  0.4795 -1.0589
  108SAPE   C1111089   5.592   6.839   2.432  0.2172  0.0735  0.4896
  108SAPE  H11A11090   5.700   6.825   2.453  0.2625  1.0949  0.9954
  108SAPE  H11B11091   5.534   6.783   2.508  0.0066  0.7227  0.8165
  108SAPE     P11092   5.642   7.096   2.380  0.0807  0.1389 -0.0106
  108SAPE   O1311093   5.769   7.045   2.330 -0.2993  0.6265 -0.1379
  108SAPE   O1411094   5.566   7.185   2.289  0.0307  0.4249 -0.0534
  108SAPE   O1211095   5.543   6.976   2.434 -0.5223  0.2388  0.0578
  108SAPE   O1111096   5.677   7.179   2.506 -0.2009  0.1626 -0.6962
  108SAPE    C111097   5.590   7.165   2.623 -0.0894 -0.1078 -0.6239
  108SAPE    HA11098   5.545   7.263   2.649  1.3371  0.0348  1.5163
  108SAPE    HB11099   5.501   7.099   2.620 -1.0877  0.8651  3.1211
  108SAPE    C211100   5.672   7.119   2.754  0.0680 -0.1982  1.0580
  108SAPE    HS11101   5.607   7.115   2.845 -0.0212  1.4596  1.0890
  108SAPE   O2111102   5.788   7.201   2.773  0.2395 -0.8008 -0.7904
  108SAPE   C2111103   5.816   7.232   2.900 -1.0776 -0.0873 -0.2331
  108SAPE   O2211104   5.762   7.182   3.001 -0.4097 -0.1443  0.3609
  108SAPE   C2211105   5.925   7.343   2.909 -0.2116 -0.9812 -0.1137
  108SAPE   H2R11106   5.969   7.348   2.808 -0.1495  0.5016 -0.0289
  108SAPE   H2S11107   5.869   7.437   2.928 -0.9716 -1.3531 -0.4756
  108SAPE    C311108   5.712   6.962   2.739  0.7981 -0.5291  1.2622
  108SAPE    HX11109   5.773   6.937   2.650 -3.0335 -0.7304 -1.5877
  108SAPE    HY11110   5.613   6.914   2.722 -1.5754  3.8458  1.2036
  108SAPE   O3111111   5.772   6.910   2.856  0.3800  0.9360 -0.0471
  108SAPE   C3111112   5.909   6.907   2.859 -0.2693 -0.1348  0.4213
  108SAPE   O3211113   5.984   6.946   2.765  0.2738  0.0129  0.0733
  108SAPE   C3211114   5.955   6.855   2.996 -0.8074 -0.4792  0.2167
  108SAPE   H2X11115   5.891   6.771   3.030 -0.8745  0.0456  1.4399
  108SAPE   H2Y11116   5.960   6.941   3.066  1.5015 -0.9070  0.6672
  108SAPE   C2311117   6.017   7.329   3.033 -0.6194  0.4242 -0.4360
  108SAPE   H3R11118   6.058   7.227   3.037 -0.6632  0.3934 -0.7560
  108SAPE   H3S11119   5.941   7.345   3.113 -0.9969  1.8523 -1.0360
  108SAPE   C2411120   6.130   7.441   3.051 -0.2539 -0.1152 -0.6623
  108SAPE   H4R11121   6.152   7.447   3.160  0.6888  1.1675 -0.8902
  108SAPE   H4S11122   6.090   7.538   3.013 -0.9192 -0.7051 -1.5003
  108SAPE   C2511123   6.264   7.402   2.986  0.1304 -0.8336 -0.5799
  108SAPE   H5R11124   6.280   7.416   2.878  1.3101 -1.1005 -0.4520
  108SAPE   C2611125   6.371   7.349   3.053 -0.1449 -0.1339  0.1497
  108SAPE   H6R11126   6.456   7.341   2.983 -1.7241 -0.3618 -1.8156
  108SAPE   C2711127   6.384   7.334   3.205  0.2327 -0.4547  0.8365
  108SAPE   H7R11128   6.436   7.238   3.225  0.3502 -0.7635 -0.7947
  108SAPE   H7S11129   6.290   7.341   3.263 -2.3106 -3.0529 -2.5268
  108SAPE   C2811130   6.471   7.450   3.258  0.1443 -0.3307  0.0323
  108SAPE   H8R11131   6.505   7.523   3.183  1.2649 -0.0573  0.7851
  108SAPE   C2911132   6.502   7.466   3.387  0.4968  0.3803 -0.5882
  108SAPE   H9R11133   6.574   7.545   3.413 -1.1105  1.3807  1.0828
  108SAPE  C21011134   6.457   7.371   3.498  0.5353  0.3427  0.1017
  108SAPE  H10R11135   6.347   7.354   3.500  0.5075  0.5288  1.2254
  108SAPE  H10S11136   6.472   7.426   3.593  0.5754  0.7562 -0.1427
  108SAPE  C21111137   6.542   7.242   3.495  0.8829 -0.1888 -0.4414
  108SAPE  H11R11138   6.584   7.221   3.395 -0.1174 -3.1006 -0.3448
  108SAPE  C21211139   6.561   7.155   3.595  0.0172 -0.5259  0.7007
  108SAPE  H12R11140   6.630   7.073   3.568  0.9940  1.1431 -2.3552
  108SAPE  C21311141   6.514   7.185   3.736  0.3985  0.2504 -0.4159
  108SAPE  H13R11142   6.425   7.250   3.754 -0.8818 -1.7630  0.9269
  108SAPE  H13S11143   6.595   7.243   3.785 -1.2467  1.3796  1.1164
  108SAPE  C21411144   6.498   7.049   3.806 -0.1427 -0.3524 -0.3312
  108SAPE  H14R11145   6.406   6.992   3.789 -3.4722  3.3278  3.3425
  108SAPE  C21511146   6.587   6.998   3.896  0.2316 -0.8882  0.5100
  108SAPE  H15R11147   6.556   6.905   3.946  2.7501 -1.9320  0.2886
  108SAPE  C21611148   6.713   7.067   3.942 -0.3250 -0.0460  0.3278
  108SAPE  H16R11149   6.784   7.104   3.865 -0.9910 -0.1108 -0.3235
  108SAPE  H16S11150   6.775   6.993   3.997 -0.6304  0.5981  1.5798
  108SAPE  C21711151   6.679   7.171   4.039 -0.1869 -0.3448 -1.0700
  108SAPE  H17R11152   6.634   7.127   4.130  0.6783  2.4517  0.8295
  108SAPE  H17S11153   6.602   7.245   4.004  0.7037  0.6948 -0.8816
  108SAPE  C21811154   6.804   7.243   4.090  0.2007  0.3710 -0.3681
  108SAPE  H18R11155   6.864   7.268   4.001 -0.0005 -0.8999 -0.8774
  108SAPE  H18S11156   6.857   7.161   4.143 -0.5181  0.3401  0.3274
  108SAPE  C21911157   6.771   7.359   4.177 -0.5145  0.0057 -0.0837
  108SAPE  H19R11158   6.727   7.325   4.274  1.2612  1.7351  1.4058
  108SAPE  H19S11159   6.688   7.409   4.124  0.1962  0.4856 -0.7510
  108SAPE  C22011160   6.881   7.460   4.204 -0.5736 -0.1107  0.3682
  108SAPE  H20R11161   6.943   7.481   4.114 -0.5423 -3.0062 -0.3875
  108SAPE  H20S11162   6.940   7.412   4.285 -0.6146  1.6758  1.5135
  108SAPE  H20T11163   6.833   7.553   4.241 -0.5067 -0.2145  0.7160
  108SAPE   C3311164   6.098   6.803   2.965  0.2497 -0.3223 -0.4151
  108SAPE   H3X11165   6.162   6.887   2.931  0.0612 -0.6842 -1.6969
  108SAPE   H3Y11166   6.104   6.724   2.887 -3.6645 -2.3944  1.1261
  108SAPE   C3411167   6.165   6.743   3.093 -0.0959 -0.2531  0.1618
  108SAPE   H4X11168   6.171   6.824   3.169 -0.6349 -0.4224  0.3924
  108SAPE   H4Y11169   6.264   6.705   3.059 -0.6509 -2.1437  0.5497
  108SAPE   C3511170   6.100   6.619   3.161 -0.2508  0.0279  0.1281
  108SAPE   H5X11171   6.048   6.564   3.080 -1.1598  0.3806  0.4599
  108SAPE   H5Y11172   6.173   6.551   3.210 -1.1605  0.4483  2.1871
  108SAPE   C3611173   5.996   6.659   3.270  0.3169  0.1191 -0.3181
  108SAPE   H6X11174   5.916   6.725   3.229  0.6479  1.3458  0.9267
  108SAPE   H6Y11175   6.045   6.717   3.351  0.5706  2.1439 -1.8425
  108SAPE   C3711176   5.938   6.531   3.325 -0.2277 -0.0346  0.5117
  108SAPE   H7X11177   6.000   6.458   3.382  0.4798  1.2607  1.4651
  108SAPE   H7Y11178   5.887   6.469   3.249 -0.1360 -0.5367  0.8526
  108SAPE   C3811179   5.827   6.576   3.422 -0.5172 -0.0469 -0.2909
  108SAPE   H8X11180   5.728   6.537   3.387 -0.0078 -2.3273  0.5844
  108SAPE   H8Y11181   5.831   6.684   3.444  0.0708 -0.2251  0.5340
  108SAPE   C3911182   5.843   6.491   3.553  0.1622 -0.4037  0.6347
  108SAPE   H9X11183   5.950   6.488   3.582  0.6870  0.5607 -1.0790
  108SAPE   H9Y11184   5.825   6.385   3.526  1.4045 -0.3299 -0.6481
  108SAPE  C31011185   5.762   6.533   3.672 -0.6002 -0.3916  0.4432
  108SAPE  H10X11186   5.654   6.550   3.652 -0.6998 -1.9194 -0.4536
  108SAPE  H10Y11187   5.805   6.631   3.704  0.8981 -1.4609  1.8518
  108SAPE  C31111188   5.776   6.418   3.775  0.5076 -0.3474 -0.7124
  108SAPE  H11X11189   5.872   6.428   3.830  0.1204  1.2320 -0.2755
  108SAPE  H11Y11190   5.760   6.315   3.735  0.3228 -0.7789  0.4200
  108SAPE  C31211191   5.668   6.444   3.884 -1.0533 -0.2144 -0.4013
  108SAPE  H12X11192   5.570   6.444   3.833 -1.2548  0.4847 -0.0211
  108SAPE  H12Y11193   5.690   6.542   3.931 -0.8269 -1.0379  1.3043
  108SAPE  C31311194   5.673   6.339   4.005 -0.5750  0.4823  0.0854
  108SAPE  H13X11195   5.668   6.241   3.953  2.6287  1.7137 -2.9051
  108SAPE  H13Y11196   5.581   6.353   4.066 -0.5601  1.5512 -0.1164
  108SAPE  C31411197   5.798   6.342   4.090  0.3012 -0.3020 -0.0283
  108SAPE  H14X11198   5.819   6.449   4.106  0.5402 -0.3054 -0.3041
  108SAPE  H14Y11199   5.883   6.308   4.026  1.3831 -0.9332  1.6885
  108SAPE  C31511200   5.806   6.260   4.218  0.6913 -0.4389 -0.3561
  108SAPE  H15X11201   5.764   6.159   4.199  0.2130 -0.2051 -0.5280
  108SAPE  H15Y11202   5.740   6.307   4.293 -0.2098 -0.8662 -0.8724
  108SAPE  C31611203   5.947   6.250   4.277  0.0890  0.1600  0.2350
  108SAPE  H16X11204   5.997   6.348   4.292  0.9421 -0.1797 -0.3191
  108SAPE  H16Y11205   6.011   6.187   4.213  0.8538  0.4641  0.6844
  108SAPE  C31711206   5.939   6.200   4.424  0.5953  0.1527  0.3162
  108SAPE  H17X11207   5.893   6.099   4.422  0.6441  0.1350 -1.4711
  108SAPE  H17Y11208   5.881   6.268   4.489 -1.8098 -1.5890  0.1451
  108SAPE  C31811209   6.071   6.165   4.474 -1.0640 -0.4366 -0.1148
  108SAPE  H18X11210   6.135   6.255   4.473 -1.1119 -0.3921 -1.3173
  108SAPE  H18Y11211   6.122   6.085   4.416  0.6717  0.8337 -0.4233
  108SAPE  H18Z11212   6.068   6.122   4.576  0.0414  2.8734  1.4311
  109SAPE     N11213   3.368   6.462   2.007 -0.2145 -0.4549  0.0971
  109SAPE   HN111214   3.328   6.368   1.990 -0.0338 -0.6394  0.6694
  109SAPE   HN211215   3.340   6.511   2.095  0.8103  1.4151 -0.5690
  109SAPE   HN311216   3.326   6.515   1.928 -1.0941  1.6565  1.8809
  109SAPE   C1211217   3.514   6.461   2.001 -0.2404 -0.2186 -0.1441
  109SAPE  H12A11218   3.547   6.446   1.896 -0.0416 -0.4184 -0.0552
  109SAPE  H12B11219   3.552   6.371   2.054 -1.2658 -0.0084  0.9994
  109SAPE   C1111220   3.577   6.583   2.050 -0.4853 -0.2991  0.0532
  109SAPE  H11A11221   3.558   6.673   1.987 -0.6834  0.2405  0.8623
  109SAPE  H11B11222   3.687   6.575   2.054 -0.3985  0.9663  0.9501
  109SAPE     P11223   3.612   6.563   2.315 -0.3910 -0.0218 -0.1557
  109SAPE   O1311224   3.528   6.573   2.434  0.1021 -0.5809  0.0466
  109SAPE   O1411225   3.674   6.430   2.299 -0.1483  0.6443  0.2483
  109SAPE   O1211226   3.530   6.617   2.183  0.1763 -1.2663 -0.4932
  109SAPE   O1111227   3.721   6.680   2.343 -0.9406 -0.0335  0.0125
  109SAPE    C111228   3.685   6.819   2.365 -0.6072  0.6827 -0.2857
  109SAPE    HA11229   3.711   6.873   2.272  0.1250 -1.0755 -1.1534
  109SAPE    HB11230   3.574   6.824   2.371 -0.7093 -0.8069 -0.3215
  109SAPE    C211231   3.749   6.890   2.490  0.1825  0.3658  0.5015
  109SAPE    HS11232   3.857   6.861   2.485  0.5359  1.7986 -1.5393
  109SAPE   O2111233   3.677   6.855   2.611  0.8658  0.0623  0.2675
  109SAPE   C2111234   3.711   6.738   2.662 -0.7172  0.5769  0.2328
  109SAPE   O2211235   3.806   6.670   2.628 -0.0015 -0.2283 -0.1620
  109SAPE   C2211236   3.622   6.685   2.775  0.2648 -0.4194  0.4950
  109SAPE   H2R11237   3.525   6.738   2.766  0.9536  0.7902  0.0817
  109SAPE   H2S11238   3.606   6.575   2.779 -0.8254 -0.2458  3.6320
  109SAPE    C311239   3.748   7.050   2.473 -0.3485 -0.3554  0.0624
  109SAPE    HX11240   3.643   7.076   2.451 -0.2756  0.3070  0.4775
  109SAPE    HY11241   3.795   7.086   2.379 -1.2002  0.6514  0.0120
  109SAPE   O3111242   3.794   7.112   2.589 -0.1352  0.7440 -0.2124
  109SAPE   C3111243   3.924   7.111   2.602 -0.2652  0.2824 -0.4036
  109SAPE   O3211244   4.009   7.081   2.521  0.4786  0.4892 -0.2220
  109SAPE   C3211245   3.958   7.162   2.742 -0.0503 -0.6444  0.2877
  109SAPE   H2X11246   3.917   7.264   2.752  1.2670 -0.0287 -0.3493
  109SAPE   H2Y11247   4.067   7.166   2.759 -0.2881  0.9345  1.6328
  109SAPE   C2311248   3.691   6.738   2.907 -0.0432  0.0504 -0.3522
  109SAPE   H3R11249   3.753   6.826   2.883 -2.4146  1.3837 -2.0270
  109SAPE   H3S11250   3.748   6.659   2.960 -0.0936  0.4942  0.3819
  109SAPE   C2411251   3.584   6.786   3.012  0.7283 -0.5470 -0.3152
  109SAPE   H4R11252   3.619   6.758   3.113 -2.0066 -0.7514  0.6458
  109SAPE   H4S11253   3.502   6.716   2.985 -1.6407  2.8043 -2.7720
  109SAPE   C2511254   3.541   6.934   3.005  0.3697  0.4556  0.4470
  109SAPE   H5R11255   3.472   6.955   2.922 -0.5419 -0.3666  0.9755
  109SAPE   C2611256   3.569   7.036   3.086  0.5697  0.5521 -0.3184
  109SAPE   H6R11257   3.514   7.131   3.074  0.0562  0.0590 -2.1692
  109SAPE   C2711258   3.653   7.025   3.216  0.3462 -0.5814  0.2253
  109SAPE   H7R11259   3.751   7.076   3.203 -1.2604  2.2966 -1.6635
  109SAPE   H7S11260   3.672   6.920   3.247 -0.7919 -0.1147  2.6689
  109SAPE   C2811261   3.572   7.071   3.332 -0.4099 -0.3614 -0.1427
  109SAPE   H8R11262   3.462   7.075   3.325 -0.4656 -1.4207 -0.0543
  109SAPE   C2911263   3.616   7.100   3.452 -0.2905  0.5734 -0.6578
  109SAPE   H9R11264   3.550   7.120   3.537 -2.3964 -1.4076 -1.7153
  109SAPE  C21011265   3.761   7.087   3.499 -0.0440 -0.2422 -0.4288
  109SAPE  H10R11266   3.840   7.074   3.422  1.6091 -0.6208  1.2743
  109SAPE  H10S11267   3.763   6.997   3.564 -0.7900  0.5580  0.7369
  109SAPE  C21111268   3.814   7.203   3.584  0.6146  0.1467 -0.1807
  109SAPE  H11R11269   3.878   7.272   3.527 -1.1654  0.0723 -2.4033
  109SAPE  C21211270   3.802   7.213   3.719  0.0915  0.0028  0.0537
  109SAPE  H12R11271   3.849   7.300   3.767 -1.9714  1.4352 -0.3934
  109SAPE  C21311272   3.720   7.123   3.812 -0.4831  0.0754  0.2433
  109SAPE  H13R11273   3.795   7.069   3.874 -1.1118 -0.0793  0.8759
  109SAPE  H13S11274   3.666   7.041   3.761  1.0036  0.3129 -1.8791
  109SAPE  C21411275   3.624   7.191   3.910 -0.3774  0.0944 -0.4164
  109SAPE  H14R11276   3.578   7.284   3.873  0.7607  0.3976 -1.0933
  109SAPE  C21511277   3.617   7.160   4.038 -0.0372 -0.3367  0.3205
  109SAPE  H15R11278   3.540   7.213   4.097  1.4719  1.7037  0.5749
  109SAPE  C21611279   3.681   7.045   4.113  0.3776 -0.0813  0.2284
  109SAPE  H16R11280   3.749   6.979   4.054 -2.5360 -1.6243 -1.6124
  109SAPE  H16S11281   3.600   6.984   4.157  0.9716  1.4281  3.6734
  109SAPE  C21711282   3.773   7.087   4.235 -1.1224  0.3529 -0.0634
  109SAPE  H17R11283   3.783   6.994   4.295 -2.0038  0.0293 -0.3902
  109SAPE  H17S11284   3.712   7.160   4.292  0.2955  1.5936 -0.0632
  109SAPE  C21811285   3.902   7.154   4.198 -0.7549 -0.2867  0.3855
  109SAPE  H18R11286   3.898   7.197   4.095  2.4084 -0.6591  0.0140
  109SAPE  H18S11287   3.989   7.085   4.198  1.7338  2.6212  2.1318
  109SAPE  C21911288   3.942   7.275   4.282 -0.1296  0.4222 -0.0607
  109SAPE  H19R11289   3.865   7.354   4.289 -0.6528 -0.0486 -0.3913
  109SAPE  H19S11290   4.026   7.329   4.233 -1.8289  1.6191 -1.7942
  109SAPE  C22011291   3.979   7.238   4.426  0.3239 -0.1632 -0.3790
  109SAPE  H20R11292   3.992   7.336   4.478  1.1558 -0.7412  0.5378
  109SAPE  H20S11293   4.077   7.186   4.433  1.2573  1.7019  1.7457
  109SAPE  H20T11294   3.894   7.186   4.473  2.8510 -3.5861  0.8228
  109SAPE   C3311295   3.912   7.066   2.854  0.4690 -0.1226 -0.5502
  109SAPE   H3X11296   3.939   6.962   2.825 -0.3353  0.0140 -1.9224
  109SAPE   H3Y11297   3.803   7.078   2.872  0.7947  0.7690  0.9173
  109SAPE   C3411298   3.981   7.091   2.990  0.3297  0.2106 -0.1209
  109SAPE   H4X11299   4.092   7.081   2.982  0.0251 -3.4605 -2.0614
  109SAPE   H4Y11300   3.951   7.019   3.069 -0.0856  1.8063  1.2210
  109SAPE   C3511301   3.953   7.228   3.050  0.3128 -0.3657 -0.1123
  109SAPE   H5X11302   3.847   7.238   3.081  0.7169 -1.2990  1.6525
  109SAPE   H5Y11303   3.977   7.298   2.967 -0.2832 -0.5836 -0.4789
  109SAPE   C3611304   4.047   7.262   3.161 -0.7294 -0.1304  1.4103
  109SAPE   H6X11305   4.144   7.255   3.107 -2.1672 -1.5826 -1.1681
  109SAPE   H6Y11306   4.062   7.184   3.239 -0.5363  0.0398  1.5443
  109SAPE   C3711307   4.033   7.396   3.241  0.0677  0.6069  0.1589
  109SAPE   H7X11308   3.931   7.390   3.286  1.3689 -0.3056  3.2547
  109SAPE   H7Y11309   4.040   7.480   3.168 -1.7380 -0.3074 -1.1553
  109SAPE   C3811310   4.125   7.414   3.364  0.3245 -0.3249 -0.2565
  109SAPE   H8X11311   4.227   7.437   3.325  0.6009 -3.1304 -1.4073
  109SAPE   H8Y11312   4.141   7.313   3.407 -0.0567 -1.0475 -1.7401
  109SAPE   C3911313   4.079   7.525   3.464 -0.0643 -1.1103  0.0208
  109SAPE   H9X11314   3.973   7.511   3.495  0.2478 -0.1201  1.6486
  109SAPE   H9Y11315   4.064   7.621   3.409 -0.6567  0.0420  2.0577
  109SAPE  C31011316   4.186   7.563   3.568  0.7205  0.1471 -0.1286
  109SAPE  H10X11317   4.154   7.659   3.616 -1.6109 -1.9534  2.9263
  109SAPE  H10Y11318   4.289   7.561   3.528  0.7364 -0.3573 -0.0678
  109SAPE  C31111319   4.192   7.458   3.683  0.2954 -0.7949 -0.3481
  109SAPE  H11X11320   4.241   7.370   3.637 -1.0576 -0.3713 -2.8130
  109SAPE  H11Y11321   4.087   7.430   3.708  0.8355 -0.5760  2.4005
  109SAPE  C31211322   4.261   7.508   3.815  0.0626 -0.0643  0.1657
  109SAPE  H12X11323   4.371   7.520   3.822 -0.2186  2.0962  2.2267
  109SAPE  H12Y11324   4.238   7.435   3.896  2.5396  0.2969  1.2981
  109SAPE  C31311325   4.202   7.631   3.878  0.8166  0.3130 -0.2886
  109SAPE  H13X11326   4.095   7.616   3.902  0.6252  0.9844 -0.6863
  109SAPE  H13Y11327   4.203   7.718   3.809 -1.2766  1.6618  1.2732
  109SAPE  C31411328   4.273   7.682   4.007 -0.0913  0.0642  0.4765
  109SAPE  H14X11329   4.251   7.791   4.014  0.5343  0.3359 -1.3654
  109SAPE  H14Y11330   4.383   7.674   3.992 -0.3981 -1.3609 -1.3259
  109SAPE  C31511331   4.239   7.597   4.127 -0.5209 -0.0244  0.4858
  109SAPE  H15X11332   4.270   7.494   4.100 -1.0292 -0.1397  0.3376
  109SAPE  H15Y11333   4.128   7.591   4.134 -0.7698  2.8212  0.0173
  109SAPE  C31611334   4.312   7.648   4.254  0.4441  0.0326 -0.4873
  109SAPE  H16X11335   4.307   7.756   4.278  0.6556 -0.1617  0.4740
  109SAPE  H16Y11336   4.420   7.623   4.244  1.0388  2.5215 -0.9171
  109SAPE  C31711337   4.258   7.574   4.388  0.5122  0.4465  0.1238
  109SAPE  H17X11338   4.148   7.586   4.394  0.4310 -0.4675  0.8618
  109SAPE  H17Y11339   4.306   7.605   4.484 -1.9690 -3.2804  2.8786
  109SAPE  C31811340   4.291   7.424   4.390 -0.1139  0.5644 -0.6162
  109SAPE  H18X11341   4.273   7.388   4.493  0.8182  4.5409  1.0892
  109SAPE  H18Y11342   4.398   7.423   4.359  0.0607  0.5628 -0.0255
  109SAPE  H18Z11343   4.219   7.368   4.326 -1.6765  0.9699  0.7202
  110SAPE     N11344   2.820   3.461   2.402 -0.3103 -0.1704  0.1687
  110SAPE   HN111345   2.736   3.402   2.387 -1.0369  0.5290  1.2975
  110SAPE   HN211346   2.805   3.541   2.467 -0.9236 -0.2817  0.1688
  110SAPE   HN311347   2.842   3.500   2.308 -1.6195 -4.1328 -2.0059
  110SAPE   C1211348   2.942   3.376   2.445 -0.1268 -0.6999 -0.1068
  110SAPE  H12A11349   2.920   3.345   2.549  0.4031  1.9822  0.8853
  110SAPE  H12B11350   3.024   3.451   2.452  0.4235 -1.1410 -1.5848
  110SAPE   C1111351   2.976   3.260   2.344 -0.5387  0.2387 -0.7030
  110SAPE  H11A11352   3.060   3.204   2.391 -0.6922 -0.6641 -1.4584
  110SAPE  H11B11353   3.010   3.303   2.247  2.2864 -0.1984  0.0031
  110SAPE     P11354   2.809   3.061   2.416 -0.3028  0.0152 -0.0614
  110SAPE   O1311355   2.681   3.098   2.476  0.4496  0.3779  0.0194
  110SAPE   O1411356   2.804   2.936   2.333 -0.0870  0.0633 -0.3686
  110SAPE   O1211357   2.861   3.180   2.331  0.0207  0.1768 -0.2400
  110SAPE   O1111358   2.926   3.046   2.518 -0.1731 -0.1384  0.3905
  110SAPE    C111359   2.929   2.940   2.616  0.1529  0.0955 -0.3266
  110SAPE    HA11360   2.896   2.838   2.587 -2.4495 -0.0462  2.5784
  110SAPE    HB11361   3.033   2.933   2.656  0.0620  0.0164 -0.1053
  110SAPE    C211362   2.839   2.967   2.743  1.1430 -0.2266  0.6194
  110SAPE    HS11363   2.748   3.012   2.697  1.2283 -0.1239  0.5504
  110SAPE   O2111364   2.903   3.059   2.828 -0.1602 -1.0124 -0.6730
  110SAPE   C2111365   2.831   3.122   2.913  0.4906 -0.2842 -0.0551
  110SAPE   O2211366   2.708   3.125   2.921  0.0980  0.1328 -0.2879
  110SAPE   C2211367   2.918   3.197   3.012  0.6989 -1.0063  0.5661
  110SAPE   H2R11368   2.984   3.265   2.953 -2.7701  0.5339 -1.8923
  110SAPE   H2S11369   2.848   3.258   3.072  1.0127 -0.8827  0.8107
  110SAPE    C311370   2.816   2.842   2.831 -0.7089 -0.6575  0.1843
  110SAPE    HX11371   2.748   2.869   2.914  1.3905  1.6881  1.2615
  110SAPE    HY11372   2.762   2.767   2.770  0.8371 -0.7180 -1.1968
  110SAPE   O3111373   2.942   2.798   2.887 -0.4020 -0.0380  0.5587
  110SAPE   C3111374   2.992   2.692   2.839 -0.7853  0.0735 -0.3433
  110SAPE   O3211375   2.954   2.630   2.742  0.1144 -0.2420 -0.9020
  110SAPE   C3211376   3.114   2.654   2.918 -0.4895  0.5304 -0.1097
  110SAPE   H2X11377   3.099   2.673   3.027 -1.7115 -2.2566  0.3109
  110SAPE   H2Y11378   3.202   2.713   2.886  0.4400  0.0231  1.3788
  110SAPE   C2311379   2.995   3.112   3.119  0.1388 -0.7363  0.9264
  110SAPE   H3R11380   3.052   3.185   3.182 -0.3370  0.7852 -0.3306
  110SAPE   H3S11381   3.075   3.056   3.066 -0.8557 -1.7213  0.4276
  110SAPE   C2411382   2.910   3.020   3.199  0.4416  0.2673 -0.3138
  110SAPE   H4R11383   2.973   2.947   3.254 -0.4868  1.0323  1.9372
  110SAPE   H4S11384   2.845   2.966   3.127  0.2664 -1.4803  1.0681
  110SAPE   C2511385   2.825   3.075   3.304  0.0236 -0.3565 -0.3769
  110SAPE   H5R11386   2.717   3.082   3.285 -0.3071  2.3526  1.8145
  110SAPE   C2611387   2.868   3.109   3.430 -0.9907  0.6090 -0.1455
  110SAPE   H6R11388   2.789   3.140   3.500 -2.6297  1.0224 -2.0906
  110SAPE   C2711389   3.017   3.104   3.479  0.0528 -0.1186  0.1974
  110SAPE   H7R11390   3.048   3.209   3.494 -1.4352  0.1557  1.6105
  110SAPE   H7S11391   3.077   3.056   3.399 -1.1597  0.0360 -0.8245
  110SAPE   C2811392   3.017   3.011   3.603 -0.0255  0.5783 -0.4992
  110SAPE   H8R11393   2.942   2.931   3.603  0.3079  0.2256  0.7475
  110SAPE   C2911394   3.108   3.013   3.702  0.2427 -1.4977 -0.0939
  110SAPE   H9R11395   3.089   2.948   3.788  1.1213 -3.1115 -1.0602
  110SAPE  C21011396   3.228   3.104   3.715 -0.4438 -0.6836  0.4223
  110SAPE  H10R11397   3.210   3.182   3.792  1.3260 -1.0174  1.2125
  110SAPE  H10S11398   3.243   3.156   3.618  2.4472 -1.2685  0.4883
  110SAPE  C21111399   3.350   3.022   3.752  0.0011 -0.1907 -0.4266
  110SAPE  H11R11400   3.395   2.986   3.658 -1.6726  0.9826 -1.7667
  110SAPE  C21211401   3.389   2.976   3.874  0.3371  0.3595  0.7284
  110SAPE  H12R11402   3.487   2.926   3.878  0.2643 -0.1096 -1.7703
  110SAPE  C21311403   3.321   3.022   4.000 -0.4515 -0.0132 -0.7044
  110SAPE  H13R11404   3.228   2.962   4.011  0.2838 -1.2030 -0.8028
  110SAPE  H13S11405   3.291   3.128   3.989 -0.6742  0.6481  4.2344
  110SAPE  C21411406   3.407   3.011   4.123  0.0002 -0.3068 -0.2733
  110SAPE  H14R11407   3.486   2.935   4.115  0.8662  0.3280  1.6856
  110SAPE  C21511408   3.386   3.083   4.235  0.1708 -0.0338  0.1930
  110SAPE  H15R11409   3.455   3.064   4.318 -1.8450 -2.9880  1.3737
  110SAPE  C21611410   3.286   3.193   4.252  0.3057  0.0193 -0.6440
  110SAPE  H16R11411   3.199   3.191   4.184 -1.2124  1.5892  1.1549
  110SAPE  H16S11412   3.330   3.295   4.243 -0.1535  0.2730 -0.0348
  110SAPE  C21711413   3.214   3.196   4.388  0.4942  0.2740 -0.1329
  110SAPE  H17R11414   3.129   3.124   4.390 -0.3667  1.0970 -2.9101
  110SAPE  H17S11415   3.169   3.298   4.380  0.7200  0.4499  0.7592
  110SAPE  C21811416   3.288   3.198   4.517  0.0920  0.4442  0.3759
  110SAPE  H18R11417   3.344   3.293   4.523  0.7985  0.0917 -0.4772
  110SAPE  H18S11418   3.352   3.109   4.533  0.3610  0.6925  0.6809
  110SAPE  C21911419   3.190   3.199   4.638  0.4174 -0.7467 -1.0031
  110SAPE  H19R11420   3.251   3.203   4.731 -1.4509  0.2270  0.2377
  110SAPE  H19S11421   3.141   3.100   4.633  1.0002 -1.0645 -0.5309
  110SAPE  C22011422   3.082   3.310   4.640  0.2962 -0.3372  0.1464
  110SAPE  H20R11423   3.002   3.291   4.565 -1.4338  2.6408  1.0816
  110SAPE  H20S11424   3.124   3.411   4.624  0.3495 -0.4829 -0.6697
  110SAPE  H20T11425   3.032   3.313   4.739  1.3531  0.5230  0.6785
  110SAPE   C3311426   3.141   2.505   2.906 -1.0140  0.5715 -0.0798
  110SAPE   H3X11427   3.242   2.485   2.948 -0.5767 -0.8607 -1.7174
  110SAPE   H3Y11428   3.152   2.482   2.798  1.6153 -0.6525  0.3869
  110SAPE   C3411429   3.037   2.411   2.976 -0.0059 -0.2375 -0.3241
  110SAPE   H4X11430   2.943   2.443   2.927  0.0665  3.1285  1.4459
  110SAPE   H4Y11431   3.041   2.431   3.086 -1.0033  0.5869 -0.4287
  110SAPE   C3511432   3.080   2.260   2.961  0.3610 -0.4357 -0.4190
  110SAPE   H5X11433   3.175   2.226   3.007 -0.6304  1.0134  2.9914
  110SAPE   H5Y11434   3.092   2.239   2.852  0.1675  0.0580 -0.5419
  110SAPE   C3611435   2.962   2.163   3.006  0.0327 -0.3064  0.4753
  110SAPE   H6X11436   2.989   2.060   2.973  0.5161 -0.0908  0.1888
  110SAPE   H6Y11437   2.873   2.200   2.952  0.5623 -0.4927 -0.5422
  110SAPE   C3711438   2.925   2.176   3.153 -0.7979 -0.9201  0.0025
  110SAPE   H7X11439   2.853   2.099   3.186 -2.0121 -0.0476 -0.5545
  110SAPE   H7Y11440   2.894   2.283   3.152 -0.6682 -0.8635 -1.6407
  110SAPE   C3811441   3.042   2.170   3.257  0.9533  0.2772  0.4485
  110SAPE   H8X11442   3.127   2.237   3.233  0.5581  0.0797 -1.6533
  110SAPE   H8Y11443   3.074   2.064   3.267  0.0188  0.0897  1.9253
  110SAPE   C3911444   2.986   2.212   3.395  0.2456  0.2249 -0.5945
  110SAPE   H9X11445   2.891   2.267   3.378  0.8452  1.9212  1.2221
  110SAPE   H9Y11446   3.060   2.281   3.439  0.7244 -0.7981  0.2592
  110SAPE  C31011447   2.970   2.094   3.489  0.1580 -0.5363  0.4985
  110SAPE  H10X11448   3.067   2.048   3.517  0.0736 -0.7009  0.5178
  110SAPE  H10Y11449   2.909   2.019   3.435 -3.8674  3.4905 -1.2864
  110SAPE  C31111450   2.910   2.129   3.623  0.2486 -0.1251  0.0502
  110SAPE  H11X11451   2.804   2.155   3.601  0.9353  1.0750 -2.0583
  110SAPE  H11Y11452   2.958   2.217   3.671 -0.5123  0.2589  0.1373
  110SAPE  C31211453   2.915   1.999   3.716 -0.3428 -0.2428  0.0537
  110SAPE  H12X11454   3.016   1.952   3.719  0.3078  1.0540  2.8899
  110SAPE  H12Y11455   2.843   1.925   3.676 -1.3085 -2.3427  4.9542
  110SAPE  C31311456   2.887   2.036   3.862  0.3881 -0.0497  0.0012
  110SAPE  H13X11457   2.777   2.046   3.871  0.2401  0.8476 -2.0868
  110SAPE  H13Y11458   2.924   2.135   3.895 -0.6142  1.1243 -2.1640
  110SAPE  C31411459   2.927   1.926   3.958  0.0240  0.2063  0.4510
  110SAPE  H14X11460   2.967   1.843   3.896 -1.1567  0.1070 -0.2072
  110SAPE  H14Y11461   2.843   1.886   4.018 -1.1975 -1.3453 -2.1094
  110SAPE  C31511462   3.039   1.971   4.052 -0.3111 -0.1597  0.1405
  110SAPE  H15X11463   3.112   2.034   3.997 -1.1924 -0.5300 -1.5087
  110SAPE  H15Y11464   3.103   1.886   4.083 -1.6428 -1.4289 -0.4468
  110SAPE  C31611465   2.993   2.042   4.178 -0.1646 -0.2762  0.2560
  110SAPE  H16X11466   2.925   1.981   4.241 -0.9558 -0.0861 -0.3875
  110SAPE  H16Y11467   2.928   2.131   4.162  0.3842  0.2050  0.6864
  110SAPE  C31711468   3.120   2.094   4.256  0.4869 -0.3730  1.0601
  110SAPE  H17X11469   3.157   2.176   4.191 -2.4049  0.9006  0.8536
  110SAPE  H17Y11470   3.194   2.013   4.272 -0.0784 -1.2971 -0.7353
  110SAPE  C31811471   3.094   2.159   4.394  0.0329  0.3431  0.1030
  110SAPE  H18X11472   3.133   2.092   4.474 -1.3716 -1.3324 -0.5689
  110SAPE  H18Y11473   2.986   2.169   4.418 -0.7798 -1.6718 -2.3199
  110SAPE  H18Z11474   3.141   2.259   4.405 -1.2768  0.8992  0.9570
  111SAPE     N11475   5.402   3.671   2.324  0.3425  0.7779 -0.2402
  111SAPE   HN111476   5.475   3.705   2.389 -0.4215  1.4138  0.3054
  111SAPE   HN211477   5.304   3.682   2.357 -0.1269 -1.1827 -0.8282
  111SAPE   HN311478   5.413   3.568   2.308 -0.7374  0.4832  0.7637
  111SAPE   C1211479   5.414   3.736   2.190  0.1662  0.1370 -0.4947
  111SAPE  H12A11480   5.460   3.661   2.122  3.3431 -0.5361  2.1364
  111SAPE  H12B11481   5.486   3.818   2.211  0.5984 -0.3415 -0.0874
  111SAPE   C1111482   5.281   3.783   2.133 -0.1692 -0.7583 -0.4116
  111SAPE  H11A11483   5.290   3.832   2.033 -1.4770  0.7035  0.1310
  111SAPE  H11B11484   5.248   3.863   2.203  1.2206 -1.2922  0.8937
  111SAPE     P11485   5.041   3.676   2.089  0.4366  0.1311 -0.1833
  111SAPE   O1311486   5.017   3.757   1.965 -0.5252 -0.2141 -0.5838
  111SAPE   O1411487   4.985   3.536   2.081 -0.0742  0.3217 -0.1077
  111SAPE   O1211488   5.195   3.663   2.125  0.0225  0.1040  0.0003
  111SAPE   O1111489   4.982   3.753   2.219 -0.2438  0.0688  0.4120
  111SAPE    C111490   4.850   3.809   2.202 -0.5265 -0.0232 -0.6569
  111SAPE    HA11491   4.847   3.895   2.132  1.1922 -1.7922 -3.0370
  111SAPE    HB11492   4.774   3.737   2.164 -2.1635  1.5467 -0.4832
  111SAPE    C211493   4.796   3.864   2.342  0.0323  0.0639  0.2152
  111SAPE    HS11494   4.686   3.871   2.334 -0.1711 -0.6422  1.9462
  111SAPE   O2111495   4.855   3.995   2.370  0.0580 -0.1603  0.2487
  111SAPE   C2111496   4.781   4.094   2.305 -0.0279 -0.2104  0.3309
  111SAPE   O2211497   4.690   4.083   2.231 -0.3544 -0.0111 -0.5879
  111SAPE   C2211498   4.827   4.230   2.359  0.0555  0.2318  0.5244
  111SAPE   H2R11499   4.935   4.235   2.382 -0.4238 -0.0577  3.1959
  111SAPE   H2S11500   4.810   4.310   2.283  1.1907  0.8832  0.9276
  111SAPE    C311501   4.837   3.772   2.461  0.0654 -0.2550 -0.0746
  111SAPE    HX11502   4.948   3.769   2.466  0.0235  0.1519  1.6519
  111SAPE    HY11503   4.794   3.673   2.435 -0.6556 -0.4020  1.5147
  111SAPE   O3111504   4.769   3.808   2.585 -0.0377  0.5375 -0.2961
  111SAPE   C3111505   4.841   3.807   2.693  0.6101 -0.0342  0.8468
  111SAPE   O3211506   4.956   3.769   2.703  0.0897  0.3361  0.5501
  111SAPE   C3211507   4.762   3.865   2.801  0.6105 -0.1245 -0.1208
  111SAPE   H2X11508   4.656   3.833   2.795  0.0881  1.6190 -1.1026
  111SAPE   H2Y11509   4.766   3.976   2.787  0.5812  0.0294  1.0243
  111SAPE   C2311510   4.747   4.278   2.485  0.4017 -0.2585 -1.3157
  111SAPE   H3R11511   4.637   4.279   2.466  0.4312  0.3989 -1.4630
  111SAPE   H3S11512   4.769   4.385   2.501  0.5668  0.0123 -3.1751
  111SAPE   C2411513   4.767   4.193   2.609 -1.3512  0.2828 -0.4427
  111SAPE   H4R11514   4.727   4.093   2.583  0.2323  0.0646 -2.2404
  111SAPE   H4S11515   4.698   4.218   2.692  0.0908 -1.1725  1.2773
  111SAPE   C2511516   4.906   4.174   2.664 -0.7651  0.5208  0.0296
  111SAPE   H5R11517   4.974   4.142   2.584 -0.1612  1.6998  0.0474
  111SAPE   C2611518   4.944   4.184   2.790 -0.2804  0.1157 -0.4591
  111SAPE   H6R11519   5.050   4.167   2.812 -0.4368  0.6698  0.8094
  111SAPE   C2711520   4.854   4.224   2.904 -0.7499 -0.6925  0.0769
  111SAPE   H7R11521   4.768   4.156   2.892 -3.5803  2.5459  0.5074
  111SAPE   H7S11522   4.812   4.326   2.895 -0.7660 -0.5075  1.8711
  111SAPE   C2811523   4.925   4.206   3.039 -0.0190  0.4481 -0.4530
  111SAPE   H8R11524   4.962   4.104   3.052  0.8462  0.8407  0.2939
  111SAPE   C2911525   4.946   4.301   3.131 -0.0907  0.5445 -0.1341
  111SAPE   H9R11526   4.993   4.264   3.223 -0.4487 -3.2889 -1.3233
  111SAPE  C21011527   4.928   4.449   3.129 -0.0164  0.9950  0.6625
  111SAPE  H10R11528   4.868   4.478   3.217 -1.6605  1.0570 -0.4450
  111SAPE  H10S11529   4.876   4.487   3.039 -0.5539 -1.2501 -0.0494
  111SAPE  C21111530   5.066   4.519   3.142  0.4808 -0.0034 -0.2263
  111SAPE  H11R11531   5.097   4.554   3.042 -0.3299 -0.2586 -0.5847
  111SAPE  C21211532   5.137   4.556   3.253 -0.0486 -0.2352 -0.0695
  111SAPE  H12R11533   5.242   4.588   3.242 -0.2097  0.1194 -0.6165
  111SAPE  C21311534   5.091   4.544   3.401  0.1873  0.1010 -0.0930
  111SAPE  H13R11535   5.174   4.565   3.471 -2.5660  1.7224  3.0022
  111SAPE  H13S11536   5.076   4.434   3.409  0.0792  0.1579  0.5596
  111SAPE  C21411537   4.964   4.614   3.458  1.0744 -0.2405  0.1393
  111SAPE  H14R11538   4.897   4.638   3.374  2.2950  2.2295 -0.2341
  111SAPE  C21511539   4.930   4.644   3.586  0.0678 -0.4698 -0.5593
  111SAPE  H15R11540   4.839   4.702   3.608  0.8634  0.6880 -0.2337
  111SAPE  C21611541   5.014   4.629   3.709  0.0507 -0.2824 -0.0583
  111SAPE  H16R11542   5.053   4.729   3.739 -1.5587  0.5162 -0.5327
  111SAPE  H16S11543   5.095   4.553   3.697  0.0112 -0.9649  3.2588
  111SAPE  C21711544   4.919   4.581   3.819 -0.5236 -0.4975 -0.2734
  111SAPE  H17R11545   4.868   4.483   3.804 -2.0278  0.3248 -0.7479
  111SAPE  H17S11546   4.847   4.662   3.844 -1.0628 -1.2076  0.5083
  111SAPE  C21811547   4.999   4.547   3.949 -0.0010 -0.5456  0.3323
  111SAPE  H18R11548   5.059   4.455   3.940 -1.8405 -1.7933  0.2864
  111SAPE  H18S11549   4.930   4.526   4.034  0.4581 -1.7035  0.4360
  111SAPE  C21911550   5.095   4.665   3.992  0.4335  0.0513  0.0030
  111SAPE  H19R11551   5.163   4.675   3.905 -0.3310 -2.9126 -1.0731
  111SAPE  H19S11552   5.153   4.632   4.081 -2.3236 -0.2153  1.8423
  111SAPE  C22011553   5.026   4.797   4.037  0.1373  0.5541  0.3688
  111SAPE  H20R11554   5.093   4.875   4.080  1.9628 -0.0301 -1.2865
  111SAPE  H20S11555   4.946   4.773   4.110  0.9695 -2.9873  0.2630
  111SAPE  H20T11556   4.973   4.840   3.950  1.6085  1.2544 -0.2118
  111SAPE   C3311557   4.805   3.839   2.949 -0.3783 -1.2016  0.0810
  111SAPE   H3X11558   4.907   3.880   2.963 -0.4947 -1.2967  1.3272
  111SAPE   H3Y11559   4.815   3.731   2.971  0.6519 -1.3695 -1.1254
  111SAPE   C3411560   4.705   3.901   3.049  0.8589  0.1896 -0.3283
  111SAPE   H4X11561   4.609   3.855   3.018  1.9789 -0.3645 -3.3924
  111SAPE   H4Y11562   4.699   4.010   3.025  0.8173  0.0417 -1.0185
  111SAPE   C3511563   4.744   3.881   3.197  0.3423  0.2894  0.0655
  111SAPE   H5X11564   4.855   3.871   3.199  0.8308  3.5136 -2.0441
  111SAPE   H5Y11565   4.684   3.800   3.242 -0.2735  1.6739  1.9000
  111SAPE   C3611566   4.723   4.005   3.280 -0.3120  0.1590 -0.3065
  111SAPE   H6X11567   4.620   4.044   3.271  0.0102  1.4615  1.2820
  111SAPE   H6Y11568   4.790   4.086   3.244 -1.2160  0.4294 -1.4570
  111SAPE   C3711569   4.742   3.988   3.430  0.1208  0.0819 -0.3220
  111SAPE   H7X11570   4.849   3.962   3.446 -0.3880 -2.1526 -0.2495
  111SAPE   H7Y11571   4.672   3.908   3.464 -0.6513  0.8340 -0.1198
  111SAPE   C3811572   4.717   4.115   3.507  0.2298 -0.0257 -0.1787
  111SAPE   H8X11573   4.617   4.157   3.480  0.7477  1.1385 -0.3507
  111SAPE   H8Y11574   4.783   4.195   3.468 -0.5565 -0.5108 -2.6990
  111SAPE   C3911575   4.728   4.103   3.662 -0.0626  0.0516  0.4059
  111SAPE   H9X11576   4.668   4.015   3.695  1.2093 -1.1406 -0.3494
  111SAPE   H9Y11577   4.678   4.194   3.702  1.3769  1.1519 -0.2138
  111SAPE  C31011578   4.872   4.094   3.717 -0.0303  0.1698  0.7439
  111SAPE  H10X11579   4.937   4.179   3.686 -1.5941  0.0089 -3.5354
  111SAPE  H10Y11580   4.920   4.005   3.671 -1.3589  0.6129 -1.6237
  111SAPE  C31111581   4.883   4.082   3.878  0.2355  0.5791 -1.2446
  111SAPE  H11X11582   4.825   4.161   3.929 -0.7103 -0.6010 -0.4577
  111SAPE  H11Y11583   4.991   4.076   3.902  0.6280 -2.1663 -3.2027
  111SAPE  C31211584   4.830   3.949   3.928  0.2970  0.0946 -0.2873
  111SAPE  H12X11585   4.882   3.858   3.890  0.9074 -1.3245  3.5005
  111SAPE  H12Y11586   4.720   3.943   3.913  0.3485 -0.7132 -0.4244
  111SAPE  C31311587   4.835   3.935   4.081  0.0263  0.2065 -0.0061
  111SAPE  H13X11588   4.940   3.937   4.116  0.1456  0.3350 -0.3660
  111SAPE  H13Y11589   4.790   3.834   4.093  1.3495 -0.8787 -3.1916
  111SAPE  C31411590   4.744   4.038   4.162 -0.4440  0.3475  0.4389
  111SAPE  H14X11591   4.641   4.030   4.121  0.4025  0.0078 -1.7759
  111SAPE  H14Y11592   4.770   4.146   4.148 -1.6696  0.7980  1.5022
  111SAPE  C31511593   4.764   4.026   4.313  0.4779 -0.3678  0.1813
  111SAPE  H15X11594   4.757   4.131   4.349  0.8579 -0.1989 -0.2386
  111SAPE  H15Y11595   4.862   3.992   4.353  1.2600  1.2512 -0.2756
  111SAPE  C31611596   4.653   3.952   4.384  0.2692  0.0654 -0.3208
  111SAPE  H16X11597   4.670   3.844   4.363 -0.1138  0.3080 -1.9971
  111SAPE  H16Y11598   4.559   3.995   4.343  0.7635  0.6236 -0.8668
  111SAPE  C31711599   4.667   3.974   4.536 -0.0316 -0.3704  0.4777
  111SAPE  H17X11600   4.665   4.083   4.559  1.3397 -0.8380  3.0976
  111SAPE  H17Y11601   4.766   3.928   4.555  0.3098  0.5874  1.0746
  111SAPE  C31811602   4.567   3.897   4.616  0.0187 -0.0428  0.2924
  111SAPE  H18X11603   4.592   3.789   4.605  3.2318  0.6943 -0.7731
  111SAPE  H18Y11604   4.461   3.919   4.590 -0.7869 -1.4898  2.1482
  111SAPE  H18Z11605   4.579   3.925   4.723  2.4674  0.9355 -0.1736
  112SAPE     N11606   1.248   5.389   2.162  0.5572  0.0812 -0.2047
  112SAPE   HN111607   1.332   5.340   2.197 -1.0099 -3.2947 -0.6605
  112SAPE   HN211608   1.262   5.420   2.064  1.1300  0.3014 -0.0552
  112SAPE   HN311609   1.232   5.472   2.222 -0.9660  0.0228 -0.4804
  112SAPE   C1211610   1.125   5.304   2.146 -0.1849  0.9049 -0.4525
  112SAPE  H12A11611   1.075   5.296   2.245 -1.4213 -1.8066 -1.2211
  112SAPE  H12B11612   1.144   5.200   2.113 -3.1170  0.2121 -0.1829
  112SAPE   C1111613   1.026   5.381   2.057  0.3568 -0.2628 -0.1502
  112SAPE  H11A11614   0.936   5.316   2.048  1.4206 -1.6045 -1.8190
  112SAPE  H11B11615   1.072   5.378   1.956  0.8688  0.3719  0.0616
  112SAPE     P11616   0.864   5.576   2.100  0.3350 -0.1169 -0.2616
  112SAPE   O1311617   0.866   5.712   2.153  0.5868  0.1809  0.5873
  112SAPE   O1411618   0.805   5.553   1.968 -0.0273  0.7610  0.1122
  112SAPE   O1211619   1.012   5.522   2.088  0.4190 -0.1147  0.7859
  112SAPE   O1111620   0.798   5.470   2.198  0.1905 -0.1468  0.5767
  112SAPE    C111621   0.857   5.455   2.328 -0.4345 -0.1275  0.0244
  112SAPE    HA11622   0.900   5.353   2.327 -2.5123 -1.0648  0.6322
  112SAPE    HB11623   0.918   5.540   2.365 -1.9606  0.6771  0.7855
  112SAPE    C211624   0.735   5.432   2.431 -0.1697  0.7028  1.1892
  112SAPE    HS11625   0.663   5.516   2.414  0.1535  0.8110  0.3044
  112SAPE   O2111626   0.799   5.443   2.559  0.1394 -0.2074 -0.2729
  112SAPE   C2111627   0.712   5.447   2.656  0.3491  0.8067 -0.4083
  112SAPE   O2211628   0.591   5.440   2.642  0.2670 -0.0476 -0.1892
  112SAPE   C2211629   0.769   5.449   2.797  0.4057 -0.2243 -0.0911
  112SAPE   H2R11630   0.674   5.468   2.852 -1.4696  0.0339 -3.2022
  112SAPE   H2S11631   0.808   5.348   2.824  0.0693 -0.1229  0.8209
  112SAPE    C311632   0.677   5.289   2.390 -0.0749 -0.7137  0.2444
  112SAPE    HX11633   0.701   5.271   2.283  1.8159 -1.6129  0.7730
  112SAPE    HY11634   0.566   5.296   2.389 -0.0788 -0.5921  0.9017
  112SAPE   O3111635   0.715   5.183   2.478  0.5051 -0.3777 -0.2511
  112SAPE   C3111636   0.821   5.098   2.451  0.4277  0.1239  0.6231
  112SAPE   O3211637   0.884   5.105   2.343  0.3664 -0.6352  0.3656
  112SAPE   C3211638   0.834   4.992   2.561 -0.2391  1.2459  0.0187
  112SAPE   H2X11639   0.899   4.904   2.536 -1.6724  0.2808 -0.4385
  112SAPE   H2Y11640   0.732   4.950   2.571 -0.1704  0.5889 -1.6993
  112SAPE   C2311641   0.876   5.554   2.828  0.0095  0.5238 -0.1759
  112SAPE   H3R11642   0.828   5.654   2.824 -1.3319 -0.1273 -4.0730
  112SAPE   H3S11643   0.971   5.557   2.771  1.5793 -0.8559  2.1815
  112SAPE   C2411644   0.910   5.540   2.980 -0.3156  0.0957 -0.7703
  112SAPE   H4R11645   0.995   5.608   3.002 -0.8662  0.0949  1.6123
  112SAPE   H4S11646   0.956   5.440   2.999  1.1939  0.8923 -0.0999
  112SAPE   C2511647   0.800   5.580   3.086  0.2548 -0.4502 -0.3315
  112SAPE   H5R11648   0.704   5.606   3.040  0.6195 -0.6247 -1.2118
  112SAPE   C2611649   0.821   5.594   3.218 -0.3513  0.8777  0.5215
  112SAPE   H6R11650   0.744   5.641   3.282 -0.1511  1.1565  0.5544
  112SAPE   C2711651   0.953   5.554   3.290 -0.1424  0.1203  0.8813
  112SAPE   H7R11652   0.984   5.650   3.336 -1.1171  0.3633  1.0624
  112SAPE   H7S11653   1.030   5.516   3.219  0.4063  1.0557  0.9684
  112SAPE   C2811654   0.929   5.447   3.392  0.0188  0.0596 -0.8975
  112SAPE   H8R11655   0.886   5.355   3.349 -0.4368 -1.3836  2.3241
  112SAPE   C2911656   0.958   5.455   3.526 -0.3441 -0.3463 -0.1867
  112SAPE   H9R11657   0.948   5.363   3.586 -1.3062  0.6123  1.1825
  112SAPE  C21011658   1.025   5.565   3.605 -0.3064 -0.5906  0.0434
  112SAPE  H10R11659   0.976   5.580   3.704 -0.4844  0.9053 -0.2410
  112SAPE  H10S11660   0.993   5.661   3.560 -1.0064 -1.0312 -0.4173
  112SAPE  C21111661   1.171   5.567   3.611 -0.3104  0.2097  0.4314
  112SAPE  H11R11662   1.227   5.489   3.557  0.8342  1.6831 -0.6084
  112SAPE  C21211663   1.249   5.652   3.678 -0.0191 -0.7132  0.1104
  112SAPE  H12R11664   1.354   5.617   3.678 -0.5090 -2.3667  1.7467
  112SAPE  C21311665   1.218   5.781   3.754 -0.2254  0.5234 -0.0449
  112SAPE  H13R11666   1.113   5.813   3.767 -0.7751 -1.4630  0.7337
  112SAPE  H13S11667   1.268   5.863   3.697 -1.2185 -0.2579 -2.1201
  112SAPE  C21411668   1.271   5.773   3.892 -0.3496 -0.8978  0.3101
  112SAPE  H14R11669   1.260   5.675   3.941  1.3235 -0.9892  0.5786
  112SAPE  C21511670   1.335   5.873   3.967 -1.0281  0.5310  0.0253
  112SAPE  H15R11671   1.376   5.847   4.065  0.4218  2.3220 -0.0532
  112SAPE  C21611672   1.369   6.008   3.915  0.2074 -0.3572  0.2870
  112SAPE  H16R11673   1.361   6.012   3.805 -0.6325  2.4617  0.3722
  112SAPE  H16S11674   1.475   6.041   3.925  0.5685 -0.6202 -2.0973
  112SAPE  C21711675   1.273   6.105   3.977  0.2976  0.8267 -0.2416
  112SAPE  H17R11676   1.294   6.094   4.086  0.1321 -0.4377 -0.3150
  112SAPE  H17S11677   1.171   6.060   3.969  0.2977 -0.0766  3.1129
  112SAPE  C21811678   1.293   6.249   3.927  0.0309 -0.4642 -0.2436
  112SAPE  H18R11679   1.264   6.255   3.820 -1.8342 -0.2753  0.2342
  112SAPE  H18S11680   1.402   6.270   3.928  0.1580 -1.0871  0.9946
  112SAPE  C21911681   1.211   6.343   4.013 -0.3118 -0.4781  0.3399
  112SAPE  H19R11682   1.227   6.343   4.123 -1.2833  0.3078  0.4895
  112SAPE  H19S11683   1.108   6.304   3.999 -0.6416  0.3174  0.5284
  112SAPE  C22011684   1.222   6.488   3.963  0.3950 -0.0899 -0.2278
  112SAPE  H20R11685   1.146   6.543   4.022 -0.3966 -1.8911  0.4747
  112SAPE  H20S11686   1.199   6.489   3.854 -0.5319 -1.0582 -0.0548
  112SAPE  H20T11687   1.323   6.528   3.986  1.2602 -1.4354 -1.4759
  112SAPE   C3311688   0.890   5.054   2.693  0.1317 -0.0531 -0.0859
  112SAPE   H3X11689   0.866   4.977   2.768 -3.1562 -1.7142 -2.5847
  112SAPE   H3Y11690   0.837   5.150   2.714 -1.4877 -0.2380 -2.8675
  112SAPE   C3411691   1.038   5.092   2.679  0.4408  0.5718  0.7802
  112SAPE   H4X11692   1.052   5.165   2.596 -0.9058  0.0772  0.0843
  112SAPE   H4Y11693   1.100   5.000   2.667  1.6063  1.4290 -0.0608
  112SAPE   C3511694   1.097   5.158   2.804 -0.3352  0.0588 -0.3630
  112SAPE   H5X11695   1.052   5.258   2.822  1.1185  0.4347  1.5193
  112SAPE   H5Y11696   1.206   5.165   2.784  0.4063  0.1844  3.0778
  112SAPE   C3611697   1.070   5.073   2.931 -0.0076  0.0615  0.4674
  112SAPE   H6X11698   1.081   4.964   2.915  0.1214  0.2081 -0.5286
  112SAPE   H6Y11699   0.964   5.070   2.962 -0.2886 -1.1636 -0.5232
  112SAPE   C3711700   1.156   5.117   3.052  0.5371  0.0871 -0.2667
  112SAPE   H7X11701   1.155   5.228   3.050 -1.1381  0.0889 -0.2066
  112SAPE   H7Y11702   1.265   5.094   3.049  0.7841  0.7982  1.6884
  112SAPE   C3811703   1.105   5.057   3.182  0.1485 -0.2340 -0.7081
  112SAPE   H8X11704   1.096   4.946   3.183 -1.6644 -0.1229  1.3164
  112SAPE   H8Y11705   1.000   5.084   3.206 -0.0036 -0.6960 -0.8355
  112SAPE   C3911706   1.192   5.092   3.299  0.1998  0.6218 -0.4731
  112SAPE   H9X11707   1.192   5.201   3.320 -1.2912  0.6314 -0.4712
  112SAPE   H9Y11708   1.297   5.066   3.273  1.0091  1.8422  1.3254
  112SAPE  C31011709   1.146   5.018   3.428 -0.8653  0.0724  0.6865
  112SAPE  H10X11710   1.142   4.909   3.408  0.7905 -0.3303  2.3017
  112SAPE  H10Y11711   1.041   5.044   3.454 -1.4609  0.2441 -1.6207
  112SAPE  C31111712   1.242   5.026   3.554  0.5566  0.1400 -0.4839
  112SAPE  H11X11713   1.349   5.011   3.528  0.7827 -1.2592  1.0865
  112SAPE  H11Y11714   1.215   4.939   3.618  1.4208 -1.1406 -1.7933
  112SAPE  C31211715   1.225   5.145   3.645  0.4543 -0.3460 -1.0021
  112SAPE  H12X11716   1.150   5.218   3.607 -1.4253 -0.8135  1.5842
  112SAPE  H12Y11717   1.324   5.196   3.653  0.5233 -0.7528  1.1344
  112SAPE  C31311718   1.189   5.095   3.787 -0.2222 -0.2595  0.0941
  112SAPE  H13X11719   1.284   5.063   3.834  1.1433  0.2433 -2.1820
  112SAPE  H13Y11720   1.125   5.005   3.774 -1.3416  0.5338 -0.0595
  112SAPE  C31411721   1.129   5.187   3.885  0.0526  0.0737  0.5078
  112SAPE  H14X11722   1.068   5.135   3.962 -0.4867 -0.9249 -0.5642
  112SAPE  H14Y11723   1.053   5.246   3.828 -0.4127 -1.6799 -0.7785
  112SAPE  C31511724   1.218   5.293   3.959  0.2098  0.7362  0.4799
  112SAPE  H15X11725   1.284   5.339   3.882  1.1011 -1.5127 -0.1813
  112SAPE  H15Y11726   1.283   5.240   4.032  1.1629  3.7281  1.9747
  112SAPE  C31611727   1.126   5.400   4.026  0.0933  0.2645  0.2752
  112SAPE  H16X11728   1.044   5.342   4.073 -0.5723 -0.7378 -2.0239
  112SAPE  H16Y11729   1.082   5.459   3.943 -0.2294  0.5025  0.6097
  112SAPE  C31711730   1.195   5.479   4.140 -0.1200  0.2023  0.6440
  112SAPE  H17X11731   1.283   5.538   4.105 -0.8843  1.2118  0.3685
  112SAPE  H17Y11732   1.239   5.400   4.204 -0.9640 -0.4366  0.4526
  112SAPE  C31811733   1.108   5.571   4.216 -0.0879  0.2435 -0.3897
  112SAPE  H18X11734   1.170   5.625   4.291  0.8230  1.0195 -1.6460
  112SAPE  H18Y11735   1.029   5.507   4.259  0.8590 -1.1469 -0.6354
  112SAPE  H18Z11736   1.067   5.647   4.146 -0.8598 -1.9300 -2.4122
  113SAPE     N11737   6.335   4.156   2.310 -0.2763 -0.5226 -0.4446
  113SAPE   HN111738   6.431   4.197   2.311  0.5939 -2.4374  0.9321
  113SAPE   HN211739   6.263   4.231   2.305  1.0042  0.7283 -0.8966
  113SAPE   HN311740   6.322   4.110   2.402  3.5228 -0.2541  0.3932
  113SAPE   C1211741   6.324   4.063   2.187  0.1454 -0.2795  0.5204
  113SAPE  H12A11742   6.326   4.133   2.100  0.3165  2.9331  2.9084
  113SAPE  H12B11743   6.229   4.006   2.185  0.7637 -1.3281 -2.0215
  113SAPE   C1111744   6.442   3.962   2.193  0.3520 -0.4120 -0.2736
  113SAPE  H11A11745   6.435   3.920   2.296 -3.9223  1.1132  0.2637
  113SAPE  H11B11746   6.538   4.017   2.177  0.4710 -0.1552  1.1742
  113SAPE     P11747   6.427   3.710   2.129  0.2901 -0.4519 -0.1407
  113SAPE   O1311748   6.355   3.695   2.253  0.1257  0.1406 -0.6742
  113SAPE   O1411749   6.395   3.621   2.011 -0.1405 -0.5344 -0.4477
  113SAPE   O1211750   6.411   3.866   2.092 -0.5094 -0.4226  0.1099
  113SAPE   O1111751   6.581   3.711   2.163 -0.4164 -0.2819 -0.3917
  113SAPE    C111752   6.653   3.584   2.191 -0.2929  0.2426 -0.2735
  113SAPE    HA11753   6.624   3.497   2.129 -0.4214 -0.9692  1.4145
  113SAPE    HB11754   6.759   3.605   2.168 -0.6884  3.4953  0.3958
  113SAPE    C211755   6.650   3.526   2.339 -0.6265 -0.6532  0.0523
  113SAPE    HS11756   6.555   3.467   2.344 -0.3608 -1.0492  0.5700
  113SAPE   O2111757   6.639   3.636   2.433 -0.0831  0.0663  0.0032
  113SAPE   C2111758   6.738   3.715   2.444 -0.5784  0.5261  0.1372
  113SAPE   O2211759   6.851   3.706   2.397 -0.0094 -0.2991 -0.2603
  113SAPE   C2211760   6.686   3.829   2.531 -0.3375 -0.3334 -0.5562
  113SAPE   H2R11761   6.771   3.849   2.600  0.0425  0.2658 -1.1839
  113SAPE   H2S11762   6.683   3.917   2.464 -3.0855 -1.5633 -2.2102
  113SAPE    C311763   6.757   3.415   2.369  0.6344 -0.2271 -0.0228
  113SAPE    HX11764   6.858   3.458   2.350  0.8848 -1.3325 -1.3588
  113SAPE    HY11765   6.754   3.329   2.300  1.7360 -0.2179 -0.1087
  113SAPE   O3111766   6.754   3.368   2.502 -0.1970 -0.5679 -0.2551
  113SAPE   C3111767   6.654   3.287   2.533 -0.4840  0.5962  0.6014
  113SAPE   O3211768   6.557   3.259   2.463 -0.4145 -0.5249  0.6269
  113SAPE   C3211769   6.688   3.232   2.667  0.2109 -0.4316 -0.3161
  113SAPE   H2X11770   6.786   3.179   2.662  0.5019 -0.0121  0.8552
  113SAPE   H2Y11771   6.606   3.163   2.697 -0.0688 -0.0711 -0.2535
  113SAPE   C2311772   6.546   3.817   2.598 -0.1150  0.5542 -0.2001
  113SAPE   H3R11773   6.471   3.800   2.518 -0.2742  1.1914 -0.1889
  113SAPE   H3S11774   6.526   3.907   2.660 -1.8048 -1.0172  1.7252
  113SAPE   C2411775   6.560   3.703   2.706 -0.3039 -0.0766  0.5359
  113SAPE   H4R11776   6.630   3.739   2.784 -1.6704  0.8477  1.3839
  113SAPE   H4S11777   6.609   3.609   2.671  2.5464  0.6500  2.2751
  113SAPE   C2511778   6.426   3.664   2.766  0.9417  0.2417 -0.6954
  113SAPE   H5R11779   6.352   3.612   2.704 -1.0856  1.1787  0.8134
  113SAPE   C2611780   6.402   3.676   2.891  0.0744  0.2321  0.1431
  113SAPE   H6R11781   6.296   3.664   2.920  0.6202  2.6068  3.8985
  113SAPE   C2711782   6.481   3.742   3.002 -0.1410 -0.1515  0.5931
  113SAPE   H7R11783   6.573   3.680   3.010  0.6736  0.2530 -3.4140
  113SAPE   H7S11784   6.422   3.730   3.095 -0.9781  1.3384  0.2963
  113SAPE   C2811785   6.521   3.893   2.998  0.1986  0.0101  0.4625
  113SAPE   H8R11786   6.580   3.924   2.911 -2.3409 -0.2741 -1.4869
  113SAPE   C2911787   6.513   3.978   3.103 -0.0679  0.1783 -0.3584
  113SAPE   H9R11788   6.563   4.075   3.096  1.6752 -0.4887  1.7533
  113SAPE  C21011789   6.463   3.950   3.240 -0.5893 -0.1024  0.0660
  113SAPE  H10R11790   6.390   3.867   3.248 -0.8485  0.1235  0.0534
  113SAPE  H10S11791   6.397   4.036   3.261 -2.6628 -1.7002  0.3739
  113SAPE  C21111792   6.586   3.932   3.329 -0.2945  0.2685 -0.6049
  113SAPE  H11R11793   6.685   3.910   3.284  0.7903 -2.3564  2.6898
  113SAPE  C21211794   6.591   3.943   3.470  0.4259  0.8574  0.4516
  113SAPE  H12R11795   6.689   3.937   3.519  0.4848  2.4296  0.5596
  113SAPE  C21311796   6.477   3.971   3.560 -0.7195 -0.0179  0.4868
  113SAPE  H13R11797   6.387   4.003   3.503 -0.1766  0.5438 -0.0673
  113SAPE  H13S11798   6.522   4.051   3.623 -1.5455  2.3753 -1.7816
  113SAPE  C21411799   6.446   3.840   3.627 -0.0232  0.9576 -0.1449
  113SAPE  H14R11800   6.425   3.754   3.561 -0.3433  0.0466  1.0952
  113SAPE  C21511801   6.438   3.832   3.762  1.3449  0.3095 -0.3568
  113SAPE  H15R11802   6.413   3.729   3.791 -0.6785  0.9298  0.2081
  113SAPE  C21611803   6.475   3.926   3.865 -0.2217  0.7051  0.1599
  113SAPE  H16R11804   6.426   4.025   3.854  0.9290  1.3563  0.6572
  113SAPE  H16S11805   6.582   3.951   3.850  0.2991 -1.2368  0.4021
  113SAPE  C21711806   6.454   3.882   4.015  0.4868 -0.2915 -0.3196
  113SAPE  H17R11807   6.511   3.953   4.080 -0.8382  1.7630 -1.3033
  113SAPE  H17S11808   6.489   3.779   4.038  2.6272  0.5814  0.6136
  113SAPE  C21811809   6.308   3.890   4.059 -0.3201 -0.5567  0.8097
  113SAPE  H18R11810   6.252   3.818   3.996  1.3088  1.0732 -2.7491
  113SAPE  H18S11811   6.265   3.992   4.052  0.4006 -0.2523  0.7001
  113SAPE  C21911812   6.290   3.856   4.202 -0.0400 -0.0106 -0.3326
  113SAPE  H19R11813   6.335   3.937   4.262  1.3030 -1.6428  0.9652
  113SAPE  H19S11814   6.356   3.770   4.228  2.2130  1.8377  0.4014
  113SAPE  C22011815   6.150   3.816   4.246  0.0746  0.7241  0.6065
  113SAPE  H20R11816   6.076   3.887   4.203  0.9156  1.4392  0.3030
  113SAPE  H20S11817   6.138   3.815   4.356  0.7928 -0.4147  0.6927
  113SAPE  H20T11818   6.130   3.711   4.217 -0.8441  0.9910  0.2472
  113SAPE   C3311819   6.681   3.343   2.776  0.3031  0.5137  0.5113
  113SAPE   H3X11820   6.589   3.406   2.778  0.7676  1.3013 -1.1393
  113SAPE   H3Y11821   6.757   3.423   2.760  0.2267  0.4375 -0.3024
  113SAPE   C3411822   6.718   3.282   2.911 -0.0904  0.1445  0.0039
  113SAPE   H4X11823   6.823   3.248   2.905 -0.5769 -1.3047 -0.6748
  113SAPE   H4Y11824   6.657   3.198   2.950 -0.0130  0.0786 -0.0173
  113SAPE   C3511825   6.706   3.389   3.020 -0.1463 -0.3606 -1.2427
  113SAPE   H5X11826   6.614   3.448   3.000  0.2592 -0.3140 -3.1172
  113SAPE   H5Y11827   6.798   3.451   3.012  0.0549 -0.4409  0.1871
  113SAPE   C3611828   6.697   3.340   3.162  0.3673 -0.0802  0.1805
  113SAPE   H6X11829   6.752   3.245   3.182 -0.8694 -1.4608 -2.4694
  113SAPE   H6Y11830   6.596   3.299   3.180  1.1054 -1.9880  0.2375
  113SAPE   C3711831   6.720   3.448   3.265 -0.0002 -1.2475  0.9118
  113SAPE   H7X11832   6.641   3.525   3.253  0.8906 -0.3046  0.9494
  113SAPE   H7Y11833   6.819   3.498   3.259 -0.6698  0.1157  0.7253
  113SAPE   C3811834   6.709   3.399   3.412 -0.1999  0.1694  0.5457
  113SAPE   H8X11835   6.621   3.331   3.419 -0.6775  0.8689  1.5634
  113SAPE   H8Y11836   6.792   3.331   3.440 -0.5732  0.2443  1.9179
  113SAPE   C3911837   6.690   3.510   3.515  0.4019 -0.7906 -0.5629
  113SAPE   H9X11838   6.602   3.576   3.503 -0.7766 -1.8968  1.4146
  113SAPE   H9Y11839   6.779   3.576   3.520 -0.8494  0.8594  2.1395
  113SAPE  C31011840   6.691   3.443   3.648  0.4043 -0.1546 -0.0626
  113SAPE  H10X11841   6.774   3.370   3.649  0.8155  0.2718  2.2127
  113SAPE  H10Y11842   6.603   3.376   3.660  0.3997  0.0926  1.4777
  113SAPE  C31111843   6.704   3.529   3.776  0.2700 -0.2437  0.2624
  113SAPE  H11X11844   6.615   3.595   3.784 -0.5259 -1.2448 -0.0954
  113SAPE  H11Y11845   6.805   3.574   3.769  0.9779 -1.7464  0.3834
  113SAPE  C31211846   6.683   3.436   3.903  0.1735  0.0060 -0.2190
  113SAPE  H12X11847   6.714   3.332   3.880  0.5214  0.0940 -0.1607
  113SAPE  H12Y11848   6.578   3.435   3.937  0.7022 -1.1469  1.5601
  113SAPE  C31311849   6.762   3.484   4.027 -0.0116  0.5111 -0.2959
  113SAPE  H13X11850   6.868   3.493   3.997 -0.4929  0.8685 -2.0045
  113SAPE  H13Y11851   6.747   3.400   4.099  0.6214 -1.6394 -2.5643
  113SAPE  C31411852   6.707   3.614   4.094  0.2714  0.0704 -0.3051
  113SAPE  H14X11853   6.610   3.592   4.144  0.8725  1.1902  1.4261
  113SAPE  H14Y11854   6.696   3.688   4.012 -0.8410 -0.5790 -0.7673
  113SAPE  C31511855   6.796   3.671   4.204 -0.5261 -0.1215 -0.8940
  113SAPE  H15X11856   6.893   3.713   4.172 -0.3438  1.7688  1.8257
  113SAPE  H15Y11857   6.815   3.587   4.273  0.2419  0.3477 -0.5203
  113SAPE  C31611858   6.733   3.785   4.278  0.7736 -0.2194 -0.7615
  113SAPE  H16X11859   6.643   3.737   4.322  0.6728 -0.6191 -1.3901
  113SAPE  H16Y11860   6.694   3.865   4.211 -1.1835 -0.7625 -0.3141
  113SAPE  C31711861   6.808   3.832   4.400 -0.6097  0.3760 -0.3216
  113SAPE  H17X11862   6.866   3.747   4.441  0.4433  0.8314 -0.8325
  113SAPE  H17Y11863   6.742   3.870   4.482 -0.5365  0.6345 -0.3816
  113SAPE  C31811864   6.902   3.954   4.376 -0.3061 -0.2162  0.1194
  113SAPE  H18X11865   6.843   4.044   4.349  0.4999  0.7743  1.5392
  113SAPE  H18Y11866   6.973   3.951   4.291 -0.6890  0.5581 -0.2378
  113SAPE  H18Z11867   6.964   3.980   4.464 -1.6805 -0.2714  1.1446
  114SAPE     N11868   1.436   4.457   2.183  0.1793  0.0749 -0.1554
  114SAPE   HN111869   1.364   4.388   2.154 -2.1574  1.7809  1.2663
  114SAPE   HN211870   1.457   4.527   2.110 -0.9403 -0.4072 -0.9589
  114SAPE   HN311871   1.520   4.404   2.215 -0.3283 -1.6435 -1.5100
  114SAPE   C1211872   1.382   4.530   2.308 -0.3354 -0.0307 -0.3033
  114SAPE  H12A11873   1.369   4.462   2.395  0.3469 -2.4813 -2.0082
  114SAPE  H12B11874   1.285   4.570   2.274 -0.4588 -0.4338 -0.4377
  114SAPE   C1111875   1.483   4.645   2.341 -0.2500 -0.1120  0.0584
  114SAPE  H11A11876   1.581   4.595   2.358 -1.1861 -2.2655 -0.5068
  114SAPE  H11B11877   1.462   4.689   2.441  0.5586 -1.0085  0.6484
  114SAPE     P11878   1.469   4.891   2.248 -0.3064  0.0089  0.4883
  114SAPE   O1311879   1.587   4.964   2.204  0.1495 -0.3509 -0.1196
  114SAPE   O1411880   1.343   4.927   2.186 -0.3589  0.0407 -0.0716
  114SAPE   O1211881   1.511   4.739   2.239 -0.3316 -0.2798 -0.3516
  114SAPE   O1111882   1.446   4.917   2.403 -0.1112 -0.0334 -0.4073
  114SAPE    C111883   1.540   4.975   2.487  0.1967 -0.1211  0.5002
  114SAPE    HA11884   1.636   4.923   2.466 -0.4722 -0.8657 -0.8383
  114SAPE    HB11885   1.554   5.084   2.475  1.5172 -0.0660  2.1564
  114SAPE    C211886   1.489   4.974   2.636 -0.5339  0.1931 -0.0551
  114SAPE    HS11887   1.410   5.050   2.657  1.6023  2.8916 -1.2923
  114SAPE   O2111888   1.606   4.985   2.724 -0.5157  0.1233  0.3188
  114SAPE   C2111889   1.646   5.110   2.740 -0.1164 -0.4060  0.7258
  114SAPE   O2211890   1.598   5.209   2.688 -0.4417  0.1161  0.5326
  114SAPE   C2211891   1.756   5.114   2.845 -0.5238  0.5076 -0.6632
  114SAPE   H2R11892   1.809   5.017   2.833 -2.1942 -0.4077 -0.8251
  114SAPE   H2S11893   1.827   5.199   2.835 -1.0606  0.8841 -1.3325
  114SAPE    C311894   1.430   4.836   2.674  1.1701 -0.0136  0.3690
  114SAPE    HX11895   1.504   4.757   2.650 -0.2834 -0.6245 -2.5229
  114SAPE    HY11896   1.349   4.814   2.601  0.8121 -4.0484  1.7236
  114SAPE   O3111897   1.386   4.833   2.814  0.3988  0.3839  0.0514
  114SAPE   C3111898   1.426   4.727   2.890  0.1328  0.1092  0.2119
  114SAPE   O3211899   1.494   4.631   2.851  0.6049  0.2187 -0.0873
  114SAPE   C3211900   1.380   4.742   3.030  0.0294  0.5191  0.0298
  114SAPE   H2X11901   1.289   4.677   3.031  0.0069  0.5081 -1.2978
  114SAPE   H2Y11902   1.355   4.849   3.050  2.6534  0.9407  1.4079
  114SAPE   C2311903   1.696   5.121   2.992  0.0901 -0.2202  0.3934
  114SAPE   H3R11904   1.648   5.023   3.011  0.1857 -0.2385  0.5391
  114SAPE   H3S11905   1.623   5.203   3.005 -0.9469 -1.1588  0.5738
  114SAPE   C2411906   1.818   5.131   3.092  0.5139  0.9201 -0.4264
  114SAPE   H4R11907   1.876   5.225   3.081  2.0798 -0.1844 -2.0972
  114SAPE   H4S11908   1.886   5.056   3.046  0.1896  0.4196 -0.1060
  114SAPE   C2511909   1.796   5.100   3.236 -0.1697 -0.8233 -0.3718
  114SAPE   H5R11910   1.871   5.032   3.278 -0.8598 -3.3404 -2.8944
  114SAPE   C2611911   1.699   5.160   3.308 -0.9058  0.6717  0.6350
  114SAPE   H6R11912   1.694   5.130   3.414 -0.6331  0.2933  0.5426
  114SAPE   C2711913   1.585   5.250   3.264  0.5963  0.3902  0.4113
  114SAPE   H7R11914   1.504   5.186   3.222  1.8696 -1.5669  0.8207
  114SAPE   H7S11915   1.637   5.321   3.197  0.7533 -0.7034 -0.6568
  114SAPE   C2811916   1.524   5.343   3.372 -0.6965  0.2309 -0.5059
  114SAPE   H8R11917   1.569   5.334   3.472 -0.2771 -0.3392 -0.7377
  114SAPE   C2911918   1.441   5.451   3.356  0.0332 -0.3898  0.0251
  114SAPE   H9R11919   1.415   5.509   3.446 -2.6875 -0.3161 -0.7233
  114SAPE  C21011920   1.363   5.495   3.232  0.1695  0.6273 -0.0503
  114SAPE  H10R11921   1.258   5.523   3.256 -0.0320  1.7452 -2.0024
  114SAPE  H10S11922   1.361   5.417   3.153 -2.3746  2.0579 -1.5222
  114SAPE  C21111923   1.434   5.603   3.147  0.0192 -0.3366  0.4697
  114SAPE  H11R11924   1.474   5.571   3.050 -1.0333  2.0458 -0.8257
  114SAPE  C21211925   1.443   5.737   3.167 -0.0446  0.3210  0.4726
  114SAPE  H12R11926   1.514   5.784   3.098  1.5263 -0.0718  1.7471
  114SAPE  C21311927   1.384   5.818   3.287 -0.9946 -0.3042  0.1718
  114SAPE  H13R11928   1.461   5.830   3.366 -0.5542  1.0003 -0.4127
  114SAPE  H13S11929   1.301   5.768   3.342 -1.5085 -0.6781 -0.9210
  114SAPE  C21411930   1.339   5.948   3.227  0.0185  0.3861 -0.0297
  114SAPE  H14R11931   1.296   5.942   3.126 -4.4560  0.0726  1.6772
  114SAPE  C21511932   1.334   6.068   3.299 -0.9402 -0.9990 -0.2308
  114SAPE  H15R11933   1.295   6.157   3.247 -0.4641  0.4204  1.7311
  114SAPE  C21611934   1.383   6.088   3.444 -0.2579  0.4597  0.1700
  114SAPE  H16R11935   1.361   5.994   3.498 -2.2455  0.8870  0.1597
  114SAPE  H16S11936   1.321   6.165   3.495 -0.5868  0.3375 -0.0416
  114SAPE  C21711937   1.533   6.130   3.462  0.1809 -0.3849  0.0698
  114SAPE  H17R11938   1.555   6.227   3.412  1.6279 -0.8094 -0.1695
  114SAPE  H17S11939   1.601   6.060   3.409  1.7813  1.6213 -0.6621
  114SAPE  C21811940   1.572   6.135   3.609 -0.1407 -0.4317 -0.6130
  114SAPE  H18R11941   1.570   6.036   3.660  0.6361 -0.6831 -1.0543
  114SAPE  H18S11942   1.500   6.200   3.664  0.6661  0.1688 -0.2493
  114SAPE  C21911943   1.718   6.187   3.631 -0.6932 -0.0319  0.2857
  114SAPE  H19R11944   1.728   6.290   3.592  0.6619 -0.6438 -1.0755
  114SAPE  H19S11945   1.773   6.115   3.567  1.3818  1.6758  0.0310
  114SAPE  C22011946   1.752   6.187   3.783 -0.3349  0.0499  0.1752
  114SAPE  H20R11947   1.854   6.228   3.804 -0.8320  0.2622  2.4325
  114SAPE  H20S11948   1.756   6.085   3.824 -1.3192 -0.6131 -1.2898
  114SAPE  H20T11949   1.677   6.244   3.841 -1.7548 -0.1720 -1.3785
  114SAPE   C3311950   1.496   4.709   3.119  0.9831 -0.0818 -0.3788
  114SAPE   H3X11951   1.589   4.758   3.080  0.3914  1.8414  0.5407
  114SAPE   H3Y11952   1.521   4.601   3.132  2.8219  0.5000  1.4536
  114SAPE   C3411953   1.469   4.768   3.260 -0.5862  0.3724 -0.4582
  114SAPE   H4X11954   1.370   4.729   3.290 -0.3760  0.9230  1.0586
  114SAPE   H4Y11955   1.476   4.879   3.249 -0.4553  0.4590  0.3865
  114SAPE   C3511956   1.572   4.736   3.372 -0.0184  0.2847 -0.2680
  114SAPE   H5X11957   1.676   4.774   3.376  0.2786 -0.4709 -0.6079
  114SAPE   H5Y11958   1.565   4.625   3.375  1.6910  0.1186 -1.3347
  114SAPE   C3611959   1.517   4.788   3.507 -0.2709 -0.0841 -0.6162
  114SAPE   H6X11960   1.406   4.778   3.505 -0.6057  2.3059  1.1518
  114SAPE   H6Y11961   1.553   4.892   3.524  1.7518 -1.2086  3.0027
  114SAPE   C3711962   1.569   4.700   3.624  0.5702 -0.3799  0.2315
  114SAPE   H7X11963   1.677   4.713   3.643  0.8212 -0.7656 -0.8393
  114SAPE   H7Y11964   1.552   4.593   3.602  2.3354 -0.9335  1.3746
  114SAPE   C3811965   1.498   4.726   3.762 -0.0466 -0.1980  0.2995
  114SAPE   H8X11966   1.546   4.659   3.836  0.8820 -0.7415 -0.7590
  114SAPE   H8Y11967   1.389   4.714   3.747 -0.3953  2.0414  0.7632
  114SAPE   C3911968   1.538   4.868   3.799 -0.0772  0.2036  0.4450
  114SAPE   H9X11969   1.488   4.942   3.733  1.7916 -1.2863 -2.9054
  114SAPE   H9Y11970   1.648   4.872   3.786  0.2149 -2.2583  1.5023
  114SAPE  C31011971   1.498   4.881   3.941 -0.0373  0.3084 -0.2623
  114SAPE  H10X11972   1.521   4.790   4.000 -1.3611  1.5847  2.4098
  114SAPE  H10Y11973   1.387   4.885   3.951  0.0352  1.8502  0.2913
  114SAPE  C31111974   1.561   4.995   4.027 -0.7004  0.5613 -0.5856
  114SAPE  H11X11975   1.531   5.091   3.979 -1.4607  1.6617  1.9626
  114SAPE  H11Y11976   1.672   4.989   4.018 -0.5085  2.8859 -0.3392
  114SAPE  C31211977   1.511   5.004   4.170  0.6849 -0.0038  0.0666
  114SAPE  H12X11978   1.513   4.911   4.230  2.3045  1.1413  1.9052
  114SAPE  H12Y11979   1.402   5.025   4.157  0.6043  0.2677  1.0561
  114SAPE  C31311980   1.585   5.120   4.244 -0.1504 -0.2183  1.0251
  114SAPE  H13X11981   1.590   5.207   4.176  2.4149 -0.7149  0.4763
  114SAPE  H13Y11982   1.693   5.098   4.259  0.1783  0.9201  0.4001
  114SAPE  C31411983   1.521   5.163   4.380 -0.2060 -0.8100 -1.1787
  114SAPE  H14X11984   1.558   5.084   4.449  1.3531  0.4818 -0.4623
  114SAPE  H14Y11985   1.412   5.148   4.369 -1.1132  1.8774  2.4100
  114SAPE  C31511986   1.547   5.307   4.430  0.5547 -0.4308 -0.0461
  114SAPE  H15X11987   1.483   5.325   4.519  0.6704 -0.9149  0.1336
  114SAPE  H15Y11988   1.508   5.381   4.356 -0.6883 -0.7824  0.2278
  114SAPE  C31611989   1.689   5.340   4.476 -0.6754  0.3271  0.0339
  114SAPE  H16X11990   1.735   5.262   4.540 -5.0178 -2.2032  0.4771
  114SAPE  H16Y11991   1.684   5.420   4.553  0.0280  1.7220 -1.3195
  114SAPE  C31711992   1.774   5.385   4.361  0.1540 -0.0391  0.0210
  114SAPE  H17X11993   1.716   5.452   4.294  0.3222 -1.1965 -1.3304
  114SAPE  H17Y11994   1.794   5.288   4.309 -1.1756  0.9281 -2.4738
  114SAPE  C31811995   1.907   5.448   4.398 -0.4528  0.4922 -0.0117
  114SAPE  H18X11996   1.879   5.526   4.472 -1.5716  0.7159 -0.6348
  114SAPE  H18Y11997   1.950   5.502   4.311 -1.2426 -0.3316 -0.9486
  114SAPE  H18Z11998   1.984   5.380   4.440  0.3588  0.7165 -1.0819
  115SAPE     N11999   3.216   5.304   1.947 -0.2651 -0.2711  0.9687
  115SAPE   HN112000   3.181   5.335   2.040 -0.3515  1.0707  0.5119
  115SAPE   HN212001   3.139   5.256   1.897 -2.4927  1.4828  2.5081
  115SAPE   HN312002   3.287   5.232   1.971 -0.1501 -0.4587  0.0840
  115SAPE   C1212003   3.264   5.421   1.872 -0.7004 -0.0683  0.0613
  115SAPE  H12A12004   3.309   5.387   1.777 -2.5793 -0.3689 -0.7699
  115SAPE  H12B12005   3.345   5.456   1.939 -0.8485 -1.0149  0.7589
  115SAPE   C1112006   3.143   5.515   1.854 -0.3747  0.7143  0.8530
  115SAPE  H11A12007   3.077   5.462   1.781  0.8025 -0.1188  0.3503
  115SAPE  H11B12008   3.172   5.611   1.806 -2.1191  1.4035  1.1157
  115SAPE     P12009   3.056   5.656   2.071 -0.0857  0.0838  0.0980
  115SAPE   O1312010   3.193   5.715   2.080  0.4825 -0.0457  0.7081
  115SAPE   O1412011   2.943   5.733   2.021  0.2067 -0.4274  0.1059
  115SAPE   O1212012   3.065   5.534   1.975  0.9157 -0.7044  0.3298
  115SAPE   O1112013   3.011   5.581   2.206 -0.0681  0.1928  0.3153
  115SAPE    C112014   2.931   5.631   2.313 -0.6003  0.8585  0.0529
  115SAPE    HA12015   2.911   5.739   2.301 -2.1681  0.3594 -2.6360
  115SAPE    HB12016   2.841   5.566   2.319 -0.6008  0.9222  0.7789
  115SAPE    C212017   2.994   5.615   2.448  0.2876  0.2716  0.0253
  115SAPE    HS12018   2.968   5.518   2.496 -1.0879  0.9309  0.6502
  115SAPE   O2112019   2.955   5.720   2.541  0.1735 -0.2972 -0.4027
  115SAPE   C2112020   2.824   5.724   2.576  0.1980 -0.7071  0.0734
  115SAPE   O2212021   2.747   5.633   2.552 -0.4755 -0.0486 -0.1513
  115SAPE   C2212022   2.791   5.856   2.650 -0.1014  0.1049 -1.0232
  115SAPE   H2R12023   2.885   5.889   2.699  1.5601 -2.8508 -1.9831
  115SAPE   H2S12024   2.759   5.930   2.574  0.5390  1.5212  0.0207
  115SAPE    C312025   3.147   5.624   2.447 -0.6962  0.1675 -0.7845
  115SAPE    HX12026   3.167   5.731   2.428  0.3907  0.1258  0.0018
  115SAPE    HY12027   3.189   5.559   2.367  1.5015 -1.4577  1.5211
  115SAPE   O3112028   3.212   5.583   2.573 -0.1764  0.2943  0.3956
  115SAPE   C3112029   3.250   5.467   2.607 -0.2786 -0.2087  0.8400
  115SAPE   O3212030   3.245   5.368   2.533  0.2256 -0.6180 -0.1943
  115SAPE   C3212031   3.305   5.480   2.743 -0.1714 -0.1240  0.3177
  115SAPE   H2X12032   3.335   5.586   2.753  2.3440 -0.6517 -0.7881
  115SAPE   H2Y12033   3.392   5.411   2.741  0.1368  0.2787 -1.0687
  115SAPE   C2312034   2.684   5.840   2.762 -0.2923 -0.5633  0.3141
  115SAPE   H3R12035   2.586   5.831   2.711 -0.2894  0.8094  0.0205
  115SAPE   H3S12036   2.666   5.934   2.819 -2.1407 -1.4164  1.2564
  115SAPE   C2412037   2.690   5.722   2.857  0.0974 -0.0448  0.0965
  115SAPE   H4R12038   2.668   5.630   2.800  0.6267  0.4279 -0.8842
  115SAPE   H4S12039   2.599   5.748   2.916 -1.3124  2.5583 -2.9487
  115SAPE   C2512040   2.822   5.708   2.923 -0.6780 -0.2637 -0.8227
  115SAPE   H5R12041   2.916   5.706   2.866  0.0455 -2.4567  0.3348
  115SAPE   C2612042   2.845   5.696   3.060 -0.6148 -0.1028  0.5444
  115SAPE   H6R12043   2.950   5.697   3.092 -0.1978  0.6276 -0.7843
  115SAPE   C2712044   2.737   5.688   3.167  0.0664  0.7609  0.0272
  115SAPE   H7R12045   2.766   5.598   3.225 -0.1576  1.7699  1.7920
  115SAPE   H7S12046   2.637   5.660   3.126  1.1226 -1.3696 -1.2534
  115SAPE   C2812047   2.747   5.820   3.247 -0.4630  0.3451 -0.2692
  115SAPE   H8R12048   2.738   5.918   3.197 -2.3180 -0.2722 -1.2315
  115SAPE   C2912049   2.764   5.839   3.380 -0.5505  0.2461  0.2652
  115SAPE   H9R12050   2.769   5.943   3.415 -2.9564  1.0339 -1.4670
  115SAPE  C21012051   2.780   5.729   3.480 -0.4988 -0.8753 -0.5376
  115SAPE  H10R12052   2.812   5.633   3.435 -0.7138 -0.0661 -2.5224
  115SAPE  H10S12053   2.689   5.708   3.541  0.1476 -0.0447  0.7541
  115SAPE  C21112054   2.882   5.775   3.584 -0.4140 -0.0952 -0.0322
  115SAPE  H11R12055   2.970   5.817   3.534 -0.8197  1.1170  0.2195
  115SAPE  C21212056   2.873   5.757   3.721 -0.7494 -0.3353 -0.1483
  115SAPE  H12R12057   2.957   5.799   3.779  0.7097 -1.6740 -1.2026
  115SAPE  C21312058   2.751   5.700   3.791 -0.7442 -0.7874  0.1483
  115SAPE  H13R12059   2.776   5.640   3.881  1.0097 -1.3181 -0.6423
  115SAPE  H13S12060   2.696   5.633   3.721 -1.5066  0.0175 -0.0405
  115SAPE  C21412061   2.651   5.806   3.827  0.4649  1.4189  0.0890
  115SAPE  H14R12062   2.634   5.884   3.751  0.1842  0.6354 -0.6720
  115SAPE  C21512063   2.582   5.822   3.943 -0.7741 -0.4267  0.1983
  115SAPE  H15R12064   2.508   5.902   3.960 -2.5020 -1.7601 -0.6938
  115SAPE  C21612065   2.592   5.741   4.073 -0.7156  0.1018 -0.1393
  115SAPE  H16R12066   2.631   5.793   4.163 -1.1385  1.9407 -0.9550
  115SAPE  H16S12067   2.668   5.662   4.061 -0.2409  0.5722 -0.2875
  115SAPE  C21712068   2.460   5.671   4.098  0.4839  0.1368  0.1338
  115SAPE  H17R12069   2.390   5.752   4.128  0.2589 -0.2430  0.6457
  115SAPE  H17S12070   2.462   5.619   4.196 -1.0348 -0.4335 -0.1154
  115SAPE  C21812071   2.404   5.600   3.971  0.1699  0.4579 -0.4835
  115SAPE  H18R12072   2.492   5.549   3.926 -0.5284 -0.3367 -0.9888
  115SAPE  H18S12073   2.358   5.669   3.898  0.6719 -1.7360 -3.0181
  115SAPE  C21912074   2.304   5.481   3.998 -0.2062 -0.1527  0.3525
  115SAPE  H19R12075   2.360   5.398   4.046 -0.8646 -0.1589  1.1382
  115SAPE  H19S12076   2.278   5.443   3.897 -0.4781  2.0251 -0.4549
  115SAPE  C22012077   2.184   5.517   4.075 -0.4031 -0.0137 -0.0111
  115SAPE  H20R12078   2.099   5.446   4.065  0.8691 -2.3126  3.4244
  115SAPE  H20S12079   2.145   5.608   4.025  1.3296 -0.3104 -1.9984
  115SAPE  H20T12080   2.202   5.536   4.183 -2.6580 -2.2589  0.8593
  115SAPE   C3312081   3.200   5.442   2.853  0.0734 -0.7860 -0.4448
  115SAPE   H3X12082   3.141   5.354   2.819 -0.6747 -1.3287  2.0345
  115SAPE   H3Y12083   3.132   5.529   2.859  1.1861  0.2538 -2.0388
  115SAPE   C3412084   3.277   5.421   2.984  0.5328 -0.5095  0.2020
  115SAPE   H4X12085   3.347   5.507   2.999  1.6156 -0.9409 -2.0528
  115SAPE   H4Y12086   3.335   5.329   2.965  2.2337  0.5540 -0.0227
  115SAPE   C3512087   3.192   5.410   3.105  0.0114  0.1177 -0.1850
  115SAPE   H5X12088   3.146   5.309   3.103  0.4408 -0.0976  0.3654
  115SAPE   H5Y12089   3.117   5.491   3.111 -0.0956 -0.0611  1.7751
  115SAPE   C3612090   3.265   5.408   3.239 -0.8936 -0.8550 -0.1154
  115SAPE   H6X12091   3.318   5.506   3.249 -1.2188 -0.1251 -3.9240
  115SAPE   H6Y12092   3.344   5.330   3.231 -1.0998 -0.8819 -3.9979
  115SAPE   C3712093   3.183   5.373   3.364  0.4403 -0.5742  0.4225
  115SAPE   H7X12094   3.258   5.352   3.443  2.8210  2.8870 -0.6482
  115SAPE   H7Y12095   3.119   5.283   3.357 -1.4675  0.5983  1.7483
  115SAPE   C3812096   3.075   5.474   3.396  0.2209  0.6443  0.4559
  115SAPE   H8X12097   3.015   5.471   3.302  3.6903 -4.4432 -2.1053
  115SAPE   H8Y12098   3.113   5.577   3.413  0.7046  0.1171  2.8744
  115SAPE   C3912099   2.980   5.424   3.508  0.3580  0.4397 -0.4230
  115SAPE   H9X12100   2.971   5.313   3.508  0.7916  0.3996 -1.1060
  115SAPE   H9Y12101   2.874   5.458   3.498 -0.5836 -2.4933 -1.5471
  115SAPE  C31012102   3.043   5.459   3.649  0.5435 -0.1502 -0.0067
  115SAPE  H10X12103   3.054   5.569   3.661  1.6170 -0.0434 -1.5579
  115SAPE  H10Y12104   3.144   5.414   3.655  0.7662  0.2804 -0.4028
  115SAPE  C31112105   2.951   5.387   3.749  0.4003 -0.3866 -0.0650
  115SAPE  H11X12106   2.950   5.277   3.734 -0.3724 -0.6746  1.8336
  115SAPE  H11Y12107   2.851   5.431   3.732  0.5353 -0.4635 -1.1343
  115SAPE  C31212108   2.998   5.414   3.893 -0.0141  0.7305 -0.3272
  115SAPE  H12X12109   3.018   5.522   3.907  1.3450  0.3478  0.9348
  115SAPE  H12Y12110   3.090   5.356   3.917  0.1940  0.2924 -2.0883
  115SAPE  C31312111   2.879   5.376   3.991 -0.2076 -0.0348  0.0652
  115SAPE  H13X12112   2.872   5.265   3.994 -1.6692  0.0469  0.1445
  115SAPE  H13Y12113   2.782   5.398   3.941  0.2228  2.5185  0.2117
  115SAPE  C31412114   2.887   5.448   4.124 -0.3657 -0.4636  0.2734
  115SAPE  H14X12115   2.912   5.555   4.111  2.5041 -1.0637  0.1210
  115SAPE  H14Y12116   2.972   5.405   4.182  0.1182  0.0647 -0.0370
  115SAPE  C31512117   2.767   5.416   4.214  0.6640 -0.1231  0.2291
  115SAPE  H15X12118   2.738   5.310   4.228 -0.9796  0.2941  0.1893
  115SAPE  H15Y12119   2.686   5.464   4.155  0.6137 -1.1519 -0.5509
  115SAPE  C31612120   2.786   5.487   4.356  0.0707 -0.3830 -0.4649
  115SAPE  H16X12121   2.838   5.583   4.339  0.8954 -0.1136  2.9113
  115SAPE  H16Y12122   2.865   5.425   4.404 -1.7496 -0.8701  2.0846
  115SAPE  C31712123   2.662   5.502   4.435  0.1843  0.6159 -0.2780
  115SAPE  H17X12124   2.619   5.405   4.468  2.4352  0.2517  1.9765
  115SAPE  H17Y12125   2.586   5.559   4.378  1.7750  0.2242 -2.9348
  115SAPE  C31812126   2.679   5.578   4.573 -1.2576 -0.4326 -0.0403
  115SAPE  H18X12127   2.740   5.509   4.635 -1.3806  0.9431  1.6939
  115SAPE  H18Y12128   2.578   5.603   4.614 -0.5998 -1.6282  2.5300
  115SAPE  H18Z12129   2.733   5.674   4.561 -0.7132 -1.1125 -4.5991
  116SAPE     N12130   6.194   0.136   2.387  0.1752 -0.2490 -0.4915
  116SAPE   HN112131   6.111   0.077   2.369  0.8679 -1.2487 -0.5214
  116SAPE   HN212132   6.181   0.235   2.357  2.4841  0.2616 -0.0022
  116SAPE   HN312133   6.266   0.093   2.325  1.1614 -2.0219  1.7328
  116SAPE   C1212134   6.233   0.146   2.526  0.3199 -1.0849 -0.5754
  116SAPE  H12A12135   6.342   0.170   2.531 -0.0905  0.6512  0.9240
  116SAPE  H12B12136   6.217   0.047   2.575  0.3383 -3.2587 -4.5210
  116SAPE   C1112137   6.139   0.253   2.600 -0.9444 -0.1497 -0.4018
  116SAPE  H11A12138   6.192   0.270   2.696 -0.4053 -1.3629 -0.4672
  116SAPE  H11B12139   6.047   0.197   2.629  0.3427 -0.4935  3.7504
  116SAPE     P12140   6.252   0.471   2.511 -0.0864 -0.2964 -0.1226
  116SAPE   O1312141   6.315   0.410   2.390  0.2342 -0.3677 -0.6378
  116SAPE   O1412142   6.207   0.609   2.503 -0.6069  0.0677  1.0165
  116SAPE   O1212143   6.120   0.379   2.533 -0.2347 -0.0712  0.2817
  116SAPE   O1112144   6.338   0.441   2.641  0.1759  0.7984 -0.9223
  116SAPE    C112145   6.475   0.470   2.654 -0.3657 -0.4334 -0.4448
  116SAPE    HA12146   6.518   0.536   2.576  1.4585  0.2196  1.0464
  116SAPE    HB12147   6.486   0.535   2.744 -1.2227 -0.5609 -0.2394
  116SAPE    C212148   6.550   0.336   2.677 -0.1997 -0.5361  0.2146
  116SAPE    HS12149   6.537   0.277   2.584 -0.9687 -1.8563  1.1282
  116SAPE   O2112150   6.498   0.268   2.792  0.5992  0.4280 -0.3394
  116SAPE   C2112151   6.521   0.138   2.790 -0.2179  0.7874  0.1193
  116SAPE   O2212152   6.568   0.078   2.696  0.3764  0.1879 -0.2651
  116SAPE   C2212153   6.495   0.074   2.929 -0.2514 -0.3885  0.1037
  116SAPE   H2R12154   6.462   0.147   3.007 -0.3142 -1.2417  0.8913
  116SAPE   H2S12155   6.410   0.004   2.917 -2.8663  2.1026  2.3898
  116SAPE    C312156   6.703   0.359   2.696  0.5233  0.7833 -0.3302
  116SAPE    HX12157   6.723   0.439   2.622 -0.8835  0.8786 -0.6356
  116SAPE    HY12158   6.764   0.271   2.668 -2.1676 -1.0069 -0.9686
  116SAPE   O3112159   6.728   0.403   2.831 -0.3470 -0.1835  0.2859
  116SAPE   C3112160   6.783   0.325   2.916 -0.2115  0.2547 -0.2679
  116SAPE   O3212161   6.810   0.206   2.893 -0.5738 -0.7790 -0.1263
  116SAPE   C3212162   6.788   0.399   3.052 -0.2627  0.1155  0.1451
  116SAPE   H2X12163   6.696   0.458   3.069  0.9099  1.9615  0.3103
  116SAPE   H2Y12164   6.871   0.472   3.042 -0.0380 -0.1190  0.2821
  116SAPE   C2312165   6.607  -0.010   2.993 -0.1096  0.1459 -0.0081
  116SAPE   H3R12166   6.691   0.058   3.021  1.3335 -2.5226  2.7362
  116SAPE   H3S12167   6.652  -0.064   2.907  1.5655  0.5643  0.5603
  116SAPE   C2412168   6.557  -0.111   3.098  0.1629 -0.0855  0.7818
  116SAPE   H4R12169   6.628  -0.195   3.113 -0.3163 -0.6987 -0.2971
  116SAPE   H4S12170   6.466  -0.161   3.057  0.7839 -0.0444 -0.6900
  116SAPE   C2512171   6.523  -0.036   3.223 -0.1889 -0.3072 -0.8397
  116SAPE   H5R12172   6.439   0.034   3.216 -1.6400 -1.7293  1.1164
  116SAPE   C2612173   6.581  -0.048   3.347  0.3053 -0.6102 -0.2211
  116SAPE   H6R12174   6.538   0.008   3.431  1.9040  2.9753 -1.6168
  116SAPE   C2712175   6.698  -0.132   3.386  0.6847 -0.4998  0.6945
  116SAPE   H7R12176   6.700  -0.225   3.325  0.2590 -0.5970  0.8266
  116SAPE   H7S12177   6.690  -0.174   3.488 -1.7852 -2.0450 -0.0454
  116SAPE   C2812178   6.823  -0.052   3.365  0.5376  0.1070  0.3510
  116SAPE   H8R12179   6.856  -0.046   3.261  1.4534 -2.0409  0.4627
  116SAPE   C2912180   6.905  -0.006   3.461 -0.3636  0.2094  0.0893
  116SAPE   H9R12181   6.996   0.042   3.422 -0.6109 -0.7789 -1.8304
  116SAPE  C21012182   6.872  -0.006   3.610 -1.0932  0.1985  0.0909
  116SAPE  H10R12183   6.764  -0.016   3.632 -0.6935 -1.1798  1.5796
  116SAPE  H10S12184   6.893   0.096   3.648  1.1244 -0.2713  0.3004
  116SAPE  C21112185   6.951  -0.115   3.676 -0.0347 -0.3075  0.6480
  116SAPE  H11R12186   6.909  -0.215   3.655 -0.3819 -0.0468  0.0781
  116SAPE  C21212187   7.042  -0.116   3.775  0.2128  0.2511 -0.4809
  116SAPE  H12R12188   7.089  -0.211   3.802  0.6159  0.8866  1.1295
  116SAPE  C21312189   7.110   0.005   3.839 -0.1109  0.7719  0.0701
  116SAPE  H13R12190   7.090   0.095   3.778  1.0103 -1.4435 -3.8739
  116SAPE  H13S12191   7.217  -0.022   3.847 -0.5073 -1.0234 -0.2723
  116SAPE  C21412192   7.068   0.019   3.982 -0.0942  0.0165 -0.6592
  116SAPE  H14R12193   7.017   0.114   4.003 -0.1670 -0.2507  0.4223
  116SAPE  C21512194   7.099  -0.073   4.088  0.5385  0.0052 -0.8192
  116SAPE  H15R12195   7.067  -0.037   4.186  3.3470  0.8430 -0.0986
  116SAPE  C21612196   7.183  -0.197   4.099  0.6076 -0.6374 -0.1092
  116SAPE  H16R12197   7.239  -0.209   4.003  1.9517 -0.1848  0.5931
  116SAPE  H16S12198   7.130  -0.295   4.097  1.1130 -1.0241  2.2972
  116SAPE  C21712199   7.277  -0.208   4.222 -0.6791  0.4631  0.0689
  116SAPE  H17R12200   7.353  -0.128   4.217  1.1590 -1.2114 -0.0747
  116SAPE  H17S12201   7.341  -0.296   4.198 -0.7970  0.4207 -0.0938
  116SAPE  C21812202   7.211  -0.213   4.361  0.8473 -0.1594 -0.3791
  116SAPE  H18R12203   7.146  -0.302   4.349  0.1547  0.4457 -1.3132
  116SAPE  H18S12204   7.142  -0.126   4.367 -1.7032 -2.1824  2.5589
  116SAPE  C21912205   7.297  -0.225   4.488 -0.2107  0.1130  0.4798
  116SAPE  H19R12206   7.381  -0.152   4.485 -0.0628 -0.0774 -1.0170
  116SAPE  H19S12207   7.350  -0.323   4.489  1.1399  0.8195  0.4363
  116SAPE  C22012208   7.212  -0.222   4.612 -0.9239  0.1812  0.5115
  116SAPE  H20R12209   7.276  -0.238   4.701  1.2421  2.9084 -0.4092
  116SAPE  H20S12210   7.140  -0.306   4.598  0.1233 -0.8412  1.0691
  116SAPE  H20T12211   7.158  -0.125   4.611 -0.9808  0.2361  2.8173
  116SAPE   C3312212   6.822   0.292   3.157  0.0159 -0.6271 -0.8716
  116SAPE   H3X12213   6.753   0.205   3.162 -0.5661 -0.1767 -0.9511
  116SAPE   H3Y12214   6.793   0.343   3.252  0.0417 -2.7222  0.3135
  116SAPE   C3412215   6.967   0.245   3.159 -0.3338 -0.1288 -0.3270
  116SAPE   H4X12216   6.977   0.190   3.063  0.2881  0.9827 -0.9204
  116SAPE   H4Y12217   6.979   0.171   3.241 -2.9636  0.4269  0.6452
  116SAPE   C3512218   7.078   0.341   3.170 -0.5909  0.2267  0.1190
  116SAPE   H5X12219   7.093   0.406   3.082  0.2263  0.0356  0.1107
  116SAPE   H5Y12220   7.167   0.274   3.175 -1.3768 -0.7600  3.6060
  116SAPE   C3612221   7.074   0.433   3.297  0.2401 -0.3299 -0.1746
  116SAPE   H6X12222   6.981   0.493   3.309 -1.4448 -2.7641 -0.3087
  116SAPE   H6Y12223   7.162   0.500   3.295 -1.1810  1.6542  0.3925
  116SAPE   C3712224   7.097   0.355   3.429  0.1480 -0.1263  0.4888
  116SAPE   H7X12225   7.180   0.283   3.418 -0.4764 -0.9085  0.7824
  116SAPE   H7Y12226   7.010   0.285   3.434 -1.2239  1.3550 -1.0454
  116SAPE   C3812227   7.090   0.444   3.553  0.4413  0.0380  0.2488
  116SAPE   H8X12228   6.994   0.500   3.555 -0.7817 -1.9743  0.5644
  116SAPE   H8Y12229   7.171   0.520   3.551 -0.3719  0.9104 -1.5804
  116SAPE   C3912230   7.103   0.366   3.685  0.1685  0.0796 -0.1858
  116SAPE   H9X12231   7.193   0.301   3.674  0.5558  0.4270  0.7904
  116SAPE   H9Y12232   7.026   0.288   3.704 -0.1658  0.9031  2.2824
  116SAPE  C31012233   7.115   0.454   3.812 -0.2366  0.1682 -0.2110
  116SAPE  H10X12234   7.028   0.522   3.809  0.5153  1.1444 -2.4436
  116SAPE  H10Y12235   7.203   0.515   3.779  1.5478 -1.5017  1.2459
  116SAPE  C31112236   7.147   0.402   3.950 -0.1518 -0.9003  0.0856
  116SAPE  H11X12237   7.084   0.311   3.960 -0.8454 -0.2949  1.3718
  116SAPE  H11Y12238   7.129   0.480   4.027  0.7570 -2.0977  1.5610
  116SAPE  C31212239   7.293   0.361   3.963  0.0961 -0.6537 -0.0767
  116SAPE  H12X12240   7.357   0.440   3.921 -0.6808  0.0396  0.0179
  116SAPE  H12Y12241   7.303   0.270   3.901 -1.3448 -1.3709  0.6719
  116SAPE  C31312242   7.358   0.342   4.101 -0.3682 -0.0111 -0.2880
  116SAPE  H13X12243   7.354   0.436   4.161  1.1461  0.1858 -0.4689
  116SAPE  H13Y12244   7.462   0.320   4.070 -0.6680 -1.6060 -0.2637
  116SAPE  C31412245   7.280   0.228   4.160  0.2015  0.5309 -0.0111
  116SAPE  H14X12246   7.274   0.138   4.096 -2.3709  0.9160 -0.4450
  116SAPE  H14Y12247   7.175   0.262   4.179 -0.3040 -0.3875 -1.0924
  116SAPE  C31512248   7.352   0.167   4.288  0.0853  0.0906 -0.1548
  116SAPE  H15X12249   7.446   0.117   4.258 -0.9814 -0.6097 -2.5373
  116SAPE  H15Y12250   7.290   0.083   4.326 -0.3760  0.1267 -0.8106
  116SAPE  C31612251   7.368   0.263   4.403 -0.5211  0.7949 -0.0736
  116SAPE  H16X12252   7.266   0.295   4.432 -0.8886 -0.5249  0.1465
  116SAPE  H16Y12253   7.422   0.358   4.379 -0.9585  1.3311  0.9909
  116SAPE  C31712254   7.435   0.207   4.525  0.2937  0.2438 -0.0564
  116SAPE  H17X12255   7.503   0.128   4.487 -2.2208 -2.6475  0.9855
  116SAPE  H17Y12256   7.376   0.144   4.595  1.8652 -0.3985  0.7460
  116SAPE  C31812257   7.509   0.313   4.615  0.0688 -0.0617  0.0857
  116SAPE  H18X12258   7.436   0.392   4.643  0.0039 -0.1605  0.1959
  116SAPE  H18Y12259   7.583   0.362   4.549  1.5502 -1.3811  0.7188
  116SAPE  H18Z12260   7.562   0.272   4.703  0.6508 -1.6227 -0.9568
  117SOPE     N12261   4.821   6.550   6.804 -0.7178 -0.3317  0.0828
  117SOPE   HN112262   4.749   6.623   6.824 -0.4374 -0.4923  1.8881
  117SOPE   HN212263   4.893   6.564   6.877  0.0826 -0.2000 -0.7177
  117SOPE   HN312264   4.862   6.573   6.712 -2.5682 -1.0552 -0.9774
  117SOPE   C1212265   4.773   6.408   6.828  0.0279  0.1868  0.4884
  117SOPE  H12A12266   4.699   6.376   6.751  1.7321 -2.2576 -0.2704
  117SOPE  H12B12267   4.726   6.418   6.928  1.0684  0.8214  0.9300
  117SOPE   C1112268   4.898   6.315   6.839  0.4222  0.6096  0.8065
  117SOPE  H11A12269   4.867   6.221   6.889 -1.4220  0.0677 -1.2038
  117SOPE  H11B12270   4.986   6.351   6.896  0.7568  1.7703 -0.3844
  117SOPE     P12271   5.076   6.208   6.677  0.0413 -0.2584  0.1151
  117SOPE   O1312272   5.069   6.073   6.737 -0.0564 -0.0136 -0.3265
  117SOPE   O1412273   5.193   6.292   6.711 -0.7220 -0.3336  0.3112
  117SOPE   O1212274   4.937   6.286   6.700 -0.2285  0.0689  0.1378
  117SOPE   O1112275   5.071   6.171   6.523  0.1064 -0.0721  0.1850
  117SOPE    C112276   5.185   6.173   6.439  0.1582  0.4020  0.0467
  117SOPE    HA12277   5.177   6.086   6.369  0.4980  2.5045 -2.8064
  117SOPE    HB12278   5.280   6.157   6.494 -0.0003  1.6753  0.7164
  117SOPE    C212279   5.189   6.304   6.357 -0.3004  0.0143 -0.3736
  117SOPE    HS12280   5.194   6.387   6.430 -1.3421 -1.2091  1.1354
  117SOPE   O2112281   5.063   6.305   6.278 -0.5345 -0.0861 -0.2392
  117SOPE   C2112282   4.996   6.413   6.285  0.5608 -0.9031  0.7100
  117SOPE   O2212283   5.013   6.517   6.351 -0.1007  0.0293 -0.3484
  117SOPE   C2212284   4.874   6.397   6.195  0.2759 -0.3556 -0.0674
  117SOPE   H2R12285   4.777   6.401   6.250 -0.2082 -1.7567 -0.7760
  117SOPE   H2S12286   4.882   6.302   6.139 -0.7599 -0.2129 -0.4789
  117SOPE    C312287   5.314   6.308   6.255  0.3103  0.2977  0.2501
  117SOPE    HX12288   5.322   6.209   6.205 -0.4932  0.4997 -0.2892
  117SOPE    HY12289   5.405   6.322   6.318  1.4180  0.8927 -1.4003
  117SOPE   O3112290   5.299   6.408   6.148 -0.3190 -0.3847 -0.2272
  117SOPE   C3112291   5.389   6.501   6.142 -0.0660  0.7835  0.3783
  117SOPE   O3212292   5.487   6.517   6.213 -0.6502  0.3507  0.2015
  117SOPE   C3212293   5.350   6.593   6.027 -0.3309 -0.2021  0.5261
  117SOPE   H2X12294   5.275   6.664   6.067 -1.3303 -0.9812  0.0682
  117SOPE   H2Y12295   5.301   6.530   5.950  1.3224 -0.8696 -0.0292
  117SOPE   C2312296   4.853   6.514   6.098 -0.2903  0.4371  1.1142
  117SOPE   H3R12297   4.951   6.525   6.047 -0.6362 -1.0660  0.0516
  117SOPE   H3S12298   4.826   6.605   6.156  0.4843  0.7582  0.9776
  117SOPE   C2412299   4.749   6.487   5.992  0.0119  0.9783 -0.6014
  117SOPE   H4R12300   4.768   6.389   5.944 -2.4016  0.7879 -1.3038
  117SOPE   H4S12301   4.661   6.472   6.057  1.1376 -2.3044  0.3689
  117SOPE   C2512302   4.742   6.591   5.889 -0.2074 -0.7916  0.2257
  117SOPE   H5R12303   4.722   6.695   5.924 -1.2656  0.0329 -2.5781
  117SOPE   H5S12304   4.841   6.608   5.842 -1.1233  0.5140 -1.3509
  117SOPE   C2612305   4.653   6.548   5.775  0.6376  0.7358 -0.5701
  117SOPE   H6R12306   4.697   6.468   5.711 -2.3151  0.8978 -3.0199
  117SOPE   H6S12307   4.564   6.501   5.821  2.1913 -2.8133 -0.8397
  117SOPE   C2712308   4.606   6.674   5.697  0.0166  0.0069  0.1980
  117SOPE   H7R12309   4.573   6.751   5.770 -1.7417  0.3013 -0.8314
  117SOPE   H7S12310   4.698   6.718   5.654 -0.2856  1.2006  0.7173
  117SOPE   C2812311   4.492   6.645   5.606  0.7223  0.7566  0.0572
  117SOPE   H8R12312   4.498   6.547   5.555  0.4293 -0.6811  2.6264
  117SOPE   H8S12313   4.402   6.620   5.667 -0.0741 -0.9446 -1.7218
  117SOPE   C2912314   4.440   6.756   5.519  0.2363  0.4593 -0.0460
  117SOPE   H9112315   4.373   6.829   5.567  1.0332  0.7314  0.6813
  117SOPE  C21012316   4.468   6.778   5.395 -0.1330  0.0039  0.7831
  117SOPE  H10112317   4.424   6.866   5.346  0.3403  0.1113  0.5488
  117SOPE  C21112318   4.553   6.692   5.303  0.0136  0.2354 -0.0492
  117SOPE  H11R12319   4.621   6.623   5.359 -0.1746 -1.0862 -1.3971
  117SOPE  H11S12320   4.635   6.746   5.251  0.8755  0.5833  1.5736
  117SOPE  C21212321   4.474   6.605   5.203  0.2898 -0.2457 -0.0364
  117SOPE  H12R12322   4.547   6.539   5.152  1.4851  0.7570  0.2956
  117SOPE  H12S12323   4.430   6.663   5.120 -0.7588 -1.1239 -0.1055
  117SOPE  C21312324   4.367   6.514   5.260  0.6648  0.4224 -0.2302
  117SOPE  H13R12325   4.294   6.579   5.314  0.1862 -0.5513  0.3180
  117SOPE  H13S12326   4.410   6.441   5.332 -1.4894 -1.3792 -0.6528
  117SOPE  C21412327   4.298   6.436   5.149 -0.0088 -0.0752 -0.0807
  117SOPE  H14R12328   4.368   6.374   5.089 -1.4340 -0.6200 -1.2593
  117SOPE  H14S12329   4.249   6.509   5.081 -0.0311 -0.9311 -1.0138
  117SOPE  C21512330   4.188   6.343   5.200  0.1623 -1.3949 -0.2112
  117SOPE  H15R12331   4.146   6.281   5.117  1.2084 -0.4604 -1.4703
  117SOPE  H15S12332   4.111   6.408   5.247  0.5765 -1.0084 -0.0634
  117SOPE  C21612333   4.234   6.244   5.304  0.1066 -0.3217 -0.4694
  117SOPE  H16R12334   4.151   6.173   5.325 -1.2659  1.6203  0.9661
  117SOPE  H16S12335   4.262   6.293   5.399 -0.9122 -3.8015  1.8353
  117SOPE  C21712336   4.352   6.165   5.251 -0.5371  1.0074 -0.3200
  117SOPE  H17R12337   4.445   6.223   5.237 -0.4782  1.0283  0.1500
  117SOPE  H17S12338   4.327   6.137   5.146  3.4676  0.8192 -1.3897
  117SOPE  C21812339   4.376   6.034   5.330 -0.4564 -0.4076  0.0815
  117SOPE  H18R12340   4.289   5.965   5.333 -0.1862 -0.7921 -0.7178
  117SOPE  H18S12341   4.408   6.053   5.434 -0.7067 -2.4782  0.5738
  117SOPE  H18T12342   4.463   5.980   5.286  1.1685  1.9112  0.2757
  117SOPE   C3312343   5.476   6.657   5.980 -0.0139  0.7237  0.4067
  117SOPE   H3X12344   5.568   6.597   5.963  0.0662  0.0164  2.9706
  117SOPE   H3Y12345   5.508   6.740   6.047  1.7560 -0.4336  1.0559
  117SOPE   C3412346   5.456   6.738   5.843 -0.2327 -0.3368  0.6506
  117SOPE   H4X12347   5.552   6.785   5.813 -0.0622 -1.4501 -0.6971
  117SOPE   H4Y12348   5.377   6.813   5.860 -0.0137 -0.7578  4.2289
  117SOPE   C3512349   5.420   6.648   5.721 -0.9400  0.3266  0.1040
  117SOPE   H5X12350   5.324   6.593   5.732 -0.9072  0.4699  1.2035
  117SOPE   H5Y12351   5.496   6.569   5.707 -2.4748 -0.8846 -1.9058
  117SOPE   C3612352   5.419   6.737   5.592 -0.6556 -0.6070 -0.2609
  117SOPE   H6X12353   5.523   6.776   5.583 -0.7111 -0.4169 -0.0977
  117SOPE   H6Y12354   5.355   6.826   5.610  1.8661  1.2924 -0.0693
  117SOPE   C3712355   5.383   6.663   5.474  0.1015 -0.4992 -0.2498
  117SOPE   H7X12356   5.364   6.735   5.391 -0.1807  1.6404  1.5873
  117SOPE   H7Y12357   5.291   6.604   5.496 -0.7552  0.9906  0.2672
  117SOPE   C3812358   5.503   6.570   5.425 -0.3342 -0.5067 -0.1246
  117SOPE   H8X12359   5.544   6.517   5.514  1.8340  0.2475 -0.6091
  117SOPE   H8Y12360   5.584   6.635   5.387 -1.3897  0.3810 -0.9237
  117SOPE   C3912361   5.455   6.476   5.315  0.3222  0.3426  0.6092
  117SOPE   H9X12362   5.444   6.538   5.224 -1.0709 -0.8269 -0.0558
  117SOPE   H9Y12363   5.349   6.445   5.322 -0.2157  1.1833 -2.4542
  117SOPE  C31012364   5.546   6.356   5.292 -0.0370  0.1438 -0.5134
  117SOPE  H10X12365   5.533   6.275   5.366  4.0466  0.3784  0.6886
  117SOPE  H10Y12366   5.649   6.392   5.308 -0.7021  0.9602  2.4175
  117SOPE  C31112367   5.540   6.295   5.150  0.1210  0.3958 -0.3418
  117SOPE  H11X12368   5.579   6.377   5.086  2.0510 -0.4707 -0.3403
  117SOPE  H11Y12369   5.436   6.273   5.118  0.2150 -2.1728  0.8238
  117SOPE  C31212370   5.625   6.164   5.117  0.3201 -0.3604 -0.2676
  117SOPE  H12X12371   5.601   6.087   5.194 -0.6798  0.0484 -0.1545
  117SOPE  H12Y12372   5.735   6.183   5.116 -0.1157  2.6947 -1.7962
  117SOPE  C31312373   5.595   6.122   4.976 -0.0364  0.3834 -0.4430
  117SOPE  H13X12374   5.485   6.108   4.968  0.3201 -2.1285 -1.9699
  117SOPE  H13Y12375   5.650   6.026   4.970  0.7501  0.5986  2.0870
  117SOPE  C31412376   5.642   6.220   4.872 -0.6611 -0.2251 -0.1465
  117SOPE  H14X12377   5.746   6.252   4.893 -0.5423 -0.2320 -0.7244
  117SOPE  H14Y12378   5.581   6.312   4.861 -0.9659 -0.3828  0.1932
  117SOPE  C31512379   5.655   6.155   4.736  0.1590 -0.7569  0.5037
  117SOPE  H15X12380   5.584   6.075   4.706 -1.0534 -0.2890  1.9910
  117SOPE  H15Y12381   5.755   6.108   4.743 -0.1024 -1.2062  1.3184
  117SOPE  C31612382   5.641   6.250   4.620  0.4492 -0.0259  0.0431
  117SOPE  H16X12383   5.673   6.210   4.522  2.5653  2.6937 -0.5253
  117SOPE  H16Y12384   5.705   6.340   4.635  0.0970  0.0217  1.3924
  117SOPE  C31712385   5.495   6.296   4.590  0.0317  0.2556 -0.1469
  117SOPE  H17X12386   5.440   6.296   4.686  1.0608 -1.2417  0.4834
  117SOPE  H17Y12387   5.447   6.221   4.524  0.7912 -0.2253 -0.1699
  117SOPE  C31812388   5.498   6.428   4.524  0.5465 -1.0164  0.6771
  117SOPE  H18X12389   5.542   6.513   4.582 -1.5963  1.1271 -0.6297
  117SOPE  H18Y12390   5.393   6.459   4.507  0.8702  0.4431  1.1688
  117SOPE  H18Z12391   5.560   6.436   4.432  0.5960  2.4327  0.8658
  118SOPE     N12392   5.255   1.397   6.808  0.3093  0.1348  0.2804
  118SOPE   HN112393   5.202   1.412   6.897 -0.0957 -1.6494  0.3815
  118SOPE   HN212394   5.295   1.301   6.813  1.0035  0.4479  3.7830
  118SOPE   HN312395   5.331   1.467   6.807 -0.1335  0.6186  0.3316
  118SOPE   C1212396   5.169   1.398   6.685 -0.1132 -0.0388 -0.0726
  118SOPE  H12A12397   5.226   1.389   6.590  0.3573 -0.9022  0.2761
  118SOPE  H12B12398   5.116   1.495   6.694 -1.5326 -0.6490 -1.4314
  118SOPE   C1112399   5.068   1.273   6.677 -0.4672 -0.0090 -0.0075
  118SOPE  H11A12400   5.108   1.178   6.635 -2.4307 -0.3471 -1.2642
  118SOPE  H11B12401   4.992   1.299   6.600 -1.8710 -2.0333  0.6019
  118SOPE     P12402   4.863   1.165   6.808  0.1813  0.2776 -0.1100
  118SOPE   O1312403   4.769   1.251   6.731  0.2264  0.0483  0.4250
  118SOPE   O1412404   4.844   1.133   6.950 -0.0827 -0.2555 -0.0664
  118SOPE   O1212405   5.008   1.232   6.799  0.0386 -0.3271  0.2168
  118SOPE   O1112406   4.881   1.030   6.727 -0.2689 -0.3961 -0.2682
  118SOPE    C112407   4.969   0.928   6.775  0.2716  0.1758 -0.0091
  118SOPE    HA12408   4.916   0.869   6.852 -0.9455  0.3619 -0.6787
  118SOPE    HB12409   5.061   0.972   6.820  0.3043 -0.9715  1.0954
  118SOPE    C212410   5.022   0.835   6.660 -0.3194 -0.2122  0.3757
  118SOPE    HS12411   5.090   0.907   6.610  3.3038 -3.6712 -0.1339
  118SOPE   O2112412   4.923   0.792   6.566  0.1044 -0.1458  0.1597
  118SOPE   C2112413   4.881   0.875   6.463  0.1935  0.3456  0.1010
  118SOPE   O2212414   4.952   0.965   6.421 -0.0964 -0.2666 -0.1832
  118SOPE   C2212415   4.737   0.838   6.419  0.4636  0.2659  0.6734
  118SOPE   H2R12416   4.676   0.880   6.502  1.9344  0.2703  1.7954
  118SOPE   H2S12417   4.719   0.729   6.408 -2.3553  0.8772 -2.1415
  118SOPE    C312418   5.102   0.707   6.709  0.5675 -0.1306 -0.3969
  118SOPE    HX12419   5.037   0.636   6.763  0.8006  0.5260  0.7917
  118SOPE    HY12420   5.177   0.735   6.786  2.5265 -0.0761 -2.2210
  118SOPE   O3112421   5.178   0.654   6.600 -0.2073 -0.2695 -0.0811
  118SOPE   C3112422   5.154   0.526   6.563 -0.2176 -0.5480  1.1369
  118SOPE   O3212423   5.081   0.447   6.614  0.0945 -0.3695 -0.0999
  118SOPE   C3212424   5.231   0.508   6.434  0.4771  0.2925  0.3386
  118SOPE   H2X12425   5.339   0.531   6.444  0.7897  0.0245 -1.8742
  118SOPE   H2Y12426   5.186   0.580   6.362  2.3301  0.6352 -0.5307
  118SOPE   C2312427   4.693   0.898   6.279  0.3547  0.6181  0.0781
  118SOPE   H3R12428   4.660   1.003   6.292  1.6241  1.2078 -1.1253
  118SOPE   H3S12429   4.605   0.841   6.244  0.6810 -0.8128  1.4828
  118SOPE   C2412430   4.795   0.887   6.166 -0.1447 -0.3245  0.3225
  118SOPE   H4R12431   4.886   0.947   6.186 -1.0924  1.5626 -0.7020
  118SOPE   H4S12432   4.822   0.779   6.158  1.3340  0.0639 -0.3885
  118SOPE   C2512433   4.738   0.919   6.026 -0.4240  0.2986 -1.0406
  118SOPE   H5R12434   4.662   0.843   5.997 -0.3978  0.3530 -1.2543
  118SOPE   H5S12435   4.688   1.018   6.023 -1.0555  0.0741  0.7944
  118SOPE   C2612436   4.838   0.898   5.916  1.0370  0.0883 -0.3380
  118SOPE   H6R12437   4.924   0.966   5.932  1.8736 -1.0493  0.1621
  118SOPE   H6S12438   4.875   0.793   5.924 -0.2386 -0.3510 -0.0106
  118SOPE   C2712439   4.782   0.927   5.777 -0.0032 -0.6073 -0.5040
  118SOPE   H7R12440   4.858   0.908   5.699 -1.1382 -1.0222 -1.5421
  118SOPE   H7S12441   4.695   0.858   5.761 -1.1584 -0.3975  3.6969
  118SOPE   C2812442   4.723   1.072   5.768  0.6684  0.4007 -0.2890
  118SOPE   H8R12443   4.625   1.071   5.821  0.9596  2.0148  0.3236
  118SOPE   H8S12444   4.796   1.152   5.792  0.0296  1.4188 -1.6398
  118SOPE   C2912445   4.680   1.090   5.623 -0.3691  0.4646  0.2668
  118SOPE   H9112446   4.575   1.067   5.603  0.2772 -2.5690 -0.1539
  118SOPE  C21012447   4.736   1.153   5.520 -0.0967  0.1300  0.1287
  118SOPE  H10112448   4.673   1.152   5.430 -2.0089 -0.5441  1.4254
  118SOPE  C21112449   4.878   1.203   5.503 -0.1914  0.7153  0.4892
  118SOPE  H11R12450   4.937   1.146   5.578 -1.2974  0.9226  1.5445
  118SOPE  H11S12451   4.886   1.308   5.540  0.3359  0.0719  2.3181
  118SOPE  C21212452   4.936   1.185   5.363 -0.5498  0.8945  0.3599
  118SOPE  H12R12453   4.932   1.078   5.333 -2.4496  0.7105  1.1628
  118SOPE  H12S12454   5.041   1.219   5.352 -0.8637  2.3652  1.5357
  118SOPE  C21312455   4.856   1.255   5.247 -0.0104 -0.3292  0.2200
  118SOPE  H13R12456   4.839   1.362   5.268 -1.2272 -0.1246 -1.6078
  118SOPE  H13S12457   4.754   1.211   5.247  0.0833 -0.6168 -1.5431
  118SOPE  C21412458   4.931   1.252   5.114 -0.6373 -0.0039  0.5157
  118SOPE  H14R12459   5.005   1.334   5.124  1.1925 -1.7161  1.5790
  118SOPE  H14S12460   4.847   1.278   5.045  0.8098  0.2950 -1.1886
  118SOPE  C21512461   5.001   1.124   5.083  0.7316  0.3123 -0.0418
  118SOPE  H15R12462   4.934   1.039   5.107 -0.4916  1.1584 -0.3980
  118SOPE  H15S12463   5.087   1.105   5.152 -0.5305 -1.0599  1.2324
  118SOPE  C21612464   5.055   1.121   4.934  0.0524 -0.6803 -0.5347
  118SOPE  H16R12465   4.968   1.107   4.867  0.3849 -1.3699 -0.8287
  118SOPE  H16S12466   5.130   1.041   4.915  1.6872  0.9263 -1.1151
  118SOPE  C21712467   5.116   1.252   4.890 -0.3194 -0.1126 -0.2719
  118SOPE  H17R12468   5.205   1.275   4.954 -0.0273 -0.2420 -0.6302
  118SOPE  H17S12469   5.043   1.334   4.908 -0.6568 -0.7455  1.5477
  118SOPE  C21812470   5.173   1.242   4.747  0.7094 -0.0018 -0.1255
  118SOPE  H18R12471   5.226   1.338   4.727  0.5994  0.1198  0.1616
  118SOPE  H18S12472   5.092   1.223   4.674 -0.5388  1.9726  0.6455
  118SOPE  H18T12473   5.247   1.160   4.746 -0.1029 -0.7480 -0.7855
  118SOPE   C3312474   5.227   0.358   6.392 -0.1873  0.2405 -0.1461
  118SOPE   H3X12475   5.123   0.318   6.387  0.4918 -1.9776  1.6553
  118SOPE   H3Y12476   5.288   0.306   6.469 -0.0327  0.3012 -0.2282
  118SOPE   C3412477   5.294   0.324   6.254  0.3543 -0.1774  0.1142
  118SOPE   H4X12478   5.271   0.217   6.233 -0.0572 -0.6387  2.5361
  118SOPE   H4Y12479   5.405   0.319   6.261  0.2710 -1.6887  0.8386
  118SOPE   C3512480   5.259   0.409   6.133 -0.5173 -0.3077  0.6523
  118SOPE   H5X12481   5.331   0.494   6.134 -1.8127  0.8088  0.7541
  118SOPE   H5Y12482   5.154   0.443   6.121  0.3243  1.9243 -1.1717
  118SOPE   C3612483   5.293   0.333   6.002  0.3131 -0.0310  0.4091
  118SOPE   H6X12484   5.238   0.237   6.005  0.3338 -0.1205 -1.2712
  118SOPE   H6Y12485   5.401   0.308   6.004  0.6865  1.4849  0.8154
  118SOPE   C3712486   5.269   0.409   5.874  0.0044 -0.4481 -0.3009
  118SOPE   H7X12487   5.330   0.501   5.879  0.4360 -0.7621  0.2442
  118SOPE   H7Y12488   5.162   0.438   5.860  0.2490 -0.5341 -2.8664
  118SOPE   C3812489   5.295   0.323   5.753 -1.0560 -0.9627  0.3430
  118SOPE   H8X12490   5.241   0.226   5.765 -3.0611 -0.1681 -1.6598
  118SOPE   H8Y12491   5.403   0.304   5.737 -0.2493  1.0348  2.7295
  118SOPE   C3912492   5.258   0.403   5.630  0.1651  0.9737 -0.5211
  118SOPE   H9X12493   5.317   0.497   5.638  2.5520 -0.5844  2.0639
  118SOPE   H9Y12494   5.149   0.422   5.625 -0.2440 -0.8965  0.5778
  118SOPE  C31012495   5.299   0.332   5.501  0.4144  0.3054  0.2284
  118SOPE  H10X12496   5.219   0.256   5.485 -0.0560  0.6937  0.6867
  118SOPE  H10Y12497   5.399   0.284   5.508 -0.7906 -2.3297  1.1053
  118SOPE  C31112498   5.291   0.436   5.382  0.0156  0.0929  0.5098
  118SOPE  H11X12499   5.376   0.506   5.391 -0.4974  0.7519  0.3386
  118SOPE  H11Y12500   5.198   0.497   5.373  0.8020  1.0634 -2.3867
  118SOPE  C31212501   5.310   0.378   5.238  0.7922  0.0729 -0.0216
  118SOPE  H12X12502   5.268   0.275   5.243 -1.7183  0.8990 -2.0080
  118SOPE  H12Y12503   5.415   0.376   5.200 -0.5260 -2.2432 -4.2343
  118SOPE  C31312504   5.225   0.450   5.135 -0.2133 -0.3752 -0.0502
  118SOPE  H13X12505   5.241   0.560   5.143 -1.8590 -0.1400  0.4766
  118SOPE  H13Y12506   5.117   0.429   5.155  0.2503 -0.9393  2.1116
  118SOPE  C31412507   5.270   0.426   4.993 -0.1830 -0.1337  0.2856
  118SOPE  H14X12508   5.301   0.319   4.991 -0.5788 -0.2449 -0.0897
  118SOPE  H14Y12509   5.361   0.488   4.976 -1.4665  2.1062  1.1806
  118SOPE  C31512510   5.158   0.456   4.881 -0.7383  0.0082 -0.4157
  118SOPE  H15X12511   5.147   0.567   4.874  0.5459  0.3429  1.7398
  118SOPE  H15Y12512   5.056   0.421   4.907 -0.9811 -0.0819 -1.4825
  118SOPE  C31612513   5.191   0.403   4.744 -0.1447 -0.4132 -0.0836
  118SOPE  H16X12514   5.089   0.395   4.701 -0.5712 -0.8350  0.9790
  118SOPE  H16Y12515   5.231   0.299   4.748  0.4964 -0.1606  0.1868
  118SOPE  C31712516   5.278   0.498   4.654  0.1436  0.1428 -0.4668
  118SOPE  H17X12517   5.355   0.527   4.730 -1.6908  3.2860  0.3912
  118SOPE  H17Y12518   5.219   0.591   4.636 -2.4911 -1.1294  1.0478
  118SOPE  C31812519   5.309   0.433   4.525 -0.3308  0.3292  0.3818
  118SOPE  H18X12520   5.368   0.342   4.550  0.4626  1.2331  1.8840
  118SOPE  H18Y12521   5.373   0.494   4.458  3.7115 -2.8097  0.9893
  118SOPE  H18Z12522   5.218   0.401   4.469 -0.5875  0.3648  0.7745
  119SOPE     N12523   1.479   1.328   7.052  0.1791  0.1333  0.4895
  119SOPE   HN112524   1.442   1.273   7.132  2.7573 -2.0221  0.3707
  119SOPE   HN212525   1.575   1.352   7.082 -0.5235  2.3635  1.0925
  119SOPE   HN312526   1.422   1.414   7.042  0.0901 -0.0179 -0.4155
  119SOPE   C1212527   1.465   1.228   6.934 -0.3939  0.6346 -0.1246
  119SOPE  H12A12528   1.503   1.130   6.973 -1.1376  0.7102  0.8073
  119SOPE  H12B12529   1.543   1.263   6.862  0.6086  1.5122  1.3406
  119SOPE   C1112530   1.324   1.203   6.878 -0.3076  0.3577 -0.0289
  119SOPE  H11A12531   1.288   1.128   6.951 -0.4482 -1.5086 -1.9023
  119SOPE  H11B12532   1.328   1.161   6.775  0.0853 -0.0543  0.1486
  119SOPE     P12533   1.091   1.326   6.854 -0.1445 -0.1558 -0.3310
  119SOPE   O1312534   1.062   1.473   6.844 -0.3404 -0.2112  0.2030
  119SOPE   O1412535   1.011   1.241   6.945 -0.1762 -0.4356  0.1280
  119SOPE   O1212536   1.250   1.319   6.882  0.0604 -0.2292 -1.0477
  119SOPE   O1112537   1.081   1.251   6.712 -0.0475 -0.0707 -0.1881
  119SOPE    C112538   1.166   1.295   6.601 -0.1073 -0.1211 -0.0692
  119SOPE    HA12539   1.182   1.206   6.537  0.3657 -1.4378  1.7829
  119SOPE    HB12540   1.266   1.325   6.640  0.0346 -1.9583  1.0973
  119SOPE    C212541   1.107   1.404   6.512 -0.0497 -0.5805 -0.3324
  119SOPE    HS12542   1.113   1.501   6.566 -2.0343  0.4861 -1.9064
  119SOPE   O2112543   0.971   1.358   6.470  0.0814 -0.2770 -0.3083
  119SOPE   C2112544   0.907   1.450   6.410 -0.0944  0.1910  0.2269
  119SOPE   O2212545   0.932   1.570   6.420 -0.0436 -0.4160  0.1677
  119SOPE   C2212546   0.809   1.381   6.319  0.4647  0.1808 -0.1872
  119SOPE   H2R12547   0.718   1.364   6.382  2.0333  0.6807  2.3538
  119SOPE   H2S12548   0.852   1.285   6.285 -1.5265 -0.8516  0.0318
  119SOPE    C312549   1.191   1.419   6.384  0.0523  0.0832 -0.1558
  119SOPE    HX12550   1.298   1.410   6.411  0.5174  0.3061 -1.7854
  119SOPE    HY12551   1.178   1.523   6.345  0.6340  0.2114 -0.0263
  119SOPE   O3112552   1.167   1.319   6.282  0.1761  0.6008 -0.4700
  119SOPE   C3112553   1.245   1.323   6.174  1.0839 -0.0566 -0.0618
  119SOPE   O3212554   1.319   1.408   6.143  0.0944 -0.1415  0.0050
  119SOPE   C3212555   1.217   1.198   6.085 -0.0868  0.5226  0.2331
  119SOPE   H2X12556   1.108   1.184   6.099 -0.3355  2.3769  0.4639
  119SOPE   H2Y12557   1.272   1.111   6.127 -0.7387 -0.0488 -0.0742
  119SOPE   C2312558   0.751   1.469   6.209 -0.3853 -0.3204  0.0668
  119SOPE   H3R12559   0.692   1.553   6.250 -0.3538 -0.3888  0.2517
  119SOPE   H3S12560   0.676   1.411   6.151 -0.4027  1.4966 -1.8630
  119SOPE   C2412561   0.851   1.508   6.100 -0.2042 -0.4057  0.3708
  119SOPE   H4R12562   0.943   1.448   6.117  0.9381  1.4041  0.8698
  119SOPE   H4S12563   0.805   1.485   6.001  0.7351 -3.1055  0.4808
  119SOPE   C2512564   0.885   1.653   6.102 -0.2222 -0.3590 -0.0002
  119SOPE   H5R12565   0.794   1.717   6.100 -0.8119 -1.1898 -2.3310
  119SOPE   H5S12566   0.941   1.663   6.198 -0.3656 -0.1048  0.0593
  119SOPE   C2612567   0.969   1.693   5.978  0.4612  0.1408  0.1611
  119SOPE   H6R12568   0.916   1.669   5.883  1.1445  0.7204 -0.3818
  119SOPE   H6S12569   0.989   1.802   5.985 -0.2205  0.5417 -2.7405
  119SOPE   C2712570   1.108   1.629   5.961  0.8462  0.0456  0.2210
  119SOPE   H7R12571   1.147   1.638   6.065  0.4667 -1.7259  0.5452
  119SOPE   H7S12572   1.097   1.519   5.953  0.7089  0.0165  0.7530
  119SOPE   C2812573   1.202   1.686   5.853  0.5547  0.5178 -0.1462
  119SOPE   H8R12574   1.212   1.794   5.877 -1.7915  0.3473  1.9939
  119SOPE   H8S12575   1.304   1.647   5.873 -0.3130 -0.7955  2.1740
  119SOPE   C2912576   1.168   1.683   5.707  0.0875  0.6149  0.5163
  119SOPE   H9112577   1.140   1.783   5.671 -1.5216  0.7009  1.8723
  119SOPE  C21012578   1.178   1.593   5.610  1.0281 -0.2145 -0.0223
  119SOPE  H10112579   1.128   1.635   5.521  1.0831 -0.6237 -0.2490
  119SOPE  C21112580   1.214   1.447   5.611  0.1167  0.3697  0.1620
  119SOPE  H11R12581   1.138   1.374   5.579  1.0343  0.4759 -2.4509
  119SOPE  H11S12582   1.246   1.413   5.712  2.1228 -0.8446 -0.8164
  119SOPE  C21212583   1.331   1.433   5.509  0.5063 -0.6322  0.3531
  119SOPE  H12R12584   1.376   1.331   5.506 -1.8251 -1.7466  0.8049
  119SOPE  H12S12585   1.412   1.508   5.522  0.1825  0.1463 -1.7637
  119SOPE  C21312586   1.284   1.454   5.365  0.2516  0.2930  0.2242
  119SOPE  H13R12587   1.260   1.562   5.348  1.3548  0.5643  0.3171
  119SOPE  H13S12588   1.196   1.393   5.334  0.9927 -0.8750  0.3656
  119SOPE  C21412589   1.390   1.420   5.260  0.4102  0.1016 -0.3544
  119SOPE  H14R12590   1.411   1.311   5.270 -2.3569 -0.4129  0.8779
  119SOPE  H14S12591   1.487   1.466   5.289  0.7934 -0.4281 -0.7805
  119SOPE  C21512592   1.353   1.438   5.112 -0.9081  0.0814 -0.3065
  119SOPE  H15R12593   1.327   1.546   5.100 -2.2185 -0.0811  0.8039
  119SOPE  H15S12594   1.263   1.377   5.091  1.0398 -2.2887 -2.4689
  119SOPE  C21612595   1.463   1.398   5.017 -0.4587  0.0800  0.5377
  119SOPE  H16R12596   1.440   1.442   4.918 -0.1134 -0.6416  0.1268
  119SOPE  H16S12597   1.462   1.289   4.998 -0.8996 -0.1564  1.8148
  119SOPE  C21712598   1.608   1.440   5.063 -0.6600 -0.1853 -0.2096
  119SOPE  H17R12599   1.674   1.401   4.984  2.7290  1.8728  1.3563
  119SOPE  H17S12600   1.632   1.402   5.165 -0.8728  0.1910 -0.0132
  119SOPE  C21812601   1.631   1.593   5.070  0.2910 -0.1365 -0.0210
  119SOPE  H18R12602   1.582   1.640   4.983  2.6815 -1.0814 -1.9939
  119SOPE  H18S12603   1.741   1.611   5.063  0.3448 -0.9459 -1.7307
  119SOPE  H18T12604   1.582   1.638   5.159 -0.0398 -0.3984 -0.0680
  119SOPE   C3312605   1.270   1.226   5.940 -0.1441 -0.1308 -0.5429
  119SOPE   H3X12606   1.216   1.315   5.902 -1.9141 -0.9797 -0.1155
  119SOPE   H3Y12607   1.226   1.148   5.874 -0.2090  1.2099 -2.1532
  119SOPE   C3412608   1.425   1.223   5.927 -0.0801 -0.7949  0.0406
  119SOPE   H4X12609   1.462   1.135   5.984  2.0103 -0.1771 -0.2973
  119SOPE   H4Y12610   1.458   1.324   5.961  2.5870 -1.4597 -0.3601
  119SOPE   C3512611   1.469   1.213   5.781 -0.7662  0.3626  0.3652
  119SOPE   H5X12612   1.423   1.303   5.735 -3.1154 -0.1152  1.5762
  119SOPE   H5Y12613   1.430   1.116   5.742 -0.5089  0.4042 -0.0021
  119SOPE   C3612614   1.622   1.212   5.758  0.0166 -0.7456 -0.0926
  119SOPE   H6X12615   1.639   1.189   5.651  1.2822  2.2475 -0.6304
  119SOPE   H6Y12616   1.662   1.133   5.825 -0.4138 -0.6038  0.3377
  119SOPE   C3712617   1.692   1.349   5.787  0.2599  0.2888  0.0353
  119SOPE   H7X12618   1.802   1.334   5.776  0.1311 -1.5098  0.8583
  119SOPE   H7Y12619   1.658   1.380   5.888 -3.3156 -1.6572 -0.4113
  119SOPE   C3812620   1.650   1.451   5.675  0.3506 -0.6482  0.6049
  119SOPE   H8X12621   1.542   1.471   5.695 -0.0773  0.7274 -2.5262
  119SOPE   H8Y12622   1.656   1.408   5.573 -1.5377  0.1199  0.1201
  119SOPE   C3912623   1.717   1.586   5.689  0.5480  0.1639 -0.2899
  119SOPE   H9X12624   1.827   1.579   5.678  0.8203  3.3924 -0.7124
  119SOPE   H9Y12625   1.695   1.628   5.790 -3.2117  1.8321 -1.6222
  119SOPE  C31012626   1.678   1.683   5.578  0.1874  0.5946 -0.6959
  119SOPE  H10X12627   1.572   1.715   5.590 -0.2590 -1.1032  0.1576
  119SOPE  H10Y12628   1.678   1.630   5.481  2.4604 -0.3107 -0.2616
  119SOPE  C31112629   1.752   1.815   5.583  1.4094  0.4903 -0.5891
  119SOPE  H11X12630   1.859   1.807   5.612  0.9812 -0.3757  0.8318
  119SOPE  H11Y12631   1.706   1.883   5.657  1.1678  1.1323 -1.3144
  119SOPE  C31212632   1.761   1.892   5.452 -0.1629  0.6552 -0.0051
  119SOPE  H12X12633   1.708   1.829   5.377  0.5352  0.2687 -0.1806
  119SOPE  H12Y12634   1.865   1.880   5.416  0.0811  0.6388  0.7037
  119SOPE  C31312635   1.707   2.037   5.455  0.3608  0.0769 -0.1613
  119SOPE  H13X12636   1.776   2.096   5.519 -1.8604  0.5647  1.9523
  119SOPE  H13Y12637   1.605   2.030   5.499 -0.0724  0.8337 -1.0243
  119SOPE  C31412638   1.696   2.104   5.314 -0.0807 -0.1051 -0.2627
  119SOPE  H14X12639   1.795   2.111   5.264  1.1156  0.4352  2.0274
  119SOPE  H14Y12640   1.666   2.210   5.328 -0.1974 -0.1859  0.1214
  119SOPE  C31512641   1.606   2.034   5.224  0.1160  0.3655  0.0118
  119SOPE  H15X12642   1.504   2.017   5.266  0.6455 -2.0051  0.4778
  119SOPE  H15Y12643   1.634   1.929   5.200  0.6899  0.3809  0.5887
  119SOPE  C31612644   1.583   2.105   5.084 -0.1206 -0.1236  0.2235
  119SOPE  H16X12645   1.538   2.206   5.099  1.8922  0.5364  2.5020
  119SOPE  H16Y12646   1.514   2.034   5.035  1.0711 -1.4890  0.4686
  119SOPE  C31712647   1.716   2.133   4.996 -0.5781 -0.4645 -0.1332
  119SOPE  H17X12648   1.767   2.219   5.045 -3.4296  0.6264  1.1251
  119SOPE  H17Y12649   1.694   2.174   4.895 -1.3890  0.3458  0.3520
  119SOPE  C31812650   1.806   2.010   4.985 -0.0644 -0.2373  0.1876
  119SOPE  H18X12651   1.849   1.980   5.083  2.1696 -1.2504 -1.0223
  119SOPE  H18Y12652   1.892   2.033   4.920  0.3691  1.7876  1.4151
  119SOPE  H18Z12653   1.751   1.924   4.940  0.6703  0.1676 -1.5629
  120SOPE     N12654   1.753   4.068   7.051  0.1111  0.6282 -0.0203
  120SOPE   HN112655   1.810   4.024   6.976 -0.2230 -0.9144  0.5911
  120SOPE   HN212656   1.790   4.049   7.146  0.0625  0.9994  0.0728
  120SOPE   HN312657   1.661   4.020   7.043  0.1764  0.2087  1.5604
  120SOPE   C1212658   1.750   4.215   7.030  0.8318 -0.7642  0.4874
  120SOPE  H12A12659   1.852   4.259   7.022  1.1163 -1.2708  1.2872
  120SOPE  H12B12660   1.704   4.266   7.117  1.5707  1.2937 -0.2494
  120SOPE   C1112661   1.678   4.244   6.898 -0.4659  0.0005 -0.2687
  120SOPE  H11A12662   1.733   4.203   6.810 -0.5852 -0.1294 -0.2815
  120SOPE  H11B12663   1.681   4.354   6.882  3.0567 -0.0001 -0.4591
  120SOPE     P12664   1.448   4.239   6.786  0.4281 -0.5302 -0.0007
  120SOPE   O1312665   1.480   4.374   6.744 -0.2532 -0.2378 -0.3690
  120SOPE   O1412666   1.306   4.203   6.810 -0.2711  0.0514 -0.1615
  120SOPE   O1212667   1.540   4.193   6.906  0.3528 -0.4189  0.1364
  120SOPE   O1112668   1.507   4.137   6.685  0.2810 -0.0564 -0.4190
  120SOPE    C112669   1.457   4.104   6.554  0.0748 -0.7426  0.2969
  120SOPE    HA12670   1.351   4.072   6.552 -1.0822  2.5789  1.1334
  120SOPE    HB12671   1.510   4.013   6.519  0.8363 -0.7362  1.3681
  120SOPE    C212672   1.463   4.213   6.448  0.2927  0.6671 -0.0670
  120SOPE    HS12673   1.565   4.256   6.456  0.8160 -0.2499 -1.3602
  120SOPE   O2112674   1.355   4.304   6.478  0.4346 -0.1008 -0.4725
  120SOPE   C2112675   1.389   4.439   6.450  0.7946  0.2057 -0.1481
  120SOPE   O2212676   1.505   4.472   6.443 -0.2010 -0.1432  0.2320
  120SOPE   C2212677   1.267   4.521   6.422 -0.6072  0.4435 -0.3632
  120SOPE   H2R12678   1.189   4.484   6.491 -2.4156  1.6811 -1.6386
  120SOPE   H2S12679   1.230   4.497   6.320  1.3006  3.1971 -1.8449
  120SOPE    C312680   1.438   4.158   6.310  0.2240  0.1601 -0.5652
  120SOPE    HX12681   1.337   4.114   6.299  0.1246  0.1470  0.3502
  120SOPE    HY12682   1.512   4.076   6.292  0.9368  0.7632 -0.4561
  120SOPE   O3112683   1.462   4.265   6.217  0.2115  0.2477  0.0284
  120SOPE   C3112684   1.589   4.287   6.176  0.0031 -0.1804  0.0589
  120SOPE   O3212685   1.692   4.245   6.221  0.3273 -0.1102 -0.1602
  120SOPE   C3212686   1.585   4.390   6.063  0.0984 -0.7047 -0.5526
  120SOPE   H2X12687   1.693   4.396   6.041  0.4839 -1.9589  0.7932
  120SOPE   H2Y12688   1.538   4.483   6.102  0.9033 -0.6280  0.2696
  120SOPE   C2312689   1.290   4.674   6.438  0.3575 -0.0520 -0.0110
  120SOPE   H3R12690   1.326   4.708   6.538 -0.8134 -1.8067  1.0582
  120SOPE   H3S12691   1.189   4.720   6.434  0.0432 -0.6795  0.5598
  120SOPE   C2412692   1.375   4.738   6.331 -0.0352 -0.0560 -0.4270
  120SOPE   H4R12693   1.440   4.818   6.372 -0.5510 -0.2577  0.8006
  120SOPE   H4S12694   1.449   4.659   6.302  1.0522  0.1245  1.7166
  120SOPE   C2512695   1.302   4.785   6.203  0.5219  0.2084 -0.9167
  120SOPE   H5R12696   1.233   4.702   6.176 -0.4342  0.4242  0.7526
  120SOPE   H5S12697   1.242   4.876   6.225 -1.5871 -1.8401  2.8806
  120SOPE   C2612698   1.402   4.794   6.089  0.0659 -0.0810  0.6292
  120SOPE   H6R12699   1.480   4.868   6.118 -0.2311 -0.0496  1.3827
  120SOPE   H6S12700   1.445   4.692   6.081 -0.5236 -0.2530 -0.5381
  120SOPE   C2712701   1.342   4.834   5.954 -0.0966  0.2848 -0.2320
  120SOPE   H7R12702   1.289   4.930   5.973 -1.1992 -0.2566 -0.4862
  120SOPE   H7S12703   1.413   4.846   5.870 -0.8386 -0.4005 -0.9829
  120SOPE   C2812704   1.254   4.717   5.892 -1.2519 -0.6870 -0.0152
  120SOPE   H8R12705   1.322   4.631   5.875 -1.0714 -0.7037  0.7620
  120SOPE   H8S12706   1.181   4.684   5.969 -0.1622 -0.2000  1.2626
  120SOPE   C2912707   1.186   4.774   5.769  0.0628 -0.0982  0.1869
  120SOPE   H9112708   1.123   4.861   5.791  0.2774 -0.3039  1.7254
  120SOPE  C21012709   1.203   4.733   5.641 -0.4015 -0.1159  0.1862
  120SOPE  H10112710   1.140   4.766   5.556  2.1379 -3.9752 -3.5871
  120SOPE  C21112711   1.282   4.612   5.606 -0.7833 -0.8127  0.0922
  120SOPE  H11R12712   1.217   4.528   5.573  0.2182 -2.0505  1.1558
  120SOPE  H11S12713   1.328   4.559   5.693 -2.4678 -0.5032  1.2326
  120SOPE  C21212714   1.391   4.657   5.503  0.2418 -0.1974 -0.5467
  120SOPE  H12R12715   1.467   4.576   5.500  2.0860  1.4677 -0.8032
  120SOPE  H12S12716   1.444   4.739   5.556 -2.1487  0.2961  1.2319
  120SOPE  C21312717   1.346   4.698   5.362  0.4037  0.2351 -0.7373
  120SOPE  H13R12718   1.291   4.794   5.370 -3.5889 -1.9759  2.0171
  120SOPE  H13S12719   1.285   4.612   5.327  0.4344 -0.0569 -0.0944
  120SOPE  C21412720   1.467   4.713   5.264  0.4304 -0.2373  0.1024
  120SOPE  H14R12721   1.521   4.616   5.260 -0.9390 -1.1650  2.1043
  120SOPE  H14S12722   1.537   4.786   5.308 -0.5252  0.8736 -0.1736
  120SOPE  C21512723   1.421   4.762   5.131  0.5961  0.3243  0.8459
  120SOPE  H15R12724   1.455   4.867   5.120  1.4089 -0.0397 -0.3603
  120SOPE  H15S12725   1.312   4.782   5.126  0.8644  1.8858  0.8157
  120SOPE  C21612726   1.461   4.681   5.003 -0.1100 -0.7448  0.2865
  120SOPE  H16R12727   1.423   4.737   4.915  1.5861  1.0407  0.6169
  120SOPE  H16S12728   1.412   4.581   4.996 -3.7514  0.9930 -3.0115
  120SOPE  C21712729   1.620   4.663   4.999  0.2188  0.5672 -0.2892
  120SOPE  H17R12730   1.649   4.613   4.904 -2.9728 -1.5081 -0.3210
  120SOPE  H17S12731   1.655   4.604   5.085 -0.8543  1.2514  0.6520
  120SOPE  C21812732   1.692   4.792   4.989 -0.2885  0.1433  0.0831
  120SOPE  H18R12733   1.651   4.841   4.898 -1.5608 -1.2074 -0.1175
  120SOPE  H18S12734   1.802   4.790   4.983 -0.2523 -0.2732  0.8259
  120SOPE  H18T12735   1.658   4.865   5.066 -1.5937 -2.0941  1.7556
  120SOPE   C3312736   1.496   4.359   5.937  0.2307 -0.1050  0.1253
  120SOPE   H3X12737   1.510   4.449   5.873  2.2695  2.0690  3.3136
  120SOPE   H3Y12738   1.393   4.349   5.979  0.9711  1.9785  2.7039
  120SOPE   C3412739   1.539   4.226   5.864 -0.8630 -0.8511  0.1398
  120SOPE   H4X12740   1.448   4.173   5.827 -1.7992  0.6078  0.2850
  120SOPE   H4Y12741   1.583   4.159   5.941 -1.5335 -3.1237 -1.3315
  120SOPE   C3512742   1.630   4.237   5.743 -0.7407  0.4034  0.1497
  120SOPE   H5X12743   1.651   4.129   5.723 -2.0783 -0.6588  3.6933
  120SOPE   H5Y12744   1.716   4.301   5.771 -0.7779  0.7041 -0.4190
  120SOPE   C3612745   1.566   4.300   5.619 -0.5291  0.5667  0.1467
  120SOPE   H6X12746   1.552   4.409   5.638  0.5661  0.4342  1.9466
  120SOPE   H6Y12747   1.470   4.248   5.600  0.3134 -0.4576 -1.5747
  120SOPE   C3712748   1.661   4.281   5.503  0.1638  0.2179 -0.7138
  120SOPE   H7X12749   1.697   4.176   5.497 -0.4682 -0.0304 -0.3318
  120SOPE   H7Y12750   1.755   4.334   5.530 -0.6686  1.6734 -0.6064
  120SOPE   C3812751   1.599   4.308   5.363  0.7375 -0.1569 -0.5398
  120SOPE   H8X12752   1.567   4.412   5.340  2.0985 -0.0357 -2.0583
  120SOPE   H8Y12753   1.496   4.266   5.362 -0.9177  3.5154 -1.8075
  120SOPE   C3912754   1.673   4.241   5.246 -0.5852 -0.5052 -0.0704
  120SOPE   H9X12755   1.667   4.131   5.260 -1.0066 -0.3059  1.5379
  120SOPE   H9Y12756   1.779   4.272   5.232 -0.7724  1.0789  1.6095
  120SOPE  C31012757   1.598   4.255   5.107 -1.1811  0.8631  0.1862
  120SOPE  H10X12758   1.597   4.361   5.075 -1.2480  0.2584 -1.9551
  120SOPE  H10Y12759   1.492   4.226   5.123 -0.7502  0.1609  2.0701
  120SOPE  C31112760   1.674   4.192   4.981 -0.3466 -0.0340  0.2877
  120SOPE  H11X12761   1.652   4.085   5.004 -2.2227  0.2409 -0.0700
  120SOPE  H11Y12762   1.783   4.202   4.999 -0.6171  0.7121  1.5875
  120SOPE  C31212763   1.624   4.249   4.848  0.1774 -0.4410  0.7263
  120SOPE  H12X12764   1.613   4.357   4.869  1.6769 -0.4161  1.4663
  120SOPE  H12Y12765   1.520   4.218   4.825 -0.0157  0.1826  0.7420
  120SOPE  C31312766   1.728   4.222   4.733  0.6940  0.4656  0.0828
  120SOPE  H13X12767   1.732   4.112   4.718  0.0246  0.1503  1.9915
  120SOPE  H13Y12768   1.828   4.259   4.765  0.5371 -0.4311  1.7088
  120SOPE  C31412769   1.694   4.290   4.601 -0.3719 -0.2589 -0.1120
  120SOPE  H14X12770   1.684   4.400   4.608  0.8388  0.0993 -2.7460
  120SOPE  H14Y12771   1.600   4.251   4.556 -1.9783 -0.5530  3.1780
  120SOPE  C31512772   1.822   4.269   4.514  0.7431  0.2318 -0.6775
  120SOPE  H15X12773   1.903   4.329   4.561  0.4345 -0.7965  1.3194
  120SOPE  H15Y12774   1.804   4.302   4.410 -1.7206  1.4536  0.0573
  120SOPE  C31612775   1.881   4.125   4.507  0.0676  0.1058  0.3240
  120SOPE  H16X12776   1.788   4.064   4.505 -0.5043  0.8231 -3.3488
  120SOPE  H16Y12777   1.931   4.104   4.603  1.5538 -1.2652 -0.6888
  120SOPE  C31712778   1.964   4.096   4.375  0.4838  0.6674  0.5730
  120SOPE  H17X12779   2.047   4.170   4.376 -0.6608  2.0310 -0.7936
  120SOPE  H17Y12780   1.904   4.126   4.287  0.7908  2.2994  0.8753
  120SOPE  C31812781   2.008   3.950   4.348  0.2816 -0.1477 -0.4992
  120SOPE  H18X12782   2.068   3.938   4.255  0.1690 -1.4573 -0.4258
  120SOPE  H18Y12783   1.920   3.884   4.328  0.1061 -0.1115  0.1490
  120SOPE  H18Z12784   2.068   3.915   4.435 -0.9014  0.0882  0.4298
  121SOPE     N12785   1.035   4.378   6.865 -0.5108 -0.0546 -0.3579
  121SOPE   HN112786   1.072   4.291   6.910 -0.0680 -0.6975 -1.9072
  121SOPE   HN212787   0.976   4.430   6.933 -0.4762  1.1466 -1.2215
  121SOPE   HN312788   0.962   4.345   6.799 -1.0456 -0.8293  0.5896
  121SOPE   C1212789   1.131   4.482   6.801  0.7366 -0.5314  0.0500
  121SOPE  H12A12790   1.199   4.434   6.728  0.7695  1.8337 -1.5761
  121SOPE  H12B12791   1.194   4.524   6.882  1.3191 -1.6949  0.2266
  121SOPE   C1112792   1.055   4.594   6.726  0.6313  0.1208 -0.2307
  121SOPE  H11A12793   1.003   4.560   6.634  2.3485 -0.1271 -1.1416
  121SOPE  H11B12794   1.130   4.666   6.687  1.7298 -1.1871 -0.6186
  121SOPE     P12795   0.957   4.815   6.822  0.3023 -0.2824  0.1358
  121SOPE   O1312796   1.082   4.863   6.885 -0.3481 -0.9001  0.2061
  121SOPE   O1412797   0.839   4.856   6.902  0.0305 -0.0648 -0.2974
  121SOPE   O1212798   0.964   4.662   6.818 -0.4483 -0.6914 -0.5196
  121SOPE   O1112799   0.951   4.839   6.667  0.0936 -0.1440 -0.8107
  121SOPE    C112800   0.884   4.947   6.603 -0.4711 -0.0018 -0.5207
  121SOPE    HA12801   0.876   5.036   6.668  0.5705 -0.2294 -0.0596
  121SOPE    HB12802   0.776   4.927   6.591 -0.8684  1.0611  1.0938
  121SOPE    C212803   0.961   4.984   6.477 -0.0050  0.0241 -0.0800
  121SOPE    HS12804   0.919   5.079   6.438 -1.8875  0.2286  2.2186
  121SOPE   O2112805   0.970   4.885   6.377  0.1310  0.1552  0.6668
  121SOPE   C2112806   0.850   4.858   6.318 -0.7716  0.2930  0.7611
  121SOPE   O2212807   0.743   4.909   6.346  0.1976 -0.4196 -0.0675
  121SOPE   C2212808   0.884   4.770   6.201  0.2420  0.1849 -0.7814
  121SOPE   H2R12809   0.817   4.681   6.199 -1.1575  1.2288 -1.8404
  121SOPE   H2S12810   0.989   4.736   6.217 -0.2561 -0.9574  0.2158
  121SOPE    C312811   1.104   5.013   6.516 -0.3897  0.2348  0.9362
  121SOPE    HX12812   1.153   4.913   6.515  3.0364  1.7073  2.6141
  121SOPE    HY12813   1.127   5.058   6.615 -1.3604 -1.1572  1.8260
  121SOPE   O3112814   1.160   5.097   6.406  0.0177  0.0967 -0.2091
  121SOPE   C3112815   1.292   5.102   6.413 -0.5704 -0.3460 -0.4769
  121SOPE   O3212816   1.361   5.031   6.479 -0.5182 -0.0165 -0.6330
  121SOPE   C3212817   1.338   5.203   6.310 -0.2274  0.1029  0.4494
  121SOPE   H2X12818   1.291   5.299   6.342 -1.3587 -0.9377  2.1183
  121SOPE   H2Y12819   1.299   5.171   6.212 -0.2325  2.5229 -0.4144
  121SOPE   C2312820   0.847   4.840   6.075 -0.5735 -0.0498  0.5691
  121SOPE   H3R12821   0.915   4.928   6.067 -0.7508  0.0552  0.2145
  121SOPE   H3S12822   0.740   4.868   6.073 -0.4106  0.5693 -1.5019
  121SOPE   C2412823   0.874   4.752   5.948 -0.1369 -0.5529 -0.8776
  121SOPE   H4R12824   0.984   4.739   5.942  0.3684  1.4567  2.0785
  121SOPE   H4S12825   0.831   4.651   5.965  2.0841 -1.2837  0.8032
  121SOPE   C2512826   0.806   4.803   5.823 -0.0205  0.2275 -0.2342
  121SOPE   H5R12827   0.704   4.839   5.849  1.1627  2.5465  1.5327
  121SOPE   H5S12828   0.860   4.893   5.786  0.1325  0.5984  0.8820
  121SOPE   C2612829   0.788   4.696   5.722 -0.3930  0.5010 -0.1261
  121SOPE   H6R12830   0.887   4.658   5.691  0.4258  2.2476  0.2560
  121SOPE   H6S12831   0.737   4.621   5.787 -0.7027  0.2864 -0.6143
  121SOPE   C2712832   0.703   4.736   5.599 -0.2694 -0.0564 -0.4321
  121SOPE   H7R12833   0.652   4.649   5.554 -0.3749 -0.5571  0.6462
  121SOPE   H7S12834   0.619   4.805   5.620 -1.9495 -1.9165 -0.8145
  121SOPE   C2812835   0.797   4.799   5.488  0.2237 -0.0150  0.3055
  121SOPE   H8R12836   0.731   4.856   5.418  0.9848  0.6124  0.0815
  121SOPE   H8S12837   0.851   4.890   5.522 -0.4492  0.2024  0.8168
  121SOPE   C2912838   0.885   4.703   5.415  0.1328  0.1410 -1.0643
  121SOPE   H9112839   0.901   4.608   5.467  0.0971 -0.7964 -2.7005
  121SOPE  C21012840   0.935   4.728   5.297  0.1733 -0.1889 -0.0670
  121SOPE  H10112841   0.988   4.651   5.238 -1.0089  0.9014 -2.7409
  121SOPE  C21112842   0.901   4.857   5.222 -0.0183  0.1186  0.3980
  121SOPE  H11R12843   0.893   4.940   5.295 -0.5833  1.3917 -1.0412
  121SOPE  H11S12844   0.805   4.845   5.166  1.5603 -0.5722 -2.3677
  121SOPE  C21212845   1.003   4.900   5.116  0.3329 -0.0263  0.2877
  121SOPE  H12R12846   1.101   4.852   5.140  0.5082  0.3271  0.2759
  121SOPE  H12S12847   1.026   5.008   5.120 -1.5613  0.3951  0.9931
  121SOPE  C21312848   0.956   4.862   4.975 -0.1942  0.6496 -0.3940
  121SOPE  H13R12849   0.857   4.907   4.950  0.5214  2.0631 -0.8427
  121SOPE  H13S12850   0.945   4.752   4.971  3.7783  0.1325 -2.0661
  121SOPE  C21412851   1.057   4.902   4.857 -0.2100 -0.1659 -0.4585
  121SOPE  H14R12852   1.155   4.871   4.900 -1.1860  0.3629  2.4073
  121SOPE  H14S12853   1.061   5.013   4.852  1.3975 -0.0262  2.1281
  121SOPE  C21512854   1.037   4.832   4.729  0.6377  0.2779  0.2706
  121SOPE  H15R12855   0.992   4.730   4.735  2.1942 -0.4921 -0.5155
  121SOPE  H15S12856   1.138   4.828   4.683  0.3138  0.5448 -0.4733
  121SOPE  C21612857   0.948   4.912   4.628  0.1593  0.2538 -0.6419
  121SOPE  H16R12858   0.944   4.873   4.524 -2.3601  0.9021 -0.8731
  121SOPE  H16S12859   0.981   5.018   4.621 -0.4356  0.3645 -2.6114
  121SOPE  C21712860   0.799   4.930   4.675 -1.1546  0.7532 -0.1661
  121SOPE  H17R12861   0.782   4.984   4.770  0.1511 -1.0733  1.1939
  121SOPE  H17S12862   0.762   4.828   4.700  0.3118  0.6835  1.9897
  121SOPE  C21812863   0.725   4.988   4.556  0.9949  0.0895 -0.2438
  121SOPE  H18R12864   0.615   4.969   4.563  0.4407  2.8275 -0.5900
  121SOPE  H18S12865   0.752   4.936   4.462 -1.4733  1.4400 -1.8025
  121SOPE  H18T12866   0.741   5.097   4.544  0.3180  0.4442  1.7125
  121SOPE   C3312867   1.493   5.218   6.299 -0.4337  0.4194  0.2363
  121SOPE   H3X12868   1.543   5.122   6.277 -1.3815  0.1551 -0.8921
  121SOPE   H3Y12869   1.524   5.259   6.397  0.7303 -0.3863  0.2215
  121SOPE   C3412870   1.536   5.329   6.192 -0.4493 -0.2263  0.0103
  121SOPE   H4X12871   1.635   5.369   6.220  0.8747 -1.6874 -2.3091
  121SOPE   H4Y12872   1.465   5.414   6.200  1.7956  1.9220 -1.6226
  121SOPE   C3512873   1.550   5.273   6.055 -0.4847 -0.4572  0.1853
  121SOPE   H5X12874   1.458   5.219   6.023 -0.4436  0.4298 -1.5543
  121SOPE   H5Y12875   1.630   5.197   6.065  0.6963  0.6844 -0.3277
  121SOPE   C3612876   1.598   5.373   5.952 -0.0586  0.1820 -0.1402
  121SOPE   H6X12877   1.598   5.314   5.857 -0.5782 -1.9570  1.1330
  121SOPE   H6Y12878   1.700   5.402   5.985  0.5643 -2.1388  0.1338
  121SOPE   C3712879   1.518   5.511   5.929 -0.0244 -0.0625  0.4096
  121SOPE   H7X12880   1.532   5.564   6.025  0.3548  0.4592  0.0693
  121SOPE   H7Y12881   1.410   5.486   5.914  0.5709 -1.8960 -1.2077
  121SOPE   C3812882   1.579   5.596   5.811 -0.5242 -0.6296 -0.4290
  121SOPE   H8X12883   1.582   5.544   5.712 -0.1883  0.1242 -0.8227
  121SOPE   H8Y12884   1.685   5.613   5.837 -0.3248 -0.2301 -1.4482
  121SOPE   C3912885   1.508   5.728   5.771 -0.6263 -0.5314  0.2435
  121SOPE   H9X12886   1.490   5.799   5.855 -1.5118 -1.0529  0.5025
  121SOPE   H9Y12887   1.402   5.710   5.745 -0.6524 -1.0752  0.7078
  121SOPE  C31012888   1.586   5.792   5.661 -0.2269  0.3012 -0.2072
  121SOPE  H10X12889   1.690   5.758   5.679  0.2730  2.6046  1.8395
  121SOPE  H10Y12890   1.591   5.903   5.659  0.2900  0.2678 -2.2140
  121SOPE  C31112891   1.553   5.761   5.514 -0.4553 -0.2138 -0.3172
  121SOPE  H11X12892   1.531   5.653   5.507 -2.4226  0.0210  1.0904
  121SOPE  H11Y12893   1.642   5.791   5.456 -0.8383 -0.5381 -1.0780
  121SOPE  C31212894   1.426   5.835   5.474  0.2696  0.2622  0.6707
  121SOPE  H12X12895   1.436   5.945   5.490 -0.8653  0.2960  1.1891
  121SOPE  H12Y12896   1.341   5.797   5.535 -0.6797  0.3950 -0.5428
  121SOPE  C31312897   1.392   5.830   5.327 -0.0137  0.0993  0.5964
  121SOPE  H13X12898   1.346   5.732   5.302 -1.5392  1.1696 -0.9401
  121SOPE  H13Y12899   1.482   5.847   5.264  0.1005  3.1777  1.4582
  121SOPE  C31412900   1.299   5.940   5.281 -0.1984  0.1750 -0.1483
  121SOPE  H14X12901   1.341   6.038   5.314  1.1026 -0.4158  0.0384
  121SOPE  H14Y12902   1.206   5.926   5.341 -1.2167  2.7143 -1.0091
  121SOPE  C31512903   1.271   5.946   5.126  0.1260 -0.1881 -0.9958
  121SOPE  H15X12904   1.224   5.849   5.098 -3.9108  1.0671  0.6190
  121SOPE  H15Y12905   1.365   5.966   5.072  0.5087 -0.4361 -0.4324
  121SOPE  C31612906   1.161   6.055   5.089  0.1775 -0.0038  0.2358
  121SOPE  H16X12907   1.211   6.153   5.091  2.4810 -1.1170 -0.0511
  121SOPE  H16Y12908   1.075   6.048   5.160  0.5112 -0.0924  0.6320
  121SOPE  C31712909   1.099   6.035   4.951  0.2992 -0.3592  0.4795
  121SOPE  H17X12910   1.178   6.035   4.873 -0.0006 -1.7179  0.1458
  121SOPE  H17Y12911   1.032   6.116   4.915 -1.2714 -1.9091 -0.2487
  121SOPE  C31812912   1.016   5.905   4.933  0.2595 -0.5775 -0.1921
  121SOPE  H18X12913   0.965   5.888   5.030  0.5777 -0.5482 -0.0196
  121SOPE  H18Y12914   1.073   5.811   4.919  0.1072 -0.9405  1.4504
  121SOPE  H18Z12915   0.933   5.914   4.859 -0.1602 -0.6165  0.2654
  122SOPE     N12916   0.774   2.716   6.849  0.8637 -0.2424  0.1361
  122SOPE   HN112917   0.726   2.624   6.853  1.0333 -0.3075  0.6918
  122SOPE   HN212918   0.877   2.709   6.836  1.1907  0.9825  1.7934
  122SOPE   HN312919   0.758   2.771   6.936  2.9680  1.7157 -0.6200
  122SOPE   C1212920   0.716   2.800   6.737  0.3922  0.9679  0.9382
  122SOPE  H12A12921   0.608   2.802   6.761 -0.1190 -0.2750 -1.0232
  122SOPE  H12B12922   0.734   2.732   6.651 -0.5177 -0.4143  1.8051
  122SOPE   C1112923   0.777   2.935   6.726  0.2799 -1.1719  0.6989
  122SOPE  H11A12924   0.726   2.994   6.647  0.0005 -0.7412  1.1960
  122SOPE  H11B12925   0.878   2.941   6.681 -0.3547  0.0627 -0.6118
  122SOPE     P12926   0.698   3.125   6.886 -0.2820 -0.7186  0.3565
  122SOPE   O1312927   0.740   3.186   7.014  0.4887 -0.1653 -0.1772
  122SOPE   O1412928   0.557   3.094   6.870  0.0969  0.3070 -0.4234
  122SOPE   O1212929   0.780   2.997   6.858  0.0498 -0.4769  0.5258
  122SOPE   O1112930   0.738   3.211   6.760  0.5177  0.3580  0.5623
  122SOPE    C112931   0.876   3.249   6.744 -0.7300 -0.4071 -0.1700
  122SOPE    HA12932   0.940   3.163   6.714  0.1632 -0.2161  1.1092
  122SOPE    HB12933   0.928   3.302   6.826 -0.5845  1.4849 -1.4168
  122SOPE    C212934   0.893   3.361   6.630 -0.4657  0.0841 -0.4675
  122SOPE    HS12935   0.804   3.423   6.657  0.5910  1.4671 -0.0322
  122SOPE   O2112936   0.879   3.289   6.503 -0.2575 -0.6928  0.2503
  122SOPE   C2112937   0.810   3.366   6.420 -0.9818  0.7288  0.5913
  122SOPE   O2212938   0.779   3.479   6.440  0.1460 -0.2325  0.2093
  122SOPE   C2212939   0.762   3.269   6.308  1.1326  0.3434  0.5753
  122SOPE   H2R12940   0.668   3.228   6.350  1.1392 -0.8093 -0.4858
  122SOPE   H2S12941   0.835   3.186   6.292  0.4855  0.0062 -0.8085
  122SOPE    C312942   1.026   3.436   6.636  0.3307  0.5078 -0.1177
  122SOPE    HX12943   1.094   3.350   6.655 -0.4945 -0.7333 -2.3818
  122SOPE    HY12944   1.025   3.499   6.727  1.4590 -1.3299  1.2464
  122SOPE   O3112945   1.076   3.492   6.515  0.1127 -0.1712 -0.2880
  122SOPE   C3112946   1.041   3.619   6.484 -0.1259  0.3693 -0.0970
  122SOPE   O3212947   0.972   3.700   6.549  0.2578  0.2687 -0.0415
  122SOPE   C3212948   1.102   3.650   6.351 -1.1897 -0.3395  1.0627
  122SOPE   H2X12949   1.087   3.554   6.296  0.5680 -2.2719  3.7359
  122SOPE   H2Y12950   1.211   3.665   6.365 -0.9687 -0.5650 -0.2799
  122SOPE   C2312951   0.722   3.342   6.183 -0.4294 -0.2189 -0.1612
  122SOPE   H3R12952   0.815   3.374   6.132 -0.7373 -1.5741 -1.6389
  122SOPE   H3S12953   0.668   3.436   6.208  0.5770  0.4147 -0.2701
  122SOPE   C2412954   0.649   3.253   6.089 -0.1734  0.2314  0.3611
  122SOPE   H4R12955   0.702   3.165   6.046 -0.3470 -0.2142  1.0507
  122SOPE   H4S12956   0.559   3.209   6.137  0.3183 -0.0791  1.0107
  122SOPE   C2512957   0.599   3.336   5.962  0.5269  0.2546  0.3594
  122SOPE   H5R12958   0.557   3.434   5.996  0.3405  0.3034 -0.0053
  122SOPE   H5S12959   0.697   3.350   5.913  0.8103 -1.0071  0.5478
  122SOPE   C2612960   0.497   3.265   5.883  1.0342 -0.4446 -0.6639
  122SOPE   H6R12961   0.404   3.243   5.941  0.4101 -0.8716 -1.8019
  122SOPE   H6S12962   0.474   3.325   5.792 -0.3889 -0.7575 -0.5369
  122SOPE   C2712963   0.529   3.129   5.821  0.0739 -0.1946 -0.4495
  122SOPE   H7R12964   0.631   3.125   5.775  1.7309  1.5913  2.7056
  122SOPE   H7S12965   0.532   3.055   5.903  1.7808  0.8307  0.4724
  122SOPE   C2812966   0.426   3.076   5.719  0.9934  0.0260 -0.6043
  122SOPE   H8R12967   0.331   3.086   5.776  1.2958 -0.9333  0.0917
  122SOPE   H8S12968   0.438   3.145   5.633  1.3232  2.2272  1.1397
  122SOPE   C2912969   0.455   2.933   5.686  0.0903 -0.3325 -0.0389
  122SOPE   H9112970   0.477   2.871   5.775 -1.6334  0.0542  0.6939
  122SOPE  C21012971   0.462   2.877   5.561 -0.2762  0.7142  0.2069
  122SOPE  H10112972   0.467   2.768   5.554 -1.4812  0.6338  0.3638
  122SOPE  C21112973   0.442   2.950   5.429 -0.0484  1.2756  0.1390
  122SOPE  H11R12974   0.541   2.951   5.380  0.5671  1.0182  1.3203
  122SOPE  H11S12975   0.404   3.054   5.441 -2.2326  0.3833  1.6258
  122SOPE  C21212976   0.338   2.883   5.351  0.3560 -0.2412  0.6450
  122SOPE  H12R12977   0.235   2.874   5.391 -0.5484 -0.6622 -1.6430
  122SOPE  H12S12978   0.382   2.783   5.333  2.7980  0.3244  2.7536
  122SOPE  C21312979   0.314   2.963   5.223  0.0060  0.7296  0.3340
  122SOPE  H13R12980   0.413   2.995   5.184 -0.2128  1.0116  0.0048
  122SOPE  H13S12981   0.254   3.055   5.238 -0.0067  0.4714  2.0055
  122SOPE  C21412982   0.261   2.878   5.101 -0.3918  0.4293 -1.4181
  122SOPE  H14R12983   0.156   2.853   5.124 -0.6477  2.1018 -0.6129
  122SOPE  H14S12984   0.317   2.784   5.082 -1.6838 -0.6758 -0.0583
  122SOPE  C21512985   0.283   2.949   4.974 -0.0379 -0.5956  0.3008
  122SOPE  H15R12986   0.251   2.877   4.896  0.5642  0.2073 -0.7230
  122SOPE  H15S12987   0.391   2.977   4.964 -0.4119  1.0134  0.4258
  122SOPE  C21612988   0.201   3.072   4.961  0.2972  0.0887 -0.2050
  122SOPE  H16R12989   0.259   3.152   5.011 -0.9268  0.0286  1.3932
  122SOPE  H16S12990   0.103   3.067   5.013 -0.8038 -0.8925 -2.2345
  122SOPE  C21712991   0.157   3.114   4.826  0.1496 -0.5672 -0.2465
  122SOPE  H17R12992   0.111   3.026   4.777 -0.9645 -0.2623  0.2234
  122SOPE  H17S12993   0.249   3.133   4.767  1.6524 -1.7418  1.5690
  122SOPE  C21812994   0.078   3.241   4.806 -0.1501 -0.4989 -0.5600
  122SOPE  H18R12995   0.137   3.329   4.840  0.6404 -0.5444 -1.7530
  122SOPE  H18S12996  -0.026   3.239   4.845 -0.3792  1.7545 -0.9041
  122SOPE  H18T12997   0.063   3.253   4.697  0.6622 -1.3238 -0.7684
  122SOPE   C3312998   1.040   3.772   6.274  0.0289  0.3153  0.2068
  122SOPE   H3X12999   1.039   3.869   6.328 -2.8545 -0.5231  1.9067
  122SOPE   H3Y13000   0.940   3.731   6.251  0.3186 -0.7501  0.7675
  122SOPE   C3413001   1.109   3.800   6.138  0.0659  0.1940 -0.4184
  122SOPE   H4X13002   1.071   3.895   6.095  0.5126  1.1009  1.1356
  122SOPE   H4Y13003   1.075   3.722   6.067 -0.4690  0.9229 -0.9830
  122SOPE   C3513004   1.265   3.814   6.126  0.1775  0.1100 -0.7417
  122SOPE   H5X13005   1.308   3.712   6.119 -3.7453 -1.7694  0.1501
  122SOPE   H5Y13006   1.295   3.870   6.218 -1.4714 -0.3855  0.1224
  122SOPE   C3613007   1.296   3.888   5.990 -0.1252  0.1612 -0.5958
  122SOPE   H6X13008   1.384   3.953   6.006 -0.6892  1.6117 -2.8216
  122SOPE   H6Y13009   1.216   3.961   5.963 -0.1568  0.9773  1.5412
  122SOPE   C3713010   1.319   3.803   5.868  0.1168  0.3716  0.3023
  122SOPE   H7X13011   1.229   3.743   5.843  0.7804 -0.2494 -0.6687
  122SOPE   H7Y13012   1.394   3.725   5.891  0.2208  0.5477  0.5518
  122SOPE   C3813013   1.366   3.887   5.747 -0.3072  1.0311 -0.6550
  122SOPE   H8X13014   1.464   3.939   5.754  0.1089  0.2567 -0.6575
  122SOPE   H8Y13015   1.291   3.967   5.730  0.0945  1.1636 -1.9321
  122SOPE   C3913016   1.380   3.798   5.614 -0.7525 -0.1361 -0.0453
  122SOPE   H9X13017   1.291   3.731   5.608  1.0098 -2.5284 -1.2379
  122SOPE   H9Y13018   1.468   3.731   5.631 -0.1789  0.8963  1.2715
  122SOPE  C31013019   1.390   3.897   5.497  0.5482 -0.2708  0.8133
  122SOPE  H10X13020   1.470   3.973   5.509  0.1387  0.6969 -1.8007
  122SOPE  H10Y13021   1.302   3.965   5.494  1.9610  1.6977  1.6170
  122SOPE  C31113022   1.410   3.818   5.369 -0.3582  0.2992  0.1962
  122SOPE  H11X13023   1.430   3.889   5.285 -0.1874  0.2945  0.2321
  122SOPE  H11Y13024   1.320   3.762   5.336  0.8306 -2.4152  1.2925
  122SOPE  C31213025   1.535   3.736   5.367  0.0208 -0.3620  0.3966
  122SOPE  H12X13026   1.527   3.650   5.436 -0.6254 -0.8671 -0.3023
  122SOPE  H12Y13027   1.628   3.789   5.397 -0.0215 -0.8812  1.4752
  122SOPE  C31313028   1.566   3.669   5.231 -0.4501 -0.3990 -0.3441
  122SOPE  H13X13029   1.471   3.620   5.202 -2.1992  2.3272  0.3895
  122SOPE  H13Y13030   1.644   3.591   5.245 -0.5496 -0.6849 -1.3121
  122SOPE  C31413031   1.613   3.764   5.126 -0.2959  0.1606 -0.3700
  122SOPE  H14X13032   1.701   3.825   5.152  1.3101 -2.4078  0.5629
  122SOPE  H14Y13033   1.522   3.822   5.098 -0.8587 -0.4544  0.1517
  122SOPE  C31513034   1.654   3.672   5.008  0.1365  0.4644 -1.1479
  122SOPE  H15X13035   1.556   3.621   4.994  0.9918 -1.3957 -0.6323
  122SOPE  H15Y13036   1.742   3.611   5.040  1.1879  1.8834 -1.2471
  122SOPE  C31613037   1.698   3.753   4.888 -0.5794 -0.6882  0.8502
  122SOPE  H16X13038   1.765   3.829   4.934 -0.8089  1.7739 -2.5020
  122SOPE  H16Y13039   1.615   3.799   4.829 -0.1572  0.4614  1.1150
  122SOPE  C31713040   1.791   3.673   4.776  0.4806 -0.3433 -0.1234
  122SOPE  H17X13041   1.729   3.588   4.741 -1.0566 -0.7510  3.1846
  122SOPE  H17Y13042   1.876   3.624   4.827  0.3628 -0.4390 -0.0184
  122SOPE  C31813043   1.825   3.756   4.651 -0.1345 -0.1333 -0.0278
  122SOPE  H18X13044   1.737   3.816   4.619 -0.7731 -1.3087 -0.5127
  122SOPE  H18Y13045   1.848   3.685   4.569  0.0049 -2.8611  2.2091
  122SOPE  H18Z13046   1.911   3.824   4.668  0.4064 -0.9915  0.8027
  123SOPE     N13047   4.115   3.379   2.061 -1.0783  0.3063  0.7064
  123SOPE   HN113048   4.152   3.327   2.144 -1.2596  1.2201  1.3747
  123SOPE   HN213049   4.025   3.421   2.090 -0.7480  0.4326  1.5911
  123SOPE   HN313050   4.082   3.315   1.986 -0.1189  1.0127 -0.3615
  123SOPE   C1213051   4.210   3.486   2.016  0.1507  0.2717 -0.0032
  123SOPE  H12A13052   4.167   3.525   1.921  1.0886 -0.9903 -0.9762
  123SOPE  H12B13053   4.307   3.436   1.997 -0.9690 -1.7480 -0.7121
  123SOPE   C1113054   4.225   3.602   2.119  0.4288 -0.1675 -0.2310
  123SOPE  H11A13055   4.318   3.657   2.092  0.2057  0.8438  0.9465
  123SOPE  H11B13056   4.246   3.563   2.221 -0.7711  0.2436  0.1875
  123SOPE     P13057   3.988   3.667   2.204 -0.2640 -0.2024 -0.2195
  123SOPE   O1313058   3.935   3.531   2.177  0.6895 -0.1551 -0.4984
  123SOPE   O1413059   3.896   3.781   2.191 -0.5651  0.4528 -0.1762
  123SOPE   O1213060   4.109   3.693   2.120  0.0710  0.0911 -0.0754
  123SOPE   O1113061   4.041   3.669   2.354  0.2111 -0.3796  0.3779
  123SOPE    C113062   4.130   3.766   2.394  0.0644  0.3647  0.1701
  123SOPE    HA13063   4.076   3.861   2.374 -2.7678 -0.6655  2.1874
  123SOPE    HB13064   4.230   3.759   2.346  1.0307  1.8837  1.8819
  123SOPE    C213065   4.146   3.762   2.547  1.0166 -0.6011 -0.4618
  123SOPE    HS13066   4.197   3.854   2.582  0.4134 -0.7578  0.9025
  123SOPE   O2113067   4.201   3.638   2.578 -0.5036 -0.3791 -0.4554
  123SOPE   C2113068   4.323   3.635   2.617  0.0774  0.0281 -0.2153
  123SOPE   O2213069   4.400   3.729   2.622  0.3370 -0.4625 -0.6598
  123SOPE   C2213070   4.339   3.491   2.679  0.2368 -0.1600  0.6381
  123SOPE   H2R13071   4.321   3.413   2.601 -1.0245 -0.6053  1.3437
  123SOPE   H2S13072   4.257   3.470   2.752 -0.8450 -0.9316 -0.7380
  123SOPE    C313073   4.002   3.766   2.609  0.3437  0.2470  0.0143
  123SOPE    HX13074   3.961   3.664   2.591  1.9081 -0.4329  0.1504
  123SOPE    HY13075   3.942   3.846   2.559  1.0115 -0.2952 -1.7377
  123SOPE   O3113076   4.011   3.794   2.753  0.1476  0.0657 -0.0851
  123SOPE   C3113077   4.029   3.920   2.801 -0.2621 -0.5131 -0.2042
  123SOPE   O3213078   4.046   4.016   2.727 -0.4921 -0.0445  0.0797
  123SOPE   C3213079   4.043   3.920   2.951 -0.1007  0.1751 -0.2231
  123SOPE   H2X13080   4.033   3.816   2.987  3.3959  0.2873  1.4458
  123SOPE   H2Y13081   3.948   3.972   2.978 -0.4416  1.7485 -3.8715
  123SOPE   C2313082   4.481   3.472   2.728 -0.3590 -0.5143  0.1431
  123SOPE   H3R13083   4.555   3.511   2.655  0.1964 -1.0840  0.3876
  123SOPE   H3S13084   4.504   3.364   2.743  1.3193  0.0566  2.2269
  123SOPE   C2413085   4.508   3.533   2.869  0.8012  0.2700  0.1113
  123SOPE   H4R13086   4.616   3.518   2.892  0.6563 -3.1434 -0.8791
  123SOPE   H4S13087   4.482   3.641   2.865  1.5314  0.4235 -1.0120
  123SOPE   C2513088   4.430   3.480   2.992  0.5789  0.8295 -0.2390
  123SOPE   H5R13089   4.321   3.484   2.968 -0.0820  1.7362  2.4584
  123SOPE   H5S13090   4.454   3.374   3.011 -2.6942  0.1050  0.4425
  123SOPE   C2613091   4.468   3.565   3.113  0.3187 -0.9194  0.6538
  123SOPE   H6R13092   4.578   3.575   3.109  0.2291  0.3127 -3.3456
  123SOPE   H6S13093   4.420   3.665   3.101  0.2632 -1.0150  0.0203
  123SOPE   C2713094   4.423   3.505   3.244 -1.0563  0.1822  0.6417
  123SOPE   H7R13095   4.315   3.478   3.235 -1.4862  2.2437 -2.2114
  123SOPE   H7S13096   4.491   3.423   3.272 -2.3688  0.0497  3.7971
  123SOPE   C2813097   4.436   3.607   3.356  0.3079  0.8592 -0.3846
  123SOPE   H8R13098   4.541   3.641   3.358  0.1907  1.2597 -0.9295
  123SOPE   H8S13099   4.363   3.689   3.342 -0.0596  0.6087  0.0128
  123SOPE   C2913100   4.406   3.541   3.480 -0.3644  0.2663 -0.0116
  123SOPE   H9113101   4.366   3.439   3.470  0.1486  0.1734 -1.2743
  123SOPE  C21013102   4.421   3.598   3.601 -0.6943  0.0627 -0.2068
  123SOPE  H10113103   4.413   3.544   3.696  1.7295 -0.4018 -0.2028
  123SOPE  C21113104   4.468   3.741   3.634 -0.7857  0.1387  0.1289
  123SOPE  H11R13105   4.444   3.811   3.551 -1.1775  0.6254  0.6417
  123SOPE  H11S13106   4.579   3.750   3.630 -0.7996  0.8936  1.1209
  123SOPE  C21213107   4.414   3.790   3.769 -0.5587 -0.2061 -0.8027
  123SOPE  H12R13108   4.304   3.774   3.774 -0.8131  1.6476  0.4489
  123SOPE  H12S13109   4.419   3.901   3.773 -3.1095  0.0611 -2.5985
  123SOPE  C21313110   4.482   3.750   3.899 -0.2511  0.2086  0.0897
  123SOPE  H13R13111   4.593   3.756   3.893 -0.1326 -1.1548  0.6056
  123SOPE  H13S13112   4.441   3.648   3.911 -0.8748  0.3165 -1.0786
  123SOPE  C21413113   4.439   3.827   4.028 -0.0784 -1.0497 -0.1811
  123SOPE  H14R13114   4.482   3.929   4.017  2.4829 -1.9653  0.5586
  123SOPE  H14S13115   4.507   3.792   4.109  1.7664  0.7532 -0.8561
  123SOPE  C21513116   4.291   3.829   4.064 -0.0560 -0.9079  0.2025
  123SOPE  H15R13117   4.258   3.725   4.042  1.8652 -1.8367  1.3847
  123SOPE  H15S13118   4.237   3.901   3.999 -0.2724 -0.4001  0.9221
  123SOPE  C21613119   4.272   3.861   4.213 -0.7718 -0.4071  0.9399
  123SOPE  H16R13120   4.284   3.967   4.243 -1.4814 -0.6221  2.0717
  123SOPE  H16S13121   4.346   3.799   4.268  0.5511  1.5842  1.5285
  123SOPE  C21713122   4.142   3.811   4.272 -0.8689 -1.0688  0.1128
  123SOPE  H17R13123   4.116   3.712   4.228 -1.7573  0.1396 -2.2371
  123SOPE  H17S13124   4.058   3.868   4.228 -1.4209 -1.8187  0.1771
  123SOPE  C21813125   4.130   3.830   4.426  0.4067 -0.3430  1.0972
  123SOPE  H18R13126   4.215   3.773   4.469  1.3001  0.3749  0.3160
  123SOPE  H18S13127   4.033   3.799   4.471 -0.2627 -0.2003 -0.1971
  123SOPE  H18T13128   4.134   3.941   4.438 -1.3362 -0.1600  0.2674
  123SOPE   C3313129   4.173   3.981   3.009  0.0414  0.0679  0.2060
  123SOPE   H3X13130   4.197   4.081   2.967 -0.7851  0.4645  0.6653
  123SOPE   H3Y13131   4.257   3.912   2.985  0.3995  0.0702  1.3797
  123SOPE   C3413132   4.156   4.011   3.156 -0.2591 -0.4019  0.2402
  123SOPE   H4X13133   4.114   3.920   3.202  1.1540 -1.2083 -0.0092
  123SOPE   H4Y13134   4.088   4.099   3.157  0.2443  0.0108  1.9258
  123SOPE   C3513135   4.291   4.039   3.218  0.1723  0.1709  0.0686
  123SOPE   H5X13136   4.338   4.119   3.157  0.2415  0.5421  0.6084
  123SOPE   H5Y13137   4.341   3.946   3.183  2.2980  1.6388 -1.0212
  123SOPE   C3613138   4.299   4.051   3.370  1.3441 -0.0660  0.1514
  123SOPE   H6X13139   4.400   4.025   3.406  2.2313 -0.9184 -2.6513
  123SOPE   H6Y13140   4.222   3.984   3.415 -0.5263 -0.2109 -2.9260
  123SOPE   C3713141   4.248   4.186   3.411  0.3087 -0.5331 -1.0926
  123SOPE   H7X13142   4.141   4.202   3.384  0.7032  1.2451 -1.7952
  123SOPE   H7Y13143   4.303   4.259   3.347 -0.1256 -0.9401 -1.9437
  123SOPE   C3813144   4.279   4.225   3.555  0.2814 -0.7052  0.2687
  123SOPE   H8X13145   4.258   4.333   3.572  0.0028 -1.1532  3.1747
  123SOPE   H8Y13146   4.384   4.206   3.584 -0.4719 -2.3726  2.1718
  123SOPE   C3913147   4.202   4.137   3.654  0.7382  0.1370  0.1441
  123SOPE   H9X13148   4.220   4.035   3.614  1.0090 -0.6199  2.0616
  123SOPE   H9Y13149   4.095   4.160   3.640  0.4444  1.9776  4.0402
  123SOPE  C31013150   4.249   4.139   3.799  0.3698 -0.1752  0.4366
  123SOPE  H10X13151   4.348   4.089   3.792  0.7794  0.5954  0.6619
  123SOPE  H10Y13152   4.193   4.061   3.855 -0.9906  0.3269 -0.1889
  123SOPE  C31113153   4.268   4.269   3.865  0.1448 -0.1361  0.6649
  123SOPE  H11X13154   4.184   4.339   3.844  0.7171  0.5856  0.7237
  123SOPE  H11Y13155   4.362   4.309   3.821  0.3386 -0.1587  1.0555
  123SOPE  C31213156   4.283   4.253   4.012 -0.8904 -0.0619  0.0613
  123SOPE  H12X13157   4.319   4.151   4.039  0.4313 -0.0426 -1.4655
  123SOPE  H12Y13158   4.183   4.271   4.055 -0.3715  0.9094  0.9005
  123SOPE  C31313159   4.378   4.360   4.076 -0.5890 -0.1413  0.9050
  123SOPE  H13X13160   4.341   4.463   4.055 -1.3878 -0.4579  0.7077
  123SOPE  H13Y13161   4.476   4.343   4.027 -0.4329 -0.8523  1.4613
  123SOPE  C31413162   4.405   4.352   4.228 -0.9071  0.4355 -0.1267
  123SOPE  H14X13163   4.393   4.248   4.265  1.1290  0.3620  0.4218
  123SOPE  H14Y13164   4.328   4.402   4.291  0.2330  0.2996  1.4082
  123SOPE  C31513165   4.543   4.398   4.267 -0.1825 -0.8585  0.1523
  123SOPE  H15X13166   4.552   4.493   4.209 -0.1642  0.3116  1.9982
  123SOPE  H15Y13167   4.622   4.327   4.233 -2.3255 -2.1700 -2.5114
  123SOPE  C31613168   4.563   4.440   4.419  0.9741  0.0810 -0.6052
  123SOPE  H16X13169   4.536   4.345   4.469  0.1803  0.3565 -0.4870
  123SOPE  H16Y13170   4.489   4.520   4.439  1.7193  0.0753  2.7145
  123SOPE  C31713171   4.707   4.472   4.451  0.4023  0.2819 -0.0343
  123SOPE  H17X13172   4.754   4.371   4.451  0.4160  0.2877 -0.3451
  123SOPE  H17Y13173   4.710   4.502   4.558  2.3762  0.9183 -0.2369
  123SOPE  C31813174   4.783   4.572   4.361 -0.9821 -0.5625 -0.5519
  123SOPE  H18X13175   4.869   4.627   4.405 -0.4404 -1.9155  0.1304
  123SOPE  H18Y13176   4.716   4.660   4.347 -1.0492 -0.2393  1.5047
  123SOPE  H18Z13177   4.815   4.520   4.268  1.2297 -0.8837  0.3194
  124SOPE     N13178   5.960   0.977   1.956  0.2372  0.1436 -0.0656
  124SOPE   HN113179   6.012   0.966   1.866 -1.0122 -2.1897 -0.5773
  124SOPE   HN213180   5.993   0.912   2.029  1.5210  1.3018  0.4336
  124SOPE   HN313181   5.862   0.956   1.927  1.1670 -2.8679 -1.4247
  124SOPE   C1213182   5.950   1.122   2.004 -0.4083 -0.7530  0.3211
  124SOPE  H12A13183   5.859   1.176   1.971  0.7535 -0.5703 -2.9714
  124SOPE  H12B13184   6.039   1.177   1.965  0.9537 -0.7516  3.1810
  124SOPE   C1113185   5.953   1.142   2.156  1.2130  0.5937 -0.4609
  124SOPE  H11A13186   5.879   1.069   2.195  1.6934  0.0972 -0.4716
  124SOPE  H11B13187   5.919   1.247   2.170 -0.7089 -0.1365  0.8154
  124SOPE     P13188   6.123   1.012   2.292  0.0098  0.3215  0.1283
  124SOPE   O1313189   6.264   1.016   2.335 -0.1677 -0.0679 -0.0525
  124SOPE   O1413190   6.082   0.899   2.199 -0.0988  0.3795  0.0771
  124SOPE   O1213191   6.080   1.145   2.219 -0.5739  0.1739  0.2126
  124SOPE   O1113192   6.026   1.007   2.417 -0.2438 -0.3171 -0.4806
  124SOPE    C113193   6.013   1.116   2.507  0.4406 -0.1238  0.6657
  124SOPE    HA13194   5.914   1.112   2.556 -0.2722 -2.3663 -0.8078
  124SOPE    HB13195   6.020   1.212   2.452  0.3262 -0.2080  0.5024
  124SOPE    C213196   6.118   1.113   2.623  0.2211 -0.2885 -0.1092
  124SOPE    HS13197   6.220   1.107   2.580  0.7418 -0.2762  1.0745
  124SOPE   O2113198   6.091   0.993   2.708  0.3268  0.6127  0.1108
  124SOPE   C2113199   6.184   0.968   2.805 -1.0290 -0.3106  0.1684
  124SOPE   O2213200   6.296   1.016   2.787  0.2879  0.1496  0.0120
  124SOPE   C2213201   6.148   0.861   2.906 -0.6393 -0.0462 -0.5085
  124SOPE   H2R13202   6.149   0.767   2.848 -1.6073 -0.6469  0.4101
  124SOPE   H2S13203   6.045   0.890   2.935 -0.7806  0.5274 -1.5518
  124SOPE    C313204   6.126   1.251   2.701  0.0654 -0.3604  0.5735
  124SOPE    HX13205   6.148   1.331   2.627 -0.6240 -1.4423 -0.8610
  124SOPE    HY13206   6.200   1.246   2.783 -1.0225 -1.2136  1.5373
  124SOPE   O3113207   6.009   1.300   2.768  0.5873 -1.0396 -0.0278
  124SOPE   C3113208   5.990   1.263   2.887  0.6903 -0.4879  0.5805
  124SOPE   O3213209   6.053   1.192   2.959 -0.7135  0.4042 -0.8343
  124SOPE   C3213210   5.866   1.348   2.937  0.2014  0.1401  0.4329
  124SOPE   H2X13211   5.776   1.300   2.894  0.2803 -1.4347  1.9355
  124SOPE   H2Y13212   5.883   1.454   2.908  0.9790 -0.3444 -0.9555
  124SOPE   C2313213   6.233   0.849   3.035 -0.3549  0.0277  0.5640
  124SOPE   H3R13214   6.342   0.831   3.023 -0.1412  0.2270  2.0926
  124SOPE   H3S13215   6.201   0.763   3.097 -1.3434  0.9318  1.3586
  124SOPE   C2413216   6.198   0.968   3.120 -0.8082  0.5027  0.3551
  124SOPE   H4R13217   6.218   1.064   3.069  2.4215  0.9876  2.2857
  124SOPE   H4S13218   6.088   0.969   3.138 -0.6585  2.0418  1.3030
  124SOPE   C2513219   6.272   0.970   3.256  0.2895 -0.2210 -0.1289
  124SOPE   H5R13220   6.376   1.001   3.232  0.4269  0.0283  0.7681
  124SOPE   H5S13221   6.224   1.054   3.310  0.0024 -0.7742  0.4942
  124SOPE   C2613222   6.268   0.842   3.341  0.1330  0.1991 -0.2847
  124SOPE   H6R13223   6.316   0.756   3.291 -0.4838 -0.1680 -0.2616
  124SOPE   H6S13224   6.317   0.847   3.441 -1.5937 -0.3552  0.6290
  124SOPE   C2713225   6.116   0.800   3.358  0.3519  0.1600  0.3168
  124SOPE   H7R13226   6.063   0.884   3.407  1.0911  0.4002  0.7259
  124SOPE   H7S13227   6.079   0.772   3.257  1.9184  0.6720 -0.4369
  124SOPE   C2813228   6.096   0.662   3.446  0.2490 -0.4079  0.3104
  124SOPE   H8R13229   6.168   0.592   3.400 -0.8572 -0.4085 -1.5155
  124SOPE   H8S13230   6.131   0.687   3.548 -0.8366 -2.7306  1.3084
  124SOPE   C2913231   5.955   0.609   3.463  0.1837  0.3268  0.1572
  124SOPE   H9113232   5.874   0.685   3.463  0.5707  0.7588  1.3910
  124SOPE  C21013233   5.908   0.482   3.451 -0.0985  0.7722 -0.2701
  124SOPE  H10113234   5.801   0.456   3.455 -0.0743  0.6271 -0.5471
  124SOPE  C21113235   6.002   0.368   3.413  0.2141  0.3297 -0.2367
  124SOPE  H11R13236   6.085   0.406   3.349  1.1561  1.9814  1.8232
  124SOPE  H11S13237   5.944   0.305   3.343 -0.7399  1.1493 -0.2132
  124SOPE  C21213238   6.051   0.269   3.519  0.4285  0.1513 -0.2725
  124SOPE  H12R13239   5.956   0.242   3.569  0.9389 -0.5537  0.3214
  124SOPE  H12S13240   6.117   0.313   3.597  1.6119 -0.7042 -0.7646
  124SOPE  C21313241   6.128   0.158   3.452  0.1913 -0.3281  0.1353
  124SOPE  H13R13242   6.231   0.197   3.434  1.1724 -1.2884  3.1784
  124SOPE  H13S13243   6.083   0.140   3.352  1.0706 -0.8335 -0.1827
  124SOPE  C21413244   6.132   0.032   3.529  0.0859 -0.6206  0.1141
  124SOPE  H14R13245   6.041  -0.027   3.503  0.9594 -2.5087  1.1668
  124SOPE  H14S13246   6.139   0.040   3.639  1.2039  1.2976 -0.0377
  124SOPE  C21513247   6.257  -0.054   3.505  0.6446  0.0125 -0.1776
  124SOPE  H15R13248   6.353  -0.018   3.548  1.1267 -0.5664 -0.7452
  124SOPE  H15S13249   6.268  -0.066   3.395 -0.1390 -0.7535 -0.1915
  124SOPE  C21613250   6.238  -0.191   3.563 -0.0769  0.3979  0.6341
  124SOPE  H16R13251   6.132  -0.221   3.547  0.3124  0.1370 -1.8740
  124SOPE  H16S13252   6.268  -0.194   3.670 -0.3028  0.5255  0.7026
  124SOPE  C21713253   6.330  -0.305   3.502 -0.3620  0.6539 -1.1815
  124SOPE  H17R13254   6.437  -0.280   3.518 -1.2248  3.5489  0.6924
  124SOPE  H17S13255   6.308  -0.313   3.393 -0.8354 -0.0374 -1.0445
  124SOPE  C21813256   6.305  -0.439   3.580  0.2381 -0.0280 -0.2381
  124SOPE  H18R13257   6.198  -0.465   3.566  0.8378 -0.8156 -4.7404
  124SOPE  H18S13258   6.332  -0.431   3.688 -1.2208 -1.4818  0.2770
  124SOPE  H18T13259   6.356  -0.527   3.535 -1.3055 -0.7777 -0.5893
  124SOPE   C3313260   5.854   1.335   3.089 -0.0395 -0.0630 -0.6709
  124SOPE   H3X13261   5.944   1.381   3.135  0.6747 -1.6475 -0.4205
  124SOPE   H3Y13262   5.849   1.229   3.121  1.5501  0.0253 -0.0371
  124SOPE   C3413263   5.737   1.417   3.140  0.1876  0.1615  0.6002
  124SOPE   H4X13264   5.645   1.402   3.078  0.0897  0.1097  0.7584
  124SOPE   H4Y13265   5.755   1.524   3.120 -1.5864  0.4133  0.1872
  124SOPE   C3513266   5.696   1.398   3.288 -0.2381 -0.3163 -0.2623
  124SOPE   H5X13267   5.792   1.407   3.342 -0.0065 -1.8216 -0.3734
  124SOPE   H5Y13268   5.652   1.297   3.306 -1.8024  0.6423  1.7072
  124SOPE   C3613269   5.596   1.506   3.340  1.5114 -0.7485  0.3567
  124SOPE   H6X13270   5.513   1.497   3.267 -0.1967  0.8585  1.9792
  124SOPE   H6Y13271   5.633   1.610   3.324  0.4155 -0.1276  1.6678
  124SOPE   C3713272   5.549   1.492   3.485 -0.0568 -0.0758 -0.6162
  124SOPE   H7X13273   5.516   1.387   3.501  1.7122 -0.4647  0.7811
  124SOPE   H7Y13274   5.456   1.553   3.482 -0.2723 -0.3797 -4.3056
  124SOPE   C3813275   5.651   1.531   3.600 -0.0680  0.0374  0.4902
  124SOPE   H8X13276   5.679   1.638   3.587  0.7217 -0.2365 -0.1779
  124SOPE   H8Y13277   5.747   1.482   3.574 -0.8518 -0.8521 -0.9509
  124SOPE   C3913278   5.611   1.515   3.745 -0.0201  0.3559  0.0273
  124SOPE   H9X13279   5.592   1.406   3.756  0.2999  0.4437  1.6631
  124SOPE   H9Y13280   5.512   1.564   3.757 -0.7757 -0.1250 -3.2283
  124SOPE  C31013281   5.718   1.573   3.830  0.3312 -0.2093  0.6214
  124SOPE  H10X13282   5.724   1.681   3.806  1.9590 -0.1824  1.0159
  124SOPE  H10Y13283   5.815   1.533   3.792 -0.4895 -0.8964 -0.8387
  124SOPE  C31113284   5.701   1.557   3.982 -0.2773  0.4807  0.0341
  124SOPE  H11X13285   5.722   1.449   3.999 -1.6268  0.4717  1.9082
  124SOPE  H11Y13286   5.598   1.577   4.019 -0.7373 -0.3875 -0.7653
  124SOPE  C31213287   5.806   1.636   4.054 -0.0856  0.1679 -0.3666
  124SOPE  H12X13288   5.786   1.744   4.039 -1.7336 -0.2166 -1.1782
  124SOPE  H12Y13289   5.901   1.613   4.001 -0.5730 -0.4809 -0.9816
  124SOPE  C31313290   5.841   1.596   4.201 -0.0052 -0.2173  0.0624
  124SOPE  H13X13291   5.856   1.486   4.206 -1.7956 -0.5084 -0.0463
  124SOPE  H13Y13292   5.747   1.610   4.259 -1.9483  3.5635 -3.4833
  124SOPE  C31413293   5.960   1.690   4.251 -0.4252 -0.1044 -0.0504
  124SOPE  H14X13294   5.941   1.783   4.193  1.3070  1.1037  1.2427
  124SOPE  H14Y13295   6.061   1.661   4.214  0.0752  2.5582 -0.9731
  124SOPE  C31513296   5.964   1.735   4.398 -0.6581 -0.0442 -0.5831
  124SOPE  H15X13297   5.982   1.647   4.463 -0.1596  1.1662  1.0072
  124SOPE  H15Y13298   5.872   1.792   4.426  0.4359  1.6172 -0.1803
  124SOPE  C31613299   6.094   1.826   4.419  0.2452  0.2823  0.0837
  124SOPE  H16X13300   6.085   1.912   4.350  1.6578  0.7587  0.4432
  124SOPE  H16Y13301   6.178   1.759   4.389 -1.6578 -1.6869 -1.1505
  124SOPE  C31713302   6.099   1.889   4.562 -0.3835  1.0770  0.6691
  124SOPE  H17X13303   6.092   1.804   4.633  2.4853 -0.5987 -0.9011
  124SOPE  H17Y13304   6.019   1.967   4.564 -0.4836  1.0527 -1.1279
  124SOPE  C31813305   6.230   1.955   4.603 -0.4972 -0.3736 -0.5887
  124SOPE  H18X13306   6.305   1.874   4.602 -0.6750 -0.5507  0.1681
  124SOPE  H18Y13307   6.228   1.998   4.706  0.6658 -1.0604 -0.2616
  124SOPE  H18Z13308   6.243   2.048   4.542 -2.0277 -0.1759 -0.6529
  125SOPE     N13309   0.389   4.661   1.613  0.8062  0.1631 -0.4119
  125SOPE   HN113310   0.486   4.675   1.577  1.5927  1.8550  2.0649
  125SOPE   HN213311   0.379   4.600   1.696 -2.2613 -0.6736 -1.2751
  125SOPE   HN313312   0.326   4.627   1.538 -0.2617  3.7629 -1.3915
  125SOPE   C1213313   0.332   4.799   1.649  0.2643  0.4758  0.0313
  125SOPE  H12A13314   0.229   4.793   1.689  0.5325 -1.4420  0.5350
  125SOPE  H12B13315   0.333   4.863   1.558  0.1695  1.3386  0.6266
  125SOPE   C1113316   0.421   4.860   1.757  0.7308  0.2950  0.2743
  125SOPE  H11A13317   0.373   4.959   1.778 -0.6073 -0.2612 -0.0645
  125SOPE  H11B13318   0.521   4.876   1.712  1.0063  2.4879  1.5261
  125SOPE     P13319   0.352   4.806   2.001  0.3653  0.4938  0.2546
  125SOPE   O1313320   0.210   4.765   1.974 -0.6550 -0.1184 -0.2356
  125SOPE   O1413321   0.369   4.947   2.044 -0.4730  0.1821 -0.4995
  125SOPE   O1213322   0.440   4.779   1.871  0.4180  0.7863 -0.2263
  125SOPE   O1113323   0.412   4.709   2.114  0.3925 -0.6307  0.7840
  125SOPE    C113324   0.553   4.697   2.131  0.1948  0.1163 -0.5396
  125SOPE    HA13325   0.605   4.792   2.106 -1.4953  1.2330  0.0991
  125SOPE    HB13326   0.601   4.620   2.066  0.0088 -0.4791  0.0159
  125SOPE    C213327   0.592   4.656   2.280  0.5516 -0.5376 -0.4963
  125SOPE    HS13328   0.560   4.550   2.291  0.7016 -0.5324  0.0118
  125SOPE   O2113329   0.515   4.738   2.363 -0.4441  0.1206 -0.7399
  125SOPE   C2113330   0.401   4.692   2.415  0.6598  1.1567 -1.3893
  125SOPE   O2213331   0.364   4.575   2.409  0.0384  0.2219 -0.1575
  125SOPE   C2213332   0.303   4.802   2.469  0.2613 -0.4734 -0.3318
  125SOPE   H2R13333   0.230   4.741   2.526 -0.1562  0.0291 -0.3298
  125SOPE   H2S13334   0.267   4.851   2.376 -0.4187 -0.9834 -0.3472
  125SOPE    C313335   0.748   4.672   2.326  0.2678 -1.1628  0.4153
  125SOPE    HX13336   0.789   4.768   2.286 -2.2798 -0.1788 -0.0713
  125SOPE    HY13337   0.804   4.602   2.260  1.1236  0.3257 -0.5037
  125SOPE   O3113338   0.770   4.666   2.465  0.4888 -0.2357 -0.3163
  125SOPE   C3113339   0.803   4.539   2.510  0.3331 -0.0350 -0.2809
  125SOPE   O3213340   0.812   4.438   2.442 -0.2418 -0.3283 -0.2505
  125SOPE   C3213341   0.795   4.551   2.661 -0.3016 -0.2461  0.3397
  125SOPE   H2X13342   0.840   4.648   2.689 -0.3303  0.3471 -1.5385
  125SOPE   H2Y13343   0.853   4.470   2.712  0.0754 -1.4211 -1.8146
  125SOPE   C2313344   0.365   4.902   2.564  0.3094  1.0004 -0.4195
  125SOPE   H3R13345   0.278   4.965   2.592  0.0537  1.9215 -2.9723
  125SOPE   H3S13346   0.437   4.970   2.515  0.0605  0.7329 -1.1791
  125SOPE   C2413347   0.419   4.833   2.689 -0.5453 -0.3275 -0.2334
  125SOPE   H4R13348   0.370   4.735   2.705 -2.7590  0.8613  0.8723
  125SOPE   H4S13349   0.525   4.802   2.689 -0.2898  0.4776 -1.4208
  125SOPE   C2513350   0.393   4.914   2.815  0.0769 -0.3419 -0.6266
  125SOPE   H5R13351   0.285   4.941   2.820  0.4650  1.3133 -0.7585
  125SOPE   H5S13352   0.415   4.846   2.901  0.3174 -1.8832 -1.8635
  125SOPE   C2613353   0.484   5.031   2.810 -0.4823 -0.2384 -0.4509
  125SOPE   H6R13354   0.590   4.999   2.798 -0.4332 -0.7540  1.1128
  125SOPE   H6S13355   0.465   5.097   2.723 -0.6816  0.5205  0.1497
  125SOPE   C2713356   0.478   5.115   2.944  0.3905 -0.0463  0.4850
  125SOPE   H7R13357   0.513   5.215   2.912 -1.0220  0.3175 -0.0074
  125SOPE   H7S13358   0.374   5.134   2.978  0.1794  0.9967 -0.6760
  125SOPE   C2813359   0.552   5.052   3.062 -0.2809  0.2131  0.5568
  125SOPE   H8R13360   0.497   4.965   3.103  0.0960 -0.2999 -0.0088
  125SOPE   H8S13361   0.646   5.018   3.013 -1.2309  1.3215 -2.2317
  125SOPE   C2913362   0.584   5.160   3.166 -0.0904  0.0969  0.1896
  125SOPE   H9113363   0.596   5.262   3.126  0.9434 -0.1509 -0.1641
  125SOPE  C21013364   0.616   5.139   3.298  0.2008 -0.2975  0.3084
  125SOPE  H10113365   0.635   5.224   3.365  0.0309  0.9781 -1.2169
  125SOPE  C21113366   0.606   5.012   3.370 -0.6057  0.1026 -0.6340
  125SOPE  H11R13367   0.603   4.917   3.313 -0.7084 -0.9808  1.1175
  125SOPE  H11S13368   0.518   5.020   3.437  1.5601  0.7010  2.3308
  125SOPE  C21213369   0.733   4.988   3.460 -0.5498 -0.0824 -0.2028
  125SOPE  H12R13370   0.822   4.976   3.395 -0.7918  0.0400 -0.5641
  125SOPE  H12S13371   0.705   4.896   3.515  0.0685 -0.5435 -0.6512
  125SOPE  C21313372   0.761   5.086   3.575  0.0279  0.0973  0.0384
  125SOPE  H13R13373   0.665   5.140   3.592 -0.2770 -0.6364  0.6610
  125SOPE  H13S13374   0.827   5.158   3.520 -0.7144 -1.8577 -3.7859
  125SOPE  C21413375   0.826   5.028   3.703  0.5804 -0.2191 -0.2167
  125SOPE  H14R13376   0.937   5.027   3.707  0.5871  1.2939  1.5796
  125SOPE  H14S13377   0.783   4.927   3.720 -1.3758  0.1544 -2.4527
  125SOPE  C21513378   0.791   5.103   3.829  0.0529 -0.2177 -0.0057
  125SOPE  H15R13379   0.781   5.210   3.802 -0.4530 -0.0062  0.9655
  125SOPE  H15S13380   0.873   5.091   3.903  1.1129 -0.0563 -1.1285
  125SOPE  C21613381   0.653   5.059   3.897 -0.1086  0.1598 -0.8970
  125SOPE  H16R13382   0.651   4.957   3.939 -0.6489  0.9742  1.1670
  125SOPE  H16S13383   0.576   5.076   3.818 -0.6408  0.9975 -0.2130
  125SOPE  C21713384   0.623   5.150   4.016 -0.3002  0.3771  0.1642
  125SOPE  H17R13385   0.524   5.128   4.061 -0.0205 -2.9165 -0.6018
  125SOPE  H17S13386   0.619   5.253   3.973  0.6433 -0.3478 -1.7564
  125SOPE  C21813387   0.725   5.138   4.132  0.6787  0.2799 -0.8646
  125SOPE  H18R13388   0.820   5.193   4.120  0.4459  1.6538  2.5366
  125SOPE  H18S13389   0.753   5.031   4.141  0.8246  0.2890 -1.2113
  125SOPE  H18T13390   0.681   5.160   4.232  1.9789  2.0279 -0.6295
  125SOPE   C3313391   0.652   4.533   2.726 -0.7559  0.6511  0.2540
  125SOPE   H3X13392   0.635   4.424   2.739  0.5270  0.4322  0.2828
  125SOPE   H3Y13393   0.580   4.590   2.664 -1.1593  0.4687  0.5484
  125SOPE   C3413394   0.649   4.601   2.868  0.0312  0.4814 -0.2724
  125SOPE   H4X13395   0.552   4.576   2.916 -0.0792  1.6252  0.1358
  125SOPE   H4Y13396   0.651   4.712   2.860 -0.6415  0.4101 -1.8403
  125SOPE   C3513397   0.761   4.568   2.968  0.0516  0.0716 -0.0515
  125SOPE   H5X13398   0.863   4.591   2.930 -0.0917 -0.8967 -1.0875
  125SOPE   H5Y13399   0.758   4.457   2.968 -0.0064  0.0566 -1.4022
  125SOPE   C3613400   0.743   4.617   3.111  0.4364  0.4166  0.1243
  125SOPE   H6X13401   0.668   4.546   3.154  1.7423  0.5142  2.7867
  125SOPE   H6Y13402   0.701   4.718   3.129 -0.6671 -0.3576  2.3398
  125SOPE   C3713403   0.865   4.606   3.197  0.0211  0.7069  0.9756
  125SOPE   H7X13404   0.936   4.686   3.168 -0.6874  1.1902  0.5197
  125SOPE   H7Y13405   0.911   4.508   3.171  1.5066  1.2652  1.4648
  125SOPE   C3813406   0.830   4.617   3.344  0.0124  0.3334 -0.6075
  125SOPE   H8X13407   0.800   4.513   3.372  0.0163  0.6334  0.5809
  125SOPE   H8Y13408   0.744   4.683   3.365  0.8247  0.3925  3.2534
  125SOPE   C3913409   0.953   4.645   3.433  0.3118 -0.2026  0.1362
  125SOPE   H9X13410   0.989   4.748   3.412 -1.4113  0.2697 -0.6359
  125SOPE   H9Y13411   1.031   4.567   3.414  2.0128  1.3931  0.3239
  125SOPE  C31013412   0.909   4.637   3.583  0.0520  0.2189  0.4124
  125SOPE  H10X13413   0.871   4.535   3.604 -0.0583  0.1960  0.0986
  125SOPE  H10Y13414   0.831   4.714   3.603  1.2080  2.0931 -1.8245
  125SOPE  C31113415   1.031   4.661   3.679 -0.7467  0.2345  0.2841
  125SOPE  H11X13416   1.085   4.756   3.662  0.7398 -0.2122  2.1380
  125SOPE  H11Y13417   1.112   4.585   3.676 -1.7614 -0.8863  0.0040
  125SOPE  C31213418   0.988   4.660   3.826 -0.4004  0.7719  0.0622
  125SOPE  H12X13419   0.958   4.565   3.876  0.4164  1.5313  2.0692
  125SOPE  H12Y13420   0.894   4.718   3.839  0.7121  2.6637 -0.0916
  125SOPE  C31313421   1.097   4.726   3.914  0.7841 -0.3311 -0.5528
  125SOPE  H13X13422   1.157   4.796   3.852  1.9821 -0.7727  0.0812
  125SOPE  H13Y13423   1.164   4.651   3.960  1.0849  0.3569  0.1567
  125SOPE  C31413424   1.027   4.791   4.042 -0.0236  0.3396 -0.8256
  125SOPE  H14X13425   0.962   4.726   4.105 -0.2069  1.0540 -0.2572
  125SOPE  H14Y13426   0.951   4.859   3.999  0.9080  2.2605  0.4017
  125SOPE  C31513427   1.125   4.873   4.127  0.6090 -0.5606  0.7314
  125SOPE  H15X13428   1.192   4.930   4.059  2.3669 -0.4923  2.4502
  125SOPE  H15Y13429   1.192   4.814   4.193  1.2968  0.1245  0.6567
  125SOPE  C31613430   1.049   4.971   4.216 -0.5807 -0.0374 -0.4757
  125SOPE  H16X13431   0.985   4.914   4.286  2.1964 -1.7068  0.9172
  125SOPE  H16Y13432   0.987   5.037   4.153 -0.1635  0.4868 -0.3446
  125SOPE  C31713433   1.132   5.064   4.311  0.2458 -0.6309 -0.2689
  125SOPE  H17X13434   1.215   5.114   4.257  0.5597 -2.4703 -1.5799
  125SOPE  H17Y13435   1.172   5.016   4.403 -0.5519 -0.2454  0.2967
  125SOPE  C31813436   1.052   5.190   4.361  0.0339  0.4520 -0.1930
  125SOPE  H18X13437   1.100   5.258   4.435  1.2875  0.6517 -1.1340
  125SOPE  H18Y13438   0.961   5.150   4.410 -0.0862 -0.1082 -0.8509
  125SOPE  H18Z13439   1.021   5.245   4.269 -0.4906  0.1345 -0.2091
  126SOPE     N13440   4.053   0.992   2.045 -0.2894 -0.3996  0.4609
  126SOPE   HN113441   4.142   1.020   2.091  1.0487 -1.7993 -1.1288
  126SOPE   HN213442   4.034   1.065   1.973  2.6294 -1.3480 -1.4312
  126SOPE   HN313443   3.990   0.993   2.128  1.8699  0.6946  2.1858
  126SOPE   C1213444   4.068   0.852   1.989  0.5242  0.0841 -0.4200
  126SOPE  H12A13445   4.136   0.839   1.903  2.7254 -2.0476  1.4837
  126SOPE  H12B13446   3.966   0.818   1.962 -0.1286  1.0074  0.8013
  126SOPE   C1113447   4.131   0.759   2.094 -0.7691  0.0406  0.2521
  126SOPE  H11A13448   4.224   0.806   2.132 -3.1294  2.4259  3.6420
  126SOPE  H11B13449   4.165   0.663   2.050  1.4808  0.7994  0.2190
  126SOPE     P13450   3.991   0.598   2.260 -0.1041  0.1085 -0.2883
  126SOPE   O1313451   3.930   0.529   2.145 -0.1088  0.5624  0.0884
  126SOPE   O1413452   3.903   0.629   2.378 -0.1411  0.1067 -0.2881
  126SOPE   O1213453   4.040   0.743   2.207 -0.0919  0.1387  0.0721
  126SOPE   O1113454   4.123   0.528   2.311  0.5035 -0.6190 -0.5429
  126SOPE    C113455   4.252   0.583   2.349  0.0663  0.5499  0.5645
  126SOPE    HA13456   4.265   0.687   2.313  1.6393  0.2881  0.2615
  126SOPE    HB13457   4.335   0.534   2.292  0.9413  1.8364  0.6995
  126SOPE    C213458   4.291   0.548   2.495 -0.2835 -0.4098  0.0076
  126SOPE    HS13459   4.370   0.620   2.526 -2.1527  0.2654  3.7709
  126SOPE   O2113460   4.345   0.414   2.504  0.7424  0.4272 -0.0674
  126SOPE   C2113461   4.417   0.384   2.612  0.1364  0.2692  0.3133
  126SOPE   O2213462   4.479   0.469   2.681  0.0430  0.8203 -0.2733
  126SOPE   C2213463   4.417   0.229   2.625  0.2091  0.0663  0.5139
  126SOPE   H2R13464   4.478   0.191   2.540  0.0033  0.0872  0.3562
  126SOPE   H2S13465   4.315   0.193   2.599  1.0895 -1.3988 -1.1574
  126SOPE    C313466   4.162   0.552   2.584  0.7746 -0.2072  0.4201
  126SOPE    HX13467   4.096   0.467   2.558  3.3360 -1.6898 -1.7556
  126SOPE    HY13468   4.099   0.637   2.552  0.0671 -0.2770  1.5701
  126SOPE   O3113469   4.187   0.553   2.730  0.1543  0.1493  0.3195
  126SOPE   C3113470   4.234   0.673   2.772  0.0348  0.0174  0.0794
  126SOPE   O3213471   4.242   0.772   2.699 -0.0748 -0.4840  0.2479
  126SOPE   C3213472   4.239   0.677   2.923 -0.7901 -0.1396  0.7877
  126SOPE   H2X13473   4.286   0.581   2.952 -2.7409 -0.8898  1.6313
  126SOPE   H2Y13474   4.134   0.679   2.960 -1.9551  0.3283 -2.2323
  126SOPE   C2313475   4.489   0.175   2.756 -0.3540  0.4509  0.0252
  126SOPE   H3R13476   4.591   0.217   2.770  0.2302 -0.9138  0.1070
  126SOPE   H3S13477   4.493   0.065   2.738 -0.7781  0.8642 -3.2916
  126SOPE   C2413478   4.417   0.183   2.887  0.7087 -0.4488  0.2269
  126SOPE   H4R13479   4.439   0.282   2.933  0.8486  1.1666 -3.0190
  126SOPE   H4S13480   4.309   0.160   2.872  0.7079 -0.5239  0.3461
  126SOPE   C2513481   4.480   0.089   2.990  0.3788 -0.2447  0.5460
  126SOPE   H5R13482   4.475  -0.015   2.952  0.0597  0.5634 -1.7566
  126SOPE   H5S13483   4.585   0.123   2.979  0.6724 -1.6977 -1.9381
  126SOPE   C2613484   4.422   0.106   3.124 -0.1063  0.8787 -0.3552
  126SOPE   H6R13485   4.424   0.212   3.157  2.3239  0.7711  0.0027
  126SOPE   H6S13486   4.311   0.098   3.115 -0.5124  1.7299  2.7929
  126SOPE   C2713487   4.470  -0.001   3.223 -0.6437  0.0950  0.0527
  126SOPE   H7R13488   4.398   0.001   3.308  0.5982 -2.7960  1.3151
  126SOPE   H7S13489   4.458  -0.100   3.175 -0.2498  1.0190 -2.0440
  126SOPE   C2813490   4.616   0.015   3.271 -0.4302 -0.2632 -0.5800
  126SOPE   H8R13491   4.685   0.020   3.184 -0.0262 -2.8281 -0.4783
  126SOPE   H8S13492   4.631   0.100   3.341 -1.5963 -0.5118 -0.0047
  126SOPE   C2913493   4.657  -0.106   3.355 -0.6583 -0.3652  0.4574
  126SOPE   H9113494   4.700  -0.189   3.297 -0.8461 -0.4942  0.5026
  126SOPE  C21013495   4.643  -0.123   3.480 -0.2951 -0.3251 -0.0752
  126SOPE  H10113496   4.677  -0.219   3.520  3.7412  0.9964  0.0687
  126SOPE  C21113497   4.573  -0.020   3.564 -0.4164 -0.4893  0.3593
  126SOPE  H11R13498   4.477   0.010   3.517  0.2352 -0.0540 -0.7285
  126SOPE  H11S13499   4.626   0.077   3.558  0.9437 -1.0578  2.4248
  126SOPE  C21213500   4.555  -0.057   3.709  0.2345 -0.5962 -0.0096
  126SOPE  H12R13501   4.512  -0.158   3.728  1.2232 -0.9506  0.4057
  126SOPE  H12S13502   4.488   0.012   3.764  2.9707  2.8313 -0.6342
  126SOPE  C21313503   4.689  -0.056   3.790 -0.1262  0.4290  0.3587
  126SOPE  H13R13504   4.713   0.051   3.808  0.0594  0.4821 -0.2040
  126SOPE  H13S13505   4.764  -0.106   3.725 -2.5919 -2.3906 -0.5315
  126SOPE  C21413506   4.670  -0.138   3.922 -0.6399  0.1604 -0.0988
  126SOPE  H14R13507   4.693  -0.244   3.897  1.5949  0.6568 -0.3484
  126SOPE  H14S13508   4.571  -0.135   3.973 -0.0461  0.1968  1.0685
  126SOPE  C21513509   4.781  -0.083   4.014  0.1859  0.0156  0.2909
  126SOPE  H15R13510   4.786  -0.136   4.111  0.1074 -0.1908  0.1836
  126SOPE  H15S13511   4.756   0.022   4.041  1.6058  0.3725  0.3168
  126SOPE  C21613512   4.921  -0.104   3.954  0.7334  0.2370  0.2652
  126SOPE  H16R13513   4.926  -0.065   3.850 -1.4467 -1.6340 -0.6356
  126SOPE  H16S13514   4.922  -0.214   3.942 -3.2578  0.1612 -0.8628
  126SOPE  C21713515   5.037  -0.059   4.039 -0.0332  0.2487 -0.7237
  126SOPE  H17R13516   5.031  -0.127   4.127  2.5438 -0.5336 -1.0731
  126SOPE  H17S13517   5.018   0.044   4.075  1.5114  0.2447  0.1768
  126SOPE  C21813518   5.184  -0.074   3.985 -0.9092  0.9188  0.6803
  126SOPE  H18R13519   5.196  -0.181   3.959  3.0484  1.6824 -1.3218
  126SOPE  H18S13520   5.267  -0.056   4.056  0.8036  0.1295 -1.0502
  126SOPE  H18T13521   5.203  -0.007   3.899  0.9325 -1.2410 -0.7104
  126SOPE   C3313522   4.332   0.800   2.981 -0.0189  0.1917 -0.3874
  126SOPE   H3X13523   4.301   0.898   2.937 -0.9614  0.4616  0.8247
  126SOPE   H3Y13524   4.436   0.784   2.945 -0.7113 -1.0252 -1.9861
  126SOPE   C3413525   4.339   0.807   3.136  0.7192 -0.3957  0.5990
  126SOPE   H4X13526   4.356   0.700   3.159  0.2764 -1.8499 -4.5991
  126SOPE   H4Y13527   4.234   0.824   3.171  0.5025 -1.2688  0.3823
  126SOPE   C3513528   4.426   0.914   3.191 -0.5502  0.6695 -0.3960
  126SOPE   H5X13529   4.410   1.014   3.146 -0.8659  1.1255  0.6946
  126SOPE   H5Y13530   4.533   0.891   3.174 -0.2886  0.4457  1.2895
  126SOPE   C3613531   4.411   0.918   3.342  0.9379  0.2097  0.2612
  126SOPE   H6X13532   4.358   0.828   3.379  1.5717 -1.8539 -3.4034
  126SOPE   H6Y13533   4.345   1.007   3.354 -1.4850 -1.4457  0.0494
  126SOPE   C3713534   4.544   0.941   3.413 -0.2934  0.1495 -0.1629
  126SOPE   H7X13535   4.600   1.022   3.362  0.2880 -1.0076 -1.4455
  126SOPE   H7Y13536   4.598   0.844   3.408 -1.1517 -0.2928 -1.4581
  126SOPE   C3813537   4.528   0.964   3.563  0.5172  0.4340 -0.6174
  126SOPE   H8X13538   4.439   0.903   3.587  1.1412 -0.3112 -0.1168
  126SOPE   H8Y13539   4.497   1.068   3.588  1.3395  0.5246  0.0990
  126SOPE   C3913540   4.657   0.919   3.639  0.3526 -0.1233 -0.3022
  126SOPE   H9X13541   4.734   0.989   3.599 -0.1160 -0.1244 -1.2364
  126SOPE   H9Y13542   4.686   0.815   3.612  2.6608  0.4147 -0.1293
  126SOPE  C31013543   4.657   0.942   3.795  0.2172 -0.4034  0.1512
  126SOPE  H10X13544   4.577   0.885   3.847 -0.6644  0.8532  0.2015
  126SOPE  H10Y13545   4.635   1.050   3.808  2.5693  0.0863  0.6373
  126SOPE  C31113546   4.801   0.933   3.851  0.3932  0.0848  0.2491
  126SOPE  H11X13547   4.871   0.988   3.785  1.2508 -1.3674 -0.0797
  126SOPE  H11Y13548   4.837   0.829   3.840  0.2071 -0.1279  1.5129
  126SOPE  C31213549   4.825   0.976   3.995  1.0820 -0.0763  0.3054
  126SOPE  H12X13550   4.807   1.083   4.018 -1.2794 -0.9351  3.1293
  126SOPE  H12Y13551   4.930   0.965   4.028  1.3185 -0.2557 -0.4851
  126SOPE  C31313552   4.741   0.897   4.098  0.5593  0.3725 -0.4071
  126SOPE  H13X13553   4.785   0.795   4.101  1.1536  0.6398  0.3937
  126SOPE  H13Y13554   4.634   0.895   4.069  0.4511  2.0709 -0.2158
  126SOPE  C31413555   4.745   0.953   4.242  1.1076 -0.4201  0.1539
  126SOPE  H14X13556   4.699   0.888   4.319  0.1796  1.4565  1.2575
  126SOPE  H14Y13557   4.690   1.049   4.238 -0.0021 -1.0612 -3.4205
  126SOPE  C31513558   4.878   0.977   4.296 -0.0829  0.8289 -0.0777
  126SOPE  H15X13559   4.879   1.013   4.401  0.3149 -2.7400  1.3141
  126SOPE  H15Y13560   4.924   1.057   4.235  0.4839 -0.6432 -1.6754
  126SOPE  C31613561   4.970   0.853   4.302  0.8208 -1.2430  0.4034
  126SOPE  H16X13562   4.995   0.823   4.198 -2.0059 -1.7348 -0.1925
  126SOPE  H16Y13563   4.930   0.766   4.359 -1.4300 -0.0333  0.7822
  126SOPE  C31713564   5.108   0.873   4.373 -0.0866  0.2327 -0.4070
  126SOPE  H17X13565   5.176   0.937   4.314  1.5366 -1.5207 -0.5304
  126SOPE  H17Y13566   5.159   0.775   4.358  1.3538  1.1226 -1.6064
  126SOPE  C31813567   5.107   0.926   4.520 -0.3206  0.0256 -0.2102
  126SOPE  H18X13568   5.036   0.876   4.589 -0.7894  1.5232  0.4184
  126SOPE  H18Y13569   5.065   1.028   4.514 -0.2821 -0.0333 -2.0877
  126SOPE  H18Z13570   5.206   0.925   4.572 -0.2309  1.5912 -0.3006
  127SOPE     N13571   3.123   1.152   2.478 -0.2059  0.3211 -0.2175
  127SOPE   HN113572   3.031   1.192   2.502  0.2986  1.4772 -0.1469
  127SOPE   HN213573   3.143   1.063   2.527 -1.6574 -0.6098 -1.2206
  127SOPE   HN313574   3.180   1.230   2.517 -0.7130  0.6573 -0.1444
  127SOPE   C1213575   3.143   1.147   2.333  0.2543 -0.0626  0.7337
  127SOPE  H12A13576   3.235   1.204   2.305  1.2197  0.0186  3.6941
  127SOPE  H12B13577   3.054   1.200   2.293  1.2066  1.4197  0.4814
  127SOPE   C1113578   3.162   1.002   2.279 -0.5464 -0.4439 -0.0323
  127SOPE  H11A13579   3.237   0.950   2.341 -0.9111 -1.5551 -0.4997
  127SOPE  H11B13580   3.195   1.000   2.173  0.5944 -1.1554  0.3257
  127SOPE     P13581   3.020   0.812   2.386  0.0707 -0.2939 -0.3692
  127SOPE   O1313582   3.057   0.688   2.319  0.4558  0.6232  0.1885
  127SOPE   O1413583   2.876   0.815   2.426 -0.9615 -0.1301  0.0333
  127SOPE   O1213584   3.041   0.927   2.282  0.2622 -0.6281  0.0410
  127SOPE   O1113585   3.119   0.850   2.501  0.2296  0.2350 -0.5461
  127SOPE    C113586   3.121   0.764   2.609 -0.1842  0.3396  0.0828
  127SOPE    HA13587   3.154   0.661   2.583 -2.7434 -0.4392 -0.4331
  127SOPE    HB13588   3.019   0.740   2.648 -0.0409 -0.8680 -0.2279
  127SOPE    C213589   3.206   0.833   2.714 -0.3608 -0.1216 -0.2121
  127SOPE    HS13590   3.216   0.770   2.805  1.8038 -0.5517 -0.6878
  127SOPE   O2113591   3.152   0.969   2.740  0.0230  0.1658 -0.4595
  127SOPE   C2113592   3.046   0.978   2.825  0.1903 -0.0870  0.3634
  127SOPE   O2213593   2.999   0.877   2.875 -0.1070  0.0436 -0.0059
  127SOPE   C2213594   2.980   1.108   2.843 -1.1513 -0.2032 -0.0078
  127SOPE   H2R13595   2.872   1.098   2.818 -0.7781 -0.5520 -1.5805
  127SOPE   H2S13596   3.023   1.179   2.770  0.2018 -2.2303 -1.2662
  127SOPE    C313597   3.351   0.850   2.667 -0.1362 -0.3826  0.2966
  127SOPE    HX13598   3.355   0.889   2.563 -2.2457 -2.0816 -0.4935
  127SOPE    HY13599   3.389   0.746   2.656  1.8538  0.1083  1.9566
  127SOPE   O3113600   3.436   0.929   2.761  0.0464 -0.0027  0.1515
  127SOPE   C3113601   3.428   1.060   2.726 -0.3030  0.4436  0.2560
  127SOPE   O3213602   3.374   1.102   2.628 -0.1869  0.2634  0.3427
  127SOPE   C3213603   3.501   1.139   2.828  0.2498 -0.6533 -0.0453
  127SOPE   H2X13604   3.571   1.210   2.780  1.0475 -0.9869  0.6037
  127SOPE   H2Y13605   3.562   1.074   2.894 -1.9530  0.9129  3.8477
  127SOPE   C2313606   2.988   1.175   2.988 -0.3677  0.4337  0.7445
  127SOPE   H3R13607   3.077   1.241   2.994  1.6570 -2.2138  2.3279
  127SOPE   H3S13608   3.011   1.098   3.066  2.2255  1.0010  0.6235
  127SOPE   C2413609   2.871   1.268   3.024 -0.0433 -0.0377  0.0625
  127SOPE   H4R13610   2.892   1.364   2.972 -0.7527 -0.1785 -0.4969
  127SOPE   H4S13611   2.780   1.221   2.981  0.0171  1.9696 -2.5074
  127SOPE   C2513612   2.855   1.295   3.175  0.7466  0.4716 -0.0876
  127SOPE   H5R13613   2.809   1.204   3.219  1.8462  0.8124  1.9115
  127SOPE   H5S13614   2.950   1.311   3.232  0.3806 -1.0153  1.0097
  127SOPE   C2613615   2.753   1.410   3.201 -0.1518  0.1109 -0.0726
  127SOPE   H6R13616   2.813   1.502   3.214  1.7291 -0.8982 -1.0429
  127SOPE   H6S13617   2.676   1.414   3.121 -0.0276 -1.8471 -0.3428
  127SOPE   C2713618   2.692   1.384   3.338 -0.3913 -0.0661 -0.3379
  127SOPE   H7R13619   2.610   1.457   3.356 -0.1372  0.0240  0.4838
  127SOPE   H7S13620   2.648   1.282   3.337 -2.1665  0.6387 -2.2513
  127SOPE   C2813621   2.796   1.397   3.459  0.3030 -0.0319 -0.4654
  127SOPE   H8R13622   2.740   1.406   3.554 -1.5219  0.6224 -1.5464
  127SOPE   H8S13623   2.849   1.299   3.463 -0.0474 -0.1858  0.5710
  127SOPE   C2913624   2.902   1.508   3.450 -0.7316 -0.5638 -0.3643
  127SOPE   H9113625   2.970   1.512   3.364  0.2337  2.1446  0.4247
  127SOPE  C21013626   2.923   1.602   3.543 -0.5277  0.4428  0.7463
  127SOPE  H10113627   2.992   1.687   3.528 -0.2011 -0.1206 -1.2002
  127SOPE  C21113628   2.841   1.620   3.666 -0.1528  0.2280 -0.2501
  127SOPE  H11R13629   2.735   1.598   3.641 -0.3545 -0.3205  1.0294
  127SOPE  H11S13630   2.855   1.724   3.702 -1.0809  0.9003 -1.7495
  127SOPE  C21213631   2.876   1.523   3.782 -0.0344  0.3060  0.3229
  127SOPE  H12R13632   2.834   1.425   3.751  2.6986 -1.0145  0.4933
  127SOPE  H12S13633   2.826   1.558   3.875 -0.9211  0.1124 -0.0806
  127SOPE  C21313634   3.021   1.497   3.816 -0.8222  0.6582  0.1102
  127SOPE  H13R13635   3.072   1.592   3.843 -2.4919  1.0912  1.9907
  127SOPE  H13S13636   3.066   1.445   3.729 -1.2101  0.1885  0.1886
  127SOPE  C21413637   3.041   1.403   3.933  0.2468 -0.4366 -0.0280
  127SOPE  H14R13638   3.013   1.468   4.019  0.2200  0.1690 -0.4866
  127SOPE  H14S13639   3.151   1.389   3.940  0.4635  0.9601 -0.2980
  127SOPE  C21513640   2.955   1.275   3.932  0.2029 -0.2457 -0.2426
  127SOPE  H15R13641   2.975   1.220   3.837  0.9620 -0.6807  0.1560
  127SOPE  H15S13642   2.852   1.315   3.938  1.2010  2.8484 -1.7483
  127SOPE  C21613643   2.995   1.177   4.044  0.4292 -0.0634 -0.7264
  127SOPE  H16R13644   3.091   1.124   4.025  0.6808 -0.4348  1.3880
  127SOPE  H16S13645   2.935   1.084   4.045  1.2115 -0.6003 -1.4737
  127SOPE  C21713646   2.999   1.250   4.183  0.5273 -0.5299 -0.6138
  127SOPE  H17R13647   2.908   1.312   4.201  0.5954 -0.4901 -0.3976
  127SOPE  H17S13648   3.084   1.321   4.174  1.9392 -2.1976 -0.6916
  127SOPE  C21813649   3.009   1.150   4.295 -0.0926  0.0195  0.0093
  127SOPE  H18R13650   3.098   1.088   4.269  0.0689  0.4463 -0.4620
  127SOPE  H18S13651   2.918   1.088   4.283  0.4676 -0.5808 -1.3184
  127SOPE  H18T13652   3.010   1.189   4.399  0.3564 -1.5809  0.6353
  127SOPE   C3313653   3.403   1.231   2.906 -0.4925  0.2549  0.1098
  127SOPE   H3X13654   3.327   1.285   2.845 -0.3901 -1.3981 -1.5571
  127SOPE   H3Y13655   3.461   1.312   2.955  0.8463  0.2971 -1.4672
  127SOPE   C3413656   3.339   1.149   3.013  0.3762  0.0181 -0.3678
  127SOPE   H4X13657   3.407   1.065   3.040 -1.2740 -0.7844  1.6123
  127SOPE   H4Y13658   3.243   1.097   2.992  0.1845 -0.0030  0.4970
  127SOPE   C3513659   3.319   1.234   3.146  0.0176 -0.1617 -0.2385
  127SOPE   H5X13660   3.258   1.326   3.130  0.2897  0.3179  1.3567
  127SOPE   H5Y13661   3.416   1.271   3.184  0.1938 -1.9430  1.2009
  127SOPE   C3613662   3.238   1.155   3.253  0.4327 -0.2317  0.0864
  127SOPE   H6X13663   3.279   1.054   3.273 -1.4636 -0.9494  0.5286
  127SOPE   H6Y13664   3.142   1.130   3.203  1.2845 -2.2936 -0.6275
  127SOPE   C3713665   3.208   1.237   3.379 -0.4116  0.3030  0.5743
  127SOPE   H7X13666   3.122   1.189   3.430 -0.7825  0.4876  0.1321
  127SOPE   H7Y13667   3.172   1.340   3.358  0.4226  0.1668 -1.8381
  127SOPE   C3813668   3.330   1.238   3.474  0.9680  0.1698 -0.7763
  127SOPE   H8X13669   3.409   1.290   3.416  2.2611 -0.6564  0.1892
  127SOPE   H8Y13670   3.372   1.140   3.503 -0.2228  0.1486  1.0368
  127SOPE   C3913671   3.292   1.323   3.594  0.2203 -0.2442  0.0009
  127SOPE   H9X13672   3.243   1.260   3.671  0.4355  0.1798  0.4908
  127SOPE   H9Y13673   3.224   1.410   3.577  0.4237 -0.4840 -2.4029
  127SOPE  C31013674   3.420   1.374   3.666  0.0142  0.3458 -0.5230
  127SOPE  H10X13675   3.434   1.481   3.641 -2.4581  0.6793 -0.7707
  127SOPE  H10Y13676   3.509   1.308   3.654  1.7730  2.2362  1.2294
  127SOPE  C31113677   3.412   1.373   3.824  0.3403  0.5070  0.6778
  127SOPE  H11X13678   3.321   1.430   3.851 -0.9384 -1.1095 -0.0698
  127SOPE  H11Y13679   3.503   1.424   3.862  1.6964 -0.9066 -0.5463
  127SOPE  C31213680   3.404   1.233   3.896 -0.1501 -0.2685  1.0385
  127SOPE  H12X13681   3.488   1.164   3.874 -0.1236 -0.2353  1.0356
  127SOPE  H12Y13682   3.310   1.179   3.868  1.1090 -2.4663  0.8208
  127SOPE  C31313683   3.412   1.254   4.048 -0.0305 -0.5724 -0.7643
  127SOPE  H13X13684   3.320   1.304   4.086  2.5076  2.3680  2.1255
  127SOPE  H13Y13685   3.489   1.333   4.057 -0.5325 -0.1382 -0.1634
  127SOPE  C31413686   3.449   1.134   4.134  0.8446 -0.1449  0.0586
  127SOPE  H14X13687   3.559   1.118   4.130  0.9352  0.2883  0.7119
  127SOPE  H14Y13688   3.400   1.043   4.093  0.5160  0.1238 -0.1594
  127SOPE  C31513689   3.420   1.171   4.280 -0.7769  0.0301  0.2243
  127SOPE  H15X13690   3.314   1.199   4.295 -0.7170 -0.2195  1.2214
  127SOPE  H15Y13691   3.459   1.269   4.314  0.9281  0.1644 -1.9178
  127SOPE  C31613692   3.460   1.053   4.377 -0.0922 -0.2837  0.4564
  127SOPE  H16X13693   3.567   1.033   4.356 -0.1013 -0.0817  0.2175
  127SOPE  H16Y13694   3.404   0.962   4.348  0.4183 -0.1443 -1.0764
  127SOPE  C31713695   3.439   1.082   4.522  0.4661 -0.5960 -0.9406
  127SOPE  H17X13696   3.493   1.178   4.532 -0.3337  0.1997 -3.5172
  127SOPE  H17Y13697   3.483   0.996   4.577 -0.5535 -1.0332 -0.7833
  127SOPE  C31813698   3.298   1.118   4.572  1.2775  0.4291  0.2953
  127SOPE  H18X13699   3.263   1.210   4.521  3.4321  2.3030  1.9461
  127SOPE  H18Y13700   3.304   1.136   4.682  1.4469  1.6405  0.0986
  127SOPE  H18Z13701   3.229   1.032   4.560  0.1544  1.2939  0.4130
  128SOPE     N13702   3.058   6.815   2.275 -0.2592  0.2062  0.4415
  128SOPE   HN113703   3.069   6.913   2.306 -0.9859  1.3690 -2.5953
  128SOPE   HN213704   2.970   6.782   2.319  0.7663 -0.5676  1.9963
  128SOPE   HN313705   3.140   6.761   2.310 -0.9418 -1.4562 -0.3938
  128SOPE   C1213706   3.051   6.819   2.126  0.7834  0.0397  0.5831
  128SOPE  H12A13707   3.045   6.711   2.097 -1.6039 -0.0090  1.0143
  128SOPE  H12B13708   3.142   6.867   2.087 -0.2879  0.2731 -1.7974
  128SOPE   C1113709   2.910   6.877   2.090  0.0241  0.6898  0.0114
  128SOPE  H11A13710   2.891   6.866   1.981 -0.8839  1.6271  0.0515
  128SOPE  H11B13711   2.915   6.987   2.105  1.7614  0.3788  2.2537
  128SOPE     P13712   2.712   6.702   2.143  0.2197  0.2178 -0.3436
  128SOPE   O1313713   2.760   6.632   2.017  0.2697 -0.1098  0.2997
  128SOPE   O1413714   2.578   6.762   2.146 -0.1481  0.3031  0.0633
  128SOPE   O1213715   2.807   6.826   2.176 -0.6832  0.2000  0.1779
  128SOPE   O1113716   2.746   6.613   2.271 -0.6368 -0.3260  0.2361
  128SOPE    C113717   2.658   6.571   2.369 -0.2420 -0.8803  0.0225
  128SOPE    HA13718   2.670   6.468   2.408  0.2886 -0.6437  0.4919
  128SOPE    HB13719   2.556   6.566   2.325 -0.1174  0.2119 -0.4129
  128SOPE    C213720   2.658   6.641   2.502 -0.1424 -0.3686  0.5479
  128SOPE    HS13721   2.665   6.752   2.502 -1.4249 -0.2774  0.2951
  128SOPE   O2113722   2.770   6.592   2.577  0.0025  0.0317 -0.0046
  128SOPE   C2113723   2.879   6.645   2.558 -0.0138  0.7470  0.4249
  128SOPE   O2213724   2.901   6.735   2.476 -0.0501  0.2071  0.5932
  128SOPE   C2213725   2.989   6.585   2.636 -0.1513  0.3073  0.0680
  128SOPE   H2R13726   3.077   6.573   2.569 -1.3390  0.0616 -1.5338
  128SOPE   H2S13727   2.946   6.488   2.670 -1.5004  0.6738 -0.5152
  128SOPE    C313728   2.539   6.614   2.589  0.0512  0.1064  0.2068
  128SOPE    HX13729   2.511   6.507   2.602 -2.4319  0.4621 -1.4182
  128SOPE    HY13730   2.452   6.651   2.530 -0.8030  0.6581  1.7383
  128SOPE   O3113731   2.539   6.696   2.712  0.1847 -0.8149  0.4518
  128SOPE   C3113732   2.550   6.622   2.824 -0.4629  0.1172  0.3854
  128SOPE   O3213733   2.544   6.503   2.830 -0.0845  0.3949  0.3415
  128SOPE   C3213734   2.574   6.717   2.944  0.1057 -0.4281 -1.2561
  128SOPE   H2X13735   2.497   6.796   2.950 -1.2525 -1.6584 -1.8888
  128SOPE   H2Y13736   2.670   6.768   2.921  0.1021  0.4262  0.4699
  128SOPE   C2313737   3.031   6.669   2.757 -0.3166 -0.9679 -0.1100
  128SOPE   H3R13738   2.953   6.662   2.836 -0.1707 -0.5292  0.0761
  128SOPE   H3S13739   3.047   6.777   2.735  0.2445 -0.6237  1.7918
  128SOPE   C2413740   3.169   6.613   2.807 -0.6750  0.1808  0.0391
  128SOPE   H4R13741   3.248   6.624   2.730 -0.0320  0.5441  0.7366
  128SOPE   H4S13742   3.215   6.662   2.895  1.1009 -1.1632 -0.0950
  128SOPE   C2513743   3.173   6.466   2.843 -0.2978  0.6234 -0.4629
  128SOPE   H5R13744   3.078   6.440   2.893 -0.9691  0.5599 -1.7517
  128SOPE   H5S13745   3.173   6.407   2.749  3.0163  0.2110 -0.3543
  128SOPE   C2613746   3.294   6.435   2.929 -0.2387 -1.1643 -0.0427
  128SOPE   H6R13747   3.380   6.469   2.867 -1.7857  0.1431 -1.5622
  128SOPE   H6S13748   3.290   6.492   3.024 -2.0872 -2.1506  0.5228
  128SOPE   C2713749   3.316   6.286   2.953  0.0067 -0.5436  0.1851
  128SOPE   H7R13750   3.224   6.226   2.970  0.5864 -1.9885 -1.5031
  128SOPE   H7S13751   3.353   6.245   2.857  4.4028  2.7908  0.1473
  128SOPE   C2813752   3.422   6.255   3.059 -0.5441  1.0939 -0.2911
  128SOPE   H8R13753   3.383   6.285   3.158 -1.3444  0.8479 -0.5295
  128SOPE   H8S13754   3.441   6.145   3.051  3.0864  1.6881 -3.6451
  128SOPE   C2913755   3.561   6.296   3.028  0.1304 -0.0403 -0.2808
  128SOPE   H9113756   3.598   6.247   2.937 -0.4916  0.3908 -0.7764
  128SOPE  C21013757   3.651   6.367   3.098  0.1094 -0.3782 -0.0007
  128SOPE  H10113758   3.750   6.385   3.052  0.2773  0.0146  0.5043
  128SOPE  C21113759   3.641   6.439   3.227  0.4269  0.0881  0.6823
  128SOPE  H11R13760   3.559   6.398   3.289  0.3991 -0.4233  0.3122
  128SOPE  H11S13761   3.615   6.545   3.203  1.5665  0.3106  0.3301
  128SOPE  C21213762   3.769   6.429   3.313 -0.0899  0.0033  0.0508
  128SOPE  H12R13763   3.868   6.444   3.266  0.7906 -1.4090  1.3780
  128SOPE  H12S13764   3.771   6.321   3.337 -0.4101 -0.3267 -1.3069
  128SOPE  C21313765   3.759   6.524   3.441 -1.4108 -0.1424  0.5669
  128SOPE  H13R13766   3.660   6.509   3.490 -2.0395  2.2951  0.1996
  128SOPE  H13S13767   3.754   6.627   3.398  0.6202 -0.7608 -1.2964
  128SOPE  C21413768   3.871   6.505   3.545  0.5114 -0.7982 -0.2867
  128SOPE  H14R13769   3.970   6.549   3.522  0.1059  0.5371  0.4381
  128SOPE  H14S13770   3.897   6.397   3.554  1.5617 -0.5808 -0.5629
  128SOPE  C21513771   3.825   6.574   3.673  0.6573  0.2741 -0.4448
  128SOPE  H15R13772   3.738   6.512   3.702  2.3352 -2.1835 -0.3426
  128SOPE  H15S13773   3.793   6.677   3.646  1.0519  0.0287 -1.8808
  128SOPE  C21613774   3.925   6.565   3.798  0.2659 -0.1837  0.3585
  128SOPE  H16R13775   4.005   6.637   3.769 -0.0721 -0.2046 -0.6775
  128SOPE  H16S13776   3.971   6.465   3.789 -0.8701 -0.8988  1.9727
  128SOPE  C21713777   3.869   6.614   3.930 -0.8922  0.7718  0.5584
  128SOPE  H17R13778   3.812   6.706   3.905 -1.2211 -0.0086 -1.9373
  128SOPE  H17S13779   3.963   6.641   3.984  0.3948  0.9370 -1.6319
  128SOPE  C21813780   3.781   6.511   3.995 -0.6732  0.2631  0.5512
  128SOPE  H18R13781   3.756   6.534   4.101  2.1326 -2.1968  1.9036
  128SOPE  H18S13782   3.822   6.408   3.989  0.8259  0.9133 -1.7200
  128SOPE  H18T13783   3.694   6.514   3.927 -0.4612  0.5830  0.2899
  128SOPE   C3313784   2.596   6.644   3.078  0.6635  0.2792  0.7940
  128SOPE   H3X13785   2.616   6.538   3.053  0.4160  0.6406 -1.0946
  128SOPE   H3Y13786   2.497   6.644   3.130 -0.0825 -0.6750 -0.5558
  128SOPE   C3413787   2.699   6.706   3.173 -0.0927  0.0599 -0.4355
  128SOPE   H4X13788   2.674   6.815   3.178  2.7823  0.7441  0.7812
  128SOPE   H4Y13789   2.801   6.700   3.130  0.3105 -0.9672  0.6278
  128SOPE   C3513790   2.691   6.649   3.319  0.1307  0.4871  0.1256
  128SOPE   H5X13791   2.732   6.546   3.319 -0.8451  0.0690  1.6808
  128SOPE   H5Y13792   2.587   6.642   3.358  0.6097  0.5540  1.4277
  128SOPE   C3613793   2.761   6.723   3.430  0.4131 -0.1242  0.1125
  128SOPE   H6X13794   2.708   6.820   3.438  0.5668 -0.0870  0.7376
  128SOPE   H6Y13795   2.867   6.740   3.401  0.5432 -0.3254  0.4736
  128SOPE   C3713796   2.753   6.663   3.572  0.5879  0.5710  0.4303
  128SOPE   H7X13797   2.780   6.555   3.570  0.4497  0.5199 -1.8287
  128SOPE   H7Y13798   2.652   6.667   3.618  0.1350 -0.7245 -0.3760
  128SOPE   C3813799   2.844   6.738   3.667  0.4241  0.1082 -0.7714
  128SOPE   H8X13800   2.796   6.834   3.695 -0.2134 -0.6028  0.6551
  128SOPE   H8Y13801   2.943   6.762   3.621  1.1974  0.4191  0.9816
  128SOPE   C3913802   2.886   6.645   3.784  0.6350 -0.4267 -0.6030
  128SOPE   H9X13803   2.928   6.545   3.758 -0.5164 -1.1564  0.2337
  128SOPE   H9Y13804   2.797   6.602   3.835  2.7777 -3.4038  0.9578
  128SOPE  C31013805   2.967   6.713   3.888  0.2235  0.1607 -0.5062
  128SOPE  H10X13806   2.915   6.807   3.917  0.3900  0.7422 -2.0271
  128SOPE  H10Y13807   3.067   6.738   3.849  0.0382 -0.6064 -1.5301
  128SOPE  C31113808   2.997   6.621   4.000  0.4636  0.2643  0.4798
  128SOPE  H11X13809   3.078   6.663   4.063 -1.3870  2.0299  1.8593
  128SOPE  H11Y13810   3.031   6.529   3.948 -0.3545  0.7945 -1.0808
  128SOPE  C31213811   2.883   6.584   4.089  0.1304 -0.0842  0.1112
  128SOPE  H12X13812   2.831   6.495   4.048  1.3308 -0.6071 -0.3021
  128SOPE  H12Y13813   2.809   6.667   4.088  0.4346  0.2285  1.6657
  128SOPE  C31313814   2.924   6.544   4.230 -0.6587  0.3178 -0.2794
  128SOPE  H13X13815   3.010   6.605   4.265  1.4152 -0.0966 -4.0813
  128SOPE  H13Y13816   2.976   6.447   4.218  0.3761  0.5139  2.1582
  128SOPE  C31413817   2.811   6.538   4.322 -0.0876  0.1107 -0.2975
  128SOPE  H14X13818   2.736   6.463   4.289 -2.5160  0.9825  2.7551
  128SOPE  H14Y13819   2.762   6.638   4.317  1.5865  1.1868  2.5799
  128SOPE  C31513820   2.858   6.493   4.459 -0.3559 -0.2108 -0.0482
  128SOPE  H15X13821   2.914   6.576   4.507  0.1645 -1.9496  2.5966
  128SOPE  H15Y13822   2.935   6.415   4.440 -0.2548 -0.0874 -0.1489
  128SOPE  C31613823   2.748   6.461   4.552  0.0317 -0.1921  0.5530
  128SOPE  H16X13824   2.692   6.376   4.508  1.4701  0.8916 -4.0009
  128SOPE  H16Y13825   2.682   6.549   4.567  0.9826  0.7459 -0.5118
  128SOPE  C31713826   2.792   6.407   4.692 -0.7156  1.0824  0.2705
  128SOPE  H17X13827   2.823   6.496   4.752  1.6207 -1.6865  3.5988
  128SOPE  H17Y13828   2.870   6.328   4.690 -1.0572  0.7254  0.7856
  128SOPE  C31813829   2.669   6.354   4.766  0.6470 -0.5055  0.3477
  128SOPE  H18X13830   2.586   6.427   4.774 -0.3961 -1.8163  2.3198
  128SOPE  H18Y13831   2.695   6.348   4.874  0.9925 -1.3492  0.2288
  128SOPE  H18Z13832   2.628   6.260   4.723  2.0523 -0.3290 -1.4868
  129OSM      N13833   4.467   1.054   6.994  0.4272 -0.6946  0.1629
  129OSM    C1513834   4.454   1.101   7.136 -0.1641  0.2050 -0.6984
  129OSM   H15A13835   4.549   1.120   7.184 -0.7593 -0.8278  0.9868
  129OSM   H15B13836   4.392   1.034   7.193 -0.1657  1.1946  0.5095
  129OSM   H15C13837   4.405   1.196   7.146 -1.4287 -0.3540 -1.4294
  129OSM    C1413838   4.328   1.005   6.963 -0.0280 -0.3550  0.0805
  129OSM   H14A13839   4.322   0.967   6.863  0.3010  1.6035 -0.7350
  129OSM   H14B13840   4.263   1.088   6.988  0.3169 -0.5565  1.7562
  129OSM   H14C13841   4.298   0.918   7.019  0.4333 -1.5868 -1.5107
  129OSM    C1313842   4.499   1.176   6.908  0.3354 -0.2841 -0.3939
  129OSM   H13A13843   4.546   1.150   6.814 -0.1604  1.1519 -1.0760
  129OSM   H13B13844   4.578   1.235   6.952  3.0414 -2.7454 -1.6092
  129OSM   H13C13845   4.407   1.232   6.896  1.4963  1.9217  0.4840
  129OSM    C1213846   4.588   0.954   6.977  0.0186  0.1684  0.4672
  129OSM   H12A13847   4.596   0.902   7.071 -0.4155  0.7079  0.8092
  129OSM   H12B13848   4.682   1.007   6.969  0.7342 -1.1062  0.2356
  129OSM    C1113849   4.587   0.843   6.868  0.0918 -0.8101  0.1226
  129OSM   H11A13850   4.685   0.790   6.878  1.5921  1.7765  0.0046
  129OSM   H11B13851   4.589   0.907   6.778 -3.0319  2.6727  2.2643
  129OSM      P13852   4.475   0.632   6.964 -0.2315  0.3763  0.0809
  129OSM    O1313853   4.572   0.638   7.074 -0.2039  0.0518  0.3445
  129OSM    O1413854   4.334   0.607   7.009 -0.2375  0.1915 -0.1431
  129OSM    O1113855   4.519   0.526   6.854  0.0745  0.2661  0.7630
  129OSM    O1213856   4.469   0.766   6.883  0.1040 -0.1339 -0.6454
  129OSM    C1S13857   4.437   0.512   6.734 -0.0742  0.6255  0.5101
  129OSM    H1S13858   4.357   0.587   6.719  0.6731  1.0300 -1.8685
  129OSM    H1T13859   4.378   0.419   6.746  0.2032  0.6300  2.1134
  129OSM     NF13860   4.435   0.483   6.489  1.1124 -0.0137 -0.3631
  129OSM    HNF13861   4.461   0.394   6.451 -0.6019 -1.1963  1.0487
  129OSM    C2S13862   4.514   0.512   6.600  0.1508  0.4268  0.1986
  129OSM    H2S13863   4.560   0.612   6.583  0.5208  0.1308 -0.5602
  129OSM    C3S13864   4.631   0.406   6.599 -0.1605 -0.1565  0.1087
  129OSM    H3S13865   4.580   0.308   6.593 -0.9304  0.2074  0.6274
  129OSM     O313866   4.705   0.407   6.722  0.2854  0.7243  0.2410
  129OSM    HO313867   4.643   0.439   6.788  0.0141  0.9419 -0.1162
  129OSM    C4S13868   4.709   0.426   6.474 -0.4959  0.1503 -0.0074
  129OSM    H4S13869   4.664   0.373   6.390 -1.1197 -0.4095  0.6669
  129OSM    C5S13870   4.826   0.489   6.446 -0.2689  0.4000 -0.2330
  129OSM    H5S13871   4.883   0.524   6.534 -0.0040 -1.8044  0.5282
  129OSM    C6S13872   4.890   0.498   6.309 -0.8933 -0.6386  0.8293
  129OSM    H6S13873   4.964   0.417   6.292 -0.5651 -0.1390 -0.1692
  129OSM    H6T13874   4.947   0.594   6.311  2.9952 -2.6539 -1.0200
  129OSM    C7S13875   4.793   0.497   6.190 -0.6130 -0.1396 -0.6282
  129OSM    H7S13876   4.716   0.578   6.189 -0.1176  0.3592  0.3254
  129OSM    H7T13877   4.736   0.402   6.189 -0.0295 -0.4928 -1.0123
  129OSM    C8S13878   4.885   0.503   6.068 -0.5479 -0.1062 -0.7546
  129OSM    H8S13879   4.938   0.406   6.069  0.4447  0.4021  0.7443
  129OSM    H8T13880   4.960   0.584   6.079 -0.2944 -0.1597 -1.9847
  129OSM    C9S13881   4.810   0.510   5.940  0.5862 -0.7391 -0.4773
  129OSM    H9S13882   4.745   0.600   5.949  0.9365 -0.6818  2.4221
  129OSM    H9T13883   4.745   0.420   5.928  0.6214 -0.7800 -0.3562
  129OSM   C10S13884   4.903   0.522   5.822 -0.2364  0.2132  0.1791
  129OSM   H10S13885   4.956   0.427   5.803  0.1178  0.4295  0.0708
  129OSM   H10T13886   4.981   0.595   5.851  0.7316 -0.2893 -1.0552
  129OSM   C11S13887   4.827   0.565   5.694 -0.4318 -0.4216  0.0873
  129OSM   H11S13888   4.795   0.669   5.713  1.5107 -0.2947  3.6429
  129OSM   H11T13889   4.741   0.495   5.687 -0.5837 -0.4339  1.7700
  129OSM   C12S13890   4.911   0.554   5.561  0.4032 -0.1875 -0.0687
  129OSM   H12S13891   4.935   0.447   5.540 -2.4932 -1.2900  1.6576
  129OSM   H12T13892   5.004   0.611   5.580  1.0656 -1.7553  1.7072
  129OSM   C13S13893   4.852   0.621   5.431  0.0822 -0.1693 -0.0333
  129OSM   H13S13894   4.810   0.718   5.463  0.5195  0.1066 -0.2954
  129OSM   H13T13895   4.753   0.572   5.414 -0.4123  0.9763 -0.5948
  129OSM   C14S13896   4.952   0.622   5.314  0.1550 -0.0940 -0.0131
  129OSM   H14S13897   4.969   0.515   5.288 -1.1539 -0.6621  1.2878
  129OSM   H14T13898   5.048   0.677   5.327  0.6155 -0.5823 -1.1933
  129OSM   C15S13899   4.882   0.679   5.186 -0.4636 -0.1540 -0.3026
  129OSM   H15S13900   4.866   0.788   5.195 -4.0562 -0.6597  1.5903
  129OSM   H15T13901   4.781   0.636   5.168 -1.1994  0.5687  1.7856
  129OSM   C16S13902   4.966   0.652   5.057  0.2193 -0.2247 -0.2585
  129OSM   H16S13903   4.968   0.541   5.050  1.1426 -0.3195  1.0910
  129OSM   H16T13904   5.068   0.691   5.080  0.1131  0.2294 -0.5492
  129OSM   C17S13905   4.919   0.713   4.919  0.0990 -0.6915  0.3471
  129OSM   H17S13906   4.972   0.669   4.832 -1.6480 -1.2269 -0.4977
  129OSM   H17T13907   4.945   0.821   4.924 -1.2761 -0.3492  0.4400
  129OSM   C18S13908   4.771   0.709   4.893  0.2522  0.4538 -0.5585
  129OSM   H18S13909   4.707   0.753   4.973  0.1408  0.6415 -0.7502
  129OSM   H18T13910   4.725   0.609   4.877 -1.5739  1.0650  0.5481
  129OSM   H18U13911   4.751   0.765   4.800  0.2323  0.2983 -0.6482
  129OSM    C1F13912   4.333   0.549   6.447  0.3260 -0.3268  0.2914
  129OSM     OF13913   4.296   0.660   6.496 -0.0913 -0.1474 -0.9354
  129OSM    C2F13914   4.253   0.489   6.330 -0.5480  0.6685  0.2897
  129OSM    H2F13915   4.153   0.537   6.327 -0.6072  0.5119 -1.9942
  129OSM    H2G13916   4.241   0.380   6.348  1.7351  0.2557 -0.3778
  129OSM    C3F13917   4.324   0.519   6.195 -0.4726 -0.2130  0.0283
  129OSM    H3F13918   4.431   0.490   6.197  0.0364  1.5371  0.0867
  129OSM    H3G13919   4.306   0.628   6.182 -3.4099 -0.6071  0.0757
  129OSM    C4F13920   4.256   0.456   6.072  0.3237 -0.3093  0.0407
  129OSM    H4F13921   4.147   0.477   6.071  0.5350  1.1426  1.8156
  129OSM    H4G13922   4.264   0.346   6.081  0.5424 -0.4937 -1.9057
  129OSM    C5F13923   4.324   0.501   5.943 -0.4944  0.5390 -0.2050
  129OSM    H5F13924   4.308   0.426   5.863  2.2665 -0.4851  0.0719
  129OSM    H5G13925   4.433   0.491   5.963 -0.3871  1.0305 -0.5185
  129OSM    C6F13926   4.279   0.642   5.897  0.4797 -0.1246  0.2193
  129OSM    H6F13927   4.239   0.705   5.979  0.2413  2.9479 -2.0933
  129OSM    H6G13928   4.191   0.627   5.831  1.4805 -0.1307 -1.1674
  129OSM    C7F13929   4.382   0.724   5.825 -0.3214 -0.0542  0.0345
  129OSM    H7F13930   4.474   0.726   5.887 -0.2544  1.0372 -0.0768
  129OSM    H7G13931   4.355   0.832   5.814  2.3333  0.6254 -0.4437
  129OSM    C8F13932   4.414   0.676   5.681 -0.0015 -0.0663 -0.2569
  129OSM    H8F13933   4.443   0.569   5.670 -1.1169 -0.3374 -0.6866
  129OSM    H8G13934   4.512   0.717   5.648 -1.4468  0.9092 -3.7730
  129OSM    C9F13935   4.309   0.717   5.576 -0.4377 -0.2129  0.0052
  129OSM    H9F13936   4.209   0.723   5.620  0.3673 -2.1232  2.2771
  129OSM   C10F13937   4.340   0.752   5.444  1.5410  0.6107  0.0666
  129OSM   H10F13938   4.270   0.785   5.366  2.3958  0.5535 -0.7472
  129OSM   C11F13939   4.473   0.720   5.375 -0.2237 -0.3209  0.2502
  129OSM   H11F13940   4.468   0.653   5.286  2.8508  1.0029 -1.0804
  129OSM   H11G13941   4.542   0.664   5.441  0.2197 -0.9566 -0.7184
  129OSM   C12F13942   4.565   0.828   5.318 -0.5195 -0.3425 -0.2400
  129OSM   H12F13943   4.665   0.792   5.283 -0.2594  0.5566 -0.4545
  129OSM   H12G13944   4.587   0.906   5.393 -0.6648 -0.9404  0.4277
  129OSM   C13F13945   4.490   0.897   5.198  0.2043 -0.7975  0.6593
  129OSM   H13F13946   4.398   0.937   5.247  0.4978 -0.7222  1.1540
  129OSM   H13G13947   4.453   0.827   5.120 -0.7714 -0.3125  0.6618
  129OSM   C14F13948   4.560   1.020   5.145  0.0013  0.0933  0.5007
  129OSM   H14F13949   4.670   1.013   5.132 -0.2996 -1.3521 -2.0547
  129OSM   H14G13950   4.541   1.098   5.221 -1.6581 -0.2427  0.4683
  129OSM   C15F13951   4.502   1.068   5.004 -0.1286 -0.1833 -0.8897
  129OSM   H15F13952   4.539   1.170   4.980 -0.9372  0.6599  1.2280
  129OSM   H15G13953   4.391   1.064   5.003 -0.1879  1.1298 -0.5454
  129OSM   C16F13954   4.563   0.986   4.889 -0.2028 -0.6780  0.1510
  129OSM   H16F13955   4.531   0.880   4.891  2.2016 -1.4507  0.5562
  129OSM   H16G13956   4.671   0.985   4.911 -0.0896 -1.1027 -0.4041
  129OSM   C17F13957   4.558   1.049   4.753  0.3326  0.4908 -0.1075
  129OSM   H17F13958   4.601   1.151   4.758 -0.5178  0.8446  0.3704
  129OSM   H17G13959   4.452   1.064   4.722  0.0430 -0.0291  0.6202
  129OSM   C18F13960   4.618   0.967   4.635 -0.4924  0.0171 -1.0530
  129OSM   H18F13961   4.584   1.020   4.544  1.8854  1.3556 -1.2556
  129OSM   H18G13962   4.590   0.859   4.642  0.3982 -0.1346  0.7848
  129OSM   H18H13963   4.727   0.983   4.620 -0.4532  0.3533 -0.4647
  130OSM      N13964   6.486   1.308   6.625  0.0020  0.3892  1.0151
  130OSM    C1513965   6.584   1.198   6.587  0.8851 -0.4161  0.2886
  130OSM   H15A13966   6.652   1.240   6.515 -1.9825 -0.5887 -2.7385
  130OSM   H15B13967   6.536   1.116   6.535 -1.2952 -0.1402  1.7073
  130OSM   H15C13968   6.636   1.159   6.674 -1.0856  0.6981  2.0678
  130OSM    C1413969   6.409   1.345   6.502  0.4968  0.0218  0.5894
  130OSM   H14A13970   6.330   1.415   6.524 -1.3765 -2.0543  0.7653
  130OSM   H14B13971   6.356   1.257   6.469  0.0783  0.0705  1.1161
  130OSM   H14C13972   6.460   1.376   6.411 -2.7360 -2.0563 -2.1619
  130OSM    C1313973   6.401   1.253   6.728 -0.0349  0.7959 -0.2680
  130OSM   H13A13974   6.321   1.319   6.757  1.5405  1.9085  1.8104
  130OSM   H13B13975   6.459   1.214   6.810  1.2882 -0.2450 -1.6226
  130OSM   H13C13976   6.352   1.166   6.687  0.1578  1.3624 -1.7818
  130OSM    C1213977   6.558   1.428   6.685 -1.2999  0.5546  0.4018
  130OSM   H12A13978   6.641   1.463   6.624 -1.8474 -0.0967 -0.7472
  130OSM   H12B13979   6.611   1.407   6.777 -0.7977  2.2355  0.5391
  130OSM    C1113980   6.474   1.555   6.709  0.8584  0.1462  0.3070
  130OSM   H11A13981   6.514   1.615   6.793  1.3189 -2.1694  1.8179
  130OSM   H11B13982   6.371   1.529   6.741  1.3852  0.2917  2.2327
  130OSM      P13983   6.354   1.732   6.549  0.1925 -0.4572  0.1726
  130OSM    O1313984   6.368   1.848   6.641 -0.2054 -0.3065  0.0204
  130OSM    O1413985   6.353   1.768   6.407 -0.3391  0.4961 -0.0845
  130OSM    O1113986   6.227   1.651   6.584  1.1942  0.7732 -0.2447
  130OSM    O1213987   6.473   1.628   6.587 -0.4531 -0.1914 -0.0242
  130OSM    C1S13988   6.103   1.657   6.519 -0.6992  0.2769  0.5177
  130OSM    H1S13989   6.117   1.711   6.423 -0.3836 -0.1205  0.3362
  130OSM    H1T13990   6.035   1.712   6.588  1.4810  2.2298  1.2431
  130OSM     NF13991   5.913   1.536   6.405  0.1098 -0.0752 -0.1338
  130OSM    HNF13992   5.828   1.524   6.456 -0.0529  1.7653  0.1059
  130OSM    C2S13993   6.034   1.520   6.479 -0.1764 -0.0343 -0.6077
  130OSM    H2S13994   6.091   1.455   6.409 -1.6206 -0.2849 -1.5949
  130OSM    C3S13995   6.015   1.422   6.601 -0.5363  0.3413  0.7410
  130OSM    H3S13996   5.930   1.470   6.655 -0.2565  3.5644 -1.3819
  130OSM     O313997   6.129   1.424   6.692  0.8317 -0.4294  0.1398
  130OSM    HO313998   6.184   1.491   6.649  0.0773 -1.4361 -2.6484
  130OSM    C4S13999   5.973   1.274   6.563 -0.0168  0.2392 -0.4992
  130OSM    H4S14000   5.863   1.272   6.557 -0.0097 -1.7262 -0.7994
  130OSM    C5S14001   6.060   1.178   6.526 -0.7617 -0.0776 -0.5017
  130OSM    H5S14002   6.166   1.205   6.517 -0.6388 -0.5751 -0.5756
  130OSM    C6S14003   6.027   1.039   6.470 -0.8460 -0.7950 -0.6890
  130OSM    H6S14004   6.053   0.960   6.544 -0.9283 -0.3787 -0.2098
  130OSM    H6T14005   6.085   1.008   6.381  0.5726 -0.1971  0.0005
  130OSM    C7S14006   5.882   1.008   6.425 -0.6910 -0.4031 -0.0810
  130OSM    H7S14007   5.809   1.029   6.506  0.8321 -1.6676  1.7114
  130OSM    H7T14008   5.872   0.900   6.400 -0.0220  0.2114 -3.4931
  130OSM    C8S14009   5.841   1.087   6.297  1.3573  0.9592  0.4644
  130OSM    H8S14010   5.887   1.042   6.206 -0.0858 -1.6349  0.9545
  130OSM    H8T14011   5.862   1.195   6.317  2.0173  0.6950  1.2533
  130OSM    C9S14012   5.691   1.078   6.266 -0.1491 -0.1505  0.2606
  130OSM    H9S14013   5.633   1.105   6.357  2.0027 -1.6088  2.1667
  130OSM    H9T14014   5.677   0.969   6.249  1.3807 -0.5269  1.2472
  130OSM   C10S14015   5.650   1.167   6.147 -0.2126  0.2193 -0.4669
  130OSM   H10S14016   5.711   1.259   6.151  0.2614 -0.0175 -1.6954
  130OSM   H10T14017   5.543   1.193   6.163 -0.4053  0.8338 -2.5210
  130OSM   C11S14018   5.667   1.097   6.010  0.1564  0.2196  0.0930
  130OSM   H11S14019   5.613   1.000   6.007 -1.2351  1.0040 -1.3503
  130OSM   H11T14020   5.777   1.077   6.011  0.0106 -0.6534 -0.3214
  130OSM   C12S14021   5.650   1.190   5.884  0.6874  0.1626 -0.6706
  130OSM   H12S14022   5.697   1.290   5.894 -1.6577  1.2878 -0.1612
  130OSM   H12T14023   5.540   1.203   5.875  0.7919  3.1306  1.1859
  130OSM   C13S14024   5.696   1.111   5.755  0.2519 -0.3360 -0.7469
  130OSM   H13S14025   5.634   1.019   5.754 -2.3819  1.3313 -1.4034
  130OSM   H13T14026   5.803   1.085   5.765  0.2542  0.0546  0.3189
  130OSM   C14S14027   5.658   1.181   5.627  0.0864 -0.0506 -0.1232
  130OSM   H14S14028   5.714   1.134   5.543  0.6879 -1.8057  1.1952
  130OSM   H14T14029   5.674   1.291   5.634 -1.2880  0.1383  0.3993
  130OSM   C15S14030   5.512   1.163   5.582 -0.2965 -0.4697 -0.4107
  130OSM   H15S14031   5.455   1.199   5.671  1.8349 -1.6315  1.5463
  130OSM   H15T14032   5.475   1.060   5.565 -0.8462 -0.3501  0.0324
  130OSM   C16S14033   5.474   1.260   5.470 -0.3705  0.9161 -0.2354
  130OSM   H16S14034   5.434   1.356   5.507 -0.1441  1.4007 -1.2233
  130OSM   H16T14035   5.389   1.205   5.424  0.1321 -0.0991  0.0063
  130OSM   C17S14036   5.576   1.281   5.352  0.2680  0.0451 -0.7287
  130OSM   H17S14037   5.580   1.184   5.299  0.0213 -0.3286 -0.0687
  130OSM   H17T14038   5.678   1.315   5.382 -0.1623  1.0314 -0.3429
  130OSM   C18S14039   5.519   1.383   5.256 -0.3238  0.1077 -0.6316
  130OSM   H18S14040   5.602   1.409   5.186 -0.6089 -1.1684 -1.4863
  130OSM   H18T14041   5.481   1.476   5.303 -0.1331 -1.1431  2.2033
  130OSM   H18U14042   5.444   1.340   5.186  0.8810  0.4853 -2.2234
  130OSM    C1F14043   5.906   1.586   6.281 -0.6699  0.3380  0.0573
  130OSM     OF14044   6.011   1.614   6.221  0.6061 -0.4424 -0.3207
  130OSM    C2F14045   5.775   1.613   6.221  1.3071  0.4910 -0.4466
  130OSM    H2F14046   5.718   1.676   6.294  1.0483  0.4097 -0.5775
  130OSM    H2G14047   5.713   1.521   6.218  1.4061  0.4102 -0.0160
  130OSM    C3F14048   5.777   1.687   6.089  0.2879 -0.3593 -0.7105
  130OSM    H3F14049   5.819   1.630   6.003  3.2631  0.4151  0.1172
  130OSM    H3G14050   5.860   1.761   6.093  0.1831 -0.2217 -1.0181
  130OSM    C4F14051   5.638   1.728   6.033 -0.5524 -0.7292  0.7540
  130OSM    H4F14052   5.593   1.815   6.084  0.2817  0.2433 -0.1304
  130OSM    H4G14053   5.560   1.648   6.034 -2.4918  1.0886  1.3467
  130OSM    C5F14054   5.633   1.785   5.891 -0.7245  0.0481 -0.2029
  130OSM    H5F14055   5.703   1.870   5.905 -1.7753  0.6547  1.8644
  130OSM    H5G14056   5.535   1.835   5.876 -1.4625 -1.3827 -0.3055
  130OSM    C6F14057   5.660   1.685   5.784  0.3861 -0.2346 -0.0748
  130OSM    H6F14058   5.590   1.601   5.805 -0.5400  0.5902  0.2022
  130OSM    H6G14059   5.769   1.667   5.795  0.5289  1.7987  2.9233
  130OSM    C7F14060   5.615   1.737   5.645 -0.7181 -0.4613  0.0128
  130OSM    H7F14061   5.622   1.847   5.651 -0.1147 -0.5401  0.9965
  130OSM    H7G14062   5.508   1.714   5.628 -0.8587 -1.2631  1.7569
  130OSM    C8F14063   5.695   1.681   5.524 -0.0269  0.0119  0.0542
  130OSM    H8F14064   5.626   1.670   5.438  0.5538  1.4557 -0.6403
  130OSM    H8G14065   5.728   1.578   5.548 -0.9253 -0.1487  0.6395
  130OSM    C9F14066   5.801   1.780   5.485  0.0123 -0.1637  0.1309
  130OSM    H9F14067   5.828   1.856   5.559 -0.9139 -0.2252  0.5334
  130OSM   C10F14068   5.875   1.788   5.368  0.0930 -0.3169  0.0276
  130OSM   H10F14069   5.945   1.869   5.344 -0.0886 -0.3832 -0.7629
  130OSM   C11F14070   5.870   1.678   5.263  0.3431 -0.0148  0.1473
  130OSM   H11F14071   5.829   1.586   5.310  0.9833  0.0800  0.9238
  130OSM   H11G14072   5.969   1.642   5.229 -0.7550 -3.0724 -0.1373
  130OSM   C12F14073   5.788   1.706   5.140  0.5240 -0.5550 -0.7983
  130OSM   H12F14074   5.683   1.730   5.169  0.6548  1.1534 -1.5883
  130OSM   H12G14075   5.778   1.611   5.085  0.9159 -0.8925 -0.2913
  130OSM   C13F14076   5.835   1.824   5.050 -0.4173 -0.6341  0.5235
  130OSM   H13F14077   5.939   1.800   5.018 -1.0728 -1.7888 -0.8716
  130OSM   H13G14078   5.831   1.913   5.116  1.9277  0.6723 -0.9138
  130OSM   C14F14079   5.743   1.837   4.927  0.1570 -0.7702  0.5549
  130OSM   H14F14080   5.645   1.875   4.962 -0.0866 -0.5117 -0.3898
  130OSM   H14G14081   5.740   1.740   4.873 -2.3398  0.7091 -2.2355
  130OSM   C15F14082   5.805   1.941   4.829  0.0707 -0.6484  0.4439
  130OSM   H15F14083   5.914   1.919   4.829 -0.3046 -2.9320 -1.7667
  130OSM   H15G14084   5.790   2.046   4.863  2.0218  0.1507 -0.9397
  130OSM   C16F14085   5.750   1.929   4.682 -0.3398 -0.6189  0.3392
  130OSM   H16F14086   5.790   1.834   4.641 -1.5058 -0.5801 -0.9820
  130OSM   H16G14087   5.774   2.008   4.607  0.3176 -0.8034  0.3547
  130OSM   C17F14088   5.595   1.936   4.689  0.0880  0.4931 -0.5991
  130OSM   H17F14089   5.556   2.019   4.751 -2.2104  0.1003 -1.3983
  130OSM   H17G14090   5.562   1.849   4.750  1.3833  0.2342 -0.2499
  130OSM   C18F14091   5.539   1.934   4.548  0.2124 -0.3832 -0.1418
  130OSM   H18F14092   5.554   2.035   4.504  1.5874 -0.5830 -0.1931
  130OSM   H18G14093   5.428   1.930   4.552  0.0941  1.2767 -1.0451
  130OSM   H18H14094   5.587   1.852   4.490 -0.0613 -1.1810  0.7322
  131OSM      N14095   6.804   4.688   6.706 -0.0297  0.6972 -0.2367
  131OSM    C1514096   6.807   4.539   6.726  0.5153  0.2999  0.3189
  131OSM   H15A14097   6.887   4.499   6.667 -0.7634  0.2108 -1.4280
  131OSM   H15B14098   6.717   4.494   6.687  0.7824  0.9465 -1.0787
  131OSM   H15C14099   6.821   4.515   6.831 -0.2580 -2.1486 -0.0884
  131OSM    C1414100   6.711   4.749   6.812  1.0961 -0.5456 -0.2179
  131OSM   H14A14101   6.741   4.734   6.914 -2.7823 -1.0586  1.0220
  131OSM   H14B14102   6.613   4.703   6.809  0.7202  0.2783 -1.5712
  131OSM   H14C14103   6.686   4.851   6.788 -0.0678 -0.9058 -0.6054
  131OSM    C1314104   6.944   4.747   6.729  0.3377 -0.2985 -0.5233
  131OSM   H13A14105   7.023   4.717   6.663 -0.9905  2.8651 -3.8622
  131OSM   H13B14106   6.985   4.730   6.828  1.9458 -2.3331 -1.4788
  131OSM   H13C14107   6.939   4.854   6.723  1.0321 -0.2822 -0.8854
  131OSM    C1214108   6.747   4.721   6.573  0.2172  0.5298  0.3714
  131OSM   H12A14109   6.639   4.712   6.578  0.1426  0.0913 -1.2591
  131OSM   H12B14110   6.778   4.650   6.497 -0.9005  0.2148  0.1815
  131OSM    C1114111   6.761   4.871   6.526  0.0144  0.3801  0.5098
  131OSM   H11A14112   6.741   4.883   6.417 -0.4842 -1.0903  0.4116
  131OSM   H11B14113   6.867   4.901   6.539 -0.3139  0.9054  2.1756
  131OSM      P14114   6.522   4.981   6.566  0.0751  0.4909 -0.1373
  131OSM    O1314115   6.446   4.863   6.612  0.4088  0.3514 -0.4818
  131OSM    O1414116   6.488   5.112   6.622  0.8104  0.2671  0.3809
  131OSM    O1114117   6.524   4.991   6.411  0.0653 -0.8873  0.3391
  131OSM    O1214118   6.679   4.961   6.594  0.9579 -0.1216  0.5730
  131OSM    C1S14119   6.455   5.077   6.329  0.3112 -0.3674  0.4106
  131OSM    H1S14120   6.466   5.181   6.366 -0.2731  0.3336 -1.2555
  131OSM    H1T14121   6.350   5.041   6.328 -0.0432  0.5827 -0.9265
  131OSM     NF14122   6.423   5.178   6.114 -0.2152 -0.6237  0.1161
  131OSM    HNF14123   6.371   5.140   6.039  1.8226 -1.4408 -0.9767
  131OSM    C2S14124   6.510   5.081   6.186 -0.3325  0.3696  0.3568
  131OSM    H2S14125   6.611   5.128   6.194  0.3912 -1.0400 -0.1822
  131OSM    C3S14126   6.518   4.940   6.121  0.1277  0.3684 -0.0955
  131OSM    H3S14127   6.414   4.901   6.119 -0.1963  0.7729  3.1394
  131OSM     O314128   6.605   4.840   6.180 -0.0417  0.1375 -0.0043
  131OSM    HO314129   6.605   4.852   6.275 -0.9392 -0.5536  0.0911
  131OSM    C4S14130   6.572   4.958   5.977 -0.6762 -0.4220 -0.4036
  131OSM    H4S14131   6.658   5.026   5.967 -1.1707  0.0494 -1.6983
  131OSM    C5S14132   6.525   4.915   5.857 -0.1122  0.6700  0.3843
  131OSM    H5S14133   6.434   4.853   5.862 -0.2354  0.7630 -0.4703
  131OSM    C6S14134   6.572   4.938   5.715  0.2960  0.6719 -0.3219
  131OSM    H6S14135   6.616   4.840   5.686 -1.7987 -0.9992  1.7121
  131OSM    H6T14136   6.655   5.011   5.708 -1.4680  2.8970  0.7544
  131OSM    C7S14137   6.470   4.989   5.626  0.5795 -0.0236  0.3013
  131OSM    H7S14138   6.431   5.092   5.631 -1.8414 -0.7958 -1.0225
  131OSM    H7T14139   6.380   4.925   5.638  0.3131  0.5011  1.1382
  131OSM    C8S14140   6.517   4.986   5.478  0.3083 -0.0027 -0.0624
  131OSM    H8S14141   6.531   4.878   5.457 -1.2108 -0.2949  0.3225
  131OSM    H8T14142   6.609   5.048   5.469 -0.4137  0.8111 -2.6975
  131OSM    C9S14143   6.411   5.048   5.384  0.1561 -0.3974 -0.1137
  131OSM    H9S14144   6.408   5.159   5.389 -1.1390 -0.3962 -0.5513
  131OSM    H9T14145   6.311   5.008   5.409 -0.2521  0.4433 -0.3465
  131OSM   C10S14146   6.440   5.016   5.240 -0.3639 -0.8354  0.7807
  131OSM   H10S14147   6.471   4.910   5.233 -1.2393 -1.2359  2.4200
  131OSM   H10T14148   6.534   5.066   5.208 -0.5605  0.1801  1.7589
  131OSM   C11S14149   6.322   5.046   5.149 -0.3811 -0.6154  0.7820
  131OSM   H11S14150   6.317   5.154   5.123 -0.4303 -0.9918 -0.8891
  131OSM   H11T14151   6.226   5.030   5.203 -0.2384  0.5728  1.4130
  131OSM   C12S14152   6.325   4.971   5.018  0.2484  0.1958 -0.1609
  131OSM   H12S14153   6.401   4.891   5.020  1.9191  1.6164 -2.4044
  131OSM   H12T14154   6.357   5.050   4.947  0.4236  0.9759  0.7666
  131OSM   C13S14155   6.179   4.925   4.978  0.4478  0.1351  0.0856
  131OSM   H13S14156   6.104   5.006   4.988  0.7322  0.7154 -2.1579
  131OSM   H13T14157   6.137   4.859   5.058 -2.3066  1.6989  0.0355
  131OSM   C14S14158   6.172   4.856   4.838  0.1887 -0.3383 -0.1403
  131OSM   H14S14159   6.062   4.851   4.819  0.0736 -0.3632  0.4846
  131OSM   H14T14160   6.216   4.754   4.838 -1.5069 -1.1343 -2.2574
  131OSM   C15S14161   6.234   4.949   4.729  0.2856  0.0211 -0.6671
  131OSM   H15S14162   6.342   4.959   4.754 -0.3634  0.4061  2.5199
  131OSM   H15T14163   6.177   5.044   4.740 -1.6006 -1.2355  1.4855
  131OSM   C16S14164   6.215   4.884   4.592 -0.1821 -0.1836  0.1725
  131OSM   H16S14165   6.107   4.871   4.569 -0.6054 -0.0467  1.9384
  131OSM   H16T14166   6.256   4.781   4.593 -0.9276 -0.4822  0.8335
  131OSM   C17S14167   6.268   4.979   4.480  0.0689 -0.5052  0.3640
  131OSM   H17S14168   6.225   5.081   4.495  1.9142  0.4663 -0.5943
  131OSM   H17T14169   6.238   4.942   4.380  1.3424  0.6152 -0.4616
  131OSM   C18S14170   6.422   4.999   4.460 -0.4869  0.6546  0.0607
  131OSM   H18S14171   6.488   4.910   4.456  0.2969  1.2201  0.0920
  131OSM   H18T14172   6.459   5.059   4.546 -0.5515 -1.1096  1.3781
  131OSM   H18U14173   6.436   5.057   4.366 -2.4669  0.7360 -0.2274
  131OSM    C1F14174   6.405   5.316   6.128  0.0830  0.5673 -0.7043
  131OSM     OF14175   6.475   5.381   6.202 -0.1399 -0.0982 -0.6265
  131OSM    C2F14176   6.288   5.379   6.055  0.1855  0.9214 -0.4785
  131OSM    H2F14177   6.227   5.442   6.122 -1.4673  0.3705 -1.4185
  131OSM    H2G14178   6.219   5.308   6.005  0.5242 -0.9579  1.6167
  131OSM    C3F14179   6.336   5.472   5.941 -0.3222  0.4034  0.2241
  131OSM    H3F14180   6.376   5.397   5.870 -0.6328 -0.2982  0.7861
  131OSM    H3G14181   6.411   5.550   5.966  1.6766 -1.1622 -0.5937
  131OSM    C4F14182   6.222   5.555   5.872 -0.5627  0.0062 -0.6792
  131OSM    H4F14183   6.167   5.614   5.948 -2.0035 -0.4166 -1.3579
  131OSM    H4G14184   6.164   5.470   5.830  0.7106 -0.1288 -2.3003
  131OSM    C5F14185   6.281   5.644   5.762  0.3607  0.5111 -0.7010
  131OSM    H5F14186   6.335   5.725   5.816 -0.4035  0.5278  0.0547
  131OSM    H5G14187   6.193   5.681   5.705 -0.1504  0.9928  0.3767
  131OSM    C6F14188   6.379   5.574   5.663  0.8097 -0.3533 -0.2304
  131OSM    H6F14189   6.343   5.474   5.632 -0.7663  0.4694 -1.1992
  131OSM    H6G14190   6.475   5.567   5.719  0.8368 -0.9876 -0.3447
  131OSM    C7F14191   6.391   5.657   5.531  0.2161  0.5594 -1.0159
  131OSM    H7F14192   6.399   5.766   5.549  1.4056  0.2610  0.5221
  131OSM    H7G14193   6.290   5.638   5.488 -0.3511 -0.3071  0.6089
  131OSM    C8F14194   6.506   5.606   5.438 -0.8397 -0.2468  0.1384
  131OSM    H8F14195   6.465   5.621   5.336 -0.8651  0.2791  0.2223
  131OSM    H8G14196   6.515   5.495   5.446  0.6163 -0.2139 -0.7615
  131OSM    C9F14197   6.630   5.693   5.469 -0.1642  0.0553  0.0507
  131OSM    H9F14198   6.661   5.705   5.574  0.2324  0.0852 -0.0670
  131OSM   C10F14199   6.711   5.749   5.374  0.2220  0.4899 -0.4048
  131OSM   H10F14200   6.805   5.796   5.406  0.4691  0.4279 -1.0266
  131OSM   C11F14201   6.700   5.753   5.233 -0.0170 -0.3099 -1.2264
  131OSM   H11F14202   6.637   5.671   5.192  0.3489 -0.6912 -1.0390
  131OSM   H11G14203   6.805   5.745   5.197  0.9523  1.7190  0.9216
  131OSM   C12F14204   6.631   5.873   5.165  0.2536  0.5953  1.1214
  131OSM   H12F14205   6.685   5.963   5.200  0.5331  0.1290  1.9085
  131OSM   H12G14206   6.525   5.872   5.200 -0.0442 -2.1513  0.4003
  131OSM   C13F14207   6.631   5.877   5.006  0.3681 -1.0232 -0.0932
  131OSM   H13F14208   6.735   5.897   4.974  0.0863 -1.1555 -1.1409
  131OSM   H13G14209   6.571   5.968   4.986 -2.1282 -1.5243  3.8046
  131OSM   C14F14210   6.574   5.752   4.933  0.0874  0.3103 -0.5408
  131OSM   H14F14211   6.468   5.753   4.966  0.0961  1.4405 -0.5080
  131OSM   H14G14212   6.634   5.669   4.976 -0.7631  0.7186  1.5477
  131OSM   C15F14213   6.588   5.771   4.788  0.2411  0.1201  0.3209
  131OSM   H15F14214   6.538   5.868   4.765  0.1253 -0.1442 -0.5965
  131OSM   H15G14215   6.521   5.705   4.728 -0.1021  2.1964 -1.7322
  131OSM   C16F14216   6.733   5.764   4.730 -0.2630  0.4073  0.8988
  131OSM   H16F14217   6.804   5.838   4.774  1.1068 -1.6989  2.4322
  131OSM   H16G14218   6.734   5.784   4.621 -2.9649 -1.1347  0.5156
  131OSM   C17F14219   6.799   5.629   4.754  0.0865 -0.4960 -0.1060
  131OSM   H17F14220   6.723   5.555   4.719 -1.6043  1.0591  0.1483
  131OSM   H17G14221   6.818   5.616   4.863 -0.3010  0.1810  0.0467
  131OSM   C18F14222   6.923   5.598   4.676 -0.3654 -0.3778 -1.1181
  131OSM   H18F14223   6.895   5.604   4.569 -2.2954 -1.3033 -0.7055
  131OSM   H18G14224   6.967   5.505   4.719  2.1146  1.6599  1.1150
  131OSM   H18H14225   7.007   5.667   4.697  0.0452 -1.1926  0.0883
  132OSM      N14226   0.144   1.285   7.390  0.0031  0.3357 -0.7597
  132OSM    C1514227   0.171   1.429   7.392 -0.3754  0.3201  0.5291
  132OSM   H15A14228   0.080   1.484   7.408  0.6105  1.6734  1.6516
  132OSM   H15B14229   0.217   1.463   7.300 -2.5636  2.6961  0.1921
  132OSM   H15C14230   0.239   1.452   7.472  0.3600 -1.5285  0.4811
  132OSM    C1414231   0.260   1.192   7.376  0.2320 -0.3503  0.0046
  132OSM   H14A14232   0.231   1.088   7.379 -3.0942  0.4709  0.4815
  132OSM   H14B14233   0.331   1.208   7.455  0.1541  0.3436 -0.0592
  132OSM   H14C14234   0.312   1.216   7.285 -1.5291 -1.0616 -1.2541
  132OSM    C1314235   0.093   1.250   7.527  0.3710 -0.6549  0.0451
  132OSM   H13A14236   0.088   1.144   7.544 -0.3145 -0.3058  2.4088
  132OSM   H13B14237  -0.004   1.298   7.534  0.6987 -0.2045  1.9034
  132OSM   H13C14238   0.165   1.289   7.597  1.6100  0.7992 -1.9333
  132OSM    C1214239   0.042   1.249   7.286  0.0446  0.1388  0.3816
  132OSM   H12A14240  -0.043   1.316   7.283 -0.9525 -1.0998 -0.2002
  132OSM   H12B14241   0.001   1.150   7.299 -2.4839  0.7520 -1.9236
  132OSM    C1114242   0.086   1.253   7.133 -0.3948 -0.2897  0.5269
  132OSM   H11A14243   0.136   1.350   7.115  2.6915 -1.7581  0.5925
  132OSM   H11B14244  -0.001   1.253   7.064  1.3213  1.1812 -1.7874
  132OSM      P14245   0.145   1.028   7.017 -0.3029  0.2942 -0.3842
  132OSM    O1314246   0.268   0.940   6.996  0.4591 -0.2651 -0.2866
  132OSM    O1414247   0.031   0.954   7.077  0.4586 -0.3745 -0.6540
  132OSM    O1114248   0.096   1.089   6.879  0.5272  0.0159 -0.4326
  132OSM    O1214249   0.186   1.155   7.100  0.1149 -0.0157 -0.1745
  132OSM    C1S14250   0.195   1.143   6.790 -0.8531 -0.5278 -0.1792
  132OSM    H1S14251   0.283   1.075   6.793 -1.5280 -1.3974  0.3542
  132OSM    H1T14252   0.243   1.236   6.826  1.0923 -1.5329 -0.0496
  132OSM     NF14253   0.263   1.172   6.555 -0.0784  0.9958  0.4958
  132OSM    HNF14254   0.267   1.264   6.516 -3.7415  1.4741  0.8318
  132OSM    C2S14255   0.150   1.154   6.644 -0.0253  0.3104  0.0858
  132OSM    H2S14256   0.111   1.054   6.614  4.5475 -1.2901 -1.3711
  132OSM    C3S14257   0.021   1.246   6.618 -0.6917 -0.7233 -0.4183
  132OSM    H3S14258   0.081   1.340   6.612  0.9115 -1.7668 -1.5658
  132OSM     O314259  -0.065   1.258   6.727  0.6683  0.0282  0.3184
  132OSM    HO314260  -0.028   1.214   6.804 -0.1002 -0.2303  0.5445
  132OSM    C4S14261  -0.047   1.234   6.483  0.3052 -0.6977  0.2710
  132OSM    H4S14262  -0.051   1.131   6.446  1.3780 -0.9221  0.7586
  132OSM    C5S14263  -0.077   1.344   6.408 -0.1910 -0.4949 -0.0335
  132OSM    H5S14264  -0.054   1.448   6.437  1.0272 -0.1896 -1.9005
  132OSM    C6S14265  -0.151   1.329   6.275  0.1101 -0.3274 -0.3619
  132OSM    H6S14266  -0.111   1.404   6.203  1.3318 -1.0752 -0.4979
  132OSM    H6T14267  -0.253   1.369   6.291  0.1435 -0.3051 -0.2004
  132OSM    C7S14268  -0.154   1.194   6.201 -0.4765  0.9566 -0.0107
  132OSM    H7S14269  -0.194   1.115   6.269  2.9998 -2.0648 -1.1712
  132OSM    H7T14270  -0.054   1.168   6.162 -1.1114 -0.6541 -0.6720
  132OSM    C8S14271  -0.244   1.205   6.076  0.3986  0.2411 -0.0630
  132OSM    H8S14272  -0.191   1.278   6.010  0.7754  0.5129  0.5338
  132OSM    H8T14273  -0.340   1.251   6.106 -1.2690 -1.5920 -2.2983
  132OSM    C9S14274  -0.265   1.069   5.995  0.1771 -0.1681  0.0213
  132OSM    H9S14275  -0.355   1.016   6.033 -0.4102 -0.1474 -1.2885
  132OSM    H9T14276  -0.182   1.001   6.022 -0.3061  0.0654  2.3197
  132OSM   C10S14277  -0.273   1.084   5.843 -0.3548 -0.5030 -0.1632
  132OSM   H10S14278  -0.354   1.155   5.816 -0.9832 -0.0096  2.7535
  132OSM   H10T14279  -0.287   0.982   5.801  0.5002 -1.8851  2.6564
  132OSM   C11S14280  -0.139   1.128   5.791 -0.2764  0.7497  0.0030
  132OSM   H11S14281  -0.089   1.031   5.808 -0.7944  0.3252 -0.8229
  132OSM   H11T14282  -0.089   1.209   5.849 -0.1107  0.9729 -0.4467
  132OSM   C12S14283  -0.151   1.171   5.645  0.1943  0.4592  0.0447
  132OSM   H12S14284  -0.048   1.193   5.608 -1.3456  2.8669 -3.3746
  132OSM   H12T14285  -0.215   1.261   5.634  1.6430  1.3308 -2.2293
  132OSM   C13S14286  -0.192   1.059   5.558  0.3085 -0.7104  1.1011
  132OSM   H13S14287  -0.302   1.040   5.561 -0.0290  0.4278 -1.6024
  132OSM   H13T14288  -0.140   0.964   5.583  2.1599  0.2383  1.0095
  132OSM   C14S14289  -0.170   1.104   5.409  0.4670 -0.3800  0.1308
  132OSM   H14S14290  -0.230   1.035   5.347 -0.5733 -0.4297  1.1344
  132OSM   H14T14291  -0.065   1.082   5.382  0.3357 -3.3382  1.6808
  132OSM   C15S14292  -0.225   1.244   5.370  0.4546  0.3181  0.0355
  132OSM   H15S14293  -0.182   1.329   5.428  0.2890  0.5463 -0.1772
  132OSM   H15T14294  -0.331   1.243   5.403  0.2732  0.1683 -0.5557
  132OSM   C16S14295  -0.216   1.269   5.223 -0.4844 -0.1670 -0.0423
  132OSM   H16S14296  -0.285   1.356   5.215 -0.9329 -0.5351 -0.2693
  132OSM   H16T14297  -0.252   1.187   5.157 -3.5892  0.9986  0.0335
  132OSM   C17S14298  -0.071   1.313   5.162 -0.0056  0.0612  0.3884
  132OSM   H17S14299  -0.003   1.224   5.165  0.3356  0.3008 -0.1201
  132OSM   H17T14300  -0.023   1.393   5.222  0.8637 -1.5548  1.9390
  132OSM   C18S14301  -0.082   1.363   5.016  0.2726  0.1156 -0.1245
  132OSM   H18S14302   0.017   1.362   4.966  0.3356 -0.1679  0.0050
  132OSM   H18T14303  -0.110   1.470   5.014  0.7708  0.2431 -0.5227
  132OSM   H18U14304  -0.153   1.302   4.957 -0.0703  2.1688 -1.9571
  132OSM    C1F14305   0.359   1.078   6.533 -0.5046  0.2457  0.2066
  132OSM     OF14306   0.346   0.965   6.577  0.3601 -0.5458 -0.1626
  132OSM    C2F14307   0.477   1.103   6.438  0.2358  0.6910 -0.0673
  132OSM    H2F14308   0.559   1.157   6.488 -1.0644  1.7134  1.0318
  132OSM    H2G14309   0.444   1.168   6.355 -0.0289 -0.5354 -0.9595
  132OSM    C3F14310   0.518   0.966   6.374 -0.2592  0.5146  0.5113
  132OSM    H3F14311   0.438   0.899   6.336  1.5066 -1.2514 -0.3064
  132OSM    H3G14312   0.581   0.912   6.449 -1.0100  1.6863  2.0382
  132OSM    C4F14313   0.613   0.982   6.261  0.2107  0.1868  0.6388
  132OSM    H4F14314   0.654   0.880   6.245 -0.4534  0.4380 -3.9448
  132OSM    H4G14315   0.701   1.044   6.287  0.0140  0.7199  0.0611
  132OSM    C5F14316   0.558   1.033   6.126 -0.3161  0.3191  0.1457
  132OSM    H5F14317   0.520   1.136   6.142 -0.8407 -0.1000  1.8170
  132OSM    H5G14318   0.472   0.972   6.092 -0.7861  1.5342 -0.9079
  132OSM    C6F14319   0.669   1.025   6.018 -0.5002 -0.2081 -0.1315
  132OSM    H6F14320   0.711   0.923   6.004  3.5709  1.1578  0.6122
  132OSM    H6G14321   0.764   1.069   6.057 -0.1554  2.3499 -3.3942
  132OSM    C7F14322   0.633   1.083   5.883  0.1473 -0.2763 -0.2950
  132OSM    H7F14323   0.528   1.058   5.859 -0.0939  0.1928  0.2586
  132OSM    H7G14324   0.703   1.038   5.809  0.6932 -0.8485  0.5436
  132OSM    C8F14325   0.657   1.240   5.857 -0.3562  0.8450 -0.2836
  132OSM    H8F14326   0.624   1.292   5.950  1.0689 -0.0218  0.7431
  132OSM    H8G14327   0.583   1.277   5.783 -1.1816  1.5161  0.8409
  132OSM    C9F14328   0.801   1.289   5.823  0.2826 -0.0813  0.3910
  132OSM    H9F14329   0.866   1.271   5.910  1.4601  0.1108 -0.4174
  132OSM   C10F14330   0.839   1.374   5.719  0.2898  0.6174  0.1200
  132OSM   H10F14331   0.948   1.386   5.709  0.2577  2.1603  1.1620
  132OSM   C11F14332   0.762   1.407   5.598 -0.2206 -0.0217 -0.2632
  132OSM   H11F14333   0.739   1.514   5.582  0.5235 -0.0471 -1.6317
  132OSM   H11G14334   0.662   1.359   5.595 -0.0365 -0.3615 -1.3512
  132OSM   C12F14335   0.829   1.366   5.466  0.1263 -0.0944  0.1599
  132OSM   H12F14336   0.802   1.259   5.453 -0.4131 -0.5230  3.6763
  132OSM   H12G14337   0.939   1.380   5.474 -0.1761  1.5655  2.3505
  132OSM   C13F14338   0.773   1.442   5.341  0.3504 -0.1119  0.8633
  132OSM   H13F14339   0.763   1.552   5.358  2.6656  0.5204 -1.1971
  132OSM   H13G14340   0.674   1.409   5.303  0.2764  1.8613 -0.8777
  132OSM   C14F14341   0.865   1.421   5.214  0.3466 -0.4459 -0.4444
  132OSM   H14F14342   0.878   1.314   5.191 -0.7538 -0.1470 -2.6466
  132OSM   H14G14343   0.970   1.447   5.242 -0.2614  0.4932  1.1302
  132OSM   C15F14344   0.820   1.505   5.098 -0.2933  0.4963  0.2935
  132OSM   H15F14345   0.835   1.611   5.128  0.1272  0.0314  1.8294
  132OSM   H15G14346   0.712   1.504   5.069 -0.4970  2.3237  0.8497
  132OSM   C16F14347   0.900   1.497   4.967 -0.9390  0.1090 -0.3947
  132OSM   H16F14348   0.933   1.396   4.933 -2.2002 -0.4499 -0.0015
  132OSM   H16G14349   0.997   1.548   4.990 -0.1155 -1.0184 -1.2473
  132OSM   C17F14350   0.843   1.565   4.845 -0.9443 -0.0204  0.3114
  132OSM   H17F14351   0.809   1.667   4.873  0.0683  0.0098  1.5247
  132OSM   H17G14352   0.754   1.507   4.812  0.1754 -1.8305  0.3360
  132OSM   C18F14353   0.948   1.583   4.738 -0.1091 -0.2356  0.1456
  132OSM   H18F14354   1.023   1.657   4.772 -0.8350 -0.0678  1.4203
  132OSM   H18G14355   0.912   1.616   4.638  0.5958 -0.2771 -0.1257
  132OSM   H18H14356   1.010   1.492   4.726 -1.0428 -0.9359  0.4965
  133OSM      N14357   5.473   1.081   7.098  0.3839  0.8394 -0.1263
  133OSM    C1514358   5.524   1.217   7.042 -0.0877  0.0490  0.4344
  133OSM   H15A14359   5.621   1.205   6.995  0.3529  0.2451  1.2872
  133OSM   H15B14360   5.533   1.290   7.121 -0.5910 -1.0871  1.5761
  133OSM   H15C14361   5.453   1.255   6.970 -0.1837 -2.2227 -0.7764
  133OSM    C1414362   5.580   1.015   7.176 -0.2508 -0.5510  0.6476
  133OSM   H14A14363   5.671   1.015   7.118  1.0020  1.0965  2.4903
  133OSM   H14B14364   5.549   0.913   7.194  0.1978 -0.7396  0.3495
  133OSM   H14C14365   5.605   1.062   7.270  0.4004  2.7058 -1.0176
  133OSM    C1314366   5.362   1.100   7.187  0.0682 -0.4335  0.0261
  133OSM   H13A14367   5.325   1.005   7.221 -0.6451 -0.4128 -0.6570
  133OSM   H13B14368   5.278   1.156   7.148 -1.8106 -1.4554  2.3702
  133OSM   H13C14369   5.395   1.164   7.268  0.7779 -0.0797 -0.5348
  133OSM    C1214370   5.436   0.992   6.979 -0.1266  0.0045 -1.1185
  133OSM   H12A14371   5.378   0.910   7.020  1.2801 -0.2523  0.4676
  133OSM   H12B14372   5.521   0.935   6.947 -0.1970 -0.1382 -1.0506
  133OSM    C1114373   5.364   1.048   6.863  0.0845  0.4803  0.6115
  133OSM   H11A14374   5.266   1.089   6.898  0.6454  1.5906  0.9315
  133OSM   H11B14375   5.333   0.967   6.794 -2.1952  2.5443 -0.9848
  133OSM      P14376   5.556   1.132   6.708  0.0742  0.2562 -0.2888
  133OSM    O1314377   5.625   1.263   6.693 -0.1562 -0.4724 -0.0146
  133OSM    O1414378   5.647   1.024   6.749  0.5856  0.7436 -0.2268
  133OSM    O1114379   5.489   1.094   6.575  0.1594  0.0339  0.5435
  133OSM    O1214380   5.431   1.160   6.799  0.5585  0.2079  0.5435
  133OSM    C1S14381   5.356   1.131   6.547 -0.2999 -0.4519  0.2879
  133OSM    H1S14382   5.344   1.241   6.547 -0.3732 -0.4539  1.0601
  133OSM    H1T14383   5.281   1.092   6.620 -1.1391 -0.1386 -0.3848
  133OSM     NF14384   5.179   1.136   6.372 -0.1271 -0.5194  0.1047
  133OSM    HNF14385   5.107   1.067   6.370  0.8285 -1.5668  0.3573
  133OSM    C2S14386   5.314   1.095   6.399  0.5374  0.3967 -0.1657
  133OSM    H2S14387   5.373   1.152   6.324  0.7522 -0.4214 -0.6328
  133OSM    C3S14388   5.329   0.938   6.371  0.0870 -0.2462 -0.0576
  133OSM    H3S14389   5.245   0.892   6.428  0.0629  1.8131  1.7334
  133OSM     O314390   5.448   0.889   6.431  0.1200  0.1203 -0.3866
  133OSM    HO314391   5.469   0.962   6.489 -1.3237  2.1005 -2.2270
  133OSM    C4S14392   5.318   0.911   6.221  0.2120  1.0076 -0.4996
  133OSM    H4S14393   5.412   0.920   6.164  0.9775  1.7251  0.8171
  133OSM    C5S14394   5.208   0.845   6.163 -0.5342 -0.3271 -0.0673
  133OSM    H5S14395   5.124   0.816   6.228  1.5423 -1.0643  2.4712
  133OSM    C6S14396   5.187   0.807   6.015  0.1288 -0.2747  0.0618
  133OSM    H6S14397   5.078   0.814   5.997  0.0653 -1.3891 -0.0850
  133OSM    H6T14398   5.207   0.698   5.999 -2.7946 -0.9104  0.1959
  133OSM    C7S14399   5.270   0.901   5.931 -0.3194  0.3677 -0.6494
  133OSM    H7S14400   5.380   0.889   5.942 -0.3288  1.4721  0.9455
  133OSM    H7T14401   5.248   1.009   5.944 -1.0000  0.0818  0.7495
  133OSM    C8S14402   5.268   0.869   5.773  0.6982  0.2573 -0.3995
  133OSM    H8S14403   5.246   0.760   5.767 -2.4336  0.8038 -0.1432
  133OSM    H8T14404   5.369   0.892   5.732  0.9683 -2.3146 -1.3737
  133OSM    C9S14405   5.154   0.939   5.695 -0.3883 -0.3981  0.6850
  133OSM    H9S14406   5.147   1.050   5.702  0.7086 -0.2482 -0.3406
  133OSM    H9T14407   5.066   0.913   5.758 -0.7044  0.6791  0.7189
  133OSM   C10S14408   5.150   0.882   5.551 -0.0800 -0.0028  0.8694
  133OSM   H10S14409   5.044   0.897   5.521 -0.2409 -0.4371  1.2027
  133OSM   H10T14410   5.160   0.772   5.559 -2.1398 -0.2876  0.1492
  133OSM   C11S14411   5.251   0.945   5.457  1.4832  0.2545  0.5030
  133OSM   H11S14412   5.353   0.919   5.492  1.2124 -1.6506 -0.0025
  133OSM   H11T14413   5.237   1.055   5.448 -1.0007 -0.0849 -0.6991
  133OSM   C12S14414   5.243   0.897   5.308  0.8069  0.4098  0.2119
  133OSM   H12S14415   5.143   0.911   5.261  0.4072 -2.1540  0.1267
  133OSM   H12T14416   5.264   0.788   5.315 -2.7160 -0.5795 -1.9411
  133OSM   C13S14417   5.351   0.955   5.219  0.2758 -0.3319  0.1057
  133OSM   H13S14418   5.445   0.921   5.268  0.6264 -1.1146 -1.0858
  133OSM   H13T14419   5.335   1.064   5.235  0.7229 -0.3826  1.0017
  133OSM   C14S14420   5.357   0.907   5.065  0.4792 -0.3437 -0.3993
  133OSM   H14S14421   5.253   0.911   5.026 -0.1301 -0.6727  1.1326
  133OSM   H14T14422   5.390   0.801   5.059 -0.0276 -0.4831 -0.8349
  133OSM   C15S14423   5.444   0.997   4.972  0.2530 -0.3137  0.0306
  133OSM   H15S14424   5.534   1.028   5.028  0.1717 -0.2500  0.1267
  133OSM   H15T14425   5.392   1.094   4.955  0.4958 -0.4005 -1.3342
  133OSM   C16S14426   5.472   0.926   4.834 -0.1274  0.0812 -0.3407
  133OSM   H16S14427   5.373   0.912   4.785 -0.3160  0.7290 -0.1523
  133OSM   H16T14428   5.515   0.825   4.846  2.5157  1.0754 -0.8155
  133OSM   C17S14429   5.566   1.018   4.751  0.3206 -0.3478 -0.2862
  133OSM   H17S14430   5.664   1.026   4.802  1.2680 -3.8591 -1.2823
  133OSM   H17T14431   5.514   1.114   4.727  1.8625  0.5480 -0.1340
  133OSM   C18S14432   5.601   0.950   4.621 -0.3585 -0.6306  0.4416
  133OSM   H18S14433   5.518   0.946   4.548  0.9741 -0.0627 -1.1742
  133OSM   H18T14434   5.653   0.855   4.643 -1.0702 -0.7062  1.8684
  133OSM   H18U14435   5.687   1.008   4.581  0.3758 -1.5754  0.6247
  133OSM    C1F14436   5.158   1.265   6.350  0.3091  0.2887  0.4661
  133OSM     OF14437   5.244   1.348   6.368 -0.2099  0.0204  0.4587
  133OSM    C2F14438   5.023   1.306   6.293  0.5036 -0.6882  0.4459
  133OSM    H2F14439   4.962   1.332   6.383  0.2617 -0.1501  0.1334
  133OSM    H2G14440   4.974   1.229   6.231  1.1101 -0.1073 -0.7873
  133OSM    C3F14441   5.035   1.441   6.202  0.1487  0.2842  0.4134
  133OSM    H3F14442   5.079   1.520   6.266  1.2563  0.3531 -0.3930
  133OSM    H3G14443   4.935   1.480   6.171  0.4744  0.5764 -0.2882
  133OSM    C4F14444   5.113   1.432   6.070  0.2164 -0.4191 -0.7020
  133OSM    H4F14445   5.208   1.375   6.076 -0.9408 -2.6869 -2.4888
  133OSM    H4G14446   5.150   1.533   6.042  1.8048  0.0219  2.5915
  133OSM    C5F14447   5.026   1.388   5.951 -0.0553 -0.2507 -0.0088
  133OSM    H5F14448   4.948   1.466   5.939 -0.6612 -0.9144 -0.4356
  133OSM    H5G14449   4.967   1.297   5.977 -1.6724  1.2781  2.0778
  133OSM    C6F14450   5.108   1.378   5.816 -0.0186  0.3394 -0.2539
  133OSM    H6F14451   5.050   1.310   5.750 -0.4741 -0.8802  1.3178
  133OSM    H6G14452   5.208   1.336   5.839  0.8293  2.7828  0.9034
  133OSM    C7F14453   5.140   1.508   5.751 -0.0070 -0.8226  0.0777
  133OSM    H7F14454   5.179   1.572   5.833 -3.1354 -1.3806  2.2049
  133OSM    H7G14455   5.044   1.558   5.724 -1.0994 -3.0095 -0.3056
  133OSM    C8F14456   5.225   1.491   5.631  0.4763 -0.3914 -0.9159
  133OSM    H8F14457   5.304   1.416   5.650 -0.4414 -0.9895  0.8551
  133OSM    H8G14458   5.275   1.589   5.621 -0.4653 -0.0159 -2.1036
  133OSM    C9F14459   5.157   1.456   5.499  0.1540  0.0243  0.1451
  133OSM    H9F14460   5.124   1.352   5.486 -0.0964  0.0842  0.3054
  133OSM   C10F14461   5.133   1.543   5.399 -0.7151 -0.0321  0.5163
  133OSM   H10F14462   5.085   1.505   5.307  1.3074 -1.0478 -0.1677
  133OSM   C11F14463   5.153   1.698   5.403  0.3723 -0.3433 -0.0839
  133OSM   H11F14464   5.166   1.734   5.508  2.4034  1.8008 -0.9790
  133OSM   H11G14465   5.062   1.742   5.356 -0.4401 -2.6641 -0.8150
  133OSM   C12F14466   5.269   1.761   5.319  0.1021  0.3157 -0.5494
  133OSM   H12F14467   5.359   1.706   5.356 -0.6983 -1.2422 -0.8295
  133OSM   H12G14468   5.271   1.871   5.332 -1.7080  0.7502 -3.1566
  133OSM   C13F14469   5.258   1.708   5.175 -0.0151  0.0315  0.2635
  133OSM   H13F14470   5.162   1.752   5.140 -0.6470 -1.8176 -0.4439
  133OSM   H13G14471   5.246   1.599   5.161 -1.0364  0.2795 -0.9388
  133OSM   C14F14472   5.389   1.740   5.093  0.0392 -0.4688 -0.3473
  133OSM   H14F14473   5.482   1.695   5.132  0.4219  1.5157  1.1809
  133OSM   H14G14474   5.418   1.846   5.085  1.6584 -0.8087  0.5768
  133OSM   C15F14475   5.369   1.695   4.942 -0.5378 -0.1611 -0.2807
  133OSM   H15F14476   5.339   1.588   4.935  0.8575 -0.7908  2.0406
  133OSM   H15G14477   5.470   1.700   4.894  0.3375 -1.3669  1.3225
  133OSM   C16F14478   5.272   1.780   4.859 -0.1779 -0.8116 -0.1769
  133OSM   H16F14479   5.312   1.883   4.860 -2.3551  0.1590 -2.4003
  133OSM   H16G14480   5.171   1.785   4.904  0.1428  3.7242  0.5161
  133OSM   C17F14481   5.275   1.731   4.716 -0.2705  1.0415 -0.5456
  133OSM   H17F14482   5.236   1.627   4.703 -1.7718  1.5898 -0.6380
  133OSM   H17G14483   5.377   1.732   4.673  0.0412 -0.6641  0.0511
  133OSM   C18F14484   5.180   1.799   4.620 -0.4935 -0.0082 -0.3351
  133OSM   H18F14485   5.164   1.741   4.526  1.7424 -0.3484 -0.5502
  133OSM   H18G14486   5.217   1.898   4.586 -0.2107 -0.8720 -2.7449
  133OSM   H18H14487   5.075   1.801   4.658 -0.8278 -1.2185 -1.1175
  134OSM      N14488   5.052   3.832   7.120  0.4825  0.3691 -0.4052
  134OSM    C1514489   5.031   3.946   7.217 -1.0324  0.4581  0.1464
  134OSM   H15A14490   5.033   3.909   7.318  0.8027 -1.6516 -0.5722
  134OSM   H15B14491   4.934   3.993   7.210 -1.4560 -0.3986  0.1762
  134OSM   H15C14492   5.103   4.027   7.219 -0.0428 -0.4076  0.2484
  134OSM    C1414493   5.185   3.760   7.154 -0.5899 -0.4423 -0.2865
  134OSM   H14A14494   5.268   3.829   7.149 -0.4342 -0.4458  1.5575
  134OSM   H14B14495   5.211   3.680   7.088 -1.3733 -0.4846 -0.5485
  134OSM   H14C14496   5.177   3.733   7.259  1.8453  0.7632  0.2941
  134OSM    C1314497   4.941   3.725   7.142  0.4388 -0.8105 -0.0852
  134OSM   H13A14498   4.923   3.710   7.248  0.5328  1.2002  0.2386
  134OSM   H13B14499   4.977   3.638   7.088  0.1832 -0.5031 -0.7520
  134OSM   H13C14500   4.844   3.761   7.113 -0.4913 -1.1754  2.3049
  134OSM    C1214501   5.056   3.873   6.977  0.1604 -0.3898  0.0585
  134OSM   H12A14502   5.091   3.786   6.923 -1.0234 -1.2210  0.6103
  134OSM   H12B14503   5.134   3.948   6.970 -1.4263  1.3455  0.1182
  134OSM    C1114504   4.919   3.919   6.914 -0.3695 -1.2889  0.0889
  134OSM   H11A14505   4.854   3.830   6.896 -1.0485 -0.4514 -1.7877
  134OSM   H11B14506   4.951   3.958   6.815  1.6906 -2.5661  0.1797
  134OSM      P14507   4.702   4.012   7.037  0.3147 -0.1381  0.1333
  134OSM    O1314508   4.671   3.890   7.121 -0.1067 -0.0290 -0.1434
  134OSM    O1414509   4.664   4.140   7.096 -0.1484  0.1369 -0.0445
  134OSM    O1114510   4.630   3.997   6.902 -0.1675 -0.3404  0.8323
  134OSM    O1214511   4.858   4.021   6.999  0.5567  0.3643  0.2901
  134OSM    C1S14512   4.631   4.089   6.784  0.2031  0.1181 -0.0780
  134OSM    H1S14513   4.730   4.138   6.775  0.2575  0.1480  0.5823
  134OSM    H1T14514   4.550   4.164   6.784 -0.6486 -0.7300  1.6729
  134OSM     NF14515   4.642   4.088   6.542  0.1308 -0.0367  0.4713
  134OSM    HNF14516   4.563   4.120   6.490 -0.4083 -0.4850  1.0001
  134OSM    C2S14517   4.603   4.006   6.655  0.9227  0.6283 -0.3939
  134OSM    H2S14518   4.677   3.923   6.651  0.9176  0.5509  0.7782
  134OSM    C3S14519   4.457   3.942   6.667  0.4802 -0.1512 -0.1225
  134OSM    H3S14520   4.387   4.028   6.668 -1.3577 -1.5824 -0.4120
  134OSM     O314521   4.436   3.871   6.791 -0.6811  0.2366  0.3005
  134OSM    HO314522   4.510   3.905   6.841 -0.4226 -1.0980  0.8434
  134OSM    C4S14523   4.439   3.858   6.544 -0.3100 -0.4926 -0.8817
  134OSM    H4S14524   4.519   3.783   6.531 -0.6523 -1.2440  0.9536
  134OSM    C5S14525   4.325   3.850   6.467 -0.4552 -0.7039  0.0815
  134OSM    H5S14526   4.244   3.919   6.499  1.4053  1.8976 -0.4670
  134OSM    C6S14527   4.290   3.762   6.353  0.3753 -0.5145  0.0630
  134OSM    H6S14528   4.185   3.733   6.373  0.3327  0.0155  0.6643
  134OSM    H6T14529   4.347   3.669   6.374  1.7208 -0.0283 -1.2339
  134OSM    C7S14530   4.309   3.806   6.209 -0.0965 -0.8049  0.1329
  134OSM    H7S14531   4.416   3.827   6.186 -0.3773  1.1678  0.4698
  134OSM    H7T14532   4.266   3.905   6.185 -1.4957 -0.8144  2.3491
  134OSM    C8S14533   4.264   3.700   6.117  0.1198  1.2459 -0.7550
  134OSM    H8S14534   4.170   3.653   6.152  1.5269 -0.3860  1.0366
  134OSM    H8T14535   4.338   3.618   6.117 -1.7595 -0.5333 -0.0667
  134OSM    C9S14536   4.248   3.735   5.970  0.2919 -0.1138  0.4220
  134OSM    H9S14537   4.347   3.765   5.929 -0.0342 -0.3740 -0.6038
  134OSM    H9T14538   4.196   3.833   5.960 -2.0902 -1.3735 -0.2098
  134OSM   C10S14539   4.182   3.625   5.886  0.2435  0.4449  0.3017
  134OSM   H10S14540   4.085   3.611   5.940  0.4121 -1.9060  0.1052
  134OSM   H10T14541   4.246   3.534   5.890  1.2411  0.8558 -3.3126
  134OSM   C11S14542   4.154   3.654   5.735  0.2731 -0.2516  0.2932
  134OSM   H11S14543   4.249   3.666   5.679 -0.9112  2.9873 -1.2574
  134OSM   H11T14544   4.101   3.752   5.729 -1.7989 -1.3814 -0.9067
  134OSM   C12S14545   4.053   3.552   5.679  0.6417  0.6660  0.1095
  134OSM   H12S14546   3.989   3.518   5.763  0.3307 -1.2504 -0.8289
  134OSM   H12T14547   4.109   3.463   5.641  0.9927  0.5505  0.8900
  134OSM   C13S14548   3.970   3.609   5.570 -0.4814  0.1240  0.0368
  134OSM   H13S14549   3.927   3.707   5.600 -0.8531 -0.0477  0.0679
  134OSM   H13T14550   3.886   3.538   5.554 -0.0124 -0.1024 -1.6923
  134OSM   C14S14551   4.034   3.640   5.428  0.1060  0.6655 -0.4570
  134OSM   H14S14552   4.122   3.573   5.419  0.6824  1.3057  0.2811
  134OSM   H14T14553   4.061   3.747   5.424  3.8309 -0.1078 -0.4161
  134OSM   C15S14554   3.939   3.599   5.315 -0.6773  0.1983 -0.7524
  134OSM   H15S14555   3.842   3.652   5.328 -1.6597 -1.6772  0.1175
  134OSM   H15T14556   3.913   3.491   5.317 -4.0017  0.8094  3.2038
  134OSM   C16S14557   4.006   3.626   5.181  0.0979  0.4682 -0.0146
  134OSM   H16S14558   4.100   3.567   5.183 -0.8459 -1.0844  0.3211
  134OSM   H16T14559   4.016   3.736   5.170  1.6805  0.2976 -0.4691
  134OSM   C17S14560   3.931   3.591   5.052  0.7646 -0.4876 -0.2686
  134OSM   H17S14561   3.923   3.480   5.052 -1.3606 -0.4509  2.7808
  134OSM   H17T14562   3.996   3.618   4.966 -0.4765 -1.3715 -1.5359
  134OSM   C18S14563   3.787   3.644   5.036 -0.1253 -1.3864  0.3133
  134OSM   H18S14564   3.763   3.631   4.928  1.6319 -0.6707 -0.2032
  134OSM   H18T14565   3.771   3.752   5.054  2.6516 -1.1527  1.7911
  134OSM   H18U14566   3.711   3.572   5.073  0.9585 -3.7598 -1.7764
  134OSM    C1F14567   4.767   4.119   6.501  0.8468  1.1386  0.6525
  134OSM     OF14568   4.865   4.078   6.565 -0.3064  0.1236 -0.0771
  134OSM    C2F14569   4.785   4.191   6.375 -0.2239 -0.9942  0.3035
  134OSM    H2F14570   4.803   4.299   6.392 -1.2952 -0.7511 -0.0212
  134OSM    H2G14571   4.693   4.190   6.312  1.8878 -2.1141 -3.0696
  134OSM    C3F14572   4.910   4.143   6.294  0.0612  0.6763  0.8372
  134OSM    H3F14573   4.881   4.040   6.263  2.1994  0.4127 -0.4839
  134OSM    H3G14574   4.996   4.137   6.364 -0.5508  2.8397  1.8481
  134OSM    C4F14575   4.935   4.230   6.174 -0.3229 -0.0023 -0.9609
  134OSM    H4F14576   5.044   4.217   6.160  0.0611  2.0364 -0.0686
  134OSM    H4G14577   4.912   4.336   6.196 -1.2946 -0.2520 -0.7348
  134OSM    C5F14578   4.857   4.187   6.053 -0.9226  0.2105 -0.1272
  134OSM    H5F14579   4.765   4.136   6.088 -0.9577 -0.8111 -1.6512
  134OSM    H5G14580   4.914   4.105   6.005 -2.2378 -0.9437  0.2017
  134OSM    C6F14581   4.816   4.304   5.957  0.0439  0.4608  0.8294
  134OSM    H6F14582   4.878   4.395   5.969  0.1363  0.2773  1.7887
  134OSM    H6G14583   4.712   4.342   5.967 -0.7251 -0.7908 -1.5875
  134OSM    C7F14584   4.834   4.256   5.810 -0.0424  0.2545 -0.1734
  134OSM    H7F14585   4.781   4.159   5.799  0.2323  0.1387 -0.4666
  134OSM    H7G14586   4.940   4.226   5.797 -0.1942 -1.8549  2.4446
  134OSM    C8F14587   4.792   4.355   5.700  0.0813 -0.3947 -0.4957
  134OSM    H8F14588   4.682   4.370   5.706 -0.0999 -1.3816 -1.0494
  134OSM    H8G14589   4.804   4.312   5.599 -1.3470  0.8525 -1.2392
  134OSM    C9F14590   4.870   4.485   5.709 -0.2308  0.7809 -0.2829
  134OSM    H9F14591   4.889   4.523   5.810  1.8631 -0.0859 -0.2923
  134OSM   C10F14592   4.875   4.572   5.614 -0.2088 -0.4094  0.3816
  134OSM   H10F14593   4.927   4.665   5.639  0.0036 -0.2495 -0.6271
  134OSM   C11F14594   4.822   4.558   5.472  0.0006 -0.3949  0.4900
  134OSM   H11F14595   4.748   4.629   5.429 -1.5413 -2.7242 -0.9181
  134OSM   H11G14596   4.765   4.463   5.469 -1.0040  0.1402  1.6425
  134OSM   C12F14597   4.943   4.554   5.376 -0.2153  0.4015  0.5246
  134OSM   H12F14598   5.009   4.470   5.410 -1.1617 -0.2549  0.7877
  134OSM   H12G14599   4.994   4.652   5.370 -1.1243  0.7986 -1.8139
  134OSM   C13F14600   4.894   4.518   5.232 -0.0868  0.0415  0.1484
  134OSM   H13F14601   4.832   4.607   5.205 -0.0379 -0.2248 -0.9047
  134OSM   H13G14602   4.837   4.423   5.231 -1.0578  0.5961 -1.1332
  134OSM   C14F14603   5.013   4.524   5.124  0.9226 -0.3588  0.1143
  134OSM   H14F14604   5.094   4.451   5.145  0.7070 -1.3822 -2.1963
  134OSM   H14G14605   5.060   4.623   5.138 -0.0558 -0.1884  2.6311
  134OSM   C15F14606   4.963   4.512   4.976 -0.6189 -0.5550  0.9160
  134OSM   H15F14607   4.907   4.606   4.958 -0.4533 -0.8333 -1.4146
  134OSM   H15G14608   4.902   4.420   4.961 -1.2826  0.1850 -1.3695
  134OSM   C16F14609   5.079   4.512   4.877  0.1664 -0.3876  0.0456
  134OSM   H16F14610   5.139   4.420   4.891  1.2608  0.4218  0.8848
  134OSM   H16G14611   5.150   4.595   4.900 -0.1830 -0.1013  0.0999
  134OSM   C17F14612   5.023   4.513   4.735 -0.4068  0.5376 -0.0760
  134OSM   H17F14613   4.962   4.606   4.728  0.5753  1.5902  3.4305
  134OSM   H17G14614   4.945   4.437   4.713 -0.2733  0.1742  0.6713
  134OSM   C18F14615   5.133   4.500   4.624  0.0347 -0.5694 -0.5982
  134OSM   H18F14616   5.187   4.403   4.638  2.8361  0.6647 -2.0690
  134OSM   H18G14617   5.207   4.579   4.648 -0.8600 -0.8195  4.0139
  134OSM   H18H14618   5.085   4.508   4.525  0.0633  0.4328 -0.5340
  135OSM      N14619   4.432   3.399   7.071  0.0013 -0.3370 -0.6004
  135OSM    C1514620   4.288   3.410   7.112 -0.3111  0.3716 -0.1024
  135OSM   H15A14621   4.242   3.314   7.099  0.7051  0.1691 -2.9327
  135OSM   H15B14622   4.240   3.483   7.048 -1.8482  0.1768  0.7872
  135OSM   H15C14623   4.272   3.442   7.214 -0.8459  0.4493 -0.2067
  135OSM    C1414624   4.500   3.271   7.121 -0.3352 -0.9811  0.5337
  135OSM   H14A14625   4.602   3.271   7.085 -0.5360  3.3253 -0.5235
  135OSM   H14B14626   4.453   3.182   7.082  0.2303 -0.5279 -1.2841
  135OSM   H14C14627   4.504   3.258   7.228 -0.4750 -1.3744  0.4936
  135OSM    C1314628   4.434   3.386   6.920 -0.8468 -0.5758  0.0167
  135OSM   H13A14629   4.371   3.302   6.893 -0.0188 -1.8630  1.8862
  135OSM   H13B14630   4.537   3.364   6.896 -0.7185 -0.5962  0.5895
  135OSM   H13C14631   4.397   3.470   6.863 -1.3438 -1.4832 -1.0717
  135OSM    C1214632   4.512   3.511   7.115  0.0872 -0.1023 -0.1415
  135OSM   H12A14633   4.525   3.496   7.221  1.1979 -1.4034 -0.4246
  135OSM   H12B14634   4.458   3.604   7.109  0.0564 -0.2025 -2.3516
  135OSM    C1114635   4.650   3.534   7.035 -0.5978 -0.1830 -0.2993
  135OSM   H11A14636   4.715   3.586   7.109 -1.7001 -0.5302  0.9574
  135OSM   H11B14637   4.629   3.601   6.949  1.2467 -1.1008 -1.5290
  135OSM      P14638   4.858   3.407   6.933  0.2897 -0.3621 -0.2954
  135OSM    O1314639   4.962   3.445   7.032 -0.4170  0.2278 -0.7542
  135OSM    O1414640   4.867   3.273   6.864 -0.0252  0.8628  0.4475
  135OSM    O1114641   4.846   3.515   6.821  0.1482 -0.2298  0.1503
  135OSM    O1214642   4.720   3.413   7.004 -0.2414 -0.1788  0.1558
  135OSM    C1S14643   4.944   3.548   6.721 -0.1343  0.2828 -0.4254
  135OSM    H1S14644   5.015   3.463   6.718 -0.4057  0.0694 -0.9064
  135OSM    H1T14645   4.995   3.643   6.749  1.7216 -0.4061 -1.3108
  135OSM     NF14646   5.012   3.557   6.484  0.1088  0.1180 -0.1369
  135OSM    HNF14647   5.037   3.654   6.478 -0.3720  0.1889 -1.1310
  135OSM    C2S14648   4.901   3.548   6.569 -0.6529  0.4567 -0.8806
  135OSM    H2S14649   4.846   3.455   6.544 -0.4458  0.1772 -0.3140
  135OSM    C3S14650   4.802   3.660   6.550 -0.3455  0.4527 -0.1558
  135OSM    H3S14651   4.835   3.762   6.579  4.8824 -1.2098  0.7942
  135OSM     O314652   4.695   3.648   6.636 -0.0963 -0.1154 -0.3456
  135OSM    HO314653   4.727   3.586   6.702 -2.2311 -0.7026  0.2135
  135OSM    C4S14654   4.754   3.669   6.413 -1.1477 -0.4216  0.0264
  135OSM    H4S14655   4.689   3.584   6.389 -0.8503 -1.0314  1.3014
  135OSM    C5S14656   4.764   3.774   6.330  0.1499 -0.0747  0.1929
  135OSM    H5S14657   4.834   3.858   6.346 -0.2415  0.2505  0.1971
  135OSM    C6S14658   4.698   3.786   6.194 -0.5274 -0.5819 -0.0855
  135OSM    H6S14659   4.661   3.890   6.184 -0.3666 -0.5050  0.1189
  135OSM    H6T14660   4.609   3.723   6.173 -1.5149 -0.0838  2.3432
  135OSM    C7S14661   4.801   3.766   6.080  0.6105  0.5242 -0.8162
  135OSM    H7S14662   4.817   3.656   6.072 -0.5720  0.2527  0.3062
  135OSM    H7T14663   4.886   3.834   6.099 -0.7348  2.1530 -0.4128
  135OSM    C8S14664   4.745   3.821   5.941  0.0975 -0.0269 -0.5090
  135OSM    H8S14665   4.718   3.929   5.945 -0.7319 -0.2239 -0.7039
  135OSM    H8T14666   4.653   3.762   5.925  0.1890 -0.0861 -0.8344
  135OSM    C9S14667   4.845   3.784   5.834 -0.7257 -0.6599 -0.0612
  135OSM    H9S14668   4.869   3.677   5.852 -1.3966 -0.9967 -1.0925
  135OSM    H9T14669   4.939   3.842   5.847 -0.3570 -1.2055 -0.2387
  135OSM   C10S14670   4.796   3.806   5.686  0.1259  0.5456  0.0933
  135OSM   H10S14671   4.771   3.910   5.655 -0.3058 -0.0265 -1.5884
  135OSM   H10T14672   4.701   3.748   5.679 -1.0230  2.0832  1.8056
  135OSM   C11S14673   4.901   3.755   5.586 -0.1439  0.0704  0.8230
  135OSM   H11S14674   4.930   3.649   5.590 -0.1437  0.0368  0.0034
  135OSM   H11T14675   4.985   3.820   5.618 -1.2194  2.7742 -1.4076
  135OSM   C12S14676   4.861   3.795   5.440  0.0477 -0.1903 -0.4856
  135OSM   H12S14677   4.870   3.906   5.436 -0.1237 -0.2167 -2.1159
  135OSM   H12T14678   4.754   3.771   5.421  0.2393  0.1615 -2.1855
  135OSM   C13S14679   4.957   3.735   5.337 -0.0775  0.8126 -1.1363
  135OSM   H13S14680   4.962   3.624   5.348  0.6522  1.0641  1.9693
  135OSM   H13T14681   5.062   3.767   5.355 -0.4273  1.0863  0.5305
  135OSM   C14S14682   4.935   3.775   5.195 -0.4234  0.1929  0.1628
  135OSM   H14S14683   5.032   3.799   5.147 -1.1285  1.1247 -0.8490
  135OSM   H14T14684   4.869   3.864   5.182  0.3949  0.7147 -0.5155
  135OSM   C15S14685   4.882   3.655   5.117  0.7491  0.5701  0.0956
  135OSM   H15S14686   4.779   3.627   5.146  0.1990  1.9532 -0.5016
  135OSM   H15T14687   4.946   3.567   5.143  1.2746  0.9859  0.2270
  135OSM   C16S14688   4.874   3.669   4.973 -0.1350 -0.3474  0.0980
  135OSM   H16S14689   4.967   3.717   4.937 -0.5305  1.0635  0.8565
  135OSM   H16T14690   4.791   3.739   4.947 -0.4403 -0.9548 -0.5749
  135OSM   C17S14691   4.838   3.539   4.899 -0.2134  0.2925  0.9553
  135OSM   H17S14692   4.743   3.494   4.935 -0.7858  1.4000  0.8850
  135OSM   H17T14693   4.920   3.468   4.925 -1.9097 -2.7428 -1.3771
  135OSM   C18S14694   4.835   3.556   4.743  0.1245 -0.1324  0.4147
  135OSM   H18S14695   4.933   3.601   4.716 -0.6163  0.9435 -0.5775
  135OSM   H18T14696   4.765   3.639   4.719  0.5709 -0.1251 -0.9303
  135OSM   H18U14697   4.816   3.461   4.689  1.7168  0.1667 -0.7511
  135OSM    C1F14698   5.095   3.460   6.455  0.0500  0.7021 -0.0260
  135OSM     OF14699   5.074   3.350   6.506 -0.5995 -0.7276  0.6781
  135OSM    C2F14700   5.203   3.481   6.350  0.0351  0.3267  0.3836
  135OSM    H2F14701   5.242   3.383   6.313  0.1384  0.1614  0.9175
  135OSM    H2G14702   5.286   3.535   6.401 -0.8642  3.0641 -0.9019
  135OSM    C3F14703   5.163   3.573   6.228  0.3523  0.2048 -0.8743
  135OSM    H3F14704   5.151   3.681   6.250 -0.2362 -0.2548  1.3069
  135OSM    H3G14705   5.061   3.543   6.196  0.6996 -0.4650 -1.3933
  135OSM    C4F14706   5.259   3.553   6.109  0.2177  0.0792 -0.8264
  135OSM    H4F14707   5.357   3.597   6.138 -0.7106  1.0901  0.9660
  135OSM    H4G14708   5.271   3.446   6.081  3.8467  0.4701 -1.2856
  135OSM    C5F14709   5.214   3.641   5.989  0.2542 -0.0080  0.1442
  135OSM    H5F14710   5.214   3.750   6.011  1.5865 -0.4088  2.4855
  135OSM    H5G14711   5.112   3.605   5.961  0.2325  1.1208 -1.3107
  135OSM    C6F14712   5.307   3.613   5.868 -0.0643 -0.6004  0.5031
  135OSM    H6F14713   5.406   3.655   5.896 -0.0418  1.0504 -1.7374
  135OSM    H6G14714   5.260   3.664   5.781 -2.1510 -1.3188  1.1342
  135OSM    C7F14715   5.313   3.461   5.835 -0.4232 -0.0440  0.7423
  135OSM    H7F14716   5.229   3.409   5.886 -0.3067  2.1115  3.3575
  135OSM    H7G14717   5.411   3.430   5.878  0.4422 -0.1708 -1.2066
  135OSM    C8F14718   5.341   3.437   5.687  0.2352  0.7407  0.7112
  135OSM    H8F14719   5.398   3.346   5.660 -1.2303 -0.0887  0.3298
  135OSM    H8G14720   5.404   3.523   5.656 -2.0094  2.3385  0.3181
  135OSM    C9F14721   5.211   3.426   5.610 -0.0854 -0.5417 -0.6112
  135OSM    H9F14722   5.137   3.369   5.667  0.7754 -0.0902  1.0189
  135OSM   C10F14723   5.182   3.483   5.495  0.5756  0.1806  0.8177
  135OSM   H10F14724   5.088   3.456   5.446  0.9316  0.5676 -0.1142
  135OSM   C11F14725   5.277   3.566   5.410  0.5779  0.4501 -0.7076
  135OSM   H11F14726   5.373   3.591   5.461  1.6152 -0.6790 -2.0401
  135OSM   H11G14727   5.227   3.664   5.392  0.4346  0.6721  0.7163
  135OSM   C12F14728   5.325   3.498   5.282  0.7217  0.2002 -0.2641
  135OSM   H12F14729   5.239   3.463   5.219  1.3128 -2.5081  0.3244
  135OSM   H12G14730   5.379   3.405   5.308 -2.0594 -1.8358 -1.1502
  135OSM   C13F14731   5.422   3.596   5.217  0.5261  0.7892  0.3461
  135OSM   H13F14732   5.518   3.600   5.273 -0.1772 -0.1794  1.6866
  135OSM   H13G14733   5.378   3.697   5.230 -0.0862  0.3066  2.4426
  135OSM   C14F14734   5.441   3.556   5.066  0.5097 -0.2332  0.7776
  135OSM   H14F14735   5.473   3.451   5.050 -0.5814 -0.7940  2.0721
  135OSM   H14G14736   5.510   3.628   5.017 -0.9174  0.0795 -0.8608
  135OSM   C15F14737   5.311   3.580   4.984 -0.2373  0.6654  0.1413
  135OSM   H15F14738   5.291   3.689   4.998  1.5828  0.9731  0.7062
  135OSM   H15G14739   5.218   3.538   5.025 -0.2420  0.4806 -0.0575
  135OSM   C16F14740   5.326   3.564   4.835 -0.1016  0.5058 -0.0603
  135OSM   H16F14741   5.236   3.612   4.791  0.1396 -1.9107 -3.5976
  135OSM   H16G14742   5.318   3.456   4.808 -0.0204  0.5936 -0.4394
  135OSM   C17F14743   5.449   3.615   4.759 -0.3958 -0.5209 -0.0915
  135OSM   H17F14744   5.542   3.578   4.808 -1.1965  0.1050  2.0008
  135OSM   H17G14745   5.447   3.724   4.736 -1.6792 -0.0615  1.9289
  135OSM   C18F14746   5.460   3.548   4.625 -0.6106 -0.0130  0.4004
  135OSM   H18F14747   5.560   3.572   4.584 -0.7416  1.1931  0.7528
  135OSM   H18G14748   5.377   3.581   4.559 -0.4334  0.7901  0.5725
  135OSM   H18H14749   5.462   3.437   4.637  0.1374  0.0917  1.3591
  136OSM      N14750   0.347   6.581   6.852  0.0381 -0.6006  0.0867
  136OSM    C1514751   0.435   6.473   6.911 -0.2508 -0.1117  0.2653
  136OSM   H15A14752   0.534   6.473   6.868  1.2231  0.0134  3.3657
  136OSM   H15B14753   0.383   6.381   6.886 -0.3001  0.1872 -0.7721
  136OSM   H15C14754   0.456   6.493   7.015  2.2768 -6.4889  1.4452
  136OSM    C1414755   0.206   6.547   6.875 -0.2301 -0.2583 -0.3653
  136OSM   H14A14756   0.183   6.452   6.828 -0.8928 -0.9165  1.2105
  136OSM   H14B14757   0.131   6.608   6.828  1.0886  0.5384 -1.5395
  136OSM   H14C14758   0.184   6.542   6.981 -0.2562 -0.0568 -0.3627
  136OSM    C1314759   0.372   6.713   6.920 -0.1042 -0.0536  0.5320
  136OSM   H13A14760   0.472   6.750   6.901  0.6869 -3.2516 -2.4914
  136OSM   H13B14761   0.345   6.708   7.025 -0.8427  0.9695  0.4014
  136OSM   H13C14762   0.306   6.790   6.884 -1.3725 -1.6118 -0.6059
  136OSM    C1214763   0.362   6.601   6.701 -0.2908 -0.5145 -0.2099
  136OSM   H12A14764   0.361   6.506   6.649  0.8414 -0.2151 -0.8288
  136OSM   H12B14765   0.463   6.635   6.680 -0.1935  0.6609  1.9691
  136OSM    C1114766   0.258   6.694   6.628 -0.3371  0.1880 -1.0196
  136OSM   H11A14767   0.155   6.658   6.647 -0.5814  1.7196  0.8449
  136OSM   H11B14768   0.284   6.682   6.520  0.9336 -3.6766 -0.4311
  136OSM      P14769   0.371   6.929   6.635 -0.3157  0.1212  0.1535
  136OSM    O1314770   0.353   7.062   6.691  0.4846 -0.6264  0.2385
  136OSM    O1414771   0.504   6.869   6.646 -0.3038 -0.8649 -0.0508
  136OSM    O1114772   0.331   6.932   6.477  0.5440 -0.2439  0.0950
  136OSM    O1214773   0.257   6.824   6.688 -0.4842  0.6352  0.3372
  136OSM    C1S14774   0.198   6.982   6.458 -0.1977  0.1975  0.7320
  136OSM    H1S14775   0.196   7.092   6.474 -0.5579 -0.0210  2.2580
  136OSM    H1T14776   0.121   6.930   6.519  1.0342 -1.5706  0.8601
  136OSM     NF14777   0.025   7.055   6.286  0.1371 -0.3691 -0.0091
  136OSM    HNF14778  -0.053   7.021   6.234  0.3290  1.8126 -1.8757
  136OSM    C2S14779   0.136   6.960   6.310 -0.1205 -0.4064  0.0201
  136OSM    H2S14780   0.216   7.007   6.248 -0.0150  0.2335  0.6186
  136OSM    C3S14781   0.116   6.817   6.259 -0.5613  0.5327 -0.0749
  136OSM    H3S14782   0.029   6.764   6.302 -0.3032 -0.4803 -0.7503
  136OSM     O314783   0.227   6.734   6.297  0.0682  0.3490 -0.5819
  136OSM    HO314784   0.279   6.784   6.362 -1.2096  0.2895  0.5350
  136OSM    C4S14785   0.088   6.807   6.109 -0.3676 -1.0689  0.3375
  136OSM    H4S14786  -0.015   6.836   6.087  0.4756  1.2185 -0.8922
  136OSM    C5S14787   0.180   6.770   6.018 -0.2149 -0.3389  0.7100
  136OSM    H5S14788   0.281   6.741   6.052  0.7386 -0.6240 -2.0298
  136OSM    C6S14789   0.149   6.767   5.868  0.1613  0.0847 -1.1459
  136OSM    H6S14790   0.178   6.666   5.834 -0.4525 -0.2682 -0.6396
  136OSM    H6T14791   0.215   6.839   5.814  2.4972 -0.9557  0.1598
  136OSM    C7S14792   0.000   6.798   5.832 -0.2083 -0.2185 -0.3505
  136OSM    H7S14793  -0.028   6.904   5.851 -0.9362 -0.7052  1.5038
  136OSM    H7T14794  -0.061   6.728   5.892 -0.7897  0.7902  0.2619
  136OSM    C8S14795  -0.024   6.773   5.681 -0.6110 -0.1386  0.3094
  136OSM    H8S14796  -0.134   6.755   5.684 -1.0274  1.8352 -1.2462
  136OSM    H8T14797   0.038   6.684   5.660  1.8290  1.1143  1.7956
  136OSM    C9S14798   0.013   6.890   5.585 -0.3200 -0.2186 -0.0507
  136OSM    H9S14799   0.120   6.918   5.594 -0.4772  0.3055  0.2139
  136OSM    H9T14800  -0.047   6.977   5.619 -0.0173 -1.2006  3.3496
  136OSM   C10S14801  -0.031   6.863   5.436  0.1323 -0.5584  0.0613
  136OSM   H10S14802  -0.141   6.846   5.427  0.5828 -3.1374 -1.3686
  136OSM   H10T14803   0.017   6.769   5.402  1.9381 -0.7589  2.8860
  136OSM   C11S14804   0.022   6.970   5.337  0.6277  0.7022  0.0638
  136OSM   H11S14805   0.133   6.964   5.350  0.3440 -0.2709  2.4279
  136OSM   H11T14806  -0.015   7.072   5.356  0.2350  0.2722  1.7535
  136OSM   C12S14807  -0.011   6.935   5.189  0.0478  0.1457  0.2283
  136OSM   H12S14808  -0.118   6.957   5.172 -0.4491 -0.6244  2.1515
  136OSM   H12T14809  -0.000   6.825   5.177  0.5350  0.2876 -0.8012
  136OSM   C13S14810   0.078   6.995   5.090  0.1816 -0.4089 -0.6464
  136OSM   H13S14811   0.178   6.949   5.098  0.5024  0.6413  2.8269
  136OSM   H13T14812   0.086   7.104   5.108  0.7057  0.0089 -3.0569
  136OSM   C14S14813   0.009   6.972   4.951 -0.5766 -0.3736  0.5783
  136OSM   H14S14814  -0.086   7.031   4.948  0.2698  1.1052  1.4619
  136OSM   H14T14815  -0.015   6.865   4.937  0.2564 -0.7374  1.7688
  136OSM   C15S14816   0.107   7.014   4.830 -0.4948  0.3869  0.1395
  136OSM   H15S14817   0.194   6.945   4.826  0.7058  1.7955  0.7334
  136OSM   H15T14818   0.144   7.118   4.845  1.2284 -0.2067  0.3155
  136OSM   C16S14819   0.033   7.012   4.689  0.1742  0.8240 -0.2389
  136OSM   H16S14820  -0.069   7.055   4.704  0.8409  2.6725 -0.7501
  136OSM   H16T14821   0.014   6.909   4.654  0.7574  0.0952  1.4834
  136OSM   C17S14822   0.101   7.097   4.583  0.1644  0.4705  0.1175
  136OSM   H17S14823   0.199   7.060   4.545  0.1382  0.8409 -0.3256
  136OSM   H17T14824   0.127   7.197   4.624 -2.3527  1.0085  0.5730
  136OSM   C18S14825   0.006   7.129   4.465  0.1494  0.3782  0.1842
  136OSM   H18S14826   0.042   7.224   4.420 -0.2280  0.7094  0.5672
  136OSM   H18T14827  -0.100   7.148   4.494 -0.3360  1.2174 -1.9733
  136OSM   H18U14828   0.025   7.061   4.380  2.5237 -0.3537  1.2203
  136OSM    C1F14829   0.024   7.189   6.301  0.1179 -0.8339 -0.5906
  136OSM     OF14830   0.125   7.265   6.304  0.2498 -0.3823 -0.4899
  136OSM    C2F14831  -0.112   7.244   6.313  0.1047 -0.4546  0.3390
  136OSM    H2F14832  -0.120   7.316   6.397 -1.1988 -2.0260  1.6358
  136OSM    H2G14833  -0.187   7.164   6.332 -1.7035  1.2366  0.6238
  136OSM    C3F14834  -0.169   7.331   6.192 -0.9343  0.1588  0.0144
  136OSM    H3F14835  -0.100   7.419   6.186 -0.4949 -0.1662  0.2072
  136OSM    H3G14836  -0.275   7.361   6.206 -1.2969 -0.5604 -1.1163
  136OSM    C4F14837  -0.163   7.253   6.059  0.8335  0.7152 -0.2802
  136OSM    H4F14838  -0.255   7.284   6.005 -0.0644  1.0402  1.3753
  136OSM    H4G14839  -0.182   7.145   6.081  1.5853  1.1317  2.8781
  136OSM    C5F14840  -0.038   7.269   5.973 -0.9008  0.3732  0.6173
  136OSM    H5F14841  -0.043   7.202   5.885  1.7962  1.6222 -0.6060
  136OSM    H5G14842   0.058   7.250   6.026 -0.6054  1.8308  0.6424
  136OSM    C6F14843  -0.027   7.415   5.919  0.2671 -0.6942 -0.1066
  136OSM    H6F14844   0.068   7.438   5.865 -0.0062 -1.6168 -1.0101
  136OSM    H6G14845  -0.052   7.487   5.999 -4.1549 -3.9244  1.8095
  136OSM    C7F14846  -0.133   7.438   5.798 -0.7394  0.4139 -0.0327
  136OSM    H7F14847  -0.239   7.429   5.829 -0.4106 -2.9551  0.4687
  136OSM    H7G14848  -0.099   7.360   5.727 -1.0683 -0.5506  0.8404
  136OSM    C8F14849  -0.115   7.575   5.742 -0.3329 -0.2666  0.4363
  136OSM    H8F14850  -0.016   7.618   5.715 -0.5847 -0.6715 -1.2273
  136OSM    H8G14851  -0.150   7.634   5.830 -0.2820 -1.4859  1.2938
  136OSM    C9F14852  -0.199   7.609   5.623  0.2551  0.3343 -0.0170
  136OSM    H9F14853  -0.302   7.639   5.646 -0.2456 -2.1410  1.3799
  136OSM   C10F14854  -0.176   7.570   5.493 -1.0461  0.5774 -0.6133
  136OSM   H10F14855  -0.246   7.599   5.414 -0.2215 -0.3972 -1.7450
  136OSM   C11F14856  -0.035   7.529   5.442  0.1661 -0.1576 -0.1224
  136OSM   H11F14857  -0.049   7.435   5.385 -0.5501 -1.8238  2.6129
  136OSM   H11G14858   0.034   7.501   5.525 -0.6658 -1.0405  0.2930
  136OSM   C12F14859   0.039   7.633   5.352  0.0169  1.1558 -0.5531
  136OSM   H12F14860   0.145   7.602   5.344 -0.3356  0.0389 -1.0221
  136OSM   H12G14861   0.033   7.730   5.406 -0.0620 -0.4426  2.5562
  136OSM   C13F14862  -0.013   7.664   5.213  0.6492  0.0364 -0.0317
  136OSM   H13F14863  -0.122   7.684   5.211  0.6750  0.4772  1.7175
  136OSM   H13G14864   0.002   7.567   5.161  0.5873 -0.4420  0.8207
  136OSM   C14F14865   0.063   7.777   5.135 -1.0261  0.5344 -0.6459
  136OSM   H14F14866   0.167   7.746   5.109 -1.6343 -0.8937 -1.4985
  136OSM   H14G14867   0.070   7.872   5.191  1.0334 -0.2578  0.5634
  136OSM   C15F14868  -0.005   7.805   5.003 -0.2305  0.8932  0.0328
  136OSM   H15F14869  -0.096   7.863   5.028 -1.5596 -1.0180 -0.1099
  136OSM   H15G14870  -0.047   7.708   4.967 -0.0591  0.8271  0.0126
  136OSM   C16F14871   0.070   7.868   4.884  0.3405 -0.7137  0.3499
  136OSM   H16F14872   0.167   7.817   4.867 -0.4879 -1.9796 -0.7090
  136OSM   H16G14873   0.098   7.974   4.905  0.9200 -0.5378 -1.1732
  136OSM   C17F14874  -0.011   7.871   4.753 -0.3324 -0.1579 -0.5151
  136OSM   H17F14875  -0.119   7.891   4.772 -0.3088 -0.1840 -0.3480
  136OSM   H17G14876   0.004   7.771   4.706  1.8740  0.1899 -0.6718
  136OSM   C18F14877   0.035   7.969   4.646  0.1311  0.1880 -0.6767
  136OSM   H18F14878   0.034   8.074   4.682 -0.6922  0.3218 -1.0831
  136OSM   H18G14879  -0.030   7.961   4.556  1.7531  0.3430 -1.9174
  136OSM   H18H14880   0.140   7.940   4.624  1.2298  1.5135  2.2759
  137OSM      N14881   1.538   6.702   6.691  0.0064  0.8259  0.5550
  137OSM    C1514882   1.436   6.648   6.605 -0.1274  0.9114 -0.5059
  137OSM   H15A14883   1.336   6.673   6.637  0.7140  3.1332  0.6022
  137OSM   H15B14884   1.435   6.541   6.617  0.7217  0.8851 -0.5910
  137OSM   H15C14885   1.445   6.675   6.501 -3.1519  2.2622 -0.5298
  137OSM    C1414886   1.496   6.666   6.835 -0.9172 -0.5057  0.0001
  137OSM   H14A14887   1.393   6.684   6.861 -0.2812  1.6939  1.1975
  137OSM   H14B14888   1.554   6.722   6.906  0.2670 -0.7293 -0.7667
  137OSM   H14C14889   1.524   6.562   6.845  1.6461 -0.0836 -1.8035
  137OSM    C1314890   1.669   6.642   6.655 -0.1521 -0.0615 -0.1325
  137OSM   H13A14891   1.724   6.617   6.745 -0.2499  0.4323  0.0651
  137OSM   H13B14892   1.727   6.705   6.590 -4.0856  2.0837 -1.8720
  137OSM   H13C14893   1.649   6.544   6.615  0.7634  0.3669 -1.7375
  137OSM    C1214894   1.533   6.859   6.676  0.1036  0.8511  0.2588
  137OSM   H12A14895   1.601   6.882   6.757 -0.0358 -1.0017  0.9665
  137OSM   H12B14896   1.432   6.887   6.699 -0.7914 -1.9263  0.0942
  137OSM    C1114897   1.592   6.912   6.543  0.1701 -0.0432 -0.9389
  137OSM   H11A14898   1.566   7.018   6.527  1.3305  0.5300  0.6788
  137OSM   H11B14899   1.547   6.847   6.465 -1.2758 -0.0056 -0.1705
  137OSM      P14900   1.829   6.976   6.632 -0.0002  0.3927 -0.0373
  137OSM    O1314901   1.751   7.006   6.755  0.0605  0.0158  0.1049
  137OSM    O1414902   1.960   6.900   6.644 -0.3392  0.2546  0.0195
  137OSM    O1114903   1.848   7.110   6.557  0.2643 -0.2017  0.1732
  137OSM    O1214904   1.734   6.892   6.532  0.1204  0.4296 -0.1745
  137OSM    C1S14905   1.908   7.120   6.429 -0.0337  0.0372  0.2007
  137OSM    H1S14906   1.982   7.039   6.413 -0.9346 -0.7526 -0.0324
  137OSM    H1T14907   1.967   7.214   6.422 -0.3395  0.1898 -0.3930
  137OSM     NF14908   1.871   7.135   6.185 -0.2260  0.0630  0.5440
  137OSM    HNF14909   1.868   7.219   6.131  0.5773 -1.1741 -1.5445
  137OSM    C2S14910   1.804   7.129   6.315  1.1001  0.1808  0.1321
  137OSM    H2S14911   1.749   7.033   6.325 -0.5333  1.0222 -0.4679
  137OSM    C3S14912   1.696   7.246   6.342  0.0913  0.2606  0.2633
  137OSM    H3S14913   1.758   7.339   6.347  1.1501 -0.3877 -0.4914
  137OSM     O314914   1.623   7.238   6.464 -0.1221 -0.3313 -0.4371
  137OSM    HO314915   1.670   7.171   6.514  0.6203  0.3504 -0.1944
  137OSM    C4S14916   1.605   7.248   6.220  0.2766  0.2210  0.3149
  137OSM    H4S14917   1.607   7.344   6.167  1.3521  0.4700  0.7806
  137OSM    C5S14918   1.490   7.177   6.191  0.6009  0.4646 -1.0715
  137OSM    H5S14919   1.456   7.112   6.273  1.7851  0.5624 -0.4673
  137OSM    C6S14920   1.395   7.201   6.075 -0.1289  0.3330 -0.0883
  137OSM    H6S14921   1.301   7.253   6.105 -1.0592 -1.2872 -0.0560
  137OSM    H6T14922   1.363   7.100   6.040 -0.7786  1.0527 -1.6779
  137OSM    C7S14923   1.465   7.254   5.951  0.0338 -0.1799  0.1569
  137OSM    H7S14924   1.560   7.204   5.925  1.1562  2.7889 -2.1317
  137OSM    H7T14925   1.486   7.363   5.961 -0.7094  0.0580 -0.6547
  137OSM    C8S14926   1.379   7.257   5.829  0.6223 -0.7139  0.5113
  137OSM    H8S14927   1.287   7.318   5.833  1.2399  0.3540 -0.9688
  137OSM    H8T14928   1.356   7.155   5.792 -0.6152  0.5518 -2.5408
  137OSM    C9S14929   1.459   7.315   5.709  0.8814 -0.2093 -0.0497
  137OSM    H9S14930   1.547   7.250   5.692  0.6808 -0.0977 -1.6220
  137OSM    H9T14931   1.497   7.417   5.728 -0.4505  0.4668 -0.8775
  137OSM   C10S14932   1.382   7.305   5.581 -0.0654 -0.5717  0.4490
  137OSM   H10S14933   1.299   7.378   5.579  1.1292  0.8079 -0.6883
  137OSM   H10T14934   1.336   7.207   5.552  0.3422  0.0118 -2.5706
  137OSM   C11S14935   1.465   7.354   5.464 -0.1594  0.0021 -0.2101
  137OSM   H11S14936   1.562   7.303   5.447  0.5155  1.5201 -1.1291
  137OSM   H11T14937   1.512   7.452   5.484  0.3600 -0.2210 -0.3136
  137OSM   C12S14938   1.398   7.338   5.328  0.3043  0.6860  0.1025
  137OSM   H12S14939   1.292   7.372   5.334 -1.1852 -3.3195 -0.1070
  137OSM   H12T14940   1.395   7.227   5.318  2.0406  0.6383 -0.1243
  137OSM   C13S14941   1.479   7.411   5.217  0.6799 -0.3386 -1.1456
  137OSM   H13S14942   1.582   7.369   5.214  0.4741 -1.3579  2.0192
  137OSM   H13T14943   1.493   7.516   5.248  1.5850 -0.2489 -1.8042
  137OSM   C14S14944   1.412   7.409   5.078 -0.7798  0.5597  1.2495
  137OSM   H14S14945   1.301   7.398   5.083 -1.0016  2.6303  1.5913
  137OSM   H14T14946   1.448   7.317   5.028  0.6160  2.0559 -0.6435
  137OSM   C15S14947   1.467   7.516   4.985  0.5288 -0.4526 -0.6227
  137OSM   H15S14948   1.577   7.530   4.999  0.2028  0.1418  1.7694
  137OSM   H15T14949   1.428   7.614   5.019  2.2715  0.1086 -0.1513
  137OSM   C16S14950   1.422   7.490   4.841 -0.1564  0.2743 -0.2608
  137OSM   H16S14951   1.408   7.580   4.777  0.3274  0.7137  0.2402
  137OSM   H16T14952   1.324   7.438   4.832  0.5110 -0.8060 -1.7598
  137OSM   C17S14953   1.521   7.403   4.769  0.0971  0.2440  0.6575
  137OSM   H17S14954   1.546   7.331   4.851  1.1872  1.6422  1.6053
  137OSM   H17T14955   1.607   7.466   4.738 -0.7579  1.2139  0.2204
  137OSM   C18S14956   1.464   7.327   4.647  0.2313  0.2310 -0.1597
  137OSM   H18S14957   1.370   7.269   4.660  0.8785 -0.7077  0.4524
  137OSM   H18T14958   1.527   7.243   4.611  0.7506  1.3359 -1.9661
  137OSM   H18U14959   1.444   7.404   4.569 -0.9901  0.6485  0.5343
  137OSM    C1F14960   1.940   7.037   6.135 -0.4839  0.6231  0.5698
  137OSM     OF14961   1.945   6.923   6.182 -0.1778  0.8915  0.1414
  137OSM    C2F14962   2.013   7.067   6.012 -0.4426 -0.3186 -0.3465
  137OSM    H2F14963   2.110   7.118   6.029  0.2927 -1.2005 -1.6923
  137OSM    H2G14964   1.945   7.123   5.944  0.9887  2.5215  0.4180
  137OSM    C3F14965   2.048   6.942   5.934 -0.3760  0.2588 -0.1437
  137OSM    H3F14966   1.954   6.883   5.926 -1.5780  2.3114 -3.6805
  137OSM    H3G14967   2.131   6.888   5.983 -0.1024  1.1198  0.3576
  137OSM    C4F14968   2.080   6.980   5.787 -0.9945  0.1983  0.1910
  137OSM    H4F14969   2.182   7.024   5.799 -0.7069  0.2248 -1.8486
  137OSM    H4G14970   2.018   7.064   5.750  0.9442  1.4474 -0.3979
  137OSM    C5F14971   2.074   6.864   5.685 -0.3637  0.2947  0.3973
  137OSM    H5F14972   1.969   6.829   5.694  0.2737 -1.6934  0.6134
  137OSM    H5G14973   2.138   6.783   5.725  0.7738  1.3154  0.6827
  137OSM    C6F14974   2.128   6.909   5.550  0.2135 -0.2010  0.1349
  137OSM    H6F14975   2.234   6.943   5.554  0.4743 -0.9826  0.0180
  137OSM    H6G14976   2.085   7.010   5.534 -0.3718 -0.1450  1.8211
  137OSM    C7F14977   2.101   6.818   5.431  0.1101  0.4698 -0.2706
  137OSM    H7F14978   1.995   6.827   5.401  0.4131  0.8564 -1.2789
  137OSM    H7G14979   2.130   6.715   5.463  0.5931  0.8580  0.5809
  137OSM    C8F14980   2.182   6.850   5.306  0.3264 -0.3477 -0.4253
  137OSM    H8F14981   2.291   6.863   5.325 -0.1277  1.2450  1.4117
  137OSM    H8G14982   2.164   6.950   5.261  1.7044 -0.7151 -1.8949
  137OSM    C9F14983   2.166   6.746   5.197 -0.8384  0.8255  0.6362
  137OSM    H9F14984   2.104   6.660   5.224 -2.1776  1.7751  0.6439
  137OSM   C10F14985   2.190   6.768   5.067  0.2929 -0.2902 -0.1178
  137OSM   H10F14986   2.173   6.687   4.996  0.0603  0.2035 -0.6354
  137OSM   C11F14987   2.266   6.875   4.985  0.7555  0.3703 -0.4638
  137OSM   H11F14988   2.305   6.949   5.058  1.4892 -0.6233  0.1700
  137OSM   H11G14989   2.185   6.935   4.938  0.4878  2.2896  2.1791
  137OSM   C12F14990   2.365   6.814   4.886  0.6577  0.4438 -0.3863
  137OSM   H12F14991   2.424   6.743   4.947  1.3061  0.9720 -0.3857
  137OSM   H12G14992   2.426   6.899   4.849  1.4236 -0.0454 -0.2576
  137OSM   C13F14993   2.310   6.745   4.754  0.4418 -0.2773  0.3464
  137OSM   H13F14994   2.236   6.819   4.716  0.4828 -0.8668 -0.8958
  137OSM   H13G14995   2.255   6.650   4.769  0.3340  0.2420  4.5369
  137OSM   C14F14996   2.423   6.722   4.660  0.3678  0.0830 -0.4938
  137OSM   H14F14997   2.511   6.667   4.700  0.2732  0.0061 -0.3896
  137OSM   H14G14998   2.461   6.818   4.620  0.5644 -0.7912 -2.5274
  137OSM   C15F14999   2.368   6.634   4.541  0.3058  0.0913 -0.2130
  137OSM   H15F15000   2.291   6.570   4.590 -0.0790  0.5612 -0.2053
  137OSM   H15G15001   2.449   6.569   4.500  0.3092  0.5264 -0.9154
  137OSM   C16F15002   2.320   6.718   4.422  0.5720  0.4884 -0.7840
  137OSM   H16F15003   2.400   6.772   4.367  0.3088  0.9080 -0.7581
  137OSM   H16G15004   2.238   6.785   4.456  1.6504  0.7092  1.5466
  137OSM   C17F15005   2.244   6.622   4.325 -0.0768 -0.1816 -1.0660
  137OSM   H17F15006   2.168   6.563   4.380 -0.8340  2.3455  0.7720
  137OSM   H17G15007   2.317   6.557   4.273  0.7659  0.5793 -0.8633
  137OSM   C18F15008   2.172   6.704   4.214  0.9195  0.4972  0.5925
  137OSM   H18F15009   2.131   6.644   4.130  1.6420 -1.0992  1.3465
  137OSM   H18G15010   2.247   6.775   4.174  0.6252  0.9421  0.8145
  137OSM   H18H15011   2.086   6.759   4.260  1.2869  0.8698  0.8373
  138OSM      N15012   5.263   5.453   6.694  0.2289 -0.3334 -0.4606
  138OSM    C1515013   5.145   5.536   6.681 -0.3316  0.0534  0.4464
  138OSM   H15A15014   5.114   5.581   6.775  1.7249 -1.1343  1.7657
  138OSM   H15B15015   5.061   5.477   6.648  0.0513 -0.2705  0.0542
  138OSM   H15C15016   5.167   5.613   6.609  1.5748  0.6631  1.6035
  138OSM    C1415017   5.377   5.542   6.737 -0.0299 -0.4533  0.2565
  138OSM   H14A15018   5.406   5.614   6.662  1.7322  1.6390  2.7534
  138OSM   H14B15019   5.464   5.479   6.739  0.2924 -0.0508 -0.7825
  138OSM   H14C15020   5.361   5.582   6.837  0.4196  0.1865  0.0773
  138OSM    C1315021   5.237   5.356   6.806 -0.9878  0.2715  0.4781
  138OSM   H13A15022   5.314   5.281   6.812  0.9358  2.1216 -0.0203
  138OSM   H13B15023   5.146   5.301   6.788  0.0779 -1.9247  1.4835
  138OSM   H13C15024   5.228   5.416   6.895  1.2866  2.2227 -0.4994
  138OSM    C1215025   5.296   5.386   6.561  0.2399  0.5442  0.3683
  138OSM   H12A15026   5.337   5.465   6.499  2.0447 -2.9729 -3.3521
  138OSM   H12B15027   5.205   5.340   6.524 -0.3208  1.8195  0.0637
  138OSM    C1115028   5.408   5.283   6.567  0.3018 -0.0748  0.1089
  138OSM   H11A15029   5.422   5.237   6.467 -0.0800 -0.0678  0.0523
  138OSM   H11B15030   5.372   5.199   6.630  0.1640 -0.4010 -0.4003
  138OSM      P15031   5.641   5.278   6.671 -0.4945 -0.3906 -0.3390
  138OSM    O1315032   5.747   5.374   6.708  0.3840  0.7554  0.4030
  138OSM    O1415033   5.590   5.193   6.780  0.7555  0.1766  0.1026
  138OSM    O1115034   5.687   5.179   6.552  0.1101 -0.0006  0.3863
  138OSM    O1215035   5.527   5.350   6.605  0.3724 -0.5898  0.1341
  138OSM    C1S15036   5.699   5.216   6.422 -0.2485  0.2195  0.6062
  138OSM    H1S15037   5.788   5.283   6.413  1.1760 -1.6406  0.2407
  138OSM    H1T15038   5.616   5.282   6.387  0.8677  0.7180 -1.2691
  138OSM     NF15039   5.737   5.170   6.180 -0.4592 -0.7066 -0.1031
  138OSM    HNF15040   5.654   5.166   6.127  0.1847 -2.2566 -1.0514
  138OSM    C2S15041   5.724   5.107   6.316  0.7203 -0.0280 -0.0149
  138OSM    H2S15042   5.820   5.062   6.348  0.3802 -1.3749 -0.8272
  138OSM    C3S15043   5.615   4.992   6.319 -0.1416 -0.2634  0.3821
  138OSM    H3S15044   5.519   5.039   6.289 -0.8569 -0.6366  2.0150
  138OSM     O315045   5.571   4.952   6.449 -0.6709  0.3208 -0.5917
  138OSM    HO315046   5.594   5.024   6.509  0.0766 -0.9709  0.7430
  138OSM    C4S15047   5.646   4.865   6.241  0.5530 -0.2681  0.2494
  138OSM    H4S15048   5.746   4.827   6.270 -0.0808 -2.9964 -0.7955
  138OSM    C5S15049   5.578   4.799   6.143  0.5532  0.1097  0.1952
  138OSM    H5S15050   5.476   4.834   6.125  0.7947  0.1479 -1.1869
  138OSM    C6S15051   5.630   4.669   6.078  0.2898 -0.3949 -0.3586
  138OSM    H6S15052   5.592   4.579   6.132 -1.6100  0.5503 -0.0250
  138OSM    H6T15053   5.737   4.657   6.104 -0.3346 -2.8504  1.4773
  138OSM    C7S15054   5.632   4.651   5.932  0.3071 -0.1133 -0.1067
  138OSM    H7S15055   5.692   4.733   5.886 -0.1867 -0.6103 -1.6935
  138OSM    H7T15056   5.530   4.648   5.887 -0.0120 -0.6893  0.6406
  138OSM    C8S15057   5.709   4.518   5.893 -0.0400  0.4668 -0.3297
  138OSM    H8S15058   5.653   4.438   5.947  0.1320  0.2131 -0.5267
  138OSM    H8T15059   5.816   4.524   5.918  0.0065 -0.4361 -0.2829
  138OSM    C9S15060   5.713   4.485   5.748 -1.4689  0.6574  0.0238
  138OSM    H9S15061   5.761   4.566   5.689 -0.4384 -1.2507 -1.8859
  138OSM    H9T15062   5.611   4.464   5.708 -1.3859 -0.2474  0.2599
  138OSM   C10S15063   5.793   4.360   5.711 -0.4770 -0.3149  0.1761
  138OSM   H10S15064   5.756   4.285   5.784 -1.5797  0.6359  0.6246
  138OSM   H10T15065   5.901   4.372   5.736 -0.7205  3.9428 -0.0710
  138OSM   C11S15066   5.765   4.317   5.568 -0.7091 -0.1141  0.1100
  138OSM   H11S15067   5.788   4.399   5.496 -0.5083  0.6597  1.0350
  138OSM   H11T15068   5.656   4.300   5.553 -0.3565 -2.3104 -0.2224
  138OSM   C12S15069   5.850   4.198   5.525  0.0273  0.0814  0.0806
  138OSM   H12S15070   5.841   4.115   5.599 -1.9293  0.2397  0.0798
  138OSM   H12T15071   5.954   4.238   5.525 -0.1677  0.7469  2.3827
  138OSM   C13S15072   5.813   4.147   5.385 -0.1659  0.1307  0.0298
  138OSM   H13S15073   5.829   4.233   5.317  2.2275  2.5555  3.3541
  138OSM   H13T15074   5.705   4.122   5.389 -0.5007  1.4696 -0.2330
  138OSM   C14S15075   5.899   4.028   5.342  0.1869 -0.0341 -0.4129
  138OSM   H14S15076   5.909   3.949   5.418  0.5888  0.5508  0.1550
  138OSM   H14T15077   6.005   4.056   5.323  0.4611  0.2695  1.4080
  138OSM   C15S15078   5.862   3.976   5.204 -0.1469  0.8590 -0.2014
  138OSM   H15S15079   5.838   4.055   5.129  1.8440  1.6481 -0.0763
  138OSM   H15T15080   5.770   3.914   5.213  0.0665  0.2795 -1.6466
  138OSM   C16S15081   5.975   3.899   5.143  0.0882  0.3604  0.1148
  138OSM   H16S15082   5.994   3.811   5.207 -2.4642  0.7832  1.5763
  138OSM   H16T15083   6.071   3.953   5.124  0.2798  0.0707  0.2604
  138OSM   C17S15084   5.932   3.854   5.006  0.5798  0.1065 -0.2384
  138OSM   H17S15085   5.917   3.948   4.949  1.3949  0.3963  0.0005
  138OSM   H17T15086   5.831   3.810   5.016  1.3940 -1.9629 -0.5583
  138OSM   C18S15087   6.035   3.781   4.915  1.4486  0.3455 -0.1343
  138OSM   H18S15088   5.993   3.777   4.812  0.5724  0.5784  0.2007
  138OSM   H18T15089   6.050   3.680   4.958  0.9573  0.7363  1.0111
  138OSM   H18U15090   6.128   3.842   4.914  2.5745 -1.2200  2.1512
  138OSM    C1F15091   5.829   5.257   6.136 -0.2904  0.4803  0.3107
  138OSM     OF15092   5.940   5.250   6.187  0.0632 -0.3573  0.5895
  138OSM    C2F15093   5.807   5.350   6.021  0.1604 -0.3060 -0.0874
  138OSM    H2F15094   5.696   5.359   6.011 -0.3123 -1.5703  2.8279
  138OSM    H2G15095   5.856   5.310   5.930  0.3651 -1.2328  0.4236
  138OSM    C3F15096   5.848   5.497   6.052 -0.2706  0.3084  0.1133
  138OSM    H3F15097   5.958   5.509   6.047  0.2592 -2.4710  2.5364
  138OSM    H3G15098   5.818   5.509   6.159 -0.2766 -0.1146  0.1611
  138OSM    C4F15099   5.759   5.583   5.964  0.2208 -0.6133  0.4513
  138OSM    H4F15100   5.763   5.685   6.009  3.2011 -0.2197 -0.4861
  138OSM    H4G15101   5.652   5.559   5.948 -0.5126  0.8390  2.6096
  138OSM    C5F15102   5.824   5.591   5.819  0.3271  0.2412 -0.1918
  138OSM    H5F15103   5.788   5.493   5.780  2.5736 -0.6945 -0.0715
  138OSM    H5G15104   5.935   5.592   5.823  0.3572 -0.6357 -0.5640
  138OSM    C6F15105   5.765   5.699   5.726 -0.3685  0.4949  0.1726
  138OSM    H6F15106   5.790   5.789   5.786 -2.3996  0.7189  0.7556
  138OSM    H6G15107   5.656   5.688   5.707 -0.3785  1.2701 -0.2546
  138OSM    C7F15108   5.829   5.716   5.592 -0.1677  0.4091 -1.0556
  138OSM    H7F15109   5.937   5.740   5.605 -0.1597 -0.7599  1.8220
  138OSM    H7G15110   5.789   5.801   5.533  2.1100  1.1973 -1.5593
  138OSM    C8F15111   5.811   5.594   5.501  0.1557 -0.4485  0.2076
  138OSM    H8F15112   5.826   5.502   5.561 -0.4843  0.9646  2.6536
  138OSM    H8G15113   5.883   5.604   5.417 -1.6872 -1.3548 -1.5885
  138OSM    C9F15114   5.673   5.579   5.442 -0.5565 -0.7231 -0.5872
  138OSM    H9F15115   5.595   5.546   5.512 -1.3488  0.9183 -0.6525
  138OSM   C10F15116   5.639   5.602   5.312  0.2751 -1.0035 -0.2049
  138OSM   H10F15117   5.534   5.606   5.282  0.2108 -0.2481  0.1065
  138OSM   C11F15118   5.728   5.655   5.202 -0.0254  0.3926 -0.2647
  138OSM   H11F15119   5.740   5.575   5.125 -0.5265 -1.4459  1.4762
  138OSM   H11G15120   5.824   5.704   5.228  2.4246 -4.7069  1.7282
  138OSM   C12F15121   5.645   5.765   5.123  0.0126 -0.2664 -0.8971
  138OSM   H12F15122   5.718   5.817   5.057 -0.4742 -0.7024 -1.7950
  138OSM   H12G15123   5.600   5.837   5.195  0.5006 -0.7188 -0.1278
  138OSM   C13F15124   5.534   5.712   5.035 -0.5203 -0.3087  0.3399
  138OSM   H13F15125   5.465   5.797   5.018 -3.0626 -2.2500  0.2607
  138OSM   H13G15126   5.471   5.640   5.092 -1.6018  1.1238  1.0290
  138OSM   C14F15127   5.585   5.651   4.908  0.6987 -0.2492  0.3098
  138OSM   H14F15128   5.657   5.570   4.929  1.1133  0.1121  0.3074
  138OSM   H14G15129   5.657   5.715   4.852  2.1662 -1.9575  0.1645
  138OSM   C15F15130   5.478   5.585   4.824  0.0876  0.4356  0.7641
  138OSM   H15F15131   5.378   5.628   4.849 -0.3678 -0.9206  1.3390
  138OSM   H15G15132   5.459   5.486   4.869 -1.3607  0.0634 -0.5800
  138OSM   C16F15133   5.496   5.592   4.676  0.1587  0.1896 -0.1382
  138OSM   H16F15134   5.584   5.539   4.635 -0.9280 -1.9753  0.1575
  138OSM   H16G15135   5.524   5.696   4.650  1.6845 -0.7447 -2.5387
  138OSM   C17F15136   5.369   5.547   4.599  0.1791  0.0496  0.3666
  138OSM   H17F15137   5.279   5.602   4.633 -1.1977 -1.6541 -0.3800
  138OSM   H17G15138   5.345   5.439   4.613 -0.7077  0.3278  1.1335
  138OSM   C18F15139   5.367   5.580   4.457 -0.5921  0.1876  0.4775
  138OSM   H18F15140   5.272   5.538   4.418 -1.8205  0.8930  2.5842
  138OSM   H18G15141   5.452   5.524   4.411 -1.4225  0.4619 -1.5244
  138OSM   H18H15142   5.376   5.687   4.429  4.2144 -0.5575 -2.0738
  139OSM      N15143   0.973   2.989   7.217 -0.2359  0.3078  0.0087
  139OSM    C1515144   0.991   2.844   7.224  0.3941 -0.2565  0.0269
  139OSM   H15A15145   0.925   2.801   7.150  0.6912 -0.0694 -0.3534
  139OSM   H15B15146   0.969   2.805   7.322 -0.4838 -0.6414 -0.3157
  139OSM   H15C15147   1.091   2.810   7.203  0.0322 -0.9619 -0.6221
  139OSM    C1415148   0.835   3.017   7.250  0.2955 -0.3969 -0.3648
  139OSM   H14A15149   0.763   2.946   7.212 -0.8896 -0.8093  2.4077
  139OSM   H14B15150   0.801   3.113   7.216 -1.8094 -0.4468  1.3778
  139OSM   H14C15151   0.815   3.011   7.356 -1.3650  3.1534 -0.3460
  139OSM    C1315152   1.062   3.057   7.310 -0.1605  0.0952  0.3900
  139OSM   H13A15153   1.164   3.039   7.278 -0.9630  0.0811 -2.4658
  139OSM   H13B15154   1.057   3.013   7.409 -0.8498 -2.1786 -0.5896
  139OSM   H13C15155   1.047   3.163   7.321 -1.1195  0.2000 -1.4825
  139OSM    C1215156   1.012   3.042   7.079 -0.2746  0.0612  0.2122
  139OSM   H12A15157   0.976   3.144   7.078 -1.6227 -0.3650  1.3928
  139OSM   H12B15158   0.950   2.992   7.005 -0.0060  1.1979 -0.8189
  139OSM    C1115159   1.159   3.024   7.031  0.2245  1.0505  0.4709
  139OSM   H11A15160   1.229   3.080   7.097  1.0819  1.4920 -0.7735
  139OSM   H11B15161   1.173   3.086   6.939  1.2033  0.2349  0.0548
  139OSM      P15162   1.165   2.796   6.899 -0.0413  0.1829  0.7906
  139OSM    O1315163   1.256   2.678   6.895  0.1219 -0.1031  0.6546
  139OSM    O1415164   1.021   2.760   6.911 -0.1892 -0.2036  0.7258
  139OSM    O1115165   1.202   2.886   6.773 -0.1585 -1.0571  0.0319
  139OSM    O1215166   1.200   2.881   7.033 -0.1038  0.8266 -0.0462
  139OSM    C1S15167   1.222   2.820   6.646 -0.5494 -0.1135 -0.1687
  139OSM    H1S15168   1.147   2.739   6.637  0.4145 -1.2513  1.5107
  139OSM    H1T15169   1.317   2.768   6.622 -1.2996 -0.7413 -1.8954
  139OSM     NF15170   1.230   2.846   6.411 -0.1615 -0.2900 -0.0746
  139OSM    HNF15171   1.323   2.860   6.378 -1.0059 -0.4151 -2.6741
  139OSM    C2S15172   1.200   2.917   6.532 -0.0275  0.3993 -0.3204
  139OSM    H2S15173   1.095   2.951   6.522  0.3701  1.4053 -1.3003
  139OSM    C3S15174   1.280   3.051   6.542 -0.1813  0.1402 -0.0551
  139OSM    H3S15175   1.389   3.032   6.550 -0.4336 -0.5982  2.2783
  139OSM     O315176   1.239   3.133   6.651 -0.0574  0.2418  0.1019
  139OSM    HO315177   1.200   3.067   6.709 -1.0302 -0.3309 -1.1519
  139OSM    C4S15178   1.247   3.138   6.418 -0.2594  0.2725 -0.5965
  139OSM    H4S15179   1.140   3.161   6.419 -1.0329 -2.8942 -1.0445
  139OSM    C5S15180   1.330   3.178   6.324 -0.1077  0.1028 -0.8156
  139OSM    H5S15181   1.434   3.147   6.343 -0.4060 -0.2143  0.3746
  139OSM    C6S15182   1.289   3.255   6.204  0.0868 -0.3380  0.3162
  139OSM    H6S15183   1.318   3.203   6.110 -0.2743  1.2089 -0.6807
  139OSM    H6T15184   1.359   3.341   6.204 -0.0710 -0.1795  2.2698
  139OSM    C7S15185   1.140   3.300   6.194  0.2206 -0.8394 -0.4615
  139OSM    H7S15186   1.115   3.369   6.278  1.2523 -0.2574 -0.6069
  139OSM    H7T15187   1.075   3.211   6.204  0.4950 -1.1139 -1.1126
  139OSM    C8S15188   1.097   3.381   6.069 -0.5627  0.3695  0.4632
  139OSM    H8S15189   1.183   3.451   6.054 -1.8290  1.9942  0.4771
  139OSM    H8T15190   1.008   3.448   6.078  1.0231  2.6957 -0.1978
  139OSM    C9S15191   1.070   3.291   5.947 -0.7328 -0.1266 -0.6461
  139OSM    H9S15192   0.982   3.228   5.973  1.5924 -3.0507  0.8020
  139OSM    H9T15193   1.155   3.220   5.937  1.1243  2.2568 -3.2452
  139OSM   C10S15194   1.054   3.365   5.813  0.1032 -0.4965 -0.5031
  139OSM   H10S15195   1.142   3.428   5.785 -0.2112 -0.3452 -1.1647
  139OSM   H10T15196   0.980   3.446   5.827  2.3312  1.3438  1.5077
  139OSM   C11S15197   1.018   3.288   5.683 -0.9704  0.5391 -0.4127
  139OSM   H11S15198   1.088   3.206   5.657 -1.0436  0.8855 -1.7705
  139OSM   H11T15199   1.040   3.362   5.603  3.0997  1.3843  1.2403
  139OSM   C12S15200   0.874   3.226   5.681 -0.1156  0.0112  0.0598
  139OSM   H12S15201   0.806   3.308   5.711 -0.4358 -1.1203  2.7248
  139OSM   H12T15202   0.855   3.171   5.776 -0.4326 -0.3996 -0.2346
  139OSM   C13S15203   0.826   3.161   5.551 -0.2336 -0.0607  0.5112
  139OSM   H13S15204   0.726   3.122   5.581  0.1409  0.6377  2.8504
  139OSM   H13T15205   0.883   3.069   5.526 -0.3617  0.4226 -1.8016
  139OSM   C14S15206   0.819   3.259   5.437 -0.0687  0.6754  0.1825
  139OSM   H14S15207   0.922   3.293   5.409  0.0583  1.3237  1.3702
  139OSM   H14T15208   0.760   3.347   5.470  0.1197  0.5929  0.7521
  139OSM   C15S15209   0.744   3.205   5.312 -0.5468  0.5971  0.4468
  139OSM   H15S15210   0.649   3.153   5.336 -0.5447 -0.3769 -1.4625
  139OSM   H15T15211   0.820   3.140   5.264 -1.6615 -0.5055  0.1260
  139OSM   C16S15212   0.704   3.316   5.209 -0.3282  0.2849  0.4075
  139OSM   H16S15213   0.776   3.398   5.228 -0.4863  0.1094  1.9240
  139OSM   H16T15214   0.609   3.365   5.240 -1.8053 -1.1644 -1.5586
  139OSM   C17S15215   0.692   3.291   5.059 -0.3203  0.3658 -0.3665
  139OSM   H17S15216   0.793   3.294   5.013  0.0031 -1.1971  0.1843
  139OSM   H17T15217   0.635   3.379   5.022 -0.7483  0.9826  1.6325
  139OSM   C18S15218   0.626   3.161   5.019 -0.4194  0.1976 -0.0052
  139OSM   H18S15219   0.522   3.141   5.052 -0.3040  0.2347  0.3915
  139OSM   H18T15220   0.685   3.071   5.047 -0.9435  0.0929  0.8012
  139OSM   H18U15221   0.621   3.172   4.909 -1.4604 -0.3252 -0.0194
  139OSM    C1F15222   1.161   2.744   6.361 -0.3038  1.2063 -0.7595
  139OSM     OF15223   1.046   2.717   6.391 -0.3213  0.5824  0.1938
  139OSM    C2F15224   1.246   2.653   6.278 -0.4940  0.0896 -0.2396
  139OSM    H2F15225   1.233   2.552   6.324  0.7209  0.7017  1.5618
  139OSM    H2G15226   1.355   2.670   6.289 -0.6234 -0.1717  1.7212
  139OSM    C3F15227   1.204   2.652   6.126 -0.6601 -0.1107 -0.1396
  139OSM    H3F15228   1.208   2.753   6.078 -0.2903 -0.3087 -0.5330
  139OSM    H3G15229   1.102   2.610   6.116 -0.4768 -0.4108 -0.7987
  139OSM    C4F15230   1.306   2.565   6.046  0.2804  0.3307 -0.1368
  139OSM    H4F15231   1.303   2.466   6.095 -0.9105  0.4916  0.1430
  139OSM    H4G15232   1.410   2.604   6.055 -0.1943  1.4398  0.7422
  139OSM    C5F15233   1.267   2.553   5.896 -0.8440 -0.4410  0.4868
  139OSM    H5F15234   1.208   2.644   5.874  0.1711  1.2221  3.9681
  139OSM    H5G15235   1.197   2.470   5.875  0.2818 -1.2718 -0.1292
  139OSM    C6F15236   1.385   2.533   5.802  0.3849  0.0546 -0.2449
  139OSM    H6F15237   1.450   2.623   5.808  0.0585  0.4860 -2.4172
  139OSM    H6G15238   1.334   2.540   5.703  1.0098 -0.7186 -0.6335
  139OSM    C7F15239   1.459   2.394   5.814  0.2964 -0.5153 -0.0326
  139OSM    H7F15240   1.388   2.322   5.860  0.5024 -1.1832 -0.7376
  139OSM    H7G15241   1.542   2.416   5.885 -0.8659  1.5300  0.7709
  139OSM    C8F15242   1.513   2.342   5.683  0.4685 -0.1443  0.3275
  139OSM    H8F15243   1.549   2.426   5.621 -0.7730  0.7020  0.7108
  139OSM    H8G15244   1.426   2.299   5.629  1.1898  0.3974 -1.3130
  139OSM    C9F15245   1.619   2.240   5.710 -0.2697 -0.0490  0.1830
  139OSM    H9F15246   1.601   2.136   5.681  1.3331 -0.9373  2.1621
  139OSM   C10F15247   1.745   2.256   5.752  0.2514 -0.0217 -0.8417
  139OSM   H10F15248   1.813   2.171   5.770 -2.2284 -1.9527 -0.0955
  139OSM   C11F15249   1.804   2.390   5.797  0.3235 -0.0854  0.0926
  139OSM   H11F15250   1.820   2.398   5.907  0.8292 -1.2939  0.1202
  139OSM   H11G15251   1.741   2.478   5.771 -0.3021 -0.5699 -0.0533
  139OSM   C12F15252   1.934   2.423   5.719 -0.7095  0.5349  0.3595
  139OSM   H12F15253   2.009   2.345   5.742 -0.4902  0.3497 -0.8847
  139OSM   H12G15254   1.969   2.521   5.758  0.1231 -0.2657  1.6882
  139OSM   C13F15255   1.919   2.437   5.565  0.4188 -0.6106  0.0183
  139OSM   H13F15256   1.896   2.342   5.513  0.5873 -0.2676 -0.6968
  139OSM   H13G15257   2.025   2.450   5.536  0.1457  0.4520 -0.5734
  139OSM   C14F15258   1.826   2.539   5.505  0.4051 -0.6748 -0.4998
  139OSM   H14F15259   1.873   2.638   5.522  1.4603 -1.1611 -0.4838
  139OSM   H14G15260   1.724   2.529   5.547 -1.9253  2.0606 -4.7173
  139OSM   C15F15261   1.812   2.514   5.353 -0.3010  0.0619  0.5420
  139OSM   H15F15262   1.776   2.409   5.356  3.2258 -1.2754  0.8811
  139OSM   H15G15263   1.908   2.539   5.303 -1.6340  1.0385 -1.7351
  139OSM   C16F15264   1.712   2.605   5.289  1.4020 -0.3506  0.3007
  139OSM   H16F15265   1.760   2.705   5.292  0.3290  0.1469  2.3674
  139OSM   H16G15266   1.618   2.599   5.348  0.0311 -0.3748 -1.7789
  139OSM   C17F15267   1.669   2.558   5.146 -0.5559 -0.3113  0.1891
  139OSM   H17F15268   1.595   2.475   5.147 -1.2064  0.1185 -2.5174
  139OSM   H17G15269   1.760   2.536   5.086 -1.1547 -0.7129 -0.5894
  139OSM   C18F15270   1.592   2.671   5.082  0.2997  0.1832  0.3710
  139OSM   H18F15271   1.556   2.620   4.990  1.9386  0.3809 -0.4126
  139OSM   H18G15272   1.665   2.752   5.060 -0.1489  0.1953 -1.1951
  139OSM   H18H15273   1.513   2.713   5.147 -2.5829 -1.9839 -1.4534
  140OSM      N15274   6.792   6.239   7.072  0.0562 -0.1266 -0.0053
  140OSM    C1515275   6.922   6.302   7.129  0.1745  0.4735 -0.5274
  140OSM   H15A15276   6.995   6.337   7.058 -1.0937  1.0131 -1.6066
  140OSM   H15B15277   6.964   6.225   7.192 -0.0197  0.4171 -0.4639
  140OSM   H15C15278   6.897   6.393   7.181  0.5932  0.3954 -0.1861
  140OSM    C1415279   6.754   6.145   7.178  0.6736  0.4159  0.0521
  140OSM   H14A15280   6.662   6.097   7.147  0.7139  0.9614 -1.0000
  140OSM   H14B15281   6.726   6.186   7.274  0.2121  0.2054  0.0127
  140OSM   H14C15282   6.832   6.074   7.200  0.6294  0.4658  0.3676
  140OSM    C1315283   6.683   6.343   7.060 -0.5110  0.0873  0.0308
  140OSM   H13A15284   6.597   6.300   7.011  0.0132 -1.8497  0.7231
  140OSM   H13B15285   6.728   6.420   6.998  1.7611 -0.8726  0.3719
  140OSM   H13C15286   6.653   6.372   7.159 -0.1559  3.5345 -0.7367
  140OSM    C1215287   6.831   6.164   6.950  0.0069 -0.8307 -1.0449
  140OSM   H12A15288   6.740   6.145   6.896 -2.2998 -1.3476  2.6420
  140OSM   H12B15289   6.871   6.065   6.968  0.5381 -0.7652 -1.8082
  140OSM    C1115290   6.916   6.242   6.848 -0.6245  0.2056  0.1320
  140OSM   H11A15291   6.865   6.341   6.843 -1.6817 -0.3313 -0.0602
  140OSM   H11B15292   6.900   6.198   6.747  1.3331  2.6590 -1.3893
  140OSM      P15293   7.139   6.124   6.862 -0.2934 -0.2601 -0.1603
  140OSM    O1315294   7.284   6.142   6.896  0.2172 -0.3051 -0.0500
  140OSM    O1415295   7.069   6.011   6.927  0.3288  0.1838  0.0565
  140OSM    O1115296   7.136   6.108   6.703  0.4177  0.1011 -0.6741
  140OSM    O1215297   7.056   6.253   6.889 -0.6696  0.2053  0.7529
  140OSM    C1S15298   7.174   6.212   6.614 -0.8502 -0.2347  0.7068
  140OSM    H1S15299   7.275   6.245   6.649  0.0724 -0.3471 -1.6710
  140OSM    H1T15300   7.098   6.292   6.624 -0.5766  0.3786 -1.5016
  140OSM     NF15301   7.241   6.286   6.381  0.4204  0.2742 -0.3882
  140OSM    HNF15302   7.173   6.338   6.330  1.9491  1.9942 -0.7794
  140OSM    C2S15303   7.191   6.173   6.459 -0.4060 -0.2961  0.9556
  140OSM    H2S15304   7.264   6.090   6.448  0.3045  0.0057  2.9335
  140OSM    C3S15305   7.051   6.116   6.405 -0.9099  0.1228 -1.0235
  140OSM    H3S15306   6.981   6.202   6.416 -0.2321  0.5205  0.3676
  140OSM     O315307   6.989   6.029   6.495 -0.0022 -0.2453  0.2269
  140OSM    HO315308   7.034   6.036   6.579 -0.6506  0.5483  0.5247
  140OSM    C4S15309   7.062   6.070   6.267 -0.2712  0.3588 -0.6556
  140OSM    H4S15310   7.064   6.159   6.203 -0.1095 -0.8336 -2.3762
  140OSM    C5S15311   7.070   5.949   6.206  0.6148 -0.9799 -0.3500
  140OSM    H5S15312   7.067   5.857   6.268  1.1825 -0.8445 -0.1223
  140OSM    C6S15313   7.075   5.943   6.060 -0.2912  0.2131  0.2150
  140OSM    H6S15314   7.003   6.008   6.006 -0.0700 -0.5346 -1.0255
  140OSM    H6T15315   7.033   5.843   6.035 -0.0603  0.0295  0.5467
  140OSM    C7S15316   7.218   5.953   6.005  0.6992 -0.0770  0.0538
  140OSM    H7S15317   7.271   5.857   6.021  0.8029 -0.2144 -1.0171
  140OSM    H7T15318   7.280   6.019   6.070  0.0212  1.6755 -0.9915
  140OSM    C8S15319   7.218   6.007   5.860  0.0044 -0.2692 -0.9924
  140OSM    H8S15320   7.321   6.035   5.829  0.6543 -0.0876  1.1379
  140OSM    H8T15321   7.168   6.107   5.861 -0.5835 -0.5422  1.1968
  140OSM    C9S15322   7.150   5.919   5.756 -0.2289  0.1697  0.2458
  140OSM    H9S15323   7.041   5.915   5.777 -0.2922  0.9802  0.0826
  140OSM    H9T15324   7.194   5.817   5.752 -3.0434 -1.2080  1.6317
  140OSM   C10S15325   7.151   5.979   5.610 -0.1213  0.1233 -0.1437
  140OSM   H10S15326   7.224   5.916   5.554 -1.6247 -0.4300 -1.5527
  140OSM   H10T15327   7.187   6.084   5.614 -0.0057  0.1265 -1.1133
  140OSM   C11S15328   7.017   5.980   5.541 -0.1941 -0.4444  0.1435
  140OSM   H11S15329   6.957   6.055   5.598  0.5143  0.6975 -0.5909
  140OSM   H11T15330   6.968   5.883   5.569 -0.8202 -0.2956 -0.4014
  140OSM   C12S15331   7.001   6.016   5.390 -0.2373  0.1594 -0.2141
  140OSM   H12S15332   7.015   6.126   5.391 -3.2800  0.6280  1.1202
  140OSM   H12T15333   6.899   6.007   5.348  0.8288 -0.5422 -2.9036
  140OSM   C13S15334   7.103   5.925   5.309  0.7722 -0.2622 -0.0444
  140OSM   H13S15335   7.069   5.820   5.321 -0.0993  0.0521  0.3627
  140OSM   H13T15336   7.209   5.935   5.339  0.2133 -1.4815  2.7155
  140OSM   C14S15337   7.096   5.972   5.166 -0.4173  0.6215  0.0423
  140OSM   H14S15338   7.175   6.047   5.148 -0.7958  0.6462 -1.6843
  140OSM   H14T15339   6.998   6.018   5.143  0.4597  2.0955 -0.8693
  140OSM   C15S15340   7.109   5.854   5.068  0.3477  0.5359  0.4241
  140OSM   H15S15341   7.011   5.802   5.077  0.2309  0.2569 -1.9225
  140OSM   H15T15342   7.189   5.787   5.106  0.0323 -1.1061 -1.6569
  140OSM   C16S15343   7.142   5.894   4.930 -0.3380  0.2990  0.6198
  140OSM   H16S15344   7.130   5.805   4.864 -1.2103 -0.5752  1.9009
  140OSM   H16T15345   7.247   5.928   4.932 -0.0992 -0.4402  1.0823
  140OSM   C17S15346   7.055   6.002   4.863  0.5112 -0.1524  0.2459
  140OSM   H17S15347   7.044   6.089   4.931  0.0929 -1.0654  1.3855
  140OSM   H17T15348   6.953   5.962   4.844  0.2346 -0.0868  1.5161
  140OSM   C18S15349   7.109   6.030   4.721 -0.2554 -0.5103 -0.0092
  140OSM   H18S15350   7.210   6.074   4.733 -1.0477  1.0361  1.5321
  140OSM   H18T15351   7.040   6.109   4.683 -0.4594 -0.8540 -0.3658
  140OSM   H18U15352   7.097   5.939   4.658 -2.0591 -1.4572  1.5752
  140OSM    C1F15353   7.362   6.341   6.406  0.0512  0.4684  0.9996
  140OSM     OF15354   7.447   6.287   6.464  0.0557 -0.0433 -0.6208
  140OSM    C2F15355   7.391   6.465   6.337  0.0284  0.0455 -0.3650
  140OSM    H2F15356   7.400   6.543   6.415 -1.9047 -1.0449  1.0478
  140OSM    H2G15357   7.317   6.489   6.258 -0.0867 -2.9375 -1.3099
  140OSM    C3F15358   7.527   6.449   6.270  0.4979  1.0472  0.7378
  140OSM    H3F15359   7.609   6.428   6.342 -0.0034  1.5952  1.4859
  140OSM    H3G15360   7.549   6.543   6.214 -0.5690  0.8672 -0.0159
  140OSM    C4F15361   7.531   6.349   6.154 -0.4283 -0.1215  0.3063
  140OSM    H4F15362   7.480   6.253   6.177  1.8359 -1.4992 -0.1656
  140OSM    H4G15363   7.633   6.316   6.127 -0.5097  0.7664 -1.1988
  140OSM    C5F15364   7.461   6.404   6.033 -0.2208  0.0880 -0.6449
  140OSM    H5F15365   7.505   6.499   5.997  1.4867 -0.6131 -0.5097
  140OSM    H5G15366   7.352   6.417   6.050 -0.4015 -1.8448 -0.0838
  140OSM    C6F15367   7.474   6.308   5.902 -0.5527 -0.1490  0.5518
  140OSM    H6F15368   7.433   6.208   5.926  0.4467 -0.3911  1.3444
  140OSM    H6G15369   7.579   6.297   5.867 -1.5463 -0.8604 -2.4968
  140OSM    C7F15370   7.411   6.358   5.773  0.0862 -0.2979 -0.5167
  140OSM    H7F15371   7.443   6.463   5.754 -1.6375 -0.0488 -2.2420
  140OSM    H7G15372   7.301   6.351   5.777  0.0947 -0.0701  0.5223
  140OSM    C8F15373   7.447   6.279   5.651 -0.5863  0.8001  0.5680
  140OSM    H8F15374   7.374   6.290   5.568  0.8881 -2.6406 -1.4072
  140OSM    H8G15375   7.452   6.175   5.690  3.4125 -0.0757 -1.7452
  140OSM    C9F15376   7.575   6.320   5.585 -0.0053 -0.4894  0.3255
  140OSM    H9F15377   7.614   6.420   5.614  0.0982 -0.7081  0.9659
  140OSM   C10F15378   7.639   6.260   5.484 -0.2305 -0.5968  0.1592
  140OSM   H10F15379   7.725   6.311   5.440  0.8946 -1.9977  0.6413
  140OSM   C11F15380   7.591   6.135   5.424  0.2872  0.4318  0.1933
  140OSM   H11F15381   7.481   6.127   5.437  0.3544 -2.3537 -0.5058
  140OSM   H11G15382   7.635   6.047   5.475 -0.5270 -0.0644  0.0586
  140OSM   C12F15383   7.625   6.134   5.269 -0.0022  1.1526 -0.0356
  140OSM   H12F15384   7.731   6.139   5.237 -0.1755 -1.6640 -1.3033
  140OSM   H12G15385   7.580   6.222   5.218  2.2424  1.7189 -1.1618
  140OSM   C13F15386   7.557   6.018   5.188  0.5103  0.3437 -0.6726
  140OSM   H13F15387   7.533   6.046   5.083  2.3900  0.4383 -1.1188
  140OSM   H13G15388   7.460   6.011   5.241  1.7955  1.2145  1.9909
  140OSM   C14F15389   7.629   5.884   5.202  0.6073  0.3305 -0.1553
  140OSM   H14F15390   7.650   5.863   5.309 -0.6948  0.7216  0.1899
  140OSM   H14G15391   7.731   5.878   5.157  0.7040 -0.7696  0.1826
  140OSM   C15F15392   7.551   5.760   5.145  0.4152 -0.1728  0.1067
  140OSM   H15F15393   7.448   5.801   5.136  0.1820 -0.5414  0.9182
  140OSM   H15G15394   7.566   5.682   5.223 -2.8333 -1.9929 -0.8597
  140OSM   C16F15395   7.618   5.707   5.011 -0.2483 -0.6243 -0.8624
  140OSM   H16F15396   7.719   5.663   5.026 -0.3512 -0.3912  0.6460
  140OSM   H16G15397   7.632   5.789   4.937 -0.6919  1.1497  0.9219
  140OSM   C17F15398   7.518   5.621   4.933 -0.1214  0.2578 -0.0653
  140OSM   H17F15399   7.426   5.684   4.931 -0.9783 -0.9472  0.3105
  140OSM   H17G15400   7.487   5.529   4.988 -4.6254  1.6963  0.1957
  140OSM   C18F15401   7.567   5.594   4.794 -0.3067 -0.5152  0.0927
  140OSM   H18F15402   7.592   5.690   4.744 -0.6750  0.5062  1.7798
  140OSM   H18G15403   7.490   5.542   4.734 -0.1683 -1.7937  0.9983
  140OSM   H18H15404   7.665   5.543   4.806  2.9307  5.1080  1.5272
  141OSM      N15405   1.271   5.623   6.967  0.3477 -0.1320  0.2777
  141OSM    C1515406   1.221   5.517   7.066  0.0743  0.0912  0.4295
  141OSM   H15A15407   1.115   5.516   7.089  0.0187  3.3048  0.7676
  141OSM   H15B15408   1.271   5.538   7.160  0.1860  2.7689 -0.1408
  141OSM   H15C15409   1.254   5.419   7.034  2.3992  0.2609  2.0599
  141OSM    C1415410   1.235   5.766   7.017 -0.3796  0.4024 -0.4862
  141OSM   H14A15411   1.259   5.780   7.122 -1.3182  1.2359 -0.3657
  141OSM   H14B15412   1.134   5.788   6.988 -1.1896 -0.5039  1.4573
  141OSM   H14C15413   1.305   5.840   6.982 -2.6843  1.7271 -2.5452
  141OSM    C1315414   1.415   5.612   6.952 -0.0342 -0.6261  0.1791
  141OSM   H13A15415   1.448   5.692   6.888  2.0091 -2.4340 -1.1620
  141OSM   H13B15416   1.441   5.519   6.903  2.4749 -0.0056  0.2329
  141OSM   H13C15417   1.476   5.616   7.041  1.8979  0.9960 -1.1426
  141OSM    C1215418   1.208   5.600   6.831  0.4183 -0.1030 -0.0718
  141OSM   H12A15419   1.101   5.614   6.836  0.1958 -0.1569 -3.1403
  141OSM   H12B15420   1.225   5.497   6.803  0.0099 -0.6612  1.6075
  141OSM    C1115421   1.254   5.686   6.711 -0.6221 -0.3459 -0.0444
  141OSM   H11A15422   1.254   5.796   6.723 -1.6271  0.0062 -2.7639
  141OSM   H11B15423   1.178   5.676   6.631 -1.0128 -1.1810  0.4099
  141OSM      P15424   1.407   5.539   6.562 -0.4572  0.2745  0.5805
  141OSM    O1315425   1.547   5.500   6.542 -0.0434  0.7115 -0.1624
  141OSM    O1415426   1.298   5.436   6.586 -0.2823  0.0653  0.2443
  141OSM    O1115427   1.376   5.598   6.412  0.1789  0.2244 -0.1022
  141OSM    O1215428   1.387   5.649   6.672 -0.0570 -0.3154  0.1742
  141OSM    C1S15429   1.369   5.738   6.383  0.1696 -0.3086  0.1956
  141OSM    H1S15430   1.460   5.787   6.422  0.0139 -0.9985  1.4546
  141OSM    H1T15431   1.286   5.786   6.439 -0.0639  0.4186 -0.7473
  141OSM     NF15432   1.391   5.915   6.207 -0.2354 -0.2483  0.2338
  141OSM    HNF15433   1.313   5.974   6.189 -0.2674  0.3013  1.9622
  141OSM    C2S15434   1.367   5.770   6.231  0.6922  0.5438 -0.4983
  141OSM    H2S15435   1.447   5.707   6.187 -0.4514 -0.3035 -1.3977
  141OSM    C3S15436   1.239   5.708   6.163  0.4486  0.5364 -0.0244
  141OSM    H3S15437   1.153   5.750   6.219 -0.3116  1.8304 -2.0595
  141OSM     O315438   1.229   5.568   6.181  0.0674 -0.1577  0.6665
  141OSM    HO315439   1.274   5.564   6.265 -0.0777 -0.3151  0.7359
  141OSM    C4S15440   1.216   5.747   6.021  0.4167 -0.6575 -0.6522
  141OSM    H4S15441   1.281   5.686   5.956  0.7801 -0.7524 -0.2081
  141OSM    C5S15442   1.115   5.825   5.987 -0.5776 -0.6282 -0.5378
  141OSM    H5S15443   1.040   5.853   6.063 -0.4136 -4.2467  1.1167
  141OSM    C6S15444   1.073   5.848   5.840  0.2573 -0.3590  0.0607
  141OSM    H6S15445   1.115   5.939   5.790  3.2552 -1.8256 -0.3237
  141OSM    H6T15446   0.963   5.854   5.833  0.2191 -1.8302 -1.1647
  141OSM    C7S15447   1.106   5.733   5.741 -0.3315  0.4950  0.2076
  141OSM    H7S15448   1.051   5.645   5.779 -1.6283  1.2912  0.2250
  141OSM    H7T15449   1.211   5.700   5.725  0.5833  2.7440  1.1332
  141OSM    C8S15450   1.048   5.761   5.603  0.6096  0.1245  0.8600
  141OSM    H8S15451   1.099   5.838   5.541 -0.4899 -0.1229 -0.3908
  141OSM    H8T15452   0.942   5.791   5.593  1.2901  2.0928 -1.2832
  141OSM    C9S15453   1.076   5.641   5.515  0.4410  0.3073  0.2017
  141OSM    H9S15454   1.032   5.548   5.559  0.0743  0.9649  1.2597
  141OSM    H9T15455   1.185   5.622   5.520  0.6124  1.3605  0.7757
  141OSM   C10S15456   1.008   5.651   5.380  0.3045 -0.0140 -0.5726
  141OSM   H10S15457   1.026   5.738   5.314  0.9463  0.0939 -0.2528
  141OSM   H10T15458   0.899   5.648   5.402  0.1539  0.3507 -1.2500
  141OSM   C11S15459   1.051   5.526   5.299 -0.5758 -0.5130  0.5922
  141OSM   H11S15460   0.999   5.444   5.354 -0.0480  0.4719  2.6583
  141OSM   H11T15461   1.160   5.510   5.308 -0.5144 -0.2678  0.2839
  141OSM   C12S15462   0.999   5.533   5.151 -0.2691 -0.7129  0.2889
  141OSM   H12S15463   1.033   5.627   5.104 -1.5058 -1.3341 -2.0255
  141OSM   H12T15464   0.892   5.513   5.172  0.2397 -1.2792  2.5075
  141OSM   C13S15465   1.054   5.424   5.066  0.0761  0.3572  0.0709
  141OSM   H13S15466   0.987   5.411   4.978 -1.7421 -0.6098  1.5249
  141OSM   H13T15467   1.066   5.338   5.135 -0.8469 -0.1969 -0.4353
  141OSM   C14S15468   1.195   5.460   5.017  0.1865  0.3075  0.2254
  141OSM   H14S15469   1.251   5.364   5.019 -2.3329 -1.2171  1.1007
  141OSM   H14T15470   1.246   5.537   5.079 -1.1961  1.2587  0.2252
  141OSM   C15S15471   1.198   5.511   4.871 -0.2488 -0.4946  0.1565
  141OSM   H15S15472   1.105   5.570   4.857  0.0797  0.0760  0.3597
  141OSM   H15T15473   1.184   5.416   4.816 -0.6122 -1.1280  1.3047
  141OSM   C16S15474   1.324   5.587   4.826 -0.1310  0.1644 -0.2951
  141OSM   H16S15475   1.342   5.668   4.900 -0.4099  0.1317 -0.1886
  141OSM   H16T15476   1.303   5.642   4.732  1.9280 -0.9013 -1.4480
  141OSM   C17S15477   1.450   5.505   4.826 -0.1418  0.2179 -0.4175
  141OSM   H17S15478   1.443   5.422   4.752 -0.9110 -0.6080  0.5360
  141OSM   H17T15479   1.468   5.449   4.921  2.0825  0.9973 -0.3264
  141OSM   C18S15480   1.581   5.579   4.785  1.3470  0.4364 -0.0934
  141OSM   H18S15481   1.609   5.652   4.863  1.7516  0.7745 -0.5434
  141OSM   H18T15482   1.563   5.625   4.685  1.1233 -0.8201 -0.6573
  141OSM   H18U15483   1.665   5.508   4.767  0.1742 -0.8476 -0.7104
  141OSM    C1F15484   1.511   5.961   6.196 -0.2526 -0.1924 -0.0631
  141OSM     OF15485   1.606   5.882   6.213 -0.1095 -0.5043 -0.0763
  141OSM    C2F15486   1.538   6.102   6.154 -0.6744  0.1291 -0.0161
  141OSM    H2F15487   1.641   6.140   6.173 -1.1792  1.5877 -0.1180
  141OSM    H2G15488   1.473   6.180   6.200  1.0413  0.9454  1.1259
  141OSM    C3F15489   1.540   6.107   5.996  0.3966 -0.3369  0.1537
  141OSM    H3F15490   1.438   6.088   5.958  1.0637 -1.1242 -1.3251
  141OSM    H3G15491   1.610   6.028   5.961 -0.5698 -0.6096 -1.2126
  141OSM    C4F15492   1.597   6.237   5.952  0.1405 -0.1853  0.2116
  141OSM    H4F15493   1.703   6.241   5.984  0.0120 -2.6593  1.1596
  141OSM    H4G15494   1.545   6.324   5.998 -0.0270  0.3987 -1.0489
  141OSM    C5F15495   1.580   6.254   5.802  0.4543  0.0452  0.5177
  141OSM    H5F15496   1.594   6.362   5.782 -0.5215 -0.1243 -1.3006
  141OSM    H5G15497   1.475   6.220   5.790  0.9759 -1.0816 -1.3170
  141OSM    C6F15498   1.674   6.173   5.710  0.7340  0.0396  0.0437
  141OSM    H6F15499   1.701   6.077   5.759 -0.6973 -1.5809 -2.1359
  141OSM    H6G15500   1.771   6.224   5.697  0.4836  0.4096 -0.3847
  141OSM    C7F15501   1.620   6.157   5.567 -0.0096  0.0644 -0.1426
  141OSM    H7F15502   1.516   6.119   5.578 -0.2317  0.8412  0.5650
  141OSM    H7G15503   1.679   6.078   5.515 -2.8498 -1.7320 -0.8720
  141OSM    C8F15504   1.623   6.285   5.481 -0.7220 -0.4986  0.4263
  141OSM    H8F15505   1.729   6.313   5.462 -1.2893 -0.7268 -4.2568
  141OSM    H8G15506   1.572   6.369   5.532 -1.0788  1.7563 -3.3401
  141OSM    C9F15507   1.555   6.257   5.352 -0.4025 -0.4626 -0.0331
  141OSM    H9F15508   1.450   6.232   5.371 -0.2287 -1.1546  0.0340
  141OSM   C10F15509   1.598   6.269   5.222  0.1446 -0.1769  0.0580
  141OSM   H10F15510   1.519   6.248   5.149 -0.6746  0.6602  0.6815
  141OSM   C11F15511   1.734   6.310   5.178  0.6673 -0.2927  0.7105
  141OSM   H11F15512   1.775   6.259   5.088  1.4611  1.1004  0.2529
  141OSM   H11G15513   1.804   6.291   5.262  0.2362 -2.5524  0.6243
  141OSM   C12F15514   1.720   6.467   5.155 -0.6974 -0.0322  0.3887
  141OSM   H12F15515   1.695   6.517   5.251  0.7871  0.1457  0.6972
  141OSM   H12G15516   1.642   6.483   5.077  1.0293 -0.4205 -1.5030
  141OSM   C13F15517   1.848   6.532   5.099  0.1362 -0.6178 -0.5248
  141OSM   H13F15518   1.933   6.468   5.129 -0.9850 -1.4663  0.9984
  141OSM   H13G15519   1.878   6.626   5.150  4.2961 -2.5578  1.0334
  141OSM   C14F15520   1.853   6.570   4.951 -0.1360  0.0415  1.0800
  141OSM   H14F15521   1.949   6.622   4.929 -0.9239  0.4639 -1.7887
  141OSM   H14G15522   1.784   6.652   4.922  1.1481  1.2667  1.3827
  141OSM   C15F15523   1.841   6.456   4.847 -0.3926 -0.4041 -0.4411
  141OSM   H15F15524   1.738   6.413   4.847 -1.3506  1.7614 -0.6289
  141OSM   H15G15525   1.912   6.373   4.867 -1.1137 -1.1513 -0.8769
  141OSM   C16F15526   1.867   6.508   4.706  0.3524 -0.0735 -0.4564
  141OSM   H16F15527   1.967   6.556   4.703  0.4338 -0.1738  0.5139
  141OSM   H16G15528   1.789   6.587   4.702  0.6156  0.3302  1.4792
  141OSM   C17F15529   1.848   6.405   4.586 -0.4053 -0.7836  0.3734
  141OSM   H17F15530   1.827   6.308   4.635 -1.9151 -0.8254 -0.2976
  141OSM   H17G15531   1.941   6.393   4.526  0.6772 -1.7045  2.1730
  141OSM   C18F15532   1.734   6.432   4.492  0.0799  0.2460  0.1517
  141OSM   H18F15533   1.734   6.364   4.404  0.1454  0.3563  0.0653
  141OSM   H18G15534   1.751   6.537   4.459 -1.9663  0.7441  0.5399
  141OSM   H18H15535   1.635   6.420   4.541 -0.6198 -1.1582 -1.4825
  142OSM      N15536   3.111   5.241   6.423 -0.8708 -0.3798  0.9414
  142OSM    C1515537   3.198   5.146   6.500 -0.0870  0.7177 -0.1497
  142OSM   H15A15538   3.297   5.133   6.458 -0.7811 -1.4743 -1.2786
  142OSM   H15B15539   3.165   5.044   6.502  1.8434  0.0495 -0.5683
  142OSM   H15C15540   3.214   5.179   6.601 -0.4638  2.1753 -0.5381
  142OSM    C1415541   2.984   5.266   6.501 -0.1904 -0.8186  0.2084
  142OSM   H14A15542   3.002   5.313   6.596  0.9084 -0.7605 -0.0169
  142OSM   H14B15543   2.942   5.168   6.521  1.3079 -1.4337  0.4828
  142OSM   H14C15544   2.912   5.320   6.441 -0.4652  0.8396  1.9538
  142OSM    C1315545   3.187   5.370   6.400  0.3633  0.0665 -0.5667
  142OSM   H13A15546   3.116   5.449   6.380 -0.8494  0.0854  3.0781
  142OSM   H13B15547   3.262   5.354   6.324  0.4647  0.9614 -0.6690
  142OSM   H13C15548   3.232   5.407   6.492  1.7019  1.4396 -1.7187
  142OSM    C1215549   3.076   5.183   6.293 -0.0915 -0.4073  0.9007
  142OSM   H12A15550   3.015   5.094   6.307 -0.7877 -0.3270 -1.2900
  142OSM   H12B15551   3.167   5.147   6.249  0.2098  3.0202 -1.6672
  142OSM    C1115552   3.017   5.285   6.190 -0.3273  0.0605 -0.1869
  142OSM   H11A15553   3.002   5.226   6.097  1.2167 -2.0138  0.7894
  142OSM   H11B15554   3.092   5.364   6.166  1.4845 -1.0468  1.5894
  142OSM      P15555   2.857   5.487   6.217 -0.2372 -0.0092 -0.1138
  142OSM    O1315556   2.709   5.500   6.230 -0.1069 -0.2049 -0.5072
  142OSM    O1415557   2.944   5.556   6.313 -0.6776  0.2888 -0.0870
  142OSM    O1115558   2.900   5.526   6.067 -0.0644 -0.1928  0.3455
  142OSM    O1215559   2.895   5.341   6.226 -0.4024  0.6629 -0.2638
  142OSM    C1S15560   2.807   5.623   6.004 -0.3965  0.1012 -0.1968
  142OSM    H1S15561   2.803   5.711   6.072  0.5955  1.2758 -1.5924
  142OSM    H1T15562   2.709   5.571   5.995 -0.8798  0.2524  3.0200
  142OSM     NF15563   2.795   5.780   5.810  0.7465 -0.0929  0.0668
  142OSM    HNF15564   2.736   5.773   5.730 -1.2090 -0.2666  1.4516
  142OSM    C2S15565   2.869   5.664   5.868 -0.2391 -0.1430 -0.0110
  142OSM    H2S15566   2.971   5.702   5.890 -0.2457 -0.7006  0.9998
  142OSM    C3S15567   2.886   5.546   5.775  0.1990  0.7721 -0.2176
  142OSM    H3S15568   2.785   5.505   5.753  0.1583 -0.3128  1.7759
  142OSM     O315569   2.959   5.444   5.836  0.2519  0.6291 -0.0134
  142OSM    HO315570   2.949   5.470   5.928 -1.5767  1.4255 -0.4006
  142OSM    C4S15571   2.956   5.589   5.645 -0.2573  0.0670  0.1615
  142OSM    H4S15572   3.065   5.592   5.661 -0.2165  1.6814 -0.2881
  142OSM    C5S15573   2.904   5.630   5.530  0.0080  0.6788 -0.7066
  142OSM    H5S15574   2.794   5.625   5.517 -0.0385  1.5936 -0.7038
  142OSM    C6S15575   2.977   5.681   5.414 -0.0385 -0.2480  0.4663
  142OSM    H6S15576   3.086   5.704   5.411 -0.2147  0.6244 -1.9783
  142OSM    H6T15577   2.936   5.777   5.375 -1.0881 -1.5649 -1.8946
  142OSM    C7S15578   2.957   5.584   5.293  0.2426 -0.4318  0.0996
  142OSM    H7S15579   2.850   5.590   5.263 -0.4588 -1.2061  2.2653
  142OSM    H7T15580   2.977   5.480   5.328 -3.4279 -1.6971 -1.0768
  142OSM    C8S15581   3.042   5.618   5.171 -0.2584  0.0508 -0.0539
  142OSM    H8S15582   3.151   5.631   5.188 -0.2653 -0.6066  0.5028
  142OSM    H8T15583   2.989   5.705   5.126 -1.9508 -0.5435  0.7204
  142OSM    C9S15584   3.024   5.527   5.048 -0.5098  0.0764  0.0968
  142OSM    H9S15585   2.919   5.535   5.011 -1.1608 -1.5366  1.4379
  142OSM    H9T15586   3.063   5.428   5.079  1.2828  0.3259 -1.1902
  142OSM   C10S15587   3.115   5.564   4.933  0.3036 -0.3786  0.4479
  142OSM   H10S15588   3.217   5.585   4.969 -0.5948  0.7234  2.5149
  142OSM   H10T15589   3.079   5.658   4.885  1.5962 -0.1100 -0.0201
  142OSM   C11S15590   3.097   5.472   4.809 -0.8862  0.0523 -1.1788
  142OSM   H11S15591   2.989   5.450   4.790 -0.8407 -0.9020 -0.4205
  142OSM   H11T15592   3.163   5.386   4.836 -0.2839  0.6953 -0.5772
  142OSM   C12S15593   3.153   5.530   4.677  0.0081  0.6448  0.5292
  142OSM   H12S15594   3.250   5.571   4.710  1.0710  0.4736 -2.1688
  142OSM   H12T15595   3.102   5.618   4.633 -2.0523 -1.1407 -0.9421
  142OSM   C13S15596   3.170   5.427   4.562  0.2902 -0.8936  0.1084
  142OSM   H13S15597   3.070   5.429   4.514 -0.4724  2.5643  1.5362
  142OSM   H13T15598   3.195   5.325   4.598 -0.0236 -0.2596  2.2563
  142OSM   C14S15599   3.265   5.483   4.457  0.7921  0.5637  0.4774
  142OSM   H14S15600   3.367   5.510   4.492  0.4682 -1.5134  3.3809
  142OSM   H14T15601   3.213   5.576   4.427  1.2757  1.3226  1.8729
  142OSM   C15S15602   3.264   5.394   4.331 -0.2541  0.7066 -0.2263
  142OSM   H15S15603   3.176   5.426   4.272 -0.0067  1.4897 -0.1818
  142OSM   H15T15604   3.256   5.288   4.363  1.5030  0.3417 -0.8636
  142OSM   C16S15605   3.382   5.420   4.239  0.0561 -0.1194  0.4343
  142OSM   H16S15606   3.475   5.398   4.296  0.9835  0.0889 -0.9404
  142OSM   H16T15607   3.379   5.527   4.210  1.6548 -0.0767  0.3259
  142OSM   C17S15608   3.382   5.336   4.108  0.4492 -0.7149 -0.2926
  142OSM   H17S15609   3.274   5.337   4.081  0.3805 -0.3855 -0.0171
  142OSM   H17T15610   3.387   5.230   4.140  0.3838 -1.0656 -1.3760
  142OSM   C18S15611   3.485   5.379   4.006  0.3373 -0.1795  0.0137
  142OSM   H18S15612   3.587   5.350   4.041  0.8066  1.5263  0.1304
  142OSM   H18T15613   3.489   5.488   3.989  1.1962 -0.3361 -0.8370
  142OSM   H18U15614   3.456   5.325   3.914 -1.6554 -0.4992  0.7681
  142OSM    C1F15615   2.800   5.896   5.870 -0.7450 -0.1673 -0.5154
  142OSM     OF15616   2.892   5.915   5.957  0.4790  0.2092 -0.5357
  142OSM    C2F15617   2.709   6.012   5.843  0.1258 -0.2007 -0.1012
  142OSM    H2F15618   2.673   6.071   5.931 -0.2908  2.5621 -1.9769
  142OSM    H2G15619   2.612   5.978   5.801  0.5538 -0.3482 -0.9884
  142OSM    C3F15620   2.757   6.106   5.739 -0.3145  0.3073  0.1146
  142OSM    H3F15621   2.865   6.116   5.762  0.6352 -2.3098 -2.5083
  142OSM    H3G15622   2.709   6.205   5.755 -0.7701 -0.0567  1.0819
  142OSM    C4F15623   2.744   6.065   5.590  0.0209 -0.5205 -0.0409
  142OSM    H4F15624   2.634   6.053   5.576 -0.1923  0.9688  0.1441
  142OSM    H4G15625   2.784   5.964   5.568  3.1010  0.3550  1.1255
  142OSM    C5F15626   2.791   6.171   5.485  0.3885  0.0792 -0.2358
  142OSM    H5F15627   2.899   6.194   5.499  0.4301 -1.2753  2.4974
  142OSM    H5G15628   2.737   6.265   5.506  1.9287  1.9634 -3.9245
  142OSM    C6F15629   2.761   6.123   5.347  0.1034  0.6210 -0.2489
  142OSM    H6F15630   2.651   6.125   5.330 -0.1526 -1.9921  0.6001
  142OSM    H6G15631   2.804   6.021   5.342  0.2287  0.7261 -1.9489
  142OSM    C7F15632   2.831   6.198   5.233  0.1825 -0.0201  0.0855
  142OSM    H7F15633   2.940   6.214   5.244  0.2963 -1.2475  0.9119
  142OSM    H7G15634   2.793   6.301   5.217 -3.3790 -1.4321 -1.9973
  142OSM    C8F15635   2.825   6.126   5.099  0.0671  0.7460 -0.3664
  142OSM    H8F15636   2.720   6.112   5.067 -0.7205  1.2319  1.8428
  142OSM    H8G15637   2.867   6.028   5.131 -0.8941 -0.1864 -1.8528
  142OSM    C9F15638   2.914   6.194   4.995  0.1189  0.8121  0.2301
  142OSM    H9F15639   2.901   6.303   5.000  0.5965  0.8333  1.7556
  142OSM   C10F15640   3.006   6.129   4.923 -0.1108 -0.6331 -0.2376
  142OSM   H10F15641   3.062   6.185   4.847 -1.1048  1.3632  0.4119
  142OSM   C11F15642   3.016   5.977   4.908  0.3786 -0.6114 -0.2937
  142OSM   H11F15643   2.927   5.930   4.954 -1.4050  2.9015  0.2221
  142OSM   H11G15644   3.101   5.943   4.972  0.5440 -0.2742 -0.3312
  142OSM   C12F15645   3.036   5.938   4.758 -0.0677  0.1475 -0.6674
  142OSM   H12F15646   3.064   5.831   4.751 -1.5816 -0.3268  0.1755
  142OSM   H12G15647   3.111   6.004   4.709  0.1374  1.3540  1.1904
  142OSM   C13F15648   2.919   5.967   4.669  0.5360  0.2478 -0.1159
  142OSM   H13F15649   2.907   6.074   4.643  0.8038  0.2424 -0.2738
  142OSM   H13G15650   2.832   5.933   4.729  2.2449 -3.6637  0.4441
  142OSM   C14F15651   2.918   5.869   4.551 -0.2416 -0.0513  0.5957
  142OSM   H14F15652   2.814   5.887   4.516 -0.2028 -2.1030 -0.6820
  142OSM   H14G15653   2.928   5.763   4.581 -0.6307  0.2456  1.8378
  142OSM   C15F15654   3.030   5.899   4.446  0.4335 -1.3593 -0.5913
  142OSM   H15F15655   3.130   5.865   4.482  0.1998 -0.8463  0.5628
  142OSM   H15G15656   3.032   6.006   4.416  3.0121 -1.7650 -2.2420
  142OSM   C16F15657   3.001   5.825   4.317  0.5130  0.5911  0.4085
  142OSM   H16F15658   2.893   5.836   4.291  0.1144 -1.9620  0.7528
  142OSM   H16G15659   3.015   5.718   4.341 -1.1241  0.2865  0.1407
  142OSM   C17F15660   3.083   5.857   4.193  0.3876  0.2010 -0.4480
  142OSM   H17F15661   3.030   5.943   4.147  1.2370 -0.0364 -1.9292
  142OSM   H17G15662   3.073   5.776   4.118  0.6649 -0.3115  0.0660
  142OSM   C18F15663   3.230   5.872   4.221 -0.5600  0.3326 -0.1611
  142OSM   H18F15664   3.266   5.792   4.289 -1.0425  1.3891  1.3795
  142OSM   H18G15665   3.254   5.970   4.269 -2.5433  1.5275 -1.4759
  142OSM   H18H15666   3.289   5.859   4.127  1.3390  0.3364  0.9717
  143OSM      N15667   2.610   4.310   6.934  0.0061 -0.1565 -0.1413
  143OSM    C1515668   2.498   4.213   6.966  0.1063  0.1357  0.2647
  143OSM   H15A15669   2.534   4.111   6.974  0.0041  0.1279  0.6401
  143OSM   H15B15670   2.415   4.217   6.897 -1.7920  0.4054  2.4654
  143OSM   H15C15671   2.449   4.242   7.057  1.5434 -0.6367  1.3323
  143OSM    C1415672   2.559   4.453   6.951 -0.0124 -0.1283 -0.5163
  143OSM   H14A15673   2.477   4.460   6.881  0.9229 -1.1588 -1.7708
  143OSM   H14B15674   2.641   4.518   6.924 -0.0540 -0.1263 -0.6414
  143OSM   H14C15675   2.540   4.471   7.055  1.3641  2.0055 -0.5694
  143OSM    C1315676   2.719   4.281   7.034 -0.3206  0.1096 -0.3093
  143OSM   H13A15677   2.749   4.178   7.024 -0.4005 -0.0248  0.6643
  143OSM   H13B15678   2.680   4.289   7.135  0.9297  0.4955  0.1706
  143OSM   H13C15679   2.809   4.341   7.036  0.7015 -1.2656 -2.0845
  143OSM    C1215680   2.663   4.287   6.793  0.1400  0.5057 -0.6009
  143OSM   H12A15681   2.713   4.191   6.792 -0.4830  0.0907  1.7216
  143OSM   H12B15682   2.742   4.354   6.765  0.9839  0.1831  0.9021
  143OSM    C1115683   2.558   4.280   6.679 -0.4044  0.2872  0.5331
  143OSM   H11A15684   2.614   4.287   6.583 -0.4297 -0.3811  0.4620
  143OSM   H11B15685   2.491   4.368   6.682 -0.6070  0.1518  3.4516
  143OSM      P15686   2.347   4.130   6.618  0.3035 -0.8981 -0.0006
  143OSM    O1315687   2.328   3.985   6.586  0.2423 -0.5301  0.1243
  143OSM    O1415688   2.255   4.190   6.717  0.7647  0.0356  0.1583
  143OSM    O1115689   2.344   4.219   6.492  0.3059  0.6022 -0.9247
  143OSM    O1215690   2.486   4.158   6.674  0.5216  0.5250  0.2873
  143OSM    C1S15691   2.424   4.189   6.379 -0.0566  0.4441  0.1673
  143OSM    H1S15692   2.480   4.093   6.389 -1.4760 -0.5852 -1.2165
  143OSM    H1T15693   2.507   4.262   6.375  1.2392 -0.8790  1.4556
  143OSM     NF15694   2.444   4.145   6.140  0.2516  0.0117 -0.0038
  143OSM    HNF15695   2.512   4.218   6.136 -0.6585  0.9086  0.3758
  143OSM    C2S15696   2.348   4.182   6.244  1.0965  0.5754 -0.2314
  143OSM    H2S15697   2.268   4.105   6.239  2.1214 -0.5405  0.1970
  143OSM    C3S15698   2.272   4.317   6.223 -0.2195  0.4715  0.5584
  143OSM    H3S15699   2.349   4.397   6.216  1.6620 -1.3898 -1.5238
  143OSM     O315700   2.187   4.354   6.332 -0.1500 -0.0169  0.2108
  143OSM    HO315701   2.219   4.306   6.409 -0.0747  1.3979  1.0933
  143OSM    C4S15702   2.197   4.308   6.094  0.0782 -0.1839  0.3393
  143OSM    H4S15703   2.264   4.334   6.011  3.7762  0.0263  3.1125
  143OSM    C5S15704   2.068   4.274   6.070  0.4239 -0.3446  0.1595
  143OSM    H5S15705   2.012   4.240   6.158  0.6362  0.0761  0.4654
  143OSM    C6S15706   1.991   4.279   5.938  0.4800  0.9039 -0.3380
  143OSM    H6S15707   1.949   4.382   5.936  0.5136  0.9324  0.1566
  143OSM    H6T15708   1.912   4.200   5.942  0.3892  1.0070  0.0105
  143OSM    C7S15709   2.078   4.260   5.812 -0.8556  0.7082  0.2644
  143OSM    H7S15710   2.133   4.163   5.813 -0.0034  1.1273 -1.6530
  143OSM    H7T15711   2.157   4.338   5.811 -1.3410  1.2422  1.3386
  143OSM    C8S15712   1.998   4.266   5.681  0.2851  0.1436  0.5388
  143OSM    H8S15713   1.936   4.359   5.674 -2.2880 -1.5659 -4.6177
  143OSM    H8T15714   1.937   4.178   5.653  0.3594  0.3827 -0.4108
  143OSM    C9S15715   2.095   4.286   5.565  0.2751 -0.2254 -0.7149
  143OSM    H9S15716   2.174   4.208   5.572 -2.3867 -3.0337  1.5160
  143OSM    H9T15717   2.153   4.380   5.576  0.5080 -0.5733  1.5471
  143OSM   C10S15718   2.031   4.272   5.428  0.3573 -0.1678  0.0770
  143OSM   H10S15719   1.949   4.347   5.425  2.0037  1.6775 -1.4056
  143OSM   H10T15720   1.973   4.178   5.417  0.1922  0.0792 -1.3549
  143OSM   C11S15721   2.124   4.310   5.305 -0.1376  0.7191 -0.4818
  143OSM   H11S15722   2.196   4.226   5.308 -2.2166 -1.1532 -0.4180
  143OSM   H11T15723   2.162   4.410   5.335  0.4443  0.0794  0.9938
  143OSM   C12S15724   2.061   4.315   5.175  0.0103 -0.5407 -0.2230
  143OSM   H12S15725   1.993   4.403   5.186 -0.9836 -1.3949  0.6821
  143OSM   H12T15726   1.989   4.232   5.161  0.0118 -0.7652  0.9922
  143OSM   C13S15727   2.152   4.340   5.058  0.0908  0.2609  0.3582
  143OSM   H13S15728   2.231   4.263   5.051 -0.5225 -0.4026  0.5573
  143OSM   H13T15729   2.202   4.437   5.082  0.8483 -1.1636  5.9100
  143OSM   C14S15730   2.072   4.355   4.926 -0.4457  0.0683 -0.5896
  143OSM   H14S15731   2.004   4.441   4.942 -3.7879 -2.4414 -0.3937
  143OSM   H14T15732   2.023   4.256   4.917  0.7813 -0.6744  0.5958
  143OSM   C15S15733   2.156   4.376   4.801 -0.4494  0.0640  0.0976
  143OSM   H15S15734   2.213   4.470   4.817  0.2784 -0.0272 -1.7205
  143OSM   H15T15735   2.083   4.398   4.720 -2.1364 -1.7375  1.0640
  143OSM   C16S15736   2.239   4.256   4.758 -0.4245  0.3109  0.3341
  143OSM   H16S15737   2.176   4.165   4.766  1.8726 -1.6009 -1.6433
  143OSM   H16T15738   2.331   4.254   4.821  1.3109  0.3175 -2.0442
  143OSM   C17S15739   2.278   4.259   4.614  0.1683 -0.6600  0.2170
  143OSM   H17S15740   2.183   4.279   4.560 -0.7891 -0.7267  1.8121
  143OSM   H17T15741   2.311   4.157   4.587  0.9089 -0.4679  0.3765
  143OSM   C18S15742   2.391   4.362   4.586 -0.0125 -0.8169 -0.5307
  143OSM   H18S15743   2.400   4.437   4.668  2.1614  0.3141 -1.6810
  143OSM   H18T15744   2.375   4.427   4.497  2.6263  1.6824  0.6499
  143OSM   H18U15745   2.492   4.316   4.578 -0.5696 -2.0535 -0.7319
  143OSM    C1F15746   2.478   4.022   6.114 -0.6676  0.5468  0.0116
  143OSM     OF15747   2.409   3.929   6.157  0.1313 -0.2931 -0.3145
  143OSM    C2F15748   2.602   3.992   6.047 -0.1765  0.3250  0.2041
  143OSM    H2F15749   2.644   3.896   6.084 -2.5574 -0.7196  0.3428
  143OSM    H2G15750   2.673   4.076   6.064 -0.2201  0.3392  0.3152
  143OSM    C3F15751   2.588   3.980   5.887  0.0635 -0.2502  0.0410
  143OSM    H3F15752   2.512   3.900   5.875  0.5617 -0.7216  0.0238
  143OSM    H3G15753   2.680   3.964   5.828 -0.9906 -2.1718 -1.1992
  143OSM    C4F15754   2.530   4.106   5.816  0.3822  0.0567  0.1142
  143OSM    H4F15755   2.597   4.195   5.815 -0.4807  0.7915 -2.5146
  143OSM    H4G15756   2.431   4.132   5.860 -1.6720 -0.9118 -3.4899
  143OSM    C5F15757   2.517   4.083   5.661  0.0818 -0.1500 -0.6854
  143OSM    H5F15758   2.609   4.036   5.620  1.4749  2.2912 -0.5780
  143OSM    H5G15759   2.499   4.181   5.610  1.4126 -0.8936 -2.7121
  143OSM    C6F15760   2.397   3.988   5.609  0.6114  0.6576 -0.1686
  143OSM    H6F15761   2.313   4.039   5.662  2.1345  2.8081  0.2949
  143OSM    H6G15762   2.395   3.882   5.644  0.8415 -0.5843 -3.5324
  143OSM    C7F15763   2.380   3.988   5.460 -0.0176  0.5605  0.4974
  143OSM    H7F15764   2.362   4.094   5.435 -4.2430 -0.3545 -1.1706
  143OSM    H7G15765   2.294   3.929   5.422  1.0773 -0.7408 -0.0729
  143OSM    C8F15766   2.512   3.933   5.401 -0.0673  0.8738  0.1931
  143OSM    H8F15767   2.554   3.847   5.456  1.8638  2.0270  0.5999
  143OSM    H8G15768   2.591   4.009   5.419  1.7601 -1.0263  0.4816
  143OSM    C9F15769   2.496   3.897   5.254 -0.5625  0.5588  0.6093
  143OSM    H9F15770   2.455   3.797   5.235  2.1808 -0.5390 -0.0030
  143OSM   C10F15771   2.545   3.961   5.150  0.1438  1.2465 -0.7961
  143OSM   H10F15772   2.523   3.920   5.050 -1.0862 -1.1481  0.3976
  143OSM   C11F15773   2.619   4.090   5.151 -0.4765  0.1347 -0.2654
  143OSM   H11F15774   2.604   4.162   5.234  1.2996  0.6900 -0.3991
  143OSM   H11G15775   2.580   4.149   5.066  0.9723  3.0936  1.0020
  143OSM   C12F15776   2.774   4.081   5.140 -0.4162  0.3028  0.0299
  143OSM   H12F15777   2.803   4.186   5.117  1.3087 -0.4545 -1.5881
  143OSM   H12G15778   2.807   4.023   5.050  0.9097  0.6487  0.2628
  143OSM   C13F15779   2.846   4.048   5.267 -0.2060  0.0500 -0.3307
  143OSM   H13F15780   2.952   4.041   5.235 -0.6076 -0.9366 -1.5162
  143OSM   H13G15781   2.807   3.951   5.306  0.7789  0.3185  1.4539
  143OSM   C14F15782   2.823   4.157   5.376 -0.2357  0.1714 -0.7308
  143OSM   H14F15783   2.718   4.158   5.413  0.6664 -1.1644  2.1421
  143OSM   H14G15784   2.855   4.250   5.325  1.6512  0.6436  1.1416
  143OSM   C15F15785   2.904   4.130   5.502 -0.3052 -0.0051 -0.1875
  143OSM   H15F15786   3.012   4.121   5.476  0.3262  1.9890  1.4442
  143OSM   H15G15787   2.882   4.036   5.557  0.0625  0.4738  0.8112
  143OSM   C16F15788   2.884   4.240   5.613 -0.1493  0.4890  0.2615
  143OSM   H16F15789   2.776   4.261   5.629 -0.4491  0.1662 -1.2028
  143OSM   H16G15790   2.935   4.331   5.576  0.9526 -0.1295  0.2380
  143OSM   C17F15791   2.943   4.207   5.750 -0.3239  0.2832  0.6866
  143OSM   H17F15792   2.891   4.118   5.791 -0.3905  1.5076  3.4756
  143OSM   H17G15793   2.914   4.283   5.825 -2.2541 -2.1113  2.5391
  143OSM   C18F15794   3.096   4.191   5.744  0.2779 -0.5768  0.2932
  143OSM   H18F15795   3.117   4.083   5.726 -0.7964 -0.5597 -1.2248
  143OSM   H18G15796   3.139   4.209   5.845  1.2216 -0.0104 -0.1850
  143OSM   H18H15797   3.146   4.264   5.675  0.3448 -0.4509  0.4735
  144OSM      N15798   1.679   3.005   7.029  0.1610  0.5706 -0.6977
  144OSM    C1515799   1.699   2.858   7.063 -0.0869 -0.1061 -0.5859
  144OSM   H15A15800   1.625   2.825   7.135  1.8450 -0.9668  1.1135
  144OSM   H15B15801   1.796   2.827   7.099 -0.6139 -0.3282  0.7027
  144OSM   H15C15802   1.686   2.801   6.972  0.1181  2.1300 -2.1019
  144OSM    C1415803   1.544   3.017   6.959  0.1633 -0.4049 -0.3781
  144OSM   H14A15804   1.466   2.974   7.019  0.5830 -1.2467 -0.4209
  144OSM   H14B15805   1.549   2.958   6.869 -0.5476 -0.5386 -0.3310
  144OSM   H14C15806   1.532   3.122   6.935  1.6530 -0.2121 -0.3903
  144OSM    C1315807   1.672   3.079   7.159  0.0517 -0.5717 -0.0267
  144OSM   H13A15808   1.601   3.031   7.224  2.0391 -0.5646  2.2714
  144OSM   H13B15809   1.650   3.182   7.135  0.4487 -0.1186  1.4569
  144OSM   H13C15810   1.769   3.076   7.206  0.5648  1.4933 -0.8635
  144OSM    C1215811   1.792   3.053   6.948  0.0294  0.1527  0.5372
  144OSM   H12A15812   1.890   3.031   6.987  0.9625 -2.0009 -2.6517
  144OSM   H12B15813   1.778   3.160   6.954 -1.6632  0.0802 -1.1275
  144OSM    C1115814   1.792   3.022   6.796  0.0928  0.1840  0.0211
  144OSM   H11A15815   1.888   3.071   6.769 -0.2354 -0.1958 -2.0071
  144OSM   H11B15816   1.709   3.078   6.747 -0.4003 -1.2020 -0.8140
  144OSM      P15817   1.908   2.788   6.775 -0.5376 -0.3010 -0.5979
  144OSM    O1315818   1.981   2.807   6.907  0.1081 -0.3283  0.6421
  144OSM    O1415819   1.864   2.649   6.742 -0.1112  0.4075 -0.1192
  144OSM    O1115820   1.998   2.829   6.655 -0.1675  0.2554  0.5929
  144OSM    O1215821   1.787   2.885   6.767  0.0941  0.5395  0.3899
  144OSM    C1S15822   1.945   2.797   6.523  0.0131  0.2435  0.0483
  144OSM    H1S15823   1.839   2.829   6.519  0.1842  1.5496  3.3261
  144OSM    H1T15824   1.949   2.686   6.511  1.8185  0.1877  0.8837
  144OSM     NF15825   1.930   2.836   6.280 -0.0361  0.4378  0.0139
  144OSM    HNF15826   1.979   2.774   6.218 -0.6700  0.9257 -0.9976
  144OSM    C2S15827   2.008   2.870   6.405 -0.0600  0.1565  0.0881
  144OSM    H2S15828   2.004   2.977   6.435 -0.8960 -0.0632  0.7904
  144OSM    C3S15829   2.161   2.836   6.400 -0.1835  0.1542 -0.2076
  144OSM    H3S15830   2.167   2.727   6.377 -3.0790 -0.0242 -0.4492
  144OSM     O315831   2.234   2.859   6.523 -0.0355 -0.1279 -0.4150
  144OSM    HO315832   2.163   2.869   6.586 -0.5268 -1.1941 -0.7721
  144OSM    C4S15833   2.227   2.910   6.289 -0.2433  0.0610  0.2317
  144OSM    H4S15834   2.249   2.855   6.197 -0.8409 -1.5408  1.0075
  144OSM    C5S15835   2.266   3.041   6.298  1.0327  0.7448 -0.0390
  144OSM    H5S15836   2.216   3.096   6.379 -0.6505 -0.7173 -0.0183
  144OSM    C6S15837   2.336   3.126   6.199 -0.0954  0.0580 -0.0871
  144OSM    H6S15838   2.423   3.176   6.247 -1.9868  0.9223  2.7160
  144OSM    H6T15839   2.267   3.203   6.158 -0.7645 -0.5131 -0.0486
  144OSM    C7S15840   2.388   3.058   6.072  1.1788  0.0480  0.1824
  144OSM    H7S15841   2.301   3.014   6.021  1.4800 -0.5486  0.1807
  144OSM    H7T15842   2.460   2.975   6.086  1.3602  0.2543  0.5009
  144OSM    C8S15843   2.439   3.160   5.968 -0.2796 -1.1821  0.8431
  144OSM    H8S15844   2.529   3.205   6.015  0.8475 -4.1095  1.7182
  144OSM    H8T15845   2.352   3.226   5.950  0.4209 -0.1397  1.1936
  144OSM    C9S15846   2.478   3.094   5.829  0.6608  0.5220  0.4696
  144OSM    H9S15847   2.391   3.037   5.790  0.2491  1.6648 -0.3386
  144OSM    H9T15848   2.559   3.019   5.841  0.9064  0.5225 -1.0108
  144OSM   C10S15849   2.517   3.199   5.723 -0.0739  0.3205 -0.1157
  144OSM   H10S15850   2.618   3.234   5.752 -0.2435  0.7208 -0.0002
  144OSM   H10T15851   2.436   3.276   5.718 -1.5869 -1.1424  0.7887
  144OSM   C11S15852   2.519   3.133   5.579 -0.1132  0.2005 -0.3824
  144OSM   H11S15853   2.423   3.081   5.558  0.1992  0.5034 -2.8422
  144OSM   H11T15854   2.597   3.055   5.589  0.8027  0.9304 -1.5708
  144OSM   C12S15855   2.574   3.215   5.466  0.2980  0.8290 -0.5359
  144OSM   H12S15856   2.671   3.266   5.484 -0.1670  0.9066  2.2518
  144OSM   H12T15857   2.502   3.296   5.439 -0.7982 -0.2244 -0.8503
  144OSM   C13S15858   2.576   3.124   5.341 -0.7150  0.1224  0.0956
  144OSM   H13S15859   2.585   3.017   5.369 -1.9225  0.0505  0.2734
  144OSM   H13T15860   2.669   3.151   5.288 -1.5716  0.4808 -1.2724
  144OSM   C14S15861   2.471   3.156   5.235  0.7467 -0.7946 -0.8359
  144OSM   H14S15862   2.487   3.258   5.194  0.8476 -0.8170 -0.8521
  144OSM   H14T15863   2.375   3.157   5.290  1.6729 -1.0131  0.8336
  144OSM   C15S15864   2.460   3.054   5.125 -0.0645 -0.6739 -0.2244
  144OSM   H15S15865   2.432   2.958   5.173  0.5675 -1.4514 -1.3668
  144OSM   H15T15866   2.552   3.046   5.063 -0.8086 -1.0504 -1.3169
  144OSM   C16S15867   2.344   3.103   5.031 -0.5138 -0.0201 -0.0349
  144OSM   H16S15868   2.372   3.200   4.985  1.3283  0.9747  2.9251
  144OSM   H16T15869   2.256   3.122   5.095 -0.2204 -2.2652  1.1468
  144OSM   C17S15870   2.300   3.003   4.924  0.2305  0.2824 -0.4179
  144OSM   H17S15871   2.193   3.028   4.909  0.1586  0.1935 -0.0752
  144OSM   H17T15872   2.297   2.901   4.966 -1.0015 -0.3847 -2.0244
  144OSM   C18S15873   2.375   2.994   4.789  0.5551  0.0141  0.1821
  144OSM   H18S15874   2.365   3.088   4.732  2.0185 -0.8432 -1.5946
  144OSM   H18T15875   2.322   2.919   4.727 -0.8166 -0.2641  1.6185
  144OSM   H18U15876   2.481   2.962   4.802  0.7265 -0.1382 -1.3816
  144OSM    C1F15877   1.808   2.891   6.246  0.1623 -0.3361 -0.6329
  144OSM     OF15878   1.761   2.982   6.317  0.5030  0.1181 -0.1247
  144OSM    C2F15879   1.741   2.839   6.123 -0.4827  0.4887  0.1856
  144OSM    H2F15880   1.697   2.738   6.140 -1.0356  1.0507  2.2866
  144OSM    H2G15881   1.820   2.834   6.044 -1.5888 -0.8124 -0.8967
  144OSM    C3F15882   1.639   2.944   6.074  0.5095 -0.2920  0.5575
  144OSM    H3F15883   1.690   3.040   6.052 -0.6414  0.0508 -0.7897
  144OSM    H3G15884   1.575   2.965   6.163  2.5395  1.9858  1.6035
  144OSM    C4F15885   1.553   2.913   5.950 -0.5028 -0.5962 -0.1276
  144OSM    H4F15886   1.478   2.996   5.953  1.3225  1.1351  2.9022
  144OSM    H4G15887   1.509   2.811   5.958 -1.0552 -0.5233 -1.7800
  144OSM    C5F15888   1.632   2.926   5.813  0.3297  0.1562 -0.4616
  144OSM    H5F15889   1.709   2.847   5.807 -1.7450 -1.8883 -2.6536
  144OSM    H5G15890   1.690   3.020   5.804  1.7202 -0.8124 -2.4358
  144OSM    C6F15891   1.533   2.926   5.695  0.0666  0.3644  0.9821
  144OSM    H6F15892   1.481   3.025   5.700  0.2911  0.4725  1.2005
  144OSM    H6G15893   1.470   2.835   5.702  0.3814 -0.0753 -1.2093
  144OSM    C7F15894   1.598   2.931   5.557  0.3196 -0.3167 -0.6061
  144OSM    H7F15895   1.663   2.842   5.550 -1.2897 -1.4480 -1.7782
  144OSM    H7G15896   1.652   3.027   5.545  1.8310 -0.8012  1.6906
  144OSM    C8F15897   1.484   2.933   5.441 -0.0452 -0.6592  0.0378
  144OSM    H8F15898   1.547   2.947   5.351 -1.1256  1.9207 -0.4093
  144OSM    H8G15899   1.439   3.032   5.464  1.9655  0.8137 -1.9409
  144OSM    C9F15900   1.381   2.820   5.426 -0.3934 -0.7409  0.5709
  144OSM    H9F15901   1.433   2.726   5.404 -0.6709 -0.4945 -1.3688
  144OSM   C10F15902   1.250   2.839   5.448 -0.3670 -0.0728  0.5166
  144OSM   H10F15903   1.189   2.747   5.445 -0.4000 -0.0603  0.7833
  144OSM   C11F15904   1.178   2.967   5.476  0.0031 -0.3140 -0.7524
  144OSM   H11F15905   1.233   3.026   5.553 -0.8770 -0.4737  0.0269
  144OSM   H11G15906   1.083   2.942   5.528  2.3973 -2.3138  3.1372
  144OSM   C12F15907   1.151   3.070   5.361 -0.0323 -0.8577  0.0256
  144OSM   H12F15908   1.253   3.105   5.336 -0.4475  0.8414  0.5690
  144OSM   H12G15909   1.102   3.165   5.390  0.3921 -0.9493  1.1165
  144OSM   C13F15910   1.086   3.022   5.234  0.2537  0.7498 -0.0520
  144OSM   H13F15911   0.982   2.981   5.234 -0.1885  1.5310 -3.7039
  144OSM   H13G15912   1.139   2.929   5.203 -1.6948 -0.8290  1.0600
  144OSM   C14F15913   1.088   3.124   5.120  0.1094  0.3019  1.2130
  144OSM   H14F15914   1.195   3.136   5.092  0.2080 -1.4810  0.7517
  144OSM   H14G15915   1.043   3.221   5.152  0.2285  0.3574  1.2127
  144OSM   C15F15916   1.013   3.083   4.986  0.0230  0.1711 -1.1259
  144OSM   H15F15917   1.018   3.174   4.922 -1.0511  0.0683 -1.3733
  144OSM   H15G15918   0.904   3.068   5.004  0.0237 -0.8328 -1.8928
  144OSM   C16F15919   1.065   2.961   4.910 -0.0571  0.0365  0.0070
  144OSM   H16F15920   1.032   2.868   4.963 -1.5093 -0.3483 -1.4829
  144OSM   H16G15921   1.175   2.967   4.896  0.0297 -2.6940 -1.1840
  144OSM   C17F15922   0.995   2.951   4.782  0.7022 -0.2083 -0.3480
  144OSM   H17F15923   1.014   3.048   4.731  1.0614  0.8166  1.6497
  144OSM   H17G15924   0.887   2.936   4.804  0.9200 -1.0271  0.2087
  144OSM   C18F15925   1.027   2.829   4.694  0.0394  0.2848 -0.9151
  144OSM   H18F15926   0.960   2.830   4.605 -0.0576 -0.2969 -0.8568
  144OSM   H18G15927   1.007   2.734   4.749  2.2952  0.9902  1.3022
  144OSM   H18H15928   1.135   2.837   4.669  0.1350  0.4798 -0.4516
  145OSM      N15929   3.672   4.454   6.775 -0.1402  0.5865 -0.0389
  145OSM    C1515930   3.611   4.408   6.900 -0.6407 -0.0901 -0.2189
  145OSM   H15A15931   3.559   4.316   6.881  1.3137 -1.2972  0.0458
  145OSM   H15B15932   3.538   4.474   6.944 -0.3821  0.0506  0.0045
  145OSM   H15C15933   3.688   4.376   6.969 -0.0617  0.4459 -0.6003
  145OSM    C1415934   3.755   4.576   6.809 -0.4136 -0.3105 -0.0405
  145OSM   H14A15935   3.779   4.632   6.720 -1.7463  0.0014 -0.2375
  145OSM   H14B15936   3.847   4.563   6.863 -0.5642  0.7424  0.5066
  145OSM   H14C15937   3.694   4.644   6.868  2.4946  0.6197  2.1625
  145OSM    C1315938   3.761   4.340   6.729  0.1712  0.0011 -0.6313
  145OSM   H13A15939   3.819   4.366   6.642  1.9269  0.0928  0.5340
  145OSM   H13B15940   3.697   4.257   6.699 -0.5807  0.3155  0.0557
  145OSM   H13C15941   3.826   4.299   6.804  1.8440  0.9053 -1.5384
  145OSM    C1215942   3.563   4.477   6.671 -0.6026 -0.3808  0.7723
  145OSM   H12A15943   3.487   4.536   6.722  0.0810 -0.0389  1.4220
  145OSM   H12B15944   3.526   4.380   6.643  1.1832 -0.9768  0.3294
  145OSM    C1115945   3.614   4.559   6.551  0.0409  0.0783  0.3839
  145OSM   H11A15946   3.545   4.545   6.464 -1.3780 -0.8967  1.6210
  145OSM   H11B15947   3.710   4.512   6.520 -0.2522 -0.1002 -0.2841
  145OSM      P15948   3.516   4.798   6.604  0.0517 -0.3648  0.5852
  145OSM    O1315949   3.419   4.746   6.705  0.5288 -0.3229 -0.8429
  145OSM    O1415950   3.563   4.934   6.630 -0.2193  0.1648 -0.0049
  145OSM    O1115951   3.451   4.789   6.462  0.0581  0.3762  0.2634
  145OSM    O1215952   3.639   4.702   6.579  0.0473  0.3057  0.0820
  145OSM    C1S15953   3.503   4.849   6.342  0.1358  0.1575  0.6542
  145OSM    H1S15954   3.608   4.815   6.325  0.1984  0.1682  1.0120
  145OSM    H1T15955   3.509   4.959   6.360  0.3628  0.2878 -0.1304
  145OSM     NF15956   3.481   4.888   6.103 -0.0082 -0.3109  0.2936
  145OSM    HNF15957   3.431   4.956   6.050  0.2526 -0.4976 -0.2054
  145OSM    C2S15958   3.410   4.826   6.214  0.4475  0.3031  0.3152
  145OSM    H2S15959   3.419   4.715   6.205  0.7483 -0.0726  3.8287
  145OSM    C3S15960   3.262   4.864   6.227 -0.0107  0.3246  0.1871
  145OSM    H3S15961   3.245   4.972   6.249  1.2243  0.2109  1.9647
  145OSM     O315962   3.213   4.806   6.349  0.2157  0.4769 -0.7215
  145OSM    HO315963   3.285   4.778   6.407 -0.3747 -1.7305 -0.9619
  145OSM    C4S15964   3.176   4.825   6.108 -0.4548  0.5473 -0.8064
  145OSM    H4S15965   3.158   4.915   6.047 -3.4110  0.3662 -0.3417
  145OSM    C5S15966   3.108   4.711   6.089 -0.8170  0.0825 -0.3116
  145OSM    H5S15967   3.107   4.631   6.164 -3.6419 -1.5185 -1.8760
  145OSM    C6S15968   3.018   4.699   5.972  0.6222 -0.6361  1.2824
  145OSM    H6S15969   2.928   4.764   5.969  1.7723  0.9635 -0.7990
  145OSM    H6T15970   2.984   4.594   5.960 -1.4777  0.1365 -0.0893
  145OSM    C7S15971   3.091   4.730   5.828 -0.7211  0.0793 -0.9247
  145OSM    H7S15972   3.170   4.653   5.842 -0.7647  0.3352  0.9842
  145OSM    H7T15973   3.134   4.833   5.830 -3.0295  1.1150  1.7006
  145OSM    C8S15974   3.010   4.696   5.703  0.3560  0.6671  0.1517
  145OSM    H8S15975   2.918   4.757   5.694 -2.6385 -3.6183 -1.5873
  145OSM    H8T15976   2.986   4.588   5.706  0.3650  0.6892  1.8830
  145OSM    C9S15977   3.076   4.716   5.560 -0.3815  0.0536  0.3929
  145OSM    H9S15978   3.151   4.636   5.541 -1.1397 -0.3107 -1.1593
  145OSM    H9T15979   3.132   4.812   5.560 -0.9413  0.3782  0.1411
  145OSM   C10S15980   2.981   4.734   5.447 -0.3312 -0.1852 -0.0305
  145OSM   H10S15981   2.924   4.824   5.479  1.3359  0.5819  0.9175
  145OSM   H10T15982   2.915   4.646   5.432  0.3836 -0.4683 -1.7395
  145OSM   C11S15983   3.045   4.744   5.312 -0.7658 -0.2167 -0.1003
  145OSM   H11S15984   2.961   4.770   5.243 -1.9423  0.6202  1.5674
  145OSM   H11T15985   3.103   4.652   5.292  0.2299  0.4321 -0.2777
  145OSM   C12S15986   3.147   4.855   5.276 -0.6289  0.0481  0.4646
  145OSM   H12S15987   3.238   4.836   5.337 -0.4404  0.9894  0.4939
  145OSM   H12T15988   3.122   4.960   5.301  2.3172  1.4304 -1.8798
  145OSM   C13S15989   3.180   4.868   5.126 -0.4846  0.1313 -0.3514
  145OSM   H13S15990   3.242   4.780   5.097 -0.9798 -0.3387  0.0055
  145OSM   H13T15991   3.236   4.963   5.113 -2.2189  1.2604  0.1130
  145OSM   C14S15992   3.060   4.874   5.032  0.1384  0.0074  0.1542
  145OSM   H14S15993   3.010   4.970   5.057  0.6087  0.3301 -0.1264
  145OSM   H14T15994   2.984   4.796   5.056 -3.1506  2.8759 -0.1078
  145OSM   C15S15995   3.079   4.865   4.878 -0.8194 -0.2187  0.5450
  145OSM   H15S15996   2.993   4.921   4.837 -1.6382  0.5890  3.1377
  145OSM   H15T15997   3.073   4.762   4.837 -1.2380  0.2752 -0.6705
  145OSM   C16S15998   3.209   4.938   4.836 -0.4380 -0.5880  0.0354
  145OSM   H16S15999   3.296   4.885   4.881  0.1358 -1.3560 -1.8735
  145OSM   H16T16000   3.214   5.045   4.864  2.1281 -0.5319 -0.3601
  145OSM   C17S16001   3.217   4.933   4.684  0.0801 -0.1012  0.2936
  145OSM   H17S16002   3.142   5.000   4.638  0.8650  1.0932  0.7197
  145OSM   H17T16003   3.196   4.830   4.648 -1.6679 -0.4981  2.2387
  145OSM   C18S16004   3.355   4.974   4.638 -0.3934  0.6094  0.0747
  145OSM   H18S16005   3.434   4.902   4.666 -0.6029  0.4022  0.1386
  145OSM   H18T16006   3.377   5.061   4.705 -0.8287  0.7143  0.0852
  145OSM   H18U16007   3.366   5.008   4.533  0.8093 -1.2202 -0.4290
  145OSM    C1F16008   3.600   4.851   6.064 -0.5018 -0.5687  0.0200
  145OSM     OF16009   3.665   4.762   6.114 -0.0066  0.0028  0.0601
  145OSM    C2F16010   3.663   4.922   5.947 -0.4469 -0.5866  0.5482
  145OSM    H2F16011   3.711   5.014   5.988  1.3059 -0.0469 -2.4470
  145OSM    H2G16012   3.576   4.952   5.885  2.2072  2.8326 -1.9319
  145OSM    C3F16013   3.760   4.834   5.859 -0.6205 -0.3510  0.7692
  145OSM    H3F16014   3.700   4.742   5.850 -1.8140 -0.0322  3.9562
  145OSM    H3G16015   3.839   4.806   5.932 -0.9706 -1.4754  0.7279
  145OSM    C4F16016   3.809   4.902   5.728 -0.0525  0.3960 -0.3733
  145OSM    H4F16017   3.885   4.970   5.772  0.2006  0.1341 -0.3997
  145OSM    H4G16018   3.731   4.968   5.685  0.7996  1.9209  0.3292
  145OSM    C5F16019   3.860   4.807   5.618  0.3681  0.0472  0.0635
  145OSM    H5F16020   3.809   4.708   5.624  0.4681 -0.0081 -0.0003
  145OSM    H5G16021   3.966   4.781   5.641 -0.2026 -2.4997  0.1185
  145OSM    C6F16022   3.851   4.858   5.472 -0.2293  0.0105  0.0303
  145OSM    H6F16023   3.914   4.949   5.477 -0.9642  0.5706 -0.7650
  145OSM    H6G16024   3.742   4.876   5.460 -0.2214  2.0383  2.2625
  145OSM    C7F16025   3.914   4.775   5.355  0.7794  0.8889 -0.1308
  145OSM    H7F16026   3.878   4.671   5.370 -1.5529  1.8691  1.6120
  145OSM    H7G16027   4.023   4.773   5.377  0.4305  1.7490  1.9446
  145OSM    C8F16028   3.881   4.828   5.215 -0.4706  0.0951 -0.1692
  145OSM    H8F16029   3.945   4.916   5.191 -2.4117  2.3171  2.1333
  145OSM    H8G16030   3.775   4.863   5.219 -0.8707 -1.1781  1.4601
  145OSM    C9F16031   3.883   4.722   5.111  0.8941 -0.2094 -0.7117
  145OSM    H9F16032   3.795   4.657   5.110 -0.7692  1.8961  0.4157
  145OSM   C10F16033   3.995   4.684   5.049 -0.3545  0.1616  0.3750
  145OSM   H10F16034   3.985   4.603   4.975 -0.1652 -1.5745  2.1617
  145OSM   C11F16035   4.132   4.745   5.026 -0.0778 -0.3998 -0.9593
  145OSM   H11F16036   4.119   4.853   5.006 -2.2591 -0.4288  0.0269
  145OSM   H11G16037   4.179   4.700   4.936 -2.3295  0.2947 -2.5753
  145OSM   C12F16038   4.233   4.724   5.143 -0.5266 -0.0695  0.0317
  145OSM   H12F16039   4.191   4.770   5.235  2.4821  1.0360  0.9929
  145OSM   H12G16040   4.322   4.784   5.112 -2.6913  2.9540 -0.7730
  145OSM   C13F16041   4.285   4.581   5.180 -0.0767  0.2495  0.0081
  145OSM   H13F16042   4.233   4.502   5.122  0.2369  0.8420 -1.1071
  145OSM   H13G16043   4.262   4.557   5.286 -2.1963 -1.2362 -0.7321
  145OSM   C14F16044   4.435   4.559   5.147  0.0353  0.1707  0.4943
  145OSM   H14F16045   4.498   4.621   5.215  0.8700 -0.4286  0.2890
  145OSM   H14G16046   4.448   4.604   5.046  0.8847  1.1135  0.9992
  145OSM   C15F16047   4.475   4.411   5.145 -1.0308 -0.0413  0.8907
  145OSM   H15F16048   4.394   4.341   5.175 -0.3881 -1.8508 -1.3237
  145OSM   H15G16049   4.559   4.408   5.218  0.0464  0.4630 -0.2980
  145OSM   C16F16050   4.521   4.375   5.004 -0.3829  0.1953 -0.1605
  145OSM   H16F16051   4.620   4.425   4.989  0.5571 -1.9390 -1.5233
  145OSM   H16G16052   4.453   4.406   4.922  0.2995  0.4792 -0.6325
  145OSM   C17F16053   4.542   4.225   5.002 -0.3689 -0.0544  0.3168
  145OSM   H17F16054   4.445   4.172   5.000 -0.1248 -0.4965  0.1031
  145OSM   H17G16055   4.594   4.179   5.088  0.5147  0.7560  0.2382
  145OSM   C18F16056   4.621   4.185   4.879  0.0750 -0.1680 -0.3872
  145OSM   H18F16057   4.660   4.082   4.893  2.1526  0.5901 -0.2027
  145OSM   H18G16058   4.719   4.238   4.876  1.0099 -1.8104 -0.2543
  145OSM   H18H16059   4.562   4.202   4.787 -1.0928  0.1374  0.3967
  146OSM      N16060   1.969   4.821   6.683  0.0342 -0.1788 -0.6464
  146OSM    C1516061   1.831   4.803   6.751  0.0284 -0.5914 -0.0273
  146OSM   H15A16062   1.765   4.744   6.688  1.1471 -1.0448 -0.8053
  146OSM   H15B16063   1.774   4.895   6.757 -1.8830 -1.8302  2.8227
  146OSM   H15C16064   1.853   4.751   6.843  3.0229 -1.2196 -0.9975
  146OSM    C1416065   2.052   4.920   6.769 -0.5865  0.7836 -0.1095
  146OSM   H14A16066   2.067   4.895   6.873  0.7181  0.1143 -0.4303
  146OSM   H14B16067   2.019   5.022   6.757  0.6527  1.3219  0.8597
  146OSM   H14C16068   2.146   4.916   6.716 -1.6456  0.6621 -2.0672
  146OSM    C1316069   2.036   4.694   6.668  0.3454  0.6587 -0.2688
  146OSM   H13A16070   1.977   4.623   6.611  0.1147  0.0687  0.6835
  146OSM   H13B16071   2.033   4.648   6.766  0.4101  0.8585 -0.1715
  146OSM   H13C16072   2.135   4.704   6.625  0.9146 -0.6189  0.6714
  146OSM    C1216073   1.955   4.875   6.543 -0.5661  0.2647 -0.7058
  146OSM   H12A16074   1.891   4.806   6.490  1.5003 -1.9139 -0.5380
  146OSM   H12B16075   2.047   4.880   6.488 -1.3081 -0.5146 -2.0662
  146OSM    C1116076   1.895   5.020   6.533  0.1803 -0.1158 -0.1333
  146OSM   H11A16077   1.811   5.019   6.606 -0.5929 -0.6059 -0.9973
  146OSM   H11B16078   1.858   5.037   6.429 -0.7592 -0.7506  0.0763
  146OSM      P16079   2.120   5.138   6.480 -0.1560  0.4817 -0.0450
  146OSM    O1316080   2.161   5.270   6.518 -0.7552 -0.6702 -0.3239
  146OSM    O1416081   2.222   5.039   6.510 -0.0027 -0.1194  0.3659
  146OSM    O1116082   2.078   5.136   6.325 -0.3142 -0.0146  0.4525
  146OSM    O1216083   1.991   5.121   6.564  0.1261  0.5027  0.2337
  146OSM    C1S16084   2.179   5.163   6.225  0.1539  0.0368 -0.4420
  146OSM    H1S16085   2.256   5.083   6.220  2.9019  2.5734 -0.8560
  146OSM    H1T16086   2.231   5.258   6.246 -1.7942  0.9477  0.6146
  146OSM     NF16087   2.219   5.185   5.986 -0.7148  0.3048 -0.5372
  146OSM    HNF16088   2.236   5.280   5.964 -1.2346  1.0359  1.9039
  146OSM    C2S16089   2.116   5.172   6.087  1.0688  0.0394 -0.0388
  146OSM    H2S16090   2.052   5.082   6.075  0.6386  0.0429  1.8688
  146OSM    C3S16091   2.019   5.292   6.090 -0.2259 -0.3446 -0.4588
  146OSM    H3S16092   2.069   5.377   6.141  0.9657 -1.2093 -0.1293
  146OSM     O316093   1.904   5.274   6.171  0.7915 -0.5490  0.2704
  146OSM    HO316094   1.918   5.194   6.222  2.0410 -0.9351 -0.6040
  146OSM    C4S16095   1.988   5.328   5.948 -0.6988  0.3120 -0.3877
  146OSM    H4S16096   1.967   5.239   5.887 -1.4124  0.9609 -1.1174
  146OSM    C5S16097   1.990   5.456   5.891  0.1926 -0.0113  0.2284
  146OSM    H5S16098   2.024   5.543   5.949  0.2678  0.3850 -0.3925
  146OSM    C6S16099   1.971   5.484   5.745 -0.4072 -0.2119  0.9200
  146OSM    H6S16100   2.024   5.577   5.714  0.5496 -1.4737 -1.6057
  146OSM    H6T16101   1.862   5.496   5.728 -0.2116 -0.1645 -0.4491
  146OSM    C7S16102   2.020   5.377   5.637 -0.4325 -0.2272  0.0841
  146OSM    H7S16103   1.995   5.417   5.537  0.2406  0.7387  0.2928
  146OSM    H7T16104   1.968   5.279   5.640  1.2508 -1.1446  0.5950
  146OSM    C8S16105   2.174   5.348   5.650 -0.1405 -0.1061  0.0137
  146OSM    H8S16106   2.202   5.356   5.757 -0.2139 -2.2277  0.2295
  146OSM    H8T16107   2.227   5.430   5.596  0.4712 -0.5367 -0.0493
  146OSM    C9S16108   2.234   5.215   5.598  0.3089  0.2958 -0.4139
  146OSM    H9S16109   2.195   5.140   5.670  3.9908 -0.6769  0.7782
  146OSM    H9T16110   2.345   5.216   5.607  0.1698  0.9933  1.5493
  146OSM   C10S16111   2.184   5.188   5.456 -0.3902  0.2058  0.3874
  146OSM   H10S16112   2.074   5.173   5.460 -0.3601  0.2567  2.5249
  146OSM   H10T16113   2.227   5.090   5.425 -0.1566 -0.3270  2.3020
  146OSM   C11S16114   2.228   5.294   5.356 -0.0732  0.2408  0.1169
  146OSM   H11S16115   2.332   5.328   5.376  1.1462 -2.6945 -0.6342
  146OSM   H11T16116   2.176   5.391   5.365 -0.5709 -0.0065 -0.0599
  146OSM   C12S16117   2.224   5.252   5.209  0.0531 -0.0846  0.2913
  146OSM   H12S16118   2.118   5.234   5.180  0.0406 -0.0859  0.3369
  146OSM   H12T16119   2.272   5.154   5.188 -0.8319 -0.2393 -1.1574
  146OSM   C13S16120   2.279   5.371   5.127 -0.8069  0.0365 -0.1533
  146OSM   H13S16121   2.376   5.413   5.161  0.1307 -1.6911 -0.5642
  146OSM   H13T16122   2.201   5.450   5.135 -1.0405 -0.1855 -0.2154
  146OSM   C14S16123   2.291   5.352   4.977  0.1281 -0.5197 -0.4431
  146OSM   H14S16124   2.195   5.346   4.921  1.3522 -1.4967 -2.5727
  146OSM   H14T16125   2.358   5.266   4.956  0.2581  0.4122 -4.7895
  146OSM   C15S16126   2.355   5.478   4.912  0.4586 -0.2986 -0.2322
  146OSM   H15S16127   2.465   5.469   4.921  0.4112 -0.0293  0.6896
  146OSM   H15T16128   2.312   5.568   4.961  1.2126 -0.5689  0.9594
  146OSM   C16S16129   2.334   5.497   4.757  0.2365 -0.0847 -0.2943
  146OSM   H16S16130   2.402   5.580   4.726  0.0531  0.1010 -0.2059
  146OSM   H16T16131   2.230   5.531   4.736 -0.8512 -0.9022  3.0934
  146OSM   C17S16132   2.373   5.368   4.680 -0.4072 -0.3051 -0.1688
  146OSM   H17S16133   2.329   5.282   4.735  1.9875 -0.2569  2.0398
  146OSM   H17T16134   2.481   5.343   4.682 -0.8479 -2.3857  0.3529
  146OSM   C18S16135   2.325   5.362   4.536  0.0186  0.4167  0.2107
  146OSM   H18S16136   2.356   5.456   4.485  1.0858  0.5463  1.0619
  146OSM   H18T16137   2.219   5.329   4.536 -0.6136  2.2968 -0.4111
  146OSM   H18U16138   2.375   5.277   4.486  1.0696  1.5924 -0.8057
  146OSM    C1F16139   2.296   5.085   5.951 -0.1464  0.3838 -0.6904
  146OSM     OF16140   2.290   4.977   6.002  0.0012 -0.6116  0.5102
  146OSM    C2F16141   2.403   5.124   5.850 -0.1404 -0.2601 -0.6495
  146OSM    H2F16142   2.399   5.233   5.827  1.3764  0.0699  0.4517
  146OSM    H2G16143   2.383   5.070   5.755  0.7008 -1.4701 -0.1581
  146OSM    C3F16144   2.550   5.095   5.892  0.2268  0.3884 -0.3197
  146OSM    H3F16145   2.562   4.985   5.903 -2.2288 -0.1288 -1.9320
  146OSM    H3G16146   2.573   5.140   5.990  0.8500  0.4070 -0.4699
  146OSM    C4F16147   2.658   5.140   5.785  0.3325 -0.5803 -0.0348
  146OSM    H4F16148   2.679   5.243   5.820 -0.3744  0.4388 -2.4036
  146OSM    H4G16149   2.614   5.156   5.684 -2.1915  0.8673  1.1978
  146OSM    C5F16150   2.772   5.043   5.771  0.1355 -0.9792 -0.6412
  146OSM    H5F16151   2.738   4.959   5.706 -1.0101 -1.2253  0.2395
  146OSM    H5G16152   2.802   4.994   5.867  1.9853 -1.5343 -1.4482
  146OSM    C6F16153   2.913   5.105   5.736  0.2214 -0.3424  0.0147
  146OSM    H6F16154   2.988   5.023   5.730  0.8165  0.1816  0.1255
  146OSM    H6G16155   2.945   5.164   5.824 -0.5639 -0.1583  0.1811
  146OSM    C7F16156   2.917   5.196   5.611  0.5150 -0.1811 -0.0702
  146OSM    H7F16157   3.020   5.238   5.616  1.2461 -1.8880  0.1250
  146OSM    H7G16158   2.844   5.279   5.623 -0.3827 -0.6991 -1.6731
  146OSM    C8F16159   2.901   5.117   5.478 -0.0017  0.0633  0.2612
  146OSM    H8F16160   2.980   5.039   5.477 -2.0503 -2.1691  1.7140
  146OSM    H8G16161   2.929   5.182   5.392  0.5225  0.4363  0.6988
  146OSM    C9F16162   2.766   5.055   5.454  0.1853 -0.2979 -0.0260
  146OSM    H9F16163   2.753   4.953   5.491  0.4205 -0.1571  0.4535
  146OSM   C10F16164   2.658   5.133   5.414 -0.4417 -0.4597  0.2316
  146OSM   H10F16165   2.560   5.084   5.401 -0.6377  0.1665 -0.7521
  146OSM   C11F16166   2.648   5.276   5.366  0.3647  0.1704 -0.5611
  146OSM   H11F16167   2.732   5.338   5.402 -0.8138  1.1840  0.5262
  146OSM   H11G16168   2.554   5.312   5.412  0.3262 -0.2105 -0.3429
  146OSM   C12F16169   2.631   5.291   5.216  0.2518  0.6231 -0.4542
  146OSM   H12F16170   2.616   5.398   5.190  0.1886  0.9681  0.8912
  146OSM   H12G16171   2.538   5.237   5.187  0.9483 -0.3849 -0.8347
  146OSM   C13F16172   2.731   5.218   5.134 -0.9722 -0.1707  0.1437
  146OSM   H13F16173   2.742   5.113   5.169 -1.6592 -0.2483  0.1407
  146OSM   H13G16174   2.822   5.277   5.160 -2.1858  2.3298 -0.9822
  146OSM   C14F16175   2.705   5.222   4.983  0.4455  0.2015 -0.9383
  146OSM   H14F16176   2.619   5.156   4.959  0.0121  0.8834 -1.2919
  146OSM   H14G16177   2.675   5.327   4.964  1.9938  1.1975  1.5655
  146OSM   C15F16178   2.822   5.177   4.904  0.0002 -0.4859  0.7780
  146OSM   H15F16179   2.844   5.073   4.936 -2.2050 -0.6605  1.9264
  146OSM   H15G16180   2.914   5.233   4.933 -0.2731  0.6126 -0.4047
  146OSM   C16F16181   2.798   5.197   4.751  0.2882 -0.0351  0.2208
  146OSM   H16F16182   2.897   5.171   4.708  0.3363 -0.3167  0.4964
  146OSM   H16G16183   2.790   5.305   4.729 -0.8806 -0.3289 -0.9351
  146OSM   C17F16184   2.675   5.122   4.703 -0.6008  0.3739 -0.3918
  146OSM   H17F16185   2.584   5.181   4.728  0.7984  1.8048  1.6190
  146OSM   H17G16186   2.671   5.027   4.761  0.0938  1.8342  2.1997
  146OSM   C18F16187   2.675   5.103   4.553 -0.1617 -0.3133  0.6528
  146OSM   H18F16188   2.635   5.195   4.507  1.9093  0.9402  1.2319
  146OSM   H18G16189   2.617   5.014   4.519 -1.4295  0.9662 -0.6613
  146OSM   H18H16190   2.775   5.081   4.510 -0.2213  0.9278 -0.1506
  147OSM      N16191   0.825   1.075   2.141  0.4088 -0.3780 -0.2776
  147OSM    C1516192   0.940   0.979   2.170 -0.9197 -0.1245 -0.2896
  147OSM   H15A16193   0.903   0.893   2.222 -0.7579 -1.2786 -2.0058
  147OSM   H15B16194   1.016   1.031   2.228 -0.4163 -0.5946 -0.5194
  147OSM   H15C16195   0.996   0.934   2.089  1.7782  0.2540  1.2334
  147OSM    C1416196   0.868   1.183   2.051 -0.2384  0.2680  0.3679
  147OSM   H14A16197   0.948   1.248   2.084  1.2578 -1.5415  0.4685
  147OSM   H14B16198   0.780   1.239   2.023 -0.4208 -0.1533  0.1064
  147OSM   H14C16199   0.916   1.133   1.969 -0.1692  0.2040  0.4474
  147OSM    C1316200   0.706   1.008   2.073  0.0678  0.1097 -0.6408
  147OSM   H13A16201   0.665   0.921   2.123 -0.1801 -0.0725 -1.1535
  147OSM   H13B16202   0.716   0.968   1.973 -2.6115  1.9535 -1.7781
  147OSM   H13C16203   0.617   1.067   2.058 -1.7014 -2.1597  0.2530
  147OSM    C1216204   0.772   1.140   2.276 -0.5269  0.4202 -0.2229
  147OSM   H12A16205   0.713   1.067   2.330  0.1102 -1.4786 -1.9441
  147OSM   H12B16206   0.696   1.212   2.247 -0.4983 -0.2335 -2.0953
  147OSM    C1116207   0.880   1.186   2.382  0.1241  0.2689  0.0413
  147OSM   H11A16208   0.921   1.095   2.431  0.3099  0.5577  0.4359
  147OSM   H11B16209   0.818   1.234   2.461  0.9259 -0.9996  1.4941
  147OSM      P16210   1.122   1.283   2.397  0.0260 -0.5280  0.2012
  147OSM    O1316211   1.188   1.152   2.386  0.3615 -0.1598 -0.2645
  147OSM    O1416212   1.198   1.392   2.328  0.1164 -0.3491 -0.0706
  147OSM    O1116213   1.082   1.330   2.546  0.0424 -0.0557 -0.5279
  147OSM    O1216214   0.984   1.272   2.326 -0.4696  0.0533  0.0360
  147OSM    C1S16215   1.097   1.228   2.653 -0.4244 -0.1814 -0.6532
  147OSM    H1S16216   1.203   1.196   2.662 -0.1069  0.7417 -0.9977
  147OSM    H1T16217   1.034   1.137   2.643  0.0422 -0.4525 -1.1471
  147OSM     NF16218   1.064   1.186   2.906  0.1058  0.2481  0.5424
  147OSM    HNF16219   0.980   1.139   2.929  0.0952 -0.2646 -0.4948
  147OSM    C2S16220   1.063   1.291   2.801  0.7565  0.3514  0.3019
  147OSM    H2S16221   1.141   1.366   2.824  1.6779 -0.0603 -1.2920
  147OSM    C3S16222   0.929   1.369   2.796 -0.3506 -0.4012 -0.1634
  147OSM    H3S16223   0.849   1.293   2.788 -1.1116  0.4082 -0.4345
  147OSM     O316224   0.904   1.459   2.690  0.1440  0.0177 -0.0825
  147OSM    HO316225   0.963   1.431   2.619 -0.8462 -1.3129 -0.4169
  147OSM    C4S16226   0.910   1.439   2.924  0.6231 -0.0697  0.2229
  147OSM    H4S16227   0.866   1.377   3.004  0.6323 -1.1017 -0.5497
  147OSM    C5S16228   0.967   1.557   2.955 -0.0227 -0.1378  0.0356
  147OSM    H5S16229   1.047   1.591   2.886  1.0370 -3.0809 -0.3301
  147OSM    C6S16230   0.953   1.613   3.098 -0.1991 -0.1168 -0.1480
  147OSM    H6S16231   0.887   1.543   3.155  0.9257 -1.7688 -0.7942
  147OSM    H6T16232   0.922   1.719   3.102  1.3587  0.3766 -0.6481
  147OSM    C7S16233   1.097   1.619   3.161 -0.1311 -0.5488 -0.6157
  147OSM    H7S16234   1.151   1.692   3.097  0.1730  0.5975  0.8757
  147OSM    H7T16235   1.147   1.524   3.135 -0.8336 -0.3892 -2.6810
  147OSM    C8S16236   1.085   1.641   3.310  0.3250 -0.3760  0.1282
  147OSM    H8S16237   1.023   1.558   3.349 -0.6325  1.1964  2.1223
  147OSM    H8T16238   1.012   1.723   3.326  1.1935  0.8352 -1.7349
  147OSM    C9S16239   1.214   1.651   3.392 -0.4076 -0.0763  0.1506
  147OSM    H9S16240   1.284   1.730   3.358 -0.2968  0.4530  1.5439
  147OSM    H9T16241   1.265   1.554   3.382  0.1274  0.2349 -0.1473
  147OSM   C10S16242   1.185   1.672   3.540 -0.2333 -0.6548  0.8994
  147OSM   H10S16243   1.151   1.777   3.550  0.9354  0.0241 -1.4332
  147OSM   H10T16244   1.283   1.659   3.592  1.2042 -0.0901 -1.4843
  147OSM   C11S16245   1.084   1.573   3.613 -0.2033 -0.3968 -0.5820
  147OSM   H11S16246   1.109   1.467   3.595 -0.0036 -0.5504  0.5516
  147OSM   H11T16247   0.986   1.591   3.564 -0.2817 -1.9584 -1.0424
  147OSM   C12S16248   1.067   1.601   3.762  0.5189 -0.4682  0.3732
  147OSM   H12S16249   1.163   1.611   3.818  0.3766 -1.5873  0.8502
  147OSM   H12T16250   0.992   1.531   3.805  0.0200  0.6269  1.3602
  147OSM   C13S16251   1.002   1.738   3.785  0.2618  0.2814 -0.3272
  147OSM   H13S16252   0.908   1.750   3.727 -0.3481 -0.7540  0.4150
  147OSM   H13T16253   1.074   1.816   3.751  3.3427 -2.1630  0.1234
  147OSM   C14S16254   0.967   1.765   3.925  0.4170  0.7828 -0.7663
  147OSM   H14S16255   0.959   1.669   3.981  2.9655  1.6875  1.3495
  147OSM   H14T16256   0.871   1.817   3.947 -0.8769 -1.7327 -0.0071
  147OSM   C15S16257   1.074   1.829   4.009 -0.4262  0.4212  0.4547
  147OSM   H15S16258   1.121   1.915   3.956 -1.6033  0.2505 -0.9178
  147OSM   H15T16259   1.166   1.769   4.028 -1.2679 -0.8589  0.5695
  147OSM   C16S16260   1.016   1.872   4.142 -0.0232  0.2413 -0.8483
  147OSM   H16S16261   0.917   1.920   4.129 -0.1768  0.7815  1.7736
  147OSM   H16T16262   1.085   1.946   4.189  2.1243 -1.8553 -0.4928
  147OSM   C17S16263   0.999   1.752   4.237  0.3726 -0.1320  0.0248
  147OSM   H17S16264   1.090   1.689   4.227  0.0731 -0.6449  0.5294
  147OSM   H17T16265   0.912   1.693   4.204 -0.4874  1.3828 -0.5427
  147OSM   C18S16266   0.966   1.790   4.384 -0.4373 -0.5467  0.1226
  147OSM   H18S16267   0.962   1.692   4.436 -1.9098 -1.1959 -1.1125
  147OSM   H18T16268   0.860   1.825   4.381  0.5802  3.1762 -4.4587
  147OSM   H18U16269   1.043   1.858   4.425 -1.2111 -0.3619  1.3219
  147OSM    C1F16270   1.182   1.153   2.962 -0.3502  0.1008  0.3692
  147OSM     OF16271   1.288   1.179   2.906 -0.4810  0.1983  0.1971
  147OSM    C2F16272   1.174   1.091   3.097 -0.2281 -0.1365 -0.1927
  147OSM    H2F16273   1.256   1.021   3.125 -1.9954 -1.2821  2.5240
  147OSM    H2G16274   1.081   1.030   3.101  0.9112 -2.1211 -2.1590
  147OSM    C3F16275   1.182   1.201   3.202  0.0382  0.2678  0.0552
  147OSM    H3F16276   1.164   1.167   3.306 -0.4708 -0.3100 -0.2204
  147OSM    H3G16277   1.104   1.277   3.183  0.8490  2.1408  3.4069
  147OSM    C4F16278   1.315   1.281   3.215  0.8392  0.3214 -0.4480
  147OSM    H4F16279   1.294   1.389   3.234  0.8780 -0.1193  2.6780
  147OSM    H4G16280   1.355   1.276   3.112  1.4321 -1.1926 -0.1744
  147OSM    C5F16281   1.415   1.217   3.302 -0.3356  0.3962 -0.2792
  147OSM    H5F16282   1.517   1.254   3.275 -1.0332  0.4448 -3.1145
  147OSM    H5G16283   1.416   1.108   3.283  0.8939  0.2590  0.4307
  147OSM    C6F16284   1.395   1.240   3.451  0.3226  0.0012  0.2196
  147OSM    H6F16285   1.286   1.230   3.469  0.1127  0.6280 -0.6129
  147OSM    H6G16286   1.414   1.346   3.479  3.2228 -0.0302 -1.1833
  147OSM    C7F16287   1.474   1.146   3.542 -0.5499 -0.0442 -0.7790
  147OSM    H7F16288   1.583   1.167   3.538  0.0706 -2.9245 -1.4910
  147OSM    H7G16289   1.465   1.044   3.499 -1.9681 -0.3134  0.0845
  147OSM    C8F16290   1.430   1.148   3.686  0.1865 -0.7498 -0.0977
  147OSM    H8F16291   1.323   1.119   3.687  0.1367 -0.6070  1.0716
  147OSM    H8G16292   1.429   1.252   3.724  0.5318 -1.0088  0.6470
  147OSM    C9F16293   1.506   1.051   3.773  0.2968  0.4341  0.1569
  147OSM    H9F16294   1.526   0.965   3.707 -0.6592  1.0571 -0.9847
  147OSM   C10F16295   1.506   1.045   3.904  0.4222 -0.6521  0.0271
  147OSM   H10F16296   1.567   0.965   3.950 -0.7895 -1.7055 -0.1524
  147OSM   C11F16297   1.446   1.141   4.006 -0.4892 -0.2308 -0.2269
  147OSM   H11F16298   1.382   1.082   4.075 -0.1624 -0.5079 -0.1557
  147OSM   H11G16299   1.387   1.221   3.956 -0.3123  0.2360  0.2955
  147OSM   C12F16300   1.569   1.203   4.076 -0.0386 -0.5184 -0.1036
  147OSM   H12F16301   1.619   1.276   4.008 -5.1997  1.0317 -2.7625
  147OSM   H12G16302   1.643   1.126   4.106  0.0641 -0.6626 -0.7219
  147OSM   C13F16303   1.539   1.290   4.203  0.7266  0.1209 -0.3936
  147OSM   H13F16304   1.475   1.229   4.270  1.6003 -0.4472 -0.0498
  147OSM   H13G16305   1.478   1.377   4.171  0.2301  0.2751  0.9109
  147OSM   C14F16306   1.667   1.329   4.272  0.1903 -0.7111 -0.6703
  147OSM   H14F16307   1.739   1.383   4.207 -1.9766  3.0325 -0.2269
  147OSM   H14G16308   1.722   1.242   4.314  2.4087  0.2224 -1.4915
  147OSM   C15F16309   1.627   1.414   4.398 -0.0780  0.2737  0.9102
  147OSM   H15F16310   1.534   1.371   4.439 -0.3620 -1.4599 -1.3291
  147OSM   H15G16311   1.616   1.522   4.371  1.6478  0.2445 -0.1075
  147OSM   C16F16312   1.732   1.397   4.503  0.5312 -0.2740  0.1692
  147OSM   H16F16313   1.832   1.412   4.458  1.0301 -2.0812  0.6138
  147OSM   H16G16314   1.738   1.299   4.556  0.8470 -0.9723 -1.1208
  147OSM   C17F16315   1.718   1.494   4.619  0.4968 -0.0055 -0.3062
  147OSM   H17F16316   1.611   1.482   4.648  0.2000  3.6891  0.7065
  147OSM   H17G16317   1.726   1.592   4.567  0.0140 -0.5174 -1.3793
  147OSM   C18F16318   1.814   1.477   4.727  0.2041  0.1149 -0.2940
  147OSM   H18F16319   1.920   1.475   4.694  0.0050 -0.5090 -0.9325
  147OSM   H18G16320   1.799   1.380   4.780  1.4998 -0.0327 -0.1565
  147OSM   H18H16321   1.790   1.553   4.804 -2.6247 -0.9411 -0.0007
  148OSM      N16322   1.398   1.333   1.978  0.2739 -0.4509 -1.5158
  148OSM    C1516323   1.510   1.237   1.959 -0.5937  0.2800 -0.3418
  148OSM   H15A16324   1.505   1.162   2.037  1.1298 -0.2777 -0.7473
  148OSM   H15B16325   1.607   1.280   1.975  0.0064 -0.4466 -1.8367
  148OSM   H15C16326   1.514   1.199   1.858  0.9269 -2.5631  0.6956
  148OSM    C1416327   1.423   1.446   1.887 -0.2684  0.9590 -1.4941
  148OSM   H14A16328   1.472   1.518   1.951 -0.1595  1.0621 -1.6950
  148OSM   H14B16329   1.332   1.487   1.847 -0.5278  2.1821  0.2255
  148OSM   H14C16330   1.486   1.415   1.806  0.5931 -1.9111  0.1366
  148OSM    C1316331   1.273   1.256   1.959  0.0315  0.8426 -0.5914
  148OSM   H13A16332   1.299   1.171   1.897  0.8288  0.1273  0.6778
  148OSM   H13B16333   1.186   1.310   1.924 -0.3912 -0.8985 -2.3863
  148OSM   H13C16334   1.239   1.215   2.053  0.5957 -1.8787 -1.4761
  148OSM    C1216335   1.398   1.382   2.124  0.0919  0.0698 -0.2696
  148OSM   H12A16336   1.371   1.309   2.199 -0.9728  0.7299  0.0171
  148OSM   H12B16337   1.318   1.453   2.139 -1.8025 -2.0720  0.3204
  148OSM    C1116338   1.519   1.459   2.177 -0.5791 -0.3861 -0.0177
  148OSM   H11A16339   1.492   1.504   2.276  2.3868  4.1831 -0.9639
  148OSM   H11B16340   1.547   1.542   2.109  1.2694 -1.8902 -1.1924
  148OSM      P16341   1.653   1.255   2.293 -0.0010  0.1011  0.2183
  148OSM    O1316342   1.609   1.126   2.229  0.4982  0.1842  0.5397
  148OSM    O1416343   1.781   1.256   2.364  0.5128  0.6590  0.7110
  148OSM    O1116344   1.539   1.298   2.399 -0.7668  0.2426 -0.0221
  148OSM    O1216345   1.637   1.378   2.188  0.6196  0.4339 -0.2682
  148OSM    C1S16346   1.499   1.221   2.507  0.4400 -0.4137  0.7293
  148OSM    H1S16347   1.528   1.113   2.499 -0.0217 -0.3998 -2.2547
  148OSM    H1T16348   1.389   1.222   2.517  0.3249  2.4146 -0.1214
  148OSM     NF16349   1.529   1.179   2.754  0.4065 -0.6377  0.2301
  148OSM    HNF16350   1.462   1.196   2.826 -0.2476  0.7943 -0.6698
  148OSM    C2S16351   1.531   1.279   2.650  0.0310  0.4775  0.4481
  148OSM    H2S16352   1.632   1.320   2.629  0.3203 -1.4065 -2.4080
  148OSM    C3S16353   1.439   1.405   2.686 -0.6965  0.4032 -0.0983
  148OSM    H3S16354   1.345   1.355   2.715 -0.6310  1.3206  1.8399
  148OSM     O316355   1.426   1.487   2.572 -0.4081  0.0564 -0.5441
  148OSM    HO316356   1.468   1.449   2.494 -1.4928  0.1897 -1.2264
  148OSM    C4S16357   1.485   1.490   2.802  0.7068 -0.4801  0.6330
  148OSM    H4S16358   1.571   1.556   2.783 -1.7802  2.9391  0.1403
  148OSM    C5S16359   1.428   1.494   2.925  0.4531 -0.5416 -0.5757
  148OSM    H5S16360   1.334   1.445   2.957 -0.4620  1.5284  0.0453
  148OSM    C6S16361   1.480   1.579   3.044 -0.5989  0.1941 -1.2371
  148OSM    H6S16362   1.400   1.593   3.121 -1.0328 -1.3097 -1.3851
  148OSM    H6T16363   1.521   1.680   3.021 -2.6698  1.3758 -0.0726
  148OSM    C7S16364   1.601   1.508   3.109 -0.4003 -0.1878 -0.5101
  148OSM    H7S16365   1.691   1.517   3.044 -0.2241  0.4453 -0.1869
  148OSM    H7T16366   1.572   1.400   3.112 -2.7151  0.3560 -1.4209
  148OSM    C8S16367   1.637   1.545   3.252 -0.2386  1.0444  0.4259
  148OSM    H8S16368   1.549   1.512   3.312 -0.9549  0.8497 -0.7014
  148OSM    H8T16369   1.629   1.654   3.273 -0.9100  1.1169 -0.1498
  148OSM    C9S16370   1.756   1.479   3.300 -0.0261  0.0714 -0.6178
  148OSM    H9S16371   1.834   1.558   3.311  1.4298 -1.1677 -1.5260
  148OSM    H9T16372   1.795   1.403   3.228  0.7529  0.3037 -0.4534
  148OSM   C10S16373   1.741   1.415   3.441  0.2456  0.0790  1.5801
  148OSM   H10S16374   1.836   1.359   3.458  1.9016  1.4801 -1.9593
  148OSM   H10T16375   1.648   1.354   3.436  0.3248  0.0409 -0.4042
  148OSM   C11S16376   1.735   1.513   3.553  0.3615  0.3251  0.4200
  148OSM   H11S16377   1.741   1.619   3.523 -1.5152  0.3548  0.0385
  148OSM   H11T16378   1.823   1.481   3.612  0.4834 -0.6072 -0.2370
  148OSM   C12S16379   1.616   1.489   3.642 -0.3460  0.0232 -0.0145
  148OSM   H12S16380   1.591   1.384   3.668 -1.0078 -0.9110 -3.8570
  148OSM   H12T16381   1.534   1.532   3.581 -0.0805  0.6895  0.0881
  148OSM   C13S16382   1.616   1.589   3.763  0.5381 -0.3925 -0.1772
  148OSM   H13S16383   1.622   1.697   3.735 -1.5175 -0.0284  0.6081
  148OSM   H13T16384   1.699   1.569   3.834 -0.4863 -2.1635  0.5788
  148OSM   C14S16385   1.487   1.560   3.849  0.1387 -0.5346 -0.8544
  148OSM   H14S16386   1.507   1.461   3.897  1.9428  0.5721  0.8250
  148OSM   H14T16387   1.404   1.548   3.777  0.5611 -2.0749 -1.1312
  148OSM   C15S16388   1.445   1.665   3.959 -0.1368 -0.1406 -0.2093
  148OSM   H15S16389   1.345   1.642   4.002 -0.0683  0.5381  0.3368
  148OSM   H15T16390   1.432   1.761   3.906 -2.9053 -0.2181  0.1552
  148OSM   C16S16391   1.553   1.678   4.068  0.5450  0.3308  0.2194
  148OSM   H16S16392   1.636   1.741   4.032 -1.0001  1.7569 -1.0152
  148OSM   H16T16393   1.588   1.576   4.094  1.1726  0.1931 -1.0696
  148OSM   C17S16394   1.493   1.749   4.186 -1.1542  0.3505  0.0371
  148OSM   H17S16395   1.433   1.687   4.256  1.2145  0.3846  2.2556
  148OSM   H17T16396   1.438   1.836   4.145 -0.3487  0.2706 -1.2696
  148OSM   C18S16397   1.607   1.798   4.269 -0.1590  0.4404 -0.3177
  148OSM   H18S16398   1.559   1.855   4.352  0.1384  1.2807 -0.7097
  148OSM   H18T16399   1.668   1.874   4.216 -0.9615  1.7605  0.6019
  148OSM   H18U16400   1.667   1.712   4.307 -0.4391 -0.2306 -1.3457
  148OSM    C1F16401   1.603   1.068   2.754 -0.1054 -0.6179 -0.1765
  148OSM     OF16402   1.703   1.052   2.682 -0.2719 -0.2109 -0.6932
  148OSM    C2F16403   1.559   0.951   2.837  0.9202  0.2231 -0.3370
  148OSM    H2F16404   1.629   0.868   2.812 -0.1756 -0.6904 -0.4523
  148OSM    H2G16405   1.459   0.915   2.804  0.6206  1.5653 -0.9512
  148OSM    C3F16406   1.565   0.969   2.992 -0.2298 -0.1765  0.8392
  148OSM    H3F16407   1.555   0.873   3.046  2.0929 -1.5504 -0.9993
  148OSM    H3G16408   1.482   1.036   3.025 -0.0030  1.0028 -0.8612
  148OSM    C4F16409   1.703   1.024   3.031  0.3255  0.4069 -0.6451
  148OSM    H4F16410   1.686   1.130   3.003 -0.6617  0.4868  0.2046
  148OSM    H4G16411   1.791   0.990   2.972  0.3946  1.9501 -1.5073
  148OSM    C5F16412   1.733   1.001   3.180 -0.8410 -0.2314 -0.7693
  148OSM    H5F16413   1.739   0.891   3.189 -3.1859 -0.4025 -0.6492
  148OSM    H5G16414   1.661   1.034   3.258 -0.8424 -2.1180  0.0885
  148OSM    C6F16415   1.873   1.047   3.222  0.5432  0.3165  0.4975
  148OSM    H6F16416   1.868   1.155   3.250 -0.3295  0.4112  0.0114
  148OSM    H6G16417   1.943   1.042   3.135 -0.1269 -0.6966 -0.0053
  148OSM    C7F16418   1.939   0.980   3.349  0.2336 -0.6364 -0.8277
  148OSM    H7F16419   2.049   0.995   3.349  0.2026 -0.3507 -1.3678
  148OSM    H7G16420   1.928   0.870   3.357  2.0826 -0.9244 -1.7736
  148OSM    C8F16421   1.883   1.040   3.481 -0.4356 -0.1075 -0.5498
  148OSM    H8F16422   1.773   1.039   3.467 -0.6086  2.2210  0.1485
  148OSM    H8G16423   1.909   1.148   3.492 -1.5315  0.2064 -0.9231
  148OSM    C9F16424   1.924   0.952   3.600 -0.1453  0.4750  0.3386
  148OSM    H9F16425   1.954   0.848   3.582 -2.0800 -0.4998  2.2189
  148OSM   C10F16426   1.932   0.994   3.730 -0.9119 -0.2153  0.5838
  148OSM   H10F16427   1.962   0.932   3.816  0.3699  0.2194  0.4592
  148OSM   C11F16428   1.922   1.141   3.780  0.0041  0.4126  0.4052
  148OSM   H11F16429   1.835   1.141   3.849  0.3207 -0.2750  0.8145
  148OSM   H11G16430   1.894   1.213   3.701  0.4146 -1.2386 -1.3168
  148OSM   C12F16431   2.034   1.202   3.867  1.0845  0.2773 -0.3681
  148OSM   H12F16432   2.119   1.244   3.808  0.8504 -0.5684 -1.3486
  148OSM   H12G16433   2.070   1.124   3.937 -0.4861 -0.9944 -0.9250
  148OSM   C13F16434   1.982   1.315   3.958 -0.1223 -0.6455 -0.5502
  148OSM   H13F16435   1.921   1.259   4.031 -0.3771  0.3960  0.0554
  148OSM   H13G16436   1.913   1.386   3.907 -0.3901  2.4021  3.5272
  148OSM   C14F16437   2.087   1.407   4.022 -0.0715  0.1357 -0.2717
  148OSM   H14F16438   2.048   1.509   4.038 -2.1978 -0.8004  0.9733
  148OSM   H14G16439   2.178   1.416   3.959  0.7489  1.5471  1.0458
  148OSM   C15F16440   2.130   1.359   4.166  0.0646  0.4902  0.0347
  148OSM   H15F16441   2.164   1.254   4.162  1.1917  0.8420 -0.1692
  148OSM   H15G16442   2.041   1.367   4.232  1.5039  3.2858  1.8621
  148OSM   C16F16443   2.243   1.441   4.232  0.3055  0.9459 -1.0754
  148OSM   H16F16444   2.229   1.551   4.232  1.5419  1.1342  0.4300
  148OSM   H16G16445   2.335   1.432   4.170  0.4251 -1.0778 -0.6709
  148OSM   C17F16446   2.269   1.396   4.374 -0.2145  0.0512  1.0478
  148OSM   H17F16447   2.304   1.291   4.378  1.5453  0.6054  0.9092
  148OSM   H17G16448   2.173   1.403   4.430 -0.8379  0.6413 -0.0352
  148OSM   C18F16449   2.377   1.482   4.438 -0.3438 -0.0556  0.0263
  148OSM   H18F16450   2.333   1.570   4.489 -0.0003  0.5989 -0.7878
  148OSM   H18G16451   2.461   1.517   4.375 -0.6995 -0.6341 -0.7876
  148OSM   H18H16452   2.423   1.422   4.520 -0.8833  0.0048  0.3790
  149OSM      N16453   4.073   2.254   2.055 -0.2521  0.7227  0.1915
  149OSM    C1516454   4.218   2.288   2.043 -0.5205  0.6495  0.3954
  149OSM   H15A16455   4.282   2.233   2.110 -1.4350  1.6566  2.1666
  149OSM   H15B16456   4.230   2.390   2.077  2.1461 -0.3185  2.6918
  149OSM   H15C16457   4.254   2.290   1.941 -0.9350 -1.3258  0.1678
  149OSM    C1416458   4.004   2.363   1.980 -0.2707  0.0821  0.0840
  149OSM   H14A16459   3.898   2.351   1.967 -0.0784 -1.4692 -0.2539
  149OSM   H14B16460   4.038   2.369   1.877 -1.1061  3.4465 -0.1135
  149OSM   H14C16461   4.025   2.457   2.029 -1.4105  1.3333 -1.6879
  149OSM    C1316462   4.038   2.128   1.991 -0.9923  0.5234 -0.7161
  149OSM   H13A16463   4.081   2.121   1.892  2.0687 -1.5086  0.5664
  149OSM   H13B16464   3.932   2.110   1.984 -0.6654 -1.8126 -0.7113
  149OSM   H13C16465   4.086   2.045   2.042  0.5939  0.9094 -1.5133
  149OSM    C1216466   4.031   2.262   2.201 -0.6795  0.2117 -0.6257
  149OSM   H12A16467   3.925   2.243   2.197 -1.2002  2.7717 -0.7347
  149OSM   H12B16468   4.040   2.365   2.234 -0.2695 -0.1257  0.3287
  149OSM    C1116469   4.100   2.157   2.292 -0.3021 -0.7162 -0.0035
  149OSM   H11A16470   4.097   2.178   2.401 -2.4995 -1.3979  0.1003
  149OSM   H11B16471   4.207   2.150   2.263 -0.2265 -0.6135  0.2518
  149OSM      P16472   3.900   1.983   2.325 -0.4852 -0.0118  0.2517
  149OSM    O1316473   3.799   2.091   2.300  0.1851 -0.1415  0.0808
  149OSM    O1416474   3.878   1.844   2.268 -0.0982 -0.7802  0.1710
  149OSM    O1116475   3.910   1.975   2.486  0.3086  0.4577  0.4120
  149OSM    O1216476   4.040   2.031   2.278 -0.1009  0.1244  0.4392
  149OSM    C1S16477   3.999   1.878   2.546  0.0012  0.7079 -0.7399
  149OSM    H1S16478   4.102   1.909   2.518  0.5666  0.3368  0.8506
  149OSM    H1T16479   3.975   1.770   2.532 -1.1330  0.7012  0.9425
  149OSM     NF16480   4.094   1.804   2.761  0.5456  0.2113  0.0879
  149OSM    HNF16481   4.068   1.708   2.768  0.6652  0.2503  1.2884
  149OSM    C2S16482   3.997   1.895   2.704 -0.0178 -0.5770 -0.6478
  149OSM    H2S16483   4.026   1.998   2.731 -1.6096 -0.3262  0.2167
  149OSM    C3S16484   3.850   1.870   2.753 -0.3010  0.6306 -0.4565
  149OSM    H3S16485   3.837   1.760   2.742 -0.8002  0.5861  0.4683
  149OSM     O316486   3.750   1.930   2.673 -0.1981  0.2957  0.1480
  149OSM    HO316487   3.796   1.979   2.604  0.8844  1.1529  1.4334
  149OSM    C4S16488   3.848   1.908   2.902 -0.3609 -0.3127  0.2927
  149OSM    H4S16489   3.814   1.825   2.965  1.6915 -1.0937  0.4362
  149OSM    C5S16490   3.852   2.027   2.959  0.2621 -0.5657 -0.5475
  149OSM    H5S16491   3.873   2.113   2.895  0.1529 -0.6240 -0.6611
  149OSM    C6S16492   3.831   2.074   3.106 -0.3441 -0.4625 -0.0346
  149OSM    H6S16493   3.742   2.138   3.124 -1.4344 -2.1888  1.0246
  149OSM    H6T16494   3.928   2.126   3.119  0.3561 -0.9350 -2.7179
  149OSM    C7S16495   3.815   1.958   3.200  0.3496  0.1401  0.0703
  149OSM    H7S16496   3.901   1.889   3.188  0.3737  0.3759 -1.2629
  149OSM    H7T16497   3.731   1.893   3.166  0.5831 -1.8507  2.9620
  149OSM    C8S16498   3.779   1.979   3.349  0.4269  0.2263 -0.7051
  149OSM    H8S16499   3.789   1.880   3.398 -1.5656  0.2184 -0.2475
  149OSM    H8T16500   3.674   2.010   3.363 -0.1082 -1.9696  0.5823
  149OSM    C9S16501   3.870   2.079   3.417 -0.7693 -0.0113  0.3979
  149OSM    H9S16502   3.844   2.185   3.397 -0.0105  0.3302  1.1644
  149OSM    H9T16503   3.972   2.075   3.372 -0.9170  2.1725 -0.2546
  149OSM   C10S16504   3.897   2.063   3.572 -0.2031 -0.7923 -0.2795
  149OSM   H10S16505   3.969   2.145   3.593 -0.6306 -0.0976 -1.4338
  149OSM   H10T16506   3.947   1.968   3.598 -2.6034 -1.5457  2.0045
  149OSM   C11S16507   3.761   2.088   3.644 -0.2792  0.2516  0.0733
  149OSM   H11S16508   3.691   2.003   3.630 -2.9894  2.4530 -0.6628
  149OSM   H11T16509   3.710   2.177   3.600  1.1481  2.1183  2.0064
  149OSM   C12S16510   3.773   2.131   3.792  0.2901 -0.5405 -0.2016
  149OSM   H12S16511   3.683   2.159   3.851 -1.0462 -2.8400 -1.0002
  149OSM   H12T16512   3.840   2.219   3.799 -1.0543  0.3752  3.2042
  149OSM   C13S16513   3.835   2.015   3.874 -0.7725 -0.6135 -0.4982
  149OSM   H13S16514   3.907   1.962   3.807 -0.9787 -1.1835 -0.2726
  149OSM   H13T16515   3.763   1.934   3.894 -2.8023  1.7211  2.8071
  149OSM   C14S16516   3.907   2.058   3.998 -0.2182 -0.6555 -0.7201
  149OSM   H14S16517   3.928   2.166   3.988 -2.2453 -0.1813 -0.2844
  149OSM   H14T16518   4.007   2.011   4.011 -0.3409 -0.5496  0.8287
  149OSM   C15S16519   3.819   2.033   4.124 -0.1604  0.2391 -0.5845
  149OSM   H15S16520   3.890   2.029   4.209 -0.6235  1.0508 -0.1438
  149OSM   H15T16521   3.782   1.929   4.123  0.8123 -0.1613  1.2197
  149OSM   C16S16522   3.707   2.143   4.146  0.7966 -0.5959 -1.0723
  149OSM   H16S16523   3.625   2.118   4.074  0.8532  0.8622 -1.6718
  149OSM   H16T16524   3.757   2.238   4.117 -0.5588  0.1196 -1.1684
  149OSM   C17S16525   3.637   2.135   4.278  0.3274 -0.1284 -0.1876
  149OSM   H17S16526   3.716   2.178   4.343  0.2501 -1.3171  0.7353
  149OSM   H17T16527   3.617   2.028   4.299 -1.5369  0.4026  1.0245
  149OSM   C18S16528   3.501   2.210   4.284 -0.5518  0.0453 -0.0925
  149OSM   H18S16529   3.453   2.194   4.383 -1.4515 -0.2664 -0.5705
  149OSM   H18T16530   3.428   2.193   4.202  0.2054  1.3250 -1.0640
  149OSM   H18U16531   3.535   2.315   4.274 -0.6632 -0.0522 -1.8439
  149OSM    C1F16532   4.224   1.831   2.774  0.3655  1.5819 -0.7502
  149OSM     OF16533   4.277   1.923   2.716  0.3152  0.1208 -0.1503
  149OSM    C2F16534   4.317   1.733   2.846 -0.3289 -0.6742 -0.2376
  149OSM    H2F16535   4.422   1.764   2.824 -0.2613 -0.4911  0.3339
  149OSM    H2G16536   4.315   1.630   2.804  0.9978 -1.2339  0.9816
  149OSM    C3F16537   4.291   1.738   2.999 -0.1039 -0.4396  0.4964
  149OSM    H3F16538   4.299   1.844   3.033  0.7830 -0.6286  0.9034
  149OSM    H3G16539   4.382   1.702   3.051  0.0058 -0.8747  0.0102
  149OSM    C4F16540   4.168   1.658   3.054  0.5335 -0.3360  0.4954
  149OSM    H4F16541   4.153   1.564   2.997  2.0958  0.5096 -1.4354
  149OSM    H4G16542   4.077   1.722   3.045  0.6536 -0.2085  0.1798
  149OSM    C5F16543   4.170   1.644   3.201  0.3523 -0.2153  0.6991
  149OSM    H5F16544   4.266   1.597   3.230  1.1329  0.9865  0.1478
  149OSM    H5G16545   4.087   1.578   3.234  0.6267 -1.1184 -0.3563
  149OSM    C6F16546   4.167   1.766   3.288  0.3986  0.1361  0.0664
  149OSM    H6F16547   4.089   1.838   3.254 -2.8888 -3.2566 -0.3238
  149OSM    H6G16548   4.263   1.820   3.281 -1.1400  3.0055 -0.2422
  149OSM    C7F16549   4.148   1.730   3.437  0.5370 -0.2783  0.3376
  149OSM    H7F16550   4.057   1.669   3.451 -0.0991  0.4321 -0.5708
  149OSM    H7G16551   4.130   1.825   3.491  1.9101 -0.1868  0.6750
  149OSM    C8F16552   4.270   1.649   3.502  1.4605  0.1764  0.2568
  149OSM    H8F16553   4.305   1.571   3.431 -0.4785 -0.7596  0.2615
  149OSM    H8G16554   4.231   1.591   3.588  1.3245 -1.9467 -1.1671
  149OSM    C9F16555   4.378   1.736   3.559  0.2313  0.5557 -0.3384
  149OSM    H9F16556   4.464   1.733   3.490  0.8687 -2.4693  0.3934
  149OSM   C10F16557   4.369   1.809   3.672 -0.3138  0.5816  0.0074
  149OSM   H10F16558   4.459   1.861   3.708 -0.5080 -0.1320  1.6010
  149OSM   C11F16559   4.256   1.822   3.768  0.0642 -0.4831  0.1443
  149OSM   H11F16560   4.161   1.781   3.727 -0.1792 -0.9201  1.1320
  149OSM   H11G16561   4.239   1.926   3.802  0.2885 -0.0722 -0.9560
  149OSM   C12F16562   4.280   1.733   3.890 -0.0337  0.9234 -0.6095
  149OSM   H12F16563   4.293   1.629   3.855 -1.3873  1.6512 -3.6603
  149OSM   H12G16564   4.183   1.738   3.944  0.1713  0.5109 -0.2039
  149OSM   C13F16565   4.392   1.776   3.988 -0.1247 -0.6592  0.1386
  149OSM   H13F16566   4.382   1.885   4.008  0.5916 -0.6933  0.7211
  149OSM   H13G16567   4.491   1.745   3.947  0.4317  0.0640  0.9089
  149OSM   C14F16568   4.391   1.697   4.121  0.0672  1.0648  0.5581
  149OSM   H14F16569   4.490   1.698   4.171  0.8715  0.5102 -0.9566
  149OSM   H14G16570   4.383   1.588   4.100 -1.2069  1.0703  0.9369
  149OSM   C15F16571   4.280   1.734   4.217  0.0038 -0.3067 -0.3404
  149OSM   H15F16572   4.187   1.725   4.158 -0.0294 -0.7056 -0.2345
  149OSM   H15G16573   4.290   1.841   4.244 -2.7308  0.3756 -1.6586
  149OSM   C16F16574   4.271   1.661   4.350 -1.1375 -0.0835 -0.1490
  149OSM   H16F16575   4.282   1.552   4.337 -1.9673 -0.2003  0.0800
  149OSM   H16G16576   4.174   1.673   4.403 -0.3514  1.1957  1.0547
  149OSM   C17F16577   4.380   1.716   4.451 -0.3882  0.9552  0.0584
  149OSM   H17F16578   4.355   1.822   4.473  2.2047  0.8571  4.9387
  149OSM   H17G16579   4.474   1.725   4.392  0.1296  0.7080  0.8254
  149OSM   C18F16580   4.395   1.653   4.588  0.6935 -0.5410 -0.3588
  149OSM   H18F16581   4.430   1.548   4.597 -1.4483 -1.2289  0.5682
  149OSM   H18G16582   4.295   1.640   4.633  1.0981 -2.7674  0.0567
  149OSM   H18H16583   4.467   1.697   4.660  0.6150 -0.8465 -0.0886
  150OSM      N16584   6.697   5.654   1.894  0.4537 -0.7211  0.3169
  150OSM    C1516585   6.612   5.777   1.897  0.2260 -0.8336  1.0649
  150OSM   H15A16586   6.606   5.823   1.800 -2.5600  0.4339  1.7404
  150OSM   H15B16587   6.644   5.850   1.970  1.4943 -0.7895  0.4917
  150OSM   H15C16588   6.512   5.744   1.918  0.7026 -2.0975  1.4609
  150OSM    C1416589   6.645   5.554   1.796 -0.2123  0.6206  0.4098
  150OSM   H14A16590   6.543   5.523   1.812  0.0985 -0.9626 -0.4569
  150OSM   H14B16591   6.712   5.469   1.794 -1.2933 -0.3224 -3.1758
  150OSM   H14C16592   6.648   5.591   1.695 -2.5668 -1.4034 -0.4884
  150OSM    C1316593   6.837   5.704   1.849 -0.1373 -0.2036  0.2033
  150OSM   H13A16594   6.876   5.773   1.923 -2.1402 -0.1602  1.2790
  150OSM   H13B16595   6.830   5.755   1.755 -0.9581  0.1127  0.4292
  150OSM   H13C16596   6.902   5.619   1.838 -1.2641 -0.9869 -0.5704
  150OSM    C1216597   6.711   5.605   2.034 -0.2334  0.0536  0.7409
  150OSM   H12A16598   6.742   5.680   2.105  0.2068 -1.0080  1.7198
  150OSM   H12B16599   6.788   5.529   2.029  1.2192  1.5344 -2.9679
  150OSM    C1116600   6.581   5.553   2.095  0.1445  0.5149 -0.2538
  150OSM   H11A16601   6.491   5.618   2.086 -0.9155 -0.9614 -0.6164
  150OSM   H11B16602   6.609   5.553   2.203 -0.1070  0.8405 -0.1868
  150OSM      P16603   6.604   5.297   2.107 -0.2143 -0.1072  0.1176
  150OSM    O1316604   6.513   5.188   2.072 -0.7001 -0.3381 -0.4901
  150OSM    O1416605   6.750   5.278   2.081 -0.3389  0.1650 -1.1260
  150OSM    O1116606   6.582   5.331   2.265  0.5721 -0.2356 -0.1880
  150OSM    O1216607   6.551   5.426   2.048  0.1823 -0.1611  0.4041
  150OSM    C1S16608   6.616   5.229   2.357 -0.6386  0.0457 -0.4297
  150OSM    H1S16609   6.724   5.203   2.359 -0.9203 -1.2745 -1.0397
  150OSM    H1T16610   6.564   5.134   2.334 -3.1668  1.2102  0.1385
  150OSM     NF16611   6.601   5.161   2.604  0.1419  0.0752 -1.1850
  150OSM    HNF16612   6.526   5.114   2.650  0.5726  1.5212  1.1661
  150OSM    C2S16613   6.582   5.269   2.510 -0.5553  0.5483  0.3058
  150OSM    H2S16614   6.643   5.359   2.536 -3.4875  2.3818  1.2546
  150OSM    C3S16615   6.440   5.333   2.517 -0.7663  0.0744  0.4952
  150OSM    H3S16616   6.367   5.263   2.471 -0.8645  0.4083  0.1358
  150OSM     O316617   6.420   5.446   2.439 -0.6425  0.1943  0.2532
  150OSM    HO316618   6.457   5.423   2.353 -1.7794  2.3406 -0.9007
  150OSM    C4S16619   6.399   5.368   2.654 -0.2152 -0.1657 -0.1502
  150OSM    H4S16620   6.344   5.284   2.698 -0.2440  0.2923  0.7193
  150OSM    C5S16621   6.451   5.474   2.723  0.0896 -0.3195  0.6292
  150OSM    H5S16622   6.518   5.546   2.673 -1.5184  0.8029  0.0237
  150OSM    C6S16623   6.414   5.510   2.861 -0.6655  0.0047 -0.5367
  150OSM    H6S16624   6.347   5.436   2.909 -1.6826  0.9870 -0.3791
  150OSM    H6T16625   6.355   5.603   2.877  0.5197  0.3472  2.4052
  150OSM    C7S16626   6.536   5.532   2.950  0.1336  0.3385 -0.1198
  150OSM    H7S16627   6.591   5.615   2.901  1.5257  0.1279  1.0328
  150OSM    H7T16628   6.603   5.444   2.966 -0.1842  0.1974  0.4448
  150OSM    C8S16629   6.501   5.580   3.091 -0.6800 -0.2847  0.0511
  150OSM    H8S16630   6.446   5.504   3.150 -0.3886  1.0155  2.0907
  150OSM    H8T16631   6.445   5.673   3.069  1.3723  1.2993  1.1466
  150OSM    C9S16632   6.634   5.623   3.167  0.5038  0.2195  0.2406
  150OSM    H9S16633   6.607   5.677   3.260  3.3141  2.5146 -0.1532
  150OSM    H9T16634   6.693   5.691   3.103  2.2924 -0.1323  1.4468
  150OSM   C10S16635   6.724   5.503   3.203 -0.2995  0.1912  0.5126
  150OSM   H10S16636   6.791   5.478   3.119 -0.0259 -1.1352  1.0930
  150OSM   H10T16637   6.656   5.415   3.196  0.4640 -0.2782 -1.6155
  150OSM   C11S16638   6.794   5.509   3.341  0.7497  0.7078  0.2132
  150OSM   H11S16639   6.886   5.569   3.328  1.2261 -0.3055 -1.2767
  150OSM   H11T16640   6.841   5.410   3.361 -0.4610  0.2904  1.1715
  150OSM   C12S16641   6.708   5.547   3.455  0.0469 -0.6714  0.2494
  150OSM   H12S16642   6.610   5.494   3.453  0.1385 -0.8685  0.7346
  150OSM   H12T16643   6.686   5.656   3.444  0.9024 -0.5867 -0.6892
  150OSM   C13S16644   6.786   5.537   3.586  0.7282  0.0839 -0.5313
  150OSM   H13S16645   6.883   5.591   3.589 -1.1431  3.7021  0.1997
  150OSM   H13T16646   6.801   5.430   3.612 -1.5572  0.0703  1.0465
  150OSM   C14S16647   6.700   5.590   3.702  0.4425  0.3755 -0.0421
  150OSM   H14S16648   6.590   5.576   3.691  0.5308 -0.3180 -0.0583
  150OSM   H14T16649   6.713   5.701   3.706  1.7909  0.3477 -2.3116
  150OSM   C15S16650   6.742   5.548   3.841 -0.5237  0.4186  0.1769
  150OSM   H15S16651   6.704   5.445   3.860  1.2571 -0.5205 -1.1117
  150OSM   H15T16652   6.684   5.613   3.911 -1.7591  0.0470 -0.4596
  150OSM   C16S16653   6.894   5.553   3.858  0.5472 -0.8135  0.3045
  150OSM   H16S16654   6.939   5.648   3.823 -0.6773  0.4918  2.0821
  150OSM   H16T16655   6.937   5.484   3.782 -0.5307 -0.7725 -0.3598
  150OSM   C17S16656   6.927   5.542   4.002 -0.5152 -0.5375 -0.6116
  150OSM   H17S16657   6.868   5.617   4.059  1.3057  1.3985 -1.1527
  150OSM   H17T16658   7.034   5.561   4.027 -0.6384 -1.7064  1.0337
  150OSM   C18S16659   6.912   5.406   4.065  0.1897  0.5082  0.0826
  150OSM   H18S16660   6.997   5.342   4.031  0.1692  1.2691 -1.4827
  150OSM   H18T16661   6.820   5.349   4.039  1.6012 -2.1666  0.5944
  150OSM   H18U16662   6.918   5.405   4.176 -0.5581  0.3404  0.1274
  150OSM    C1F16663   6.725   5.123   2.634  0.7798 -0.2759  0.2513
  150OSM     OF16664   6.827   5.179   2.586  0.2947 -0.1498  0.1617
  150OSM    C2F16665   6.733   4.999   2.712  0.9120  0.8551 -0.1474
  150OSM    H2F16666   6.703   4.908   2.657 -0.3238  0.9689  0.2936
  150OSM    H2G16667   6.654   5.010   2.790  0.6743  0.0573 -0.2708
  150OSM    C3F16668   6.870   4.979   2.783  0.6730 -0.1024  0.1073
  150OSM    H3F16669   6.950   4.972   2.707  0.7954 -0.3086  0.2537
  150OSM    H3G16670   6.859   4.877   2.827 -1.4997  0.5053  1.1335
  150OSM    C4F16671   6.903   5.071   2.898  0.0056 -0.0642 -0.4424
  150OSM    H4F16672   6.812   5.131   2.918 -1.8633 -3.0406  0.5475
  150OSM    H4G16673   6.996   5.125   2.872 -0.9847  0.6250 -2.7884
  150OSM    C5F16674   6.924   4.996   3.022  0.4210 -0.2355  0.5618
  150OSM    H5F16675   6.990   4.912   2.992  1.2279  0.5891 -0.0264
  150OSM    H5G16676   6.832   4.951   3.065  0.1876  2.2556  2.9567
  150OSM    C6F16677   7.011   5.080   3.128  0.2261  0.5038  0.4023
  150OSM    H6F16678   6.971   5.181   3.153  0.7245  0.6833  0.4865
  150OSM    H6G16679   7.105   5.118   3.083  0.7430  0.3720  1.3319
  150OSM    C7F16680   7.048   4.998   3.251 -0.5580 -0.7406 -0.0877
  150OSM    H7F16681   7.090   4.900   3.219 -0.5003 -0.2082 -1.7263
  150OSM    H7G16682   6.953   4.976   3.304 -0.9590 -0.3860 -0.6485
  150OSM    C8F16683   7.157   5.065   3.332 -0.1170  0.0876 -0.2267
  150OSM    H8F16684   7.251   5.098   3.283  0.9736  0.8641  2.2408
  150OSM    H8G16685   7.198   4.995   3.408 -2.2195 -0.3518  0.5630
  150OSM    C9F16686   7.092   5.182   3.403 -0.0664  0.0638  0.1276
  150OSM    H9F16687   7.095   5.275   3.344  0.5482 -0.8502 -1.3243
  150OSM   C10F16688   7.034   5.191   3.521 -0.0860  0.4527 -0.5901
  150OSM   H10F16689   7.004   5.292   3.552 -0.6403  0.3247 -0.6975
  150OSM   C11F16690   7.020   5.084   3.628 -0.7021 -0.3554 -0.1939
  150OSM   H11F16691   7.007   4.986   3.576  0.4030 -0.0147 -1.1509
  150OSM   H11G16692   6.927   5.089   3.689 -0.4757 -2.2404  0.3663
  150OSM   C12F16693   7.139   5.067   3.719  0.0211  0.7127  0.3976
  150OSM   H12F16694   7.181   5.156   3.770  1.6745 -0.3509  0.9722
  150OSM   H12G16695   7.219   5.022   3.656  0.5951  0.2058  1.4563
  150OSM   C13F16696   7.113   4.979   3.844  0.2386 -0.1919 -0.1844
  150OSM   H13F16697   7.209   4.966   3.899  1.7445  2.6448 -1.8941
  150OSM   H13G16698   7.072   4.882   3.808  1.0183 -0.3520 -0.6709
  150OSM   C14F16699   7.011   5.041   3.938 -0.5471  0.4116 -0.9039
  150OSM   H14F16700   6.909   5.065   3.901 -0.7537 -0.7475 -1.1297
  150OSM   H14G16701   7.056   5.127   3.992 -2.2896  1.0204 -0.3683
  150OSM   C15F16702   6.985   4.941   4.062 -0.2103  0.8824  0.4654
  150OSM   H15F16703   7.067   4.883   4.111 -1.9421 -1.7148  0.4952
  150OSM   H15G16704   6.926   4.864   4.008  0.7829  0.0623  0.5299
  150OSM   C16F16705   6.891   5.009   4.162  1.1432 -0.5321  0.0678
  150OSM   H16F16706   6.820   4.935   4.204 -0.0407  0.4724 -0.1136
  150OSM   H16G16707   6.837   5.090   4.110  0.9500  0.5839  1.9411
  150OSM   C17F16708   6.956   5.089   4.276  0.2327  0.3558 -0.4258
  150OSM   H17F16709   7.000   5.180   4.228  1.3698  0.7449  1.2532
  150OSM   H17G16710   7.043   5.033   4.317 -0.3020  0.1145  0.4032
  150OSM   C18F16711   6.858   5.118   4.396  0.5771  0.5597 -0.1617
  150OSM   H18F16712   6.818   5.023   4.438  1.9247  0.1538  0.2721
  150OSM   H18G16713   6.771   5.174   4.357  0.2492 -0.1341 -0.4366
  150OSM   H18H16714   6.912   5.164   4.482 -1.6869  0.0863  1.5987
  151OSM      N16715   0.172   4.387   2.095 -0.6027 -0.6380 -0.0109
  151OSM    C1516716   0.148   4.457   1.966 -0.6840 -0.3009 -0.4747
  151OSM   H15A16717   0.234   4.448   1.902  1.6634  1.6841  2.1796
  151OSM   H15B16718   0.131   4.563   1.978  0.7848  0.1358 -1.8451
  151OSM   H15C16719   0.061   4.406   1.926 -0.4621 -1.5103  0.5150
  151OSM    C1416720   0.165   4.241   2.056  0.4404  0.2392  0.1421
  151OSM   H14A16721   0.061   4.219   2.037  0.2227  2.1686 -1.2993
  151OSM   H14B16722   0.199   4.179   2.138 -1.5986 -0.3992  0.5684
  151OSM   H14C16723   0.218   4.232   1.962 -1.1961 -0.5097 -0.7445
  151OSM    C1316724   0.307   4.424   2.138 -0.3948  0.2753  0.0737
  151OSM   H13A16725   0.301   4.526   2.175 -1.4794 -0.3771  1.7878
  151OSM   H13B16726   0.377   4.423   2.056 -1.2496  0.9478 -0.6900
  151OSM   H13C16727   0.342   4.374   2.227 -0.1772 -0.2109 -0.2820
  151OSM    C1216728   0.071   4.416   2.199 -0.0036  0.3176  0.0955
  151OSM   H12A16729   0.084   4.517   2.235  0.6474 -0.5063  2.2789
  151OSM   H12B16730   0.087   4.361   2.290  0.4674  1.8361  0.9548
  151OSM    C1116731  -0.080   4.417   2.168 -0.1154  0.1702 -0.2722
  151OSM   H11A16732  -0.090   4.472   2.072 -1.2599 -1.5642 -1.2074
  151OSM   H11B16733  -0.126   4.479   2.247  3.3574  3.0328 -0.2551
  151OSM      P16734  -0.186   4.200   2.280  0.0925 -0.0174 -0.0648
  151OSM    O1316735  -0.328   4.234   2.308 -0.0812 -0.6916  0.1357
  151OSM    O1416736  -0.164   4.058   2.259  0.5520 -0.2492  0.6838
  151OSM    O1116737  -0.092   4.243   2.402  0.3066 -0.4946 -0.0943
  151OSM    O1216738  -0.128   4.284   2.161 -0.6756  0.3088  0.8177
  151OSM    C1S16739  -0.099   4.175   2.528 -0.0994  0.9930 -0.5205
  151OSM    H1S16740  -0.067   4.068   2.522 -0.8945  0.5559  1.7814
  151OSM    H1T16741  -0.205   4.186   2.561 -1.2303 -3.5004 -1.9052
  151OSM     NF16742  -0.027   4.185   2.767 -0.1864 -0.2511  0.8284
  151OSM    HNF16743  -0.091   4.241   2.820 -2.3481  0.3745 -2.2236
  151OSM    C2S16744   0.007   4.232   2.637  0.4429 -0.2253  0.6950
  151OSM    H2S16745   0.113   4.208   2.613 -0.2946 -2.3471 -0.7302
  151OSM    C3S16746  -0.006   4.387   2.636  0.2790 -0.4865  0.2949
  151OSM    H3S16747  -0.109   4.421   2.662  0.7404  2.1942 -1.0517
  151OSM     O316748   0.013   4.449   2.509 -0.0526 -0.3096  0.3407
  151OSM    HO316749  -0.008   4.375   2.452  1.7664 -0.2565 -0.4539
  151OSM    C4S16750   0.099   4.451   2.726  0.7368 -0.1438  0.1110
  151OSM    H4S16751   0.198   4.429   2.683 -1.3739 -1.8318 -4.7099
  151OSM    C5S16752   0.081   4.548   2.819 -0.1164 -0.1518  0.2811
  151OSM    H5S16753  -0.022   4.577   2.842 -0.6500 -1.5560 -0.2080
  151OSM    C6S16754   0.191   4.627   2.889  0.2649  0.1786 -0.3071
  151OSM    H6S16755   0.182   4.734   2.863  0.3189  0.0768 -0.7527
  151OSM    H6T16756   0.295   4.601   2.861  0.1181  0.1581 -0.8349
  151OSM    C7S16757   0.194   4.616   3.045  0.2564 -0.1528  0.4494
  151OSM    H7S16758   0.189   4.508   3.070 -1.4777 -0.6791 -1.8808
  151OSM    H7T16759   0.099   4.667   3.074  0.9177  0.1478  2.2445
  151OSM    C8S16760   0.308   4.683   3.117 -0.0038 -0.7092 -0.4134
  151OSM    H8S16761   0.309   4.793   3.100 -2.2327  0.0684  3.2740
  151OSM    H8T16762   0.409   4.643   3.091  0.0131  0.5773 -2.6008
  151OSM    C9S16763   0.284   4.662   3.257  0.1594  0.3728 -0.0577
  151OSM    H9S16764   0.275   4.552   3.267 -2.7408  0.4920 -0.3139
  151OSM    H9T16765   0.188   4.709   3.288  1.6367  2.4332  1.7448
  151OSM   C10S16766   0.389   4.727   3.348  0.3685  0.1396 -0.8061
  151OSM   H10S16767   0.406   4.836   3.335  0.4489  0.0145 -1.7983
  151OSM   H10T16768   0.485   4.674   3.335  0.3624  0.5660 -2.8942
  151OSM   C11S16769   0.357   4.694   3.496  0.3675 -0.7943  0.1787
  151OSM   H11S16770   0.319   4.590   3.498  0.0750 -0.6970 -0.2752
  151OSM   H11T16771   0.281   4.758   3.546  1.3894  0.1556  0.5603
  151OSM   C12S16772   0.488   4.691   3.585  0.3152  0.3799 -0.2371
  151OSM   H12S16773   0.532   4.794   3.582  1.5131 -0.1284 -1.1683
  151OSM   H12T16774   0.558   4.616   3.543 -1.9090 -2.6874  1.2357
  151OSM   C13S16775   0.460   4.668   3.741  0.8147 -0.3319 -0.1477
  151OSM   H13S16776   0.428   4.562   3.753  0.2921 -0.6177 -3.3503
  151OSM   H13T16777   0.365   4.718   3.768 -0.4687 -1.4921 -2.2411
  151OSM   C14S16778   0.589   4.698   3.823 -0.2859  0.7529 -0.4463
  151OSM   H14S16779   0.607   4.805   3.799  0.6315  0.5955 -0.4904
  151OSM   H14T16780   0.672   4.644   3.774 -1.1304  1.1772 -2.4226
  151OSM   C15S16781   0.603   4.670   3.967 -0.3805  0.2861  0.2724
  151OSM   H15S16782   0.700   4.703   4.008 -1.4460  0.7437  2.6304
  151OSM   H15T16783   0.596   4.559   3.968 -1.8132  0.3185 -1.5373
  151OSM   C16S16784   0.487   4.729   4.053  0.3554 -0.0204  0.0832
  151OSM   H16S16785   0.437   4.810   3.995  1.5089  1.0280  0.5108
  151OSM   H16T16786   0.533   4.779   4.140 -1.2992 -0.5566  1.3102
  151OSM   C17S16787   0.382   4.616   4.072 -0.0648  0.7931 -0.0924
  151OSM   H17S16788   0.373   4.570   3.972 -1.6011  1.9134 -0.5177
  151OSM   H17T16789   0.292   4.677   4.095  0.3119  2.3673 -2.3976
  151OSM   C18S16790   0.414   4.508   4.179 -0.3230  0.3652  0.1506
  151OSM   H18S16791   0.364   4.522   4.277  0.4005 -1.5557  0.8292
  151OSM   H18T16792   0.521   4.480   4.180 -0.5007 -0.3087  1.9151
  151OSM   H18U16793   0.357   4.427   4.129 -0.6628  0.2861  0.6642
  151OSM    C1F16794   0.004   4.059   2.799  0.2848  1.2602 -0.1836
  151OSM     OF16795   0.043   3.978   2.714  0.4926 -0.1567  0.1687
  151OSM    C2F16796  -0.024   4.018   2.942  0.1168  0.2623  0.3977
  151OSM    H2F16797  -0.133   4.032   2.962 -0.3081 -0.7113 -1.0795
  151OSM    H2G16798   0.024   4.098   3.002 -0.6649  0.6019  0.5934
  151OSM    C3F16799   0.018   3.871   2.969  0.4208 -0.1935 -0.2231
  151OSM    H3F16800   0.128   3.861   2.961  0.8325  2.1887  1.3002
  151OSM    H3G16801  -0.020   3.800   2.892  0.5423 -1.1220  0.5600
  151OSM    C4F16802  -0.025   3.810   3.102  0.7111  0.1672  0.6462
  151OSM    H4F16803   0.009   3.705   3.104  0.9431  0.1635 -1.3468
  151OSM    H4G16804  -0.136   3.810   3.107  0.7415 -0.0918  1.4750
  151OSM    C5F16805   0.025   3.887   3.218  0.5605 -0.3507  0.0972
  151OSM    H5F16806  -0.029   3.983   3.229 -0.0737 -0.7906  0.9759
  151OSM    H5G16807   0.131   3.906   3.191  0.6953 -0.4102  0.5612
  151OSM    C6F16808   0.027   3.805   3.347  0.1551  0.3174  0.1919
  151OSM    H6F16809   0.108   3.731   3.331 -0.2561  0.2918 -2.1622
  151OSM    H6G16810  -0.069   3.755   3.370  1.7089 -2.6017  0.8442
  151OSM    C7F16811   0.060   3.891   3.475 -0.2738  0.1580  0.1536
  151OSM    H7F16812  -0.018   3.968   3.494  0.0859  0.8341 -1.0345
  151OSM    H7G16813   0.156   3.945   3.463  0.8724 -1.5871  1.0704
  151OSM    C8F16814   0.084   3.803   3.599 -0.4238 -0.6235  0.0973
  151OSM    H8F16815   0.169   3.734   3.582  0.2666  0.1211  0.4658
  151OSM    H8G16816  -0.007   3.739   3.608  0.1474 -1.5299 -0.5075
  151OSM    C9F16817   0.103   3.891   3.719 -0.2094 -0.2544  0.6272
  151OSM    H9F16818   0.069   3.995   3.706  3.9176  1.2637  0.5397
  151OSM   C10F16819   0.137   3.846   3.843  0.4442 -0.4394 -0.2069
  151OSM   H10F16820   0.162   3.921   3.920 -1.0932 -1.3320  1.2191
  151OSM   C11F16821   0.156   3.702   3.874  0.0463  0.7858  0.6068
  151OSM   H11F16822   0.176   3.645   3.781  1.0051  0.0180  1.2632
  151OSM   H11G16823   0.062   3.660   3.916  0.4754  0.6470  1.4451
  151OSM   C12F16824   0.276   3.685   3.980 -0.2411  0.1023 -0.4657
  151OSM   H12F16825   0.247   3.739   4.072 -1.2920 -0.4387 -0.4568
  151OSM   H12G16826   0.369   3.734   3.944  0.2437 -0.3969  0.0923
  151OSM   C13F16827   0.309   3.533   4.004  0.0439 -0.4411  0.2227
  151OSM   H13F16828   0.217   3.494   4.054 -1.8793  0.6830 -2.1970
  151OSM   H13G16829   0.392   3.535   4.077  0.1443 -0.4322  0.1083
  151OSM   C14F16830   0.337   3.438   3.889  0.4078  0.6497 -0.0682
  151OSM   H14F16831   0.418   3.482   3.827 -0.0992 -0.9036 -1.9306
  151OSM   H14G16832   0.246   3.433   3.826 -1.5995  0.2657  2.7109
  151OSM   C15F16833   0.382   3.294   3.935 -1.3471  0.9840  0.8513
  151OSM   H15F16834   0.431   3.244   3.849 -0.0200  2.4020  0.7327
  151OSM   H15G16835   0.289   3.238   3.957 -0.2907 -1.8428 -1.2207
  151OSM   C16F16836   0.483   3.295   4.054 -0.3132  0.5967 -0.0129
  151OSM   H16F16837   0.437   3.340   4.144 -2.3296  1.5211 -1.4394
  151OSM   H16G16838   0.568   3.363   4.029  0.5060 -0.2457  0.3973
  151OSM   C17F16839   0.537   3.147   4.091 -0.2346 -0.8157  0.2686
  151OSM   H17F16840   0.446   3.093   4.124 -0.7663  0.8333  1.6619
  151OSM   H17G16841   0.601   3.170   4.179 -0.8590  0.1440  0.4817
  151OSM   C18F16842   0.596   3.074   3.977  0.0442  0.7342 -0.5919
  151OSM   H18F16843   0.654   2.993   4.026 -1.3679  1.8907  3.3752
  151OSM   H18G16844   0.655   3.149   3.921  2.1682  1.5254  2.4586
  151OSM   H18H16845   0.523   3.021   3.912  0.3072  1.1710 -1.2476
  152OSM      N16846   1.013   2.435   2.346  0.0115 -0.8197  0.6972
  152OSM    C1516847   0.871   2.450   2.300  0.0449 -0.6462 -0.2788
  152OSM   H15A16848   0.878   2.476   2.196  2.4388 -0.4457 -0.1186
  152OSM   H15B16849   0.821   2.531   2.352 -0.4075  1.7170 -4.0088
  152OSM   H15C16850   0.816   2.358   2.312 -0.2493 -0.4039  0.2700
  152OSM    C1416851   1.011   2.379   2.476 -0.3664  0.0797 -0.5572
  152OSM   H14A16852   1.112   2.367   2.513  0.6146  0.6567 -2.8819
  152OSM   H14B16853   0.966   2.281   2.469  1.4814 -0.7993 -0.8660
  152OSM   H14C16854   0.949   2.431   2.548  0.0263  0.8549 -0.7676
  152OSM    C1316855   1.077   2.356   2.241  0.2457  0.1851  0.3396
  152OSM   H13A16856   1.035   2.257   2.242 -1.2383  0.7911  1.3657
  152OSM   H13B16857   1.184   2.359   2.257  0.1918  0.7502  0.6363
  152OSM   H13C16858   1.047   2.386   2.142  0.6830  0.8670  0.4055
  152OSM    C1216859   1.087   2.573   2.348 -0.1780 -0.4638 -0.6072
  152OSM   H12A16860   1.051   2.630   2.264 -2.3947  0.2137  0.7049
  152OSM   H12B16861   1.195   2.561   2.342  0.0623  1.5560 -0.9877
  152OSM    C1116862   1.063   2.662   2.476 -0.2545 -0.1663 -0.3645
  152OSM   H11A16863   1.140   2.742   2.477 -0.7021  0.3019 -1.5395
  152OSM   H11B16864   1.091   2.608   2.569  0.3117 -0.6698 -0.8141
  152OSM      P16865   0.895   2.839   2.396 -0.0771 -0.4812 -0.1964
  152OSM    O1316866   0.919   2.807   2.250 -0.2612  0.3645  0.2501
  152OSM    O1416867   0.764   2.894   2.425  0.7019  0.1115  0.0947
  152OSM    O1116868   1.011   2.940   2.440 -0.1663  0.3977 -0.7154
  152OSM    O1216869   0.930   2.714   2.487  0.0344  0.0809 -0.0131
  152OSM    C1S16870   1.025   2.998   2.566  0.4449  0.4176  0.6162
  152OSM    H1S16871   1.035   2.911   2.634 -0.9663  0.2536  0.6421
  152OSM    H1T16872   0.940   3.062   2.597  0.8376  1.6314 -0.6789
  152OSM     NF16873   1.177   3.122   2.712 -0.4330 -0.3007 -0.6586
  152OSM    HNF16874   1.163   3.219   2.731 -1.6133 -0.3172 -1.3735
  152OSM    C2S16875   1.161   3.082   2.575 -0.2239  0.5269  0.1059
  152OSM    H2S16876   1.248   3.023   2.538 -1.8176 -0.6432 -2.0384
  152OSM    C3S16877   1.149   3.201   2.484 -0.0192  0.3622 -0.0390
  152OSM    H3S16878   1.057   3.257   2.509  0.0021  0.2451  0.3114
  152OSM     O316879   1.147   3.172   2.347  0.2130 -0.2231  0.4519
  152OSM    HO316880   1.153   3.076   2.342  2.4464 -0.0692 -2.5266
  152OSM    C4S16881   1.264   3.299   2.512 -0.0479  1.3173  0.3156
  152OSM    H4S16882   1.368   3.263   2.504 -0.3398  0.6363 -0.6488
  152OSM    C5S16883   1.238   3.428   2.539  0.7794 -0.3936 -0.1144
  152OSM    H5S16884   1.135   3.467   2.537  1.6317  2.0038 -2.0592
  152OSM    C6S16885   1.345   3.534   2.559  0.3307  0.0961 -0.4153
  152OSM    H6S16886   1.325   3.613   2.483  1.2665  0.3085 -0.4573
  152OSM    H6T16887   1.444   3.490   2.534  1.1586  0.8102  1.4388
  152OSM    C7S16888   1.345   3.606   2.699 -0.1802  0.1137  0.1487
  152OSM    H7S16889   1.330   3.533   2.781  1.9986  0.0817  0.5917
  152OSM    H7T16890   1.250   3.662   2.685  0.3559  0.9161 -0.4092
  152OSM    C8S16891   1.458   3.705   2.719  0.2573  0.5078  0.3302
  152OSM    H8S16892   1.486   3.754   2.623  2.0068 -0.4695  0.3073
  152OSM    H8T16893   1.548   3.653   2.759  0.2319  0.0918 -0.1479
  152OSM    C9S16894   1.429   3.811   2.827 -0.4033  0.0053  0.0847
  152OSM    H9S16895   1.334   3.866   2.810  0.4985  1.7625  0.5518
  152OSM    H9T16896   1.511   3.885   2.814 -1.1992  1.3965  2.4584
  152OSM   C10S16897   1.445   3.752   2.964 -0.2790  0.5819  0.6698
  152OSM   H10S16898   1.543   3.701   2.972 -1.2289 -1.7793 -1.2904
  152OSM   H10T16899   1.376   3.665   2.974 -1.5436  1.5939  1.1198
  152OSM   C11S16900   1.418   3.858   3.078  0.2355  0.1802  0.6986
  152OSM   H11S16901   1.312   3.894   3.074  0.1721 -0.0782 -0.7998
  152OSM   H11T16902   1.488   3.943   3.064 -1.2238  1.5290  1.1757
  152OSM   C12S16903   1.434   3.805   3.219 -0.1599 -0.2092 -0.3373
  152OSM   H12S16904   1.536   3.765   3.236  0.2519  0.4957 -1.1237
  152OSM   H12T16905   1.366   3.719   3.239  0.7155 -0.4523  1.9251
  152OSM   C13S16906   1.407   3.916   3.326  0.2623 -0.2875  0.7744
  152OSM   H13S16907   1.297   3.930   3.325  0.4439  1.3518 -0.9732
  152OSM   H13T16908   1.458   4.007   3.289 -0.9948 -0.7868 -2.6147
  152OSM   C14S16909   1.445   3.875   3.467  0.1041 -0.2717 -0.2690
  152OSM   H14S16910   1.549   3.836   3.472  0.1154 -0.1292  1.2175
  152OSM   H14T16911   1.371   3.802   3.506 -0.0271  0.2112  0.3917
  152OSM   C15S16912   1.452   4.013   3.548 -0.7413  0.3932  0.0950
  152OSM   H15S16913   1.421   3.991   3.652  1.4118 -0.7563  0.5473
  152OSM   H15T16914   1.380   4.089   3.509 -2.3513 -1.5433 -0.8794
  152OSM   C16S16915   1.599   4.065   3.566  0.7189  0.4483  0.0284
  152OSM   H16S16916   1.642   4.078   3.465  2.0522  2.1446  0.7678
  152OSM   H16T16917   1.644   3.982   3.625 -0.7865  0.9694  2.0159
  152OSM   C17S16918   1.631   4.199   3.640  0.6252 -0.3093  0.2361
  152OSM   H17S16919   1.741   4.209   3.628  0.4329  0.2275 -1.3871
  152OSM   H17T16920   1.600   4.191   3.746  0.5333  1.4963  0.3835
  152OSM   C18S16921   1.565   4.325   3.583 -0.3527 -0.1912  0.0782
  152OSM   H18S16922   1.454   4.314   3.582 -0.3386 -0.3491  0.1357
  152OSM   H18T16923   1.597   4.346   3.479  3.1177 -0.3837  0.9850
  152OSM   H18U16924   1.587   4.412   3.648 -1.3478  1.9992 -2.3270
  152OSM    C1F16925   1.218   3.041   2.809  0.1871  0.2756  0.5496
  152OSM     OF16926   1.262   2.926   2.785  0.1480 -0.4966  0.0098
  152OSM    C2F16927   1.221   3.096   2.947  0.1991  0.4482 -1.1377
  152OSM    H2F16928   1.170   3.193   2.963  2.3848  1.2416  1.7785
  152OSM    H2G16929   1.329   3.105   2.971  0.0754  3.1947 -1.3475
  152OSM    C3F16930   1.163   2.978   3.049 -0.7672 -0.6184  0.6597
  152OSM    H3F16931   1.229   2.890   3.033 -0.5466 -0.2370 -0.5948
  152OSM    H3G16932   1.064   2.949   3.008 -0.1296 -0.0278 -1.3875
  152OSM    C4F16933   1.153   3.018   3.196 -0.3477 -0.0252  0.8400
  152OSM    H4F16934   1.095   3.112   3.207  0.8322  0.5909  2.0329
  152OSM    H4G16935   1.257   3.037   3.231 -0.5836  1.6390  0.6975
  152OSM    C5F16936   1.078   2.915   3.285 -0.2553  0.6652  0.0852
  152OSM    H5F16937   1.112   2.810   3.275  0.8698  0.8081  1.9273
  152OSM    H5G16938   0.976   2.925   3.241 -0.2432 -0.5270 -0.2426
  152OSM    C6F16939   1.086   2.961   3.430 -0.1516 -0.2518  0.5191
  152OSM    H6F16940   0.994   2.932   3.484  0.7942 -1.1078  1.7214
  152OSM    H6G16941   1.082   3.072   3.435 -0.3839 -0.2043 -0.4087
  152OSM    C7F16942   1.202   2.910   3.514 -0.4781  0.5594 -0.2011
  152OSM    H7F16943   1.287   2.982   3.514  0.1999 -0.2176  0.4266
  152OSM    H7G16944   1.238   2.816   3.465  0.7987 -0.3544  2.3208
  152OSM    C8F16945   1.157   2.885   3.664 -0.2978  0.4907  0.9384
  152OSM    H8F16946   1.236   2.838   3.727  0.5394  0.7602  0.1098
  152OSM    H8G16947   1.071   2.815   3.669 -0.6206  0.6008 -1.7669
  152OSM    C9F16948   1.099   3.006   3.733  0.7502  0.6779  0.1764
  152OSM    H9F16949   1.079   3.093   3.669 -2.1242 -0.3155 -0.4554
  152OSM   C10F16950   1.069   3.014   3.866  0.4145  0.1289 -0.4812
  152OSM   H10F16951   1.038   3.110   3.910  0.1510 -0.4702  0.6837
  152OSM   C11F16952   1.083   2.910   3.967  0.5579 -0.6385 -0.5565
  152OSM   H11F16953   1.169   2.940   4.029 -0.9847 -0.2177  1.4719
  152OSM   H11G16954   1.099   2.807   3.928  0.9310 -0.0454 -2.0252
  152OSM   C12F16955   0.958   2.899   4.056  0.1540  0.6077  0.2138
  152OSM   H12F16956   0.966   2.795   4.094  1.4767  1.1972  1.6446
  152OSM   H12G16957   0.862   2.905   4.000  0.7496  1.4864 -0.7480
  152OSM   C13F16958   0.940   2.987   4.169  0.7032  0.1558 -0.9463
  152OSM   H13F16959   0.928   3.089   4.128 -1.3971  0.9141  1.2655
  152OSM   H13G16960   1.027   2.997   4.237 -0.8358  0.4954  1.1035
  152OSM   C14F16961   0.821   2.941   4.253  0.0556 -0.5945  0.3563
  152OSM   H14F16962   0.858   2.842   4.284 -0.9131 -2.0618 -2.7332
  152OSM   H14G16963   0.732   2.933   4.187  0.1399  0.1795  0.1304
  152OSM   C15F16964   0.789   3.038   4.368  0.0011  0.3120  0.6196
  152OSM   H15F16965   0.762   3.135   4.322  0.1713 -0.2727 -0.7847
  152OSM   H15G16966   0.880   3.054   4.430 -0.9383 -3.2388  3.2512
  152OSM   C16F16967   0.671   2.992   4.454 -0.2935  0.1595 -0.2938
  152OSM   H16F16968   0.698   2.897   4.504  1.5400  0.9225  0.2676
  152OSM   H16G16969   0.578   2.979   4.394 -0.5041  1.7378 -0.3476
  152OSM   C17F16970   0.648   3.092   4.565  0.6550  0.3838 -0.3591
  152OSM   H17F16971   0.621   3.192   4.524 -0.2633  0.8641  1.3225
  152OSM   H17G16972   0.754   3.096   4.598  1.3251 -3.7470 -1.4920
  152OSM   C18F16973   0.549   3.047   4.674  0.4935 -0.7540 -0.1706
  152OSM   H18F16974   0.591   2.969   4.741  0.6186 -1.7843 -1.4227
  152OSM   H18G16975   0.461   3.003   4.623 -0.2073 -0.0195  0.3727
  152OSM   H18H16976   0.513   3.137   4.729  0.8157  0.7903 -2.3617
  153OSM      N16977   0.825   3.926   2.015  0.0997 -0.0409  0.2345
  153OSM    C1516978   0.719   3.940   1.914  0.4021  0.0839 -0.2674
  153OSM   H15A16979   0.762   3.979   1.824  2.6240  0.4980  0.9189
  153OSM   H15B16980   0.638   4.008   1.937 -0.9547 -1.2025 -1.0338
  153OSM   H15C16981   0.672   3.843   1.902  1.4326 -0.1989 -2.5483
  153OSM    C1416982   0.913   3.815   1.961  0.4511 -0.4578 -0.5830
  153OSM   H14A16983   0.858   3.722   1.966 -0.5124  0.1119 -0.3404
  153OSM   H14B16984   0.982   3.793   2.041 -0.0241  0.5816  0.1324
  153OSM   H14C16985   0.947   3.828   1.859 -0.9342 -1.5004 -1.2155
  153OSM    C1316986   0.893   4.057   2.020  0.0399  0.4486  0.4661
  153OSM   H13A16987   0.982   4.045   2.080  0.2542  1.5409  0.3808
  153OSM   H13B16988   0.832   4.142   2.047 -0.7580  0.5279 -1.4522
  153OSM   H13C16989   0.931   4.092   1.926 -0.1722 -0.5420 -0.0080
  153OSM    C1216990   0.752   3.880   2.151 -0.4141 -0.0752  0.3960
  153OSM   H12A16991   0.707   3.783   2.141  0.0198 -0.7577  3.8203
  153OSM   H12B16992   0.667   3.943   2.170 -1.2920 -0.5154 -1.8113
  153OSM    C1116993   0.838   3.876   2.281 -0.0934  0.7368  0.2176
  153OSM   H11A16994   0.774   3.836   2.362 -0.7919 -0.4447 -0.8783
  153OSM   H11B16995   0.868   3.980   2.309 -2.6564  1.2854  1.1516
  153OSM      P16996   0.968   3.637   2.303  0.2119 -0.3397  0.1395
  153OSM    O1316997   0.842   3.570   2.257 -0.6129  0.8946  0.2048
  153OSM    O1416998   1.097   3.593   2.252 -0.5803 -0.4526  0.4033
  153OSM    O1116999   0.973   3.646   2.457  0.3942 -0.3208 -0.4230
  153OSM    O1217000   0.955   3.792   2.266  0.0800 -0.0857 -0.3966
  153OSM    C1S17001   0.902   3.562   2.541  0.8871 -0.2759 -0.5006
  153OSM    H1S17002   0.937   3.457   2.540  1.0127 -0.2337 -0.5693
  153OSM    H1T17003   0.795   3.564   2.510  0.5227 -1.0323  0.6967
  153OSM     NF17004   0.842   3.524   2.790 -0.1451 -0.1656  0.1136
  153OSM    HNF17005   0.743   3.525   2.799 -0.4840 -2.1367 -2.3265
  153OSM    C2S17006   0.896   3.611   2.685 -1.1521 -0.3911  0.7884
  153OSM    H2S17007   1.001   3.624   2.718 -1.6190 -0.5243  2.3799
  153OSM    C3S17008   0.856   3.765   2.688 -0.4685  0.3068  1.1175
  153OSM    H3S17009   0.749   3.766   2.658 -0.0881  1.6487 -0.3426
  153OSM     O317010   0.927   3.851   2.593 -0.1351  0.3754 -0.1467
  153OSM    HO317011   0.941   3.785   2.525 -0.2069 -0.4520  0.6224
  153OSM    C4S17012   0.854   3.820   2.831 -0.4263 -0.0580  0.9074
  153OSM    H4S17013   0.769   3.776   2.885 -2.3103  0.5772 -1.3777
  153OSM    C5S17014   0.942   3.889   2.899  0.4923  0.2497 -0.4243
  153OSM    H5S17015   1.043   3.912   2.865  1.8213 -3.4096  0.5766
  153OSM    C6S17016   0.904   3.918   3.046 -0.0104  0.4211  0.3003
  153OSM    H6S17017   0.793   3.910   3.051  0.1690 -2.8712  0.9917
  153OSM    H6T17018   0.929   4.021   3.082  0.2274  1.3003 -2.2238
  153OSM    C7S17019   0.972   3.816   3.138  0.0126  0.0898 -0.3076
  153OSM    H7S17020   1.075   3.795   3.103 -0.3905  1.0568 -2.2087
  153OSM    H7T17021   0.913   3.723   3.122  0.6314 -0.5076  0.8039
  153OSM    C8S17022   0.983   3.850   3.290  0.3008 -0.1003 -0.2124
  153OSM    H8S17023   1.001   3.959   3.297 -2.0669  0.3141  0.3326
  153OSM    H8T17024   1.065   3.789   3.332  0.8451 -0.1772 -1.3359
  153OSM    C9S17025   0.849   3.838   3.367  0.4828  0.6688 -0.3985
  153OSM    H9S17026   0.809   3.737   3.344 -1.6449  1.8132 -2.1575
  153OSM    H9T17027   0.775   3.907   3.321 -0.8051  0.1552  0.8351
  153OSM   C10S17028   0.857   3.863   3.517  0.1513 -0.4685  0.6277
  153OSM   H10S17029   0.884   3.968   3.544  0.0570 -1.0005  2.9345
  153OSM   H10T17030   0.936   3.801   3.564  1.2722  0.3901 -0.0684
  153OSM   C11S17031   0.724   3.830   3.594  0.1539 -0.4130  0.3872
  153OSM   H11S17032   0.704   3.722   3.582  0.3415 -0.2486 -2.0391
  153OSM   H11T17033   0.645   3.896   3.550 -0.9219  0.8568  3.8928
  153OSM   C12S17034   0.748   3.864   3.739  0.0705  0.5878 -0.0638
  153OSM   H12S17035   0.720   3.966   3.773  0.5090  0.6587  0.0963
  153OSM   H12T17036   0.854   3.850   3.769 -0.7658 -1.2054  2.4380
  153OSM   C13S17037   0.662   3.768   3.824 -0.0509  0.5546 -0.4373
  153OSM   H13S17038   0.722   3.674   3.814  0.0026  0.6574 -1.1028
  153OSM   H13T17039   0.562   3.748   3.780  0.5986 -0.0692 -1.6745
  153OSM   C14S17040   0.654   3.800   3.979 -0.1883 -0.0086  0.0202
  153OSM   H14S17041   0.581   3.724   4.016 -0.7792  0.5860  0.0980
  153OSM   H14T17042   0.617   3.904   3.993  3.3522  1.3406  0.1476
  153OSM   C15S17043   0.780   3.779   4.067 -0.5954 -0.3328  1.2864
  153OSM   H15S17044   0.864   3.830   4.016 -1.7528 -0.6503 -1.0793
  153OSM   H15T17045   0.792   3.669   4.078  1.3064 -0.8149 -3.2568
  153OSM   C16S17046   0.768   3.851   4.197  0.3438 -0.9123 -0.1248
  153OSM   H16S17047   0.688   3.808   4.262  0.2279 -1.7911 -0.8374
  153OSM   H16T17048   0.731   3.955   4.186 -0.2118 -0.7773  2.3969
  153OSM   C17S17049   0.897   3.863   4.289  0.4353  0.7097 -0.0917
  153OSM   H17S17050   0.987   3.891   4.230  0.2037 -1.1203 -1.3961
  153OSM   H17T17051   0.911   3.759   4.325 -0.8176 -0.1959 -2.0410
  153OSM   C18S17052   0.870   3.952   4.409  0.0316  0.4257  0.3075
  153OSM   H18S17053   0.830   4.050   4.376 -0.8052  0.3876  1.1620
  153OSM   H18T17054   0.963   3.974   4.466 -0.5908  1.8105  0.8293
  153OSM   H18U17055   0.794   3.899   4.470  1.6070 -3.0500 -0.4769
  153OSM    C1F17056   0.904   3.412   2.826 -0.5406  0.3146  0.2516
  153OSM     OF17057   1.022   3.385   2.788  0.0553  0.0366 -0.3211
  153OSM    C2F17058   0.828   3.313   2.904 -0.2336  0.0577  0.4715
  153OSM    H2F17059   0.869   3.212   2.881  3.7288  1.9664 -1.9823
  153OSM    H2G17060   0.727   3.310   2.859 -0.7053 -1.8901  1.5530
  153OSM    C3F17061   0.831   3.338   3.049  0.1356 -0.5932 -0.4068
  153OSM    H3F17062   0.792   3.252   3.108  1.1515 -1.3721 -0.8527
  153OSM    H3G17063   0.768   3.425   3.076  0.1460 -0.7405  0.1006
  153OSM    C4F17064   0.969   3.358   3.110 -0.5520 -0.3697  0.3798
  153OSM    H4F17065   1.026   3.434   3.051 -1.6027 -1.2409 -1.8707
  153OSM    H4G17066   1.028   3.264   3.101  0.9974  0.6358 -0.5473
  153OSM    C5F17067   0.964   3.405   3.259 -0.3129 -0.6604 -0.1727
  153OSM    H5F17068   0.926   3.324   3.324 -0.3507  1.1377  2.1937
  153OSM    H5G17069   0.892   3.488   3.279  3.0070  2.5119 -0.4020
  153OSM    C6F17070   1.098   3.448   3.311 -0.1927  0.1116 -0.7712
  153OSM    H6F17071   1.143   3.530   3.251 -0.4550 -1.1814 -2.8064
  153OSM    H6G17072   1.165   3.360   3.309 -1.6644 -1.0713  0.0493
  153OSM    C7F17073   1.090   3.494   3.457  0.9024  0.1040  0.5160
  153OSM    H7F17074   1.110   3.402   3.516  1.0666  0.7074  1.4186
  153OSM    H7G17075   0.991   3.540   3.473  1.1680  1.8497 -2.2241
  153OSM    C8F17076   1.199   3.591   3.496 -0.4864 -0.1715  0.8016
  153OSM    H8F17077   1.200   3.668   3.416 -1.0929 -1.3909 -0.4190
  153OSM    H8G17078   1.300   3.544   3.488  0.3297  1.6869 -0.5720
  153OSM    C9F17079   1.180   3.651   3.631 -0.5881  0.4659  0.2222
  153OSM    H9F17080   1.102   3.725   3.654 -0.2697  0.5343  1.1097
  153OSM   C10F17081   1.255   3.626   3.741  0.4648 -0.1703  0.3209
  153OSM   H10F17082   1.238   3.693   3.826  0.5764  0.3770 -0.0896
  153OSM   C11F17083   1.371   3.537   3.748  0.3895  0.8094 -0.4654
  153OSM   H11F17084   1.373   3.461   3.666 -2.4792  1.8805 -1.6482
  153OSM   H11G17085   1.363   3.486   3.846 -0.7732  1.1335 -0.3831
  153OSM   C12F17086   1.505   3.616   3.750 -0.1338 -0.4477  0.3225
  153OSM   H12F17087   1.511   3.675   3.656  0.5972 -2.3125 -0.8588
  153OSM   H12G17088   1.590   3.545   3.752 -1.3280 -1.9277  0.7336
  153OSM   C13F17089   1.525   3.698   3.878  1.0494  0.6415  0.2746
  153OSM   H13F17090   1.487   3.631   3.958  0.1639  0.9537  0.1231
  153OSM   H13G17091   1.458   3.786   3.874 -0.1620 -0.2600 -0.0111
  153OSM   C14F17092   1.664   3.753   3.903 -0.3221  0.1456 -0.1534
  153OSM   H14F17093   1.694   3.808   3.811 -2.5447 -1.0320 -1.6581
  153OSM   H14G17094   1.731   3.667   3.925 -1.0266 -0.4327 -0.2579
  153OSM   C15F17095   1.665   3.853   4.023 -0.5718  0.5019 -0.0169
  153OSM   H15F17096   1.764   3.852   4.072 -0.1155  0.7677 -0.9133
  153OSM   H15G17097   1.583   3.820   4.091 -1.5138  0.4156 -1.1445
  153OSM   C16F17098   1.655   3.994   3.965  0.1092  0.7439 -0.0443
  153OSM   H16F17099   1.559   4.009   3.912  0.3290  0.8287 -0.4232
  153OSM   H16G17100   1.748   4.012   3.906 -1.2800 -0.3976 -2.7698
  153OSM   C17F17101   1.663   4.111   4.071  0.2036  0.5579  0.3030
  153OSM   H17F17102   1.737   4.077   4.147 -0.7459  0.6615  1.3032
  153OSM   H17G17103   1.572   4.120   4.134  0.7771  3.1379  0.8658
  153OSM   C18F17104   1.721   4.242   4.034  0.1095 -0.3607 -0.1047
  153OSM   H18F17105   1.676   4.297   3.949 -0.6306  3.3224  2.4384
  153OSM   H18G17106   1.830   4.242   4.012 -0.0124  0.9466 -0.7890
  153OSM   H18H17107   1.715   4.315   4.118  0.2704 -0.3829 -0.0731
  154OSM      N17108   6.862   1.206   1.961 -0.0335 -0.5495  0.7337
  154OSM    C1517109   6.993   1.253   1.894  0.4410  0.1143 -0.3642
  154OSM   H15A17110   7.075   1.185   1.909  1.1541  0.8135 -0.9996
  154OSM   H15B17111   7.036   1.346   1.928 -0.4028  0.2454  0.4150
  154OSM   H15C17112   6.971   1.265   1.789  2.4315  1.2582 -0.6935
  154OSM    C1417113   6.765   1.312   1.935 -0.2871  0.0715  0.0271
  154OSM   H14A17114   6.665   1.278   1.955 -0.5554 -0.1337 -1.5793
  154OSM   H14B17115   6.776   1.349   1.834  2.3723 -0.6007 -0.0070
  154OSM   H14C17116   6.778   1.398   1.999 -0.5667  0.2850 -0.2035
  154OSM    C1317117   6.829   1.074   1.897  0.0206 -0.5608  0.6646
  154OSM   H13A17118   6.804   1.091   1.794  1.3537  4.2892  0.9012
  154OSM   H13B17119   6.736   1.045   1.946 -0.7168 -0.0075 -0.3757
  154OSM   H13C17120   6.907   1.001   1.913 -1.6671 -2.2661  1.5466
  154OSM    C1217121   6.874   1.176   2.111 -0.5502 -0.6367 -0.4442
  154OSM   H12A17122   6.901   1.265   2.165  1.1686 -0.1616 -1.9759
  154OSM   H12B17123   6.956   1.109   2.133 -0.2762  0.4736  2.2646
  154OSM    C1117124   6.753   1.118   2.184 -0.6843  0.9551  0.5710
  154OSM   H11A17125   6.774   1.095   2.290 -2.0449  0.2498  0.7160
  154OSM   H11B17126   6.737   1.015   2.146 -0.5517  0.2116  2.4227
  154OSM      P17127   6.612   1.336   2.257  0.0687 -0.1530  0.3399
  154OSM    O1317128   6.711   1.439   2.219 -0.4419  0.4002  0.2947
  154OSM    O1417129   6.474   1.380   2.255 -0.4964  0.3066 -0.3589
  154OSM    O1117130   6.645   1.288   2.404  0.3014 -0.2676  0.3151
  154OSM    O1217131   6.632   1.201   2.175 -0.6318 -0.2130 -0.3903
  154OSM    C1S17132   6.578   1.182   2.463 -0.7339  0.6682  0.0333
  154OSM    H1S17133   6.633   1.088   2.439 -0.5601  0.7522  0.1010
  154OSM    H1T17134   6.473   1.167   2.431 -0.8071  1.8950 -0.3387
  154OSM     NF17135   6.540   1.062   2.674 -0.4796  0.3244 -0.0788
  154OSM    HNF17136   6.446   1.054   2.707 -0.6633 -0.0065 -0.6731
  154OSM    C2S17137   6.586   1.189   2.618  0.4887  0.0393  0.3814
  154OSM    H2S17138   6.692   1.199   2.648  0.5116  0.6497  0.1089
  154OSM    C3S17139   6.507   1.312   2.665  1.0788 -0.1875  0.3217
  154OSM    H3S17140   6.402   1.289   2.637  1.3240 -1.1278  0.1692
  154OSM     O317141   6.533   1.436   2.598 -0.8520  0.1708 -0.5157
  154OSM    HO317142   6.608   1.410   2.544  0.5983 -0.5826  1.6987
  154OSM    C4S17143   6.507   1.317   2.811  0.6894 -0.7146  0.2816
  154OSM    H4S17144   6.420   1.261   2.850 -1.7043  0.6768 -2.6042
  154OSM    C5S17145   6.590   1.393   2.890  0.1887  0.6298  0.1831
  154OSM    H5S17146   6.676   1.440   2.841  1.7490 -0.1444  2.0399
  154OSM    C6S17147   6.570   1.422   3.036  0.9619 -0.2552  0.3422
  154OSM    H6S17148   6.562   1.531   3.056 -1.2389 -0.3068 -0.0157
  154OSM    H6T17149   6.651   1.381   3.101 -0.9209 -2.3849  1.5112
  154OSM    C7S17150   6.433   1.375   3.103  0.8714  0.1522 -0.1446
  154OSM    H7S17151   6.441   1.265   3.118  1.6540  0.4967  2.4043
  154OSM    H7T17152   6.344   1.404   3.043  0.4865  0.9600  0.7931
  154OSM    C8S17153   6.411   1.439   3.234 -0.2973  0.2704  0.1777
  154OSM    H8S17154   6.457   1.540   3.241 -0.9614  0.6065 -0.2034
  154OSM    H8T17155   6.458   1.375   3.312 -0.6611  0.5288  0.6109
  154OSM    C9S17156   6.261   1.450   3.267 -0.3267 -0.6780 -0.1554
  154OSM    H9S17157   6.211   1.355   3.238  3.0192 -2.3916 -0.8951
  154OSM    H9T17158   6.210   1.536   3.220  0.4705  1.4399  2.5929
  154OSM   C10S17159   6.239   1.466   3.421 -0.2646 -0.1923  0.5098
  154OSM   H10S17160   6.312   1.543   3.453  0.5544  0.4420 -2.4984
  154OSM   H10T17161   6.251   1.375   3.482 -1.2837 -0.1817  0.7510
  154OSM   C11S17162   6.097   1.524   3.448  0.3650 -0.3023  0.4582
  154OSM   H11S17163   6.017   1.456   3.412  1.1656 -0.3644 -1.3058
  154OSM   H11T17164   6.093   1.624   3.400 -0.4796 -0.2457  0.6262
  154OSM   C12S17165   6.069   1.525   3.603 -0.1102  1.0404  0.4774
  154OSM   H12S17166   6.110   1.425   3.630  1.0782  1.5493  0.5921
  154OSM   H12T17167   5.962   1.530   3.631  0.7400  1.0308  4.2773
  154OSM   C13S17168   6.132   1.650   3.671  0.0999 -0.5463 -0.3996
  154OSM   H13S17169   6.140   1.730   3.595  1.5837 -0.4935 -0.2211
  154OSM   H13T17170   6.240   1.628   3.687  0.1270  0.9411  1.8455
  154OSM   C14S17171   6.068   1.690   3.802  0.3436  0.0506 -0.0398
  154OSM   H14S17172   6.094   1.622   3.886 -0.3848 -0.4744 -0.2365
  154OSM   H14T17173   5.958   1.695   3.791  0.4322  0.9074 -0.6212
  154OSM   C15S17174   6.110   1.820   3.860  0.5624 -0.1017 -0.3225
  154OSM   H15S17175   6.045   1.849   3.946 -0.3234 -1.7309 -0.4149
  154OSM   H15T17176   6.087   1.909   3.799 -0.3894  0.9647  1.4828
  154OSM   C16S17177   6.251   1.823   3.907  0.1787  0.6733  0.8447
  154OSM   H16S17178   6.317   1.793   3.823 -0.3741  0.0005  0.6481
  154OSM   H16T17179   6.272   1.747   3.985  1.7450  0.4306  0.2226
  154OSM   C17S17180   6.298   1.963   3.961 -0.8032  0.6814 -0.3823
  154OSM   H17S17181   6.286   2.049   3.892  2.9472  1.4575 -0.2525
  154OSM   H17T17182   6.407   1.943   3.968 -0.9805 -0.0410  0.7313
  154OSM   C18S17183   6.244   2.005   4.103  0.7667  0.2146 -0.0681
  154OSM   H18S17184   6.153   2.060   4.073  1.2245 -0.4457 -2.9797
  154OSM   H18T17185   6.316   2.073   4.154  2.8105 -1.7955 -0.0893
  154OSM   H18U17186   6.216   1.916   4.163 -0.0357  0.3494 -0.2305
  154OSM    C1F17187   6.616   0.955   2.670  0.1711  0.0767  0.2902
  154OSM     OF17188   6.732   0.958   2.630 -0.0466 -0.7721 -0.2823
  154OSM    C2F17189   6.559   0.836   2.742  0.0827  0.2649  0.0761
  154OSM    H2F17190   6.552   0.753   2.668  0.1218 -0.4608  0.8700
  154OSM    H2G17191   6.462   0.856   2.793 -0.1975  0.5661 -0.5592
  154OSM    C3F17192   6.669   0.782   2.836 -0.2510 -1.0471 -1.0255
  154OSM    H3F17193   6.767   0.778   2.784  0.3806  1.5946 -0.2036
  154OSM    H3G17194   6.651   0.675   2.860 -1.1280 -0.9941 -1.4214
  154OSM    C4F17195   6.685   0.867   2.964  0.0562 -0.5370  0.1145
  154OSM    H4F17196   6.596   0.850   3.029 -0.1914 -0.9513 -0.3236
  154OSM    H4G17197   6.686   0.976   2.942 -1.3240 -0.6317 -0.5127
  154OSM    C5F17198   6.799   0.819   3.058  0.3599  0.1821  0.4238
  154OSM    H5F17199   6.895   0.832   3.005  0.4831  2.0600  1.0193
  154OSM    H5G17200   6.780   0.710   3.058 -1.4383  0.3720 -2.6127
  154OSM    C6F17201   6.800   0.875   3.195 -0.3539 -0.8388  0.2857
  154OSM    H6F17202   6.695   0.890   3.229 -0.6138 -3.2121  0.7659
  154OSM    H6G17203   6.852   0.973   3.188  0.8225 -1.5398 -1.3151
  154OSM    C7F17204   6.875   0.769   3.280 -0.0016 -0.0225 -0.1651
  154OSM    H7F17205   6.967   0.734   3.229  0.9453  1.9097  0.1026
  154OSM    H7G17206   6.809   0.680   3.287 -0.4450  0.3684  1.0306
  154OSM    C8F17207   6.912   0.810   3.428 -0.8910  0.0017 -0.0512
  154OSM    H8F17208   6.991   0.888   3.418 -1.0267  0.2529  0.7309
  154OSM    H8G17209   6.970   0.725   3.471  1.4579  1.9957  0.9516
  154OSM    C9F17210   6.799   0.854   3.522 -0.2032  0.4019  0.2146
  154OSM    H9F17211   6.756   0.946   3.479  0.8393  0.7546 -0.1046
  154OSM   C10F17212   6.747   0.794   3.631  0.5827  0.4118  0.5212
  154OSM   H10F17213   6.659   0.842   3.675 -0.4086 -2.0057  1.3393
  154OSM   C11F17214   6.795   0.665   3.698  0.3863 -0.3805 -1.2633
  154OSM   H11F17215   6.893   0.633   3.656  0.0818 -1.6082 -1.0903
  154OSM   H11G17216   6.715   0.591   3.675  0.6679 -0.9947 -0.2975
  154OSM   C12F17217   6.799   0.669   3.856  0.3441  0.3825 -0.5343
  154OSM   H12F17218   6.871   0.750   3.881  2.0445 -0.6638 -1.8114
  154OSM   H12G17219   6.842   0.571   3.889  3.1210  0.6326 -2.9058
  154OSM   C13F17220   6.660   0.696   3.911  0.8801 -0.3571  0.4485
  154OSM   H13F17221   6.640   0.804   3.895 -1.7787 -0.5331  1.9611
  154OSM   H13G17222   6.664   0.681   4.021 -1.6278  2.1826  0.9841
  154OSM   C14F17223   6.542   0.614   3.858 -0.0015  0.4482 -0.1286
  154OSM   H14F17224   6.572   0.507   3.859  0.3076  0.5292 -0.4424
  154OSM   H14G17225   6.528   0.651   3.755  2.6050 -0.3213 -0.8444
  154OSM   C15F17226   6.412   0.628   3.937  0.2106 -0.0344 -0.4678
  154OSM   H15F17227   6.384   0.730   3.972  1.2381  0.4705 -1.1055
  154OSM   H15G17228   6.416   0.574   4.034  2.6776  0.0155 -0.4920
  154OSM   C16F17229   6.291   0.569   3.858  0.0726 -0.6460 -0.5911
  154OSM   H16F17230   6.326   0.467   3.833 -0.4394 -0.6854 -1.1647
  154OSM   H16G17231   6.302   0.632   3.767  3.7560 -0.0821  0.0683
  154OSM   C17F17232   6.148   0.584   3.914 -0.8339  0.0029 -0.5153
  154OSM   H17F17233   6.118   0.690   3.902 -4.0883 -0.5797  1.2418
  154OSM   H17G17234   6.154   0.568   4.024 -0.5105  0.4343 -0.4688
  154OSM   C18F17235   6.049   0.498   3.849  0.3351  0.1659 -0.2606
  154OSM   H18F17236   6.086   0.397   3.877  0.1773 -0.0595 -0.8619
  154OSM   H18G17237   6.047   0.504   3.738  0.2558 -2.7233 -0.4699
  154OSM   H18H17238   5.946   0.518   3.887  0.2107 -0.9858  0.0268
  155OSM      N17239   4.266   4.006   1.914  0.1057  0.0250  0.6238
  155OSM    C1517240   4.402   3.949   1.895  0.2757  0.0924  0.0794
  155OSM   H15A17241   4.473   4.029   1.887  0.9701 -0.4181  0.9997
  155OSM   H15B17242   4.409   3.888   1.806  1.1484  0.2713  0.0247
  155OSM   H15C17243   4.446   3.894   1.977  0.9079  2.6153  1.5296
  155OSM    C1417244   4.159   3.901   1.913 -1.0088 -0.2071 -0.4202
  155OSM   H14A17245   4.061   3.944   1.923 -0.5831  0.9850 -1.2043
  155OSM   H14B17246   4.170   3.832   1.996  1.2704  0.5735  0.0218
  155OSM   H14C17247   4.167   3.848   1.819  0.4996  0.9519 -0.9917
  155OSM    C1317248   4.244   4.074   2.043 -0.6442  0.4844  0.3600
  155OSM   H13A17249   4.143   4.110   2.058 -0.1024  2.1765  0.2061
  155OSM   H13B17250   4.296   4.169   2.043 -1.6438  1.0548  0.4736
  155OSM   H13C17251   4.278   4.013   2.126  1.3335 -0.8269 -1.3331
  155OSM    C1217252   4.235   4.110   1.803  0.7424  0.0885  0.8543
  155OSM   H12A17253   4.243   4.069   1.703 -1.5453  1.2431  0.1159
  155OSM   H12B17254   4.307   4.189   1.815 -0.9960  1.7558  0.9330
  155OSM    C1117255   4.087   4.172   1.802  0.4376  0.4285 -0.1965
  155OSM   H11A17256   4.011   4.094   1.823 -0.4928  0.3981 -3.1350
  155OSM   H11B17257   4.064   4.208   1.699 -1.7955  2.6032  0.9843
  155OSM      P17258   4.132   4.413   1.885  0.1008  0.2530  0.0653
  155OSM    O1317259   4.273   4.400   1.842  0.3469  0.3368 -0.0309
  155OSM    O1417260   4.049   4.495   1.798  0.3777  0.1399  0.6280
  155OSM    O1117261   4.134   4.468   2.031 -0.1108 -0.4896  0.2659
  155OSM    O1217262   4.060   4.271   1.904  0.1976 -0.4832  0.2722
  155OSM    C1S17263   4.141   4.379   2.141  0.7781  0.0240  0.3090
  155OSM    H1S17264   4.240   4.329   2.149  0.0107 -1.5886  0.2419
  155OSM    H1T17265   4.058   4.306   2.132 -0.0944  1.1429 -1.1877
  155OSM     NF17266   4.159   4.360   2.392 -0.3218  0.4774 -0.4784
  155OSM    HNF17267   4.089   4.304   2.435  0.3954 -1.5032 -1.7993
  155OSM    C2S17268   4.111   4.448   2.281 -0.9239  0.6432 -0.3980
  155OSM    H2S17269   4.168   4.543   2.294 -0.1495  0.1157  0.2267
  155OSM    C3S17270   3.959   4.473   2.292  0.2560 -0.6575 -0.3413
  155OSM    H3S17271   3.904   4.376   2.289  0.1517 -0.6608  1.1087
  155OSM     O317272   3.900   4.552   2.189  0.2587 -0.0269 -0.2020
  155OSM    HO317273   3.972   4.563   2.127  0.3200 -1.0392 -0.3282
  155OSM    C4S17274   3.929   4.548   2.422  0.2605  0.6503 -0.0664
  155OSM    H4S17275   3.972   4.649   2.421 -1.0723  1.2560  0.9949
  155OSM    C5S17276   3.848   4.511   2.522 -0.8199  0.5090 -0.3410
  155OSM    H5S17277   3.794   4.415   2.524 -0.0281  0.0628  0.0204
  155OSM    C6S17278   3.822   4.592   2.647 -0.3334 -0.4234 -0.2315
  155OSM    H6S17279   3.713   4.595   2.669  0.0586  1.9095  1.8720
  155OSM    H6T17280   3.843   4.699   2.630 -1.5726 -0.0894  0.2510
  155OSM    C7S17281   3.899   4.558   2.778  0.5352  0.4063 -0.2082
  155OSM    H7S17282   3.868   4.633   2.854 -1.2179  1.2549 -1.6901
  155OSM    H7T17283   4.006   4.582   2.761  1.1754 -1.4626  0.8932
  155OSM    C8S17284   3.881   4.404   2.821  0.4928 -0.5921  0.1457
  155OSM    H8S17285   3.929   4.343   2.742  0.7747 -0.7541  0.4400
  155OSM    H8T17286   3.771   4.391   2.827  0.2160  1.2246 -0.4753
  155OSM    C9S17287   3.966   4.362   2.943 -0.4506  0.2203  1.0299
  155OSM    H9S17288   4.068   4.399   2.918  0.1959 -2.2255 -0.1916
  155OSM    H9T17289   3.974   4.253   2.960 -1.0931  0.0012 -0.0092
  155OSM   C10S17290   3.922   4.432   3.071  1.1557 -0.5585 -0.7699
  155OSM   H10S17291   3.816   4.405   3.091  0.3192  3.0533  0.6034
  155OSM   H10T17292   3.924   4.542   3.055 -1.4946 -0.3565 -0.1142
  155OSM   C11S17293   4.010   4.406   3.192  0.0919 -0.0949 -0.0048
  155OSM   H11S17294   4.102   4.468   3.182 -0.2779  0.3380 -0.7957
  155OSM   H11T17295   4.046   4.301   3.202  0.1039  0.1268  2.9674
  155OSM   C12S17296   3.949   4.452   3.330 -0.3083  0.3285 -0.4571
  155OSM   H12S17297   3.915   4.355   3.371  3.2051 -1.6388 -1.7928
  155OSM   H12T17298   3.862   4.517   3.308 -0.9688  0.2004  1.6210
  155OSM   C13S17299   4.047   4.513   3.421 -0.3520 -0.5627 -0.0576
  155OSM   H13S17300   4.117   4.583   3.369 -0.5161 -1.0560 -0.9602
  155OSM   H13T17301   4.113   4.437   3.467  0.1316  0.4785  1.0212
  155OSM   C14S17302   3.971   4.588   3.538 -0.4949  0.4012 -0.2502
  155OSM   H14S17303   3.878   4.639   3.504 -2.3284 -1.5702  1.5431
  155OSM   H14T17304   4.042   4.668   3.568 -0.2555 -0.5365  1.8306
  155OSM   C15S17305   3.958   4.499   3.657  0.5222  0.4793 -0.0923
  155OSM   H15S17306   4.051   4.460   3.702 -0.3598 -0.0271  1.3679
  155OSM   H15T17307   3.900   4.408   3.629 -1.6245  1.5422  0.6532
  155OSM   C16S17308   3.866   4.551   3.772 -0.0323 -0.3663  0.1547
  155OSM   H16S17309   3.880   4.471   3.848  2.7849 -1.1468 -1.0604
  155OSM   H16T17310   3.761   4.570   3.741 -0.6747 -0.2600  2.2276
  155OSM   C17S17311   3.930   4.679   3.828  0.6824 -0.0195 -0.0970
  155OSM   H17S17312   3.865   4.714   3.911 -0.5673  0.2231 -1.1468
  155OSM   H17T17313   3.924   4.758   3.750  0.5373 -0.2714 -0.3413
  155OSM   C18S17314   4.068   4.673   3.881  0.4147 -0.2817  0.1832
  155OSM   H18S17315   4.133   4.674   3.791 -0.0904 -1.9343 -0.2376
  155OSM   H18T17316   4.098   4.578   3.930 -0.0274 -1.1769 -1.2131
  155OSM   H18U17317   4.086   4.760   3.947 -2.3316  0.8623 -0.4160
  155OSM    C1F17318   4.288   4.339   2.413 -0.4089 -0.1283  0.2149
  155OSM     OF17319   4.375   4.406   2.354 -0.7838 -0.0214 -0.5177
  155OSM    C2F17320   4.318   4.218   2.494  0.1228 -0.4117  0.2639
  155OSM    H2F17321   4.424   4.185   2.485  0.4878  1.0712 -1.4475
  155OSM    H2G17322   4.254   4.139   2.450 -0.2237  0.1302 -0.2130
  155OSM    C3F17323   4.293   4.250   2.642 -0.1767 -0.6543  0.0036
  155OSM    H3F17324   4.313   4.154   2.695  0.5146 -0.4687  0.0788
  155OSM    H3G17325   4.185   4.276   2.646  0.5027  2.5987 -0.4617
  155OSM    C4F17326   4.369   4.364   2.695 -0.2339 -0.0090 -0.4237
  155OSM    H4F17327   4.339   4.458   2.643  2.8757 -0.4588 -3.4892
  155OSM    H4G17328   4.473   4.340   2.662  0.6767 -0.6052  2.5545
  155OSM    C5F17329   4.366   4.366   2.846  0.1740 -0.2526  0.0998
  155OSM    H5F17330   4.403   4.268   2.881 -0.6005 -0.8895 -0.8080
  155OSM    H5G17331   4.266   4.368   2.893  0.2591 -0.3075  0.2827
  155OSM    C6F17332   4.459   4.482   2.896 -0.4476  0.6221  0.7005
  155OSM    H6F17333   4.405   4.579   2.902  1.1897  1.6415 -0.4509
  155OSM    H6G17334   4.538   4.508   2.823 -0.1342  1.0154  1.1709
  155OSM    C7F17335   4.536   4.463   3.032 -0.3836  0.7308  0.2383
  155OSM    H7F17336   4.585   4.560   3.055 -3.2843  2.0339  1.4420
  155OSM    H7G17337   4.622   4.395   3.014 -1.8256 -1.5544  1.4300
  155OSM    C8F17338   4.463   4.406   3.147  0.3463  0.2152 -0.1442
  155OSM    H8F17339   4.426   4.305   3.119  1.0663 -0.2214  0.4498
  155OSM    H8G17340   4.384   4.478   3.177  0.1605  0.3227 -0.8762
  155OSM    C9F17341   4.561   4.390   3.263  0.3644 -0.0926 -0.2453
  155OSM    H9F17342   4.626   4.301   3.259  0.7736  0.2365 -2.0563
  155OSM   C10F17343   4.587   4.476   3.360 -0.1937  0.3382  0.2089
  155OSM   H10F17344   4.660   4.449   3.438 -1.6038  1.8063  2.1344
  155OSM   C11F17345   4.510   4.597   3.383 -0.2118 -0.6999  0.2375
  155OSM   H11F17346   4.426   4.617   3.313 -0.3617  2.0674  1.0861
  155OSM   H11G17347   4.581   4.679   3.357  1.4885 -2.5691 -1.3668
  155OSM   C12F17348   4.449   4.612   3.527  0.0506 -0.4888  0.5348
  155OSM   H12F17349   4.401   4.513   3.542 -1.7226  0.5948  2.6180
  155OSM   H12G17350   4.366   4.686   3.520  0.6404 -0.0028 -2.3932
  155OSM   C13F17351   4.540   4.644   3.636  0.8878 -0.5871  0.9644
  155OSM   H13F17352   4.596   4.739   3.623  1.1668 -0.4260  2.9865
  155OSM   H13G17353   4.625   4.574   3.649  1.3253 -0.7446 -2.0349
  155OSM   C14F17354   4.475   4.662   3.774  0.0450  0.6587 -0.2637
  155OSM   H14F17355   4.459   4.561   3.816 -0.8626  0.6012 -0.7340
  155OSM   H14G17356   4.369   4.690   3.756 -0.8501 -3.7943 -3.4270
  155OSM   C15F17357   4.544   4.746   3.880  0.2585 -0.1455 -0.5411
  155OSM   H15F17358   4.568   4.848   3.844  2.3481 -1.2338 -2.4950
  155OSM   H15G17359   4.641   4.701   3.909  0.0334 -0.3589 -0.1022
  155OSM   C16F17360   4.452   4.776   4.002 -0.3241  0.0478  0.2877
  155OSM   H16F17361   4.429   4.678   4.049  2.7415 -1.0836 -0.3443
  155OSM   H16G17362   4.358   4.825   3.970  1.6270  2.4312 -2.3054
  155OSM   C17F17363   4.511   4.848   4.120  0.7545  0.4224 -0.3617
  155OSM   H17F17364   4.591   4.786   4.165  1.5440  0.6224 -1.4520
  155OSM   H17G17365   4.429   4.872   4.191 -0.3229 -2.5848 -0.4346
  155OSM   C18F17366   4.574   4.984   4.088  0.3771 -0.4453 -0.2150
  155OSM   H18F17367   4.650   4.963   4.009  1.1120  0.5242  0.2056
  155OSM   H18G17368   4.618   5.023   4.182 -0.1813 -0.1364 -0.0770
  155OSM   H18H17369   4.499   5.050   4.040  0.4409 -1.0479 -1.1807
  156OSM      N17370   6.163   5.254   2.120 -0.1291  0.4966  0.6380
  156OSM    C1517371   6.243   5.318   2.011  0.1855 -0.2350 -0.0326
  156OSM   H15A17372   6.185   5.379   1.943 -2.0525  1.0361  2.7898
  156OSM   H15B17373   6.316   5.256   1.962  1.5588  1.1903  0.1341
  156OSM   H15C17374   6.306   5.397   2.049 -0.8918  0.5677  0.1654
  156OSM    C1417375   6.095   5.364   2.210 -0.3883 -0.3414 -0.4247
  156OSM   H14A17376   6.025   5.412   2.145  0.1248  0.1125 -0.6486
  156OSM   H14B17377   6.170   5.430   2.251  0.0139 -1.8666  1.4495
  156OSM   H14C17378   6.039   5.315   2.288  0.2621 -0.1483  0.1836
  156OSM    C1317379   6.055   5.180   2.040  0.5657  0.7122  0.1725
  156OSM   H13A17380   6.087   5.124   1.954  0.8971  1.0168  0.0966
  156OSM   H13B17381   5.983   5.253   2.007  2.3322  2.0845 -0.8470
  156OSM   H13C17382   5.998   5.111   2.101 -1.0813 -0.2220 -2.2885
  156OSM    C1217383   6.253   5.162   2.194 -1.5952  0.5491 -0.0064
  156OSM   H12A17384   6.341   5.214   2.227 -1.1421  0.3431 -0.8655
  156OSM   H12B17385   6.282   5.073   2.139  0.7019  1.1337  0.1859
  156OSM    C1117386   6.182   5.119   2.324  0.0123 -0.1390 -0.0242
  156OSM   H11A17387   6.074   5.100   2.304  0.1542 -0.0477 -0.9050
  156OSM   H11B17388   6.184   5.205   2.395  0.1718 -2.0028  2.3558
  156OSM      P17389   6.217   4.865   2.329 -0.0136  0.1973 -0.7174
  156OSM    O1317390   6.082   4.818   2.369 -0.0342  0.2710 -0.1126
  156OSM    O1417391   6.251   4.864   2.188 -0.1127 -0.1314  0.1694
  156OSM    O1117392   6.329   4.777   2.395 -0.6883 -0.1905  0.0792
  156OSM    O1217393   6.250   5.011   2.390  0.0551  0.6190 -0.2429
  156OSM    C1S17394   6.402   4.819   2.511  0.0437  0.0650 -0.5989
  156OSM    H1S17395   6.422   4.929   2.509 -1.9348  0.4682 -0.7435
  156OSM    H1T17396   6.500   4.767   2.513 -0.8315 -1.7817 -2.2394
  156OSM     NF17397   6.404   4.815   2.762  0.0208 -0.4525 -0.1037
  156OSM    HNF17398   6.455   4.748   2.816  2.5500  0.1401 -1.6157
  156OSM    C2S17399   6.334   4.766   2.642  0.5060  0.2237 -0.0421
  156OSM    H2S17400   6.229   4.803   2.647  1.0221  1.6735  0.7976
  156OSM    C3S17401   6.323   4.607   2.633 -0.6532 -0.3955 -0.1393
  156OSM    H3S17402   6.428   4.576   2.615 -0.3683  0.5415 -0.1924
  156OSM     O317403   6.243   4.565   2.524 -0.0383  0.5055  0.3555
  156OSM    HO317404   6.245   4.629   2.453 -2.6146 -1.1384 -1.4025
  156OSM    C4S17405   6.283   4.550   2.769  0.5296 -1.0364  0.2694
  156OSM    H4S17406   6.360   4.568   2.846 -0.2934 -0.8393  1.0773
  156OSM    C5S17407   6.154   4.515   2.804  0.1325 -0.0690  0.7699
  156OSM    H5S17408   6.081   4.528   2.722  1.5017 -2.9355 -1.0550
  156OSM    C6S17409   6.111   4.451   2.932 -0.7536  0.4615  0.5951
  156OSM    H6S17410   6.063   4.352   2.912 -0.5596  0.8735 -2.3443
  156OSM    H6T17411   6.035   4.515   2.981  1.0785  1.6607  1.9929
  156OSM    C7S17412   6.212   4.444   3.048 -0.0817  0.0967  0.2240
  156OSM    H7S17413   6.237   4.552   3.060 -0.6788  0.4960 -1.7492
  156OSM    H7T17414   6.301   4.386   3.017 -0.3571 -0.0290 -0.3458
  156OSM    C8S17415   6.158   4.387   3.184  0.1604  0.2264  0.5176
  156OSM    H8S17416   6.118   4.285   3.163 -0.6747  0.8009 -0.8391
  156OSM    H8T17417   6.072   4.447   3.219 -0.5103 -0.3766 -0.0545
  156OSM    C9S17418   6.261   4.388   3.304 -0.2901  0.4900 -0.3663
  156OSM    H9S17419   6.299   4.492   3.312  1.3432 -0.0688 -0.3712
  156OSM    H9T17420   6.353   4.332   3.275  0.8331  1.6673  0.7727
  156OSM   C10S17421   6.211   4.350   3.443  0.9416 -0.1365 -0.0600
  156OSM   H10S17422   6.162   4.250   3.439  1.3728 -0.4083  1.1216
  156OSM   H10T17423   6.140   4.431   3.470  0.9123 -0.1056 -0.2256
  156OSM   C11S17424   6.334   4.344   3.540  0.4139  0.3614  0.5593
  156OSM   H11S17425   6.395   4.437   3.544  1.1153 -0.0154 -1.0483
  156OSM   H11T17426   6.395   4.263   3.496 -1.8181 -0.3620 -1.4039
  156OSM   C12S17427   6.285   4.306   3.676  0.3844 -0.5222  0.6407
  156OSM   H12S17428   6.258   4.198   3.682  0.6374 -0.5267  1.8859
  156OSM   H12T17429   6.202   4.378   3.696  1.3042  1.9794 -3.3460
  156OSM   C13S17430   6.385   4.310   3.787 -0.3977  0.2070 -0.3709
  156OSM   H13S17431   6.419   4.415   3.782 -0.6866  0.3006 -0.3548
  156OSM   H13T17432   6.466   4.235   3.777  1.0204  1.4522  1.2136
  156OSM   C14S17433   6.325   4.282   3.928  0.2575  0.0869  0.3705
  156OSM   H14S17434   6.294   4.176   3.941  1.0354 -0.0515  1.2137
  156OSM   H14T17435   6.225   4.331   3.930 -0.0230 -0.2760 -2.2508
  156OSM   C15S17436   6.424   4.309   4.036 -0.3573  0.3030 -0.3494
  156OSM   H15S17437   6.479   4.404   4.016  0.2158  0.5589  2.0549
  156OSM   H15T17438   6.485   4.219   4.055 -0.3447  0.4625  0.4067
  156OSM   C16S17439   6.353   4.329   4.167 -0.3420 -0.2560 -0.3408
  156OSM   H16S17440   6.271   4.256   4.187  0.2037 -0.7462  0.1130
  156OSM   H16T17441   6.310   4.431   4.162 -2.2872 -0.8427  2.2387
  156OSM   C17S17442   6.434   4.326   4.301 -0.0406 -0.1609 -0.2045
  156OSM   H17S17443   6.374   4.364   4.387 -2.1491 -0.4697 -1.4868
  156OSM   H17T17444   6.521   4.394   4.287  1.7031 -2.2578  0.0433
  156OSM   C18S17445   6.505   4.198   4.340  0.4286  0.5225  0.4950
  156OSM   H18S17446   6.600   4.208   4.396  1.0057  0.0139 -0.3580
  156OSM   H18T17447   6.520   4.140   4.246 -0.0796  0.2977  0.5498
  156OSM   H18U17448   6.439   4.133   4.401  1.8367 -2.7223 -1.1398
  156OSM    C1F17449   6.409   4.939   2.803  0.4688 -0.0967  0.4352
  156OSM     OF17450   6.378   5.033   2.727  0.0975  0.0234 -0.1735
  156OSM    C2F17451   6.463   4.970   2.942 -0.2942  0.4674 -0.1244
  156OSM    H2F17452   6.564   4.929   2.965  0.0558  1.0340 -0.6392
  156OSM    H2G17453   6.386   4.937   3.015 -2.7897  0.8175 -2.4484
  156OSM    C3F17454   6.471   5.126   2.957  0.2542  0.1485 -1.2568
  156OSM    H3F17455   6.397   5.188   2.903  2.3102  1.5110 -2.6883
  156OSM    H3G17456   6.566   5.160   2.911  0.3098 -1.3497 -2.3441
  156OSM    C4F17457   6.458   5.173   3.102  0.0353 -0.2024 -0.0648
  156OSM    H4F17458   6.354   5.154   3.135  0.5179 -1.2223  0.9181
  156OSM    H4G17459   6.461   5.282   3.126 -1.4644 -0.4551  1.4308
  156OSM    C5F17460   6.561   5.107   3.201  0.2733 -0.5314 -0.2616
  156OSM    H5F17461   6.659   5.096   3.149 -0.0629 -1.6181 -0.6953
  156OSM    H5G17462   6.525   5.002   3.206  0.7247 -0.7740 -1.6123
  156OSM    C6F17463   6.574   5.175   3.336 -0.4319  0.5132 -0.4675
  156OSM    H6F17464   6.484   5.233   3.363 -2.2429 -1.0083 -2.7728
  156OSM    H6G17465   6.658   5.248   3.332  0.3660 -0.3242  0.4561
  156OSM    C7F17466   6.599   5.082   3.456 -0.5538 -0.0583 -0.4153
  156OSM    H7F17467   6.687   5.023   3.423 -0.5313 -1.4556  1.9052
  156OSM    H7G17468   6.513   5.012   3.468 -1.7760  0.9407 -2.7414
  156OSM    C8F17469   6.647   5.155   3.587 -0.0217  0.1627 -0.1641
  156OSM    H8F17470   6.743   5.207   3.567 -0.0441  0.3497  0.2026
  156OSM    H8G17471   6.665   5.062   3.644 -2.7496 -0.1934  0.2667
  156OSM    C9F17472   6.539   5.234   3.659  0.4184 -0.3073 -0.8578
  156OSM    H9F17473   6.471   5.292   3.594 -3.9221 -2.7249  1.0580
  156OSM   C10F17474   6.517   5.247   3.796  0.6509  0.2845  0.8760
  156OSM   H10F17475   6.421   5.299   3.810  0.7269  1.3059 -1.8215
  156OSM   C11F17476   6.585   5.168   3.904  0.5041  0.1458  0.4349
  156OSM   H11F17477   6.687   5.207   3.923  0.2250  0.1419  2.0766
  156OSM   H11G17478   6.589   5.060   3.880  0.4829 -0.6085  3.4463
  156OSM   C12F17479   6.506   5.188   4.038 -0.1789  0.4654  0.6759
  156OSM   H12F17480   6.562   5.125   4.109  0.3231  1.1188  0.8724
  156OSM   H12G17481   6.400   5.162   4.018 -0.4512  0.3036  2.2099
  156OSM   C13F17482   6.510   5.332   4.094  0.0249  0.2324 -0.8359
  156OSM   H13F17483   6.431   5.385   4.037 -2.0435 -0.3261  1.3589
  156OSM   H13G17484   6.608   5.385   4.090  0.3228  0.0311  1.8898
  156OSM   C14F17485   6.468   5.335   4.241 -0.2733 -0.9111 -0.8883
  156OSM   H14F17486   6.535   5.262   4.292 -1.6888 -0.5663  1.6158
  156OSM   H14G17487   6.361   5.308   4.256 -1.1807  3.3040  1.8233
  156OSM   C15F17488   6.474   5.467   4.312 -0.0977 -0.5757  0.5464
  156OSM   H15F17489   6.451   5.451   4.419 -0.4941  3.3274  1.1740
  156OSM   H15G17490   6.404   5.538   4.264  2.2551  1.0086 -0.7574
  156OSM   C16F17491   6.620   5.520   4.319  1.0888 -0.7365  0.1296
  156OSM   H16F17492   6.633   5.581   4.226 -1.7218  0.6062  0.5060
  156OSM   H16G17493   6.695   5.442   4.342  0.8691 -0.1129  3.3567
  156OSM   C17F17494   6.643   5.624   4.433  0.4720  0.7981 -0.0542
  156OSM   H17F17495   6.748   5.657   4.423  0.1768  1.6813 -0.3344
  156OSM   H17G17496   6.619   5.591   4.537 -0.1982 -1.0924 -0.7684
  156OSM   C18F17497   6.549   5.744   4.420 -0.1014  0.4228  0.4681
  156OSM   H18F17498   6.604   5.839   4.406  2.7615 -0.7964  2.4846
  156OSM   H18G17499   6.466   5.751   4.494  0.2186 -0.8857  0.9884
  156OSM   H18H17500   6.484   5.726   4.331  0.0771  0.8942  0.2407
  157OSM      N17501   5.203   5.845   1.797  0.3930  0.8123 -0.0721
  157OSM    C1517502   5.321   5.747   1.803  0.7480 -1.0345  0.1994
  157OSM   H15A17503   5.304   5.670   1.729 -1.1587 -0.9380  0.4783
  157OSM   H15B17504   5.326   5.693   1.896  1.2238  0.2152  0.9192
  157OSM   H15C17505   5.412   5.801   1.781 -0.4233  1.5314  1.2991
  157OSM    C1417506   5.198   5.897   1.657 -0.1260 -0.7349 -0.0412
  157OSM   H14A17507   5.216   5.815   1.589  1.0602  0.3416 -1.0568
  157OSM   H14B17508   5.279   5.965   1.637  0.1249 -0.5817  1.3812
  157OSM   H14C17509   5.107   5.955   1.647  0.8781  0.8537 -0.1777
  157OSM    C1317510   5.081   5.763   1.820 -0.0078  0.3588 -0.6906
  157OSM   H13A17511   5.056   5.700   1.736  0.4425 -1.3184  0.3919
  157OSM   H13B17512   4.994   5.823   1.841 -0.4273 -0.8097  1.0793
  157OSM   H13C17513   5.098   5.710   1.913 -0.2436 -0.9076 -1.3477
  157OSM    C1217514   5.223   5.949   1.903  0.0629  0.3421  0.8738
  157OSM   H12A17515   5.138   6.016   1.902  0.5701  1.0843  2.7523
  157OSM   H12B17516   5.315   6.003   1.886 -0.0365  0.2895  0.1753
  157OSM    C1117517   5.243   5.896   2.047 -0.3904 -0.0985 -0.0344
  157OSM   H11A17518   5.155   5.841   2.089 -2.6863  2.6935 -0.8610
  157OSM   H11B17519   5.250   5.988   2.108  0.0223 -0.0987 -0.0845
  157OSM      P17520   5.509   5.898   2.078 -0.3414 -0.1772 -0.0492
  157OSM    O1317521   5.614   5.796   2.049  0.2000 -0.3508 -0.4834
  157OSM    O1417522   5.512   6.021   2.003  0.4920 -0.5979  0.0724
  157OSM    O1117523   5.513   5.943   2.231  0.1101 -0.3560 -0.6664
  157OSM    O1217524   5.364   5.826   2.060  0.0142  0.3274  0.1882
  157OSM    C1S17525   5.465   5.851   2.331  0.8921  0.4969  0.1198
  157OSM    H1S17526   5.522   5.756   2.339 -0.2837 -0.1664  1.0746
  157OSM    H1T17527   5.369   5.809   2.294  1.0660 -0.2951  0.5315
  157OSM     NF17528   5.381   5.828   2.574 -0.6154  0.8610  0.9464
  157OSM    HNF17529   5.282   5.819   2.569 -0.7827  2.6739 -0.1384
  157OSM    C2S17530   5.433   5.920   2.465  0.1389  0.4604  0.7038
  157OSM    H2S17531   5.525   5.962   2.511 -0.4837  0.8580  1.6234
  157OSM    C3S17532   5.336   6.036   2.445  0.0727  0.0355  0.1706
  157OSM    H3S17533   5.242   5.986   2.413  1.1054 -1.5270 -0.5659
  157OSM     O317534   5.356   6.124   2.334 -0.1249  0.3211  0.4713
  157OSM    HO317535   5.436   6.082   2.300  0.8256 -0.6851  3.6305
  157OSM    C4S17536   5.306   6.119   2.568  0.0539 -0.0330  0.1507
  157OSM    H4S17537   5.218   6.082   2.623  1.3877 -2.0485  1.0535
  157OSM    C5S17538   5.376   6.216   2.627 -0.0236  0.0003 -0.0523
  157OSM    H5S17539   5.457   6.260   2.566  0.0940  1.8990  1.3650
  157OSM    C6S17540   5.336   6.278   2.756 -0.5830  0.7310  0.4176
  157OSM    H6S17541   5.335   6.386   2.732  0.7248 -0.0608 -4.1118
  157OSM    H6T17542   5.408   6.245   2.833 -0.0587  0.0454 -0.3515
  157OSM    C7S17543   5.198   6.247   2.818 -0.4436  0.2023 -0.4719
  157OSM    H7S17544   5.187   6.138   2.838  0.1966  0.5250  1.9445
  157OSM    H7T17545   5.117   6.279   2.749 -0.0997 -3.5213 -2.9073
  157OSM    C8S17546   5.168   6.325   2.950  0.3202  0.4725 -0.0134
  157OSM    H8S17547   5.204   6.428   2.926  0.8365  0.1062 -0.8426
  157OSM    H8T17548   5.227   6.285   3.035 -0.2000  0.8343  0.5253
  157OSM    C9S17549   5.018   6.326   2.990  0.3042  0.4045 -0.0309
  157OSM    H9S17550   4.970   6.227   3.006 -1.3672  1.2602  0.5546
  157OSM    H9T17551   4.953   6.375   2.914  0.7440 -0.4742 -0.9942
  157OSM   C10S17552   4.995   6.389   3.131  0.4144 -0.5679  0.3666
  157OSM   H10S17553   5.031   6.317   3.208  0.5466  1.4022  2.2545
  157OSM   H10T17554   4.888   6.411   3.149  0.4152 -0.9994  0.9301
  157OSM   C11S17555   5.077   6.515   3.151  0.1864 -0.5071  0.2642
  157OSM   H11S17556   5.077   6.566   3.053  1.1370  1.5921  1.2914
  157OSM   H11T17557   5.184   6.501   3.179  0.0638  0.5369  1.3432
  157OSM   C12S17558   5.012   6.618   3.249  0.2401 -0.3309  0.1688
  157OSM   H12S17559   5.011   6.571   3.349 -0.2051  0.7802  0.7055
  157OSM   H12T17560   4.905   6.634   3.221  0.7567  0.6010 -1.3734
  157OSM   C13S17561   5.086   6.754   3.246 -0.6297  0.8456 -0.9748
  157OSM   H13S17562   5.115   6.791   3.145 -1.1302  1.2864 -0.9609
  157OSM   H13T17563   5.185   6.745   3.295 -0.7698 -0.3101 -0.8814
  157OSM   C14S17564   5.009   6.857   3.320 -0.3054 -1.0096 -0.2724
  157OSM   H14S17565   4.987   6.824   3.424  1.3285  0.1902  0.4965
  157OSM   H14T17566   4.909   6.872   3.275 -0.3356  1.5709  0.4962
  157OSM   C15S17567   5.074   6.991   3.320  0.0962 -0.1110  0.4705
  157OSM   H15S17568   5.070   7.035   3.218  1.5590  1.6659  1.1112
  157OSM   H15T17569   5.178   6.977   3.357  0.0433 -0.8015  0.3757
  157OSM   C16S17570   5.009   7.095   3.412 -0.4677  0.0915  0.5955
  157OSM   H16S17571   4.901   7.107   3.391 -1.0955 -3.0389  1.5441
  157OSM   H16T17572   5.059   7.194   3.404 -2.8775  1.2232 -2.1569
  157OSM   C17S17573   5.022   7.053   3.560 -0.1272  0.2110  0.4571
  157OSM   H17S17574   4.979   6.951   3.571  0.5587 -0.3560 -1.5383
  157OSM   H17T17575   4.954   7.118   3.617 -1.6428 -0.6697 -0.2790
  157OSM   C18S17576   5.163   7.061   3.617 -0.6301 -0.4979  0.3292
  157OSM   H18S17577   5.245   7.012   3.561 -0.7930 -0.2953 -0.0924
  157OSM   H18T17578   5.160   7.017   3.719 -0.1681  0.2691  0.6783
  157OSM   H18U17579   5.187   7.169   3.619  1.2134 -0.8034 -1.7149
  157OSM    C1F17580   5.447   5.725   2.631  0.1292  0.0006 -0.2629
  157OSM     OF17581   5.567   5.724   2.620 -0.2532  0.0398  0.0122
  157OSM    C2F17582   5.375   5.624   2.701  0.2094  0.3253  0.4698
  157OSM    H2F17583   5.292   5.580   2.641 -0.1752 -0.6851  1.6958
  157OSM    H2G17584   5.327   5.674   2.788 -1.2068  0.8111 -0.5613
  157OSM    C3F17585   5.465   5.504   2.750  0.0101  0.7394 -0.2766
  157OSM    H3F17586   5.550   5.546   2.808 -0.1490  0.7499 -0.0496
  157OSM    H3G17587   5.505   5.444   2.666 -0.8682 -0.5087  0.1582
  157OSM    C4F17588   5.402   5.403   2.850 -0.8711 -0.5317 -0.6586
  157OSM    H4F17589   5.471   5.316   2.843 -0.4390 -0.1495 -1.2521
  157OSM    H4G17590   5.305   5.369   2.809 -1.3479 -1.4226  1.0967
  157OSM    C5F17591   5.392   5.459   2.994 -0.3077 -0.9037 -0.1264
  157OSM    H5F17592   5.303   5.525   2.999  1.0432  1.1299 -1.5402
  157OSM    H5G17593   5.478   5.529   3.003  1.5537 -3.0036 -0.4383
  157OSM    C6F17594   5.412   5.358   3.098 -0.3778 -0.3774 -0.5753
  157OSM    H6F17595   5.515   5.320   3.081 -0.0863 -0.7229  1.5822
  157OSM    H6G17596   5.345   5.271   3.082  0.5608 -1.1487 -0.4312
  157OSM    C7F17597   5.398   5.414   3.238 -0.2919 -0.1370 -0.2679
  157OSM    H7F17598   5.295   5.453   3.250 -0.2677  0.3053 -1.3906
  157OSM    H7G17599   5.469   5.499   3.253  1.7849 -1.4727 -2.0248
  157OSM    C8F17600   5.427   5.314   3.350 -0.1932 -0.6170 -0.1054
  157OSM    H8F17601   5.348   5.236   3.340  0.8239 -1.6265 -0.5504
  157OSM    H8G17602   5.409   5.363   3.448 -1.4958 -0.9180 -0.1749
  157OSM    C9F17603   5.562   5.245   3.337 -0.5048 -0.6210 -0.1640
  157OSM    H9F17604   5.595   5.223   3.234 -1.0834 -0.5290 -0.3746
  157OSM   C10F17605   5.652   5.212   3.434  0.4664  0.7515 -0.0071
  157OSM   H10F17606   5.752   5.178   3.407 -0.2429  0.6516 -2.7641
  157OSM   C11F17607   5.623   5.239   3.582  0.1005 -0.1614  0.5251
  157OSM   H11F17608   5.515   5.229   3.605  0.3653 -3.0981  0.8230
  157OSM   H11G17609   5.653   5.345   3.599 -0.3512  0.5339 -2.4075
  157OSM   C12F17610   5.699   5.146   3.672 -0.0630 -0.1370  0.5355
  157OSM   H12F17611   5.806   5.154   3.643 -0.1945 -0.1494  0.0316
  157OSM   H12G17612   5.675   5.038   3.657 -0.9295 -0.1405  1.7970
  157OSM   C13F17613   5.693   5.183   3.820  0.3230  0.5557 -0.5038
  157OSM   H13F17614   5.615   5.124   3.874  2.5116 -0.8907  1.2421
  157OSM   H13G17615   5.674   5.292   3.831  1.5591  0.7333 -0.0219
  157OSM   C14F17616   5.816   5.139   3.902 -0.7348  0.1581 -0.0422
  157OSM   H14F17617   5.905   5.190   3.858 -1.3931  1.1798 -0.2401
  157OSM   H14G17618   5.833   5.031   3.884 -0.4037 -0.5520  3.8093
  157OSM   C15F17619   5.828   5.178   4.048 -0.9345  0.2483 -0.4515
  157OSM   H15F17620   5.754   5.125   4.111  0.1738 -1.3234 -0.3891
  157OSM   H15G17621   5.806   5.287   4.049 -1.6931  0.0991  0.6986
  157OSM   C16F17622   5.967   5.162   4.107 -0.2530 -0.2410  0.1071
  157OSM   H16F17623   5.971   5.189   4.214 -0.0390  1.0138 -0.2042
  157OSM   H16G17624   6.023   5.245   4.059 -0.8232 -0.8977 -1.7862
  157OSM   C17F17625   6.030   5.015   4.103 -0.2686  0.4949 -0.0577
  157OSM   H17F17626   6.132   5.007   4.147 -0.4851 -0.7919  0.2834
  157OSM   H17G17627   6.029   4.981   3.997 -2.5871 -1.1350  0.3924
  157OSM   C18F17628   5.939   4.924   4.192 -0.1746  0.3818  1.1310
  157OSM   H18F17629   5.936   4.962   4.297 -0.0109 -1.2386  1.7403
  157OSM   H18G17630   5.983   4.822   4.190  0.8351  0.7964  1.3299
  157OSM   H18H17631   5.836   4.919   4.150 -1.0938  2.2393  2.9251
  158OSM      N17632   1.343   3.307   2.058  0.9370 -0.6234 -0.5265
  158OSM    C1517633   1.330   3.431   2.146 -0.4801  0.2288 -0.3960
  158OSM   H15A17634   1.416   3.494   2.135 -0.4896  0.4097  0.4696
  158OSM   H15B17635   1.324   3.416   2.253  0.3208  0.9787 -0.2377
  158OSM   H15C17636   1.242   3.489   2.123 -0.2476  0.6892 -0.1542
  158OSM    C1417637   1.204   3.274   2.021 -0.5530  0.5436  0.0862
  158OSM   H14A17638   1.151   3.356   1.974 -0.4626  0.3652 -0.3322
  158OSM   H14B17639   1.150   3.233   2.105 -0.1089 -3.4628 -1.4030
  158OSM   H14C17640   1.196   3.185   1.961 -2.7658  1.3460 -0.9621
  158OSM    C1317641   1.417   3.338   1.934 -0.1409  0.0862 -0.7325
  158OSM   H13A17642   1.368   3.414   1.875  2.4925  2.2691 -0.3011
  158OSM   H13B17643   1.432   3.248   1.875  0.4539 -1.6764  1.9332
  158OSM   H13C17644   1.511   3.386   1.959 -0.3729 -0.6018  1.7120
  158OSM    C1217645   1.398   3.202   2.151  0.2186  0.3125 -0.0267
  158OSM   H12A17646   1.430   3.116   2.093 -4.2461 -1.1523 -0.7377
  158OSM   H12B17647   1.318   3.176   2.220 -1.0954  1.4346 -1.0770
  158OSM    C1117648   1.517   3.244   2.239  0.3614 -0.4257 -0.0571
  158OSM   H11A17649   1.559   3.148   2.277 -0.2940 -0.9748 -0.7012
  158OSM   H11B17650   1.471   3.300   2.324  2.8529 -2.6346  3.0233
  158OSM      P17651   1.700   3.430   2.230  0.1661 -0.0467  0.0234
  158OSM    O1317652   1.841   3.431   2.187 -0.6581  0.1306  0.1257
  158OSM    O1417653   1.619   3.552   2.204 -0.5896  0.4055  0.1602
  158OSM    O1117654   1.699   3.389   2.379  0.6680 -0.2741  0.3845
  158OSM    O1217655   1.625   3.305   2.174  0.0962  0.2559  0.6409
  158OSM    C1S17656   1.797   3.461   2.466 -0.0278 -0.3098  0.5751
  158OSM    H1S17657   1.823   3.562   2.429 -0.8801 -0.3665 -0.2296
  158OSM    H1T17658   1.895   3.410   2.477  0.6424  0.7938 -0.1456
  158OSM     NF17659   1.832   3.549   2.694  0.9005 -0.6511 -0.0569
  158OSM    HNF17660   1.894   3.501   2.756 -0.1564 -2.0528 -0.0375
  158OSM    C2S17661   1.739   3.476   2.609 -0.1760  0.5949 -0.4690
  158OSM    H2S17662   1.644   3.530   2.590 -1.5977 -1.0974  1.4800
  158OSM    C3S17663   1.688   3.348   2.672 -0.2544  0.0614 -0.0481
  158OSM    H3S17664   1.779   3.287   2.690 -1.6873 -1.2481  3.9702
  158OSM     O317665   1.602   3.273   2.591 -0.5142 -0.3299  0.0037
  158OSM    HO317666   1.590   3.328   2.514 -0.8609  0.2300  0.4520
  158OSM    C4S17667   1.625   3.363   2.808  0.5954  0.4972  0.6781
  158OSM    H4S17668   1.525   3.409   2.814  0.2614 -0.1790  0.2881
  158OSM    C5S17669   1.696   3.327   2.923 -0.4409  0.8174 -0.1180
  158OSM    H5S17670   1.797   3.287   2.910 -0.9662 -0.5868 -0.1381
  158OSM    C6S17671   1.659   3.328   3.073  0.2156 -0.3346 -0.0013
  158OSM    H6S17672   1.684   3.431   3.109 -0.3058 -0.8585  1.9935
  158OSM    H6T17673   1.713   3.256   3.139 -0.7531  2.2342  3.9973
  158OSM    C7S17674   1.517   3.293   3.114 -0.7755  0.4927 -0.5285
  158OSM    H7S17675   1.493   3.192   3.074 -0.7130  1.4422 -3.1220
  158OSM    H7T17676   1.450   3.367   3.065 -0.6006  0.7562 -0.3721
  158OSM    C8S17677   1.494   3.313   3.259 -0.8520 -0.3881 -0.4777
  158OSM    H8S17678   1.385   3.328   3.277 -0.4546 -0.1835  1.9994
  158OSM    H8T17679   1.538   3.412   3.284  0.7269 -1.1416 -0.2061
  158OSM    C9S17680   1.537   3.202   3.355  0.4167 -0.1383  0.1189
  158OSM    H9S17681   1.645   3.181   3.345  0.4549 -0.0388  0.3296
  158OSM    H9T17682   1.494   3.105   3.322 -0.2993 -0.7556  2.6040
  158OSM   C10S17683   1.495   3.234   3.503 -0.5096  0.9288 -0.3449
  158OSM   H10S17684   1.385   3.246   3.500 -0.8383 -1.7005 -1.4220
  158OSM   H10T17685   1.556   3.320   3.540  1.8798  0.4632 -2.8362
  158OSM   C11S17686   1.531   3.116   3.600  0.0762 -0.7445  0.5653
  158OSM   H11S17687   1.642   3.122   3.609  0.3277 -0.6492 -1.8619
  158OSM   H11T17688   1.511   3.016   3.557 -0.9106 -0.2556 -0.1592
  158OSM   C12S17689   1.460   3.130   3.736 -0.1287  0.0831 -0.3173
  158OSM   H12S17690   1.350   3.134   3.724 -1.0269  0.8279  5.4147
  158OSM   H12T17691   1.503   3.220   3.784  0.5406 -0.2055 -0.3674
  158OSM   C13S17692   1.493   3.016   3.832 -0.1916  0.2444  0.3034
  158OSM   H13S17693   1.604   3.013   3.838 -0.1993 -2.6528  0.3401
  158OSM   H13T17694   1.455   2.921   3.789 -2.3767  1.4225 -0.4918
  158OSM   C14S17695   1.440   3.026   3.972 -0.0527  0.2341  0.4589
  158OSM   H14S17696   1.419   2.924   4.010 -1.2701 -0.2959 -1.4720
  158OSM   H14T17697   1.344   3.082   3.967  0.0249  0.4040  0.8220
  158OSM   C15S17698   1.541   3.092   4.066  0.0264  0.4713  0.3040
  158OSM   H15S17699   1.542   3.195   4.025 -2.3201  0.0774 -0.9613
  158OSM   H15T17700   1.644   3.052   4.062 -0.1838 -0.0447 -0.2077
  158OSM   C16S17701   1.489   3.105   4.213  0.7798 -0.5268 -0.0608
  158OSM   H16S17702   1.532   3.202   4.243  0.8397 -0.3672 -0.6488
  158OSM   H16T17703   1.532   3.018   4.268  1.1488 -1.0524 -1.1416
  158OSM   C17S17704   1.339   3.095   4.230  0.0239  0.0032 -0.3251
  158OSM   H17S17705   1.309   2.996   4.189  0.6957 -0.1846 -0.3760
  158OSM   H17T17706   1.286   3.182   4.185 -0.9914 -0.3479  0.1527
  158OSM   C18S17707   1.301   3.091   4.385 -0.8113 -0.2161  0.4849
  158OSM   H18S17708   1.321   3.194   4.423  0.6058 -0.6203  0.9173
  158OSM   H18T17709   1.372   3.022   4.435  0.0412  0.3593  0.1134
  158OSM   H18U17710   1.198   3.061   4.414 -0.6160  0.3854  1.8550
  158OSM    C1F17711   1.839   3.682   2.683 -0.0218  0.1089 -0.7873
  158OSM     OF17712   1.779   3.736   2.589 -0.5611  0.1667 -0.9526
  158OSM    C2F17713   1.922   3.758   2.784  0.3866  0.7378 -0.2143
  158OSM    H2F17714   1.998   3.816   2.727  1.1213  0.4769  0.4794
  158OSM    H2G17715   1.976   3.677   2.838  0.1870  1.1390  0.6081
  158OSM    C3F17716   1.836   3.851   2.879 -0.2404 -0.2233  0.2499
  158OSM    H3F17717   1.746   3.796   2.917 -1.4339  0.9392 -0.7911
  158OSM    H3G17718   1.797   3.930   2.811  0.6425 -0.0043 -0.0052
  158OSM    C4F17719   1.911   3.900   3.000  0.2373 -0.3223 -0.1265
  158OSM    H4F17720   1.845   3.973   3.051  0.2246 -0.2184 -0.2909
  158OSM    H4G17721   2.003   3.953   2.967 -0.9376  1.7982 -0.1456
  158OSM    C5F17722   1.944   3.803   3.111 -0.6269  0.2590 -0.3264
  158OSM    H5F17723   2.018   3.855   3.176  0.8878  0.1304 -1.8714
  158OSM    H5G17724   2.000   3.715   3.073  0.6797  0.3328  1.3065
  158OSM    C6F17725   1.821   3.771   3.193  0.3254  0.0195  0.0904
  158OSM    H6F17726   1.736   3.746   3.126  2.7177  0.3846 -3.3374
  158OSM    H6G17727   1.797   3.858   3.259  1.4062  1.3124 -1.1523
  158OSM    C7F17728   1.844   3.642   3.273 -0.0820 -0.2385 -0.2660
  158OSM    H7F17729   1.946   3.650   3.317  0.5912  0.1255 -1.8258
  158OSM    H7G17730   1.852   3.556   3.204  1.0338 -0.6333  0.3362
  158OSM    C8F17731   1.738   3.615   3.375 -0.2487 -0.4926  0.3395
  158OSM    H8F17732   1.641   3.604   3.322 -0.8296 -1.9347  1.6011
  158OSM    H8G17733   1.739   3.700   3.446  1.5479  0.3883 -0.6772
  158OSM    C9F17734   1.779   3.479   3.428  0.3767 -0.0358  0.1121
  158OSM    H9F17735   1.745   3.394   3.367  1.8447 -0.0543 -0.7378
  158OSM   C10F17736   1.846   3.446   3.536  0.1916  0.0031 -0.1248
  158OSM   H10F17737   1.842   3.341   3.568  1.0172 -0.2291 -0.7707
  158OSM   C11F17738   1.916   3.545   3.624  0.4724 -0.0460 -0.1992
  158OSM   H11F17739   1.851   3.635   3.629  0.4265 -0.0964  0.1360
  158OSM   H11G17740   2.020   3.554   3.584  0.2918 -1.1085 -0.9296
  158OSM   C12F17741   1.927   3.483   3.762  0.2126 -0.5532 -1.0090
  158OSM   H12F17742   1.991   3.393   3.759 -0.0856 -0.8482  0.6577
  158OSM   H12G17743   1.824   3.460   3.798  0.8495 -2.2923 -0.1682
  158OSM   C13F17744   1.999   3.573   3.864  0.6323  0.3233  0.1515
  158OSM   H13F17745   1.938   3.665   3.860 -1.2681 -0.8175  1.4237
  158OSM   H13G17746   2.099   3.581   3.816  0.7978  0.5951  0.5378
  158OSM   C14F17747   2.007   3.515   4.010  0.2485 -0.7345  0.4598
  158OSM   H14F17748   2.056   3.416   4.003  0.6096 -0.4616 -1.3652
  158OSM   H14G17749   1.904   3.501   4.050  0.0127 -1.6951 -0.4301
  158OSM   C15F17750   2.095   3.606   4.097  0.4365  0.1375 -0.0680
  158OSM   H15F17751   2.049   3.707   4.098 -0.8617 -0.4251 -0.7812
  158OSM   H15G17752   2.195   3.619   4.051  1.4378  3.9784  2.6932
  158OSM   C16F17753   2.119   3.567   4.243  0.3348  0.2063 -0.9295
  158OSM   H16F17754   2.146   3.460   4.253  1.2535  0.4931 -0.1950
  158OSM   H16G17755   2.024   3.578   4.300  2.1307  2.5039  1.9186
  158OSM   C17F17756   2.227   3.655   4.300 -0.2368 -0.1807  0.1091
  158OSM   H17F17757   2.214   3.766   4.295  0.5254  0.0863  2.5363
  158OSM   H17G17758   2.325   3.630   4.254  0.7290  0.5684  1.6638
  158OSM   C18F17759   2.230   3.625   4.448  0.6252  0.4375 -1.0874
  158OSM   H18F17760   2.302   3.700   4.490 -0.4320 -0.0646  1.9111
  158OSM   H18G17761   2.251   3.520   4.475  0.3860  0.8325  0.8365
  158OSM   H18H17762   2.126   3.648   4.477  0.3872 -1.5236 -0.2810
  159OSM      N17763   4.835   4.242   1.655  0.4838  0.2010  0.5286
  159OSM    C1517764   4.814   4.109   1.594 -0.6461  0.0375 -0.3972
  159OSM   H15A17765   4.850   4.110   1.492  1.9393 -0.8756  0.4372
  159OSM   H15B17766   4.710   4.083   1.605  0.0031 -2.1819  1.1835
  159OSM   H15C17767   4.869   4.034   1.648 -0.9671  2.0465  3.0441
  159OSM    C1417768   4.981   4.259   1.648  0.2961  0.3973 -0.5978
  159OSM   H14A17769   5.006   4.358   1.685  0.5809 -0.1513  0.7247
  159OSM   H14B17770   5.024   4.247   1.550  0.9668 -1.4120 -0.1106
  159OSM   H14C17771   5.021   4.189   1.720 -0.2396  0.5536 -0.1343
  159OSM    C1317772   4.771   4.347   1.567  0.2150 -0.3016 -0.3653
  159OSM   H13A17773   4.763   4.442   1.616 -2.0463 -0.7686  0.3290
  159OSM   H13B17774   4.671   4.307   1.554 -0.5262  0.6033  2.0639
  159OSM   H13C17775   4.823   4.351   1.473 -1.4957  0.5167 -1.3360
  159OSM    C1217776   4.790   4.248   1.797 -0.4669 -0.1568 -0.1394
  159OSM   H12A17777   4.825   4.165   1.857 -1.3465 -0.4379  0.0056
  159OSM   H12B17778   4.684   4.228   1.805 -0.2647 -1.3016 -0.1297
  159OSM    C1117779   4.816   4.384   1.867 -0.4467  0.0989 -0.1369
  159OSM   H11A17780   4.775   4.378   1.970 -1.3078 -2.0985 -0.5568
  159OSM   H11B17781   4.751   4.457   1.814  0.3508  0.7944 -0.1851
  159OSM      P17782   5.059   4.365   1.977  0.1419 -0.1959  0.3119
  159OSM    O1317783   5.060   4.221   1.982  0.4001  0.0767  0.2155
  159OSM    O1417784   5.192   4.419   1.953  0.3286 -0.4562 -0.4072
  159OSM    O1117785   5.001   4.418   2.110  0.0899  0.5463  0.6212
  159OSM    O1217786   4.953   4.420   1.873 -0.3448  0.4942  0.4686
  159OSM    C1S17787   4.970   4.557   2.121 -0.1540  0.7009 -0.4551
  159OSM    H1S17788   4.877   4.587   2.068 -0.5097  1.5318  0.6079
  159OSM    H1T17789   5.058   4.621   2.096  1.4687 -1.3995 -0.3677
  159OSM     NF17790   4.877   4.727   2.283  0.3082  0.6736  0.8565
  159OSM    HNF17791   4.926   4.798   2.332 -0.8289  2.7961 -0.8949
  159OSM    C2S17792   4.943   4.599   2.275 -0.2840  1.1462  0.4886
  159OSM    H2S17793   4.878   4.514   2.302  1.7440 -1.1312 -1.3073
  159OSM    C3S17794   5.076   4.591   2.364  0.3284  0.4333  0.1842
  159OSM    H3S17795   5.144   4.669   2.324 -0.0094  1.0979  0.9026
  159OSM     O317796   5.144   4.466   2.359 -0.1225 -0.0376 -0.2604
  159OSM    HO317797   5.094   4.428   2.286 -3.4307  1.8391  0.8223
  159OSM    C4S17798   5.040   4.630   2.507  1.3452 -0.3096 -0.6344
  159OSM    H4S17799   5.053   4.736   2.534  0.0541 -0.3230  0.1618
  159OSM    C5S17800   4.984   4.547   2.600  0.0941 -0.2760 -1.3630
  159OSM    H5S17801   4.969   4.442   2.573  1.4144 -1.3462  1.6231
  159OSM    C6S17802   4.961   4.586   2.749 -0.1669  0.1808 -0.3403
  159OSM    H6S17803   5.023   4.673   2.780 -0.8302  0.2242  0.9256
  159OSM    H6T17804   4.965   4.488   2.801 -2.7185  0.3546  0.2935
  159OSM    C7S17805   4.817   4.625   2.785 -0.0739  0.8857  0.7125
  159OSM    H7S17806   4.798   4.620   2.894  0.4807 -1.3596  0.7632
  159OSM    H7T17807   4.741   4.563   2.731  0.2754 -0.0921  1.3157
  159OSM    C8S17808   4.791   4.774   2.738  0.6484  0.4226 -0.5116
  159OSM    H8S17809   4.837   4.791   2.638 -0.0204 -2.1750 -1.3635
  159OSM    H8T17810   4.853   4.826   2.814  0.6333 -0.9099  0.4514
  159OSM    C9S17811   4.646   4.815   2.748 -0.7182 -0.4253 -0.1532
  159OSM    H9S17812   4.603   4.779   2.844  0.7472  1.2189  1.1795
  159OSM    H9T17813   4.600   4.773   2.656  1.0160 -0.6712 -0.9505
  159OSM   C10S17814   4.618   4.964   2.750 -0.3397 -0.3299  1.0585
  159OSM   H10S17815   4.508   4.979   2.753 -0.3042  0.2072  0.1452
  159OSM   H10T17816   4.652   5.008   2.654 -1.5550 -0.8896  0.3553
  159OSM   C11S17817   4.672   5.061   2.855  0.3596  1.0088 -0.3523
  159OSM   H11S17818   4.662   5.167   2.822 -0.3985  0.8354 -0.6909
  159OSM   H11T17819   4.782   5.050   2.852  0.2324 -0.2004 -0.9760
  159OSM   C12S17820   4.613   5.045   2.996  0.4549 -0.2026 -0.3486
  159OSM   H12S17821   4.557   4.950   3.010  0.3607  0.1010  1.5828
  159OSM   H12T17822   4.542   5.129   3.013  2.7581  2.0054 -1.0056
  159OSM   C13S17823   4.722   5.053   3.101 -0.2504  0.1191  0.1113
  159OSM   H13S17824   4.783   5.146   3.104  1.5426 -1.0057  2.9543
  159OSM   H13T17825   4.796   4.971   3.093  1.6471  1.4911  2.4209
  159OSM   C14S17826   4.651   5.048   3.239  0.3750 -0.0428 -0.4600
  159OSM   H14S17827   4.597   4.951   3.236  0.4962 -0.1109 -0.4504
  159OSM   H14T17828   4.566   5.120   3.247 -1.4464 -1.9422 -1.6131
  159OSM   C15S17829   4.749   5.042   3.357  0.0662  0.0293  0.6262
  159OSM   H15S17830   4.807   5.136   3.346 -0.9037  0.4647 -1.1314
  159OSM   H15T17831   4.816   4.954   3.351 -0.7468 -0.5447 -0.6254
  159OSM   C16S17832   4.691   5.034   3.501 -0.1187 -0.5177  0.3927
  159OSM   H16S17833   4.652   4.932   3.517 -0.7105 -0.1225  1.5496
  159OSM   H16T17834   4.604   5.103   3.508 -1.2380 -1.7683 -0.6102
  159OSM   C17S17835   4.803   5.068   3.603 -0.0142 -0.0411 -0.3931
  159OSM   H17S17836   4.840   5.172   3.595 -0.9612  0.2860 -0.7008
  159OSM   H17T17837   4.887   4.999   3.579 -0.1972 -1.7207  3.1788
  159OSM   C18S17838   4.760   5.045   3.753  0.5156 -0.2466  0.2481
  159OSM   H18S17839   4.833   5.097   3.818  0.6599 -0.7377  0.4874
  159OSM   H18T17840   4.748   4.936   3.775 -2.3675  0.1669  1.1448
  159OSM   H18U17841   4.662   5.093   3.773 -0.5010 -1.9098 -0.5236
  159OSM    C1F17842   4.754   4.750   2.222 -0.0217 -0.0641  0.3781
  159OSM     OF17843   4.683   4.663   2.163 -0.2065  0.0477 -0.2672
  159OSM    C2F17844   4.713   4.895   2.232 -0.6960  0.1001 -0.5174
  159OSM    H2F17845   4.720   4.941   2.132 -2.6311 -1.5320 -1.4908
  159OSM    H2G17846   4.779   4.948   2.304 -0.8783 -0.7469  0.3129
  159OSM    C3F17847   4.560   4.903   2.269 -0.9762  0.1645 -0.3721
  159OSM    H3F17848   4.504   4.847   2.191  0.1155  1.5468 -2.2398
  159OSM    H3G17849   4.529   5.010   2.266  0.4079  0.6802  1.4692
  159OSM    C4F17850   4.516   4.838   2.403 -0.5070 -0.0151  0.3146
  159OSM    H4F17851   4.537   4.903   2.490  1.4970 -0.9380  0.5596
  159OSM    H4G17852   4.576   4.747   2.421  0.2101  0.4045  0.0856
  159OSM    C5F17853   4.363   4.802   2.412 -0.5391  0.4073  0.1957
  159OSM    H5F17854   4.336   4.729   2.333 -1.1849 -0.3916  1.1201
  159OSM    H5G17855   4.314   4.901   2.398 -0.1491  0.8737  1.9134
  159OSM    C6F17856   4.337   4.734   2.541  0.2856 -0.6050 -0.8611
  159OSM    H6F17857   4.407   4.777   2.617 -0.1462 -0.0606 -0.7593
  159OSM    H6G17858   4.356   4.625   2.544  3.4981 -0.1271  0.5731
  159OSM    C7F17859   4.199   4.769   2.600 -0.3539 -0.0322  0.2758
  159OSM    H7F17860   4.153   4.676   2.641  0.6844 -0.6558  0.0496
  159OSM    H7G17861   4.136   4.802   2.514  0.5240  0.8711 -0.0287
  159OSM    C8F17862   4.199   4.883   2.703 -0.2697  0.0791  0.1010
  159OSM    H8F17863   4.199   4.978   2.646 -0.9639 -1.5235 -2.7498
  159OSM    H8G17864   4.292   4.860   2.760  0.7796  1.2016 -1.0686
  159OSM    C9F17865   4.081   4.873   2.801 -0.6832 -0.1544  0.9968
  159OSM    H9F17866   3.979   4.901   2.771 -0.5957 -0.6593  0.2033
  159OSM   C10F17867   4.100   4.830   2.928  0.7199  0.2935  0.1582
  159OSM   H10F17868   4.012   4.820   2.994  1.1065  1.8046  0.9570
  159OSM   C11F17869   4.226   4.793   2.999 -0.4979 -0.0227 -0.0334
  159OSM   H11F17870   4.311   4.803   2.928 -1.0543 -0.0832 -0.7163
  159OSM   H11G17871   4.216   4.691   3.042 -0.5413  1.0807  2.8087
  159OSM   C12F17872   4.268   4.885   3.110  0.3228  0.3075 -0.1648
  159OSM   H12F17873   4.257   4.992   3.085 -1.2464  0.4258  0.8974
  159OSM   H12G17874   4.371   4.860   3.141 -0.0582 -1.1346  0.0248
  159OSM   C13F17875   4.180   4.878   3.240  0.3241 -0.2241  0.1020
  159OSM   H13F17876   4.170   4.772   3.270  1.1074 -1.0436 -2.3164
  159OSM   H13G17877   4.074   4.905   3.217  0.3414  0.0531  0.3453
  159OSM   C14F17878   4.232   4.956   3.363 -0.0734 -0.1935  0.6835
  159OSM   H14F17879   4.226   5.066   3.344 -2.2727 -0.1962  1.1079
  159OSM   H14G17880   4.336   4.932   3.392  0.7950  0.9028 -1.2798
  159OSM   C15F17881   4.153   4.945   3.493  0.2979  0.0208 -0.0280
  159OSM   H15F17882   4.154   4.843   3.536  1.7350 -0.8077 -1.8578
  159OSM   H15G17883   4.047   4.967   3.465  0.0304 -1.4968 -0.3291
  159OSM   C16F17884   4.190   5.047   3.594  0.2091 -0.3677 -0.6238
  159OSM   H16F17885   4.103   5.057   3.663  0.1519 -1.1215 -0.5747
  159OSM   H16G17886   4.224   5.142   3.548  1.6664 -0.5136  0.0924
  159OSM   C17F17887   4.302   5.013   3.692 -0.1215  0.0991 -0.1933
  159OSM   H17F17888   4.396   5.014   3.632  1.3504 -0.2570  1.9737
  159OSM   H17G17889   4.300   4.914   3.743  0.6132  0.7341  1.1143
  159OSM   C18F17890   4.327   5.119   3.794  0.0037 -0.2416 -0.8192
  159OSM   H18F17891   4.233   5.122   3.853  0.2879  0.1303 -0.3698
  159OSM   H18G17892   4.348   5.217   3.745 -0.7332  0.5765  0.4383
  159OSM   H18H17893   4.415   5.097   3.858  0.4477 -1.5402 -1.8406
  160OSM      N17894   4.319   6.084   1.738  0.0564 -0.3598  0.2105
  160OSM    C1517895   4.196   6.129   1.663  0.0328 -0.1076  0.4197
  160OSM   H15A17896   4.219   6.205   1.590 -1.6175 -1.4075 -1.5511
  160OSM   H15B17897   4.119   6.181   1.718 -1.2316  0.3692 -1.6798
  160OSM   H15C17898   4.149   6.053   1.603  1.8835  0.5166 -1.9550
  160OSM    C1417899   4.409   6.011   1.648  0.0389 -0.6463 -0.1021
  160OSM   H14A17900   4.429   6.073   1.561 -0.5977 -0.0623  0.1596
  160OSM   H14B17901   4.366   5.919   1.610  0.5066 -0.4070 -1.2723
  160OSM   H14C17902   4.500   5.978   1.695 -0.2949 -0.1084  0.9556
  160OSM    C1317903   4.385   6.209   1.784 -0.1377 -0.3304 -0.3768
  160OSM   H13A17904   4.467   6.190   1.852 -0.1270  0.1744 -0.2452
  160OSM   H13B17905   4.321   6.259   1.856  1.0469  0.1417  0.3872
  160OSM   H13C17906   4.413   6.280   1.708 -0.5910  1.9380  1.4546
  160OSM    C1217907   4.285   5.993   1.859 -0.6258  1.0533 -0.1515
  160OSM   H12A17908   4.377   5.959   1.905 -3.0080 -2.7484  2.2917
  160OSM   H12B17909   4.248   5.897   1.826 -0.0726  0.3553  1.1769
  160OSM    C1117910   4.195   6.037   1.973  0.5977 -0.5390 -0.0933
  160OSM   H11A17911   4.237   6.120   2.033  0.8997  0.2951 -1.4164
  160OSM   H11B17912   4.188   5.946   2.036  0.1994  0.1237  0.8358
  160OSM      P17913   3.967   5.971   1.873 -0.0345  0.0021 -0.0104
  160OSM    O1317914   3.861   6.039   1.789  0.3952  0.1852 -0.0727
  160OSM    O1417915   4.040   5.857   1.820 -0.4300  0.4412  0.1833
  160OSM    O1117916   3.888   5.921   2.007  0.3653  0.5353  0.1527
  160OSM    O1217917   4.066   6.082   1.926  0.4293  0.2807  0.3551
  160OSM    C1S17918   3.822   6.024   2.082 -0.9691 -0.1464  0.2878
  160OSM    H1S17919   3.737   6.062   2.021  1.1776  2.1844 -1.4150
  160OSM    H1T17920   3.894   6.105   2.103  0.0947 -0.3926 -2.1530
  160OSM     NF17921   3.661   6.039   2.268  0.7260 -0.3096 -0.1649
  160OSM    HNF17922   3.694   6.104   2.336 -0.0361  1.7295 -1.6415
  160OSM    C2S17923   3.766   5.960   2.208 -0.0048 -0.2768 -0.5315
  160OSM    H2S17924   3.718   5.861   2.189 -2.2165 -0.1149  3.1569
  160OSM    C3S17925   3.890   5.945   2.298  0.2080  0.0944 -0.5271
  160OSM    H3S17926   3.915   6.046   2.338  0.2979 -0.2620  0.3270
  160OSM     O317927   4.010   5.899   2.236  0.0759  0.3830 -0.0779
  160OSM    HO317928   3.989   5.904   2.142  0.0637 -0.7503 -0.1438
  160OSM    C4S17929   3.869   5.860   2.418  0.2163  0.5714  0.7998
  160OSM    H4S17930   3.885   5.751   2.408  0.9923  0.6021  1.5950
  160OSM    C5S17931   3.838   5.907   2.537  0.2499 -0.2501  0.1345
  160OSM    H5S17932   3.829   6.016   2.544  1.3117 -0.2206  1.1613
  160OSM    C6S17933   3.808   5.840   2.667  0.4276  0.4283  0.1368
  160OSM    H6S17934   3.742   5.912   2.720  1.0464  0.8722  0.3131
  160OSM    H6T17935   3.900   5.827   2.726  1.6298  1.9148 -1.3037
  160OSM    C7S17936   3.741   5.707   2.642  0.0423  0.0066  0.6815
  160OSM    H7S17937   3.819   5.636   2.606 -0.4026  0.8240 -2.1284
  160OSM    H7T17938   3.663   5.715   2.564 -0.2402  2.6991  1.1426
  160OSM    C8S17939   3.661   5.640   2.754 -0.4440 -0.0404  0.4330
  160OSM    H8S17940   3.628   5.538   2.725  0.2799 -0.0057 -0.6033
  160OSM    H8T17941   3.568   5.700   2.764 -1.0069 -1.1772  2.6850
  160OSM    C9S17942   3.725   5.643   2.894 -0.2316 -0.4197  0.6662
  160OSM    H9S17943   3.782   5.737   2.908  1.6982 -1.6128  1.2308
  160OSM    H9T17944   3.808   5.570   2.882 -0.3874 -0.4611 -0.2909
  160OSM   C10S17945   3.639   5.598   3.004  0.0077  0.5606 -0.2079
  160OSM   H10S17946   3.608   5.491   3.005 -0.2266  0.6329  0.8496
  160OSM   H10T17947   3.546   5.660   3.002  0.2647  0.9406 -0.4521
  160OSM   C11S17948   3.698   5.622   3.142 -0.8768 -0.6491 -0.6145
  160OSM   H11S17949   3.742   5.723   3.149 -1.2413 -0.6058  2.1674
  160OSM   H11T17950   3.785   5.554   3.154 -1.1883 -0.9921 -0.2507
  160OSM   C12S17951   3.609   5.585   3.257 -0.0486  0.0016  0.0809
  160OSM   H12S17952   3.575   5.480   3.251  1.0078 -0.2668 -2.2039
  160OSM   H12T17953   3.520   5.651   3.246  1.0926  1.6641  0.4594
  160OSM   C13S17954   3.673   5.614   3.399  0.2678 -0.5360  0.8328
  160OSM   H13S17955   3.683   5.724   3.408 -2.1117 -0.1534 -0.4697
  160OSM   H13T17956   3.772   5.564   3.399  0.2805 -0.6245 -1.5747
  160OSM   C14S17957   3.587   5.547   3.504 -0.0422  0.4846  0.2200
  160OSM   H14S17958   3.658   5.527   3.587 -1.5397  0.3706  1.5216
  160OSM   H14T17959   3.553   5.451   3.462 -0.2595  0.8411 -0.4317
  160OSM   C15S17960   3.468   5.628   3.556 -0.6372 -0.3234 -0.0322
  160OSM   H15S17961   3.381   5.607   3.490 -1.7078  0.2445  1.1685
  160OSM   H15T17962   3.494   5.736   3.548  0.3411 -0.6531 -1.9939
  160OSM   C16S17963   3.438   5.602   3.702  0.5375  0.1434  0.2968
  160OSM   H16S17964   3.525   5.616   3.769  0.2980 -2.1753  1.2111
  160OSM   H16T17965   3.389   5.502   3.706 -0.8600  0.8426  2.7016
  160OSM   C17S17966   3.332   5.695   3.761 -0.6016 -0.1469  0.1040
  160OSM   H17S17967   3.253   5.690   3.683  0.8732 -0.7700 -1.4312
  160OSM   H17T17968   3.373   5.798   3.767 -2.1273  0.6238 -1.7587
  160OSM   C18S17969   3.281   5.660   3.904 -0.1950  0.0757  0.0576
  160OSM   H18S17970   3.366   5.669   3.975  2.2134  0.9821 -2.7541
  160OSM   H18T17971   3.239   5.558   3.907  0.6931 -0.5328 -3.4965
  160OSM   H18U17972   3.207   5.733   3.943  0.0638 -0.6304  2.0126
  160OSM    C1F17973   3.537   6.039   2.225  0.2993  0.5335  0.5862
  160OSM     OF17974   3.501   5.958   2.139 -0.0636  0.2404  0.6706
  160OSM    C2F17975   3.448   6.148   2.272 -0.3247 -0.0085 -0.2089
  160OSM    H2F17976   3.405   6.198   2.182 -0.3914  0.5321  0.1168
  160OSM    H2G17977   3.505   6.229   2.323  0.6612  0.6771 -2.2929
  160OSM    C3F17978   3.332   6.103   2.359 -0.0305  0.9129 -0.6757
  160OSM    H3F17979   3.278   6.031   2.294 -0.5151  0.1089  0.5911
  160OSM    H3G17980   3.265   6.184   2.396  0.8238  0.8501  1.0719
  160OSM    C4F17981   3.370   6.017   2.482 -0.1875 -0.0968 -0.2723
  160OSM    H4F17982   3.445   6.067   2.547 -0.3430  1.8342 -1.5173
  160OSM    H4G17983   3.411   5.922   2.443  1.0784 -0.0714  0.9082
  160OSM    C5F17984   3.246   5.980   2.568 -0.1394  0.0044 -0.2302
  160OSM    H5F17985   3.169   5.925   2.510 -0.2845  0.8507 -0.8512
  160OSM    H5G17986   3.196   6.067   2.616  0.1651 -0.3685  0.7928
  160OSM    C6F17987   3.279   5.880   2.682 -0.0229 -0.0455  0.2519
  160OSM    H6F17988   3.388   5.893   2.697  0.4928  0.5425 -3.1536
  160OSM    H6G17989   3.278   5.772   2.656 -0.9177  0.2933 -1.2341
  160OSM    C7F17990   3.200   5.921   2.808 -1.1624  0.2288  0.0412
  160OSM    H7F17991   3.094   5.915   2.777 -0.7636  0.8115 -1.4921
  160OSM    H7G17992   3.232   6.023   2.839  1.7234 -0.4872 -0.2374
  160OSM    C8F17993   3.220   5.829   2.928 -0.2267 -0.3896  0.3691
  160OSM    H8F17994   3.224   5.727   2.883  0.2230 -1.8481  3.4395
  160OSM    H8G17995   3.128   5.832   2.990  0.2244  1.3429  1.0070
  160OSM    C9F17996   3.343   5.858   3.006  0.4718  0.1640 -0.0807
  160OSM    H9F17997   3.437   5.861   2.948  0.9600 -2.9281  0.3766
  160OSM   C10F17998   3.355   5.852   3.137  0.0017 -0.6213  0.4065
  160OSM   H10F17999   3.455   5.868   3.179 -0.1798 -0.6724  0.8654
  160OSM   C11F18000   3.255   5.809   3.239  0.5687 -0.4684 -0.1015
  160OSM   H11F18001   3.296   5.738   3.314  0.9052  0.6153  0.7698
  160OSM   H11G18002   3.163   5.767   3.194  0.6698 -0.9882  0.1690
  160OSM   C12F18003   3.219   5.933   3.330 -0.7509 -0.3713 -0.2312
  160OSM   H12F18004   3.140   5.906   3.403 -1.2537  1.4628 -0.0397
  160OSM   H12G18005   3.177   6.018   3.272 -0.2440  1.7096  2.2722
  160OSM   C13F18006   3.334   5.993   3.410  0.1228  0.3736 -0.5368
  160OSM   H13F18007   3.423   6.010   3.346  0.3044  1.3384 -0.0466
  160OSM   H13G18008   3.358   5.920   3.490 -0.6822 -0.8440 -1.3712
  160OSM   C14F18009   3.295   6.134   3.472 -0.3305  0.7061  0.1346
  160OSM   H14F18010   3.206   6.137   3.539  1.1526  0.5597  2.2060
  160OSM   H14G18011   3.269   6.202   3.388 -0.6527  2.1426  1.3588
  160OSM   C15F18012   3.422   6.189   3.543 -0.0590  0.3481  0.1203
  160OSM   H15F18013   3.381   6.276   3.599 -2.4199 -1.1744  0.9093
  160OSM   H15G18014   3.502   6.212   3.469  1.1246 -2.8744  0.2276
  160OSM   C16F18015   3.486   6.098   3.645 -0.4905 -1.1480  0.6748
  160OSM   H16F18016   3.530   6.011   3.591  0.8587  1.0802 -2.1007
  160OSM   H16G18017   3.401   6.078   3.714 -0.0858 -3.2142  0.6441
  160OSM   C17F18018   3.612   6.175   3.702 -0.3600  0.4938 -0.1472
  160OSM   H17F18019   3.579   6.262   3.764  0.8133  0.2692  0.8229
  160OSM   H17G18020   3.665   6.221   3.616  1.1356 -1.4232 -0.2924
  160OSM   C18F18021   3.704   6.087   3.783 -0.3223  0.9283  0.2494
  160OSM   H18F18022   3.798   6.142   3.804  0.1448  0.9610 -1.7392
  160OSM   H18G18023   3.738   6.001   3.722 -1.5618  0.7663 -0.2404
  160OSM   H18H18024   3.654   6.053   3.876  2.2220 -0.6705  1.1286
  161OSM      N18025   1.541   6.374   1.632 -0.1273  0.0428 -0.1427
  161OSM    C1518026   1.620   6.425   1.754 -0.8400 -0.2501  0.0399
  161OSM   H15A18027   1.582   6.521   1.786  2.8137  1.4216 -0.1887
  161OSM   H15B18028   1.726   6.431   1.739 -0.9051  0.3273 -0.1861
  161OSM   H15C18029   1.612   6.346   1.828  0.0929  0.4594  0.9214
  161OSM    C1418030   1.398   6.389   1.659  1.2679 -0.6303 -0.0363
  161OSM   H14A18031   1.359   6.321   1.734 -1.0485  0.8368  0.1912
  161OSM   H14B18032   1.340   6.353   1.576 -0.4153  1.2450  0.2527
  161OSM   H14C18033   1.375   6.489   1.693  2.5467  0.4685 -2.1889
  161OSM    C1318034   1.569   6.463   1.513  0.7051 -0.3481  0.8694
  161OSM   H13A18035   1.584   6.566   1.543  0.9812 -0.6741  1.8894
  161OSM   H13B18036   1.487   6.447   1.445  1.8421 -0.2750 -0.5459
  161OSM   H13C18037   1.661   6.427   1.471 -0.5704 -1.3919 -1.1400
  161OSM    C1218038   1.579   6.234   1.604  0.6253  0.2143  0.2349
  161OSM   H12A18039   1.683   6.234   1.578  0.1613  0.2487 -1.8243
  161OSM   H12B18040   1.522   6.209   1.515  0.2675 -0.3473  0.6210
  161OSM    C1118041   1.559   6.123   1.707  0.4852 -0.0186 -0.3210
  161OSM   H11A18042   1.573   6.024   1.659 -0.7686 -0.7662  0.8067
  161OSM   H11B18043   1.453   6.128   1.739 -0.3056 -0.6880 -2.6215
  161OSM      P18044   1.804   6.088   1.788  0.4845  0.0320 -0.5487
  161OSM    O1318045   1.818   5.944   1.822  0.1341 -0.6578 -0.5503
  161OSM    O1418046   1.839   6.132   1.654 -0.0220  0.0436  0.2322
  161OSM    O1118047   1.867   6.177   1.894  0.1810 -0.3655  0.1267
  161OSM    O1218048   1.645   6.126   1.814 -0.6291 -0.8771 -0.0838
  161OSM    C1S18049   1.849   6.160   2.039  0.0313  0.2758  0.3093
  161OSM    H1S18050   1.873   6.058   2.075 -1.4277 -0.8691 -1.7981
  161OSM    H1T18051   1.743   6.185   2.059 -0.1372  0.5127 -0.8259
  161OSM     NF18052   1.953   6.231   2.243 -0.0831  0.0187 -0.0470
  161OSM    HNF18053   1.890   6.288   2.294 -0.0728 -0.6716  0.7561
  161OSM    C2S18054   1.947   6.262   2.100  0.0599  0.1763  0.7759
  161OSM    H2S18055   2.050   6.249   2.060  0.3947  1.2137  1.2631
  161OSM    C3S18056   1.887   6.405   2.071  0.2217 -1.1775  0.0473
  161OSM    H3S18057   1.779   6.411   2.097  0.2507  1.6159 -0.1718
  161OSM     O318058   1.885   6.449   1.934  0.1539  0.2948 -0.4397
  161OSM    HO318059   1.887   6.360   1.897 -0.2554  1.1338 -2.5772
  161OSM    C4S18060   1.969   6.494   2.153 -0.0984 -0.2795  0.3304
  161OSM    H4S18061   2.076   6.489   2.126 -0.2748 -0.7581 -0.2985
  161OSM    C5S18062   1.934   6.579   2.253  0.0740 -0.9576 -0.5945
  161OSM    H5S18063   1.832   6.585   2.293  0.9378  1.1851  1.5593
  161OSM    C6S18064   2.024   6.661   2.335 -0.4508  1.2507 -0.5725
  161OSM    H6S18065   1.978   6.760   2.353  0.2648  1.3976  0.4966
  161OSM    H6T18066   2.121   6.668   2.281  0.1912  0.5372  0.4591
  161OSM    C7S18067   2.058   6.603   2.472  0.1309 -0.3796  0.5604
  161OSM    H7S18068   2.119   6.674   2.532 -0.2044 -0.5850  1.1491
  161OSM    H7T18069   2.125   6.516   2.457 -2.6281 -2.7860  1.3851
  161OSM    C8S18070   1.943   6.550   2.555  0.2508 -0.0264 -0.5062
  161OSM    H8S18071   1.912   6.455   2.507 -0.3801  0.6930 -1.5557
  161OSM    H8T18072   1.852   6.613   2.566  1.0858  1.2065 -0.4720
  161OSM    C9S18073   1.990   6.509   2.693 -0.0089 -0.1196  0.7810
  161OSM    H9S18074   2.039   6.598   2.740  0.5866  0.1126 -0.2628
  161OSM    H9T18075   2.068   6.430   2.692  0.6819  0.3456  4.1806
  161OSM   C10S18076   1.877   6.452   2.790  0.0953 -0.1047  0.4060
  161OSM   H10S18077   1.864   6.343   2.771  0.0461  0.3782 -2.8960
  161OSM   H10T18078   1.780   6.501   2.769 -0.2101 -0.9572 -0.2205
  161OSM   C11S18079   1.892   6.478   2.937 -0.1113  0.1254 -0.3548
  161OSM   H11S18080   1.914   6.587   2.940  3.7367 -0.4679 -1.0857
  161OSM   H11T18081   1.979   6.419   2.974  0.1825  0.7731  0.0111
  161OSM   C12S18082   1.770   6.466   3.030 -0.0045 -0.6894  0.1846
  161OSM   H12S18083   1.716   6.370   3.045 -1.1376  0.1488  1.6769
  161OSM   H12T18084   1.697   6.531   2.977  2.9114  1.5567 -1.4544
  161OSM   C13S18085   1.796   6.539   3.159 -0.3060  0.1340 -0.5985
  161OSM   H13S18086   1.704   6.587   3.197  1.2989  1.9460  1.2153
  161OSM   H13T18087   1.863   6.626   3.140  1.3660 -1.1210 -0.7168
  161OSM   C14S18088   1.864   6.448   3.269  0.4378 -0.0570  0.4530
  161OSM   H14S18089   1.973   6.449   3.247  0.6777 -1.9321  1.3382
  161OSM   H14T18090   1.821   6.345   3.261  1.7637 -0.5204 -1.3904
  161OSM   C15S18091   1.841   6.517   3.408  0.0759  1.1394  0.7533
  161OSM   H15S18092   1.742   6.484   3.445 -0.9107  1.2935 -1.6290
  161OSM   H15T18093   1.844   6.625   3.382  2.0140  0.5110 -2.0880
  161OSM   C16S18094   1.942   6.493   3.521 -0.1315 -0.2522 -0.3412
  161OSM   H16S18095   2.042   6.521   3.484 -0.4732  1.6947  0.1181
  161OSM   H16T18096   1.937   6.384   3.541  1.7568 -0.1383  1.0112
  161OSM   C17S18097   1.911   6.572   3.643  0.3979 -0.1041 -0.0357
  161OSM   H17S18098   1.803   6.568   3.669  0.7582  0.0649  1.5889
  161OSM   H17T18099   1.926   6.682   3.637 -0.2365  0.1376  1.9123
  161OSM   C18S18100   2.000   6.526   3.763 -0.1567 -0.2638 -0.9145
  161OSM   H18S18101   2.105   6.511   3.731  0.0598  1.3676 -1.0391
  161OSM   H18T18102   1.961   6.431   3.805 -2.4385  1.3968  1.0703
  161OSM   H18U18103   2.004   6.589   3.855 -0.4006 -0.6990 -0.5991
  161OSM    C1F18104   2.034   6.134   2.297 -0.2927 -0.4393  0.9721
  161OSM     OF18105   2.114   6.070   2.228  0.0934  0.3175 -0.0410
  161OSM    C2F18106   2.031   6.128   2.443  0.3584 -0.4343  0.1705
  161OSM    H2F18107   1.982   6.218   2.485 -0.7923 -0.3609 -1.2789
  161OSM    H2G18108   2.135   6.134   2.482  0.0727 -0.4102  0.9442
  161OSM    C3F18109   1.956   6.007   2.489 -0.3400  0.8686 -0.4433
  161OSM    H3F18110   2.012   5.922   2.446  0.5235  1.8537 -1.3287
  161OSM    H3G18111   1.851   5.993   2.453 -0.7825  3.9387 -0.6760
  161OSM    C4F18112   1.943   5.982   2.640  0.0731  0.0322  0.3409
  161OSM    H4F18113   2.039   5.991   2.694  1.2564 -1.8128 -1.3202
  161OSM    H4G18114   1.910   5.876   2.642 -1.1497  0.3768 -0.0865
  161OSM    C5F18115   1.834   6.070   2.711  0.1866  0.3022 -0.1420
  161OSM    H5F18116   1.731   6.046   2.678  0.8097 -0.8862 -1.3210
  161OSM    H5G18117   1.853   6.174   2.675  0.8903 -0.1335 -1.0813
  161OSM    C6F18118   1.849   6.062   2.864  0.2979 -0.0284  0.3959
  161OSM    H6F18119   1.800   6.152   2.907  1.4518  0.5376  0.5506
  161OSM    H6G18120   1.956   6.064   2.892  1.0102 -2.3975 -1.7616
  161OSM    C7F18121   1.778   5.950   2.931  0.5597  0.3900  0.3636
  161OSM    H7F18122   1.827   5.855   2.904  0.6771 -0.0960  2.1186
  161OSM    H7G18123   1.670   5.942   2.904  0.1298  0.0010  2.0347
  161OSM    C8F18124   1.784   5.969   3.086  0.7993  0.0651  0.3141
  161OSM    H8F18125   1.707   5.898   3.123 -0.2445  0.4830 -0.9961
  161OSM    H8G18126   1.735   6.065   3.112  1.4316  0.7770 -1.0568
  161OSM    C9F18127   1.912   5.951   3.155 -0.1083 -0.8325  0.2282
  161OSM    H9F18128   1.997   5.970   3.088  1.2141 -0.2005  1.9772
  161OSM   C10F18129   1.942   5.912   3.279  0.3281 -1.3029  0.4637
  161OSM   H10F18130   2.046   5.887   3.305  0.9672  1.4366  0.8293
  161OSM   C11F18131   1.838   5.890   3.387  0.7631 -0.2161  0.0307
  161OSM   H11F18132   1.735   5.897   3.345  1.1089  0.0328 -0.7995
  161OSM   H11G18133   1.850   5.966   3.467  0.9644 -1.7157  1.4601
  161OSM   C12F18134   1.855   5.751   3.445  0.0920  0.4303 -0.0191
  161OSM   H12F18135   1.961   5.723   3.461 -0.2843 -1.1536 -0.1109
  161OSM   H12G18136   1.813   5.679   3.372  1.1121  2.1012 -2.3553
  161OSM   C13F18137   1.771   5.743   3.583  0.4690 -0.6036  0.3796
  161OSM   H13F18138   1.663   5.736   3.559  0.5958 -0.3597 -0.2784
  161OSM   H13G18139   1.772   5.849   3.617 -1.1328 -0.9003  1.4682
  161OSM   C14F18140   1.838   5.661   3.693  0.3265 -0.2021  0.3054
  161OSM   H14F18141   1.823   5.701   3.795  4.5195 -1.0203  1.4355
  161OSM   H14G18142   1.947   5.678   3.680  0.0865 -0.1858 -2.1656
  161OSM   C15F18143   1.809   5.509   3.703 -0.6137 -0.0328 -0.2231
  161OSM   H15F18144   1.868   5.457   3.781 -0.5858 -2.3381 -1.6711
  161OSM   H15G18145   1.849   5.476   3.604 -2.3377  0.8682 -1.2688
  161OSM   C16F18146   1.670   5.457   3.709  0.8057 -0.1006  0.0725
  161OSM   H16F18147   1.670   5.347   3.698 -2.5937 -0.3406  1.2380
  161OSM   H16G18148   1.625   5.486   3.611  1.3964  0.6204 -0.0012
  161OSM   C17F18149   1.595   5.518   3.837 -0.6438  1.4070  1.0403
  161OSM   H17F18150   1.488   5.486   3.841 -0.2448 -0.0391  0.7974
  161OSM   H17G18151   1.592   5.628   3.826 -0.6268  1.4622  1.5871
  161OSM   C18F18152   1.651   5.479   3.977  0.0928  0.2197  0.3229
  161OSM   H18F18153   1.596   5.533   4.058  1.9463  0.4583  1.4636
  161OSM   H18G18154   1.759   5.503   3.980  0.4156 -0.9602 -1.1526
  161OSM   H18H18155   1.639   5.370   3.991 -0.2403  0.3967  1.5288
  162OSM      N18156   2.658   5.421   1.919 -0.2629 -0.5448  0.3586
  162OSM    C1518157   2.529   5.494   1.898 -0.5070  0.1665 -0.6289
  162OSM   H15A18158   2.539   5.590   1.947 -2.8405 -0.1583  0.6347
  162OSM   H15B18159   2.449   5.442   1.950 -1.6838  0.0834 -2.4422
  162OSM   H15C18160   2.513   5.505   1.792  0.3612  1.7331 -0.6283
  162OSM    C1418161   2.769   5.503   1.856 -0.1553  0.0631  0.1509
  162OSM   H14A18162   2.774   5.605   1.892 -1.8111 -0.4135  1.8331
  162OSM   H14B18163   2.761   5.501   1.748 -2.3023 -2.5532  0.2480
  162OSM   H14C18164   2.868   5.462   1.870  0.6714  0.8922 -2.5491
  162OSM    C1318165   2.691   5.411   2.065  0.9709  0.0719  0.3473
  162OSM   H13A18166   2.712   5.502   2.119  0.7335  0.0956  0.4008
  162OSM   H13B18167   2.779   5.350   2.074  0.6014 -0.6694 -0.8882
  162OSM   H13C18168   2.604   5.364   2.108 -0.2716  0.9294 -1.1126
  162OSM    C1218169   2.653   5.290   1.850 -0.2509  0.0567 -0.5087
  162OSM   H12A18170   2.738   5.231   1.881  0.7608  2.0056  0.6660
  162OSM   H12B18171   2.676   5.293   1.745  0.2748 -0.7881 -0.4323
  162OSM    C1118172   2.536   5.199   1.889 -0.2022  0.8103  0.0652
  162OSM   H11A18173   2.544   5.109   1.825  2.1457 -0.0548  1.4683
  162OSM   H11B18174   2.437   5.244   1.865 -1.6277 -0.0660  3.6973
  162OSM      P18175   2.418   5.173   2.119  0.5090  0.0943  0.2089
  162OSM    O1318176   2.430   5.299   2.195 -0.1354 -0.5865  0.1111
  162OSM    O1418177   2.287   5.149   2.051 -0.1588 -0.1803  0.2785
  162OSM    O1118178   2.442   5.054   2.219 -0.8532 -0.2070 -0.2142
  162OSM    O1218179   2.536   5.149   2.023  0.2603  0.3800  0.3049
  162OSM    C1S18180   2.574   5.022   2.266 -0.3871  0.7368  0.4494
  162OSM    H1S18181   2.656   5.076   2.215 -2.0484  1.5118 -1.5174
  162OSM    H1T18182   2.599   4.915   2.252  2.6706  1.7152 -2.8089
  162OSM     NF18183   2.721   5.029   2.479 -0.2553  0.2833  0.1720
  162OSM    HNF18184   2.758   4.937   2.490 -0.1475  0.4211  1.0597
  162OSM    C2S18185   2.589   5.045   2.423  0.5183 -0.3601 -0.2395
  162OSM    H2S18186   2.569   5.153   2.438  0.5439 -0.3949  0.0490
  162OSM    C3S18187   2.485   4.958   2.500 -0.0075  0.7422  0.0847
  162OSM    H3S18188   2.510   4.851   2.481 -4.3327 -0.6065  0.9170
  162OSM     O318189   2.357   4.960   2.443  0.2907 -0.0532  0.4701
  162OSM    HO318190   2.388   4.994   2.359 -2.5213  0.9118 -0.2831
  162OSM    C4S18191   2.494   4.976   2.650  0.2463 -0.0643 -0.0323
  162OSM    H4S18192   2.539   4.891   2.704 -1.1128 -0.1210  1.0856
  162OSM    C5S18193   2.431   5.067   2.724  0.5414  0.4135 -0.2811
  162OSM    H5S18194   2.362   5.143   2.684 -1.7427 -0.3466  1.9466
  162OSM    C6S18195   2.432   5.068   2.873  0.2374  0.2801 -0.0634
  162OSM    H6S18196   2.476   5.160   2.918 -0.8528  0.3546  0.9010
  162OSM    H6T18197   2.491   4.984   2.915 -0.8174 -0.5129 -0.1514
  162OSM    C7S18198   2.300   5.062   2.948 -0.2581 -0.0720 -0.6220
  162OSM    H7S18199   2.249   4.968   2.919 -0.3847 -0.3452  0.4328
  162OSM    H7T18200   2.243   5.147   2.905  1.2459  0.4376 -1.6866
  162OSM    C8S18201   2.322   5.095   3.095 -0.1022  0.2344  0.6297
  162OSM    H8S18202   2.388   5.184   3.105 -1.1178  1.3419 -1.8982
  162OSM    H8T18203   2.386   5.012   3.133 -0.0149  0.6831  1.4966
  162OSM    C9S18204   2.195   5.108   3.186  0.1523  0.2625 -0.6181
  162OSM    H9S18205   2.126   5.025   3.161 -1.6798  1.6145 -0.2942
  162OSM    H9T18206   2.147   5.203   3.155 -1.8353 -0.5167 -0.0661
  162OSM   C10S18207   2.234   5.110   3.336 -0.2617  0.3898 -0.0398
  162OSM   H10S18208   2.268   5.212   3.366  0.1678  0.0122  0.7665
  162OSM   H10T18209   2.314   5.034   3.339 -0.7289 -0.0878  0.3721
  162OSM   C11S18210   2.116   5.075   3.422  0.0660  0.0589 -0.0228
  162OSM   H11S18211   2.078   4.975   3.392  0.1281 -0.8453  2.6506
  162OSM   H11T18212   2.031   5.146   3.423 -0.3265 -0.3718  1.7893
  162OSM   C12S18213   2.150   5.070   3.576 -0.2283 -0.6508  0.4983
  162OSM   H12S18214   2.164   5.179   3.590 -0.4851 -0.1666 -2.3060
  162OSM   H12T18215   2.245   5.014   3.592  1.8556  2.4834 -0.1039
  162OSM   C13S18216   2.028   5.015   3.661 -0.4429 -0.3752 -0.6241
  162OSM   H13S18217   2.025   4.910   3.627  1.1601 -0.1339 -1.6476
  162OSM   H13T18218   1.934   5.072   3.646 -0.7113 -0.4555  0.7043
  162OSM   C14S18219   2.060   5.028   3.814 -0.1194  0.1563  0.1556
  162OSM   H14S18220   2.085   5.134   3.837 -1.6458  0.3282  1.2007
  162OSM   H14T18221   2.153   4.977   3.849  0.7999  1.1842 -0.7225
  162OSM   C15S18222   1.944   4.986   3.896 -0.3487  0.8473 -0.3531
  162OSM   H15S18223   1.907   4.885   3.868 -0.2354  0.9044 -0.7204
  162OSM   H15T18224   1.874   5.069   3.872  1.0638  1.9395 -0.8262
  162OSM   C16S18225   1.986   4.988   4.044  0.2236 -0.4005 -0.5113
  162OSM   H16S18226   2.024   4.886   4.066  1.8633  0.3824  0.4919
  162OSM   H16T18227   1.890   5.007   4.097 -0.3880  1.6263 -2.2357
  162OSM   C17S18228   2.084   5.096   4.092 -0.4533 -0.4846  0.0725
  162OSM   H17S18229   2.049   5.202   4.091  0.9400 -0.0216 -1.0388
  162OSM   H17T18230   2.175   5.092   4.030 -0.6135  3.3148 -0.6546
  162OSM   C18S18231   2.129   5.074   4.235 -0.1443  0.4505  0.1156
  162OSM   H18S18232   2.217   5.135   4.265  1.5744 -1.2841 -1.1597
  162OSM   H18T18233   2.151   4.967   4.256 -1.4120  0.0916 -0.2689
  162OSM   H18U18234   2.049   5.112   4.302 -0.6233  0.2462 -0.3350
  162OSM    C1F18235   2.822   5.119   2.459  1.1536  0.2490  0.1936
  162OSM     OF18236   2.794   5.217   2.391  0.5188 -0.1375  0.7463
  162OSM    C2F18237   2.956   5.079   2.504  0.9700  0.4274 -0.2103
  162OSM    H2F18238   3.026   5.092   2.419  2.6630 -0.2225  1.0190
  162OSM    H2G18239   2.960   4.975   2.544 -0.4708  1.1496  1.9539
  162OSM    C3F18240   3.003   5.188   2.617 -0.5275 -0.5425 -0.0054
  162OSM    H3F18241   3.001   5.292   2.579 -0.6969  0.0448  1.5549
  162OSM    H3G18242   3.105   5.145   2.622 -1.2458 -2.5153 -0.9109
  162OSM    C4F18243   2.932   5.183   2.752  0.1087  0.7331  0.7840
  162OSM    H4F18244   3.013   5.194   2.827  2.4752  1.8498 -1.8034
  162OSM    H4G18245   2.884   5.083   2.757  1.4040 -0.0785 -1.6770
  162OSM    C5F18246   2.818   5.284   2.773 -0.3124 -0.3105  0.3973
  162OSM    H5F18247   2.736   5.279   2.697  0.0188  0.3381 -0.0192
  162OSM    H5G18248   2.851   5.390   2.764 -0.1061 -0.3702  0.4657
  162OSM    C6F18249   2.739   5.262   2.908 -0.1422  0.2123  0.1354
  162OSM    H6F18250   2.696   5.160   2.894  0.4838 -0.0094 -0.1886
  162OSM    H6G18251   2.663   5.344   2.905  1.2804  1.5523 -1.5755
  162OSM    C7F18252   2.823   5.284   3.034 -0.8049  0.6935  0.2034
  162OSM    H7F18253   2.888   5.374   3.025  0.7906 -0.5360 -1.6334
  162OSM    H7G18254   2.882   5.190   3.036 -1.9237 -0.0272  0.2861
  162OSM    C8F18255   2.759   5.301   3.176  0.1700  0.0923 -0.0066
  162OSM    H8F18256   2.709   5.400   3.171  0.2198  0.1035 -0.2882
  162OSM    H8G18257   2.837   5.310   3.254  0.4151  0.6396 -0.3077
  162OSM    C9F18258   2.663   5.194   3.215  0.4329  0.5953  0.2154
  162OSM    H9F18259   2.661   5.112   3.142  4.3997  0.6196 -0.1483
  162OSM   C10F18260   2.613   5.173   3.337 -0.3509 -0.2016 -0.3131
  162OSM   H10F18261   2.559   5.080   3.360 -1.9041  0.5087 -0.9713
  162OSM   C11F18262   2.629   5.267   3.457  0.0015 -0.2180 -0.1489
  162OSM   H11F18263   2.530   5.316   3.467 -0.0891  0.2670 -2.7265
  162OSM   H11G18264   2.713   5.336   3.430 -0.1071  0.1373  0.4001
  162OSM   C12F18265   2.654   5.183   3.583 -0.2170  0.2702  0.1801
  162OSM   H12F18266   2.691   5.244   3.668 -0.2305  2.1784 -1.1185
  162OSM   H12G18267   2.716   5.092   3.567  1.3165  1.2862  0.1054
  162OSM   C13F18268   2.517   5.133   3.633  0.0463 -0.2323 -0.2025
  162OSM   H13F18269   2.461   5.106   3.541 -1.6856  1.2276  0.3628
  162OSM   H13G18270   2.456   5.219   3.668  0.4240 -0.1216  0.1870
  162OSM   C14F18271   2.533   5.007   3.722  0.0143 -0.4613 -0.2722
  162OSM   H14F18272   2.606   4.946   3.665  1.6122  0.9316  0.1959
  162OSM   H14G18273   2.434   4.959   3.731  0.3833 -0.9285  2.0099
  162OSM   C15F18274   2.585   5.042   3.863 -0.6791  0.5842  0.4796
  162OSM   H15F18275   2.684   5.091   3.848  0.9213 -2.5300 -0.0030
  162OSM   H15G18276   2.609   4.947   3.916 -0.5411  0.1799 -0.2931
  162OSM   C16F18277   2.486   5.119   3.948 -0.3071 -0.6473  0.4636
  162OSM   H16F18278   2.398   5.055   3.971  0.1484 -2.3072 -1.9963
  162OSM   H16G18279   2.454   5.204   3.884  1.5595 -0.2913 -0.0474
  162OSM   C17F18280   2.545   5.191   4.070 -0.1109 -0.2127 -0.5153
  162OSM   H17F18281   2.536   5.301   4.064 -0.7751 -0.0821  1.6717
  162OSM   H17G18282   2.653   5.170   4.060  0.0139 -0.0003  0.3143
  162OSM   C18F18283   2.510   5.128   4.202  0.0260 -0.1506  0.3790
  162OSM   H18F18284   2.452   5.033   4.202 -2.1513  1.1242  1.2128
  162OSM   H18G18285   2.429   5.182   4.255 -0.4243  0.2877 -0.7452
  162OSM   H18H18286   2.596   5.110   4.270 -0.1726 -0.2348  0.6097
  163OSM      N18287   2.750   6.283   1.895  0.3351  0.1835 -0.6765
  163OSM    C1518288   2.895   6.260   1.938  0.1433  0.5479 -0.2295
  163OSM   H15A18289   2.948   6.186   1.880 -0.8447  0.4997 -1.1019
  163OSM   H15B18290   2.897   6.221   2.039 -0.3648  0.9747 -0.0544
  163OSM   H15C18291   2.949   6.353   1.931 -0.8619  1.1872  0.3780
  163OSM    C1418292   2.746   6.371   1.770  0.2830 -0.0787  0.5703
  163OSM   H14A18293   2.804   6.332   1.689 -0.4434  1.0826 -0.5526
  163OSM   H14B18294   2.794   6.466   1.787  1.5962 -0.4445 -0.9170
  163OSM   H14C18295   2.643   6.383   1.740  0.1518  0.2968  1.1520
  163OSM    C1318296   2.687   6.150   1.870  0.1590  0.3648 -0.1270
  163OSM   H13A18297   2.750   6.100   1.799  1.9646 -0.1293  1.7300
  163OSM   H13B18298   2.593   6.156   1.818 -0.1308 -0.4020  0.2844
  163OSM   H13C18299   2.697   6.097   1.963  1.1331  2.4771  1.0532
  163OSM    C1218300   2.658   6.362   1.988  0.0717 -0.3985 -0.1705
  163OSM   H12A18301   2.558   6.368   1.949 -0.1430 -2.8666 -0.1868
  163OSM   H12B18302   2.688   6.465   1.991 -2.2304  0.3180  1.3672
  163OSM    C1118303   2.630   6.306   2.129  0.3106  0.1750  0.4002
  163OSM   H11A18304   2.594   6.389   2.193  1.1330 -1.0825  2.6211
  163OSM   H11B18305   2.728   6.281   2.174 -1.1134 -0.6944  3.2831
  163OSM      P18306   2.564   6.068   2.210  0.2427  0.4053 -0.4026
  163OSM    O1318307   2.441   5.994   2.229  0.6249 -0.4924 -0.3216
  163OSM    O1418308   2.683   5.999   2.156  0.0058  0.9079 -0.7095
  163OSM    O1118309   2.613   6.114   2.353  0.2614 -0.1006  0.5192
  163OSM    O1218310   2.534   6.199   2.127 -0.3966 -0.3822 -0.2390
  163OSM    C1S18311   2.532   6.180   2.448  0.9008 -0.6779  0.0191
  163OSM    H1S18312   2.430   6.139   2.438  1.0124 -0.4826 -2.2868
  163OSM    H1T18313   2.523   6.287   2.418  0.6875 -1.2368 -2.0727
  163OSM     NF18314   2.506   6.242   2.698  0.0582 -0.0181  0.1519
  163OSM    HNF18315   2.529   6.325   2.748 -0.5668  0.3947 -0.2297
  163OSM    C2S18316   2.590   6.180   2.598 -0.1287  0.2676 -0.1512
  163OSM    H2S18317   2.597   6.071   2.619  0.6181  0.1896 -0.7935
  163OSM    C3S18318   2.729   6.249   2.606  0.1156 -0.5832  0.2054
  163OSM    H3S18319   2.707   6.350   2.566  1.2728 -0.2834  0.2820
  163OSM     O318320   2.825   6.205   2.506  0.2727 -0.1709 -0.1014
  163OSM    HO318321   2.770   6.166   2.438 -1.0814  0.9523  0.2770
  163OSM    C4S18322   2.785   6.268   2.742 -0.4044  0.1141 -0.9382
  163OSM    H4S18323   2.744   6.359   2.786 -1.8230 -1.5563  1.3842
  163OSM    C5S18324   2.875   6.192   2.808  0.2410  0.7111 -0.2169
  163OSM    H5S18325   2.919   6.101   2.764  2.7397  1.9065 -0.3748
  163OSM    C6S18326   2.918   6.210   2.952  0.1118  0.4603  0.3130
  163OSM    H6S18327   3.025   6.238   2.963  0.2026 -0.3552  1.8032
  163OSM    H6T18328   2.908   6.114   3.007 -0.7966 -0.5495 -1.5082
  163OSM    C7S18329   2.838   6.307   3.040  0.2342  0.0197 -0.0026
  163OSM    H7S18330   2.736   6.265   3.052 -0.7647  2.3730  0.2949
  163OSM    H7T18331   2.825   6.407   2.993 -1.7393  1.2727  2.9410
  163OSM    C8S18332   2.899   6.312   3.183 -0.8094 -0.5849 -0.5174
  163OSM    H8S18333   2.897   6.210   3.228 -0.4546  0.5170  2.2083
  163OSM    H8T18334   2.834   6.372   3.251  0.2966 -0.9551  0.9218
  163OSM    C9S18335   3.035   6.388   3.189 -0.2185  0.6622  0.0388
  163OSM    H9S18336   3.038   6.460   3.104  1.3525  1.3396  0.6218
  163OSM    H9T18337   3.111   6.313   3.158  0.1832  1.2607 -0.4702
  163OSM   C10S18338   3.076   6.453   3.321 -0.2137 -0.0469  0.2349
  163OSM   H10S18339   3.085   6.382   3.406 -2.5813  0.9741  1.4246
  163OSM   H10T18340   2.986   6.510   3.350 -1.1511 -0.8057 -1.0768
  163OSM   C11S18341   3.206   6.538   3.314  0.2963  0.5537  0.1774
  163OSM   H11S18342   3.183   6.617   3.239  0.6003  1.1253  0.6783
  163OSM   H11T18343   3.284   6.468   3.276  1.1785  2.0226 -0.8552
  163OSM   C12S18344   3.233   6.599   3.453  0.4700  0.1607  0.6339
  163OSM   H12S18345   3.230   6.518   3.529 -0.6554 -1.5195 -1.1065
  163OSM   H12T18346   3.147   6.668   3.470  1.2957  0.6740  3.0818
  163OSM   C13S18347   3.369   6.667   3.446 -0.8915  0.2225 -0.7927
  163OSM   H13S18348   3.373   6.735   3.359  0.1971 -0.9999 -1.7369
  163OSM   H13T18349   3.442   6.586   3.426  1.0498  2.0067 -1.3162
  163OSM   C14S18350   3.396   6.762   3.563 -0.0984  0.4768 -0.2544
  163OSM   H14S18351   3.316   6.839   3.572 -0.5221  0.2830 -1.9986
  163OSM   H14T18352   3.491   6.816   3.544  1.6191 -2.9847 -2.7659
  163OSM   C15S18353   3.397   6.673   3.691 -0.6243 -0.3393  0.0034
  163OSM   H15S18354   3.478   6.597   3.694 -0.3232  0.0081  1.1553
  163OSM   H15T18355   3.299   6.620   3.696 -1.2053  0.3357 -2.7243
  163OSM   C16S18356   3.413   6.764   3.815  0.5020 -0.3875 -0.5104
  163OSM   H16S18357   3.335   6.843   3.805  0.7535 -0.1171 -0.3542
  163OSM   H16T18358   3.508   6.821   3.822  0.1983 -0.0588  3.4983
  163OSM   C17S18359   3.379   6.697   3.942 -0.1171 -0.3604 -0.2582
  163OSM   H17S18360   3.448   6.610   3.949  0.5342  0.1387 -0.3977
  163OSM   H17T18361   3.274   6.661   3.949 -0.6543  1.4042  1.7073
  163OSM   C18S18362   3.401   6.788   4.064  0.3317  0.2972 -0.1095
  163OSM   H18S18363   3.401   6.718   4.151  0.4821 -1.3998 -1.4259
  163OSM   H18T18364   3.323   6.861   4.092  1.2123  0.8676  0.9872
  163OSM   H18U18365   3.504   6.829   4.064  0.1533  0.8154 -1.8273
  163OSM    C1F18366   2.393   6.175   2.720  0.8967 -0.5826 -0.1897
  163OSM     OF18367   2.369   6.068   2.674  0.0343 -0.0339  0.2950
  163OSM    C2F18368   2.295   6.246   2.810 -0.1159  0.0363 -0.5568
  163OSM    H2F18369   2.189   6.225   2.782 -0.8251  1.1731  1.1518
  163OSM    H2G18370   2.311   6.356   2.811 -0.5909  0.2962 -4.3337
  163OSM    C3F18371   2.311   6.192   2.959  0.0515 -0.3841  0.2271
  163OSM    H3F18372   2.419   6.212   2.972  0.1916  0.6140 -1.9766
  163OSM    H3G18373   2.290   6.083   2.952  0.8695 -0.4779 -1.3477
  163OSM    C4F18374   2.224   6.275   3.056  0.2406  0.1035  0.6598
  163OSM    H4F18375   2.127   6.228   3.031  0.7878  0.7376 -3.3032
  163OSM    H4G18376   2.220   6.382   3.030  0.7655 -0.0841 -0.2519
  163OSM    C5F18377   2.256   6.239   3.198  0.7828  0.4430 -0.4243
  163OSM    H5F18378   2.236   6.130   3.213  1.4087 -0.1403 -3.1842
  163OSM    H5G18379   2.177   6.294   3.254  0.3354  2.2250 -2.6691
  163OSM    C6F18380   2.398   6.264   3.247  0.7391 -0.7331  0.3048
  163OSM    H6F18381   2.424   6.367   3.217 -0.9761 -0.6892 -1.1892
  163OSM    H6G18382   2.467   6.193   3.196  1.0441 -0.4419  0.3081
  163OSM    C7F18383   2.401   6.256   3.396  0.5498 -0.7130 -0.6298
  163OSM    H7F18384   2.393   6.146   3.415  2.8523 -0.6179  1.4109
  163OSM    H7G18385   2.319   6.310   3.447  1.4457  0.4314 -0.3716
  163OSM    C8F18386   2.532   6.316   3.468  0.2585 -0.3498  0.2950
  163OSM    H8F18387   2.510   6.322   3.577 -0.1979 -1.5631  0.2767
  163OSM    H8G18388   2.531   6.424   3.441 -0.2846 -0.3926  0.1389
  163OSM    C9F18389   2.668   6.254   3.450 -0.0936  0.0412  0.2564
  163OSM    H9F18390   2.715   6.255   3.350  1.0368  0.7201  0.7724
  163OSM   C10F18391   2.729   6.196   3.550  0.0364  0.5069 -0.4867
  163OSM   H10F18392   2.821   6.143   3.525  0.6720  1.3883 -0.0602
  163OSM   C11F18393   2.692   6.180   3.692 -0.0727 -0.2771  0.3576
  163OSM   H11F18394   2.613   6.103   3.701  0.8552 -1.2356  0.4558
  163OSM   H11G18395   2.641   6.276   3.717  2.5003  1.8986 -2.0939
  163OSM   C12F18396   2.789   6.135   3.798  1.0306  0.3884  0.0478
  163OSM   H12F18397   2.809   6.026   3.792 -1.8317 -0.2391  0.1852
  163OSM   H12G18398   2.740   6.159   3.895  2.2656  1.5461  0.4050
  163OSM   C13F18399   2.928   6.206   3.803  0.2237  0.4461  0.7453
  163OSM   H13F18400   2.910   6.316   3.807  1.4548  0.7302 -0.6961
  163OSM   H13G18401   2.977   6.168   3.712 -1.5393 -2.3085  0.8225
  163OSM   C14F18402   3.019   6.170   3.922 -0.0068 -0.2493  0.1547
  163OSM   H14F18403   3.031   6.061   3.941 -2.0135 -0.4964  0.2766
  163OSM   H14G18404   2.985   6.228   4.011 -1.8727 -0.1053 -0.5883
  163OSM   C15F18405   3.161   6.233   3.900  0.3990 -0.4674  0.0526
  163OSM   H15F18406   3.156   6.336   3.860 -1.9688 -0.5290  0.0003
  163OSM   H15G18407   3.221   6.181   3.822 -1.2980 -2.3531 -0.1027
  163OSM   C16F18408   3.242   6.216   4.032  0.2592 -0.0281 -0.7746
  163OSM   H16F18409   3.243   6.107   4.055  0.8112 -0.2163 -1.6415
  163OSM   H16G18410   3.193   6.271   4.116 -1.0631 -0.5447 -1.1765
  163OSM   C17F18411   3.386   6.258   4.009 -0.3840 -0.1043  0.2398
  163OSM   H17F18412   3.398   6.368   4.019  0.7754 -0.3046  1.3066
  163OSM   H17G18413   3.433   6.233   3.911 -0.4421 -0.6506  0.3485
  163OSM   C18F18414   3.480   6.194   4.115 -0.0604 -0.4000  0.1321
  163OSM   H18F18415   3.444   6.218   4.217 -1.0534 -0.4369 -0.1981
  163OSM   H18G18416   3.587   6.223   4.109 -0.0994  0.2652  2.0200
  163OSM   H18H18417   3.498   6.084   4.109  0.6360 -0.3279  0.7604
  164OSM      N18418   2.176   4.663   2.287  0.8130  0.2609  0.0072
  164OSM    C1518419   2.136   4.607   2.412 -0.4998 -0.0131 -0.0124
  164OSM   H15A18420   2.180   4.667   2.490  1.5158  0.4844 -1.4234
  164OSM   H15B18421   2.184   4.511   2.422  0.8435  0.5802 -0.4076
  164OSM   H15C18422   2.030   4.597   2.423 -0.7718  0.0178 -2.0948
  164OSM    C1418423   2.097   4.782   2.246 -0.7373  0.7018  0.4745
  164OSM   H14A18424   1.990   4.770   2.240 -0.6417  0.0264  0.1102
  164OSM   H14B18425   2.129   4.814   2.147  1.6838 -2.5651  0.0348
  164OSM   H14C18426   2.122   4.866   2.310  3.1506 -0.7823  1.1646
  164OSM    C1318427   2.318   4.696   2.291 -0.6298  0.5530  0.9114
  164OSM   H13A18428   2.373   4.612   2.332 -0.0895  1.3474  1.8617
  164OSM   H13B18429   2.342   4.785   2.348  0.6299  1.2401 -0.6003
  164OSM   H13C18430   2.356   4.719   2.193  1.1854  0.9634  1.6595
  164OSM    C1218431   2.154   4.557   2.172  0.3816  0.3233 -0.1866
  164OSM   H12A18432   2.217   4.470   2.186 -0.9043 -0.4691  0.9395
  164OSM   H12B18433   2.196   4.609   2.086 -1.5044  0.5498 -1.0203
  164OSM    C1118434   2.006   4.513   2.148 -0.1905  0.1945 -0.2075
  164OSM   H11A18435   1.985   4.488   2.042  0.1240 -1.8068  0.1656
  164OSM   H11B18436   1.942   4.600   2.173 -0.5614 -0.4642  1.2458
  164OSM      P18437   1.826   4.378   2.289 -0.4889  0.1560 -0.0041
  164OSM    O1318438   1.739   4.436   2.185 -0.3795 -0.2016  0.2991
  164OSM    O1418439   1.810   4.238   2.323  0.3667  0.2215  0.2963
  164OSM    O1118440   1.834   4.472   2.423 -0.5746  0.0981 -0.2812
  164OSM    O1218441   1.976   4.406   2.234  0.0675  0.0208 -0.8146
  164OSM    C1S18442   1.742   4.440   2.528  0.1570  1.0991  0.2471
  164OSM    H1S18443   1.734   4.331   2.547 -0.8527  1.4521  2.0239
  164OSM    H1T18444   1.643   4.488   2.516  0.0414  1.0122  0.8098
  164OSM     NF18445   1.707   4.454   2.770  0.1727 -0.6508 -0.2600
  164OSM    HNF18446   1.650   4.528   2.805  1.5532  0.0452  0.5747
  164OSM    C2S18447   1.791   4.501   2.671  0.2201 -0.1704 -0.1261
  164OSM    H2S18448   1.894   4.467   2.695 -1.0272 -3.2042  1.4473
  164OSM    C3S18449   1.797   4.662   2.667  0.2960  0.3836  0.2191
  164OSM    H3S18450   1.700   4.703   2.632  0.5931  0.4238 -0.5724
  164OSM     O318451   1.898   4.711   2.582 -0.2043 -0.0714  0.0812
  164OSM    HO318452   1.903   4.654   2.505 -2.2029  0.3440 -0.4234
  164OSM    C4S18453   1.821   4.725   2.802  0.2193 -0.8495 -0.5507
  164OSM    H4S18454   1.727   4.757   2.848  0.3023 -1.3306 -0.0422
  164OSM    C5S18455   1.936   4.737   2.861  0.4561 -1.0401 -0.6524
  164OSM    H5S18456   2.027   4.690   2.819  1.8630  1.9954 -1.2897
  164OSM    C6S18457   1.949   4.790   3.008  0.1530  0.5589  0.1011
  164OSM    H6S18458   1.866   4.858   3.038 -0.2631  0.2284 -0.3002
  164OSM    H6T18459   2.047   4.842   3.017  0.0820  0.8250 -0.6667
  164OSM    C7S18460   1.929   4.678   3.108 -0.4847  0.0698 -0.0853
  164OSM    H7S18461   1.987   4.586   3.086 -0.7724 -0.9864  3.0804
  164OSM    H7T18462   1.822   4.650   3.098  0.1038 -1.8284 -1.9079
  164OSM    C8S18463   1.968   4.702   3.255  0.1100  0.2285 -0.6007
  164OSM    H8S18464   1.918   4.794   3.293 -0.4605  0.3428 -1.5995
  164OSM    H8T18465   2.079   4.709   3.257  0.1763 -0.6562  1.6552
  164OSM    C9S18466   1.936   4.592   3.362 -0.0767 -0.2408 -0.2764
  164OSM    H9S18467   1.992   4.505   3.321 -0.9308 -1.8404  1.7454
  164OSM    H9T18468   1.827   4.582   3.339 -0.5649  0.7291  1.4464
  164OSM   C10S18469   1.976   4.629   3.503  0.7812 -0.2365  0.3052
  164OSM   H10S18470   1.923   4.723   3.528 -1.0422 -1.4154  1.1028
  164OSM   H10T18471   2.086   4.646   3.513  0.9812  0.4879 -2.3753
  164OSM   C11S18472   1.914   4.523   3.595  0.0440  0.4654 -0.0872
  164OSM   H11S18473   1.947   4.418   3.581 -2.7707 -0.3586 -1.1822
  164OSM   H11T18474   1.804   4.528   3.581 -0.3165  2.7564  2.6108
  164OSM   C12S18475   1.934   4.581   3.738 -0.5788  0.0337 -0.3369
  164OSM   H12S18476   1.875   4.674   3.746 -1.1883 -0.3793  0.0426
  164OSM   H12T18477   2.044   4.599   3.743 -0.6689  0.7409 -0.7655
  164OSM   C13S18478   1.890   4.481   3.836 -0.8182  0.3873  0.6235
  164OSM   H13S18479   1.943   4.383   3.830  0.0659  0.6551  2.9219
  164OSM   H13T18480   1.782   4.467   3.817 -0.3674  0.6936 -2.6268
  164OSM   C14S18481   1.913   4.536   3.973 -0.3022  0.3404  0.7393
  164OSM   H14S18482   1.998   4.608   3.976 -0.8194  0.9724  0.2426
  164OSM   H14T18483   1.935   4.445   4.032 -0.2020 -0.6947 -0.8270
  164OSM   C15S18484   1.798   4.605   4.037  0.6482  0.4398 -0.0085
  164OSM   H15S18485   1.706   4.547   4.014  0.4771  0.0425  1.5568
  164OSM   H15T18486   1.772   4.705   3.997  1.1979 -0.3107 -2.3790
  164OSM   C16S18487   1.817   4.622   4.187  0.5179 -0.7751 -0.5215
  164OSM   H16S18488   1.919   4.665   4.201 -0.6862  2.1214  0.0718
  164OSM   H16T18489   1.798   4.524   4.235  0.7610 -0.2300  0.7211
  164OSM   C17S18490   1.703   4.710   4.245 -0.0090 -0.2287  0.1255
  164OSM   H17S18491   1.605   4.672   4.209  0.2431 -0.8083  0.0434
  164OSM   H17T18492   1.722   4.816   4.216  3.0288  0.1147  2.8018
  164OSM   C18S18493   1.700   4.696   4.399  0.3197 -0.4305  0.3691
  164OSM   H18S18494   1.767   4.774   4.441  0.0498  1.4104 -2.3355
  164OSM   H18T18495   1.733   4.599   4.442  2.6387 -0.2016 -0.6902
  164OSM   H18U18496   1.596   4.708   4.436  0.3934  1.3413  0.1187
  164OSM    C1F18497   1.690   4.329   2.814 -0.6262 -0.5574  0.3786
  164OSM     OF18498   1.732   4.232   2.757 -0.4026  1.0578 -0.0360
  164OSM    C2F18499   1.597   4.316   2.931 -0.5830  0.0526  0.4792
  164OSM    H2F18500   1.575   4.207   2.921  1.7409 -0.3755 -0.7833
  164OSM    H2G18501   1.511   4.381   2.906 -0.3308  0.4020  0.5164
  164OSM    C3F18502   1.675   4.329   3.061 -0.6910  0.0019 -0.6329
  164OSM    H3F18503   1.606   4.330   3.148  1.0031 -2.4353  0.8794
  164OSM    H3G18504   1.731   4.425   3.068 -2.4175  0.9653  1.0323
  164OSM    C4F18505   1.775   4.214   3.104 -0.0253 -0.8827  0.1862
  164OSM    H4F18506   1.827   4.174   3.015 -0.2466 -2.7468  0.8613
  164OSM    H4G18507   1.716   4.133   3.153  0.8479 -1.2176  0.6992
  164OSM    C5F18508   1.889   4.262   3.192  1.1083  0.3350  0.7600
  164OSM    H5F18509   1.847   4.342   3.256 -1.2705 -1.0017  0.9896
  164OSM    H5G18510   1.970   4.299   3.125 -0.7909  1.4484 -1.0318
  164OSM    C6F18511   1.945   4.148   3.277  0.7326  0.2338 -0.0316
  164OSM    H6F18512   1.973   4.069   3.203  1.3885  0.1789  0.2725
  164OSM    H6G18513   1.865   4.116   3.347  0.0351  2.0211  0.0506
  164OSM    C7F18514   2.054   4.188   3.380 -0.4417 -0.2563  0.1528
  164OSM    H7F18515   2.015   4.267   3.447 -1.3363  0.2834 -0.9777
  164OSM    H7G18516   2.149   4.214   3.328  0.7189 -3.5528  0.3369
  164OSM    C8F18517   2.100   4.074   3.471  0.7371  0.8229 -0.2082
  164OSM    H8F18518   2.165   4.110   3.554 -0.4895  1.0097  0.7111
  164OSM    H8G18519   2.171   4.022   3.403  0.3125 -0.5994  0.3935
  164OSM    C9F18520   1.999   3.973   3.530 -0.2358  0.7325 -0.2977
  164OSM    H9F18521   1.949   3.911   3.454  1.4470  0.7913 -1.4937
  164OSM   C10F18522   1.973   3.947   3.664 -0.1394 -1.1347 -0.8791
  164OSM   H10F18523   1.896   3.874   3.694 -1.0987 -0.0370 -0.6118
  164OSM   C11F18524   2.033   4.032   3.776 -0.4697  0.0191  0.0598
  164OSM   H11F18525   1.962   4.069   3.852  0.4760  1.7970  0.1247
  164OSM   H11G18526   2.060   4.134   3.742  2.4630 -0.3650  0.9666
  164OSM   C12F18527   2.149   3.963   3.850 -0.3216  0.0753 -0.1163
  164OSM   H12F18528   2.221   3.919   3.777 -0.8441  0.0326 -0.6215
  164OSM   H12G18529   2.101   3.876   3.901 -0.8724  0.7810  0.5858
  164OSM   C13F18530   2.211   4.046   3.965 -0.0955  0.2399  0.6452
  164OSM   H13F18531   2.131   4.079   4.034 -0.4086 -2.2639  1.5970
  164OSM   H13G18532   2.263   4.136   3.926  0.0838  0.0701  0.4887
  164OSM   C14F18533   2.313   3.962   4.048  0.1621  0.1476  0.3554
  164OSM   H14F18534   2.401   3.931   3.987 -0.1748 -2.6571  1.1625
  164OSM   H14G18535   2.255   3.871   4.074 -2.2904  0.6289 -2.7896
  164OSM   C15F18536   2.355   4.044   4.173  0.5179  0.0990  0.6831
  164OSM   H15F18537   2.263   4.043   4.235 -0.1785  0.6752 -0.3348
  164OSM   H15G18538   2.385   4.148   4.150 -0.8136  1.1288  3.2387
  164OSM   C16F18539   2.462   3.966   4.251 -0.3521 -0.5407  0.1483
  164OSM   H16F18540   2.552   3.937   4.194 -0.5558 -0.2032 -0.3487
  164OSM   H16G18541   2.420   3.868   4.283 -0.0926 -1.1875 -1.4375
  164OSM   C17F18542   2.514   4.046   4.372 -0.8530 -0.4121  0.1815
  164OSM   H17F18543   2.552   3.979   4.451  2.5711  0.7354 -0.2838
  164OSM   H17G18544   2.420   4.085   4.415 -0.1439 -1.4434  2.8444
  164OSM   C18F18545   2.629   4.152   4.334 -0.1756  0.7065  0.5275
  164OSM   H18F18546   2.695   4.163   4.422 -0.9980  0.6040  1.1620
  164OSM   H18G18547   2.583   4.249   4.306  0.3773  1.2656  1.4884
  164OSM   H18H18548   2.694   4.121   4.249  0.3648  1.7208  0.5572
  165SAPS     N18549   5.992   0.327   6.964  0.5082  0.0912  0.4586
  165SAPS   HN118550   5.969   0.340   7.064  0.6695 -2.6268  0.9269
  165SAPS   HN218551   5.960   0.232   6.935  1.8184  0.0089 -0.8087
  165SAPS   HN318552   6.090   0.356   6.945  1.3930 -3.3739 -1.2639
  165SAPS   C1218553   5.906   0.422   6.885 -0.1274 -0.2507 -0.0496
  165SAPS  H12A18554   5.808   0.416   6.930 -0.2272  0.8300 -0.1015
  165SAPS   C1318555   5.946   0.573   6.911  0.0608  0.0471  0.2644
  165SAPS  O13A18556   5.996   0.607   7.021  0.5578 -0.0975  0.2314
  165SAPS  O13B18557   5.895   0.658   6.833  0.4821 -0.3950  0.2189
  165SAPS   C1118558   5.918   0.382   6.739  0.2236  0.6715  0.3574
  165SAPS  H11A18559   6.011   0.402   6.681  0.0969  0.8220  0.2047
  165SAPS  H11B18560   5.847   0.455   6.695 -0.0074 -0.1485 -0.6808
  165SAPS     P18561   5.730   0.210   6.659 -0.1988 -0.5374 -0.5704
  165SAPS   O1318562   5.712   0.064   6.660  0.1884 -0.1709  0.3066
  165SAPS   O1418563   5.638   0.291   6.741  0.0930 -0.1162  0.1371
  165SAPS   O1218564   5.874   0.244   6.724 -0.3929  0.1103  0.0937
  165SAPS   O1118565   5.751   0.262   6.515 -0.2454  0.1764  0.4340
  165SAPS    C118566   5.857   0.199   6.442 -0.2465  0.5651  0.2477
  165SAPS    HA18567   5.960   0.234   6.467  1.0397 -1.5264 -1.6863
  165SAPS    HB18568   5.854   0.089   6.454 -0.7150  0.8326  3.4091
  165SAPS    C218569   5.836   0.227   6.291 -0.3364  0.1826  0.8448
  165SAPS    HS18570   5.917   0.180   6.230 -0.0907  0.9116  0.5959
  165SAPS   O2118571   5.826   0.366   6.276 -0.3845  0.4363 -0.0359
  165SAPS   C2118572   5.929   0.442   6.272 -0.3501  0.3905 -0.1055
  165SAPS   O2218573   6.045   0.411   6.286 -0.1226 -0.0586  0.3749
  165SAPS   C2218574   5.879   0.578   6.243 -0.3032 -0.1780 -0.0082
  165SAPS   H2R18575   5.770   0.593   6.260 -0.2116  0.4331  0.0678
  165SAPS   H2S18576   5.931   0.647   6.314 -2.8185  3.4218 -1.3479
  165SAPS    C318577   5.703   0.157   6.237  0.2249 -0.1223 -0.0098
  165SAPS    HX18578   5.622   0.186   6.306  2.1993 -1.8599  3.2730
  165SAPS    HY18579   5.718   0.047   6.248  2.2241  0.1770  0.6818
  165SAPS   O3118580   5.683   0.207   6.101 -0.0853  0.2287  0.0063
  165SAPS   C3118581   5.681   0.112   6.010  0.0027  0.3397 -0.1102
  165SAPS   O3218582   5.694  -0.009   6.034  0.1268  0.2347 -0.4802
  165SAPS   C3218583   5.648   0.178   5.875 -0.2516  0.3649 -0.5575
  165SAPS   H2X18584   5.659   0.288   5.885 -1.5925  0.3045  2.9416
  165SAPS   H2Y18585   5.538   0.166   5.864 -0.3096  0.1952  0.1791
  165SAPS   C2318586   5.892   0.620   6.092  0.1461  0.4172 -0.3741
  165SAPS   H3R18587   6.001   0.611   6.075  0.6651  4.4741 -0.3195
  165SAPS   H3S18588   5.878   0.730   6.085  0.1105  0.3185 -2.4839
  165SAPS   C2418589   5.792   0.534   6.009 -0.2077 -0.2533 -0.1872
  165SAPS   H4R18590   5.780   0.425   6.025  0.5405 -0.4987 -1.1675
  165SAPS   H4S18591   5.824   0.542   5.903 -1.6191  0.2486 -0.5977
  165SAPS   C2518592   5.654   0.592   6.017  0.2661 -0.5847  1.1400
  165SAPS   H5R18593   5.588   0.583   6.105 -0.2805 -0.2180  0.7720
  165SAPS   C2618594   5.596   0.658   5.914 -0.2291 -0.2426 -0.1147
  165SAPS   H6R18595   5.491   0.693   5.916 -1.2650 -2.3093 -4.6023
  165SAPS   C2718596   5.666   0.691   5.786  0.0571  0.2479  0.0391
  165SAPS   H7R18597   5.769   0.727   5.810 -0.3106  0.5246  1.2789
  165SAPS   H7S18598   5.622   0.784   5.743  1.4442  1.0805  0.3386
  165SAPS   C2818599   5.666   0.579   5.684  0.3216  0.0837  0.2948
  165SAPS   H8R18600   5.663   0.475   5.721 -0.1305  0.3670  1.0859
  165SAPS   C2918601   5.658   0.602   5.553 -0.1229 -0.6578  0.6099
  165SAPS   H9R18602   5.650   0.512   5.491 -2.3356 -1.3300  1.7770
  165SAPS  C21018603   5.660   0.726   5.475  0.3840 -0.0698  0.7332
  165SAPS  H10R18604   5.570   0.783   5.508  0.5823 -0.2783  1.6578
  165SAPS  H10S18605   5.642   0.700   5.368 -1.5244  2.1365  0.4329
  165SAPS  C21118606   5.786   0.812   5.475 -0.2082  0.0796 -0.9869
  165SAPS  H11R18607   5.844   0.805   5.568 -2.8791 -1.1522  0.7241
  165SAPS  C21218608   5.827   0.886   5.374 -0.7553 -0.1728 -0.0302
  165SAPS  H12R18609   5.919   0.944   5.389 -1.1696  0.7013 -0.7655
  165SAPS  C21318610   5.769   0.909   5.240  0.2402 -0.2731  0.8216
  165SAPS  H13R18611   5.749   1.018   5.234 -0.5724 -0.4043  0.9309
  165SAPS  H13S18612   5.663   0.875   5.234 -1.0352  3.4837 -0.9710
  165SAPS  C21418613   5.857   0.850   5.133 -0.8136  0.3741  0.4083
  165SAPS  H14R18614   5.958   0.893   5.129 -0.5045 -0.3688  0.2354
  165SAPS  C21518615   5.813   0.759   5.042 -0.3608 -0.4402 -0.1164
  165SAPS  H15R18616   5.882   0.711   4.970  0.7325  1.3900 -0.3544
  165SAPS  C21618617   5.680   0.697   5.059  0.1259 -0.0479 -0.1612
  165SAPS  H16R18618   5.596   0.768   5.043  0.1498  0.2187  0.8158
  165SAPS  H16S18619   5.667   0.671   5.166  0.8614  2.5083  0.6057
  165SAPS  C21718620   5.656   0.564   4.973 -0.7838 -0.4970  0.1081
  165SAPS  H17R18621   5.558   0.528   5.012 -1.1674  0.8162  0.3981
  165SAPS  H17S18622   5.723   0.484   5.012 -2.2292 -1.3413  0.9372
  165SAPS  C21818623   5.669   0.574   4.822  0.0267  0.5262  0.0232
  165SAPS  H18R18624   5.741   0.654   4.794  1.5204 -0.4429  0.9650
  165SAPS  H18S18625   5.570   0.607   4.782  0.3034  1.3111 -0.0326
  165SAPS  C21918626   5.702   0.428   4.757 -0.2838 -1.1127 -0.0455
  165SAPS  H19R18627   5.633   0.345   4.786 -1.8951 -0.6626 -2.3176
  165SAPS  H19S18628   5.809   0.415   4.784  0.1120 -0.9134 -1.4554
  165SAPS  C22018629   5.700   0.456   4.604  0.6066  1.0879 -0.4407
  165SAPS  H20R18630   5.613   0.521   4.581 -0.6066  0.5568  2.2847
  165SAPS  H20S18631   5.702   0.362   4.544 -0.7362 -0.4372  1.7746
  165SAPS  H20T18632   5.785   0.516   4.564  0.9359  0.3130 -0.9282
  165SAPS   C3318633   5.725   0.107   5.764  0.2740 -0.1760  0.6977
  165SAPS   H3X18634   5.710  -0.003   5.764 -1.8818 -0.0852 -3.3670
  165SAPS   H3Y18635   5.832   0.135   5.771  0.4650 -0.5999 -0.3568
  165SAPS   C3418636   5.669   0.165   5.635 -0.4006 -0.7270 -0.2180
  165SAPS   H4X18637   5.682   0.274   5.653  0.5356 -1.2428  2.8044
  165SAPS   H4Y18638   5.558   0.153   5.640 -0.5537  0.7672  2.2027
  165SAPS   C3518639   5.737   0.127   5.504  0.1528  0.0431  0.0422
  165SAPS   H5X18640   5.753   0.017   5.497  3.0280  0.3136  0.8921
  165SAPS   H5Y18641   5.839   0.170   5.499  0.9118 -1.8304 -2.4111
  165SAPS   C3618642   5.649   0.163   5.382 -1.0187 -0.7139 -0.1401
  165SAPS   H6X18643   5.624   0.270   5.364 -5.2067 -1.3973  0.5826
  165SAPS   H6Y18644   5.546   0.131   5.408 -0.4895 -0.9511  1.7748
  165SAPS   C3718645   5.697   0.099   5.250  0.5551 -0.8586 -0.5530
  165SAPS   H7X18646   5.701  -0.012   5.255  0.5623 -0.8371 -0.0980
  165SAPS   H7Y18647   5.796   0.145   5.229  0.1360  0.9692  1.1648
  165SAPS   C3818648   5.599   0.131   5.134 -0.4769 -0.0603  0.4189
  165SAPS   H8X18649   5.595   0.238   5.104 -1.5209  0.0920  1.0503
  165SAPS   H8Y18650   5.494   0.109   5.163 -0.1487 -0.9067  0.9972
  165SAPS   C3918651   5.614   0.049   5.001 -0.3109 -0.6674  0.0069
  165SAPS   H9X18652   5.636  -0.058   5.022  1.3457 -0.6829 -1.5241
  165SAPS   H9Y18653   5.711   0.082   4.959 -0.0058 -2.7646 -1.0661
  165SAPS  C31018654   5.500   0.070   4.904  0.5033 -0.1606 -0.4627
  165SAPS  H10X18655   5.477   0.179   4.900  0.0096 -0.2359  0.1717
  165SAPS  H10Y18656   5.414   0.007   4.935 -0.2303  0.5638 -0.9900
  165SAPS  C31118657   5.534   0.024   4.762  0.0697 -0.3169 -0.6418
  165SAPS  H11X18658   5.537  -0.087   4.761  0.2357 -0.3406  0.5351
  165SAPS  H11Y18659   5.631   0.058   4.721  0.0844  0.3617 -0.0772
  165SAPS  C31218660   5.426   0.054   4.656  0.3176 -0.4880 -0.1963
  165SAPS  H12X18661   5.412   0.163   4.641 -1.0861 -0.5510  0.5631
  165SAPS  H12Y18662   5.332   0.002   4.685 -1.1518  1.8986 -0.5091
  165SAPS  C31318663   5.463  -0.008   4.521 -0.2830 -1.0542 -0.8495
  165SAPS  H13X18664   5.372  -0.010   4.457 -0.3093  1.6673 -0.9817
  165SAPS  H13Y18665   5.505  -0.111   4.524 -1.9925 -1.7660 -0.0067
  165SAPS  C31418666   5.561   0.082   4.441 -0.0360 -0.0303  0.4549
  165SAPS  H14X18667   5.642   0.101   4.515 -0.2210 -2.1951  1.2993
  165SAPS  H14Y18668   5.508   0.176   4.415 -2.1850 -0.3839  3.1024
  165SAPS  C31518669   5.617   0.030   4.305 -0.4373  0.2408 -0.5893
  165SAPS  H15X18670   5.524   0.009   4.248 -0.9097 -0.4139  0.3770
  165SAPS  H15Y18671   5.676  -0.064   4.313  1.4773  1.3729 -0.8352
  165SAPS  C31618672   5.698   0.139   4.222 -0.1168  0.8764  0.3747
  165SAPS  H16X18673   5.761   0.200   4.289 -0.1997 -1.2632  2.5127
  165SAPS  H16Y18674   5.619   0.200   4.173  0.1078 -0.4358 -1.7497
  165SAPS  C31718675   5.776   0.077   4.102  0.4882 -0.4893 -0.2328
  165SAPS  H17X18676   5.718  -0.012   4.069  0.9602 -1.3439  1.1360
  165SAPS  H17Y18677   5.876   0.052   4.144  0.5998  0.4609  0.0858
  165SAPS  C31818678   5.816   0.160   3.978 -0.0037  0.0368  0.6985
  165SAPS  H18X18679   5.740   0.233   3.944 -0.9733 -1.0247  0.5318
  165SAPS  H18Y18680   5.826   0.092   3.891  0.0964  3.3749 -2.0691
  165SAPS  H18Z18681   5.915   0.206   3.994 -0.0920  1.3792 -2.1502
  166SAPS     N18682   2.672   0.211   6.831  0.2038  0.4335 -0.3936
  166SAPS   HN118683   2.705   0.306   6.858  1.0515 -0.1070  0.5765
  166SAPS   HN218684   2.578   0.216   6.788 -0.3268  3.9389  0.9104
  166SAPS   HN318685   2.668   0.146   6.913  2.5101 -0.0823 -0.6040
  166SAPS   C1218686   2.772   0.160   6.734 -0.0335 -0.1956 -0.0857
  166SAPS  H12A18687   2.872   0.152   6.775  0.4611 -0.8736 -1.3545
  166SAPS   C1318688   2.735   0.023   6.664  0.3809  0.0876 -0.0310
  166SAPS  O13A18689   2.628  -0.034   6.704  0.4650 -0.1052  0.2515
  166SAPS  O13B18690   2.797  -0.007   6.562 -0.3401 -0.6670  0.2167
  166SAPS   C1118691   2.796   0.274   6.630  0.0171  1.2709  0.2528
  166SAPS  H11A18692   2.707   0.287   6.564  1.3473  0.4250 -1.7983
  166SAPS  H11B18693   2.882   0.239   6.569 -0.9220  1.1276 -1.0499
  166SAPS     P18694   2.802   0.529   6.638  0.2467 -0.2827 -0.4161
  166SAPS   O1318695   2.650   0.539   6.659 -0.2409  0.1480 -0.0322
  166SAPS   O1418696   2.888   0.631   6.701  0.1992 -0.3037  0.3754
  166SAPS   O1218697   2.850   0.389   6.687  0.0006  0.0307 -0.0137
  166SAPS   O1118698   2.817   0.514   6.482 -0.4477 -0.0732  0.1480
  166SAPS    C118699   2.944   0.499   6.421 -0.5153  0.7979 -0.4330
  166SAPS    HA18700   3.021   0.574   6.449 -1.1724  1.6673 -0.9305
  166SAPS    HB18701   2.991   0.399   6.436  0.7849  0.9774 -2.7725
  166SAPS    C218702   2.929   0.512   6.263 -0.1863 -0.0488 -0.3115
  166SAPS    HS18703   3.011   0.577   6.225  0.6349 -2.2028 -2.4694
  166SAPS   O2118704   2.793   0.545   6.226  0.0680  0.0725  0.0667
  166SAPS   C2118705   2.752   0.668   6.262 -0.8621  0.2485 -0.1270
  166SAPS   O2218706   2.812   0.749   6.324 -0.1274 -0.0387  0.3437
  166SAPS   C2218707   2.617   0.683   6.202  1.2972 -0.4790  0.6982
  166SAPS   H2R18708   2.624   0.661   6.093  4.2273  2.3042  0.1738
  166SAPS   H2S18709   2.555   0.602   6.245 -1.1038  0.5113 -0.6898
  166SAPS    C318710   2.945   0.373   6.195 -0.0814 -0.5120 -0.0611
  166SAPS    HX18711   2.865   0.303   6.228 -0.5006  0.6556  1.4721
  166SAPS    HY18712   3.046   0.336   6.221  0.8925  0.6022 -2.0401
  166SAPS   O3118713   2.946   0.408   6.055 -0.0615  0.6087  0.2994
  166SAPS   C3118714   2.838   0.381   5.987 -1.1015  0.1069 -0.4526
  166SAPS   O3218715   2.752   0.303   6.024 -0.1961  0.7027 -0.2263
  166SAPS   C3218716   2.834   0.464   5.856 -0.1874  0.0032 -0.0267
  166SAPS   H2X18717   2.893   0.558   5.856 -2.5633  1.5862  0.6251
  166SAPS   H2Y18718   2.729   0.500   5.849 -0.7303 -1.1948  1.2951
  166SAPS   C2318719   2.554   0.821   6.229 -1.2299 -0.3261 -0.4594
  166SAPS   H3R18720   2.615   0.908   6.195 -2.2899  1.5665  2.1583
  166SAPS   H3S18721   2.521   0.828   6.335  0.6681  2.3472  0.0754
  166SAPS   C2418722   2.415   0.827   6.159  0.0934 -0.1044  0.5131
  166SAPS   H4R18723   2.354   0.911   6.199 -0.4450 -0.7734  1.1231
  166SAPS   H4S18724   2.368   0.730   6.184  0.1068  0.2799  2.1367
  166SAPS   C2518725   2.425   0.838   6.011  0.0181 -0.0449 -0.7850
  166SAPS   H5R18726   2.475   0.931   5.981 -0.4367  0.1507 -0.9325
  166SAPS   C2618727   2.375   0.759   5.915  1.0789 -0.2008 -0.4209
  166SAPS   H6R18728   2.397   0.787   5.811 -1.0491 -0.1824 -0.9093
  166SAPS   C2718729   2.295   0.629   5.929  0.5024 -1.0402 -0.1771
  166SAPS   H7R18730   2.224   0.623   5.843 -1.8553  1.3137  1.4472
  166SAPS   H7S18731   2.230   0.637   6.018 -0.0473  0.0107 -0.6567
  166SAPS   C2818732   2.395   0.519   5.932  0.7292  0.1596  0.4342
  166SAPS   H8R18733   2.463   0.517   6.018  2.1571  1.0357 -0.6332
  166SAPS   C2918734   2.424   0.424   5.842 -0.2950  0.0360  0.4481
  166SAPS   H9R18735   2.516   0.365   5.855 -0.7020 -1.0903 -1.5152
  166SAPS  C21018736   2.345   0.395   5.715  0.2516 -0.0933 -0.4404
  166SAPS  H10R18737   2.236   0.383   5.735 -0.2238  3.2553 -0.5231
  166SAPS  H10S18738   2.364   0.288   5.692 -3.2636 -0.4435 -2.3755
  166SAPS  C21118739   2.367   0.486   5.600  0.1441 -0.3770 -0.5736
  166SAPS  H11R18740   2.380   0.588   5.638 -3.4115 -0.0336  0.0736
  166SAPS  C21218741   2.373   0.452   5.471 -0.0249  0.1328  0.0565
  166SAPS  H12R18742   2.367   0.528   5.392 -1.5029  0.6982  0.6694
  166SAPS  C21318743   2.337   0.308   5.429  0.7042  0.0104  0.0716
  166SAPS  H13R18744   2.292   0.245   5.509  1.8562 -2.1797 -0.9173
  166SAPS  H13S18745   2.438   0.266   5.412  1.6250  1.4049  1.8482
  166SAPS  C21418746   2.260   0.289   5.295  0.3492  0.1573 -0.1432
  166SAPS  H14R18747   2.162   0.240   5.306  1.0645 -1.0407  1.1967
  166SAPS  C21518748   2.310   0.306   5.164 -0.0183 -0.0003  0.6438
  166SAPS  H15R18749   2.236   0.298   5.083  1.4962 -1.7624 -0.6543
  166SAPS  C21618750   2.448   0.333   5.125 -0.3310 -0.7780  0.1051
  166SAPS  H16R18751   2.465   0.286   5.026  1.3602  0.8682 -0.4483
  166SAPS  H16S18752   2.510   0.290   5.207 -0.3165 -1.8563 -0.4579
  166SAPS  C21718753   2.470   0.487   5.094 -0.7103  0.2783 -0.0337
  166SAPS  H17R18754   2.451   0.544   5.187  0.7161  0.3998  0.1976
  166SAPS  H17S18755   2.399   0.510   5.011 -0.7364  0.8312  0.1357
  166SAPS  C21818756   2.620   0.507   5.052 -0.0504  0.6384  0.6634
  166SAPS  H18R18757   2.687   0.452   5.121  3.0350  1.9200 -1.1066
  166SAPS  H18S18758   2.642   0.616   5.051 -0.4317  0.7193 -0.8152
  166SAPS  C21918759   2.654   0.463   4.915 -0.2208 -0.7864  0.0266
  166SAPS  H19R18760   2.587   0.524   4.851  0.4229  0.9007  0.9061
  166SAPS  H19S18761   2.614   0.362   4.893 -2.5803  0.5813 -2.6239
  166SAPS  C22018762   2.800   0.479   4.863 -0.2650  0.1736 -0.5030
  166SAPS  H20R18763   2.823   0.588   4.860  2.1796 -0.3006 -2.2408
  166SAPS  H20S18764   2.813   0.428   4.765  0.3335 -4.8114  1.8545
  166SAPS  H20T18765   2.873   0.443   4.938  1.1926  1.4487 -1.2461
  166SAPS   C3318766   2.867   0.377   5.734 -0.1330 -0.2195 -0.4156
  166SAPS   H3X18767   2.813   0.280   5.726  0.2208 -0.4011 -0.6241
  166SAPS   H3Y18768   2.973   0.345   5.733  0.1192  0.6099 -0.9254
  166SAPS   C3418769   2.834   0.447   5.600  0.3173  0.8359 -0.6646
  166SAPS   H4X18770   2.868   0.552   5.612  1.3814  0.4443 -0.0332
  166SAPS   H4Y18771   2.724   0.448   5.586  0.3161  1.9278 -0.6486
  166SAPS   C3518772   2.899   0.377   5.484 -0.8647 -0.2742 -0.4795
  166SAPS   H5X18773   2.857   0.275   5.473 -0.4791 -0.6209  1.0920
  166SAPS   H5Y18774   3.005   0.359   5.513 -0.4730  4.3830  1.8860
  166SAPS   C3618775   2.895   0.459   5.354  0.0665 -0.2066 -0.0008
  166SAPS   H6X18776   2.792   0.499   5.339 -0.2882 -1.4556 -1.0559
  166SAPS   H6Y18777   2.919   0.389   5.271 -0.2809 -0.0271 -0.2558
  166SAPS   C3718778   2.987   0.579   5.364  0.8277  0.2086 -0.2784
  166SAPS   H7X18779   3.084   0.530   5.386  0.7592  0.2212  0.0461
  166SAPS   H7Y18780   2.956   0.641   5.450  3.3112  0.7355  0.3271
  166SAPS   C3818781   2.975   0.657   5.237 -0.2924 -0.1915  0.1522
  166SAPS   H8X18782   2.880   0.712   5.223  0.5495  0.7876 -2.1471
  166SAPS   H8Y18783   2.976   0.591   5.148  0.5395  2.4223 -1.9080
  166SAPS   C3918784   3.078   0.769   5.233  0.2905  0.1465 -0.3299
  166SAPS   H9X18785   3.177   0.722   5.215  1.7020  2.2817  1.2667
  166SAPS   H9Y18786   3.084   0.823   5.330 -2.9105 -2.0884  1.2564
  166SAPS  C31018787   3.064   0.870   5.121 -0.0389  0.6136 -0.8340
  166SAPS  H10X18788   3.144   0.944   5.144  0.5283 -0.4792  0.9273
  166SAPS  H10Y18789   2.961   0.910   5.126 -0.9683 -1.5872 -1.3290
  166SAPS  C31118790   3.077   0.813   4.983 -0.3926  0.2210 -0.0047
  166SAPS  H11X18791   3.038   0.710   4.994 -0.3177  0.2356  0.4230
  166SAPS  H11Y18792   3.184   0.815   4.953 -0.4268  2.6430 -0.1756
  166SAPS  C31218793   2.992   0.891   4.882  0.2977  0.3266 -0.1255
  166SAPS  H12X18794   3.030   0.992   4.857 -0.0957  0.1318 -1.6545
  166SAPS  H12Y18795   2.892   0.894   4.932  0.7561 -0.2679  0.8497
  166SAPS  C31318796   2.963   0.821   4.745 -1.1989 -0.5158  0.4438
  166SAPS  H13X18797   2.910   0.900   4.687  0.0270  0.5932  0.8128
  166SAPS  H13Y18798   2.905   0.726   4.753 -1.5114 -0.5635 -1.6171
  166SAPS  C31418799   3.098   0.792   4.673 -0.5190 -0.2579 -0.5668
  166SAPS  H14X18800   3.134   0.695   4.711 -0.0006  0.2112  0.1543
  166SAPS  H14Y18801   3.185   0.854   4.703  0.4119 -0.7171 -2.2216
  166SAPS  C31518802   3.080   0.787   4.524  1.0694 -0.3735 -0.7264
  166SAPS  H15X18803   3.058   0.891   4.491  1.3270 -0.6946 -1.9803
  166SAPS  H15Y18804   2.988   0.731   4.497  1.5525 -0.5545 -2.1120
  166SAPS  C31618805   3.203   0.741   4.450  0.2537  0.6953  0.8898
  166SAPS  H16X18806   3.224   0.633   4.468 -0.1720  0.2439 -1.0372
  166SAPS  H16Y18807   3.301   0.782   4.482  0.9212 -0.9174  0.9950
  166SAPS  C31718808   3.193   0.752   4.297 -0.3776 -0.3442 -0.6805
  166SAPS  H17X18809   3.182   0.859   4.268  1.6359  1.2800  3.6025
  166SAPS  H17Y18810   3.105   0.692   4.266 -1.5926 -0.6749  2.9463
  166SAPS  C31818811   3.314   0.699   4.212  0.1772 -0.8580 -0.0916
  166SAPS  H18X18812   3.406   0.755   4.241 -1.5124  2.1129 -0.0962
  166SAPS  H18Y18813   3.300   0.719   4.104  1.2773 -2.7196 -0.6290
  166SAPS  H18Z18814   3.337   0.593   4.234  3.0337 -0.3234 -0.0050
  167SAPS     N18815   0.335   2.165   6.999  0.5819 -0.1295  0.1593
  167SAPS   HN118816   0.368   2.071   7.031  0.7969  0.1748  0.8517
  167SAPS   HN218817   0.232   2.156   6.984  0.5273 -0.7622  0.8405
  167SAPS   HN318818   0.373   2.182   6.904  0.9625  0.4492  0.4159
  167SAPS   C1218819   0.387   2.275   7.092 -0.4335  0.1676  0.5073
  167SAPS  H12A18820   0.353   2.369   7.050 -1.3001 -1.2488 -2.2180
  167SAPS   C1318821   0.333   2.273   7.237  0.4063 -0.3331 -0.1361
  167SAPS  O13A18822   0.255   2.176   7.264 -0.4785 -0.0300  0.3982
  167SAPS  O13B18823   0.348   2.367   7.319  0.1130 -0.0998  0.1670
  167SAPS   C1118824   0.542   2.275   7.090  0.4549 -0.4413 -0.0489
  167SAPS  H11A18825   0.575   2.186   7.147 -1.6947 -0.7760  0.7936
  167SAPS  H11B18826   0.574   2.369   7.140 -0.0366  1.2649 -2.7239
  167SAPS     P18827   0.686   2.365   6.886  0.1640 -0.3441  0.3670
  167SAPS   O1318828   0.632   2.504   6.854 -0.2519  0.6617 -0.4935
  167SAPS   O1418829   0.810   2.353   6.956  0.2115 -0.6884 -0.2295
  167SAPS   O1218830   0.571   2.275   6.948  0.2459  0.4741  0.1795
  167SAPS   O1118831   0.706   2.295   6.748  0.0852 -0.4105  0.6871
  167SAPS    C118832   0.725   2.156   6.729  0.2219 -0.0668  0.0429
  167SAPS    HA18833   0.724   2.093   6.821  0.3950  1.1705  0.9102
  167SAPS    HB18834   0.665   2.113   6.645  0.9414  0.9793 -1.0324
  167SAPS    C218835   0.866   2.126   6.664  0.0679 -0.1694  0.4612
  167SAPS    HS18836   0.938   2.188   6.722  3.6870 -0.4926 -3.1864
  167SAPS   O2118837   0.857   2.175   6.532  0.2334 -0.0552 -0.2824
  167SAPS   C2118838   0.974   2.205   6.483  1.2144  0.6777  0.4415
  167SAPS   O2218839   1.079   2.199   6.542 -0.5631  0.3056  0.1587
  167SAPS   C2218840   0.958   2.251   6.337  0.1897  0.1899 -1.1136
  167SAPS   H2R18841   0.906   2.167   6.286 -1.1110  0.2609  0.0626
  167SAPS   H2S18842   0.893   2.340   6.342 -0.9526 -0.6651 -0.3557
  167SAPS    C318843   0.916   1.978   6.667  0.2724  0.5839  0.2792
  167SAPS    HX18844   0.913   1.951   6.775  4.0999  2.0068  0.9067
  167SAPS    HY18845   1.022   1.964   6.635  0.3827 -1.6724  1.3948
  167SAPS   O3118846   0.822   1.898   6.595  0.0069 -0.2468  0.2297
  167SAPS   C3118847   0.851   1.875   6.469 -0.4073  0.7279 -0.8091
  167SAPS   O3218848   0.949   1.914   6.403  0.5414 -0.0151  0.1979
  167SAPS   C3218849   0.726   1.801   6.413 -0.4467 -0.1655 -0.0954
  167SAPS   H2X18850   0.696   1.713   6.475 -0.4233  1.3134  2.1490
  167SAPS   H2Y18851   0.758   1.763   6.314 -0.9020  0.1816 -0.3760
  167SAPS   C2318852   1.095   2.269   6.261 -0.1097  0.1509  0.5119
  167SAPS   H3R18853   1.166   2.196   6.306 -0.8990 -0.5648  0.6294
  167SAPS   H3S18854   1.133   2.371   6.282 -0.1517  0.2238  0.2381
  167SAPS   C2418855   1.083   2.246   6.107 -0.0428 -0.3865 -0.2688
  167SAPS   H4R18856   1.176   2.284   6.060 -0.3150  1.1983  0.4129
  167SAPS   H4S18857   1.004   2.316   6.074  0.9997  0.3142 -1.3662
  167SAPS   C2518858   1.059   2.106   6.065 -0.4881 -0.1737 -0.0921
  167SAPS   H5R18859   1.038   2.037   6.148 -2.3974  1.7513  1.1493
  167SAPS   C2618860   1.081   2.072   5.929  0.2831  0.1909 -0.5166
  167SAPS   H6R18861   1.070   1.969   5.893  0.3979 -0.0717  0.1788
  167SAPS   C2718862   1.111   2.170   5.822  0.7484 -0.0585 -0.0522
  167SAPS   H7R18863   1.161   2.108   5.745  1.2833  0.3840 -0.0698
  167SAPS   H7S18864   1.181   2.249   5.859  1.5301 -0.2708 -1.0371
  167SAPS   C2818865   0.991   2.245   5.760 -0.7816  0.0167  0.0464
  167SAPS   H8R18866   0.912   2.276   5.830 -1.3439  0.8849 -0.9375
  167SAPS   C2918867   0.971   2.271   5.630  0.4838 -0.1471  0.2546
  167SAPS   H9R18868   0.878   2.323   5.602  2.3667  2.1709 -2.3254
  167SAPS  C21018869   1.064   2.246   5.515 -0.2601  0.7684 -0.2919
  167SAPS  H10R18870   1.000   2.243   5.423  0.3828  1.2290 -0.7658
  167SAPS  H10S18871   1.104   2.144   5.528 -2.3376  0.0337  0.7501
  167SAPS  C21118872   1.168   2.358   5.512 -0.2681  0.7651  0.0290
  167SAPS  H11R18873   1.200   2.406   5.606 -2.5957  0.0592  1.2532
  167SAPS  C21218874   1.223   2.403   5.395  0.0068  0.1608  0.4501
  167SAPS  H12R18875   1.312   2.467   5.402 -0.1316  0.6234 -1.4457
  167SAPS  C21318876   1.191   2.360   5.254  0.9409  0.1935 -0.3475
  167SAPS  H13R18877   1.144   2.259   5.253  2.7373 -0.7227  1.3208
  167SAPS  H13S18878   1.293   2.360   5.210  0.4916  0.4895 -1.4089
  167SAPS  C21418879   1.101   2.441   5.161  0.5121 -0.6373  0.3321
  167SAPS  H14R18880   0.996   2.449   5.191 -0.3064 -0.3670 -2.3561
  167SAPS  C21518881   1.135   2.509   5.044 -0.9881 -0.0454  0.0769
  167SAPS  H15R18882   1.058   2.570   4.994  1.0704  0.6975 -2.3879
  167SAPS  C21618883   1.277   2.522   4.983 -0.6642  0.3627  0.3094
  167SAPS  H16R18884   1.346   2.449   5.031 -1.9728 -1.4480 -0.4668
  167SAPS  H16S18885   1.326   2.619   5.009  0.8943 -0.1212 -0.6613
  167SAPS  C21718886   1.267   2.505   4.833 -0.1313 -0.6485  0.4498
  167SAPS  H17R18887   1.189   2.566   4.783  1.7182  0.9527 -0.6578
  167SAPS  H17S18888   1.250   2.396   4.820 -0.3993 -0.6257  0.6042
  167SAPS  C21818889   1.401   2.534   4.764 -1.1198  0.3936  0.1461
  167SAPS  H18R18890   1.403   2.461   4.681  1.9912  1.1198 -0.5290
  167SAPS  H18S18891   1.484   2.498   4.829 -2.2313 -0.9273  0.8963
  167SAPS  C21918892   1.419   2.677   4.725  0.8045  0.3622  0.3866
  167SAPS  H19R18893   1.449   2.741   4.810  2.3165 -1.0130  0.9414
  167SAPS  H19S18894   1.323   2.714   4.684 -0.1818 -1.1254  1.2395
  167SAPS  C22018895   1.541   2.703   4.630  0.2201 -0.3923 -0.6184
  167SAPS  H20R18896   1.632   2.674   4.686  0.3389 -0.4264 -0.8302
  167SAPS  H20S18897   1.552   2.809   4.600 -2.2513 -0.3448 -1.6407
  167SAPS  H20T18898   1.538   2.639   4.539 -2.1532 -1.8270  0.3445
  167SAPS   C3318899   0.607   1.896   6.399  0.7693 -0.3495  0.2242
  167SAPS   H3X18900   0.558   1.929   6.493 -2.0743 -1.1302 -0.8859
  167SAPS   H3Y18901   0.519   1.848   6.351 -1.5230  2.3318  1.3976
  167SAPS   C3418902   0.631   2.017   6.307 -1.3346  0.2819  0.4386
  167SAPS   H4X18903   0.716   2.076   6.349 -0.5592 -0.6263  0.1644
  167SAPS   H4Y18904   0.541   2.082   6.314 -1.6396 -0.1585  0.5885
  167SAPS   C3518905   0.659   1.982   6.161 -0.2866 -0.3143 -0.5348
  167SAPS   H5X18906   0.587   1.902   6.135 -0.5036 -0.7482  1.2448
  167SAPS   H5Y18907   0.764   1.944   6.160 -0.0635  0.2242  0.7877
  167SAPS   C3618908   0.639   2.099   6.066  0.6898 -0.1117  0.2044
  167SAPS   H6X18909   0.738   2.148   6.054  0.5569 -0.2564 -1.9898
  167SAPS   H6Y18910   0.574   2.175   6.115  0.0713 -0.8070  0.4820
  167SAPS   C3718911   0.604   2.052   5.921 -0.3633 -0.0162 -0.4724
  167SAPS   H7X18912   0.574   2.130   5.849 -0.9920 -0.8915 -1.1826
  167SAPS   H7Y18913   0.510   1.992   5.922  0.9695 -2.3091 -2.2835
  167SAPS   C3818914   0.724   1.975   5.859 -0.0080  0.0122  0.2103
  167SAPS   H8X18915   0.754   1.884   5.916  0.9076 -0.5439 -1.1100
  167SAPS   H8Y18916   0.807   2.041   5.891  0.2135 -1.7127  3.7161
  167SAPS   C3918917   0.708   1.969   5.712 -0.0492  0.0387  0.7398
  167SAPS   H9X18918   0.691   2.070   5.667 -1.4686 -0.6402 -0.3385
  167SAPS   H9Y18919   0.614   1.917   5.684  0.0544 -0.0775  0.6075
  167SAPS  C31018920   0.820   1.895   5.630 -0.2215  0.7426 -0.7707
  167SAPS  H10X18921   0.855   1.802   5.680  3.0659  1.4417 -1.4674
  167SAPS  H10Y18922   0.913   1.956   5.628  1.2784 -1.4297 -0.5370
  167SAPS  C31118923   0.777   1.861   5.483 -0.0231  0.2079 -0.2806
  167SAPS  H11X18924   0.736   1.950   5.431 -2.3657 -0.9631 -0.5593
  167SAPS  H11Y18925   0.683   1.802   5.483 -1.5046  2.4162  0.1311
  167SAPS  C31218926   0.880   1.787   5.403 -0.1472  0.4707  0.2772
  167SAPS  H12X18927   0.831   1.728   5.322 -0.0859 -0.1520  0.6820
  167SAPS  H12Y18928   0.926   1.706   5.464  0.7099  0.2460 -0.6381
  167SAPS  C31318929   0.991   1.876   5.360 -0.0813  0.2781  0.1792
  167SAPS  H13X18930   1.049   1.898   5.453 -0.6389 -3.2433  1.5124
  167SAPS  H13Y18931   0.954   1.973   5.320  0.6075 -0.0013 -1.1600
  167SAPS  C31418932   1.083   1.805   5.260  0.0457  0.2418  0.1102
  167SAPS  H14X18933   1.021   1.771   5.174 -0.1920 -0.4344  0.5492
  167SAPS  H14Y18934   1.111   1.705   5.298  2.4577  0.2029 -1.4793
  167SAPS  C31518935   1.212   1.874   5.213 -0.7352  0.0570  0.6116
  167SAPS  H15X18936   1.266   1.797   5.156 -0.3548  1.1344 -0.5282
  167SAPS  H15Y18937   1.272   1.897   5.304  1.6664  0.6138 -1.0208
  167SAPS  C31618938   1.207   2.004   5.130 -0.1525  1.1538 -0.2294
  167SAPS  H16X18939   1.305   2.056   5.124  0.0603  0.6245 -1.6638
  167SAPS  H16Y18940   1.132   2.074   5.172  0.6649  3.0364 -1.7594
  167SAPS  C31718941   1.173   1.971   4.984  1.1480 -0.1856 -0.0105
  167SAPS  H17X18942   1.064   1.949   4.986  0.7388  1.5582  2.6816
  167SAPS  H17Y18943   1.221   1.886   4.932  0.7948  0.0940 -0.8103
  167SAPS  C31818944   1.190   2.092   4.889 -0.1911  0.4407  0.0143
  167SAPS  H18X18945   1.132   2.176   4.933 -0.3664 -1.1822  3.2404
  167SAPS  H18Y18946   1.165   2.068   4.784  1.8672 -2.6213  0.0782
  167SAPS  H18Z18947   1.298   2.120   4.887  0.8025 -2.8899 -0.2870
  168SAPS     N18948   6.069   1.855   6.856 -0.1498 -0.2276 -0.4419
  168SAPS   HN118949   6.158   1.904   6.839  1.2389 -3.0877 -2.2148
  168SAPS   HN218950   6.019   1.859   6.765  1.2043  1.0583 -1.1669
  168SAPS   HN318951   6.015   1.900   6.933  1.7289 -1.9950  2.0981
  168SAPS   C1218952   6.104   1.719   6.900  0.7231  0.9560 -0.4144
  168SAPS  H12A18953   6.171   1.674   6.828 -0.0567  0.2402 -0.7128
  168SAPS   C1318954   6.177   1.716   7.035  0.8361 -0.1554  0.7659
  168SAPS  O13A18955   6.175   1.821   7.102  0.0780 -0.0849  0.8951
  168SAPS  O13B18956   6.235   1.614   7.072 -0.5249 -0.4245 -0.0731
  168SAPS   C1118957   5.976   1.641   6.909 -0.0313  0.2334  0.1854
  168SAPS  H11A18958   6.000   1.543   6.956  1.2958  0.3657 -0.1748
  168SAPS  H11B18959   5.948   1.607   6.807 -1.8733  1.1419  0.3474
  168SAPS     P18960   5.732   1.726   6.912 -0.1477  0.1819 -0.3855
  168SAPS   O1318961   5.689   1.596   6.857 -0.3758  0.0678  0.2496
  168SAPS   O1418962   5.646   1.790   7.020  0.2165  0.4760 -0.8097
  168SAPS   O1218963   5.870   1.699   6.981  0.8587  0.1264  0.5044
  168SAPS   O1118964   5.769   1.830   6.802  0.3172  0.5176  0.2792
  168SAPS    C118965   5.674   1.882   6.708 -0.0509 -0.2394 -0.5110
  168SAPS    HA18966   5.578   1.826   6.710 -0.3427  0.2665  0.3642
  168SAPS    HB18967   5.643   1.982   6.745  2.4645 -0.2854  2.0395
  168SAPS    C218968   5.723   1.910   6.560 -0.4222  0.1197  0.6517
  168SAPS    HS18969   5.794   1.826   6.542 -0.2646 -0.5042  3.5694
  168SAPS   O2118970   5.771   2.047   6.557 -0.3636  1.1923  0.3750
  168SAPS   C2118971   5.901   2.044   6.578  0.0062  0.0815 -0.1159
  168SAPS   O2218972   5.966   1.949   6.620  0.0897 -0.6757 -0.7891
  168SAPS   C2218973   5.948   2.185   6.557  0.2410 -0.1733  0.1509
  168SAPS   H2R18974   5.878   2.258   6.510 -0.9841 -1.4410 -0.0426
  168SAPS   H2S18975   5.986   2.237   6.648  3.1090  1.0949 -1.6273
  168SAPS    C318976   5.604   1.889   6.458 -0.0990  0.5113  0.1654
  168SAPS    HX18977   5.565   1.785   6.457 -2.5106  1.3512 -0.7868
  168SAPS    HY18978   5.661   1.902   6.363  3.1900 -2.7702  1.4192
  168SAPS   O3118979   5.484   1.965   6.480  0.1795  0.2638  0.2017
  168SAPS   C3118980   5.495   2.091   6.428  0.3348 -0.4979 -0.2576
  168SAPS   O3218981   5.583   2.129   6.351 -0.0204 -0.5707 -0.4095
  168SAPS   C3218982   5.381   2.168   6.492  0.9069 -0.4926  0.2041
  168SAPS   H2X18983   5.392   2.177   6.602 -1.9904 -0.0182  0.5433
  168SAPS   H2Y18984   5.283   2.115   6.485 -0.9370  2.2622  2.7167
  168SAPS   C2318985   6.075   2.178   6.475 -0.3037 -0.4845 -0.6033
  168SAPS   H3R18986   6.169   2.137   6.519  2.3177  2.4140 -3.0598
  168SAPS   H3S18987   6.108   2.284   6.468  1.9595 -0.9141  1.7952
  168SAPS   C2418988   6.054   2.147   6.324 -0.1350 -0.1874  0.7701
  168SAPS   H4R18989   6.114   2.215   6.260 -1.5278  1.9469  1.6478
  168SAPS   H4S18990   5.946   2.160   6.303  0.7971  2.0767 -4.1478
  168SAPS   C2518991   6.088   2.003   6.307 -0.2571  1.1813  0.0639
  168SAPS   H5R18992   6.103   1.940   6.396 -1.1631 -1.7639 -1.7051
  168SAPS   C2618993   6.106   1.939   6.193 -0.5327 -0.4964  0.8541
  168SAPS   H6R18994   6.145   1.836   6.197 -0.6422 -0.5990 -0.4191
  168SAPS   C2718995   6.075   1.997   6.062 -0.1481 -0.0131 -0.1960
  168SAPS   H7R18996   6.159   2.063   6.029 -0.1587  0.6178  0.9929
  168SAPS   H7S18997   5.979   2.050   6.076  0.4292  0.9860  0.1399
  168SAPS   C2818998   6.069   1.893   5.951 -0.2765  0.8319 -0.2831
  168SAPS   H8R18999   6.089   1.792   5.990 -3.2003  0.6078  0.8688
  168SAPS   C2919000   6.087   1.921   5.817 -0.5619  0.5121 -0.4335
  168SAPS   H9R19001   6.077   1.838   5.746 -3.0357  1.2936 -1.1178
  168SAPS  C21019002   6.090   2.063   5.756  0.2754  0.5865 -0.4764
  168SAPS  H10R19003   6.054   2.135   5.832  1.3491  2.0607 -1.2979
  168SAPS  H10S19004   6.025   2.065   5.665  1.0535 -1.9601 -1.1671
  168SAPS  C21119005   6.227   2.116   5.731  0.4697 -0.8785 -1.1680
  168SAPS  H11R19006   6.303   2.097   5.808 -0.4623 -1.4957 -0.3784
  168SAPS  C21219007   6.262   2.172   5.610  0.4582 -0.7232 -0.7317
  168SAPS  H12R19008   6.363   2.208   5.587  0.0180  0.3885 -0.9898
  168SAPS  C21319009   6.174   2.188   5.492 -0.3788 -0.2791 -0.6371
  168SAPS  H13R19010   6.091   2.115   5.484 -0.2239 -0.4077 -1.1273
  168SAPS  H13S19011   6.234   2.159   5.403 -1.2824  0.3505 -1.4650
  168SAPS  C21419012   6.122   2.329   5.496  0.3145 -0.0895  0.7358
  168SAPS  H14R19013   6.047   2.348   5.574 -2.1810 -1.6950 -1.1125
  168SAPS  C21519014   6.162   2.440   5.429  0.4327  0.7669  0.6744
  168SAPS  H15R19015   6.105   2.534   5.442 -2.4129 -0.5754 -1.0934
  168SAPS  C21619016   6.273   2.458   5.326  0.3546  0.1797 -0.7437
  168SAPS  H16R19017   6.229   2.448   5.225 -0.4512  0.4278 -0.4201
  168SAPS  H16S19018   6.358   2.388   5.341  0.4494  0.2502 -0.9559
  168SAPS  C21719019   6.337   2.600   5.319 -0.1661  0.7623  0.0228
  168SAPS  H17R19020   6.437   2.594   5.271 -1.0281 -3.1442 -1.7044
  168SAPS  H17S19021   6.359   2.624   5.425 -0.5482 -0.2266  0.3400
  168SAPS  C21819022   6.243   2.705   5.269 -0.1311  0.4591 -0.1841
  168SAPS  H18R19023   6.284   2.807   5.282 -0.9711  0.7192  0.5464
  168SAPS  H18S19024   6.148   2.694   5.326  0.2285 -2.4070  0.0447
  168SAPS  C21919025   6.212   2.692   5.117  0.6782 -0.0632 -0.3891
  168SAPS  H19R19026   6.118   2.635   5.106  0.7209 -0.2633  0.2528
  168SAPS  H19S19027   6.293   2.635   5.066  0.2226 -1.0427 -0.0295
  168SAPS  C22019028   6.202   2.830   5.043 -0.2883 -0.1563 -0.1297
  168SAPS  H20R19029   6.126   2.892   5.095 -0.3500  1.1735 -1.7091
  168SAPS  H20S19030   6.180   2.818   4.935  0.3623  0.5715 -0.3586
  168SAPS  H20T19031   6.305   2.873   5.046  0.7062 -2.1327 -2.4971
  168SAPS   C3319032   5.358   2.309   6.421  0.6714  0.4671  0.8175
  168SAPS   H3X19033   5.449   2.369   6.398 -0.3423  0.9708 -2.3580
  168SAPS   H3Y19034   5.283   2.356   6.489  0.5270 -0.9125  1.6579
  168SAPS   C3419035   5.285   2.271   6.287 -0.1328  0.0025 -0.7290
  168SAPS   H4X19036   5.194   2.212   6.311  0.3836 -0.0553  1.2987
  168SAPS   H4Y19037   5.349   2.212   6.219  0.2124  0.3396 -0.6991
  168SAPS   C3519038   5.234   2.385   6.205 -0.2370 -0.7248  0.4441
  168SAPS   H5X19039   5.319   2.454   6.186 -1.6636  1.2248  0.8188
  168SAPS   H5Y19040   5.151   2.441   6.253  0.4843  0.5641  0.2328
  168SAPS   C3619041   5.172   2.347   6.072 -0.2927 -0.0684 -0.4899
  168SAPS   H6X19042   5.092   2.272   6.090 -1.1768  1.0534  0.4677
  168SAPS   H6Y19043   5.246   2.299   6.005  1.0313 -0.6422  1.2990
  168SAPS   C3719044   5.107   2.462   5.987 -0.3086 -0.0356  0.0670
  168SAPS   H7X19045   5.185   2.539   5.972  2.7001 -2.0413  3.6547
  168SAPS   H7Y19046   5.030   2.507   6.053 -0.9640  0.1121 -0.7729
  168SAPS   C3819047   5.046   2.401   5.861  0.1330 -0.2787 -1.2268
  168SAPS   H8X19048   4.956   2.344   5.895 -0.7992  0.5191 -2.2718
  168SAPS   H8Y19049   5.113   2.332   5.806  0.9235 -0.2931 -0.2685
  168SAPS   C3919050   4.998   2.506   5.762  0.7700 -0.2455  1.0923
  168SAPS   H9X19051   5.084   2.575   5.745 -0.3910  1.3500  1.4040
  168SAPS   H9Y19052   4.915   2.559   5.814  0.7435  0.7693  0.0635
  168SAPS  C31019053   4.962   2.441   5.633  0.5736 -0.3802  0.3778
  168SAPS  H10X19054   4.879   2.368   5.638 -0.6974  1.0049  0.1373
  168SAPS  H10Y19055   5.049   2.382   5.597 -0.9883 -2.3972 -0.2571
  168SAPS  C31119056   4.928   2.548   5.526 -0.2670  0.3105 -0.4517
  168SAPS  H11X19057   5.002   2.631   5.526  0.8931 -0.6961 -0.1883
  168SAPS  H11Y19058   4.831   2.599   5.545  0.7968  2.1650  0.2711
  168SAPS  C31219059   4.924   2.489   5.381  0.5733 -0.7308 -0.5579
  168SAPS  H12X19060   4.871   2.393   5.400  0.7490 -0.6080  0.6297
  168SAPS  H12Y19061   5.026   2.452   5.357  1.8089  1.4868  1.0017
  168SAPS  C31319062   4.862   2.580   5.277  0.2883  0.2442 -0.1737
  168SAPS  H13X19063   4.931   2.660   5.241 -0.2827  0.7284 -0.2077
  168SAPS  H13Y19064   4.774   2.624   5.328 -3.0236 -2.0527 -3.3794
  168SAPS  C31419065   4.814   2.504   5.154 -0.4140 -0.5193 -0.1071
  168SAPS  H14X19066   4.720   2.448   5.172 -1.0311  0.2910 -0.7550
  168SAPS  H14Y19067   4.894   2.430   5.131  0.4472  0.6527 -0.9729
  168SAPS  C31519068   4.789   2.590   5.026 -0.2781 -0.0141 -0.1723
  168SAPS  H15X19069   4.860   2.675   5.036 -0.0138 -0.3284  0.8463
  168SAPS  H15Y19070   4.684   2.624   5.030 -0.1659  0.7952 -2.4982
  168SAPS  C31619071   4.779   2.512   4.894  0.0939 -0.3320  0.1277
  168SAPS  H16X19072   4.879   2.466   4.879  0.4461  0.0644  1.1433
  168SAPS  H16Y19073   4.761   2.580   4.808 -2.0782  0.3848  1.0747
  168SAPS  C31719074   4.675   2.402   4.894 -0.6768 -0.0107 -0.0383
  168SAPS  H17X19075   4.687   2.324   4.971 -0.2415 -2.5973 -2.5445
  168SAPS  H17Y19076   4.684   2.355   4.794  0.4351 -0.1908  0.1332
  168SAPS  C31819077   4.523   2.447   4.890 -0.0140  0.6222  0.4136
  168SAPS  H18X19078   4.460   2.357   4.881  2.2287 -0.8175 -3.2301
  168SAPS  H18Y19079   4.500   2.520   4.809  2.3727  1.2516  0.2186
  168SAPS  H18Z19080   4.497   2.499   4.985  0.6600  0.0532  0.9219
  169SAPS     N19081   0.341   3.117   6.416 -0.1115 -0.1434 -0.3684
  169SAPS   HN119082   0.346   3.097   6.314  0.1916  1.4876 -0.6926
  169SAPS   HN219083   0.422   3.169   6.456  0.0555 -0.2670 -0.5427
  169SAPS   HN319084   0.335   3.024   6.462  0.6430 -0.3716 -0.7217
  169SAPS   C1219085   0.216   3.197   6.443 -0.3016 -0.0186 -0.0653
  169SAPS  H12A19086   0.172   3.177   6.540  0.3486 -1.0547  0.0359
  169SAPS   C1319087   0.231   3.347   6.427 -0.2868 -0.6950 -0.5882
  169SAPS  O13A19088   0.340   3.394   6.385  0.0238 -0.5826 -0.0880
  169SAPS  O13B19089   0.137   3.422   6.461  0.0221 -0.1112  0.0690
  169SAPS   C1119090   0.102   3.146   6.355  0.2939 -0.2144 -0.2515
  169SAPS  H11A19091   0.134   3.158   6.249  1.0330 -0.3022 -0.0425
  169SAPS  H11B19092   0.012   3.212   6.367  0.2379 -0.2716 -0.3498
  169SAPS     P19093  -0.054   2.979   6.488 -0.2266  0.0272  0.4485
  169SAPS   O1319094  -0.068   2.836   6.521  0.6387 -0.0260 -0.3684
  169SAPS   O1419095  -0.051   3.081   6.598  0.0301  0.3011 -0.0143
  169SAPS   O1219096   0.072   3.003   6.394  0.8756 -0.4039 -0.6707
  169SAPS   O1119097  -0.175   3.004   6.391  0.2680  0.1950 -0.5973
  169SAPS    C119098  -0.211   2.927   6.277  0.0876  0.7849  0.0131
  169SAPS    HA19099  -0.213   2.819   6.303 -0.7584  1.0259  0.9933
  169SAPS    HB19100  -0.315   2.951   6.246  0.7883  1.0790 -2.3270
  169SAPS    C219101  -0.124   2.956   6.155 -0.2243  0.1492 -0.1406
  169SAPS    HS19102  -0.019   2.929   6.177 -0.4165 -1.6862 -1.2586
  169SAPS   O2119103  -0.135   3.098   6.119  0.6715  0.5305 -0.2931
  169SAPS   C2119104  -0.039   3.155   6.054 -0.2780 -0.9970 -1.0866
  169SAPS   O2219105   0.070   3.111   6.035  0.9233  0.1802  0.4549
  169SAPS   C2219106  -0.082   3.299   6.019 -0.2336  0.9123 -0.5335
  169SAPS   H2R19107  -0.145   3.337   6.102 -1.3296 -1.6082 -0.1099
  169SAPS   H2S19108   0.009   3.363   6.023 -0.1931  0.8005  0.5003
  169SAPS    C319109  -0.165   2.857   6.045  0.9265  0.0979 -0.0917
  169SAPS    HX19110  -0.274   2.873   6.036  0.7060 -0.0622  1.8602
  169SAPS    HY19111  -0.153   2.754   6.086  1.2175 -0.2599 -1.0417
  169SAPS   O3119112  -0.094   2.882   5.924 -0.0327 -0.0648  0.4521
  169SAPS   C3119113   0.017   2.811   5.923 -0.6580  0.8239  0.2942
  169SAPS   O3219114   0.044   2.715   5.996 -0.3352  0.0333  0.6777
  169SAPS   C3219115   0.108   2.853   5.811 -0.1073  0.0019 -0.2353
  169SAPS   H2X19116   0.156   2.760   5.772  0.1932 -0.2040  0.6143
  169SAPS   H2Y19117   0.185   2.919   5.855 -0.6596  0.5547 -0.0905
  169SAPS   C2319118  -0.150   3.298   5.881  0.2821 -0.0211 -0.1192
  169SAPS   H3R19119  -0.243   3.239   5.898  0.3240 -0.2677 -0.7455
  169SAPS   H3S19120  -0.090   3.234   5.814  0.1108 -0.5514  0.2198
  169SAPS   C2419121  -0.163   3.452   5.833  0.2306 -0.7178  0.0463
  169SAPS   H4R19122  -0.065   3.505   5.833 -0.4741  0.6916  1.9333
  169SAPS   H4S19123  -0.224   3.500   5.912  0.9680  0.5262 -0.1089
  169SAPS   C2519124  -0.234   3.449   5.697  0.4997 -0.2234  0.3465
  169SAPS   H5R19125  -0.344   3.443   5.705  0.5173 -0.5068  0.4054
  169SAPS   C2619126  -0.181   3.454   5.578 -0.1351 -0.3451 -0.1059
  169SAPS   H6R19127  -0.245   3.443   5.488 -1.1203 -1.2108  0.6638
  169SAPS   C2719128  -0.027   3.456   5.547  0.0223  0.7754 -0.3038
  169SAPS   H7R19129   0.018   3.532   5.615 -1.9643  0.6113  1.2823
  169SAPS   H7S19130  -0.033   3.496   5.444  1.1478  0.8745 -0.3514
  169SAPS   C2819131   0.044   3.321   5.551 -0.1308  0.5724  0.4689
  169SAPS   H8R19132  -0.021   3.234   5.572  0.7536  0.3566  2.6283
  169SAPS   C2919133   0.171   3.283   5.531 -0.5165 -0.9152 -0.8384
  169SAPS   H9R19134   0.199   3.176   5.533 -0.4399 -0.8884 -0.0801
  169SAPS  C21019135   0.272   3.389   5.512  0.3206 -0.3217 -0.0630
  169SAPS  H10R19136   0.340   3.375   5.599  1.1240  1.0713 -0.4286
  169SAPS  H10S19137   0.229   3.491   5.504 -0.4512 -0.7869 -2.6589
  169SAPS  C21119138   0.349   3.365   5.387 -0.1155  0.9248  0.4205
  169SAPS  H11R19139   0.442   3.309   5.407  0.9811  2.7366  0.5484
  169SAPS  C21219140   0.321   3.400   5.260  0.3488 -0.0806  0.1666
  169SAPS  H12R19141   0.382   3.351   5.182  0.3096 -0.9125  0.6457
  169SAPS  C21319142   0.195   3.475   5.216  0.5311  0.2980 -0.2328
  169SAPS  H13R19143   0.232   3.551   5.144  0.9654 -0.8028 -1.1983
  169SAPS  H13S19144   0.153   3.530   5.302  1.5643  0.1101  0.4202
  169SAPS  C21419145   0.098   3.383   5.143  0.0288 -0.7393  0.0787
  169SAPS  H14R19146   0.129   3.277   5.139 -0.2808 -1.1205  4.0706
  169SAPS  C21519147  -0.027   3.430   5.101  0.0024  0.0942  0.5329
  169SAPS  H15R19148  -0.101   3.361   5.058 -0.1924  0.6380 -0.0141
  169SAPS  C21619149  -0.082   3.574   5.108 -0.2393  0.2331  0.7942
  169SAPS  H16R19150  -0.025   3.634   5.182  1.2628 -1.0609  0.7364
  169SAPS  H16S19151  -0.192   3.564   5.122 -0.7408 -0.8689 -2.9162
  169SAPS  C21719152  -0.061   3.639   4.964 -0.4760 -0.4164 -0.3627
  169SAPS  H17R19153   0.030   3.604   4.911 -0.3407 -0.6728  0.0432
  169SAPS  H17S19154  -0.036   3.746   4.984  4.9667 -1.6176  0.8220
  169SAPS  C21819155  -0.180   3.628   4.868 -0.5209  0.1606  0.5576
  169SAPS  H18R19156  -0.258   3.705   4.886 -0.2475  0.4029  0.7239
  169SAPS  H18S19157  -0.232   3.531   4.881 -1.0518  0.3603 -0.0361
  169SAPS  C21919158  -0.156   3.636   4.717 -0.1747  0.0742 -0.1216
  169SAPS  H19R19159  -0.134   3.743   4.701  2.8452 -0.3066  0.9554
  169SAPS  H19S19160  -0.250   3.599   4.669  0.9142 -2.4790 -0.4297
  169SAPS  C22019161  -0.047   3.547   4.660  0.3791 -0.4861  0.5335
  169SAPS  H20R19162  -0.069   3.542   4.551 -0.7059  1.2687  0.6389
  169SAPS  H20S19163  -0.057   3.441   4.691 -1.7084 -0.3379  0.5234
  169SAPS  H20T19164   0.053   3.590   4.680  0.5235 -1.1105  1.1791
  169SAPS   C3319165   0.052   2.915   5.689  0.5622 -0.7422 -0.1465
  169SAPS   H3X19166   0.132   2.940   5.617  0.3091 -1.2184 -0.5993
  169SAPS   H3Y19167   0.005   3.013   5.713 -0.1297 -1.3083  0.9526
  169SAPS   C3419168  -0.041   2.820   5.613  0.1163 -0.5768 -0.7824
  169SAPS   H4X19169  -0.098   2.764   5.690 -1.9530 -0.8105 -2.3936
  169SAPS   H4Y19170   0.025   2.757   5.550  1.1512  0.5037 -0.8063
  169SAPS   C3519171  -0.133   2.897   5.516  0.5978  0.7635 -0.3268
  169SAPS   H5X19172  -0.180   2.977   5.576  0.1018  0.6017 -0.5001
  169SAPS   H5Y19173  -0.192   2.813   5.474  2.8330 -1.4842  0.7174
  169SAPS   C3619174  -0.057   2.948   5.384 -0.1263  0.3278  0.5847
  169SAPS   H6X19175   0.018   2.881   5.336 -0.4568 -0.8227  1.6349
  169SAPS   H6Y19176   0.004   3.034   5.421 -0.1789  1.0947 -1.0528
  169SAPS   C3719177  -0.151   3.012   5.276  0.4435 -0.2665  0.1162
  169SAPS   H7X19178  -0.084   3.068   5.207 -1.8723  0.8542 -1.3460
  169SAPS   H7Y19179  -0.226   3.081   5.321  0.7540 -0.3764  0.8059
  169SAPS   C3819180  -0.223   2.900   5.191 -0.1050 -0.2030 -0.1342
  169SAPS   H8X19181  -0.280   2.831   5.257  2.6310 -4.0385 -1.3890
  169SAPS   H8Y19182  -0.144   2.836   5.145  0.4295 -0.4185  1.0269
  169SAPS   C3919183  -0.301   2.961   5.080  0.8268 -0.1165  0.2100
  169SAPS   H9X19184  -0.253   3.053   5.041  0.4549 -0.7153 -1.8062
  169SAPS   H9Y19185  -0.405   2.988   5.109  0.5192 -0.3936 -0.5822
  169SAPS  C31019186  -0.310   2.858   4.970 -0.0263  0.3655  0.4585
  169SAPS  H10X19187  -0.395   2.792   5.001 -1.2034  1.0175 -1.2229
  169SAPS  H10Y19188  -0.210   2.812   4.960  0.1920  1.1052 -0.9120
  169SAPS  C31119189  -0.347   2.914   4.829  0.0010 -0.1331  0.2590
  169SAPS  H11X19190  -0.441   2.971   4.846  0.3773  0.2269  1.1982
  169SAPS  H11Y19191  -0.371   2.838   4.752  0.9983  1.0625 -1.2871
  169SAPS  C31219192  -0.237   3.007   4.768  0.4423 -0.3400  0.6677
  169SAPS  H12X19193  -0.146   2.944   4.758  1.8123  1.8451 -1.6596
  169SAPS  H12Y19194  -0.204   3.096   4.827  1.2659 -0.2865  0.1449
  169SAPS  C31319195  -0.281   3.051   4.628 -0.7058  0.2315  0.0657
  169SAPS  H13X19196  -0.304   2.965   4.563  0.3689 -2.1287  2.5933
  169SAPS  H13Y19197  -0.200   3.119   4.595  0.8084 -1.7913 -0.5875
  169SAPS  C31419198  -0.396   3.156   4.636 -0.5538 -0.4416 -0.0936
  169SAPS  H14X19199  -0.366   3.249   4.688 -0.8575  0.4923 -1.5292
  169SAPS  H14Y19200  -0.487   3.122   4.690 -1.1212 -1.6192 -1.7022
  169SAPS  C31519201  -0.447   3.202   4.499 -0.0668 -0.2997  0.5561
  169SAPS  H15X19202  -0.551   3.239   4.508 -0.0504  0.1910 -0.9903
  169SAPS  H15Y19203  -0.448   3.109   4.438 -0.6240  1.9635 -3.1804
  169SAPS  C31619204  -0.360   3.302   4.410 -0.4644 -0.5463  0.0619
  169SAPS  H16X19205  -0.262   3.252   4.402 -0.3344 -0.4690  0.9666
  169SAPS  H16Y19206  -0.341   3.391   4.475 -2.2160  0.9854 -1.4056
  169SAPS  C31719207  -0.426   3.354   4.291 -0.0560 -0.2160  0.6086
  169SAPS  H17X19208  -0.479   3.269   4.242  0.3327 -0.2502  0.2415
  169SAPS  H17Y19209  -0.349   3.393   4.221  0.4659  1.3587  1.9943
  169SAPS  C31819210  -0.521   3.465   4.308 -0.1930 -0.4913 -0.3165
  169SAPS  H18X19211  -0.465   3.532   4.377  0.1203  0.1904 -1.2285
  169SAPS  H18Y19212  -0.619   3.437   4.352 -0.7892  1.7042 -0.1430
  169SAPS  H18Z19213  -0.541   3.518   4.213  1.4223  0.4343 -0.1758
  170SAPS     N19214   3.650   6.051   6.494 -0.0346  0.0034  0.8686
  170SAPS   HN119215   3.601   6.083   6.408  0.0114  0.8169  1.1283
  170SAPS   HN219216   3.724   6.122   6.510  3.0939 -2.6610 -0.7123
  170SAPS   HN319217   3.693   5.959   6.472 -0.9077 -0.2133 -0.0265
  170SAPS   C1219218   3.543   6.036   6.598 -0.4859 -0.0296  0.2979
  170SAPS  H12A19219   3.590   5.993   6.685 -1.2612 -2.1012 -0.2476
  170SAPS   C1319220   3.487   6.175   6.649  0.8771 -0.4377  0.0557
  170SAPS  O13A19221   3.509   6.283   6.584 -0.3452  0.5248 -0.4361
  170SAPS  O13B19222   3.441   6.184   6.761 -0.3555 -0.1856 -0.7129
  170SAPS   C1119223   3.433   5.941   6.547  0.0336 -0.1407  0.0195
  170SAPS  H11A19224   3.404   5.971   6.444  1.2497 -1.3118 -0.6932
  170SAPS  H11B19225   3.356   5.944   6.627  1.8982  0.6143  1.8704
  170SAPS     P19226   3.338   5.698   6.500 -0.4086 -0.1814  0.4494
  170SAPS   O1319227   3.399   5.566   6.481 -0.1120 -1.0290 -0.2874
  170SAPS   O1419228   3.235   5.710   6.604  0.4016 -0.5678 -0.1375
  170SAPS   O1219229   3.459   5.799   6.532  0.1788 -0.2058 -0.8781
  170SAPS   O1119230   3.272   5.744   6.363 -0.2900 -0.0772 -0.7643
  170SAPS    C119231   3.347   5.758   6.243 -0.2809  0.6447  0.3868
  170SAPS    HA19232   3.325   5.859   6.203  0.6957  0.0721 -1.7804
  170SAPS    HB19233   3.457   5.747   6.257 -0.1186 -0.4502 -1.4201
  170SAPS    C219234   3.308   5.646   6.137  0.0525  0.2447 -0.1702
  170SAPS    HS19235   3.276   5.559   6.199  2.1772 -1.4983 -1.3847
  170SAPS   O2119236   3.414   5.629   6.041 -0.2253 -0.4854 -0.5206
  170SAPS   C2119237   3.424   5.507   5.986 -0.1652 -0.1436  1.1573
  170SAPS   O2219238   3.356   5.407   6.007 -0.1986 -0.2626  0.0468
  170SAPS   C2219239   3.542   5.501   5.894 -0.2284 -0.4062 -0.1089
  170SAPS   H2R19240   3.632   5.536   5.948  1.0422 -1.9263 -1.1362
  170SAPS   H2S19241   3.569   5.396   5.871  1.9048 -0.2434  1.3220
  170SAPS    C319242   3.172   5.681   6.068  0.1629 -0.3388  0.4321
  170SAPS    HX19243   3.084   5.679   6.135 -1.3827  1.5429 -1.3934
  170SAPS    HY19244   3.149   5.600   5.996 -0.1006 -0.3997  0.5853
  170SAPS   O3119245   3.179   5.814   6.008 -0.1191  0.4705 -0.2395
  170SAPS   C3119246   3.204   5.808   5.880 -0.5085 -0.4617  0.3030
  170SAPS   O3219247   3.204   5.712   5.804  0.1300 -0.3587 -0.0389
  170SAPS   C3219248   3.233   5.951   5.838  0.1055  0.2982 -0.1122
  170SAPS   H2X19249   3.295   6.007   5.911  1.7023 -0.3514 -0.9198
  170SAPS   H2Y19250   3.141   6.007   5.812  1.3266  1.7271 -1.5318
  170SAPS   C2319251   3.532   5.588   5.766 -0.4465 -0.2001 -0.2418
  170SAPS   H3R19252   3.515   5.691   5.804 -1.1260 -0.4665  0.2097
  170SAPS   H3S19253   3.445   5.552   5.708 -1.6448  1.6954  0.2794
  170SAPS   C2419254   3.659   5.580   5.684 -0.3504  0.6194  0.9926
  170SAPS   H4R19255   3.633   5.621   5.584 -0.6818  2.2364  1.7056
  170SAPS   H4S19256   3.687   5.474   5.667  0.5501  1.0779 -0.5501
  170SAPS   C2519257   3.772   5.669   5.737  0.1530  0.3696  0.0986
  170SAPS   H5R19258   3.754   5.778   5.734 -0.5159  0.2596 -0.2732
  170SAPS   C2619259   3.892   5.618   5.765 -0.0529  0.1909 -0.3061
  170SAPS   H6R19260   3.967   5.684   5.813  2.3278 -1.4388 -1.5634
  170SAPS   C2719261   3.924   5.467   5.750 -0.1210 -0.5585 -0.0854
  170SAPS   H7R19262   3.914   5.440   5.643  0.1788 -0.1286 -0.2239
  170SAPS   H7S19263   3.859   5.404   5.815  2.7441 -3.0319  0.6258
  170SAPS   C2819264   4.070   5.435   5.775  0.4289  0.3358  0.8431
  170SAPS   H8R19265   4.136   5.523   5.772  1.5362 -0.4743  0.7117
  170SAPS   C2919266   4.114   5.314   5.808  0.9418  0.0674  0.6528
  170SAPS   H9R19267   4.221   5.308   5.833  0.7112  1.2218  2.0102
  170SAPS  C21019268   4.025   5.197   5.823  0.5330  0.0495 -0.7435
  170SAPS  H10R19269   4.091   5.113   5.790  1.1340  0.4612 -0.6086
  170SAPS  H10S19270   3.929   5.191   5.766  0.1713 -0.2503 -0.1068
  170SAPS  C21119271   3.992   5.165   5.972 -0.3025 -0.9050  0.2532
  170SAPS  H11R19272   3.928   5.249   6.004  1.0198  0.0734  0.4188
  170SAPS  C21219273   4.017   5.063   6.055 -0.6850 -0.0255  0.0268
  170SAPS  H12R19274   3.984   5.075   6.159  0.7272  0.0208  0.4862
  170SAPS  C21319275   4.093   4.937   6.015 -0.2206 -0.1229 -0.5543
  170SAPS  H13R19276   4.096   4.915   5.907  0.2951 -2.3263 -0.1355
  170SAPS  H13S19277   4.025   4.858   6.053  0.0183 -0.9596 -1.8273
  170SAPS  C21419278   4.231   4.929   6.080  0.1722  0.2323 -0.6506
  170SAPS  H14R19279   4.251   5.015   6.145  3.4259 -1.0684  0.2740
  170SAPS  C21519280   4.315   4.824   6.062 -0.1979 -0.1722 -0.5308
  170SAPS  H15R19281   4.412   4.823   6.114 -0.2323 -2.3498 -0.4070
  170SAPS  C21619282   4.303   4.710   5.965  0.0641 -0.4376 -0.0779
  170SAPS  H16R19283   4.210   4.706   5.905  0.4137 -2.6281 -0.5798
  170SAPS  H16S19284   4.324   4.616   6.020 -1.0848 -1.4103 -1.2356
  170SAPS  C21719285   4.402   4.722   5.847 -0.4797 -0.1330 -0.3602
  170SAPS  H17R19286   4.499   4.764   5.880  0.1539 -1.7400 -0.0663
  170SAPS  H17S19287   4.366   4.799   5.775  1.4345  0.3153 -0.9044
  170SAPS  C21819288   4.446   4.592   5.776 -0.4245  0.3046  0.4152
  170SAPS  H18R19289   4.361   4.526   5.803 -1.0301  1.4399  1.3566
  170SAPS  H18S19290   4.539   4.559   5.827 -2.0738 -1.1511  2.6283
  170SAPS  C21919291   4.468   4.599   5.624  0.3888  0.3888  0.4662
  170SAPS  H19R19292   4.502   4.500   5.586 -1.5462 -0.1834  0.1045
  170SAPS  H19S19293   4.549   4.675   5.617  1.3610 -0.4263  2.1060
  170SAPS  C22019294   4.349   4.638   5.542 -0.5883  0.0471  0.1261
  170SAPS  H20R19295   4.285   4.712   5.594  0.1663  1.5606 -1.0287
  170SAPS  H20S19296   4.282   4.554   5.513  0.9050 -0.5209 -1.9066
  170SAPS  H20T19297   4.376   4.676   5.441  1.6827 -1.9136 -0.0841
  170SAPS   C3319298   3.316   5.957   5.711  0.5333  0.6426  0.1167
  170SAPS   H3X19299   3.264   5.887   5.643  2.8033 -0.2390 -0.8278
  170SAPS   H3Y19300   3.419   5.917   5.726  1.2600  2.9383  1.9184
  170SAPS   C3419301   3.331   6.091   5.647 -0.2832  0.0058 -0.0407
  170SAPS   H4X19302   3.394   6.153   5.714 -0.7068 -0.2843  0.6336
  170SAPS   H4Y19303   3.233   6.144   5.646  0.1065  0.7421 -0.1349
  170SAPS   C3519304   3.403   6.091   5.520  0.0971  0.0265 -0.3298
  170SAPS   H5X19305   3.504   6.053   5.548  0.2990 -0.2069 -1.3174
  170SAPS   H5Y19306   3.430   6.189   5.474  1.8697 -0.8421 -1.2659
  170SAPS   C3619307   3.338   5.990   5.417  0.1796  0.7720  0.4483
  170SAPS   H6X19308   3.231   6.020   5.411 -0.5293 -1.3894  1.1944
  170SAPS   H6Y19309   3.342   5.881   5.439  1.5105  0.7337  0.1209
  170SAPS   C3719310   3.393   6.015   5.278 -0.3665 -0.0814  0.4156
  170SAPS   H7X19311   3.502   5.997   5.285 -0.2181 -0.0006 -1.2759
  170SAPS   H7Y19312   3.380   6.122   5.251 -1.0764  0.2021  1.7674
  170SAPS   C3819313   3.344   5.924   5.169 -0.1252 -0.0029  0.1247
  170SAPS   H8X19314   3.234   5.932   5.164 -0.2644 -1.7909 -0.4795
  170SAPS   H8Y19315   3.361   5.816   5.188 -0.0118  0.2755  1.7441
  170SAPS   C3919316   3.402   5.964   5.034  0.7524  0.3105  0.5942
  170SAPS   H9X19317   3.510   5.956   5.056  0.4842 -3.0496  1.2826
  170SAPS   H9Y19318   3.368   6.063   4.996 -0.0335 -0.5290 -1.0454
  170SAPS  C31019319   3.374   5.867   4.925 -0.4536 -0.6696  0.5310
  170SAPS  H10X19320   3.266   5.843   4.917 -0.8675  1.5898 -3.7283
  170SAPS  H10Y19321   3.428   5.772   4.944  0.4993  0.1379  2.1380
  170SAPS  C31119322   3.401   5.923   4.787 -0.0636 -0.4549 -0.2905
  170SAPS  H11X19323   3.327   5.999   4.755 -0.4854 -1.1923 -1.1071
  170SAPS  H11Y19324   3.383   5.832   4.727 -0.6499 -2.1774  2.3210
  170SAPS  C31219325   3.539   6.001   4.769  0.3223 -0.0991 -0.1792
  170SAPS  H12X19326   3.622   5.942   4.815  0.2153 -1.5240 -1.7110
  170SAPS  H12Y19327   3.529   6.102   4.813 -2.3512  0.5376 -2.0229
  170SAPS  C31319328   3.572   6.023   4.624 -0.5746 -0.3785 -0.0141
  170SAPS  H13X19329   3.488   6.084   4.585  0.1686  1.3103  0.9346
  170SAPS  H13Y19330   3.573   5.927   4.568 -0.3843 -0.3223 -0.1095
  170SAPS  C31419331   3.719   6.088   4.603  0.1684 -0.1679  1.0743
  170SAPS  H14X19332   3.798   6.010   4.611  0.8455  0.0133 -2.2502
  170SAPS  H14Y19333   3.727   6.166   4.681 -1.2103  0.2211  0.8599
  170SAPS  C31519334   3.740   6.145   4.464  0.0103 -0.1960 -0.2101
  170SAPS  H15X19335   3.657   6.212   4.433  0.5101  0.5970  0.1403
  170SAPS  H15Y19336   3.723   6.053   4.405 -0.9537  0.1497 -0.5032
  170SAPS  C31619337   3.882   6.206   4.424 -0.0316 -0.5940 -0.0261
  170SAPS  H16X19338   3.957   6.124   4.421 -1.1888 -1.6738 -1.1820
  170SAPS  H16Y19339   3.908   6.284   4.498  2.2166 -0.0021 -1.3542
  170SAPS  C31719340   3.878   6.282   4.292  0.1360  0.4110  0.0991
  170SAPS  H17X19341   3.794   6.354   4.300  2.1966  2.7328  2.4786
  170SAPS  H17Y19342   3.863   6.220   4.200  0.9498  0.8209 -0.3215
  170SAPS  C31819343   4.007   6.364   4.269 -0.6631  0.0125  0.3673
  170SAPS  H18X19344   3.997   6.433   4.183  2.5102  2.8724  2.0765
  170SAPS  H18Y19345   4.096   6.302   4.243 -2.1104 -2.1359  0.3082
  170SAPS  H18Z19346   4.031   6.426   4.357 -0.5031  3.2821 -1.8170
  171SAPS     N19347   3.751   3.917   6.932  0.0346  0.4213  0.3339
  171SAPS   HN119348   3.703   3.825   6.925 -0.7704  0.8425  0.1487
  171SAPS   HN219349   3.817   3.928   7.011 -2.1735  2.4440  2.0276
  171SAPS   HN319350   3.676   3.988   6.945 -0.1452  0.2721  0.1104
  171SAPS   C1219351   3.831   3.942   6.808 -0.4969 -0.5136  0.7264
  171SAPS  H12A19352   3.880   4.035   6.834 -1.4186 -0.2726  1.6705
  171SAPS   C1319353   3.933   3.833   6.770 -0.1330  0.4268 -0.2614
  171SAPS  O13A19354   3.942   3.727   6.843 -0.1421  0.5923  0.0724
  171SAPS  O13B19355   4.011   3.853   6.677 -1.0143  0.4691  0.4043
  171SAPS   C1119356   3.743   3.971   6.684  0.0167  0.3215  0.1885
  171SAPS  H11A19357   3.699   3.872   6.662  2.4661 -0.2708 -2.5432
  171SAPS  H11B19358   3.802   3.991   6.593  1.4015 -1.6705  0.5852
  171SAPS     P19359   3.502   4.065   6.675  0.2224  0.3748  0.7207
  171SAPS   O1319360   3.422   3.983   6.770 -0.5652  0.3683  0.3281
  171SAPS   O1419361   3.449   4.201   6.631 -0.1841  0.5127  0.6034
  171SAPS   O1219362   3.653   4.079   6.722 -0.0190 -0.2729 -0.2811
  171SAPS   O1119363   3.513   3.980   6.541 -0.0315  0.6280  0.0820
  171SAPS    C119364   3.582   4.031   6.427  0.6303 -0.9349  1.1892
  171SAPS    HA19365   3.676   4.086   6.448  0.7647 -1.0368  0.8623
  171SAPS    HB19366   3.617   3.944   6.366 -0.1363 -1.1021  0.9818
  171SAPS    C219367   3.485   4.112   6.331  0.2420  0.1674 -0.9237
  171SAPS    HS19368   3.415   4.165   6.400  1.5236  2.7325 -1.4908
  171SAPS   O2119369   3.419   4.011   6.241  0.7537 -0.2082  0.4227
  171SAPS   C2119370   3.301   4.048   6.201  0.6134  0.0186 -0.6387
  171SAPS   O2219371   3.240   4.148   6.226  0.0435 -0.7392 -0.3828
  171SAPS   C2219372   3.248   3.938   6.110 -0.5734  0.5950 -0.2661
  171SAPS   H2R19373   3.291   3.939   6.008 -1.8106 -3.8635 -1.0329
  171SAPS   H2S19374   3.284   3.843   6.155 -0.5843 -0.1021 -1.6819
  171SAPS    C319375   3.560   4.229   6.259 -0.2889  0.3848 -0.2189
  171SAPS    HX19376   3.652   4.186   6.214 -1.0762 -2.2920  0.5589
  171SAPS    HY19377   3.593   4.309   6.329  1.5065  0.6102 -1.2766
  171SAPS   O3119378   3.495   4.286   6.145  0.4132  0.3872  0.6719
  171SAPS   C3119379   3.421   4.398   6.156 -0.0011  0.0955  0.6030
  171SAPS   O3219380   3.409   4.475   6.253 -0.0071  0.9477 -0.2191
  171SAPS   C3219381   3.348   4.403   6.025  0.2151 -0.0476 -0.1040
  171SAPS   H2X19382   3.262   4.473   6.021  1.1802  1.1232 -1.3995
  171SAPS   H2Y19383   3.306   4.303   6.000 -0.4017  0.6221 -1.9164
  171SAPS   C2319384   3.099   3.937   6.097  0.2159  0.1338 -0.0680
  171SAPS   H3R19385   3.044   4.033   6.082 -1.2474 -0.6991 -0.1973
  171SAPS   H3S19386   3.057   3.897   6.192 -1.5272  0.9967 -0.4303
  171SAPS   C2419387   3.056   3.851   5.978  0.2094  0.1701 -0.2289
  171SAPS   H4R19388   3.120   3.761   5.963  1.0311  0.8083 -0.6322
  171SAPS   H4S19389   3.059   3.901   5.879  1.3976 -0.7768 -0.7106
  171SAPS   C2519390   2.920   3.786   6.008  0.4343 -0.4792  0.1616
  171SAPS   H5R19391   2.886   3.800   6.112  1.8478 -0.2884  0.6246
  171SAPS   C2619392   2.837   3.740   5.918  0.3054  0.1696  0.4073
  171SAPS   H6R19393   2.740   3.700   5.950  1.2170 -3.1003 -0.5489
  171SAPS   C2719394   2.851   3.731   5.768  0.2167  0.4515 -0.1499
  171SAPS   H7R19395   2.946   3.776   5.731 -1.0256  2.0166 -1.5903
  171SAPS   H7S19396   2.765   3.794   5.738 -0.8845  0.5616  2.8981
  171SAPS   C2819397   2.849   3.592   5.715 -0.4097  0.0232 -0.1500
  171SAPS   H8R19398   2.882   3.516   5.787 -2.1208  0.0112  0.6777
  171SAPS   C2919399   2.822   3.556   5.595 -0.5785  0.1961 -0.2668
  171SAPS   H9R19400   2.829   3.447   5.581  1.8025 -0.0710  2.3540
  171SAPS  C21019401   2.787   3.634   5.478 -0.1715  0.0540 -0.3945
  171SAPS  H10R19402   2.788   3.742   5.505 -2.4395  0.4722 -1.7634
  171SAPS  H10S19403   2.690   3.607   5.432  0.1101  1.7494 -2.1248
  171SAPS  C21119404   2.904   3.623   5.380 -0.1008  0.1904 -1.0495
  171SAPS  H11R19405   3.001   3.605   5.428 -0.8833 -1.4092  0.0216
  171SAPS  C21219406   2.896   3.622   5.247 -0.6635  0.0123  0.3222
  171SAPS  H12R19407   2.995   3.616   5.199 -0.5140 -1.1247  0.7520
  171SAPS  C21319408   2.780   3.631   5.149  0.1908  0.1598 -0.3905
  171SAPS  H13R19409   2.808   3.682   5.055  0.6510 -0.3030 -0.5057
  171SAPS  H13S19410   2.697   3.694   5.189  0.6020  0.3351  0.2123
  171SAPS  C21419411   2.736   3.490   5.122  0.0498  0.1763  0.0846
  171SAPS  H14R19412   2.781   3.422   5.195 -0.6214  1.0457  1.3551
  171SAPS  C21519413   2.675   3.439   5.012 -1.1147  0.5991 -0.4553
  171SAPS  H15R19414   2.653   3.332   5.011  0.6014  0.2147 -2.2651
  171SAPS  C21619415   2.629   3.523   4.903 -0.2339  0.3493  0.4568
  171SAPS  H16R19416   2.659   3.630   4.908 -1.2063  0.6907 -0.6196
  171SAPS  H16S19417   2.519   3.536   4.894 -0.3155 -0.7262 -0.3424
  171SAPS  C21719418   2.690   3.474   4.773  0.1547 -0.0807  0.7987
  171SAPS  H17R19419   2.787   3.422   4.785  1.4214  1.3645 -2.1777
  171SAPS  H17S19420   2.706   3.567   4.714  1.5526 -1.7293 -1.5991
  171SAPS  C21819421   2.618   3.365   4.690  0.3425  0.6440 -0.0878
  171SAPS  H18R19422   2.603   3.270   4.746  0.4757  0.4153 -0.4333
  171SAPS  H18S19423   2.678   3.340   4.600 -1.4826 -0.9289 -0.9338
  171SAPS  C21919424   2.484   3.401   4.625 -0.5691  0.0831  0.3089
  171SAPS  H19R19425   2.472   3.512   4.625  0.8976  0.2984 -1.2462
  171SAPS  H19S19426   2.413   3.357   4.698  0.7328  0.8358  2.1109
  171SAPS  C22019427   2.473   3.332   4.485  0.0068 -0.3910  0.6073
  171SAPS  H20R19428   2.560   3.365   4.424 -2.4769  2.3505 -1.8019
  171SAPS  H20S19429   2.382   3.380   4.442  0.1692 -0.4406  0.1968
  171SAPS  H20T19430   2.445   3.225   4.486 -2.8910  0.1540 -2.7821
  171SAPS   C3319431   3.447   4.452   5.917 -0.7972 -0.0494 -0.5937
  171SAPS   H3X19432   3.543   4.398   5.930 -0.7286  0.3766  0.8696
  171SAPS   H3Y19433   3.472   4.557   5.941  0.3741 -0.1763 -1.1792
  171SAPS   C3419434   3.392   4.444   5.774  0.0989  0.6677 -0.1500
  171SAPS   H4X19435   3.292   4.487   5.753 -0.2769 -0.8339 -1.6565
  171SAPS   H4Y19436   3.378   4.336   5.755  0.6943  1.0217 -3.1627
  171SAPS   C3519437   3.493   4.513   5.683  0.2346 -0.5597  0.6358
  171SAPS   H5X19438   3.578   4.443   5.667 -0.6842 -0.9212 -3.7132
  171SAPS   H5Y19439   3.533   4.607   5.726  1.8335 -1.6857  1.7013
  171SAPS   C3619440   3.423   4.529   5.545  0.1226  0.0553  0.6459
  171SAPS   H6X19441   3.349   4.611   5.553 -1.9761 -1.6134 -0.8747
  171SAPS   H6Y19442   3.379   4.431   5.516  3.3228 -1.2779 -0.1774
  171SAPS   C3719443   3.519   4.556   5.430 -0.8265 -0.6757 -0.2670
  171SAPS   H7X19444   3.601   4.481   5.427 -0.4719 -0.3474  0.6876
  171SAPS   H7Y19445   3.572   4.653   5.441  1.0449 -1.6897  0.1890
  171SAPS   C3819446   3.454   4.547   5.295  0.4427 -0.4476  0.1697
  171SAPS   H8X19447   3.529   4.571   5.217  2.2454 -0.0817  1.9289
  171SAPS   H8Y19448   3.385   4.634   5.302  0.3087 -0.5900  0.7021
  171SAPS   C3919449   3.375   4.426   5.271 -0.2996  0.2283 -0.4330
  171SAPS   H9X19450   3.284   4.435   5.333 -1.6628  0.4150 -2.3544
  171SAPS   H9Y19451   3.416   4.328   5.303 -0.0904  0.8548  1.2990
  171SAPS  C31019452   3.320   4.414   5.126 -0.9455  0.1908  0.2718
  171SAPS  H10X19453   3.412   4.386   5.070  2.3938  5.0715  2.6217
  171SAPS  H10Y19454   3.300   4.518   5.094  0.9897  0.0351 -1.6969
  171SAPS  C31119455   3.201   4.323   5.118 -0.3656 -0.1428 -0.4228
  171SAPS  H11X19456   3.129   4.357   5.194 -0.7069 -1.6544 -0.0348
  171SAPS  H11Y19457   3.222   4.217   5.143 -1.5557 -0.3606 -0.3295
  171SAPS  C31219458   3.133   4.333   4.983  0.4484 -0.0879  0.1620
  171SAPS  H12X19459   3.139   4.439   4.950  0.9924  0.5458  2.1726
  171SAPS  H12Y19460   3.025   4.312   4.997  0.4502  0.7980  1.7229
  171SAPS  C31319461   3.196   4.245   4.876  0.9233 -0.2847  0.0062
  171SAPS  H13X19462   3.177   4.138   4.900  0.3844 -0.5093 -1.3252
  171SAPS  H13Y19463   3.304   4.269   4.885  0.5041  1.0306  2.1238
  171SAPS  C31419464   3.152   4.280   4.738  0.0085  0.1937 -0.6764
  171SAPS  H14X19465   3.145   4.390   4.725 -0.2377  0.3967  0.9993
  171SAPS  H14Y19466   3.045   4.254   4.721 -0.1015  1.6134 -2.4263
  171SAPS  C31519467   3.226   4.219   4.624  0.1589  0.1417 -0.5883
  171SAPS  H15X19468   3.187   4.115   4.617 -0.4634  0.2918  0.4556
  171SAPS  H15Y19469   3.333   4.205   4.650 -0.2188  1.8293  2.2707
  171SAPS  C31619470   3.196   4.268   4.483 -0.9104 -0.0425  0.5537
  171SAPS  H16X19471   3.260   4.358   4.470 -0.5106 -0.5588 -1.3227
  171SAPS  H16Y19472   3.087   4.289   4.477 -0.3214  3.1267 -1.2261
  171SAPS  C31719473   3.256   4.171   4.378  0.0592 -0.7362 -0.3356
  171SAPS  H17X19474   3.342   4.109   4.410  0.7883 -1.6250 -3.6468
  171SAPS  H17Y19475   3.286   4.223   4.285 -0.3987 -0.9496 -0.6109
  171SAPS  C31819476   3.146   4.068   4.341 -0.6033  0.1561  0.4206
  171SAPS  H18X19477   3.128   4.002   4.429  4.4760 -1.5536  0.4960
  171SAPS  H18Y19478   3.166   4.007   4.250 -1.7784  1.7271 -0.9658
  171SAPS  H18Z19479   3.052   4.125   4.325 -0.3939  0.4581  0.2730
  172SAPS     N19480   2.357   3.757   6.702  0.6122  0.0272 -0.1587
  172SAPS   HN119481   2.341   3.776   6.803 -0.3863 -1.6613  0.0418
  172SAPS   HN219482   2.451   3.715   6.687  0.4449  0.1335 -1.6564
  172SAPS   HN319483   2.355   3.842   6.643  1.8681  0.3064  0.1747
  172SAPS   C1219484   2.248   3.666   6.643  0.5589 -0.3729 -0.4114
  172SAPS  H12A19485   2.273   3.633   6.543 -2.8964  0.3929 -1.6609
  172SAPS   C1319486   2.219   3.544   6.736  0.0955  0.0281  0.1817
  172SAPS  O13A19487   2.282   3.535   6.842 -0.0036 -0.4551 -0.4651
  172SAPS  O13B19488   2.147   3.453   6.686 -0.0493 -0.7690 -0.0354
  172SAPS   C1119489   2.122   3.754   6.624  0.7814 -0.5984 -0.0772
  172SAPS  H11A19490   2.052   3.693   6.562 -0.6452 -1.5347  2.3363
  172SAPS  H11B19491   2.157   3.838   6.560  1.5046 -0.6083  0.3014
  172SAPS     P19492   1.911   3.833   6.759  0.0867  0.0407  0.1646
  172SAPS   O1319493   1.826   3.724   6.723  0.0044  0.0614  0.4107
  172SAPS   O1419494   1.894   3.897   6.891 -0.1160 -0.2769 -0.1027
  172SAPS   O1219495   2.056   3.784   6.745 -0.2037  0.4569  0.2441
  172SAPS   O1119496   1.910   3.943   6.649 -0.2695 -0.0504 -0.3064
  172SAPS    C119497   1.792   3.968   6.570 -0.1476  0.6285 -0.5881
  172SAPS    HA19498   1.709   3.906   6.609  2.0321 -1.6207  0.8132
  172SAPS    HB19499   1.774   4.076   6.584 -0.4663  0.4131  0.7973
  172SAPS    C219500   1.819   3.948   6.419 -0.3699  0.7404  0.7393
  172SAPS    HS19501   1.754   3.995   6.343  1.4395  1.1274 -0.6146
  172SAPS   O2119502   1.820   3.806   6.393 -0.1687 -0.0379 -0.7693
  172SAPS   C2119503   1.706   3.749   6.400  0.5393  0.6909 -0.1677
  172SAPS   O2219504   1.599   3.807   6.408 -0.4515  0.0590  0.0142
  172SAPS   C2219505   1.717   3.596   6.387 -0.0764  0.1633  0.4436
  172SAPS   H2R19506   1.813   3.560   6.430 -0.4784 -2.2692 -0.5055
  172SAPS   H2S19507   1.651   3.556   6.467 -0.0037  0.6772  0.7664
  172SAPS    C319508   1.956   4.012   6.389 -0.7185 -0.2802  0.2649
  172SAPS    HX19509   2.037   3.979   6.457 -0.0427 -0.7229 -0.7315
  172SAPS    HY19510   1.949   4.121   6.411  1.9292 -0.0821  0.4074
  172SAPS   O3119511   1.988   3.999   6.248  0.7362  0.4449 -0.3104
  172SAPS   C3119512   2.072   3.896   6.227 -0.2260 -0.3349  0.0370
  172SAPS   O3219513   2.121   3.828   6.317  0.5146 -0.3092  0.4037
  172SAPS   C3219514   2.084   3.885   6.075 -0.0488 -0.1375  1.1351
  172SAPS   H2X19515   2.164   3.811   6.055  1.7824  1.8216  0.9528
  172SAPS   H2Y19516   2.113   3.987   6.042 -0.6167 -0.6488 -1.1638
  172SAPS   C2319517   1.684   3.544   6.254 -0.0830  0.4139  0.3068
  172SAPS   H3R19518   1.759   3.593   6.188 -0.2661 -1.0523 -1.0433
  172SAPS   H3S19519   1.580   3.572   6.226 -0.4747  0.6169  1.8391
  172SAPS   C2419520   1.696   3.394   6.235 -0.1528  0.2699 -0.6264
  172SAPS   H4R19521   1.628   3.333   6.297 -1.5741  1.6105 -0.8102
  172SAPS   H4S19522   1.800   3.367   6.262  0.0929  0.5657 -1.2557
  172SAPS   C2519523   1.667   3.362   6.086  0.8151  0.1523 -0.1585
  172SAPS   H5R19524   1.563   3.351   6.054  1.0228  1.1325 -1.2315
  172SAPS   C2619525   1.761   3.333   5.997 -0.1722  0.1587  0.4244
  172SAPS   H6R19526   1.739   3.299   5.895 -2.0545  1.6838  0.2638
  172SAPS   C2719527   1.913   3.332   6.012 -0.6092  0.3696  0.1629
  172SAPS   H7R19528   1.936   3.423   6.071  0.3026  1.9474 -2.4183
  172SAPS   H7S19529   1.968   3.357   5.918 -0.4774 -2.3828 -0.5781
  172SAPS   C2819530   1.970   3.197   6.072  0.5686 -0.4769 -0.3404
  172SAPS   H8R19531   1.984   3.204   6.181 -2.5127 -1.7555  0.2615
  172SAPS   C2919532   2.000   3.089   6.002 -0.1458  0.3046 -0.3437
  172SAPS   H9R19533   2.048   3.004   6.053 -0.1769 -0.2701 -1.2600
  172SAPS  C21019534   1.987   3.073   5.851 -0.5030  0.4762  0.2415
  172SAPS  H10R19535   1.900   3.129   5.812  0.2845  2.2327  0.9183
  172SAPS  H10S19536   1.959   2.968   5.827 -1.2294  1.0706 -1.7877
  172SAPS  C21119537   2.108   3.107   5.772 -0.4389  0.1462  0.0794
  172SAPS  H11R19538   2.199   3.049   5.793 -1.0355  0.0364  2.6823
  172SAPS  C21219539   2.107   3.192   5.665  0.4431  0.3598 -0.2043
  172SAPS  H12R19540   2.201   3.223   5.618 -0.9718  4.0180 -0.9728
  172SAPS  C21319541   1.993   3.279   5.618 -0.0915  0.6527 -0.4412
  172SAPS  H13R19542   2.011   3.380   5.662 -0.6973 -1.2669  4.9184
  172SAPS  H13S19543   1.894   3.254   5.660  0.0982  2.3694  1.1784
  172SAPS  C21419544   1.990   3.287   5.468  0.5090 -0.2287  0.4491
  172SAPS  H14R19545   2.080   3.254   5.414  2.3616  1.4670  2.3271
  172SAPS  C21519546   1.893   3.353   5.403 -0.8443 -1.2297  0.1814
  172SAPS  H15R19547   1.878   3.343   5.295 -2.1532  0.3412  0.1760
  172SAPS  C21619548   1.778   3.426   5.472  0.5072  0.7116  0.4267
  172SAPS  H16R19549   1.782   3.535   5.452  1.0927  0.6894  0.4150
  172SAPS  H16S19550   1.793   3.415   5.581 -0.3209  1.8183  0.6741
  172SAPS  C21719551   1.635   3.361   5.441 -0.5575 -0.1568  0.8856
  172SAPS  H17R19552   1.662   3.256   5.419  1.2441  0.3518  0.4894
  172SAPS  H17S19553   1.594   3.415   5.354 -0.8087 -1.5496  0.1085
  172SAPS  C21819554   1.541   3.381   5.557  0.6096 -0.0050 -0.1423
  172SAPS  H18R19555   1.542   3.488   5.587  1.1135  0.6106 -2.2133
  172SAPS  H18S19556   1.584   3.320   5.640  0.3228 -1.3838 -0.9702
  172SAPS  C21919557   1.394   3.344   5.534  0.0019 -0.2158 -0.0416
  172SAPS  H19R19558   1.335   3.364   5.626  0.5719  1.5262 -0.0309
  172SAPS  H19S19559   1.388   3.235   5.513 -0.3696 -0.7417  2.4810
  172SAPS  C22019560   1.320   3.418   5.423 -0.4285 -0.4598  0.5015
  172SAPS  H20R19561   1.218   3.377   5.411 -1.3405  1.8730 -0.2504
  172SAPS  H20S19562   1.376   3.396   5.330  0.0821 -0.0782  0.7162
  172SAPS  H20T19563   1.318   3.528   5.433  0.1732 -0.2828 -1.1082
  172SAPS   C3319564   1.950   3.855   6.001  0.4327  0.2854  0.0790
  172SAPS   H3X19565   1.877   3.937   6.015  1.4244  0.9837  1.4235
  172SAPS   H3Y19566   1.908   3.761   6.041  1.5976 -0.1406  0.3473
  172SAPS   C3419567   1.970   3.839   5.850  0.5360 -0.3195 -0.1242
  172SAPS   H4X19568   2.014   3.739   5.830 -0.1550 -0.3649 -1.5302
  172SAPS   H4Y19569   2.042   3.915   5.813 -0.1218  0.4067  0.0782
  172SAPS   C3519570   1.835   3.845   5.762 -0.0477  0.3645 -0.8024
  172SAPS   H5X19571   1.788   3.945   5.751 -0.9762 -0.1452 -1.6480
  172SAPS   H5Y19572   1.758   3.773   5.798  0.3771 -1.2701 -2.9432
  172SAPS   C3619573   1.851   3.797   5.615 -0.1471  0.0407  0.5419
  172SAPS   H6X19574   1.751   3.761   5.581 -0.2930  0.1877  0.8117
  172SAPS   H6Y19575   1.914   3.705   5.615  0.9347  0.7638  0.9052
  172SAPS   C3719576   1.915   3.906   5.529  0.0571  0.5593  0.1535
  172SAPS   H7X19577   2.012   3.931   5.576  0.2523 -0.2788  0.2211
  172SAPS   H7Y19578   1.844   3.989   5.514 -1.5665 -0.8626 -0.4338
  172SAPS   C3819579   1.948   3.837   5.394  0.4648  0.4742 -0.4572
  172SAPS   H8X19580   1.860   3.772   5.373  0.2613 -1.5436  4.9776
  172SAPS   H8Y19581   2.037   3.771   5.406 -0.7759 -1.1617  0.2343
  172SAPS   C3919582   1.993   3.929   5.282  0.4629  0.5744 -0.8006
  172SAPS   H9X19583   2.074   3.992   5.323  0.3204  0.4625 -0.3314
  172SAPS   H9Y19584   1.901   3.986   5.257  1.0972  1.7017 -0.6140
  172SAPS  C31019585   2.036   3.850   5.159  0.6575 -0.1742 -0.6504
  172SAPS  H10X19586   1.965   3.764   5.155 -0.1131  0.4439 -0.5317
  172SAPS  H10Y19587   2.138   3.813   5.181 -1.0032 -5.6229 -0.6277
  172SAPS  C31119588   2.035   3.932   5.032 -0.3053 -0.1915  0.0454
  172SAPS  H11X19589   2.075   4.034   5.050  1.0269 -1.0454  2.4123
  172SAPS  H11Y19590   1.929   3.944   5.002 -1.3267 -2.9901  2.0672
  172SAPS  C31219591   2.092   3.876   4.903  0.7213 -0.4015 -0.0209
  172SAPS  H12X19592   2.058   3.940   4.819 -0.5821  0.5249  1.1698
  172SAPS  H12Y19593   2.043   3.778   4.883  1.1188 -0.5793 -0.1379
  172SAPS  C31319594   2.245   3.873   4.905  0.0092 -0.0409 -0.5330
  172SAPS  H13X19595   2.273   3.809   4.991  1.8610  0.0231 -1.0487
  172SAPS  H13Y19596   2.287   3.971   4.935  1.6884 -1.1606  1.0033
  172SAPS  C31419597   2.315   3.831   4.775  0.0488 -0.4344  0.5435
  172SAPS  H14X19598   2.275   3.893   4.691 -0.9681 -1.3274  0.3440
  172SAPS  H14Y19599   2.294   3.723   4.760  0.6323 -0.6657  1.3739
  172SAPS  C31519600   2.471   3.844   4.772  1.0588 -0.9001 -0.5094
  172SAPS  H15X19601   2.502   3.776   4.689 -1.2502 -0.3978 -1.8720
  172SAPS  H15Y19602   2.500   3.810   4.874 -0.6053 -0.0262  0.2954
  172SAPS  C31619603   2.518   3.993   4.764  0.3944  0.3113  0.2456
  172SAPS  H16X19604   2.463   4.032   4.676  0.3576  0.2539  0.2426
  172SAPS  H16Y19605   2.474   4.055   4.845 -0.1834 -1.0928  1.0337
  172SAPS  C31719606   2.673   4.007   4.781 -0.1865  0.5024 -0.2042
  172SAPS  H17X19607   2.718   3.944   4.701  0.5817 -2.2555  2.2107
  172SAPS  H17Y19608   2.711   3.969   4.878  3.4954  2.3654 -0.7693
  172SAPS  C31819609   2.721   4.148   4.765 -0.8365  0.6594 -0.0181
  172SAPS  H18X19610   2.708   4.205   4.860  3.3817 -0.4092  1.4483
  172SAPS  H18Y19611   2.654   4.190   4.688 -0.8024 -0.1628 -0.5055
  172SAPS  H18Z19612   2.829   4.154   4.738 -0.0559 -0.8491  2.3969
  173SAPS     N19613   3.871   2.923   2.138  0.1506  0.2953 -0.0516
  173SAPS   HN119614   3.883   2.962   2.233  2.1960 -1.4918  0.5128
  173SAPS   HN219615   3.782   2.963   2.104  0.2984  1.9890  1.4512
  173SAPS   HN319616   3.872   2.819   2.141 -0.2522  0.3164  1.5873
  173SAPS   C1219617   3.996   2.959   2.057 -0.1281  0.0284 -0.1701
  173SAPS  H12A19618   4.013   2.895   1.972  0.6090  0.2115 -0.1673
  173SAPS   C1319619   3.996   3.105   2.015  0.0892  0.7087 -0.0140
  173SAPS  O13A19620   3.904   3.181   2.050 -0.2686  0.1171 -0.0598
  173SAPS  O13B19621   4.086   3.145   1.937  0.0938 -0.1797 -0.0989
  173SAPS   C1119622   4.114   2.940   2.157  0.3905 -0.3421  0.3941
  173SAPS  H11A19623   4.202   2.948   2.090 -0.4532 -1.3976 -0.9077
  173SAPS  H11B19624   4.115   2.832   2.184  1.8355 -0.2800  0.6811
  173SAPS     P19625   4.238   3.112   2.312 -0.1450  0.0620 -0.1905
  173SAPS   O1319626   4.355   3.049   2.260 -0.1653  0.2346  0.2580
  173SAPS   O1419627   4.213   3.259   2.288 -0.1269 -0.2289 -0.7144
  173SAPS   O1219628   4.109   3.025   2.275  0.1218  0.2081  0.0890
  173SAPS   O1119629   4.239   3.081   2.468 -0.5834 -0.2151 -0.2715
  173SAPS    C119630   4.124   3.022   2.531  0.1913  0.0975  0.1965
  173SAPS    HA19631   4.029   3.076   2.507  0.1692 -0.5917 -1.3822
  173SAPS    HB19632   4.114   2.915   2.504 -0.9069  0.6325 -1.7149
  173SAPS    C219633   4.135   3.022   2.686 -0.3584 -0.9495  0.2175
  173SAPS    HS19634   4.224   2.960   2.713 -0.0913 -2.0830 -2.8557
  173SAPS   O2119635   4.012   2.965   2.736  0.4053 -0.3445 -0.1742
  173SAPS   C2119636   4.021   2.830   2.737  0.4378  0.0505 -0.4457
  173SAPS   O2219637   4.118   2.757   2.712  0.2975 -0.5493 -0.4385
  173SAPS   C2219638   3.892   2.766   2.780  0.7650  0.2615 -0.7133
  173SAPS   H2R19639   3.819   2.812   2.710 -1.2231  1.6419  2.0892
  173SAPS   H2S19640   3.914   2.660   2.756  3.5267  0.5408  0.2267
  173SAPS    C319641   4.159   3.168   2.728 -0.1460 -0.1685  0.2178
  173SAPS    HX19642   4.066   3.223   2.702 -0.5371 -0.8289  0.2075
  173SAPS    HY19643   4.247   3.215   2.680  0.6235 -0.5312  1.2266
  173SAPS   O3119644   4.174   3.178   2.873  0.0240  0.4527  0.0541
  173SAPS   C3119645   4.295   3.149   2.920  0.2796  0.8254  0.0624
  173SAPS   O3219646   4.391   3.106   2.860  0.1677  0.7728  0.8793
  173SAPS   C3219647   4.295   3.163   3.072  0.7798  0.1341  0.5637
  173SAPS   H2X19648   4.196   3.129   3.106  0.1863  0.6886 -0.5328
  173SAPS   H2Y19649   4.303   3.267   3.111  0.9168  0.4314 -0.2353
  173SAPS   C2319650   3.863   2.800   2.928 -1.2271 -0.7557  0.2174
  173SAPS   H3R19651   3.755   2.829   2.930 -0.4838  2.4110  0.4302
  173SAPS   H3S19652   3.913   2.896   2.953  0.6904 -2.0635  1.5989
  173SAPS   C2419653   3.889   2.683   3.026  0.7802  0.2011  0.5038
  173SAPS   H4R19654   3.994   2.648   3.016  0.2582 -2.0302  2.0309
  173SAPS   H4S19655   3.821   2.610   2.977  1.7188  0.6782 -1.6123
  173SAPS   C2519656   3.851   2.723   3.165  0.1930  0.9781  0.2857
  173SAPS   H5R19657   3.742   2.726   3.182  0.3817  0.3909  1.7530
  173SAPS   C2619658   3.927   2.764   3.266 -0.5444 -1.0367  0.2258
  173SAPS   H6R19659   3.882   2.791   3.363  1.4790  0.6345  0.7735
  173SAPS   C2719660   4.078   2.782   3.267 -0.4402  0.3845  0.1800
  173SAPS   H7R19661   4.097   2.836   3.362 -1.5221 -0.4107  0.8669
  173SAPS   H7S19662   4.104   2.856   3.188 -1.5538 -0.0488 -0.6220
  173SAPS   C2819663   4.162   2.656   3.256  0.3603  0.3502 -0.9057
  173SAPS   H8R19664   4.215   2.642   3.161  2.0656 -2.0867  0.2959
  173SAPS   C2919665   4.186   2.570   3.350 -0.2299 -0.1705 -0.3101
  173SAPS   H9R19666   4.254   2.487   3.329 -0.1781  0.4700 -3.1355
  173SAPS  C21019667   4.112   2.570   3.480 -0.2190 -0.0077 -0.3434
  173SAPS  H10R19668   4.055   2.664   3.496  1.6166  0.9130  1.2774
  173SAPS  H10S19669   4.189   2.565   3.560  0.6452 -0.1033 -1.1563
  173SAPS  C21119670   4.016   2.459   3.501  0.6287 -0.1512 -0.4436
  173SAPS  H11R19671   4.016   2.375   3.430  0.8454 -3.0001  2.6557
  173SAPS  C21219672   3.952   2.443   3.617 -0.8442  0.0728 -0.8608
  173SAPS  H12R19673   3.890   2.354   3.634  2.4225 -2.5107 -1.5403
  173SAPS  C21319674   3.972   2.525   3.742 -0.5932 -0.0065 -0.4439
  173SAPS  H13R19675   3.875   2.552   3.788 -0.5195 -0.8670  0.2312
  173SAPS  H13S19676   4.015   2.628   3.732 -1.3457  0.2142 -1.5886
  173SAPS  C21419677   4.063   2.454   3.846  0.1713 -0.5493 -0.1280
  173SAPS  H14R19678   4.129   2.379   3.801 -0.3268 -0.7097 -0.5861
  173SAPS  C21519679   4.078   2.484   3.977 -0.0622 -0.4787  0.1860
  173SAPS  H15R19680   4.172   2.448   4.023  0.5808 -1.0777 -1.5110
  173SAPS  C21619681   4.006   2.581   4.063  0.3729  0.5485  0.0028
  173SAPS  H16R19682   3.942   2.648   4.003  0.9010 -0.2663 -1.5063
  173SAPS  H16S19683   4.079   2.641   4.121 -2.3098  0.2056  4.1804
  173SAPS  C21719684   3.906   2.524   4.175 -0.2596  0.2118 -0.9565
  173SAPS  H17R19685   3.962   2.471   4.254 -1.1424 -3.6142 -2.6965
  173SAPS  H17S19686   3.835   2.452   4.129 -0.3180  0.4724 -1.2806
  173SAPS  C21819687   3.828   2.645   4.251 -0.3885 -0.0993 -0.1858
  173SAPS  H18R19688   3.732   2.673   4.203 -0.5066  4.3517  2.1171
  173SAPS  H18S19689   3.894   2.731   4.229  0.6743 -1.1354 -1.1147
  173SAPS  C21919690   3.801   2.614   4.404  0.4160 -0.6305 -0.2565
  173SAPS  H19R19691   3.870   2.671   4.469  1.3309 -0.1951 -1.5641
  173SAPS  H19S19692   3.834   2.508   4.411  0.4226 -0.6327 -0.3181
  173SAPS  C22019693   3.651   2.630   4.448  0.2657  0.1110  1.0841
  173SAPS  H20R19694   3.648   2.617   4.559  1.5417  0.5788  1.1953
  173SAPS  H20S19695   3.585   2.556   4.398  1.7671  0.1124 -1.0286
  173SAPS  H20T19696   3.606   2.725   4.413  0.5530 -0.5083 -1.0822
  173SAPS   C3319697   4.418   3.089   3.142  0.0967 -0.0014  0.4128
  173SAPS   H3X19698   4.502   3.150   3.103 -0.4694  0.1810 -0.5544
  173SAPS   H3Y19699   4.421   2.982   3.112  0.4799  0.0041  0.4289
  173SAPS   C3419700   4.403   3.106   3.293  0.1010 -0.0604  0.2591
  173SAPS   H4X19701   4.392   3.211   3.327  3.2464  0.0951  1.0954
  173SAPS   H4Y19702   4.502   3.079   3.336  1.3185  0.8256 -1.8993
  173SAPS   C3519703   4.301   3.012   3.362 -0.0266 -0.3942 -0.0686
  173SAPS   H5X19704   4.333   2.906   3.372  0.5638 -0.9135 -5.0057
  173SAPS   H5Y19705   4.203   3.011   3.310  1.0443 -1.1831 -2.1783
  173SAPS   C3619706   4.262   3.053   3.500  0.2413  0.0337 -0.0740
  173SAPS   H6X19707   4.182   2.982   3.531  0.8900 -1.2091 -1.1412
  173SAPS   H6Y19708   4.220   3.156   3.497  2.6633  1.0937 -0.6158
  173SAPS   C3719709   4.380   3.049   3.594  0.0246 -0.1191 -0.2269
  173SAPS   H7X19710   4.456   3.116   3.547 -0.0292  1.9496  2.3882
  173SAPS   H7Y19711   4.404   2.941   3.594 -1.9725 -0.6116 -1.2398
  173SAPS   C3819712   4.348   3.106   3.734  0.5089  0.2106  0.2913
  173SAPS   H8X19713   4.316   3.212   3.726  2.0915  0.6263 -1.4248
  173SAPS   H8Y19714   4.444   3.103   3.790  2.2381 -2.2077 -2.5125
  173SAPS   C3919715   4.233   3.037   3.817 -0.4203  0.2268  0.1980
  173SAPS   H9X19716   4.141   3.084   3.778 -1.1600 -2.2483 -1.2630
  173SAPS   H9Y19717   4.241   3.078   3.920 -0.4146  0.3897  0.1326
  173SAPS  C31019718   4.222   2.891   3.814 -0.5122 -0.2242 -0.1049
  173SAPS  H10X19719   4.236   2.861   3.708  3.2432  1.0428 -0.1263
  173SAPS  H10Y19720   4.120   2.860   3.844 -1.1569  1.6838 -0.2152
  173SAPS  C31119721   4.325   2.840   3.915  0.0760 -0.8522  0.7786
  173SAPS  H11X19722   4.427   2.880   3.897 -0.7366  0.7026 -0.6834
  173SAPS  H11Y19723   4.324   2.730   3.904 -0.0744 -0.7967  0.2229
  173SAPS  C31219724   4.278   2.875   4.062 -0.2255  0.6487  0.5858
  173SAPS  H12X19725   4.168   2.863   4.062 -0.1570 -0.1606 -0.6701
  173SAPS  H12Y19726   4.307   2.978   4.093  1.6627  0.5148 -0.5824
  173SAPS  C31319727   4.344   2.773   4.161  0.5648  0.0654  0.4441
  173SAPS  H13X19728   4.454   2.791   4.165  0.4372  0.9103  0.2829
  173SAPS  H13Y19729   4.332   2.671   4.119 -0.0052 -0.1060  1.0180
  173SAPS  C31419730   4.287   2.790   4.299  0.1534  0.3681 -0.2055
  173SAPS  H14X19731   4.176   2.798   4.294 -0.0412 -2.0355 -1.0786
  173SAPS  H14Y19732   4.325   2.882   4.349 -2.2285  1.4146 -0.1689
  173SAPS  C31519733   4.307   2.666   4.389 -0.1141  0.2911  0.1647
  173SAPS  H15X19734   4.415   2.638   4.390  0.5636  2.6461 -0.6332
  173SAPS  H15Y19735   4.263   2.583   4.329  2.2491  0.9440 -2.7175
  173SAPS  C31619736   4.250   2.681   4.527  0.5747 -0.5038  0.3431
  173SAPS  H16X19737   4.140   2.691   4.509  0.4997 -1.5284  0.1772
  173SAPS  H16Y19738   4.296   2.768   4.578  0.1971 -0.8125  1.2235
  173SAPS  C31719739   4.276   2.558   4.604 -0.1263 -0.4694  0.1902
  173SAPS  H17X19740   4.381   2.520   4.597  0.0917  0.1877 -0.1970
  173SAPS  H17Y19741   4.226   2.470   4.557  0.8175 -1.7898  1.5567
  173SAPS  C31819742   4.237   2.571   4.758 -0.1181  0.4102 -0.1048
  173SAPS  H18X19743   4.127   2.575   4.772 -0.3019 -2.8478  0.2162
  173SAPS  H18Y19744   4.284   2.661   4.803 -1.5265  0.5983  1.0689
  173SAPS  H18Z19745   4.275   2.480   4.809 -0.9192 -2.6052 -4.3651
  174SAPS     N19746   0.269   0.427   2.062  0.3133 -0.0004 -0.1115
  174SAPS   HN119747   0.356   0.372   2.048 -0.0804 -0.7016  0.1400
  174SAPS   HN219748   0.240   0.500   1.993 -1.1253  1.7872  2.2293
  174SAPS   HN319749   0.280   0.475   2.153  1.7301 -0.8432  0.1929
  174SAPS   C1219750   0.156   0.332   2.063 -0.1025  0.7493  0.0945
  174SAPS  H12A19751   0.067   0.389   2.088  0.1926  1.2033  0.1216
  174SAPS   C1319752   0.113   0.271   1.923  0.4319  0.7645 -0.1061
  174SAPS  O13A19753   0.181   0.295   1.821  0.4486  0.2955  0.0047
  174SAPS  O13B19754   0.029   0.175   1.929  0.2393 -0.1427 -0.4384
  174SAPS   C1119755   0.170   0.225   2.177 -0.0148  0.3168  0.2495
  174SAPS  H11A19756   0.269   0.186   2.146 -0.3521  0.8466 -1.6595
  174SAPS  H11B19757   0.091   0.149   2.161  0.6451 -0.2288 -0.4960
  174SAPS     P19758   0.057   0.300   2.402 -0.2412  0.2773  0.1097
  174SAPS   O1319759  -0.032   0.406   2.346  0.6966  0.4819  0.0368
  174SAPS   O1419760   0.003   0.164   2.424  0.1629  0.2701  0.1534
  174SAPS   O1219761   0.180   0.281   2.302 -0.3176  0.4451  0.1922
  174SAPS   O1119762   0.115   0.346   2.541 -0.3395 -0.0867  0.5158
  174SAPS    C119763   0.192   0.463   2.554  0.2579 -1.0319 -0.2542
  174SAPS    HA19764   0.281   0.440   2.492  1.0598  0.8834  0.1019
  174SAPS    HB19765   0.139   0.548   2.505  0.7035 -0.4495  0.2558
  174SAPS    C219766   0.232   0.504   2.701  0.2114 -0.1596 -0.3465
  174SAPS    HS19767   0.329   0.557   2.708  0.3610 -0.6168  1.5128
  174SAPS   O2119768   0.232   0.389   2.789 -0.9725  0.2010  0.4593
  174SAPS   C2119769   0.333   0.304   2.768  0.3375  0.2355  0.2403
  174SAPS   O2219770   0.430   0.317   2.697 -0.3453 -0.2405 -0.2630
  174SAPS   C2219771   0.310   0.184   2.852  0.0222  0.3336 -0.1940
  174SAPS   H2R19772   0.377   0.193   2.941  0.5654 -1.1460 -0.4359
  174SAPS   H2S19773   0.205   0.170   2.886  0.4222  2.4304  2.2334
  174SAPS    C319774   0.133   0.622   2.756 -0.4499 -0.3684 -0.5610
  174SAPS    HX19775   0.038   0.569   2.778 -0.6610 -0.3484 -1.3887
  174SAPS    HY19776   0.122   0.710   2.689  0.2017  1.0966  1.1763
  174SAPS   O3119777   0.173   0.666   2.887  0.1626 -0.3971 -0.3474
  174SAPS   C3119778   0.266   0.761   2.884 -0.1638 -0.2662 -0.3552
  174SAPS   O3219779   0.310   0.820   2.788 -0.5553  0.0593 -0.5886
  174SAPS   C3219780   0.311   0.783   3.023 -0.1766 -1.3441 -0.0818
  174SAPS   H2X19781   0.418   0.810   3.026 -1.1301  3.1911  1.3829
  174SAPS   H2Y19782   0.287   0.700   3.093 -1.0404 -0.5409  0.6122
  174SAPS   C2319783   0.369   0.067   2.782 -0.0990  0.6513  0.4133
  174SAPS   H3R19784   0.473   0.082   2.745 -0.2391 -0.0588 -0.3103
  174SAPS   H3S19785   0.302   0.035   2.699 -2.4115  0.2647  2.3141
  174SAPS   C2419786   0.384  -0.046   2.882 -0.0413  0.7040 -0.3612
  174SAPS   H4R19787   0.448  -0.017   2.967  0.9483 -1.2651 -0.3730
  174SAPS   H4S19788   0.439  -0.126   2.827 -3.6296 -1.3401 -1.3376
  174SAPS   C2519789   0.254  -0.104   2.933 -0.8437 -0.8221  0.3564
  174SAPS   H5R19790   0.184  -0.135   2.854 -1.1610  0.9452 -0.1039
  174SAPS   C2619791   0.223  -0.122   3.062  0.0906  0.1183  0.2125
  174SAPS   H6R19792   0.122  -0.157   3.089 -0.4831  3.9786  4.3660
  174SAPS   C2719793   0.308  -0.110   3.186 -0.7272 -0.6564  0.4106
  174SAPS   H7R19794   0.313  -0.000   3.203  3.0752 -0.6659  0.3009
  174SAPS   H7S19795   0.409  -0.154   3.169 -0.3362 -0.3670  1.8141
  174SAPS   C2819796   0.261  -0.175   3.312 -0.4684  0.4566 -0.4568
  174SAPS   H8R19797   0.174  -0.242   3.310 -0.2000  0.0073  1.2973
  174SAPS   C2919798   0.311  -0.152   3.435  0.1101 -1.0097  0.6779
  174SAPS   H9R19799   0.268  -0.201   3.524 -0.8487 -0.5760  0.4737
  174SAPS  C21019800   0.425  -0.059   3.460 -0.4539  0.0205  0.1759
  174SAPS  H10R19801   0.464  -0.006   3.371 -0.0791  0.4778  0.6046
  174SAPS  H10S19802   0.513  -0.122   3.485  1.0765  1.5140 -1.1695
  174SAPS  C21119803   0.392   0.044   3.569  0.8415  0.6662 -0.6207
  174SAPS  H11R19804   0.312   0.118   3.557  0.3477  0.4814  1.2751
  174SAPS  C21219805   0.463   0.079   3.675 -0.6529 -0.1830  0.3476
  174SAPS  H12R19806   0.419   0.152   3.745 -3.2918  0.0057 -1.3731
  174SAPS  C21319807   0.595   0.025   3.723 -0.2508 -0.2145  0.6606
  174SAPS  H13R19808   0.662   0.106   3.758 -1.0112  0.8298 -0.2621
  174SAPS  H13S19809   0.645  -0.021   3.635  0.1371 -0.7487  1.1475
  174SAPS  C21419810   0.580  -0.072   3.835  0.2066  0.0884 -0.1280
  174SAPS  H14R19811   0.475  -0.093   3.862 -0.5582  0.4623 -2.6181
  174SAPS  C21519812   0.673  -0.106   3.927  0.4672  0.3915  0.6148
  174SAPS  H15R19813   0.646  -0.185   3.998 -0.9601 -0.0234 -0.3298
  174SAPS  C21619814   0.821  -0.086   3.891 -0.1622  0.4362 -0.2671
  174SAPS  H16R19815   0.866  -0.030   3.976 -0.6902 -1.0268  1.0259
  174SAPS  H16S19816   0.839  -0.018   3.806 -0.5202 -1.5271 -1.9795
  174SAPS  C21719817   0.909  -0.211   3.864  0.7514 -0.4495 -0.2039
  174SAPS  H17R19818   0.908  -0.281   3.950  2.6271 -0.6661 -0.3342
  174SAPS  H17S19819   1.011  -0.169   3.853  0.3615  0.2927 -1.1210
  174SAPS  C21819820   0.873  -0.286   3.728  0.4119  0.2732  1.1372
  174SAPS  H18R19821   0.763  -0.296   3.712  0.8380 -0.2933 -2.0064
  174SAPS  H18S19822   0.909  -0.390   3.713 -1.3861  0.0579 -3.2275
  174SAPS  C21919823   0.920  -0.225   3.596  0.3923  0.4311  0.7752
  174SAPS  H19R19824   1.030  -0.219   3.610  0.2372 -0.4013  2.7219
  174SAPS  H19S19825   0.889  -0.119   3.585  2.4121  1.1739  1.8032
  174SAPS  C22019826   0.887  -0.309   3.470  0.8743 -0.0258 -0.3985
  174SAPS  H20R19827   0.964  -0.310   3.390 -0.1479  0.2500 -1.4235
  174SAPS  H20S19828   0.798  -0.268   3.417  2.0350  0.8754 -1.7079
  174SAPS  H20T19829   0.880  -0.419   3.485  0.3787 -0.0129 -0.5095
  174SAPS   C3319830   0.249   0.912   3.082  0.5349  0.0587 -0.4667
  174SAPS   H3X19831   0.141   0.886   3.094  0.3214  0.9192 -0.4068
  174SAPS   H3Y19832   0.258   0.994   3.007 -1.5177  1.6680  0.9103
  174SAPS   C3419833   0.302   0.961   3.221  0.2852 -0.9523  0.0365
  174SAPS   H4X19834   0.244   1.045   3.267 -1.3073 -1.7900 -0.3537
  174SAPS   H4Y19835   0.403   1.001   3.198 -0.1249  0.6663  0.8397
  174SAPS   C3519836   0.332   0.859   3.328  0.2614 -0.6943  0.1829
  174SAPS   H5X19837   0.406   0.785   3.289  0.1483  0.0859 -1.5784
  174SAPS   H5Y19838   0.242   0.798   3.353  0.4022 -0.1754  2.1797
  174SAPS   C3619839   0.390   0.917   3.464 -0.1431 -0.4160 -0.0694
  174SAPS   H6X19840   0.322   0.998   3.498  0.7833  0.5271 -0.4016
  174SAPS   H6Y19841   0.485   0.971   3.446  0.4164 -1.3670 -0.0437
  174SAPS   C3719842   0.418   0.812   3.573 -0.1538 -0.1611  0.5062
  174SAPS   H7X19843   0.488   0.741   3.525 -1.0931 -2.4942  2.3986
  174SAPS   H7Y19844   0.321   0.765   3.599 -0.2224 -0.2677  0.0754
  174SAPS   C3819845   0.498   0.875   3.692 -0.5605  0.5613  0.1763
  174SAPS   H8X19846   0.447   0.966   3.731  0.7474  0.5395  2.0379
  174SAPS   H8Y19847   0.600   0.910   3.664 -0.8758  1.7144  0.4360
  174SAPS   C3919848   0.527   0.763   3.799 -0.4321  0.5167  0.1340
  174SAPS   H9X19849   0.598   0.690   3.755 -0.2648  0.6361  0.2061
  174SAPS   H9Y19850   0.437   0.713   3.841 -1.0731  0.8925 -0.7543
  174SAPS  C31019851   0.592   0.817   3.932  0.1371 -0.5078  0.4847
  174SAPS  H10X19852   0.549   0.915   3.963 -1.9514 -0.4123 -2.2785
  174SAPS  H10Y19853   0.698   0.843   3.909 -0.1501 -0.3295 -0.7242
  174SAPS  C31119854   0.581   0.716   4.048 -0.0763  0.2166  0.2364
  174SAPS  H11X19855   0.572   0.618   3.996 -0.6006  1.4652 -2.1198
  174SAPS  H11Y19856   0.481   0.737   4.092 -1.2161  0.6564 -2.3853
  174SAPS  C31219857   0.696   0.721   4.152  0.0559  0.2416 -0.7514
  174SAPS  H12X19858   0.782   0.672   4.101  0.3587  0.6953 -0.6819
  174SAPS  H12Y19859   0.675   0.666   4.247  0.1420 -0.5801 -1.1999
  174SAPS  C31319860   0.731   0.865   4.200 -0.2636 -0.2212  0.1312
  174SAPS  H13X19861   0.638   0.913   4.238  0.1003 -0.0975  0.8827
  174SAPS  H13Y19862   0.770   0.917   4.110 -0.6882  0.5551  0.3894
  174SAPS  C31419863   0.830   0.878   4.309 -0.4396  0.2761  0.0701
  174SAPS  H14X19864   0.852   0.986   4.323 -1.7642  0.8794 -2.0301
  174SAPS  H14Y19865   0.922   0.819   4.290  0.0231  1.3812 -1.2607
  174SAPS  C31519866   0.767   0.831   4.443 -0.2420 -0.1231 -0.3548
  174SAPS  H15X19867   0.735   0.724   4.438 -0.9187  0.0742 -0.4125
  174SAPS  H15Y19868   0.671   0.887   4.454  0.3124  1.1404 -1.6963
  174SAPS  C31619869   0.844   0.860   4.568 -0.8056  0.7884 -0.0025
  174SAPS  H16X19870   0.895   0.957   4.550  1.5969 -0.0862  1.7058
  174SAPS  H16Y19871   0.923   0.784   4.584 -2.9961 -1.6098  0.0992
  174SAPS  C31719872   0.758   0.873   4.700  0.3751 -0.3212  0.2657
  174SAPS  H17X19873   0.685   0.950   4.668  1.2239  0.5736  0.4206
  174SAPS  H17Y19874   0.827   0.902   4.782  1.7460  0.6000 -1.1537
  174SAPS  C31819875   0.683   0.744   4.741 -0.4283 -0.5234  1.0508
  174SAPS  H18X19876   0.645   0.690   4.652 -1.6023  1.6958  0.1175
  174SAPS  H18Y19877   0.604   0.761   4.817  0.1763  0.4730  1.4882
  174SAPS  H18Z19878   0.762   0.686   4.794  0.7596 -0.0583 -0.1460
  175SAPS     N19879   5.428   0.447   1.944  0.7087 -0.1534 -0.4290
  175SAPS   HN119880   5.475   0.456   2.037  0.2217  0.5563 -0.2416
  175SAPS   HN219881   5.449   0.350   1.913  0.2180 -0.0297 -1.1776
  175SAPS   HN319882   5.475   0.503   1.870  0.9125 -1.3853 -1.2605
  175SAPS   C1219883   5.282   0.462   1.956  0.3544  0.1356  0.1838
  175SAPS  H12A19884   5.260   0.567   1.960 -0.4613 -0.0330  0.3513
  175SAPS   C1319885   5.199   0.404   1.832  0.4840 -0.5532 -0.7623
  175SAPS  O13A19886   5.262   0.380   1.727 -0.3251  0.1639 -0.3069
  175SAPS  O13B19887   5.075   0.421   1.838  0.1542 -0.2006  0.2367
  175SAPS   C1119888   5.236   0.401   2.092 -0.4536  0.3022  0.0028
  175SAPS  H11A19889   5.262   0.294   2.110  0.4453  0.4567 -0.3075
  175SAPS  H11B19890   5.126   0.400   2.107 -0.2335 -0.6377  1.7869
  175SAPS     P19891   5.233   0.587   2.275 -0.0672 -0.1630 -0.4701
  175SAPS   O1319892   5.323   0.677   2.348 -0.1671 -0.0952 -0.0483
  175SAPS   O1419893   5.136   0.654   2.188 -0.0006 -0.1934 -0.1737
  175SAPS   O1219894   5.304   0.474   2.197  0.0233  0.1678  0.8208
  175SAPS   O1119895   5.144   0.507   2.380 -0.0172 -0.3106 -0.0024
  175SAPS    C119896   5.207   0.420   2.471 -0.7481  0.4199 -0.1316
  175SAPS    HA19897   5.265   0.334   2.430  0.7836  2.1377 -1.7895
  175SAPS    HB19898   5.280   0.481   2.529 -1.0081  1.2180 -0.6234
  175SAPS    C219899   5.103   0.356   2.574  0.2726  0.2180 -0.3661
  175SAPS    HS19900   5.028   0.295   2.519  0.9031 -0.3193 -0.6407
  175SAPS   O2119901   5.039   0.458   2.654 -0.2440 -0.5498 -0.6238
  175SAPS   C2119902   4.934   0.416   2.714 -0.6348 -0.0515 -0.0338
  175SAPS   O2219903   4.891   0.300   2.702 -0.0278 -0.4640  0.2831
  175SAPS   C2219904   4.894   0.515   2.824 -0.3374  0.4896  0.3728
  175SAPS   H2R19905   4.990   0.524   2.880  0.4859 -0.4466 -0.8183
  175SAPS   H2S19906   4.881   0.615   2.778 -1.8599  0.6358  1.0734
  175SAPS    C319907   5.192   0.268   2.676 -0.4802 -0.3389  0.2952
  175SAPS    HX19908   5.245   0.192   2.614 -0.7071 -0.7566  0.6080
  175SAPS    HY19909   5.122   0.215   2.743  0.4950 -0.3142  1.3673
  175SAPS   O3119910   5.296   0.337   2.743 -0.0278  0.5069 -0.3763
  175SAPS   C3119911   5.263   0.393   2.860  0.2093 -0.0130 -0.8828
  175SAPS   O3219912   5.158   0.365   2.918 -0.0828  0.1648  0.5249
  175SAPS   C3219913   5.366   0.498   2.898  0.3340  0.1300  0.0142
  175SAPS   H2X19914   5.337   0.596   2.854 -1.4678 -0.1872  0.4074
  175SAPS   H2Y19915   5.453   0.469   2.837  1.2006  4.4297 -1.1598
  175SAPS   C2319916   4.767   0.475   2.904  0.2175  0.0273 -0.5542
  175SAPS   H3R19917   4.696   0.451   2.823  0.3575  0.7134 -0.8871
  175SAPS   H3S19918   4.709   0.551   2.960  1.0610 -0.0106  0.4167
  175SAPS   C2419919   4.796   0.364   3.012  0.2905  0.2996  0.6468
  175SAPS   H4R19920   4.845   0.271   2.975  0.8601  0.3946  1.1438
  175SAPS   H4S19921   4.697   0.325   3.044  0.9560 -1.1157  1.0771
  175SAPS   C2519922   4.861   0.409   3.142  0.3205 -0.0450 -0.3429
  175SAPS   H5R19923   4.966   0.378   3.153  0.0364 -0.6661  0.7015
  175SAPS   C2619924   4.804   0.470   3.246 -1.0714 -0.0634  0.2136
  175SAPS   H6R19925   4.862   0.487   3.338 -2.1822  1.9427  0.6153
  175SAPS   C2719926   4.662   0.523   3.263  0.4884 -0.7042  0.5735
  175SAPS   H7R19927   4.626   0.570   3.169 -2.2060 -2.4133  0.6538
  175SAPS   H7S19928   4.664   0.611   3.331  1.6250 -0.8153  0.6998
  175SAPS   C2819929   4.551   0.424   3.295  0.8211 -0.2712 -0.3717
  175SAPS   H8R19930   4.489   0.396   3.209 -1.3966  2.9576 -0.0117
  175SAPS   C2919931   4.514   0.382   3.416  0.1738  0.5997 -0.0122
  175SAPS   H9R19932   4.420   0.326   3.417 -1.0131  2.4945 -0.6877
  175SAPS  C21019933   4.574   0.425   3.548  0.4547 -0.4156 -0.6924
  175SAPS  H10R19934   4.551   0.531   3.567 -1.1222 -1.0762  1.3785
  175SAPS  H10S19935   4.683   0.423   3.525  0.7193  1.0565  0.3103
  175SAPS  C21119936   4.538   0.325   3.663 -0.3504 -0.3350  1.4941
  175SAPS  H11R19937   4.455   0.255   3.650 -1.1088  0.0196  3.9695
  175SAPS  C21219938   4.622   0.310   3.768 -0.2588 -0.1513 -0.7002
  175SAPS  H12R19939   4.582   0.243   3.846 -1.4990  1.5262  0.1625
  175SAPS  C21319940   4.741   0.392   3.802  0.1433 -0.0349  0.6868
  175SAPS  H13R19941   4.709   0.497   3.819  0.6091  0.4989 -1.5145
  175SAPS  H13S19942   4.803   0.399   3.711 -0.1645  0.0859  0.4847
  175SAPS  C21419943   4.819   0.325   3.908 -0.1373 -0.2285 -0.0512
  175SAPS  H14R19944   4.859   0.225   3.886  1.7361  0.6445 -0.8628
  175SAPS  C21519945   4.842   0.381   4.028 -0.0491 -0.4358  0.0900
  175SAPS  H15R19946   4.904   0.322   4.097 -0.6433 -3.1075 -1.5163
  175SAPS  C21619947   4.797   0.520   4.067  0.6295 -0.2160  0.6103
  175SAPS  H16R19948   4.724   0.564   3.996  0.6336  0.9241  1.3034
  175SAPS  H16S19949   4.882   0.591   4.059 -1.8361  3.1049  1.9275
  175SAPS  C21719950   4.723   0.538   4.198  0.2379  0.1350 -0.8518
  175SAPS  H17R19951   4.626   0.485   4.188  0.1359  0.2517 -0.5206
  175SAPS  H17S19952   4.688   0.640   4.222  1.5035  0.5363 -0.6019
  175SAPS  C21819953   4.800   0.486   4.316 -0.6986  0.2246  0.2236
  175SAPS  H18R19954   4.903   0.526   4.320 -0.4760 -0.3163 -0.0064
  175SAPS  H18S19955   4.805   0.375   4.313  1.5570  0.2772  0.3500
  175SAPS  C21919956   4.728   0.526   4.451  0.4660 -0.0423  0.3968
  175SAPS  H19R19957   4.625   0.485   4.447  0.2975  0.4843 -1.6366
  175SAPS  H19S19958   4.714   0.636   4.455 -0.5643 -0.1861  1.3508
  175SAPS  C22019959   4.793   0.473   4.576 -0.3384 -0.5325  0.0865
  175SAPS  H20R19960   4.725   0.482   4.663  1.0846 -3.3234  1.6435
  175SAPS  H20S19961   4.892   0.520   4.598 -1.4788  1.4348  1.2892
  175SAPS  H20T19962   4.807   0.363   4.587 -0.0890 -0.3099  2.3700
  175SAPS   C3319963   5.408   0.508   3.047 -0.4479  0.1658  0.2577
  175SAPS   H3X19964   5.495   0.578   3.045 -0.3168 -0.0164 -0.5423
  175SAPS   H3Y19965   5.440   0.413   3.094 -0.4508  0.0862  0.1004
  175SAPS   C3419966   5.308   0.566   3.134  0.1989 -0.4452 -0.3850
  175SAPS   H4X19967   5.226   0.496   3.162  0.4856 -1.5689 -2.2338
  175SAPS   H4Y19968   5.255   0.652   3.087  0.0449  0.9864  2.1877
  175SAPS   C3519969   5.365   0.627   3.262  0.1711  0.3019 -0.2879
  175SAPS   H5X19970   5.286   0.698   3.294 -0.9456 -0.8901 -0.2783
  175SAPS   H5Y19971   5.457   0.684   3.240 -0.5501  0.8845 -1.9397
  175SAPS   C3619972   5.403   0.534   3.377  0.3450 -0.1349  0.0534
  175SAPS   H6X19973   5.454   0.445   3.336  0.3752  0.2266 -0.7054
  175SAPS   H6Y19974   5.305   0.509   3.423 -0.1793  1.0270 -0.3875
  175SAPS   C3719975   5.484   0.607   3.488  0.1645 -0.3344  0.2998
  175SAPS   H7X19976   5.435   0.703   3.512 -0.6040 -0.1730 -1.7147
  175SAPS   H7Y19977   5.584   0.623   3.442  0.0429  2.4797  0.8663
  175SAPS   C3819978   5.494   0.527   3.623  0.4215 -0.6448 -1.1330
  175SAPS   H8X19979   5.533   0.426   3.597 -0.9652 -2.1253  2.0788
  175SAPS   H8Y19980   5.401   0.527   3.684  1.4177 -0.2232  0.4214
  175SAPS   C3919981   5.600   0.603   3.705 -0.0041  0.2564  0.1266
  175SAPS   H9X19982   5.578   0.712   3.700  0.7259  0.5729  2.4259
  175SAPS   H9Y19983   5.703   0.605   3.665 -0.8944  0.0009 -2.3413
  175SAPS  C31019984   5.610   0.562   3.855  0.2867  0.0238 -0.2151
  175SAPS  H10X19985   5.681   0.477   3.856 -1.4741 -1.5303  1.6199
  175SAPS  H10Y19986   5.513   0.536   3.902 -0.1601  0.4524 -0.8860
  175SAPS  C31119987   5.668   0.670   3.946 -0.7839  0.0256  0.4234
  175SAPS  H11X19988   5.589   0.744   3.974 -1.6050 -0.1167 -1.4234
  175SAPS  H11Y19989   5.752   0.725   3.898  0.0399 -1.8001 -0.3049
  175SAPS  C31219990   5.721   0.622   4.084 -0.2669  0.9893  0.3556
  175SAPS  H12X19991   5.763   0.520   4.070  0.2704  0.8149  2.7200
  175SAPS  H12Y19992   5.643   0.611   4.163  2.0658 -0.2105  2.6414
  175SAPS  C31319993   5.842   0.703   4.135  0.3177  0.0382 -0.6732
  175SAPS  H13X19994   5.800   0.805   4.153 -0.2163  0.2048 -2.6916
  175SAPS  H13Y19995   5.921   0.712   4.058 -0.8029  0.1112 -1.8602
  175SAPS  C31419996   5.912   0.651   4.261 -0.2816 -0.3814  0.1968
  175SAPS  H14X19997   5.940   0.544   4.247  0.9903  0.0712 -0.9690
  175SAPS  H14Y19998   5.847   0.651   4.351  1.2535  0.8430  1.3711
  175SAPS  C31519999   6.042   0.724   4.298 -0.2408  0.2708 -0.2418
  175SAPS  H15X20000   6.019   0.833   4.306  1.3273  0.5594  0.9543
  175SAPS  H15Y20001   6.118   0.709   4.219  1.7997 -0.9569  1.8128
  175SAPS  C31620002   6.104   0.670   4.425  0.5365 -0.0250 -0.2378
  175SAPS  H16X20003   6.206   0.712   4.440  1.1269 -1.9433  1.5174
  175SAPS  H16Y20004   6.128   0.562   4.410  3.9475  0.5288  0.5558
  175SAPS  C31720005   6.011   0.703   4.544 -0.5613 -0.6394 -0.1193
  175SAPS  H17X20006   5.913   0.650   4.544  0.0617 -2.2311 -4.6080
  175SAPS  H17Y20007   5.984   0.811   4.546 -2.0890 -1.0025  0.7687
  175SAPS  C31820008   6.076   0.673   4.677 -0.5989 -0.0308  0.3245
  175SAPS  H18X20009   6.184   0.694   4.691 -0.6913 -0.4117  1.8089
  175SAPS  H18Y20010   6.075   0.562   4.684 -0.2127  0.0109  1.1837
  175SAPS  H18Z20011   6.027   0.699   4.774  0.1237 -1.4661  1.1158
  176SAPS     N20012   5.329   6.353   2.222 -0.6938 -0.8529  0.3254
  176SAPS   HN120013   5.427   6.349   2.188 -0.7894  1.7293 -0.3978
  176SAPS   HN220014   5.334   6.409   2.309  2.7980  1.5020 -1.1503
  176SAPS   HN320015   5.291   6.260   2.250 -2.0568 -1.2810 -2.5677
  176SAPS   C1220016   5.250   6.415   2.114  0.0410 -0.2677 -0.6278
  176SAPS  H12A20017   5.155   6.443   2.158  0.0861  1.0091 -1.2840
  176SAPS   C1320018   5.295   6.548   2.049  0.1224 -0.1122 -0.1835
  176SAPS  O13A20019   5.399   6.600   2.097  0.1744 -0.2000 -0.3877
  176SAPS  O13B20020   5.229   6.605   1.961 -0.1600 -0.0741 -0.5306
  176SAPS   C1120021   5.231   6.310   2.005  0.5388  0.2678  0.4113
  176SAPS  H11A20022   5.329   6.276   1.966 -0.2194 -0.2271 -1.1408
  176SAPS  H11B20023   5.191   6.357   1.912 -0.6786 -0.3435  0.6107
  176SAPS     P20024   4.998   6.217   2.054 -0.0320 -0.1162  0.0818
  176SAPS   O1320025   4.954   6.351   2.013  0.3811 -0.3448 -0.2829
  176SAPS   O1420026   4.941   6.100   1.979 -0.2360  0.2134 -0.3721
  176SAPS   O1220027   5.157   6.199   2.043 -0.3049 -0.2594 -0.6769
  176SAPS   O1120028   4.960   6.188   2.205 -0.5368 -0.4114 -0.2254
  176SAPS    C120029   4.983   6.070   2.274  0.1772  0.2472  0.4442
  176SAPS    HA20030   4.999   5.985   2.204 -1.3509  0.2627  0.0560
  176SAPS    HB20031   5.061   6.086   2.352 -0.5930  2.3727  0.8503
  176SAPS    C220032   4.852   6.021   2.341 -0.0303 -0.4233  0.1140
  176SAPS    HS20033   4.770   6.019   2.266 -0.0122  3.1413 -0.1562
  176SAPS   O2120034   4.815   6.121   2.449  0.0264 -0.1825 -0.2342
  176SAPS   C2120035   4.686   6.113   2.487 -0.4957  0.1103 -0.4906
  176SAPS   O2220036   4.596   6.056   2.431  0.3335 -0.7225 -0.2097
  176SAPS   C2220037   4.681   6.175   2.628 -0.0922  0.5234 -0.2176
  176SAPS   H2R20038   4.786   6.199   2.654 -0.4580 -0.1008  2.0804
  176SAPS   H2S20039   4.626   6.272   2.625  0.6958  0.9686 -1.1937
  176SAPS    C320040   4.861   5.876   2.403 -0.9405 -0.0787  0.1733
  176SAPS    HX20041   4.948   5.821   2.360  1.3643  3.7572 -0.5803
  176SAPS    HY20042   4.768   5.817   2.389 -0.2172 -1.5374  1.2814
  176SAPS   O3120043   4.874   5.888   2.543  0.8324  0.2486 -0.3740
  176SAPS   C3120044   4.989   5.861   2.604  0.0047  0.1498 -0.0846
  176SAPS   O3220045   5.090   5.831   2.547 -0.2427 -0.0380 -0.5804
  176SAPS   C3220046   4.984   5.896   2.751  0.1696 -0.2049  0.7109
  176SAPS   H2X20047   4.894   5.840   2.786 -0.9432 -0.1635 -1.8552
  176SAPS   H2Y20048   4.966   6.005   2.754 -0.6473 -0.3193  0.3324
  176SAPS   C2320049   4.629   6.076   2.732  0.3292  0.3595  0.9177
  176SAPS   H3R20050   4.699   5.989   2.730 -0.3379 -0.1683 -0.1285
  176SAPS   H3S20051   4.531   6.054   2.686  1.2969  0.8705 -1.5316
  176SAPS   C2420052   4.616   6.143   2.870 -0.3129 -0.1977 -0.2754
  176SAPS   H4R20053   4.543   6.225   2.856 -0.0190 -0.2843 -2.7493
  176SAPS   H4S20054   4.713   6.189   2.898 -0.7632  0.3540  0.4115
  176SAPS   C2520055   4.561   6.038   2.957 -0.4322  0.4346 -0.2282
  176SAPS   H5R20056   4.457   6.013   2.932 -0.3086  1.6893 -2.2898
  176SAPS   C2620057   4.621   5.972   3.057 -0.1300  0.0644 -1.0363
  176SAPS   H6R20058   4.558   5.893   3.103 -0.4929  1.3042  0.7141
  176SAPS   C2720059   4.759   5.993   3.120 -0.6088  0.0056  0.5814
  176SAPS   H7R20060   4.829   6.037   3.045 -1.5096  0.6304  0.0949
  176SAPS   H7S20061   4.809   5.895   3.134  0.2003  0.6587  2.6433
  176SAPS   C2820062   4.768   6.080   3.245 -0.2113 -1.3966 -0.1337
  176SAPS   H8R20063   4.749   6.187   3.223  1.0251 -1.4753 -1.7664
  176SAPS   C2920064   4.791   6.041   3.372  0.2619 -0.4200 -0.1257
  176SAPS   H9R20065   4.816   6.115   3.449 -1.7410 -0.2396  0.4130
  176SAPS  C21020066   4.799   5.905   3.427  0.3042 -0.0117  0.2814
  176SAPS  H10R20067   4.890   5.911   3.491  1.1591 -2.1119 -0.6419
  176SAPS  H10S20068   4.843   5.840   3.349  2.0726  1.7136 -0.2344
  176SAPS  C21120069   4.692   5.852   3.514 -0.2131  1.1320 -0.8596
  176SAPS  H11R20070   4.596   5.906   3.515  1.0863  3.5878  1.2488
  176SAPS  C21220071   4.696   5.751   3.601 -0.2315 -0.1825  0.3602
  176SAPS  H12R20072   4.601   5.732   3.652 -1.6285  0.7275 -1.7576
  176SAPS  C21320073   4.812   5.651   3.632 -0.3242  0.8480 -0.1494
  176SAPS  H13R20074   4.845   5.661   3.738 -1.4127  1.4173  0.1549
  176SAPS  H13S20075   4.899   5.666   3.565  0.8676 -0.4707  1.0377
  176SAPS  C21420076   4.736   5.519   3.620 -0.5146  0.3291  0.0896
  176SAPS  H14R20077   4.748   5.469   3.522  2.1406  0.7792  0.0982
  176SAPS  C21520078   4.670   5.459   3.728  0.1720  0.6473  0.1500
  176SAPS  H15R20079   4.623   5.361   3.710 -1.8096  1.3134  1.3661
  176SAPS  C21620080   4.661   5.506   3.870  0.2951  0.1066  0.0860
  176SAPS  H16R20081   4.736   5.583   3.897 -0.7545  0.7613  1.2709
  176SAPS  H16S20082   4.697   5.425   3.937  1.8873  0.9488  0.2862
  176SAPS  C21720083   4.519   5.546   3.913 -0.0709  0.2956  0.3040
  176SAPS  H17R20084   4.454   5.457   3.902  0.7313 -0.3205  0.4335
  176SAPS  H17S20085   4.482   5.621   3.841 -2.1668 -0.6293  0.3552
  176SAPS  C21820086   4.518   5.596   4.053 -0.2780 -0.1642 -0.7452
  176SAPS  H18R20087   4.557   5.699   4.061  0.6346 -0.6526  2.7772
  176SAPS  H18S20088   4.573   5.526   4.120 -1.6489 -0.7484 -0.1856
  176SAPS  C21920089   4.374   5.613   4.115  0.1633  0.0828  1.6013
  176SAPS  H19R20090   4.389   5.648   4.219 -1.8297  0.6913  1.7268
  176SAPS  H19S20091   4.329   5.511   4.108  0.6120 -0.0950  1.2017
  176SAPS  C22020092   4.286   5.714   4.032  0.3503  0.4741 -0.1926
  176SAPS  H20R20093   4.347   5.804   4.010  1.3535 -0.3971 -1.0855
  176SAPS  H20S20094   4.198   5.749   4.091 -0.0093 -0.7187  0.0045
  176SAPS  H20T20095   4.255   5.683   3.930  2.5763  2.8986 -1.7435
  176SAPS   C3320096   5.103   5.843   2.836  0.6748  0.4668  0.3956
  176SAPS   H3X20097   5.194   5.897   2.801  0.4325  0.0041 -1.0351
  176SAPS   H3Y20098   5.107   5.735   2.808  0.8013  1.0890 -2.2767
  176SAPS   C3420099   5.078   5.870   2.980  0.7697  0.2249 -0.6141
  176SAPS   H4X20100   4.980   5.822   3.002  0.2275  1.4484 -0.3373
  176SAPS   H4Y20101   5.062   5.979   2.989 -0.5746  0.3023 -3.1858
  176SAPS   C3520102   5.184   5.845   3.086 -0.4532 -0.2210 -0.2923
  176SAPS   H5X20103   5.257   5.926   3.062 -0.5586 -0.5107 -1.7072
  176SAPS   H5Y20104   5.244   5.752   3.075  1.2407  0.6911  0.7720
  176SAPS   C3620105   5.128   5.857   3.229  0.1048  0.1532  0.4983
  176SAPS   H6X20106   5.035   5.796   3.235 -0.3904  0.8553  0.1477
  176SAPS   H6Y20107   5.081   5.957   3.246 -1.8285  0.0582 -3.3059
  176SAPS   C3720108   5.228   5.834   3.344 -1.0240 -0.1665  0.3765
  176SAPS   H7X20109   5.315   5.902   3.330 -1.7172  1.0167  1.6482
  176SAPS   H7Y20110   5.269   5.732   3.325  2.1860  1.4082 -2.1364
  176SAPS   C3820111   5.164   5.842   3.483  0.0533 -0.0417  0.4040
  176SAPS   H8X20112   5.079   5.771   3.486  1.1927 -1.4145  0.8236
  176SAPS   H8Y20113   5.125   5.939   3.521 -0.5846  0.1633 -0.7181
  176SAPS   C3920114   5.255   5.796   3.592 -0.3336 -0.1145 -0.6034
  176SAPS   H9X20115   5.354   5.843   3.581 -0.2648  0.0547  0.5781
  176SAPS   H9Y20116   5.283   5.689   3.577  2.6664  0.8566 -2.8591
  176SAPS  C31020117   5.209   5.815   3.728 -0.3909 -0.0940 -0.1539
  176SAPS  H10X20118   5.104   5.786   3.745 -0.4392  0.8881  1.4877
  176SAPS  H10Y20119   5.211   5.922   3.758  1.6432 -0.1711  0.1694
  176SAPS  C31120120   5.298   5.745   3.832  0.2819 -0.4045  0.0767
  176SAPS  H11X20121   5.405   5.769   3.815  0.8932 -2.5485  0.5958
  176SAPS  H11Y20122   5.282   5.639   3.804  1.6575 -0.7159  0.3919
  176SAPS  C31220123   5.248   5.771   3.974 -0.3895 -0.6394  0.5589
  176SAPS  H12X20124   5.226   5.877   3.999  0.4587  0.1866 -1.9046
  176SAPS  H12Y20125   5.331   5.735   4.039 -0.0701 -1.4064 -0.2567
  176SAPS  C31320126   5.141   5.667   4.012 -0.0267 -0.3939  0.3028
  176SAPS  H13X20127   5.199   5.573   3.997  3.2632  1.7182 -1.3672
  176SAPS  H13Y20128   5.065   5.669   3.931  1.7223  1.4309 -1.3780
  176SAPS  C31420129   5.095   5.669   4.155  0.4779 -0.6050  0.0317
  176SAPS  H14X20130   5.066   5.775   4.176  1.2608 -0.0258 -1.6831
  176SAPS  H14Y20131   5.180   5.641   4.221 -0.9869 -0.1472  2.2222
  176SAPS  C31520132   4.974   5.579   4.170  0.1443  0.4298 -0.2597
  176SAPS  H15X20133   4.908   5.576   4.081  1.2471  1.7777 -1.1546
  176SAPS  H15Y20134   4.915   5.624   4.253  0.3763 -1.7860  1.1873
  176SAPS  C31620135   4.998   5.436   4.229 -0.4571 -0.5493  0.2597
  176SAPS  H16X20136   4.897   5.404   4.263 -0.8866 -0.7486 -1.1362
  176SAPS  H16Y20137   5.077   5.448   4.305 -0.8512 -1.0725  0.7662
  176SAPS  C31720138   5.033   5.328   4.127 -0.2332 -0.2183  0.2628
  176SAPS  H17X20139   5.067   5.242   4.189  0.6987 -0.3504 -0.4073
  176SAPS  H17Y20140   5.122   5.368   4.075 -1.4224  1.1590 -0.7929
  176SAPS  C31820141   4.941   5.287   4.020  0.5678 -0.6579  0.4416
  176SAPS  H18X20142   4.918   5.372   3.952 -2.5380  0.1030  2.2595
  176SAPS  H18Y20143   4.849   5.248   4.068  0.1795 -0.9256 -0.4964
  176SAPS  H18Z20144   4.994   5.210   3.960 -0.4293 -2.3587  1.6674
  177SAPS     N20145   5.886   2.398   2.206 -0.2323  0.5275  0.3034
  177SAPS   HN120146   5.851   2.301   2.192  0.4371  0.5497 -1.9526
  177SAPS   HN220147   5.939   2.417   2.119 -0.4314 -2.8617 -0.7198
  177SAPS   HN320148   5.958   2.390   2.280  0.0208  0.9947  0.1115
  177SAPS   C1220149   5.784   2.492   2.257 -0.1746  0.3091  0.1536
  177SAPS  H12A20150   5.838   2.542   2.336  0.2826  0.1387 -0.0485
  177SAPS   C1320151   5.741   2.592   2.150 -0.9340  0.3643 -0.8984
  177SAPS  O13A20152   5.782   2.591   2.033  0.4272 -0.1441 -0.2078
  177SAPS  O13B20153   5.670   2.683   2.196 -0.0611  0.2886  0.1214
  177SAPS   C1120154   5.658   2.423   2.315 -0.2013 -0.5245  0.7615
  177SAPS  H11A20155   5.604   2.361   2.239  1.9467 -0.8749 -0.5831
  177SAPS  H11B20156   5.590   2.504   2.350 -2.3818 -2.3979  1.1229
  177SAPS     P20157   5.601   2.286   2.540  0.1877 -0.1554 -0.0695
  177SAPS   O1320158   5.486   2.216   2.477  0.3055  0.1842  0.0399
  177SAPS   O1420159   5.686   2.202   2.626  0.0514 -0.3371 -0.5739
  177SAPS   O1220160   5.696   2.338   2.417 -0.6066 -0.7321  0.5001
  177SAPS   O1120161   5.557   2.418   2.619  0.6466 -0.2924 -0.0848
  177SAPS    C120162   5.413   2.440   2.632  0.0702  0.3410  0.0920
  177SAPS    HA20163   5.374   2.495   2.543 -1.7472 -2.0331 -0.7009
  177SAPS    HB20164   5.360   2.342   2.638  2.9234 -1.2679  0.8879
  177SAPS    C220165   5.395   2.533   2.754  1.0255 -0.1741  0.9962
  177SAPS    HS20166   5.432   2.634   2.724  0.6386 -0.5504 -0.8544
  177SAPS   O2120167   5.464   2.495   2.881  0.1290 -0.0712  0.0742
  177SAPS   C2120168   5.423   2.382   2.929 -0.1365  0.4440  0.4087
  177SAPS   O2220169   5.340   2.304   2.888  0.8266  0.4741  0.3282
  177SAPS   C2220170   5.508   2.345   3.055 -0.1726  0.0336 -0.4253
  177SAPS   H2R20171   5.550   2.242   3.054  0.0226  0.0771  0.7648
  177SAPS   H2S20172   5.595   2.414   3.052 -0.0217 -0.1350  0.0011
  177SAPS    C320173   5.242   2.563   2.771  0.5669 -0.0444  0.0957
  177SAPS    HX20174   5.182   2.470   2.784 -0.6921  0.5541 -1.2145
  177SAPS    HY20175   5.199   2.611   2.681  1.0391  0.8951  0.3638
  177SAPS   O3120176   5.213   2.636   2.889  0.1497 -0.1920 -0.3588
  177SAPS   C3120177   5.246   2.768   2.885 -0.5093  0.3217 -0.4246
  177SAPS   O3220178   5.278   2.824   2.786  0.5557 -0.4959  0.4094
  177SAPS   C3220179   5.248   2.833   3.023  0.0547  0.5616  0.3460
  177SAPS   H2X20180   5.205   2.767   3.101  0.7275  2.0602  2.0538
  177SAPS   H2Y20181   5.175   2.913   3.002 -2.5470 -1.4975  1.0792
  177SAPS   C2320182   5.419   2.379   3.177 -0.0129  0.3865  0.0862
  177SAPS   H3R20183   5.473   2.342   3.267 -0.4897 -0.3497  0.0761
  177SAPS   H3S20184   5.318   2.332   3.172  0.0206  0.1128  1.4094
  177SAPS   C2420185   5.404   2.533   3.194 -0.1297  0.0583  0.1800
  177SAPS   H4R20186   5.391   2.580   3.094 -1.7000  0.5000  0.5675
  177SAPS   H4S20187   5.508   2.560   3.221 -0.0931 -0.6717  0.7865
  177SAPS   C2520188   5.294   2.572   3.290 -0.5203  0.4598  0.2359
  177SAPS   H5R20189   5.191   2.540   3.265 -0.2700 -0.5891  0.5075
  177SAPS   C2620190   5.319   2.635   3.405  0.1626 -0.1723 -0.3843
  177SAPS   H6R20191   5.234   2.669   3.465 -1.1151 -0.3048 -2.0520
  177SAPS   C2720192   5.452   2.658   3.466 -0.0608  0.2935 -0.7632
  177SAPS   H7R20193   5.433   2.747   3.530 -1.7945 -0.0849 -0.7062
  177SAPS   H7S20194   5.523   2.697   3.389 -2.1039  1.8948 -1.9491
  177SAPS   C2820195   5.516   2.562   3.564 -0.2268  0.0723 -0.5216
  177SAPS   H8R20196   5.584   2.494   3.510  1.3576  0.1106  1.3226
  177SAPS   C2920197   5.502   2.546   3.699  0.0906 -0.3049 -0.5559
  177SAPS   H9R20198   5.569   2.474   3.749 -1.4464  0.2286  2.5079
  177SAPS  C21020199   5.431   2.641   3.798 -0.0875  0.2089  0.2513
  177SAPS  H10R20200   5.407   2.741   3.756 -0.0329 -0.2090 -0.7983
  177SAPS  H10S20201   5.507   2.655   3.878  1.1223 -3.4459 -0.0710
  177SAPS  C21120202   5.305   2.584   3.856  1.0963  0.0120 -0.4010
  177SAPS  H11R20203   5.254   2.517   3.786  1.9014  0.7793 -1.7576
  177SAPS  C21220204   5.247   2.612   3.977 -0.1391  0.0579  0.0637
  177SAPS  H12R20205   5.156   2.556   4.001 -0.2973 -0.0521 -0.7779
  177SAPS  C21320206   5.301   2.703   4.080 -0.0958  0.6897  0.2036
  177SAPS  H13R20207   5.214   2.741   4.136 -0.1993 -0.4913  0.8667
  177SAPS  H13S20208   5.360   2.790   4.043  2.2497 -0.9382 -0.1445
  177SAPS  C21420209   5.396   2.624   4.169 -0.1188  0.5834  0.4527
  177SAPS  H14R20210   5.487   2.593   4.118 -1.3162 -1.5570 -0.5228
  177SAPS  C21520211   5.384   2.582   4.297  0.7260 -0.2278  0.0680
  177SAPS  H15R20212   5.470   2.539   4.350  0.1828 -1.1768  0.2007
  177SAPS  C21620213   5.273   2.623   4.391  0.3196 -0.3839  0.1241
  177SAPS  H16R20214   5.250   2.732   4.385 -1.0871 -0.6454  0.5127
  177SAPS  H16S20215   5.301   2.611   4.498 -1.0471  0.7227  0.6336
  177SAPS  C21720216   5.143   2.549   4.351  0.1684 -0.0593 -0.6516
  177SAPS  H17R20217   5.170   2.449   4.310 -1.7686 -0.1128 -1.9026
  177SAPS  H17S20218   5.100   2.599   4.262 -1.2124 -0.7822 -0.4142
  177SAPS  C21820219   5.031   2.534   4.456 -0.0133  1.0493  0.2577
  177SAPS  H18R20220   4.987   2.635   4.469 -0.3071  0.9159  0.3250
  177SAPS  H18S20221   5.057   2.486   4.553 -1.4063 -1.0346 -0.3212
  177SAPS  C21920222   4.906   2.455   4.406  1.0022 -0.2967  0.0706
  177SAPS  H19R20223   4.929   2.360   4.354 -1.7407 -1.3992  0.6751
  177SAPS  H19S20224   4.847   2.511   4.330  0.4704 -1.8091 -0.6652
  177SAPS  C22020225   4.813   2.413   4.522  0.6702  0.1043 -0.4408
  177SAPS  H20R20226   4.715   2.374   4.487  1.2871  0.2423 -2.4829
  177SAPS  H20S20227   4.799   2.512   4.569 -2.4228  0.0428 -1.0368
  177SAPS  H20T20228   4.863   2.335   4.583 -1.2495 -1.0541 -0.2667
  177SAPS   C3320229   5.385   2.897   3.058  0.0378 -0.1543 -0.3447
  177SAPS   H3X20230   5.432   2.943   2.968  2.0818 -2.1201 -0.3721
  177SAPS   H3Y20231   5.454   2.820   3.098 -0.0496  0.3898  0.8863
  177SAPS   C3420232   5.370   3.013   3.152 -0.5368 -0.5682  0.9307
  177SAPS   H4X20233   5.302   3.094   3.118  0.6875  0.2272  0.3099
  177SAPS   H4Y20234   5.467   3.063   3.172 -0.2295 -1.2014  1.0377
  177SAPS   C3520235   5.307   2.975   3.285  0.3393  0.4840 -0.4056
  177SAPS   H5X20236   5.374   2.904   3.339 -2.0158 -2.0077 -0.4935
  177SAPS   H5Y20237   5.213   2.916   3.275  0.0061  1.1399 -1.2040
  177SAPS   C3620238   5.293   3.091   3.386  0.1694  0.0949  0.2792
  177SAPS   H6X20239   5.230   3.170   3.340 -0.7097 -0.5479  0.3487
  177SAPS   H6Y20240   5.395   3.127   3.411  1.0897  0.0929 -3.0522
  177SAPS   C3720241   5.223   3.033   3.511 -0.2585 -0.0123  0.6606
  177SAPS   H7X20242   5.276   2.935   3.522 -2.1237 -1.3600 -1.3261
  177SAPS   H7Y20243   5.118   3.000   3.494 -0.4051  1.0787 -0.7248
  177SAPS   C3820244   5.258   3.116   3.637 -0.4106  0.4052 -0.7409
  177SAPS   H8X20245   5.227   3.222   3.631  2.0285  1.4815  2.6829
  177SAPS   H8Y20246   5.368   3.125   3.650 -0.8203  2.9265  1.8171
  177SAPS   C3920247   5.200   3.058   3.761 -0.1591 -0.0404  0.0840
  177SAPS   H9X20248   5.212   2.948   3.773  1.7445 -0.2846 -2.9235
  177SAPS   H9Y20249   5.090   3.070   3.755 -0.1195 -0.2781 -1.7001
  177SAPS  C31020250   5.268   3.136   3.878  0.5924 -0.6325 -0.0431
  177SAPS  H10X20251   5.246   3.244   3.871  2.3854 -0.2708 -0.8491
  177SAPS  H10Y20252   5.379   3.135   3.874  0.6473  1.4636 -0.0083
  177SAPS  C31120253   5.228   3.097   4.017  0.6627  0.0498  0.0660
  177SAPS  H11X20254   5.276   2.997   4.027  0.5571  0.2158  3.0800
  177SAPS  H11Y20255   5.117   3.098   4.017  0.6219 -0.5865  1.9100
  177SAPS  C31220256   5.280   3.172   4.132 -0.4325 -0.1749 -0.1483
  177SAPS  H12X20257   5.275   3.283   4.122  0.8045  0.0098  1.0052
  177SAPS  H12Y20258   5.386   3.148   4.156 -1.0356 -1.9385  0.9694
  177SAPS  C31320259   5.198   3.128   4.258  0.4107  0.6328  0.1326
  177SAPS  H13X20260   5.206   3.017   4.263 -1.7841  0.4842  2.0263
  177SAPS  H13Y20261   5.092   3.160   4.260  0.1482 -0.1569 -0.4576
  177SAPS  C31420262   5.253   3.190   4.383 -0.3552  0.3682 -0.2041
  177SAPS  H14X20263   5.243   3.300   4.373  1.0276  0.6305  0.9005
  177SAPS  H14Y20264   5.361   3.166   4.392 -0.4377  0.1246  0.1522
  177SAPS  C31520265   5.192   3.147   4.512  0.1908  0.6509  0.7867
  177SAPS  H15X20266   5.242   3.050   4.526  0.4509  0.5557 -0.6680
  177SAPS  H15Y20267   5.083   3.126   4.507  0.4294 -0.4471 -0.2921
  177SAPS  C31620268   5.217   3.244   4.634 -0.3813  0.5518  0.3804
  177SAPS  H16X20269   5.176   3.340   4.596 -1.7572 -0.2065 -0.0972
  177SAPS  H16Y20270   5.325   3.266   4.651  0.0764 -0.8100 -0.5793
  177SAPS  C31720271   5.151   3.180   4.768 -0.1682  0.1494 -0.1617
  177SAPS  H17X20272   5.172   3.255   4.848 -1.5897  2.0567 -1.5052
  177SAPS  H17Y20273   5.204   3.083   4.781 -0.1251 -0.1295 -2.1740
  177SAPS  C31820274   5.003   3.158   4.759  0.3495  0.2183 -0.6065
  177SAPS  H18X20275   4.994   3.069   4.693  2.5388  0.4573 -1.2998
  177SAPS  H18Y20276   4.937   3.238   4.719  0.2849  0.7162  0.4696
  177SAPS  H18Z20277   4.957   3.126   4.855  1.5242 -0.1788 -0.1563
  178SAPS     N20278   3.724   3.377   2.180 -0.2689  0.8944  0.4698
  178SAPS   HN120279   3.811   3.432   2.198  0.4853 -0.4946  1.2306
  178SAPS   HN220280   3.667   3.370   2.266  1.8794  0.6743  1.9578
  178SAPS   HN320281   3.742   3.280   2.147  0.1271  0.6421  1.4235
  178SAPS   C1220282   3.623   3.449   2.087 -0.1504 -0.4520 -0.0097
  178SAPS  H12A20283   3.666   3.525   2.023  0.1155 -0.9205 -0.3951
  178SAPS   C1320284   3.553   3.352   1.992 -0.0059  0.3653 -0.2227
  178SAPS  O13A20285   3.584   3.229   1.998  0.0431  0.1678  0.0498
  178SAPS  O13B20286   3.477   3.395   1.903  0.1337 -0.6618  0.0147
  178SAPS   C1120287   3.526   3.509   2.190  0.2618 -0.1665 -0.2829
  178SAPS  H11A20288   3.432   3.551   2.149  1.2408  2.5815  0.0314
  178SAPS  H11B20289   3.580   3.601   2.223  1.8552 -1.6585  1.5056
  178SAPS     P20290   3.368   3.353   2.342  0.1241  0.1170 -0.2767
  178SAPS   O1320291   3.265   3.376   2.237  1.1977  0.1254  0.2789
  178SAPS   O1420292   3.405   3.217   2.377  0.2600 -0.1016  0.0708
  178SAPS   O1220293   3.503   3.423   2.306  0.1000  0.1155 -0.5741
  178SAPS   O1120294   3.317   3.416   2.482  0.2535  0.0869  0.9348
  178SAPS    C120295   3.385   3.532   2.538 -0.1156  0.3877  0.2637
  178SAPS    HA20296   3.430   3.596   2.460  0.1749  1.1968  1.0742
  178SAPS    HB20297   3.315   3.591   2.602 -0.1806 -0.9445  1.4788
  178SAPS    C220298   3.498   3.480   2.637 -0.1061  0.2711 -0.1498
  178SAPS    HS20299   3.546   3.404   2.571 -0.4444 -0.0576 -0.0190
  178SAPS   O2120300   3.442   3.409   2.749 -0.1842 -0.0619 -1.1671
  178SAPS   C2120301   3.497   3.312   2.806 -0.0801 -0.2115  0.0210
  178SAPS   O2220302   3.591   3.253   2.752  0.2005 -0.1558 -0.4707
  178SAPS   C2220303   3.444   3.283   2.945  0.0788 -0.3214  1.0199
  178SAPS   H2R20304   3.484   3.353   3.022  0.1061  1.2038 -0.3090
  178SAPS   H2S20305   3.336   3.310   2.945  0.4330  1.2200  0.2774
  178SAPS    C320306   3.588   3.590   2.687 -0.1631 -0.5699 -0.5285
  178SAPS    HX20307   3.512   3.641   2.750  0.1265  0.1885 -0.7915
  178SAPS    HY20308   3.607   3.661   2.604  1.9089  0.5999  0.8516
  178SAPS   O3120309   3.709   3.546   2.747 -0.0621  0.4077  0.1331
  178SAPS   C3120310   3.727   3.581   2.880 -0.2597  0.9248  1.4579
  178SAPS   O3220311   3.651   3.641   2.945  0.0620 -0.5337  0.3622
  178SAPS   C3220312   3.864   3.528   2.931 -0.3162  0.6387  0.5397
  178SAPS   H2X20313   3.942   3.601   2.901  1.0872 -1.8466 -2.3453
  178SAPS   H2Y20314   3.892   3.436   2.876  2.7081  1.9004 -0.2262
  178SAPS   C2320315   3.455   3.134   2.982 -0.6741 -0.1041  0.1975
  178SAPS   H3R20316   3.560   3.100   2.968 -0.3251  0.9929  0.0258
  178SAPS   H3S20317   3.391   3.079   2.911 -0.7533  1.6720 -1.1556
  178SAPS   C2420318   3.406   3.119   3.127 -0.6365 -0.5698 -0.3490
  178SAPS   H4R20319   3.299   3.146   3.125 -0.2340  1.1096 -2.3011
  178SAPS   H4S20320   3.433   3.213   3.178  0.2626 -1.0692  0.1221
  178SAPS   C2520321   3.445   2.997   3.207 -0.1110 -0.8002  0.0912
  178SAPS   H5R20322   3.375   2.917   3.177 -0.2431 -0.9505  0.7818
  178SAPS   C2620323   3.532   2.990   3.311  0.2845 -0.3806  0.3738
  178SAPS   H6R20324   3.558   2.888   3.342 -0.3862 -0.8066 -0.4429
  178SAPS   C2720325   3.610   3.097   3.371 -0.3106  0.8090  0.0143
  178SAPS   H7R20326   3.555   3.121   3.465 -0.2077 -0.3444  0.3803
  178SAPS   H7S20327   3.618   3.187   3.306  0.7987  1.3691  0.8792
  178SAPS   C2820328   3.753   3.067   3.403  0.2047 -0.2081 -0.1681
  178SAPS   H8R20329   3.815   3.086   3.314  0.7057  3.0014  0.7399
  178SAPS   C2920330   3.803   3.040   3.527  0.0462  0.1504  0.7740
  178SAPS   H9R20331   3.911   3.022   3.535 -0.1214 -0.5732  1.4909
  178SAPS  C21020332   3.721   3.020   3.644  1.0312  0.8208 -0.2267
  178SAPS  H10R20333   3.623   2.975   3.616  0.5099 -0.3345  3.0589
  178SAPS  H10S20334   3.697   3.117   3.693 -0.2493 -0.1031  1.0624
  178SAPS  C21120335   3.776   2.921   3.738  0.4341  0.0584 -0.8590
  178SAPS  H11R20336   3.793   2.818   3.703  0.7001  0.4124 -1.8146
  178SAPS  C21220337   3.804   2.933   3.870 -0.5815 -0.5585  0.1358
  178SAPS  H12R20338   3.835   2.845   3.929  2.2515 -0.5644 -1.2005
  178SAPS  C21320339   3.784   3.059   3.957  0.0151  0.0286  0.4612
  178SAPS  H13R20340   3.722   3.034   4.046  1.5194 -1.7717  1.0819
  178SAPS  H13S20341   3.719   3.123   3.895 -3.9006 -3.1750  0.8807
  178SAPS  C21420342   3.915   3.120   4.004  0.2741  0.1565  0.1545
  178SAPS  H14R20343   3.970   3.172   3.925  2.0795 -1.1017  0.5033
  178SAPS  C21520344   3.974   3.119   4.125 -0.1477 -0.6231  0.1583
  178SAPS  H15R20345   4.072   3.169   4.134 -0.4819 -0.1031  1.1222
  178SAPS  C21620346   3.912   3.050   4.247 -0.6758  0.2605  0.1138
  178SAPS  H16R20347   3.962   2.952   4.264  0.0594  0.5071 -0.5895
  178SAPS  H16S20348   3.803   3.045   4.229 -0.9516  2.5402  0.7972
  178SAPS  C21720349   3.949   3.121   4.378  0.1134 -0.6892  0.1706
  178SAPS  H17R20350   3.917   3.227   4.362 -1.3149 -1.0371  0.5564
  178SAPS  H17S20351   4.057   3.120   4.402  0.1523  0.5803  0.1253
  178SAPS  C21820352   3.870   3.076   4.501 -0.4894  0.5010  0.6441
  178SAPS  H18R20353   3.870   3.163   4.571  0.6520  0.8233  0.2525
  178SAPS  H18S20354   3.921   2.994   4.556  0.8329  0.2260 -0.9460
  178SAPS  C21920355   3.715   3.053   4.484 -0.1952  0.0808 -0.1696
  178SAPS  H19R20356   3.704   2.954   4.435  1.3338  0.7865 -2.0399
  178SAPS  H19S20357   3.662   3.122   4.416 -0.1212  1.7887  1.4250
  178SAPS  C22020358   3.629   3.051   4.610 -0.0144 -0.1255 -0.0402
  178SAPS  H20R20359   3.608   3.154   4.647  2.1841 -1.1160  4.7216
  178SAPS  H20S20360   3.684   3.004   4.694  1.5527  0.5911 -0.6194
  178SAPS  H20T20361   3.536   2.993   4.590 -0.2956 -0.1575  1.2612
  178SAPS   C3320362   3.870   3.495   3.083 -0.4198 -0.0155  0.5561
  178SAPS   H3X20363   3.790   3.432   3.128 -2.0776  1.1627 -0.6092
  178SAPS   H3Y20364   3.858   3.589   3.140  0.1633  0.6753 -0.4340
  178SAPS   C3420365   3.999   3.413   3.120 -0.2967 -0.1324 -0.2698
  178SAPS   H4X20366   4.093   3.471   3.129  0.4889 -0.9362 -2.6680
  178SAPS   H4Y20367   4.014   3.346   3.033 -0.6807 -0.2228 -0.2680
  178SAPS   C3520368   3.989   3.330   3.247  0.2866  0.2630 -0.4563
  178SAPS   H5X20369   4.089   3.284   3.262  0.1812 -0.2410 -1.2210
  178SAPS   H5Y20370   3.922   3.242   3.231  0.9789 -0.2350 -0.6519
  178SAPS   C3620371   3.949   3.416   3.364 -0.4474 -0.5976  0.1273
  178SAPS   H6X20372   3.843   3.437   3.341 -0.7708 -1.6207  0.6141
  178SAPS   H6Y20373   4.008   3.511   3.365 -2.9621  1.1630  4.0492
  178SAPS   C3720374   3.960   3.358   3.500 -0.0410 -0.2089 -0.5498
  178SAPS   H7X20375   4.042   3.282   3.497  1.4300  1.2727  0.5316
  178SAPS   H7Y20376   3.869   3.302   3.528 -1.2856  1.6193 -0.8196
  178SAPS   C3820377   3.992   3.468   3.601  0.2325 -0.2927  0.0756
  178SAPS   H8X20378   3.909   3.541   3.588  0.6053  0.6679  2.4681
  178SAPS   H8Y20379   4.089   3.515   3.572  1.0723 -2.5481 -1.0024
  178SAPS   C3920380   3.989   3.401   3.744  0.2543 -0.1283  0.3971
  178SAPS   H9X20381   4.070   3.325   3.735  0.7643  0.2950  1.3082
  178SAPS   H9Y20382   3.900   3.345   3.781  1.7598 -2.3092  0.9570
  178SAPS  C31020383   4.005   3.510   3.853 -0.0118  0.0250 -0.0572
  178SAPS  H10X20384   3.907   3.561   3.867 -0.7196 -1.4472  0.5759
  178SAPS  H10Y20385   4.069   3.590   3.810 -0.7166  2.1353  2.5326
  178SAPS  C31120386   4.068   3.458   3.980 -0.2461 -0.5371 -0.2483
  178SAPS  H11X20387   4.005   3.386   4.037  1.6214 -1.4491  0.7703
  178SAPS  H11Y20388   4.075   3.551   4.040  2.4026 -0.9119  0.1181
  178SAPS  C31220389   4.211   3.405   3.966 -0.3796  0.7434  0.6035
  178SAPS  H12X20390   4.266   3.483   3.911 -3.1622  1.6893 -1.0730
  178SAPS  H12Y20391   4.198   3.311   3.908  0.9980  1.1838 -0.4660
  178SAPS  C31320392   4.263   3.396   4.112 -0.3981  0.3158  0.6101
  178SAPS  H13X20393   4.192   3.341   4.177 -0.8188 -0.0507 -0.1506
  178SAPS  H13Y20394   4.273   3.495   4.162  0.7508 -0.6744  2.4596
  178SAPS  C31420395   4.398   3.330   4.117 -0.4427  0.2198  0.5606
  178SAPS  H14X20396   4.470   3.411   4.092 -1.1567  0.3912 -1.0464
  178SAPS  H14Y20397   4.407   3.258   4.033  0.1232  0.9544 -0.0318
  178SAPS  C31520398   4.435   3.248   4.243 -0.0885 -0.4253 -0.0494
  178SAPS  H15X20399   4.528   3.194   4.219 -0.6283 -0.9336 -1.0790
  178SAPS  H15Y20400   4.354   3.172   4.249 -1.0978  0.7230  2.0589
  178SAPS  C31620401   4.446   3.341   4.363  0.0011 -0.4430  0.4854
  178SAPS  H16X20402   4.344   3.349   4.405  0.6985 -0.5897  2.3030
  178SAPS  H16Y20403   4.478   3.445   4.341  2.2771 -0.3788  3.4974
  178SAPS  C31720404   4.530   3.272   4.471  0.2311 -0.3559  0.7409
  178SAPS  H17X20405   4.632   3.253   4.431  0.6969  3.3497 -0.2342
  178SAPS  H17Y20406   4.485   3.171   4.480 -1.7155  0.4369  0.4369
  178SAPS  C31820407   4.514   3.338   4.609 -0.1573 -0.7921 -0.3241
  178SAPS  H18X20408   4.554   3.441   4.615 -0.1334 -0.7537 -1.0652
  178SAPS  H18Y20409   4.576   3.275   4.676 -2.3969 -0.8397  1.8479
  178SAPS  H18Z20410   4.408   3.330   4.640  0.2917 -2.9389  0.8799
  179SAPS     N20411   5.881   2.065   2.508  0.5032  0.5310  0.2135
  179SAPS   HN120412   5.973   2.047   2.552 -0.5830 -1.2780  1.9400
  179SAPS   HN220413   5.895   2.157   2.464 -1.0981  0.0927 -1.3464
  179SAPS   HN320414   5.808   2.082   2.581 -0.3101 -1.3159 -0.0918
  179SAPS   C1220415   5.833   1.961   2.415  0.5315 -0.3664  0.3034
  179SAPS  H12A20416   5.725   1.967   2.422  0.5928 -0.1979  1.1908
  179SAPS   C1320417   5.861   1.992   2.268  0.2145  0.3645 -0.5097
  179SAPS  O13A20418   5.857   2.110   2.237  0.0061  0.5127  0.1826
  179SAPS  O13B20419   5.858   1.899   2.180 -0.2806 -0.3637  0.3190
  179SAPS   C1120420   5.895   1.828   2.446 -0.4151 -0.2490  0.3517
  179SAPS  H11A20421   6.002   1.839   2.418 -0.9529  0.8162 -1.4888
  179SAPS  H11B20422   5.852   1.754   2.376 -0.4336  0.7759 -0.7550
  179SAPS     P20423   5.945   1.668   2.648  0.0456 -0.5567  0.1344
  179SAPS   O1320424   5.883   1.546   2.603  0.1324 -0.2060  0.4842
  179SAPS   O1420425   6.088   1.669   2.625  0.1360 -0.4536 -0.3340
  179SAPS   O1220426   5.873   1.792   2.578 -0.3115  0.2466 -0.8464
  179SAPS   O1120427   5.917   1.698   2.805  0.0587  0.3922 -0.3153
  179SAPS    C120428   5.794   1.757   2.845  0.0529  1.0203  0.2696
  179SAPS    HA20429   5.709   1.727   2.782 -0.5065  0.8371  1.0925
  179SAPS    HB20430   5.770   1.725   2.949  0.6943  2.4364  0.8802
  179SAPS    C220431   5.807   1.912   2.849  0.0658  0.3527  0.2593
  179SAPS    HS20432   5.830   1.937   2.743  3.0281 -2.2706  0.1283
  179SAPS   O2120433   5.919   1.946   2.929 -0.5367 -0.2284 -0.2322
  179SAPS   C2120434   5.975   2.064   2.891  0.5673  0.5412 -0.4992
  179SAPS   O2220435   5.947   2.123   2.789 -0.0750  0.3799 -0.5855
  179SAPS   C2220436   6.075   2.117   2.998  0.2196 -0.1516 -0.7402
  179SAPS   H2R20437   6.150   2.035   3.005  2.1943  1.6064 -0.3772
  179SAPS   H2S20438   6.126   2.208   2.961 -1.0479  1.4152  1.1822
  179SAPS    C320439   5.684   1.990   2.891 -0.2548 -0.1582 -0.6997
  179SAPS    HX20440   5.603   1.976   2.816  0.1745 -0.9544 -1.0233
  179SAPS    HY20441   5.702   2.099   2.882  0.3439 -0.0773  1.0133
  179SAPS   O3120442   5.657   1.970   3.031 -0.4244 -0.0116  0.1401
  179SAPS   C3120443   5.536   1.922   3.055 -0.3603  0.3418  0.0720
  179SAPS   O3220444   5.442   1.923   2.976 -0.2035 -0.3169  0.2022
  179SAPS   C3220445   5.519   1.869   3.190  0.5562 -0.2027 -0.2372
  179SAPS   H2X20446   5.618   1.849   3.237  1.6792  4.3091 -0.2383
  179SAPS   H2Y20447   5.461   1.774   3.183 -1.8646  0.9517  2.3107
  179SAPS   C2320448   5.999   2.156   3.129 -0.4337  0.7459  0.4105
  179SAPS   H3R20449   6.078   2.172   3.206 -1.1916  0.9533  1.1522
  179SAPS   H3S20450   5.938   2.070   3.165 -1.5605  1.4907  0.2959
  179SAPS   C2420451   5.906   2.271   3.121 -0.1645  0.2482  0.7104
  179SAPS   H4R20452   5.828   2.245   3.047 -0.3219 -1.3493  1.3870
  179SAPS   H4S20453   5.959   2.359   3.080  1.8923 -1.1078  0.3514
  179SAPS   C2520454   5.827   2.303   3.241  0.1058  0.0108 -0.1978
  179SAPS   H5R20455   5.720   2.277   3.240  0.3189 -0.8921 -0.9666
  179SAPS   C2620456   5.887   2.333   3.365  0.1578  0.4641 -0.5204
  179SAPS   H6R20457   5.810   2.336   3.443 -1.9173 -1.4634 -2.3863
  179SAPS   C2720458   6.032   2.371   3.403  0.0474  0.2032 -0.1390
  179SAPS   H7R20459   6.031   2.461   3.468 -1.7572  0.2334 -0.1713
  179SAPS   H7S20460   6.094   2.401   3.316  0.4208 -0.3576 -0.0701
  179SAPS   C2820461   6.096   2.256   3.476  0.4613 -1.1898  0.2682
  179SAPS   H8R20462   6.134   2.176   3.411  0.6678  0.7737 -2.1984
  179SAPS   C2920463   6.122   2.245   3.606  0.0375  0.0235  0.0407
  179SAPS   H9R20464   6.173   2.156   3.646  0.5654  1.1168  1.9561
  179SAPS  C21020465   6.060   2.344   3.699 -0.6612 -0.3595 -0.5911
  179SAPS  H10R20466   5.967   2.396   3.667  0.3868  1.4955 -0.7809
  179SAPS  H10S20467   6.134   2.427   3.709 -2.1741  0.9975 -0.1532
  179SAPS  C21120468   6.055   2.280   3.840  0.3148  0.7372 -0.4483
  179SAPS  H11R20469   6.147   2.236   3.881  0.7148  0.0090 -2.0225
  179SAPS  C21220470   5.944   2.271   3.909  0.0365  0.3293 -0.9111
  179SAPS  H12R20471   5.949   2.235   4.013 -3.1758  1.2725 -0.3095
  179SAPS  C21320472   5.808   2.319   3.873  1.2338  0.8443  0.1085
  179SAPS  H13R20473   5.792   2.325   3.763  2.4796  0.4176 -0.1161
  179SAPS  H13S20474   5.801   2.415   3.928 -1.4857  0.6632  0.2136
  179SAPS  C21420475   5.687   2.240   3.922 -0.1307 -0.5979  0.2017
  179SAPS  H14R20476   5.624   2.304   3.986  1.1462  0.5917  0.3097
  179SAPS  C21520477   5.650   2.112   3.899  0.1383  0.1392  0.0598
  179SAPS  H15R20478   5.549   2.081   3.929 -0.1026 -0.0791 -0.9358
  179SAPS  C21620479   5.722   2.006   3.823 -0.0887  0.3523  0.1820
  179SAPS  H16R20480   5.660   1.914   3.820  0.2963 -0.0919  2.8851
  179SAPS  H16S20481   5.813   1.971   3.878 -0.9470 -2.6094 -0.1256
  179SAPS  C21720482   5.753   2.036   3.672  0.9067  1.0853 -0.5150
  179SAPS  H17R20483   5.817   2.126   3.667 -0.5305  2.7328  4.4714
  179SAPS  H17S20484   5.662   2.059   3.613  1.0364  1.3322 -0.6182
  179SAPS  C21820485   5.807   1.911   3.589  0.4469  0.2548  0.4392
  179SAPS  H18R20486   5.737   1.827   3.604  0.0823  0.7539  1.6388
  179SAPS  H18S20487   5.903   1.882   3.637 -0.2879 -0.9778  1.2159
  179SAPS  C21920488   5.848   1.956   3.444  0.5481  0.0546  0.1519
  179SAPS  H19R20489   5.919   2.041   3.455 -0.0935  0.5975  0.2413
  179SAPS  H19S20490   5.755   1.997   3.399  0.0623 -2.2308 -1.0440
  179SAPS  C22020491   5.920   1.840   3.374 -0.2107 -0.2627 -0.5027
  179SAPS  H20R20492   5.851   1.753   3.366 -0.5925 -0.0659  0.5444
  179SAPS  H20S20493   6.007   1.799   3.430 -1.0289 -1.2994  0.0482
  179SAPS  H20T20494   5.953   1.876   3.274 -1.1656  1.6534 -0.1753
  179SAPS   C3320495   5.433   1.956   3.285 -0.7109  0.1146  0.1373
  179SAPS   H3X20496   5.336   1.979   3.236  0.1267  0.1211 -1.6282
  179SAPS   H3Y20497   5.480   2.054   3.305  2.2328 -1.3188  0.9235
  179SAPS   C3420498   5.404   1.888   3.415  0.2571  0.0137  0.7787
  179SAPS   H4X20499   5.501   1.881   3.469  0.6943  0.8593  0.1349
  179SAPS   H4Y20500   5.362   1.785   3.409 -0.3431  0.3185 -0.5755
  179SAPS   C3520501   5.317   1.984   3.499  0.5564 -0.0825 -0.8738
  179SAPS   H5X20502   5.225   2.007   3.440  0.1191 -0.6307 -0.4209
  179SAPS   H5Y20503   5.371   2.080   3.513 -1.4437  0.8249  1.2313
  179SAPS   C3620504   5.271   1.929   3.634 -0.5385 -0.3098  0.6987
  179SAPS   H6X20505   5.193   1.853   3.612 -0.2589 -0.3163 -0.2943
  179SAPS   H6Y20506   5.220   2.011   3.690  1.6030  1.1744  0.5929
  179SAPS   C3720507   5.392   1.867   3.711  0.7284 -0.2599  0.1704
  179SAPS   H7X20508   5.469   1.945   3.692  0.6457 -0.0042  0.8345
  179SAPS   H7Y20509   5.423   1.778   3.653  0.5006  0.0248 -0.3998
  179SAPS   C3820510   5.368   1.835   3.853 -0.4087  0.0565  0.9236
  179SAPS   H8X20511   5.341   1.923   3.915 -4.7498 -1.9097  2.2327
  179SAPS   H8Y20512   5.460   1.792   3.897  2.5586  2.6411 -2.1139
  179SAPS   C3920513   5.268   1.729   3.871 -0.3714  0.1274 -0.7081
  179SAPS   H9X20514   5.304   1.627   3.845 -0.8630 -0.5339  1.0981
  179SAPS   H9Y20515   5.174   1.756   3.816 -0.7061 -1.5104 -1.0073
  179SAPS  C31020516   5.215   1.706   4.017  0.4220 -0.5719  0.0978
  179SAPS  H10X20517   5.156   1.612   4.024  1.6577 -1.2996  1.4811
  179SAPS  H10Y20518   5.158   1.794   4.054  0.4226 -1.2145  1.7247
  179SAPS  C31120519   5.324   1.693   4.119  0.1099  0.2205  0.2567
  179SAPS  H11X20520   5.376   1.791   4.129 -1.6635  1.0508  2.0055
  179SAPS  H11Y20521   5.396   1.614   4.087  0.1531  0.1607  0.4968
  179SAPS  C31220522   5.263   1.661   4.249  0.1459 -0.1614 -0.1381
  179SAPS  H12X20523   5.178   1.590   4.236  0.6657 -0.7667 -0.2969
  179SAPS  H12Y20524   5.220   1.750   4.300 -0.6788 -0.3359 -0.5153
  179SAPS  C31320525   5.356   1.589   4.347 -0.4926  0.0265  0.4938
  179SAPS  H13X20526   5.325   1.589   4.454 -0.7967 -0.3182  0.4079
  179SAPS  H13Y20527   5.441   1.660   4.343 -0.3710  0.0209  2.0987
  179SAPS  C31420528   5.388   1.447   4.313 -0.2267  0.1166 -0.0694
  179SAPS  H14X20529   5.453   1.423   4.226 -0.8676 -2.8023  0.1503
  179SAPS  H14Y20530   5.298   1.385   4.294  1.4871 -3.2009  1.6810
  179SAPS  C31520531   5.470   1.374   4.427  0.2962 -0.5571 -0.3839
  179SAPS  H15X20532   5.520   1.283   4.388  1.8647 -0.9155  2.2294
  179SAPS  H15Y20533   5.395   1.337   4.500  0.8399 -1.1706 -0.1245
  179SAPS  C31620534   5.573   1.458   4.498 -0.0013  0.3882  0.6679
  179SAPS  H16X20535   5.530   1.526   4.574  2.6834  0.9668  1.8012
  179SAPS  H16Y20536   5.618   1.529   4.425 -0.6284  1.8343  1.6511
  179SAPS  C31720537   5.679   1.373   4.572 -0.1863 -0.5087  0.6168
  179SAPS  H17X20538   5.749   1.325   4.500  0.2112  1.6174 -0.5284
  179SAPS  H17Y20539   5.633   1.288   4.626 -2.0637  0.4452  0.6173
  179SAPS  C31820540   5.749   1.461   4.682 -0.2297  0.4251 -0.2740
  179SAPS  H18X20541   5.818   1.540   4.645 -0.3194  1.1798  1.1099
  179SAPS  H18Y20542   5.813   1.389   4.738 -1.0630 -1.8136 -2.0659
  179SAPS  H18Z20543   5.675   1.502   4.753  0.0732 -1.1423  0.9944
  180SAPS     N20544   2.059   0.878   2.290 -0.4453  0.0697  0.1188
  180SAPS   HN120545   2.125   0.814   2.338  1.0088 -1.4209 -3.4837
  180SAPS   HN220546   2.097   0.974   2.300  0.2366 -0.3019  1.1929
  180SAPS   HN320547   1.958   0.871   2.317 -1.5955  2.5640 -2.8934
  180SAPS   C1220548   2.050   0.816   2.156 -0.0306  0.1198 -0.2344
  180SAPS  H12A20549   1.980   0.869   2.093 -0.4298  1.7874  1.5097
  180SAPS   C1320550   2.182   0.805   2.072 -0.0230 -0.6321  0.1110
  180SAPS  O13A20551   2.293   0.850   2.121  0.6001 -0.0033 -0.0711
  180SAPS  O13B20552   2.193   0.718   1.985 -0.1793 -0.1790 -0.9241
  180SAPS   C1120553   1.997   0.671   2.169  0.4182 -0.1408  0.6134
  180SAPS  H11A20554   2.075   0.619   2.229  1.6042  2.1207  1.1553
  180SAPS  H11B20555   1.976   0.627   2.069  0.0860 -1.2992  1.1758
  180SAPS     P20556   1.810   0.566   2.306 -0.6924  0.0066 -0.3024
  180SAPS   O1320557   1.671   0.577   2.261  0.5424 -0.2278 -0.2588
  180SAPS   O1420558   1.888   0.449   2.267  0.0799  0.2784 -0.5026
  180SAPS   O1220559   1.878   0.692   2.239  0.1147 -0.1244 -0.4961
  180SAPS   O1120560   1.806   0.582   2.460 -0.8301  0.1466  0.3508
  180SAPS    C120561   1.909   0.659   2.525 -0.4170 -0.7437 -0.5050
  180SAPS    HA20562   2.002   0.670   2.465  0.6344 -1.1289  1.0093
  180SAPS    HB20563   1.867   0.760   2.538 -2.2545 -1.4401 -0.7235
  180SAPS    C220564   1.939   0.603   2.668  0.1454 -0.3377  0.2908
  180SAPS    HS20565   2.021   0.659   2.718 -0.8197  1.6817 -0.2964
  180SAPS   O2120566   1.970   0.465   2.666 -0.4340  0.4455 -0.0705
  180SAPS   C2120567   2.075   0.423   2.599  0.0940 -0.1595 -1.0131
  180SAPS   O2220568   2.153   0.500   2.547  0.0584 -0.7033  0.3072
  180SAPS   C2220569   2.087   0.274   2.600 -0.1087  0.4461 -0.0437
  180SAPS   H2R20570   2.047   0.243   2.501 -0.0589  2.4814 -0.7666
  180SAPS   H2S20571   2.195   0.248   2.605  0.3440  2.0703 -0.6402
  180SAPS    C320572   1.820   0.627   2.768  0.2522  0.8268 -0.3425
  180SAPS    HX20573   1.727   0.606   2.710 -0.6639  0.5165  1.1817
  180SAPS    HY20574   1.808   0.735   2.792  0.9102  0.3150  2.7089
  180SAPS   O3120575   1.814   0.560   2.897  0.1260  0.4842 -0.0636
  180SAPS   C3120576   1.905   0.599   2.979 -0.2456  0.2961  0.3795
  180SAPS   O3220577   1.970   0.700   2.978  0.3070 -0.4604  0.4690
  180SAPS   C3220578   1.918   0.505   3.097 -0.2928  0.3732 -0.1800
  180SAPS   H2X20579   1.835   0.433   3.081 -0.5424  0.5230  0.4042
  180SAPS   H2Y20580   1.883   0.563   3.185 -0.6877 -2.2700  1.5319
  180SAPS   C2320581   2.006   0.190   2.706  0.1360  0.0873  0.2456
  180SAPS   H3R20582   1.896   0.210   2.705  0.3289  2.4022  4.2024
  180SAPS   H3S20583   2.022   0.208   2.814 -2.0764 -0.3301  0.6940
  180SAPS   C2420584   2.023   0.035   2.689  0.2206  0.7290  0.0386
  180SAPS   H4R20585   1.972   0.002   2.595  3.0904  0.7760 -1.6447
  180SAPS   H4S20586   1.963  -0.011   2.771 -1.3324  0.1988 -1.3393
  180SAPS   C2520587   2.160  -0.004   2.687 -0.3456 -0.0720 -0.3984
  180SAPS   H5R20588   2.211   0.010   2.591 -0.9959  1.4053 -0.5593
  180SAPS   C2620589   2.241  -0.047   2.784 -0.3427 -0.4886 -0.2107
  180SAPS   H6R20590   2.341  -0.080   2.754 -0.8514 -0.9929 -1.4231
  180SAPS   C2720591   2.208  -0.055   2.934  0.5527 -0.6500  0.2852
  180SAPS   H7R20592   2.122   0.013   2.953  0.8477 -0.0499 -0.4674
  180SAPS   H7S20593   2.290  -0.019   2.999  0.1653 -0.0307  0.4449
  180SAPS   C2820594   2.178  -0.197   2.975  0.0390  1.0286 -0.3817
  180SAPS   H8R20595   2.148  -0.262   2.891  0.0654  0.3802  0.0993
  180SAPS   C2920596   2.182  -0.258   3.094  0.4524 -0.1490  0.2932
  180SAPS   H9R20597   2.149  -0.363   3.103  1.0726 -0.2393  1.9308
  180SAPS  C21020598   2.220  -0.192   3.219 -0.9333  0.4143 -0.4715
  180SAPS  H10R20599   2.152  -0.106   3.233  0.7434  2.0726 -1.8655
  180SAPS  H10S20600   2.321  -0.147   3.205  0.0909 -2.2143 -2.3425
  180SAPS  C21120601   2.230  -0.288   3.342  0.1659  0.7333 -0.0438
  180SAPS  H11R20602   2.217  -0.394   3.316 -2.5200  1.0149 -0.0501
  180SAPS  C21220603   2.245  -0.249   3.468 -0.0895  0.0437 -0.2127
  180SAPS  H12R20604   2.248  -0.323   3.550  0.5631  1.3885  1.0135
  180SAPS  C21320605   2.247  -0.102   3.507 -0.9274 -0.0013  0.4612
  180SAPS  H13R20606   2.191  -0.077   3.600  2.3732  0.8778  2.3800
  180SAPS  H13S20607   2.211  -0.034   3.426  1.4752  0.0826 -0.6267
  180SAPS  C21420608   2.400  -0.079   3.517  0.1627 -0.9199  0.0808
  180SAPS  H14R20609   2.440  -0.073   3.415 -0.9732 -3.6978 -0.6290
  180SAPS  C21520610   2.468  -0.028   3.616 -0.1932  0.1654  0.1231
  180SAPS  H15R20611   2.574  -0.012   3.593 -0.0538 -0.2288  0.4881
  180SAPS  C21620612   2.399  -0.007   3.751 -0.1566 -0.9101  0.3980
  180SAPS  H16R20613   2.300   0.040   3.732 -1.4059 -2.8606  1.7667
  180SAPS  H16S20614   2.451   0.066   3.815  1.5017  0.6189 -2.4685
  180SAPS  C21720615   2.355  -0.121   3.841 -0.1215 -0.2289 -0.3993
  180SAPS  H17R20616   2.316  -0.200   3.773 -2.8176 -0.2669  1.0296
  180SAPS  H17S20617   2.282  -0.089   3.918  1.4218  1.3683  0.4699
  180SAPS  C21820618   2.467  -0.166   3.931 -0.0580 -0.2834  0.5513
  180SAPS  H18R20619   2.469  -0.095   4.017 -2.7155 -0.3500  0.7450
  180SAPS  H18S20620   2.563  -0.163   3.875 -2.2431 -2.1644 -3.6863
  180SAPS  C21920621   2.459  -0.311   3.981  0.3014 -0.0280  0.4088
  180SAPS  H19R20622   2.358  -0.331   4.024 -0.7347  1.6514 -1.1373
  180SAPS  H19S20623   2.541  -0.325   4.055  2.6053  3.0646 -1.3120
  180SAPS  C22020624   2.480  -0.424   3.869  0.2525 -0.0089 -0.3275
  180SAPS  H20R20625   2.421  -0.395   3.779 -2.5944 -0.9767  1.1280
  180SAPS  H20S20626   2.586  -0.434   3.839  0.5699 -0.9035  1.0027
  180SAPS  H20T20627   2.438  -0.520   3.905  1.0767  0.8295  3.2941
  180SAPS   C3320628   2.051   0.436   3.101  0.6434 -0.3779  0.0023
  180SAPS   H3X20629   2.130   0.514   3.098  0.3977 -0.0856  0.9918
  180SAPS   H3Y20630   2.065   0.368   3.014 -0.5300  0.3859 -0.8024
  180SAPS   C3420631   2.083   0.354   3.229  0.2015  0.0362  0.9140
  180SAPS   H4X20632   2.185   0.309   3.223  2.3857  4.3789  1.6235
  180SAPS   H4Y20633   2.013   0.271   3.255 -0.7380  0.3651 -0.4753
  180SAPS   C3520634   2.092   0.455   3.349  0.1966 -0.3928 -0.0608
  180SAPS   H5X20635   1.993   0.505   3.347  0.3516  0.3938  3.8085
  180SAPS   H5Y20636   2.178   0.525   3.335  0.0090  0.1526  1.2996
  180SAPS   C3620637   2.111   0.387   3.483  0.4452 -0.3341 -0.3552
  180SAPS   H6X20638   2.207   0.331   3.484  0.2851 -0.6145  0.6932
  180SAPS   H6Y20639   2.031   0.310   3.490 -0.4073  0.5974  0.4297
  180SAPS   C3720640   2.088   0.485   3.605  0.3010 -0.0143  0.1101
  180SAPS   H7X20641   2.006   0.556   3.584 -1.3406 -1.5587  0.9348
  180SAPS   H7Y20642   2.183   0.540   3.620 -0.2842  1.1609 -0.4114
  180SAPS   C3820643   2.050   0.409   3.734 -0.3485 -0.0890 -0.6597
  180SAPS   H8X20644   1.975   0.335   3.699  1.3204 -2.3926  0.3143
  180SAPS   H8Y20645   1.997   0.469   3.811 -0.6920 -0.7244 -0.3901
  180SAPS   C3920646   2.169   0.337   3.803  0.0058 -0.2904 -0.8861
  180SAPS   H9X20647   2.230   0.414   3.855 -0.6983  0.4874 -1.1942
  180SAPS   H9Y20648   2.232   0.282   3.730  0.3625 -0.9322 -0.1142
  180SAPS  C31020649   2.146   0.216   3.901  0.1945  0.0011 -0.3748
  180SAPS  H10X20650   2.244   0.165   3.909  0.7817  1.3195  1.4171
  180SAPS  H10Y20651   2.084   0.153   3.834  0.9066  0.7340 -1.7830
  180SAPS  C31120652   2.086   0.246   4.039  0.0842 -0.8311  0.0555
  180SAPS  H11X20653   1.983   0.283   4.023 -0.9691 -2.6828  2.0478
  180SAPS  H11Y20654   2.143   0.329   4.085  1.3056 -2.0544  0.8461
  180SAPS  C31220655   2.097   0.125   4.129  0.3566  0.2671 -0.1382
  180SAPS  H12X20656   2.199   0.080   4.127  1.6968  3.1372 -0.8271
  180SAPS  H12Y20657   2.032   0.046   4.085 -0.3305  0.6993  0.1047
  180SAPS  C31320658   2.050   0.142   4.276  0.3262 -0.6142  0.4027
  180SAPS  H13X20659   2.063   0.039   4.316  2.1343 -0.6414 -0.1455
  180SAPS  H13Y20660   1.951   0.191   4.271  1.1679  1.0334 -1.2696
  180SAPS  C31420661   2.134   0.239   4.373  0.8377 -0.3254 -1.0698
  180SAPS  H14X20662   2.081   0.256   4.468  0.6430  1.5604 -1.4734
  180SAPS  H14Y20663   2.136   0.338   4.323 -0.4834 -0.2081 -0.9112
  180SAPS  C31520664   2.275   0.184   4.398 -0.0738  0.5666 -0.9935
  180SAPS  H15X20665   2.341   0.207   4.311 -0.4867 -0.7542 -1.6904
  180SAPS  H15Y20666   2.276   0.074   4.381  1.6770  0.7904 -2.7721
  180SAPS  C31620667   2.340   0.227   4.527  0.2047 -0.2582  0.0268
  180SAPS  H16X20668   2.375   0.331   4.515 -2.3305  0.5609 -0.9083
  180SAPS  H16Y20669   2.431   0.167   4.549  0.9219  0.7821 -0.0138
  180SAPS  C31720670   2.255   0.222   4.654 -1.0451  0.4523 -0.4176
  180SAPS  H17X20671   2.216   0.119   4.671 -1.6963  0.8220  0.4077
  180SAPS  H17Y20672   2.173   0.297   4.649  1.0985  3.0249  1.0640
  180SAPS  C31820673   2.336   0.253   4.783  0.6669  0.9422  0.1429
  180SAPS  H18X20674   2.264   0.283   4.861  0.2076 -0.4349  0.2825
  180SAPS  H18Y20675   2.403   0.338   4.759  0.8787  0.8452  0.3950
  180SAPS  H18Z20676   2.394   0.166   4.820 -1.3690  0.9654  3.8672
  181POPC     N20677   6.578   0.193   6.747 -0.4366 -0.1435  0.2738
  181POPC   C1220678   6.634   0.172   6.609  0.7912  0.1809 -0.4077
  181POPC  H12A20679   6.741   0.183   6.607  0.7225  0.9229 -0.3439
  181POPC  H12B20680   6.611   0.263   6.555 -2.2008  1.3690  2.4983
  181POPC   C1320681   6.626   0.080   6.826  0.1096  0.6220  0.5663
  181POPC  H13A20682   6.579   0.073   6.922 -0.7385 -0.4737  0.0899
  181POPC  H13B20683   6.590  -0.014   6.787  0.8366  0.8481 -0.7339
  181POPC  H13C20684   6.731   0.080   6.851  0.8575 -3.7829 -1.5745
  181POPC   C1420685   6.627   0.318   6.812  0.4128  0.3316  1.2074
  181POPC  H14A20686   6.556   0.359   6.882  0.6107 -2.3362  3.1273
  181POPC  H14B20687   6.716   0.288   6.867  0.0141 -0.1808  1.5934
  181POPC  H14C20688   6.643   0.398   6.742 -1.1674  1.2852  1.8764
  181POPC   C1520689   6.427   0.199   6.754 -0.6275  0.7592 -0.1734
  181POPC  H15A20690   6.388   0.285   6.701  2.0190  1.3235 -1.4155
  181POPC  H15B20691   6.391   0.206   6.855  0.8515 -0.8891  0.5125
  181POPC  H15C20692   6.389   0.111   6.705  0.2149  0.3107 -0.0412
  181POPC   C1120693   6.559   0.071   6.524  0.5769  0.6488 -0.0471
  181POPC  H11A20694   6.591   0.069   6.418  0.6802 -0.9151 -0.0177
  181POPC  H11B20695   6.456   0.112   6.522  0.8010  1.2072 -0.1803
  181POPC     P20696   6.702  -0.149   6.546  0.2275 -0.1242  0.2352
  181POPC   O1320697   6.687  -0.274   6.627  0.5632 -0.1213 -0.0833
  181POPC   O1420698   6.819  -0.064   6.570  0.2739 -0.0924  0.6612
  181POPC   O1220699   6.566  -0.067   6.568 -0.3152  0.5831 -0.0864
  181POPC   O1120700   6.697  -0.198   6.387  0.6936 -0.2609 -0.0867
  181POPC    C120701   6.589  -0.281   6.345  0.6802  0.1488 -0.9416
  181POPC    HA20702   6.546  -0.226   6.259  3.9564  4.8439  0.0611
  181POPC    HB20703   6.509  -0.298   6.420 -1.3256 -0.2329 -3.0561
  181POPC    C220704   6.630  -0.423   6.295 -0.2963 -0.5754 -0.3419
  181POPC    HS20705   6.687  -0.466   6.380  1.9501 -0.1421 -1.5545
  181POPC   O2120706   6.719  -0.414   6.180 -0.0171  0.3002  0.3770
  181POPC   C2120707   6.793  -0.520   6.145 -1.3254  0.1471  0.4270
  181POPC   O2220708   6.796  -0.627   6.202 -0.2161  0.2063 -0.8736
  181POPC   C2220709   6.871  -0.490   6.014  0.5786 -0.4637 -0.2754
  181POPC   H2R20710   6.933  -0.401   6.040  1.0301 -0.1347 -2.3062
  181POPC   H2S20711   6.802  -0.456   5.934  1.9795  0.5545 -1.0987
  181POPC    C320712   6.508  -0.505   6.251 -0.2849 -0.2312  0.6133
  181POPC    HX20713   6.446  -0.505   6.343 -0.8350 -0.9572  0.2533
  181POPC    HY20714   6.535  -0.613   6.239  2.2776  0.5704 -2.1079
  181POPC   O3120715   6.443  -0.447   6.134  0.0467 -0.6588  0.0721
  181POPC   C3120716   6.489  -0.489   6.022  0.4637  0.1321 -0.2175
  181POPC   O3220717   6.570  -0.577   6.000 -0.6381  0.0426  0.0147
  181POPC   C3220718   6.419  -0.417   5.902  0.3429  0.3035 -0.5135
  181POPC   H2X20719   6.397  -0.314   5.937 -0.9398 -0.7327  1.9887
  181POPC   H2Y20720   6.326  -0.476   5.887  2.4160 -3.1409 -0.8488
  181POPC   C2320721   6.945  -0.613   5.953  0.4309 -0.0406 -0.5975
  181POPC   H3R20722   6.891  -0.710   5.955  3.9703 -2.2049  0.4518
  181POPC   H3S20723   7.028  -0.620   6.028 -2.2846  0.8912  2.7334
  181POPC   C2420724   7.003  -0.584   5.818 -0.2222  0.1854  1.1967
  181POPC   H4R20725   7.069  -0.667   5.786  2.3224  0.9481  3.9840
  181POPC   H4S20726   7.065  -0.492   5.825 -1.0825  0.9457 -0.4705
  181POPC   C2520727   6.902  -0.568   5.702 -0.1785  0.2531 -0.4829
  181POPC   H5R20728   6.844  -0.473   5.699  1.0953  1.0277 -1.7209
  181POPC   H5S20729   6.824  -0.646   5.721 -0.7814  1.2060  1.1859
  181POPC   C2620730   6.968  -0.567   5.568 -0.0725 -0.2749  0.2521
  181POPC   H6R20731   6.910  -0.636   5.502  1.3976 -1.3422  0.0307
  181POPC   H6S20732   7.072  -0.606   5.573 -0.5835 -1.5668  1.8869
  181POPC   C2720733   6.972  -0.431   5.494  0.2703 -0.5946  0.1145
  181POPC   H7R20734   7.057  -0.371   5.534  0.0430 -0.1124 -0.1181
  181POPC   H7S20735   6.880  -0.370   5.505  0.6238 -0.1801  0.8238
  181POPC   C2820736   6.996  -0.453   5.341  0.5725  0.4719 -0.0998
  181POPC   H8R20737   7.069  -0.535   5.324  0.0050  0.0219 -0.3758
  181POPC   H8S20738   7.031  -0.359   5.294 -0.4830  0.4379 -0.9890
  181POPC   C2920739   6.862  -0.494   5.277 -0.1155  0.0889 -0.7861
  181POPC   H9120740   6.791  -0.550   5.339 -0.1182 -0.1026 -0.9627
  181POPC  C21020741   6.832  -0.480   5.144  0.5468 -0.1954 -0.1516
  181POPC  H10120742   6.729  -0.504   5.114  0.4775 -1.2449  0.8582
  181POPC  C21120743   6.928  -0.416   5.041  0.5311 -0.2431 -0.1342
  181POPC  H11R20744   6.983  -0.331   5.085  0.1647  0.0615 -0.2580
  181POPC  H11S20745   6.861  -0.380   4.960  0.2162  3.2711  1.5005
  181POPC  C21220746   7.029  -0.517   4.986  0.2076 -0.1535 -0.6573
  181POPC  H12R20747   6.969  -0.583   4.919  1.8791 -2.5432  0.0703
  181POPC  H12S20748   7.067  -0.577   5.071  0.9875  1.4960  0.1915
  181POPC  C21320749   7.148  -0.459   4.903  0.5033 -0.0984  0.0732
  181POPC  H13R20750   7.188  -0.369   4.955 -0.6727  1.7407 -2.0492
  181POPC  H13S20751   7.117  -0.405   4.812  0.3767  0.4773  0.4507
  181POPC  C21420752   7.245  -0.572   4.888  0.1106 -0.7795  0.5063
  181POPC  H14R20753   7.197  -0.640   4.814 -0.4418  0.2472 -0.1053
  181POPC  H14S20754   7.269  -0.636   4.976  2.5154 -0.8715 -0.1367
  181POPC  C21520755   7.380  -0.521   4.836  0.2420 -0.0298  0.9136
  181POPC  H15R20756   7.422  -0.442   4.901  0.7651  0.2786  0.2152
  181POPC  H15S20757   7.371  -0.476   4.735 -0.7831 -0.5711  0.7534
  181POPC  C21620758   7.480  -0.639   4.846 -0.3556 -0.3315  0.0954
  181POPC  H16R20759   7.474  -0.705   4.757 -2.1426 -0.0931 -0.0002
  181POPC  H16S20760   7.461  -0.701   4.936 -1.0273  0.5716  0.5974
  181POPC  C21720761   7.620  -0.586   4.849 -0.0311 -0.2984 -0.3818
  181POPC  H17R20762   7.618  -0.535   4.948 -1.3360 -1.0677  0.0192
  181POPC  H17S20763   7.629  -0.504   4.775  0.7377  0.0913  0.1365
  181POPC  C21820764   7.733  -0.688   4.822  0.0316 -0.2699 -0.6024
  181POPC  H18R20765   7.833  -0.644   4.838 -0.4462  1.1090 -1.1779
  181POPC  H18S20766   7.729  -0.721   4.716  0.8528 -2.3743 -0.0059
  181POPC  H18T20767   7.717  -0.779   4.883  3.7978  0.0243  1.0327
  181POPC   C3320768   6.509  -0.414   5.779  0.1636  0.2033 -0.3050
  181POPC   H3X20769   6.550  -0.514   5.753  0.7254 -0.2535  2.1259
  181POPC   H3Y20770   6.596  -0.355   5.813 -0.6064 -0.3142  2.8957
  181POPC   C3420771   6.452  -0.339   5.658  0.0162  0.1950 -0.0749
  181POPC   H4X20772   6.431  -0.234   5.689  1.0186  0.4589 -0.2254
  181POPC   H4Y20773   6.353  -0.385   5.641  0.4962 -0.5834 -0.8293
  181POPC   C3520774   6.540  -0.337   5.535  0.0530  0.0465  0.4856
  181POPC   H5X20775   6.561  -0.442   5.503  0.3130  0.4490 -0.7443
  181POPC   H5Y20776   6.639  -0.297   5.565 -0.8368  0.4308  3.1647
  181POPC   C3620777   6.471  -0.262   5.412 -0.6382  0.5426 -0.9132
  181POPC   H6X20778   6.444  -0.159   5.443  0.4437  1.0545 -1.6252
  181POPC   H6Y20779   6.381  -0.324   5.390  0.6024 -1.7308  0.0971
  181POPC   C3720780   6.555  -0.253   5.279  0.3448  0.2581 -0.3747
  181POPC   H7X20781   6.583  -0.350   5.234 -0.1537 -0.7757  1.4409
  181POPC   H7Y20782   6.641  -0.191   5.312 -1.5502  3.8649 -1.5759
  181POPC   C3820783   6.483  -0.174   5.169  0.6875 -0.0805 -0.5845
  181POPC   H8X20784   6.447  -0.079   5.214  1.1007  0.1786 -0.8022
  181POPC   H8Y20785   6.395  -0.232   5.133 -0.1590  1.6020 -1.3143
  181POPC   C3920786   6.576  -0.151   5.045  0.2090  0.5213  0.7477
  181POPC   H9X20787   6.630  -0.245   5.022 -0.9992 -0.0560  0.1407
  181POPC   H9Y20788   6.652  -0.077   5.076  0.7179 -0.9158  3.1603
  181POPC  C31020789   6.497  -0.103   4.915  0.6371 -0.3628  0.4904
  181POPC  H10X20790   6.443  -0.008   4.934  0.8504 -0.5889  2.5630
  181POPC  H10Y20791   6.430  -0.184   4.879  1.5653 -0.9818  0.1104
  181POPC  C31120792   6.608  -0.085   4.812  0.2418 -1.1534  0.2561
  181POPC  H11X20793   6.654  -0.182   4.783 -0.5366 -1.8604  1.3105
  181POPC  H11Y20794   6.683  -0.013   4.850 -0.9625  0.9709 -1.1297
  181POPC  C31220795   6.546  -0.026   4.681  0.0145  0.6013  0.1481
  181POPC  H12X20796   6.620   0.006   4.605 -2.0415 -2.4197 -3.4242
  181POPC  H12Y20797   6.487   0.065   4.707 -3.2884 -1.6093  0.9928
  181POPC  C31320798   6.442  -0.112   4.606 -0.3662  0.6619 -0.0852
  181POPC  H13X20799   6.407  -0.045   4.524  2.3052  2.2667 -0.0479
  181POPC  H13Y20800   6.364  -0.135   4.681 -2.1669  1.5567 -1.5844
  181POPC  C31420801   6.511  -0.237   4.543  0.0647 -0.3202  0.6102
  181POPC  H14X20802   6.542  -0.307   4.624 -0.2229  0.0020  1.0026
  181POPC  H14Y20803   6.611  -0.208   4.507 -0.0546  1.5937  1.7021
  181POPC  C31520804   6.413  -0.315   4.448 -0.5235  0.2672 -0.0017
  181POPC  H15X20805   6.390  -0.238   4.370 -1.1316  0.2010  0.1061
  181POPC  H15Y20806   6.320  -0.337   4.505 -0.0606  1.3644  1.2377
  181POPC  C31620807   6.476  -0.437   4.382 -0.0132 -0.6055  0.5341
  181POPC  H16X20808   6.517  -0.501   4.462 -1.3910  0.1558  1.9092
  181POPC  H16Y20809   6.562  -0.412   4.316  0.0305 -0.6867  0.5602
  181POPC  H16Z20810   6.410  -0.497   4.315  0.5259 -0.1961 -0.3770
  182POPC     N20811   1.954   5.991   6.468  0.3341  0.3158 -0.6268
  182POPC   C1220812   1.988   6.141   6.441  0.1851  0.4776 -0.2263
  182POPC  H12A20813   1.890   6.183   6.423 -0.8247 -0.8676  1.7505
  182POPC  H12B20814   2.034   6.147   6.344  0.2119  0.0039 -0.2455
  182POPC   C1320815   1.909   5.985   6.618  0.1125  0.3027  0.7342
  182POPC  H13A20816   1.825   6.052   6.629 -0.7464 -0.3345 -1.4051
  182POPC  H13B20817   1.877   5.883   6.631  2.7563 -0.7349 -0.1892
  182POPC  H13C20818   1.977   6.002   6.700  0.9019 -0.4235  0.2522
  182POPC   C1420819   1.838   5.950   6.389 -0.1652 -0.0047 -0.0908
  182POPC  H14A20820   1.860   5.980   6.287 -0.7023  1.8513  0.2961
  182POPC  H14B20821   1.802   5.848   6.397 -2.3447  0.5243 -1.7854
  182POPC  H14C20822   1.751   6.008   6.418 -0.4968 -1.3249  1.6889
  182POPC   C1520823   2.075   5.915   6.447  0.0937 -0.1456  1.1437
  182POPC  H15A20824   2.060   5.809   6.464  0.2957 -0.1704  1.1592
  182POPC  H15B20825   2.158   5.955   6.503  0.7924  1.0500 -0.6727
  182POPC  H15C20826   2.101   5.921   6.342 -0.9093 -1.1024  0.8127
  182POPC   C1120827   2.064   6.222   6.550 -0.2229 -0.2877 -0.5711
  182POPC  H11A20828   1.998   6.231   6.639  1.3578 -2.8656  1.0158
  182POPC  H11B20829   2.079   6.326   6.516  0.4621  0.1326  0.9268
  182POPC     P20830   2.318   6.180   6.516 -0.2404  0.1059  0.2952
  182POPC   O1320831   2.368   6.044   6.493  0.2541  0.6693  0.2179
  182POPC   O1420832   2.404   6.273   6.591  0.3270  0.5024 -0.3617
  182POPC   O1220833   2.185   6.159   6.598  0.3310  0.4431 -0.0285
  182POPC   O1120834   2.289   6.259   6.378  0.5592 -1.0265 -0.0176
  182POPC    C120835   2.261   6.185   6.260  0.0940  0.5014 -0.2133
  182POPC    HA20836   2.171   6.229   6.211 -0.5257 -1.0496 -0.5140
  182POPC    HB20837   2.237   6.077   6.274  1.7418 -0.3901 -3.4154
  182POPC    C220838   2.383   6.182   6.166  0.0205 -0.3770  0.2269
  182POPC    HS20839   2.439   6.091   6.198 -0.2221 -0.6963 -0.2320
  182POPC   O2120840   2.462   6.302   6.187 -0.7201  0.6919 -0.0251
  182POPC   C2120841   2.595   6.286   6.174 -0.7140  0.8715  0.3852
  182POPC   O2220842   2.654   6.179   6.157 -0.0675 -0.2438  0.5781
  182POPC   C2220843   2.659   6.420   6.173  0.3128  0.0664  0.7782
  182POPC   H2R20844   2.685   6.435   6.280  0.5286 -0.7085  0.8396
  182POPC   H2S20845   2.588   6.502   6.150  0.6780  0.6032  1.5196
  182POPC    C320846   2.339   6.171   6.019 -0.1314 -0.1668  0.0258
  182POPC    HX20847   2.264   6.089   6.018 -0.7260  0.3652  0.7079
  182POPC    HY20848   2.428   6.130   5.966 -0.9166  1.0064 -2.3352
  182POPC   O3120849   2.298   6.290   5.957  0.0773 -0.0276  0.2233
  182POPC   C3120850   2.170   6.320   5.930  0.6733  0.0401 -0.2592
  182POPC   O3220851   2.075   6.247   5.959  0.7171 -0.2719  0.5787
  182POPC   C3220852   2.156   6.457   5.869  0.1426 -0.5731  0.1890
  182POPC   H2X20853   2.254   6.507   5.851  0.1827 -0.8041 -0.2474
  182POPC   H2Y20854   2.106   6.529   5.937 -3.5646 -1.1904 -1.6461
  182POPC   C2320855   2.799   6.419   6.107 -0.5170 -0.0575  0.4501
  182POPC   H3R20856   2.845   6.319   6.121 -0.7023 -0.3106 -0.6563
  182POPC   H3S20857   2.869   6.497   6.144 -2.1964  2.9552 -2.2008
  182POPC   C2420858   2.799   6.449   5.953 -0.1274 -0.0763  0.1905
  182POPC   H4R20859   2.777   6.555   5.931 -0.8373 -0.8469 -3.3560
  182POPC   H4S20860   2.714   6.394   5.907 -0.4419 -1.5277  2.3276
  182POPC   C2520861   2.921   6.426   5.878  0.8225  0.5478  0.1561
  182POPC   H5R20862   2.947   6.321   5.901 -0.6131  0.3381  0.9314
  182POPC   H5S20863   3.003   6.490   5.918  1.3310  0.3012 -0.4921
  182POPC   C2620864   2.914   6.445   5.728  0.4118  0.6598  0.9568
  182POPC   H6R20865   2.899   6.551   5.695 -0.4627 -0.1699 -1.5392
  182POPC   H6S20866   2.826   6.389   5.690  0.8258  0.0491  0.9034
  182POPC   C2720867   3.032   6.390   5.651 -0.1616  0.2153 -0.2058
  182POPC   H7R20868   3.030   6.279   5.648 -1.6535  0.2340 -0.8043
  182POPC   H7S20869   3.116   6.434   5.708  0.4839  0.5984 -1.4165
  182POPC   C2820870   3.040   6.439   5.507 -0.2973 -0.3189  0.3723
  182POPC   H8R20871   3.056   6.549   5.512 -0.0333 -0.2697 -1.1940
  182POPC   H8S20872   2.951   6.431   5.442  1.2444  0.9314 -2.0667
  182POPC   C2920873   3.160   6.373   5.437  0.1407  0.1330 -0.4068
  182POPC   H9120874   3.189   6.273   5.472 -2.5580 -1.2576 -1.7835
  182POPC  C21020875   3.234   6.437   5.348 -0.4414  0.2388 -0.1230
  182POPC  H10120876   3.324   6.386   5.311 -0.1707  0.8796 -0.3408
  182POPC  C21120877   3.206   6.569   5.275  0.0145  0.4555  0.1157
  182POPC  H11R20878   3.297   6.632   5.275 -0.3890  1.0746 -1.3708
  182POPC  H11S20879   3.123   6.624   5.324  0.2928  2.3398 -1.4372
  182POPC  C21220880   3.175   6.554   5.125  0.4999  0.1538  0.4919
  182POPC  H12R20881   3.168   6.656   5.081  3.0605  1.0074  1.8904
  182POPC  H12S20882   3.087   6.490   5.103  1.2360 -0.9644  0.7163
  182POPC  C21320883   3.279   6.473   5.032  0.3983 -1.1372  0.0639
  182POPC  H13R20884   3.280   6.367   5.067 -0.4131 -1.0074  0.4966
  182POPC  H13S20885   3.376   6.521   5.054 -0.4440  1.5973 -1.6544
  182POPC  C21420886   3.244   6.468   4.879 -0.2721  0.5591 -0.0061
  182POPC  H14R20887   3.245   6.566   4.828  0.0623  0.8556  0.5548
  182POPC  H14S20888   3.144   6.422   4.866  0.1400 -0.4102  0.1476
  182POPC  C21520889   3.343   6.375   4.804  0.6905  0.0374 -0.2634
  182POPC  H15R20890   3.335   6.273   4.847 -2.8773 -0.2935 -1.3260
  182POPC  H15S20891   3.448   6.404   4.826  0.3888  0.4313  0.7081
  182POPC  C21620892   3.318   6.363   4.656  0.5176 -0.1329  0.2587
  182POPC  H16R20893   3.378   6.277   4.619  1.1130  0.8569 -1.1509
  182POPC  H16S20894   3.340   6.462   4.612 -0.0689 -0.4932 -0.8658
  182POPC  C21720895   3.177   6.317   4.621 -0.2548  0.0661  0.1718
  182POPC  H17R20896   3.099   6.395   4.629 -1.3452 -1.1347  1.6867
  182POPC  H17S20897   3.147   6.231   4.685  3.1817 -1.1690  0.3370
  182POPC  C21820898   3.173   6.260   4.477 -0.1417 -0.0599  0.4570
  182POPC  H18R20899   3.192   6.332   4.395 -0.8828 -1.1740 -0.7414
  182POPC  H18S20900   3.068   6.232   4.451 -0.2749  1.0640 -0.2988
  182POPC  H18T20901   3.250   6.181   4.467  1.1160  0.9894  1.4266
  182POPC   C3320902   2.063   6.467   5.746  0.7148  0.5946  0.2798
  182POPC   H3X20903   1.996   6.556   5.754 -0.3958  0.1127 -2.5912
  182POPC   H3Y20904   1.986   6.387   5.743 -1.5286  2.6246  0.2285
  182POPC   C3420905   2.123   6.480   5.607  0.0052 -0.4640 -0.1327
  182POPC   H4X20906   2.178   6.576   5.592 -1.7890  0.1857 -3.8275
  182POPC   H4Y20907   2.042   6.481   5.531 -1.2665  0.1661  1.1642
  182POPC   C3520908   2.212   6.370   5.569  0.6045  0.7263 -0.0905
  182POPC   H5X20909   2.153   6.277   5.557 -1.0284  1.3564  2.3409
  182POPC   H5Y20910   2.280   6.342   5.652  0.5332 -0.6128 -0.4561
  182POPC   C3620911   2.288   6.389   5.436  0.5046 -0.1792  0.4327
  182POPC   H6X20912   2.360   6.474   5.435  2.0339 -1.4147 -1.2372
  182POPC   H6Y20913   2.201   6.420   5.375 -2.0231 -1.9333  2.9177
  182POPC   C3720914   2.355   6.264   5.386  0.0171 -0.0350  0.0494
  182POPC   H7X20915   2.284   6.179   5.388 -1.2444  0.9807  0.8107
  182POPC   H7Y20916   2.437   6.237   5.454 -1.0225  0.9526  1.7778
  182POPC   C3820917   2.407   6.267   5.240  0.7040 -0.0218 -0.1869
  182POPC   H8X20918   2.432   6.167   5.199 -0.0752 -0.5006  0.4597
  182POPC   H8Y20919   2.494   6.335   5.226  1.4340 -0.7390  0.7575
  182POPC   C3920920   2.300   6.325   5.143 -0.0159  0.2489  0.6667
  182POPC   H9X20921   2.311   6.436   5.137  0.4834  0.1370 -0.9012
  182POPC   H9Y20922   2.199   6.296   5.179 -0.3341  0.5429  0.0341
  182POPC  C31020923   2.316   6.266   5.008 -0.2372 -0.5536  0.1207
  182POPC  H10X20924   2.298   6.157   5.013 -0.4027 -0.5418 -0.2233
  182POPC  H10Y20925   2.417   6.287   4.966 -1.3191  1.3058 -1.7311
  182POPC  C31120926   2.207   6.315   4.911 -0.3128 -0.2559  0.4110
  182POPC  H11X20927   2.220   6.425   4.897  0.1570 -0.5165 -1.3940
  182POPC  H11Y20928   2.115   6.303   4.971  0.3697  0.0980  1.5743
  182POPC  C31220929   2.199   6.232   4.785  0.2908  0.4998 -0.7732
  182POPC  H12X20930   2.099   6.235   4.738 -0.0174  1.6842 -0.0963
  182POPC  H12Y20931   2.217   6.125   4.809 -0.2057  0.7625  0.8957
  182POPC  C31320932   2.301   6.277   4.682 -0.8966 -0.4890 -0.6240
  182POPC  H13X20933   2.400   6.243   4.717 -0.7109  0.2616 -0.4073
  182POPC  H13Y20934   2.300   6.388   4.680 -1.1229 -0.4936 -1.1804
  182POPC  C31420935   2.269   6.232   4.541 -0.0009  0.5454  0.0238
  182POPC  H14X20936   2.169   6.267   4.506  0.1574  0.1066 -0.8956
  182POPC  H14Y20937   2.250   6.123   4.543  1.7765  0.1978 -0.6455
  182POPC  C31520938   2.379   6.257   4.439  0.2904 -0.2299  0.0674
  182POPC  H15X20939   2.459   6.180   4.447  1.4450  1.0414  1.1044
  182POPC  H15Y20940   2.429   6.354   4.459  2.4960 -1.2781 -0.1095
  182POPC  C31620941   2.332   6.248   4.294  0.2471  0.0071  0.8373
  182POPC  H16X20942   2.415   6.281   4.227 -1.0097  0.9015 -0.3164
  182POPC  H16Y20943   2.239   6.301   4.266 -0.5527 -0.6961  2.0630
  182POPC  H16Z20944   2.316   6.139   4.279  1.0168  0.1408 -1.2713
  183POPC     N20945   6.046   2.975   6.835  0.3439 -0.3562  0.0809
  183POPC   C1220946   5.926   2.905   6.779 -0.0416  0.3120  0.3980
  183POPC  H12A20947   5.839   2.958   6.812 -0.6710 -0.0408 -0.6298
  183POPC  H12B20948   5.900   2.817   6.836  0.7257 -0.6962 -0.7415
  183POPC   C1320949   6.016   3.025   6.973 -0.0563  0.1405 -0.3401
  183POPC  H13A20950   6.111   3.041   7.023  0.3387  0.4006 -1.1455
  183POPC  H13B20951   5.959   3.116   6.982  1.3673  1.0093  0.4372
  183POPC  H13C20952   5.954   2.958   7.030 -3.0431  2.0231 -1.1363
  183POPC   C1420953   6.161   2.876   6.837 -0.6837  0.3262 -0.4616
  183POPC  H14A20954   6.249   2.913   6.890 -2.1703  2.4783  0.6716
  183POPC  H14B20955   6.128   2.788   6.889 -0.0907  0.4344  0.1092
  183POPC  H14C20956   6.184   2.847   6.736 -2.2467 -0.2006 -0.6922
  183POPC   C1520957   6.094   3.084   6.742 -0.9960  1.0085  0.1554
  183POPC  H15A20958   6.188   3.117   6.784 -0.0242  0.9173 -1.8284
  183POPC  H15B20959   6.021   3.162   6.728 -0.3501  1.8157  1.0878
  183POPC  H15C20960   6.126   3.048   6.645  1.0805  1.1180  0.7406
  183POPC   C1120961   5.933   2.889   6.625 -0.6208 -0.9024 -0.4104
  183POPC  H11A20962   5.939   2.986   6.570  2.7514  0.6625  2.2820
  183POPC  H11B20963   5.846   2.831   6.588  0.3889 -1.7937 -1.4805
  183POPC     P20964   6.060   2.687   6.517 -0.3671 -0.2893 -0.2054
  183POPC   O1320965   5.981   2.598   6.606  0.9364 -0.3629 -0.5976
  183POPC   O1420966   6.206   2.660   6.499  0.3879 -0.4768 -0.0870
  183POPC   O1220967   6.048   2.828   6.574 -0.4104 -0.0926  0.1456
  183POPC   O1120968   5.981   2.706   6.380 -0.3439 -0.1899 -0.3928
  183POPC    C120969   6.011   2.820   6.295  0.3897  0.5915  0.2245
  183POPC    HA20970   6.036   2.914   6.348 -2.0926  2.4768 -1.6940
  183POPC    HB20971   5.924   2.840   6.230 -0.5218 -1.7509  0.6355
  183POPC    C220972   6.121   2.767   6.195  0.0100  0.6619 -0.2672
  183POPC    HS20973   6.209   2.730   6.252  0.1124 -1.1657 -1.5343
  183POPC   O2120974   6.155   2.872   6.105 -0.1353  0.7292  0.1058
  183POPC   C2120975   6.255   2.946   6.144  0.5823  0.2654 -0.8699
  183POPC   O2220976   6.309   2.943   6.255  0.0237  0.4284  0.2717
  183POPC   C2220977   6.290   3.055   6.043 -0.3335  0.0554  0.4074
  183POPC   H2R20978   6.320   3.017   5.943  0.1165  2.9560 -0.6572
  183POPC   H2S20979   6.381   3.101   6.087 -0.1859 -2.2378  2.7712
  183POPC    C320980   6.055   2.645   6.124 -0.1315 -0.0418 -0.0757
  183POPC    HX20981   5.946   2.663   6.116 -0.1125  0.9945  1.5371
  183POPC    HY20982   6.073   2.559   6.193  1.7428 -1.2894 -1.9781
  183POPC   O3120983   6.093   2.610   5.997  0.4685 -0.1397 -0.1004
  183POPC   C3120984   6.224   2.556   6.000  0.1180 -0.0885  0.0655
  183POPC   O3220985   6.297   2.546   6.098  0.4621 -0.0187 -0.3445
  183POPC   C3220986   6.266   2.503   5.859  0.1965 -0.0440  0.0346
  183POPC   H2X20987   6.184   2.537   5.791  1.3869  1.9069 -0.5132
  183POPC   H2Y20988   6.279   2.394   5.875 -2.6417 -0.1367  2.6063
  183POPC   C2320989   6.172   3.156   6.016  0.9680  0.0207 -0.5532
  183POPC   H3R20990   6.172   3.224   6.104  0.1095 -1.3281  0.5193
  183POPC   H3S20991   6.075   3.102   6.021  0.3014  0.9278 -2.4589
  183POPC   C2420992   6.188   3.238   5.884  0.0533  0.1525 -0.2395
  183POPC   H4R20993   6.096   3.296   5.860  0.2078 -0.3031 -2.0627
  183POPC   H4S20994   6.197   3.168   5.798 -1.2726  1.7256 -1.7478
  183POPC   C2520995   6.308   3.340   5.889  0.2080  0.7529  0.4858
  183POPC   H5R20996   6.407   3.290   5.872  1.2624  3.1267 -0.8127
  183POPC   H5S20997   6.315   3.381   5.992  0.9377  0.1644  0.6849
  183POPC   C2620998   6.306   3.463   5.791  0.7127  0.3064  0.1351
  183POPC   H6R20999   6.404   3.510   5.812  0.3643  1.6113 -1.0551
  183POPC   H6S21000   6.215   3.522   5.817  1.0651  1.5112 -1.2408
  183POPC   C2721001   6.284   3.423   5.644 -0.0713  0.0812 -0.2691
  183POPC   H7R21002   6.181   3.382   5.631 -0.0362 -0.4897  1.0649
  183POPC   H7S21003   6.368   3.355   5.618  1.0191  0.8651  1.0550
  183POPC   C2821004   6.291   3.543   5.546 -0.4110 -1.1834 -0.2349
  183POPC   H8R21005   6.208   3.615   5.559 -0.1464 -0.5095 -1.9260
  183POPC   H8S21006   6.279   3.505   5.442 -1.0402  1.8220 -1.3801
  183POPC   C2921007   6.409   3.634   5.552  0.4954  1.0159 -0.2982
  183POPC   H9121008   6.416   3.693   5.645  2.9588 -0.5291  0.5893
  183POPC  C21021009   6.504   3.664   5.461 -0.5771 -0.9277 -0.8264
  183POPC  H10121010   6.590   3.730   5.482 -1.7197  0.8180 -1.3826
  183POPC  C21121011   6.508   3.621   5.322  0.2973  0.0088  0.9954
  183POPC  H11R21012   6.456   3.525   5.306 -0.7210  0.6260  0.4999
  183POPC  H11S21013   6.615   3.614   5.291 -0.1466  2.0835 -1.3661
  183POPC  C21221014   6.432   3.721   5.234 -0.6634 -0.0853 -0.4442
  183POPC  H12R21015   6.335   3.735   5.285 -0.1609  0.1262  0.4666
  183POPC  H12S21016   6.436   3.665   5.138  2.3897 -2.4847  0.8902
  183POPC  C21321017   6.502   3.858   5.216 -0.2796  0.5083  0.1999
  183POPC  H13R21018   6.590   3.845   5.149 -1.1966  2.0311 -1.3594
  183POPC  H13S21019   6.542   3.881   5.317 -1.4136 -1.4646  1.1464
  183POPC  C21421020   6.407   3.973   5.170  0.3302 -0.8134  0.3957
  183POPC  H14R21021   6.352   3.934   5.082 -0.7213  0.2534  0.5542
  183POPC  H14S21022   6.460   4.057   5.120 -0.9377  0.5636  1.2793
  183POPC  C21521023   6.298   4.023   5.271  0.0967 -0.5185 -0.0521
  183POPC  H15R21024   6.227   3.938   5.273 -0.9652  0.2435 -2.1520
  183POPC  H15S21025   6.243   4.113   5.236  1.3495 -0.3244 -1.6223
  183POPC  C21621026   6.356   4.064   5.405  0.2970 -0.7550  0.3981
  183POPC  H16R21027   6.410   4.161   5.399 -0.8475 -0.1218 -0.0685
  183POPC  H16S21028   6.423   3.983   5.439  1.5798 -1.0535 -2.5700
  183POPC  C21721029   6.249   4.098   5.516 -0.1299 -0.1559  0.0440
  183POPC  H17R21030   6.178   4.177   5.484 -0.9121 -0.9290 -0.1544
  183POPC  H17S21031   6.311   4.135   5.601  2.0800  1.7499 -2.2216
  183POPC  C21821032   6.181   3.967   5.566  0.3507  0.4124 -0.3739
  183POPC  H18R21033   6.123   3.911   5.490  1.1481  0.6447 -1.1782
  183POPC  H18S21034   6.123   3.995   5.657  2.5985  2.3996  0.5555
  183POPC  H18T21035   6.253   3.896   5.611  0.7962  1.4796  0.6405
  183POPC   C3321036   6.406   2.549   5.818 -0.0777  0.5047 -0.4380
  183POPC   H3X21037   6.432   2.490   5.728  1.4845  1.5157 -0.6925
  183POPC   H3Y21038   6.476   2.509   5.895  0.4616 -1.2310 -1.7732
  183POPC   C3421039   6.438   2.693   5.791  1.2323 -0.1801 -0.6543
  183POPC   H4X21040   6.543   2.697   5.756  0.6750 -1.2877 -2.6227
  183POPC   H4Y21041   6.428   2.744   5.889  3.4162 -2.3713  0.8437
  183POPC   C3521042   6.357   2.762   5.690  0.3161  0.9957 -0.0966
  183POPC   H5X21043   6.262   2.795   5.738  0.0717 -0.1865  0.2646
  183POPC   H5Y21044   6.319   2.692   5.613 -1.2874 -0.0900  1.5775
  183POPC   C3621045   6.434   2.877   5.625  0.0984 -0.4322 -0.6346
  183POPC   H6X21046   6.524   2.843   5.569 -0.1802 -1.5745 -0.4121
  183POPC   H6Y21047   6.474   2.947   5.702  1.5346  2.8042 -4.0442
  183POPC   C3721048   6.353   2.974   5.544  0.4198 -0.4844  0.5052
  183POPC   H7X21049   6.277   3.022   5.610 -2.5538 -0.9637 -2.2786
  183POPC   H7Y21050   6.295   2.911   5.473  1.9550 -0.0005 -1.2400
  183POPC   C3821051   6.437   3.080   5.474 -0.3090  0.1394  0.5439
  183POPC   H8X21052   6.510   3.033   5.405 -0.2755  1.5958 -0.4508
  183POPC   H8Y21053   6.499   3.137   5.546 -1.8231  1.2153  1.0550
  183POPC   C3921054   6.348   3.170   5.388 -0.7380  0.2357  0.5483
  183POPC   H9X21055   6.285   3.240   5.448 -1.7879  0.9574 -1.3204
  183POPC   H9Y21056   6.276   3.110   5.329 -0.0226  0.6043 -0.7318
  183POPC  C31021057   6.429   3.239   5.284  0.6783 -0.6595 -0.0740
  183POPC  H10X21058   6.492   3.176   5.217 -0.7913 -2.0853 -0.1710
  183POPC  H10Y21059   6.502   3.308   5.331 -0.4489  1.1220 -0.8332
  183POPC  C31121060   6.344   3.316   5.182 -0.1101 -0.3562  0.1237
  183POPC  H11X21061   6.288   3.391   5.242 -1.1899 -0.8649 -0.2267
  183POPC  H11Y21062   6.268   3.242   5.147 -2.2338  1.7843 -0.1053
  183POPC  C31221063   6.426   3.374   5.065  0.0360 -0.1061 -0.3931
  183POPC  H12X21064   6.479   3.291   5.013  0.9638 -0.2054  0.6643
  183POPC  H12Y21065   6.501   3.444   5.108 -1.9016  0.9521  1.4503
  183POPC  C31321066   6.333   3.459   4.974 -0.2895 -0.0682 -0.0533
  183POPC  H13X21067   6.279   3.526   5.044  2.0906 -0.3811  2.2529
  183POPC  H13Y21068   6.266   3.382   4.929 -2.0991  0.2333  1.9331
  183POPC  C31421069   6.391   3.528   4.853 -0.5802  0.4205 -0.6163
  183POPC  H14X21070   6.463   3.464   4.798  0.1389  1.3882 -0.8296
  183POPC  H14Y21071   6.443   3.620   4.887 -1.0790 -0.0492  1.5530
  183POPC  C31521072   6.293   3.574   4.749 -0.2238  0.0041 -0.6059
  183POPC  H15X21073   6.229   3.650   4.799 -0.0242 -0.1456 -0.1235
  183POPC  H15Y21074   6.227   3.488   4.724 -0.7400  0.6454 -1.5190
  183POPC  C31621075   6.356   3.627   4.624  0.2355 -0.3962  0.0010
  183POPC  H16X21076   6.281   3.687   4.569 -2.0827 -1.7159  1.5690
  183POPC  H16Y21077   6.401   3.547   4.562 -0.0713 -0.0887 -0.6322
  183POPC  H16Z21078   6.443   3.692   4.645 -1.7118  2.3552  0.0216
  184POPC     N21079   6.026   5.135   6.759 -0.0304 -0.5958 -0.0732
  184POPC   C1221080   6.005   5.136   6.606  0.6850 -0.9989 -0.7042
  184POPC  H12A21081   6.063   5.219   6.569 -0.1954 -0.2865 -0.5096
  184POPC  H12B21082   5.900   5.157   6.593  0.7735 -1.4955 -2.3780
  184POPC   C1321083   5.928   5.043   6.817  0.1491 -0.1207 -0.1617
  184POPC  H13A21084   5.826   5.070   6.791 -0.1314 -1.2877 -0.3280
  184POPC  H13B21085   5.936   4.944   6.776  0.6360 -0.3367  0.4294
  184POPC  H13C21086   5.940   5.056   6.924 -1.0856  2.2364 -0.2552
  184POPC   C1421087   6.163   5.083   6.789  0.2537 -0.5896  0.1796
  184POPC  H14A21088   6.185   5.092   6.894  0.0434 -2.2686  0.4010
  184POPC  H14B21089   6.161   4.976   6.772  3.5006 -0.7854  0.4333
  184POPC  H14C21090   6.240   5.140   6.739  1.1640 -0.6401  1.4717
  184POPC   C1521091   6.006   5.270   6.829 -0.0683  0.0870  0.6440
  184POPC  H15A21092   6.087   5.338   6.810 -0.4721  0.7915  1.3632
  184POPC  H15B21093   6.012   5.247   6.935  0.4964  2.4106  1.1653
  184POPC  H15C21094   5.906   5.305   6.808 -0.2665 -0.1883  1.0955
  184POPC   C1121095   6.052   5.010   6.534  0.8026 -0.4202  0.0764
  184POPC  H11A21096   6.161   4.993   6.537  1.4157  2.6483 -1.1760
  184POPC  H11B21097   6.025   5.029   6.427  2.9788  3.5883  0.0370
  184POPC     P21098   5.987   4.749   6.520  0.0559  0.6425 -0.3038
  184POPC   O1321099   5.866   4.683   6.567 -0.7482  0.3782  0.0605
  184POPC   O1421100   6.115   4.680   6.558  0.0728 -0.5368 -0.4462
  184POPC   O1221101   5.984   4.892   6.592 -0.7026 -0.1126  0.0137
  184POPC   O1121102   5.988   4.781   6.372 -0.3302 -0.3597  0.0415
  184POPC    C121103   6.087   4.730   6.276  0.5044 -0.4623 -0.1957
  184POPC    HA21104   6.087   4.619   6.283  0.6719 -0.5625 -1.5739
  184POPC    HB21105   6.188   4.770   6.294 -0.0506  1.9251 -1.9060
  184POPC    C221106   6.050   4.782   6.134  0.4111  0.8748 -0.5464
  184POPC    HS21107   5.945   4.750   6.115  1.3582 -2.9849  0.0933
  184POPC   O2121108   6.128   4.729   6.026 -0.3417 -0.5551 -0.0406
  184POPC   C2121109   6.123   4.597   6.016 -1.4748  0.3884 -0.1511
  184POPC   O2221110   6.043   4.521   6.066  0.3142 -0.6136 -0.0402
  184POPC   C2221111   6.233   4.549   5.924 -0.2038  0.0218 -0.7742
  184POPC   H2R21112   6.264   4.450   5.965 -2.0502 -0.6894 -1.0190
  184POPC   H2S21113   6.330   4.603   5.934  0.1000 -0.4741 -0.9598
  184POPC    C321114   6.041   4.934   6.127 -0.4508  0.2725  0.8683
  184POPC    HX21115   6.138   4.983   6.148 -0.3265  1.1278 -1.4143
  184POPC    HY21116   5.968   4.973   6.202 -0.6586  2.0522 -0.1969
  184POPC   O3121117   5.995   4.980   6.000  0.1687  0.4649 -0.0553
  184POPC   C3121118   6.083   5.044   5.925 -0.8124  0.5969 -0.8995
  184POPC   O3221119   6.202   5.075   5.955  0.3263 -0.1222 -0.3984
  184POPC   C3221120   6.016   5.071   5.797 -0.2326  0.1302 -0.0768
  184POPC   H2X21121   5.922   5.122   5.830 -0.9315 -2.2633  2.0109
  184POPC   H2Y21122   6.001   4.973   5.749  0.9855 -1.0357  1.7822
  184POPC   C2321123   6.200   4.546   5.772 -0.3090  0.4989  1.0416
  184POPC   H3R21124   6.101   4.496   5.757 -0.4590  1.4146 -1.6148
  184POPC   H3S21125   6.265   4.487   5.704  0.7718  2.5310  0.2481
  184POPC   C2421126   6.197   4.689   5.712 -0.3347  0.4388  0.1188
  184POPC   H4R21127   6.291   4.742   5.738 -1.2955  1.5234  1.5863
  184POPC   H4S21128   6.110   4.741   5.758 -0.4617 -0.8478  1.4224
  184POPC   C2521129   6.199   4.700   5.558 -0.0876 -0.4446  0.5739
  184POPC   H5R21130   6.290   4.654   5.513 -1.0085  0.5281 -2.5232
  184POPC   H5S21131   6.211   4.807   5.530 -2.4425  0.2372  1.9317
  184POPC   C2621132   6.087   4.643   5.483 -0.4807  0.3700 -0.5470
  184POPC   H6R21133   5.995   4.688   5.526 -1.5571  0.8804 -3.2158
  184POPC   H6S21134   6.084   4.532   5.490  0.1562  0.4101  0.6525
  184POPC   C2721135   6.092   4.673   5.332  1.2266  0.9767 -0.6219
  184POPC   H7R21136   6.195   4.667   5.289  1.3379 -0.7111 -0.2081
  184POPC   H7S21137   6.059   4.777   5.311  1.0550  1.4260  1.6575
  184POPC   C2821138   6.001   4.569   5.254  0.4740  0.4753 -0.8897
  184POPC   H8R21139   5.998   4.605   5.149  2.8188  1.6872 -0.5920
  184POPC   H8S21140   5.897   4.570   5.293  0.2326 -1.9552 -1.3349
  184POPC   C2921141   6.040   4.420   5.263 -0.4957  0.4720 -0.0972
  184POPC   H9121142   6.047   4.362   5.356  0.8470 -0.8308 -0.9642
  184POPC  C21021143   6.067   4.347   5.145  0.1620 -0.0595 -0.8341
  184POPC  H10121144   6.089   4.240   5.151 -0.5717 -0.3078 -2.2745
  184POPC  C21121145   6.073   4.416   5.013 -0.6182  0.2089 -0.0551
  184POPC  H11R21146   6.130   4.511   5.017 -1.0091  0.3863  2.2809
  184POPC  H11S21147   5.971   4.453   4.989 -0.0960  2.3416  0.8216
  184POPC  C21221148   6.131   4.328   4.900 -0.1099  0.0018  0.3306
  184POPC  H12R21149   6.241   4.319   4.907  0.0353 -1.0190 -2.3098
  184POPC  H12S21150   6.111   4.379   4.803 -3.4874  1.4311  1.5899
  184POPC  C21321151   6.086   4.177   4.885  0.2503  0.0697  0.3804
  184POPC  H13R21152   5.981   4.163   4.918  0.0110 -1.6497 -0.9557
  184POPC  H13S21153   6.145   4.110   4.952 -0.9045 -2.2797 -0.8349
  184POPC  C21421154   6.101   4.127   4.742 -0.0829  0.4129 -0.1002
  184POPC  H14R21155   6.034   4.173   4.666  1.0836 -1.0228 -2.0940
  184POPC  H14S21156   6.079   4.018   4.750  2.2996 -0.2540 -1.5690
  184POPC  C21521157   6.245   4.117   4.674  0.9314 -0.3182 -0.3677
  184POPC  H15R21158   6.294   4.212   4.643  1.2593 -1.0692 -2.2732
  184POPC  H15S21159   6.235   4.061   4.579  0.1629  0.2062 -0.6138
  184POPC  C21621160   6.342   4.050   4.763  0.0678 -0.3871 -0.7668
  184POPC  H16R21161   6.293   3.953   4.785 -0.4041  0.2484  1.2119
  184POPC  H16S21162   6.345   4.110   4.856 -1.0197  2.3259 -2.3401
  184POPC  C21721163   6.478   4.018   4.701 -0.6867 -0.5811  0.1536
  184POPC  H17R21164   6.513   4.122   4.683 -1.6375  0.4597  3.6285
  184POPC  H17S21165   6.471   3.956   4.609 -0.4055  0.4166 -0.5631
  184POPC  C21821166   6.569   3.947   4.802  0.0956  0.3179  0.0546
  184POPC  H18R21167   6.573   3.997   4.901  0.2918 -0.0019  0.2097
  184POPC  H18S21168   6.672   3.947   4.759  1.5862  3.3432  3.1253
  184POPC  H18T21169   6.533   3.843   4.817 -0.2156  0.1823 -1.4193
  184POPC   C3321170   6.094   5.169   5.703  0.5777 -0.2327 -0.8958
  184POPC   H3X21171   6.197   5.131   5.685  1.8918  0.9838  2.9992
  184POPC   H3Y21172   6.114   5.267   5.752  2.0290 -1.4771  1.1729
  184POPC   C3421173   6.030   5.182   5.563 -0.2933  0.6655 -1.1341
  184POPC   H4X21174   5.920   5.195   5.574 -0.0378  1.9639  0.1876
  184POPC   H4Y21175   6.046   5.087   5.509  0.8891 -0.9333  1.8385
  184POPC   C3521176   6.091   5.304   5.483 -0.1458 -0.8429 -0.1727
  184POPC   H5X21177   6.198   5.310   5.513  0.3031 -0.7888 -1.6878
  184POPC   H5Y21178   6.034   5.391   5.520 -0.3598 -0.9343 -0.2852
  184POPC   C3621179   6.089   5.285   5.326 -0.0870 -0.4680 -0.1168
  184POPC   H6X21180   5.986   5.254   5.298  0.2051 -0.5213 -1.1549
  184POPC   H6Y21181   6.162   5.205   5.300  0.2521 -0.0801 -0.3667
  184POPC   C3721182   6.104   5.419   5.250  0.7456 -0.4924  0.4794
  184POPC   H7X21183   6.207   5.448   5.220  0.5170  2.0546  1.9084
  184POPC   H7Y21184   6.087   5.503   5.321  0.9639 -0.4908  0.5298
  184POPC   C3821185   6.019   5.437   5.115 -0.2892 -0.0402 -0.2962
  184POPC   H8X21186   6.021   5.544   5.084  2.2627 -0.1256 -0.6319
  184POPC   H8Y21187   5.913   5.414   5.137 -0.0715  0.5453  1.5710
  184POPC   C3921188   6.068   5.352   5.003  0.1664  0.0891 -0.4899
  184POPC   H9X21189   5.989   5.344   4.925  0.1893 -0.4292 -0.4626
  184POPC   H9Y21190   6.084   5.244   5.024 -0.8543 -0.3228 -1.6854
  184POPC  C31021191   6.197   5.411   4.937 -0.9770  0.0676 -0.3659
  184POPC  H10X21192   6.273   5.426   5.017  0.8387 -0.7091 -1.8537
  184POPC  H10Y21193   6.170   5.511   4.898 -1.7284 -0.1501 -0.4104
  184POPC  C31121194   6.257   5.319   4.826 -0.3399  0.2116 -0.3065
  184POPC  H11X21195   6.182   5.310   4.745 -0.8441 -0.8000  0.2418
  184POPC  H11Y21196   6.279   5.220   4.872 -1.3223 -0.0971 -0.4781
  184POPC  C31221197   6.374   5.391   4.766 -0.0872 -0.2929  0.3169
  184POPC  H12X21198   6.355   5.500   4.754  0.4486 -0.2007  0.2611
  184POPC  H12Y21199   6.386   5.355   4.661  0.9228  1.4191 -0.1894
  184POPC  C31321200   6.511   5.365   4.831 -0.4729  0.1678  0.9339
  184POPC  H13X21201   6.481   5.328   4.932 -0.1009 -1.0605  0.6026
  184POPC  H13Y21202   6.580   5.452   4.840 -2.1358  1.5233  1.0814
  184POPC  C31421203   6.593   5.264   4.755 -1.1119  0.2883 -0.3322
  184POPC  H14X21204   6.643   5.300   4.662 -2.6209  0.9482 -0.9124
  184POPC  H14Y21205   6.520   5.186   4.724  1.2201 -1.6775 -1.2320
  184POPC  C31521206   6.709   5.199   4.839  0.4253  0.8079 -0.0196
  184POPC  H15X21207   6.665   5.168   4.936  1.4090  0.2941  0.2815
  184POPC  H15Y21208   6.788   5.277   4.844 -0.4351  1.7118 -0.1417
  184POPC  C31621209   6.770   5.071   4.780  0.2075 -0.5393  0.2690
  184POPC  H16X21210   6.700   5.031   4.704  2.1022 -0.3308 -1.7138
  184POPC  H16Y21211   6.798   4.994   4.856  4.4719  0.1736 -0.3225
  184POPC  H16Z21212   6.864   5.092   4.724  0.4431  0.9680  1.1778
  185POPC     N21213   3.401   2.024   2.352  0.0066 -0.1498  0.5720
  185POPC   C1221214   3.528   1.965   2.400 -0.0395 -0.1721 -0.0653
  185POPC  H12A21215   3.516   1.952   2.506 -2.7784 -0.2134 -0.2973
  185POPC  H12B21216   3.606   2.038   2.384 -0.8743  1.1047  1.4202
  185POPC   C1321217   3.387   2.168   2.406 -0.3502 -0.0548  0.0546
  185POPC  H13A21218   3.298   2.223   2.381 -0.6568 -0.2610  0.6928
  185POPC  H13B21219   3.389   2.164   2.514  0.9198  0.4176  0.0622
  185POPC  H13C21220   3.471   2.224   2.367 -1.1135  1.0345 -0.0561
  185POPC   C1421221   3.398   2.031   2.207  0.3707 -0.4010 -0.0082
  185POPC  H14A21222   3.482   2.086   2.167  0.2896  0.5700  1.1205
  185POPC  H14B21223   3.398   1.932   2.163  2.1860 -0.0474 -0.9299
  185POPC  H14C21224   3.304   2.077   2.183  0.8152  0.7768  0.4435
  185POPC   C1521225   3.285   1.948   2.399 -0.1942  0.2600 -0.3260
  185POPC  H15A21226   3.315   1.844   2.388  2.2975  0.7130  1.2052
  185POPC  H15B21227   3.197   1.973   2.343 -0.6971  1.0833  0.7819
  185POPC  H15C21228   3.272   1.962   2.506  1.2172  0.8492 -0.2120
  185POPC   C1121229   3.557   1.817   2.340 -0.1644  0.3425 -0.6476
  185POPC  H11A21230   3.656   1.788   2.381 -0.6789  0.1326  0.4968
  185POPC  H11B21231   3.564   1.823   2.229 -0.3446 -3.0661 -0.9506
  185POPC     P21232   3.474   1.571   2.346 -0.4818 -0.2265  0.3930
  185POPC   O1321233   3.484   1.560   2.197  0.4419 -0.3105  0.1632
  185POPC   O1421234   3.379   1.479   2.406  0.1790  0.0568 -0.0484
  185POPC   O1221235   3.454   1.722   2.380 -0.0891 -0.3987  0.3709
  185POPC   O1121236   3.611   1.530   2.404  0.0911 -0.5707 -0.0341
  185POPC    C121237   3.641   1.558   2.536  0.0511  0.2573 -0.3753
  185POPC    HA21238   3.575   1.624   2.595 -1.3091  0.5273 -2.1164
  185POPC    HB21239   3.746   1.594   2.539  0.1715 -0.1268  1.2356
  185POPC    C221240   3.660   1.424   2.613 -0.1785 -0.5198 -0.4340
  185POPC    HS21241   3.566   1.367   2.627 -0.0855 -0.2659  1.5506
  185POPC   O2121242   3.718   1.455   2.744 -0.4090  0.0029 -0.3673
  185POPC   C2121243   3.641   1.501   2.829 -0.0068 -0.8201  0.7402
  185POPC   O2221244   3.523   1.528   2.817 -0.2864 -0.0428 -0.1402
  185POPC   C2221245   3.721   1.540   2.951 -0.3501 -0.5195  0.6682
  185POPC   H2R21246   3.776   1.630   2.914 -3.5087  0.0259 -3.4150
  185POPC   H2S21247   3.800   1.466   2.972  0.4626  0.2654  0.4491
  185POPC    C321248   3.754   1.330   2.528 -0.2493 -0.1313 -0.1572
  185POPC    HX21249   3.855   1.376   2.520 -0.6192  0.7811  0.3442
  185POPC    HY21250   3.706   1.317   2.429  0.8999 -1.4429 -0.5755
  185POPC   O3121251   3.764   1.194   2.593  0.2319  0.1500 -0.2944
  185POPC   C3121252   3.847   1.193   2.694  0.5392  0.0945 -0.4592
  185POPC   O3221253   3.932   1.278   2.725  0.0040  0.1293  0.5911
  185POPC   C3221254   3.843   1.057   2.767 -0.5673  0.3745 -0.4219
  185POPC   H2X21255   3.928   0.997   2.729  1.1656  1.0182  2.1833
  185POPC   H2Y21256   3.747   1.003   2.749 -0.9997  0.2380  1.8840
  185POPC   C2321257   3.642   1.573   3.072 -0.0831 -0.3909 -0.1173
  185POPC   H3R21258   3.568   1.492   3.085 -0.0723 -0.1026  2.1482
  185POPC   H3S21259   3.600   1.676   3.075  3.5712  1.2815 -0.4192
  185POPC   C2421260   3.728   1.556   3.198 -0.4056  0.2385  0.2951
  185POPC   H4R21261   3.824   1.611   3.211  2.0069 -3.8752  1.6476
  185POPC   H4S21262   3.773   1.455   3.190  1.0397  0.6691  2.1286
  185POPC   C2521263   3.641   1.574   3.326 -0.0028  0.3839  0.4199
  185POPC   H5R21264   3.545   1.520   3.308  0.0621  0.0282  1.0986
  185POPC   H5S21265   3.630   1.684   3.327 -1.2478  0.2707  0.8503
  185POPC   C2621266   3.715   1.521   3.453 -0.2988 -0.3918  0.2016
  185POPC   H6R21267   3.804   1.459   3.434 -0.4509 -0.1280 -1.5909
  185POPC   H6S21268   3.648   1.440   3.488 -2.9740 -0.4310 -4.1752
  185POPC   C2721269   3.744   1.633   3.558 -0.5353 -0.3549  0.5403
  185POPC   H7R21270   3.680   1.722   3.538  0.2907  0.3065  0.7833
  185POPC   H7S21271   3.850   1.663   3.544 -0.6452  0.8028  1.9173
  185POPC   C2821272   3.710   1.584   3.696  0.2153  0.3176 -0.1598
  185POPC   H8R21273   3.602   1.560   3.695  0.1482  0.4230  1.8748
  185POPC   H8S21274   3.713   1.664   3.773 -0.8202 -1.5948  1.9757
  185POPC   C2921275   3.789   1.466   3.744  0.1679 -0.5963  0.5912
  185POPC   H9121276   3.790   1.376   3.681  0.6196 -1.0288  1.2029
  185POPC  C21021277   3.859   1.459   3.858 -0.5631 -0.1800 -0.3309
  185POPC  H10121278   3.902   1.361   3.884  1.2377  0.5239 -0.5209
  185POPC  C21121279   3.864   1.569   3.968 -0.4758 -0.3748 -0.2909
  185POPC  H11R21280   3.791   1.650   3.949 -1.9995 -1.4093  0.8785
  185POPC  H11S21281   3.964   1.615   3.977  0.6611 -2.5037 -1.2379
  185POPC  C21221282   3.822   1.511   4.105 -0.1612  0.0687  0.9408
  185POPC  H12R21283   3.731   1.447   4.114  1.6226 -2.6001  1.3773
  185POPC  H12S21284   3.801   1.595   4.174  0.9247  0.8330  0.3663
  185POPC  C21321285   3.927   1.415   4.177  0.5871 -0.4686  0.2410
  185POPC  H13R21286   4.009   1.479   4.216 -0.4203  1.5048 -0.6648
  185POPC  H13S21287   3.984   1.356   4.103 -0.3478  0.2991 -1.1475
  185POPC  C21421288   3.862   1.331   4.281  0.1190 -0.1646 -0.7115
  185POPC  H14R21289   3.902   1.227   4.277 -0.4477 -0.4568  0.7014
  185POPC  H14S21290   3.752   1.320   4.266  0.3888 -1.5595 -1.8751
  185POPC  C21521291   3.876   1.378   4.429  0.3506 -0.1472  0.1623
  185POPC  H15R21292   3.833   1.480   4.440 -1.4882 -0.8270 -0.3932
  185POPC  H15S21293   3.984   1.380   4.455  0.9216  0.6943 -2.0312
  185POPC  C21621294   3.800   1.299   4.534 -0.3771  0.6177 -0.2878
  185POPC  H16R21295   3.817   1.190   4.529  3.2304  1.0018  1.0654
  185POPC  H16S21296   3.692   1.323   4.521 -1.1656 -1.4278  1.7335
  185POPC  C21721297   3.833   1.339   4.682  0.0428  0.0602 -0.7605
  185POPC  H17R21298   3.779   1.436   4.695 -1.3745 -1.0425  2.9684
  185POPC  H17S21299   3.941   1.366   4.684  0.0869  0.0004  2.5369
  185POPC  C21821300   3.795   1.251   4.799  0.8385  0.2647 -0.2936
  185POPC  H18R21301   3.686   1.236   4.784  0.4392  2.4584 -0.0228
  185POPC  H18S21302   3.816   1.303   4.895 -3.2255  0.1444  0.8476
  185POPC  H18T21303   3.835   1.148   4.799  1.0222  0.3250 -1.2641
  185POPC   C3321304   3.871   1.069   2.923  0.3010  0.7467  0.5153
  185POPC   H3X21305   3.840   0.970   2.963  0.5787  0.2591 -0.4545
  185POPC   H3Y21306   3.807   1.148   2.967 -0.8969  0.5207 -0.7711
  185POPC   C3421307   4.018   1.100   2.959 -0.8599 -0.0626  0.5657
  185POPC   H4X21308   4.050   1.197   2.917  0.4612 -0.3996  0.7378
  185POPC   H4Y21309   4.080   1.013   2.926  1.2370  1.7924 -0.6465
  185POPC   C3521310   4.051   1.120   3.117 -0.0652  0.2939  0.4231
  185POPC   H5X21311   4.161   1.133   3.127 -0.0394 -0.9904  1.9969
  185POPC   H5Y21312   4.025   1.033   3.180 -2.6743  2.2067  2.1790
  185POPC   C3621313   3.980   1.243   3.179 -0.0606 -0.4548  0.3089
  185POPC   H6X21314   3.880   1.206   3.209 -0.3239 -1.7288 -1.9706
  185POPC   H6Y21315   3.971   1.310   3.091  2.0201 -2.4073 -1.5171
  185POPC   C3721316   4.053   1.308   3.292  0.1817  0.3626  0.2776
  185POPC   H7X21317   3.987   1.386   3.336 -1.2036 -0.3225 -0.4935
  185POPC   H7Y21318   4.145   1.364   3.266 -0.5490  1.5045  0.1139
  185POPC   C3821319   4.090   1.209   3.408  0.3541 -0.1791 -0.3153
  185POPC   H8X21320   4.148   1.121   3.372  1.4131 -0.2583  1.4789
  185POPC   H8Y21321   3.999   1.167   3.456 -0.4147 -0.1228 -1.6498
  185POPC   C3921322   4.166   1.278   3.523 -0.7401  1.1658  0.1591
  185POPC   H9X21323   4.123   1.378   3.548  0.2964  1.9626 -1.1097
  185POPC   H9Y21324   4.265   1.295   3.476 -0.3292  0.4672  0.7641
  185POPC  C31021325   4.175   1.195   3.644  0.5506  0.2699 -0.0770
  185POPC  H10X21326   4.243   1.111   3.619  2.0961  2.2374 -3.0542
  185POPC  H10Y21327   4.081   1.144   3.673  1.0063 -0.6504 -0.1817
  185POPC  C31121328   4.232   1.264   3.773 -0.0633  0.4061 -0.1110
  185POPC  H11X21329   4.185   1.363   3.790  3.2178  2.0114  0.3771
  185POPC  H11Y21330   4.340   1.277   3.748  0.4297 -0.8009  1.2327
  185POPC  C31221331   4.244   1.178   3.896  0.6768  0.8370 -0.5258
  185POPC  H12X21332   4.307   1.089   3.875  0.7223 -0.2580  3.3530
  185POPC  H12Y21333   4.143   1.150   3.933  1.3323  0.4173  1.0417
  185POPC  C31321334   4.308   1.261   4.011 -0.2152  0.5238 -0.5677
  185POPC  H13X21335   4.261   1.361   4.022  2.0576  1.5271  0.6815
  185POPC  H13Y21336   4.415   1.270   3.986 -0.0162 -0.5894 -0.1621
  185POPC  C31421337   4.302   1.193   4.147 -0.0064 -0.6900  0.3916
  185POPC  H14X21338   4.330   1.086   4.142  0.0510 -0.6345 -0.9821
  185POPC  H14Y21339   4.196   1.187   4.181  0.0782 -1.7760  0.5081
  185POPC  C31521340   4.386   1.273   4.254  0.2303 -0.3687  0.6903
  185POPC  H15X21341   4.373   1.383   4.245 -0.6842 -0.4762  0.6172
  185POPC  H15Y21342   4.491   1.240   4.239  0.6612  0.1644  2.3562
  185POPC  C31621343   4.350   1.244   4.399 -0.2741  0.1554  0.2822
  185POPC  H16X21344   4.416   1.312   4.457 -1.2983  1.2399  0.2206
  185POPC  H16Y21345   4.365   1.136   4.419  1.0121 -0.2014 -2.2088
  185POPC  H16Z21346   4.246   1.262   4.431  0.0780  2.5577  0.2898
  186POPC     N21347   0.314   5.423   1.988 -0.5832 -0.1796 -0.3097
  186POPC   C1221348   0.187   5.352   2.034  0.1910 -0.0307  0.3963
  186POPC  H12A21349   0.214   5.255   2.073  1.8818 -0.4318 -1.5818
  186POPC  H12B21350   0.124   5.335   1.948 -0.3672  2.4773  0.2368
  186POPC   C1321351   0.386   5.340   1.887 -0.4693  0.4344 -0.4597
  186POPC  H13A21352   0.330   5.318   1.797  1.5279  0.9713 -1.8985
  186POPC  H13B21353   0.482   5.381   1.859  1.2831 -2.1361  1.3433
  186POPC  H13C21354   0.407   5.239   1.919  1.0242  0.8320 -0.1309
  186POPC   C1421355   0.300   5.548   1.912 -0.0417  0.4047  0.0518
  186POPC  H14A21356   0.400   5.586   1.897  0.5240  0.3949  3.1028
  186POPC  H14B21357   0.245   5.533   1.821 -1.8056  1.6728  0.8271
  186POPC  H14C21358   0.244   5.616   1.975 -0.3054  1.0646 -0.8780
  186POPC   C1521359   0.405   5.444   2.114  0.1478 -0.8226  0.3639
  186POPC  H15A21360   0.436   5.347   2.152  1.0655 -0.9482 -0.6458
  186POPC  H15B21361   0.353   5.493   2.195  0.9056  2.0799 -0.7909
  186POPC  H15C21362   0.487   5.509   2.087  0.4462 -2.1784 -2.3910
  186POPC   C1121363   0.109   5.423   2.145 -0.0588 -0.7676 -0.0362
  186POPC  H11A21364   0.168   5.408   2.237 -0.7045 -0.9820  0.3528
  186POPC  H11B21365   0.017   5.365   2.171  0.1693  0.2670  3.5761
  186POPC     P21366   0.115   5.669   2.213  0.0921  0.0165 -0.1626
  186POPC   O1321367   0.112   5.800   2.140  0.2448  0.2403  0.0012
  186POPC   O1421368   0.231   5.634   2.292  0.1151  0.1604 -0.0371
  186POPC   O1221369   0.079   5.558   2.111 -0.0512  0.0405 -0.0398
  186POPC   O1121370  -0.013   5.662   2.300 -0.2602  0.1686 -0.4078
  186POPC    C121371  -0.027   5.572   2.414 -0.2587  0.1947 -0.1433
  186POPC    HA21372   0.064   5.511   2.431 -2.5623 -3.6667 -0.6142
  186POPC    HB21373  -0.097   5.495   2.375  0.0354  0.1290 -0.5573
  186POPC    C221374  -0.079   5.654   2.533 -0.0521  0.2112 -0.9520
  186POPC    HS21375   0.003   5.725   2.556  0.3829 -0.3906 -0.6060
  186POPC   O2121376  -0.096   5.568   2.651 -0.0805  0.1996 -0.3953
  186POPC   C2121377   0.011   5.529   2.709  0.1227 -0.0881 -0.0602
  186POPC   O2221378   0.128   5.548   2.673  0.1662 -0.1596 -0.2393
  186POPC   C2221379  -0.028   5.463   2.837  0.0120 -0.0404  0.7709
  186POPC   H2R21380  -0.112   5.394   2.816 -0.8636  1.5334 -1.2632
  186POPC   H2S21381  -0.072   5.537   2.907 -2.6881  0.7275 -1.5309
  186POPC    C321382  -0.213   5.727   2.505 -0.0755  0.2596 -0.5801
  186POPC    HX21383  -0.290   5.647   2.492  1.3364 -1.2725  0.1662
  186POPC    HY21384  -0.212   5.789   2.413  0.5320  1.0742 -0.0361
  186POPC   O3121385  -0.237   5.816   2.615 -0.2713 -0.4860 -0.1478
  186POPC   C3121386  -0.343   5.901   2.592  0.1631  0.1677 -0.4235
  186POPC   O3221387  -0.423   5.886   2.502 -0.0007  0.2975 -0.0045
  186POPC   C3221388  -0.347   6.012   2.700  0.2050  0.4093  0.0681
  186POPC   H2X21389  -0.434   6.075   2.674 -0.2866 -0.2605  0.0566
  186POPC   H2Y21390  -0.263   6.084   2.690 -1.4836  2.3473 -0.7248
  186POPC   C2321391   0.086   5.399   2.918  0.0644  0.1884  0.1618
  186POPC   H3R21392   0.151   5.329   2.861 -0.4905 -0.4676  0.3294
  186POPC   H3S21393   0.030   5.341   2.994 -1.7523  1.9418  0.2419
  186POPC   C2421394   0.180   5.496   2.986 -0.2890 -0.2782 -0.4204
  186POPC   H4R21395   0.114   5.547   3.059 -0.5321 -0.6321 -0.3894
  186POPC   H4S21396   0.212   5.577   2.917 -0.3049 -0.9362 -1.2188
  186POPC   C2521397   0.292   5.435   3.069 -0.0724  0.2606 -0.0744
  186POPC   H5R21398   0.375   5.396   3.007 -0.1438 -0.2188  0.1278
  186POPC   H5S21399   0.265   5.350   3.135 -1.1978  0.3587 -0.3802
  186POPC   C2621400   0.364   5.529   3.170 -0.0394 -0.5354  0.3982
  186POPC   H6R21401   0.296   5.609   3.206 -0.5804 -0.7689 -0.0934
  186POPC   H6S21402   0.440   5.594   3.122 -0.6969  2.1327  2.6418
  186POPC   C2721403   0.432   5.460   3.289 -0.9826  0.7144 -0.3772
  186POPC   H7R21404   0.530   5.440   3.241 -0.9580 -1.8994  0.5794
  186POPC   H7S21405   0.380   5.369   3.326  1.5203 -1.2353 -1.3766
  186POPC   C2821406   0.468   5.543   3.412  0.1229  0.2889  0.0664
  186POPC   H8R21407   0.378   5.578   3.467  1.4733 -1.9698  4.1249
  186POPC   H8S21408   0.527   5.634   3.387  0.0911  0.7617  1.6135
  186POPC   C2921409   0.548   5.460   3.510 -0.3437 -0.1396 -0.1666
  186POPC   H9121410   0.653   5.455   3.479 -0.8786  0.3987 -2.2053
  186POPC  C21021411   0.503   5.413   3.626  0.3464  0.0201  0.8153
  186POPC  H10121412   0.570   5.349   3.684 -1.7983 -2.3006  0.8747
  186POPC  C21121413   0.369   5.430   3.690 -0.5137  0.7592 -1.1082
  186POPC  H11R21414   0.298   5.353   3.654  2.4176 -1.1708 -3.2770
  186POPC  H11S21415   0.321   5.526   3.660  0.2150  1.3624 -0.3685
  186POPC  C21221416   0.390   5.435   3.838 -0.2385  0.1951  0.4261
  186POPC  H12R21417   0.419   5.337   3.881 -2.0863 -0.4522  0.3172
  186POPC  H12S21418   0.286   5.451   3.876  0.1272 -2.3927  2.8078
  186POPC  C21321419   0.483   5.539   3.895 -0.6351  0.7810 -0.0534
  186POPC  H13R21420   0.454   5.639   3.856 -1.4512 -0.0932 -1.8111
  186POPC  H13S21421   0.586   5.529   3.855 -0.6197 -0.7575  0.3123
  186POPC  C21421422   0.483   5.546   4.047  0.3288 -0.0349 -0.5896
  186POPC  H14R21423   0.483   5.442   4.085 -2.3477  0.0595 -0.0892
  186POPC  H14S21424   0.382   5.582   4.078  0.0469 -0.5904 -0.8534
  186POPC  C21521425   0.600   5.617   4.115  0.2490 -0.2136 -0.0546
  186POPC  H15R21426   0.583   5.726   4.101  0.0498 -0.5005 -2.4542
  186POPC  H15S21427   0.694   5.596   4.060  1.2222  1.0472  1.0427
  186POPC  C21621428   0.616   5.593   4.263  0.0529  0.5963  0.4944
  186POPC  H16R21429   0.522   5.636   4.304  0.0539  2.1059 -0.9811
  186POPC  H16S21430   0.705   5.650   4.297  1.6738 -0.7007 -1.3819
  186POPC  C21721431   0.645   5.447   4.301  0.2397 -0.3645  0.4888
  186POPC  H17R21432   0.722   5.405   4.233 -0.5351 -0.5002 -0.3401
  186POPC  H17S21433   0.557   5.383   4.276  1.5966 -2.2865  0.4035
  186POPC  C21821434   0.695   5.426   4.438 -0.3908 -0.0502  0.7473
  186POPC  H18R21435   0.722   5.320   4.456  0.3027  0.1076  0.6681
  186POPC  H18S21436   0.787   5.489   4.437 -0.7783  0.5495 -0.6045
  186POPC  H18T21437   0.628   5.474   4.511 -2.0312  0.5758 -1.0752
  186POPC   C3321438  -0.350   5.937   2.834 -0.9689 -0.5531  0.0798
  186POPC   H3X21439  -0.253   5.885   2.848  0.2280  1.4398 -0.4231
  186POPC   H3Y21440  -0.432   5.862   2.839 -2.9212  1.4730 -0.1980
  186POPC   C3421441  -0.354   6.034   2.956 -0.1869 -0.0791 -0.5063
  186POPC   H4X21442  -0.453   6.083   2.953 -0.1371  0.2018  1.4493
  186POPC   H4Y21443  -0.279   6.116   2.948  0.0240 -0.4032 -2.5141
  186POPC   C3521444  -0.341   5.957   3.081  0.1824  0.0930 -1.5248
  186POPC   H5X21445  -0.240   5.911   3.089 -0.1864 -0.8389 -2.0063
  186POPC   H5Y21446  -0.427   5.887   3.076 -0.8574  1.1275  0.5765
  186POPC   C3621447  -0.358   6.046   3.207 -0.6618  0.0662  0.1521
  186POPC   H6X21448  -0.444   6.114   3.190  0.0170  0.3670 -2.5739
  186POPC   H6Y21449  -0.266   6.108   3.220 -1.6400  1.8485 -1.0015
  186POPC   C3721450  -0.374   5.966   3.336  0.0547 -0.2324  0.0140
  186POPC   H7X21451  -0.291   5.892   3.337  0.6743  0.3958  2.7289
  186POPC   H7Y21452  -0.465   5.902   3.330  0.7492 -1.1374 -1.8970
  186POPC   C3821453  -0.367   6.045   3.466  0.3957  0.0627  0.7131
  186POPC   H8X21454  -0.452   6.117   3.463  0.6299  0.3518  0.9460
  186POPC   H8Y21455  -0.281   6.115   3.470 -1.1929  2.2707 -0.5517
  186POPC   C3921456  -0.386   5.970   3.602 -0.0024 -0.6174  0.4026
  186POPC   H9X21457  -0.305   5.895   3.610  2.3457  1.7974  0.7081
  186POPC   H9Y21458  -0.482   5.914   3.607 -0.3932  0.1139  3.0292
  186POPC  C31021459  -0.370   6.068   3.727  0.3399 -0.1680  0.7169
  186POPC  H10X21460  -0.427   6.162   3.712 -1.3380 -1.1182  0.8261
  186POPC  H10Y21461  -0.259   6.074   3.720  0.1738  1.9547 -4.5403
  186POPC  C31121462  -0.406   6.003   3.856  0.1278  0.3319 -0.0469
  186POPC  H11X21463  -0.378   5.896   3.853 -1.1022 -0.0075 -3.3474
  186POPC  H11Y21464  -0.513   5.994   3.884  0.3152  3.0308  2.0302
  186POPC  C31221465  -0.346   6.078   3.975  0.9041 -0.0866 -0.5112
  186POPC  H12X21466  -0.414   6.161   4.003  1.6520 -0.0156  1.2371
  186POPC  H12Y21467  -0.262   6.143   3.944  0.1897 -0.0901 -2.5984
  186POPC  C31321468  -0.304   5.990   4.095  0.3041  0.4588 -0.3015
  186POPC  H13X21469  -0.227   5.921   4.054  0.3466  0.7478 -0.7193
  186POPC  H13Y21470  -0.395   5.934   4.125 -0.3968  1.3972 -0.5922
  186POPC  C31421471  -0.246   6.055   4.219  0.0838  0.3707 -0.2551
  186POPC  H14X21472  -0.158   6.114   4.186  1.5453 -1.4963  0.0983
  186POPC  H14Y21473  -0.210   5.973   4.285 -0.1796 -1.8866 -2.7389
  186POPC  C31521474  -0.337   6.151   4.298  0.2504 -0.7664 -0.3302
  186POPC  H15X21475  -0.356   6.243   4.238  1.3753  0.1048  0.5964
  186POPC  H15Y21476  -0.271   6.191   4.378  2.9470  0.0874 -2.8094
  186POPC  C31621477  -0.473   6.098   4.344 -0.0138 -0.9822 -0.1528
  186POPC  H16X21478  -0.529   6.067   4.253  0.5607 -0.2164 -0.7871
  186POPC  H16Y21479  -0.534   6.171   4.401 -3.5605 -3.4446 -0.4681
  186POPC  H16Z21480  -0.463   6.015   4.417  0.0879 -1.4046 -0.6339
  187POPC     N21481   2.777   0.446   2.133  0.3317  0.3840 -0.0133
  187POPC   C1221482   2.736   0.418   2.277  0.2221 -0.2514  0.2670
  187POPC  H12A21483   2.673   0.331   2.287 -0.2751 -0.0257 -0.7442
  187POPC  H12B21484   2.667   0.498   2.298 -0.0601 -0.6995  1.0722
  187POPC   C1321485   2.901   0.366   2.092  0.2252  0.0920 -0.1408
  187POPC  H13A21486   2.880   0.263   2.117  1.8633 -1.1185 -3.3021
  187POPC  H13B21487   2.919   0.375   1.986 -1.0793 -1.5442 -0.5420
  187POPC  H13C21488   2.989   0.400   2.144 -1.8261  3.4459  1.4935
  187POPC   C1421489   2.656   0.413   2.047 -0.2073  0.3711  0.5131
  187POPC  H14A21490   2.644   0.306   2.054 -0.7415  0.4761  1.4295
  187POPC  H14B21491   2.565   0.469   2.066 -0.5847 -0.5585  1.6196
  187POPC  H14C21492   2.683   0.431   1.945  0.0331 -1.1745  0.2731
  187POPC   C1521493   2.805   0.588   2.109  0.2452  0.2347 -0.1690
  187POPC  H15A21494   2.726   0.656   2.139 -2.1353 -2.4032 -0.0379
  187POPC  H15B21495   2.823   0.611   2.005  0.8068 -0.9002 -0.3369
  187POPC  H15C21496   2.900   0.622   2.148 -0.0079  0.1265  0.5625
  187POPC   C1121497   2.854   0.423   2.380  0.5233 -0.1278 -0.1639
  187POPC  H11A21498   2.808   0.445   2.479  0.9128 -0.3772  0.0738
  187POPC  H11B21499   2.910   0.516   2.355 -0.7554  0.6009 -0.4061
  187POPC     P21500   2.913   0.183   2.452  0.0116  0.1119  0.0260
  187POPC   O1321501   3.036   0.098   2.421 -0.1582  0.3660 -0.6328
  187POPC   O1421502   2.780   0.130   2.410  0.1025  0.0356 -0.1409
  187POPC   O1221503   2.937   0.314   2.369 -0.9139  0.0158 -0.0541
  187POPC   O1121504   2.907   0.219   2.602  0.1451 -0.7712 -0.7645
  187POPC    C121505   3.008   0.298   2.666 -0.2728 -0.9780 -0.3518
  187POPC    HA21506   2.963   0.371   2.737 -0.6870 -2.5166  1.0412
  187POPC    HB21507   3.075   0.358   2.601  0.7960 -0.3301  1.2801
  187POPC    C221508   3.098   0.228   2.767  0.3764  0.2866 -1.5537
  187POPC    HS21509   3.131   0.135   2.714 -0.0072 -1.0051  0.3614
  187POPC   O2121510   3.028   0.196   2.892  0.0640 -0.0283  0.0321
  187POPC   C2121511   3.099   0.097   2.962  0.2029  0.1128  0.3262
  187POPC   O2221512   3.196   0.034   2.927 -0.2513  0.0389 -0.1964
  187POPC   C2221513   3.016   0.060   3.086 -0.5903  0.5912  0.0392
  187POPC   H2R21514   2.923   0.011   3.049  0.6645 -1.5537 -0.4793
  187POPC   H2S21515   2.976   0.154   3.127 -3.3038 -0.7660  0.7444
  187POPC    C321516   3.222   0.315   2.794 -0.3828  0.2582  0.1203
  187POPC    HX21517   3.283   0.338   2.704  0.7596 -0.6699  0.6330
  187POPC    HY21518   3.290   0.250   2.852 -1.3740 -0.2283  0.7784
  187POPC   O3121519   3.188   0.440   2.860 -0.2543 -0.7217  0.0330
  187POPC   C3121520   3.203   0.436   2.985 -0.1401 -2.0267 -0.7835
  187POPC   O3221521   3.238   0.343   3.054 -0.4877  0.3070  0.4946
  187POPC   C3221522   3.193   0.575   3.037  0.0680 -0.1223 -0.4674
  187POPC   H2X21523   3.109   0.629   2.987 -0.3687  1.0421  1.4042
  187POPC   H2Y21524   3.290   0.624   3.012  0.6111 -0.9371  0.0196
  187POPC   C2321525   3.096  -0.036   3.183  0.3375 -1.0246 -0.1855
  187POPC   H3R21526   3.167  -0.099   3.125 -1.3724 -0.9056 -2.5468
  187POPC   H3S21527   3.015  -0.090   3.236 -0.7273  2.2355  1.8482
  187POPC   C2421528   3.186   0.039   3.284  0.1526  0.6534 -0.0911
  187POPC   H4R21529   3.269   0.085   3.226  1.6819 -1.2073  0.5134
  187POPC   H4S21530   3.245  -0.021   3.356  0.9377  1.3070 -0.1619
  187POPC   C2521531   3.113   0.137   3.365 -0.2976 -0.1091  0.7115
  187POPC   H5R21532   3.036   0.078   3.420  0.4743 -5.1139 -2.9081
  187POPC   H5S21533   3.074   0.220   3.303 -1.5027 -0.2129  1.3082
  187POPC   C2621534   3.204   0.214   3.464  0.4514  0.2750  0.0657
  187POPC   H6R21535   3.279   0.277   3.411 -0.4497 -0.2145 -1.9022
  187POPC   H6S21536   3.260   0.137   3.521 -0.6365 -0.8864 -0.3905
  187POPC   C2721537   3.131   0.289   3.563  0.5906  0.2562 -0.2024
  187POPC   H7R21538   3.060   0.218   3.611  1.3069 -0.5122 -0.2650
  187POPC   H7S21539   3.064   0.367   3.520 -2.9820 -1.8675  1.0263
  187POPC   C2821540   3.213   0.354   3.672 -0.7749  0.0871 -0.4220
  187POPC   H8R21541   3.137   0.398   3.739 -1.5472 -1.2665 -0.3863
  187POPC   H8S21542   3.274   0.433   3.621  1.3050 -1.3349 -0.2652
  187POPC   C2921543   3.303   0.259   3.751 -0.3127 -0.5663  1.5126
  187POPC   H9121544   3.394   0.229   3.697  0.6360  0.7910  2.3050
  187POPC  C21021545   3.267   0.189   3.854  0.1023  0.2406  0.2111
  187POPC  H10121546   3.335   0.121   3.908 -2.1991 -0.9688  1.7334
  187POPC  C21121547   3.146   0.200   3.944  0.5742  0.1916 -0.0913
  187POPC  H11R21548   3.098   0.102   3.965  0.2186  0.1429 -1.0593
  187POPC  H11S21549   3.071   0.269   3.899  1.4136 -0.1321 -2.1264
  187POPC  C21221550   3.179   0.274   4.078  0.2329 -0.2180  0.3009
  187POPC  H12R21551   3.081   0.303   4.122 -0.2148 -2.7047  1.1066
  187POPC  H12S21552   3.249   0.357   4.055 -1.4244  1.0650 -0.3368
  187POPC  C21321553   3.248   0.183   4.171 -0.3597  0.1569 -0.3693
  187POPC  H13R21554   3.338   0.154   4.113  0.0974 -1.6352  1.1467
  187POPC  H13S21555   3.184   0.095   4.195  2.0477 -1.5770  0.0158
  187POPC  C21421556   3.286   0.254   4.303  0.0836 -0.1029 -0.1578
  187POPC  H14R21557   3.196   0.254   4.368 -0.3500 -0.8774 -0.7423
  187POPC  H14S21558   3.317   0.358   4.278  0.6305  0.3453  2.1637
  187POPC  C21521559   3.398   0.189   4.375 -1.0691 -0.0823 -0.3412
  187POPC  H15R21560   3.479   0.173   4.300  0.5327 -1.8989  1.6576
  187POPC  H15S21561   3.367   0.086   4.403 -1.0568 -0.1379 -0.5286
  187POPC  C21621562   3.462   0.261   4.496 -0.5079  0.0964  0.2800
  187POPC  H16R21563   3.538   0.190   4.537 -1.1916 -0.4836  0.5769
  187POPC  H16S21564   3.397   0.284   4.583  0.1907  1.6690  0.4160
  187POPC  C21721565   3.528   0.392   4.458  0.3292  0.4103  0.3093
  187POPC  H17R21566   3.460   0.478   4.442  4.1165  3.1642 -2.9324
  187POPC  H17S21567   3.579   0.375   4.361 -1.8198 -1.0467 -0.6267
  187POPC  C21821568   3.628   0.427   4.563 -0.0393 -0.3986 -0.2904
  187POPC  H18R21569   3.686   0.517   4.534  2.1564 -1.5429  0.3037
  187POPC  H18S21570   3.703   0.345   4.573 -0.1399 -0.2756  1.9956
  187POPC  H18T21571   3.592   0.445   4.667  1.9136 -3.3678  1.0598
  187POPC   C3321572   3.161   0.603   3.196  0.2588 -0.1013  0.4092
  187POPC   H3X21573   3.250   0.567   3.250 -0.8943  0.6956  2.9768
  187POPC   H3Y21574   3.070   0.549   3.231  0.3781 -0.1609  0.6270
  187POPC   C3421575   3.140   0.751   3.221 -0.2005  0.6338 -0.0595
  187POPC   H4X21576   3.065   0.786   3.146  1.6164  0.7311 -1.9328
  187POPC   H4Y21577   3.235   0.804   3.200 -0.3789  0.4086 -1.6049
  187POPC   C3521578   3.087   0.782   3.362  0.5390  0.5526 -0.4168
  187POPC   H5X21579   2.982   0.747   3.359  1.1294 -1.3123 -0.2005
  187POPC   H5Y21580   3.086   0.893   3.375  0.4019  0.4367  0.6459
  187POPC   C3621581   3.177   0.725   3.474  0.2183 -0.1944  0.1912
  187POPC   H6X21582   3.275   0.711   3.425 -0.5891 -0.0657 -1.5479
  187POPC   H6Y21583   3.126   0.629   3.497 -0.7726 -0.0705 -1.3423
  187POPC   C3721584   3.201   0.819   3.594  0.4162  0.7066  0.1862
  187POPC   H7X21585   3.270   0.900   3.562  1.5160  0.2678  1.3512
  187POPC   H7Y21586   3.260   0.759   3.666 -1.5271 -0.0378  1.2243
  187POPC   C3821587   3.071   0.879   3.651  0.4965 -0.1863 -0.3426
  187POPC   H8X21588   2.996   0.796   3.648 -0.9859  1.1361 -2.1673
  187POPC   H8Y21589   3.030   0.960   3.587  1.2527 -1.0469 -1.9683
  187POPC   C3921590   3.085   0.924   3.795 -0.1162 -0.5466 -0.3686
  187POPC   H9X21591   2.987   0.971   3.817 -0.3640 -1.1215 -0.2163
  187POPC   H9Y21592   3.163   1.002   3.805  0.1706 -1.0417  2.0069
  187POPC  C31021593   3.127   0.815   3.889 -0.2270 -0.6958  0.9308
  187POPC  H10X21594   3.156   0.859   3.987  2.4689 -1.8790  0.7467
  187POPC  H10Y21595   3.206   0.749   3.848 -2.4766 -2.4671 -0.8721
  187POPC  C31121596   3.022   0.707   3.928 -0.2003  0.9440  0.2655
  187POPC  H11X21597   3.070   0.636   3.999 -2.1234  0.1466  0.8397
  187POPC  H11Y21598   2.987   0.661   3.834  1.7678  2.1299 -1.1230
  187POPC  C31221599   2.900   0.772   3.999 -0.1621  0.1248 -0.2938
  187POPC  H12X21600   2.850   0.837   3.924 -2.9437  0.1644  1.4599
  187POPC  H12Y21601   2.937   0.840   4.079  0.6941  2.3475 -2.4427
  187POPC  C31321602   2.788   0.684   4.064 -0.1175 -0.2018  0.5494
  187POPC  H13X21603   2.750   0.615   3.985  0.4818  0.0828 -0.0012
  187POPC  H13Y21604   2.711   0.758   4.093 -0.3629 -0.6850  1.1403
  187POPC  C31421605   2.810   0.611   4.200 -0.7760 -0.2216  0.0921
  187POPC  H14X21606   2.830   0.689   4.277  1.9374  0.2141 -0.9376
  187POPC  H14Y21607   2.898   0.547   4.181 -0.7438  0.1321 -1.0510
  187POPC  C31521608   2.691   0.541   4.246 -0.2889  0.3378 -0.2709
  187POPC  H15X21609   2.639   0.489   4.163 -1.4135 -0.6858  1.0220
  187POPC  H15Y21610   2.617   0.612   4.288 -0.9695 -1.2480  1.3514
  187POPC  C31621611   2.706   0.442   4.367 -0.0135 -0.4203 -0.4498
  187POPC  H16X21612   2.772   0.500   4.435  0.8037  1.5334 -2.7416
  187POPC  H16Y21613   2.759   0.347   4.344  2.1010  1.2320 -2.9605
  187POPC  H16Z21614   2.611   0.422   4.420 -1.0308 -0.1878 -2.1264
  188POPC     N21615   5.136   2.029   2.713  0.1760 -0.1120  0.1808
  188POPC   C1221616   5.046   1.982   2.596 -0.2690 -0.2028 -0.3813
  188POPC  H12A21617   4.946   1.988   2.637 -0.2817  0.2215 -0.4652
  188POPC  H12B21618   5.072   1.878   2.580 -0.7504 -0.1375 -1.7403
  188POPC   C1321619   5.142   1.931   2.825  0.0806  0.5322 -0.8940
  188POPC  H13A21620   5.207   1.968   2.903 -3.4549  1.5122  1.8237
  188POPC  H13B21621   5.050   1.914   2.878  1.4444 -0.7221  1.2523
  188POPC  H13C21622   5.189   1.838   2.796 -0.6684  0.1609 -0.9301
  188POPC   C1421623   5.269   2.049   2.665 -0.0637  0.0881  0.2302
  188POPC  H14A21624   5.272   2.095   2.567 -1.8851  3.0544  1.4124
  188POPC  H14B21625   5.327   2.111   2.732 -1.9419  1.6306  0.5343
  188POPC  H14C21626   5.306   1.949   2.647 -0.2656 -0.0346  0.4900
  188POPC   C1521627   5.087   2.158   2.767 -0.1781 -0.0638  0.2939
  188POPC  H15A21628   5.158   2.189   2.843  0.6679  1.0285 -0.8963
  188POPC  H15B21629   4.987   2.148   2.806  0.5209  0.0163  2.2280
  188POPC  H15C21630   5.082   2.229   2.686 -2.5951 -1.1110 -0.5760
  188POPC   C1121631   5.039   2.066   2.469  0.4116  0.2462  0.9282
  188POPC  H11A21632   4.983   2.013   2.389  0.0528  3.2349 -1.0003
  188POPC  H11B21633   5.134   2.083   2.415 -1.7008 -0.7540 -3.5379
  188POPC     P21634   4.800   2.173   2.513  0.0890  0.2726  0.0555
  188POPC   O1321635   4.737   2.079   2.412 -0.4210 -0.3631 -0.0313
  188POPC   O1421636   4.746   2.308   2.525 -0.1078 -0.7867  0.5425
  188POPC   O1221637   4.962   2.182   2.506  0.4474  0.1312 -0.2923
  188POPC   O1121638   4.789   2.092   2.649 -0.2902  0.3165  0.4151
  188POPC    C121639   4.683   2.109   2.739  1.0918 -0.8246 -0.3115
  188POPC    HA21640   4.591   2.077   2.685 -0.2273 -0.4701  1.6396
  188POPC    HB21641   4.669   2.215   2.769 -1.3098 -1.2485  0.2366
  188POPC    C221642   4.705   2.024   2.867 -0.0356  0.5550  0.0168
  188POPC    HS21643   4.617   2.030   2.934  0.9929 -1.7753  1.7326
  188POPC   O2121644   4.827   2.068   2.927  0.2050 -0.1464  0.5080
  188POPC   C2121645   4.810   2.165   3.019  1.0321  0.0305 -0.4062
  188POPC   O2221646   4.709   2.234   3.026  0.8507 -0.3087  0.0240
  188POPC   C2221647   4.938   2.190   3.106 -0.6074 -0.2678  0.1881
  188POPC   H2R21648   5.008   2.246   3.040 -0.2432 -3.3310 -2.2810
  188POPC   H2S21649   4.995   2.095   3.121  1.3988  1.1743  2.2906
  188POPC    C321650   4.710   1.865   2.833  0.3574 -0.5264 -0.6919
  188POPC    HX21651   4.808   1.851   2.783  0.9667  1.3591 -0.1143
  188POPC    HY21652   4.620   1.841   2.772  0.0668 -1.1157 -0.0505
  188POPC   O3121653   4.689   1.787   2.959 -0.2793 -0.6356  0.7240
  188POPC   C3121654   4.799   1.729   2.999 -0.0760 -0.0853 -0.0878
  188POPC   O3221655   4.911   1.742   2.955 -0.0135  0.1815  0.3498
  188POPC   C3221656   4.762   1.636   3.117 -0.0579 -0.2172  0.3385
  188POPC   H2X21657   4.800   1.538   3.081  0.7808 -0.3777  1.5842
  188POPC   H2Y21658   4.652   1.629   3.128 -0.3626  2.9837  0.1589
  188POPC   C2321659   4.911   2.256   3.241  0.5249 -0.6409  0.0685
  188POPC   H3R21660   4.831   2.209   3.302 -2.3601  0.9347 -2.1975
  188POPC   H3S21661   4.870   2.358   3.223  0.2602 -0.9811 -1.4053
  188POPC   C2421662   5.040   2.270   3.322  0.0013  0.0042 -0.9141
  188POPC   H4R21663   5.123   2.315   3.263 -0.1121  3.2292  1.1360
  188POPC   H4S21664   5.071   2.164   3.337 -1.4721 -0.5932 -1.8410
  188POPC   C2521665   5.017   2.359   3.452  0.0867 -0.5038  0.1479
  188POPC   H5R21666   4.948   2.444   3.435 -0.3178 -0.2158  2.7607
  188POPC   H5S21667   5.117   2.392   3.488  0.0149 -0.5942  0.4344
  188POPC   C2621668   4.960   2.279   3.577 -0.9852  0.2166  0.3029
  188POPC   H6R21669   4.989   2.172   3.565  0.0025  0.4062  0.9063
  188POPC   H6S21670   4.849   2.278   3.577 -1.0675 -1.2963  2.9570
  188POPC   C2721671   5.016   2.336   3.711  1.0700 -0.0224  0.3474
  188POPC   H7R21672   5.008   2.447   3.709  1.1460 -0.0234 -0.0662
  188POPC   H7S21673   5.125   2.313   3.720  0.8301 -2.2204 -1.4954
  188POPC   C2821674   4.930   2.278   3.829 -0.5783 -0.4827  0.7611
  188POPC   H8R21675   4.948   2.169   3.842  0.2026 -0.6951 -1.6315
  188POPC   H8S21676   4.824   2.284   3.797  0.2248  1.6199 -1.8698
  188POPC   C2921677   4.969   2.350   3.958 -0.6516  0.6572  1.0876
  188POPC   H9121678   4.962   2.459   3.940 -1.3635  0.3134 -1.0064
  188POPC  C21021679   5.018   2.302   4.076  0.9174  0.4170 -0.7463
  188POPC  H10121680   5.047   2.368   4.159 -0.3262  0.6333 -0.4620
  188POPC  C21121681   5.045   2.159   4.118  0.7742 -0.8412 -0.3067
  188POPC  H11R21682   4.991   2.085   4.056 -0.2363  0.6143 -1.2216
  188POPC  H11S21683   5.007   2.153   4.222 -3.8266  1.5357 -1.6023
  188POPC  C21221684   5.195   2.124   4.111 -0.3727  0.4531 -0.3133
  188POPC  H12R21685   5.235   2.120   4.008  0.7980 -0.8426  0.1605
  188POPC  H12S21686   5.208   2.018   4.144  1.4760  1.1485  1.3591
  188POPC  C21321687   5.291   2.221   4.190 -0.4717 -0.5002 -0.6096
  188POPC  H13R21688   5.260   2.238   4.295 -1.5230 -2.4366 -0.5533
  188POPC  H13S21689   5.290   2.315   4.131 -0.5109  0.2688  0.5928
  188POPC  C21421690   5.433   2.163   4.199 -0.1431 -0.3817  0.4041
  188POPC  H14R21691   5.484   2.159   4.100 -0.1176  0.7398  0.3495
  188POPC  H14S21692   5.425   2.061   4.241 -0.1025 -0.5890 -0.0913
  188POPC  C21521693   5.523   2.238   4.303 -0.3294  0.2771  0.0498
  188POPC  H15R21694   5.478   2.243   4.404  2.7290  0.2043  1.5147
  188POPC  H15S21695   5.512   2.340   4.260 -1.3049  0.2982  0.3104
  188POPC  C21621696   5.668   2.187   4.305  0.2486  0.7422  0.2091
  188POPC  H16R21697   5.702   2.170   4.200  0.9388  1.6699  0.2699
  188POPC  H16S21698   5.673   2.090   4.358  0.7544  1.5008  1.5856
  188POPC  C21721699   5.771   2.284   4.350 -0.2273 -0.0345 -0.7450
  188POPC  H17R21700   5.755   2.305   4.458 -0.9261 -2.0633 -0.3955
  188POPC  H17S21701   5.760   2.385   4.306 -0.0850 -0.3987 -1.6351
  188POPC  C21821702   5.910   2.229   4.342 -0.8377  0.0130  0.7543
  188POPC  H18R21703   5.925   2.142   4.410 -0.3698 -0.9292 -0.5127
  188POPC  H18S21704   5.991   2.300   4.370 -0.8390  0.7770 -1.0945
  188POPC  H18T21705   5.941   2.189   4.244  0.2851 -0.8195  1.4161
  188POPC   C3321706   4.827   1.669   3.259 -0.1371 -0.0476  0.1701
  188POPC   H3X21707   4.935   1.649   3.242 -0.9305 -2.2672 -3.1948
  188POPC   H3Y21708   4.803   1.604   3.346 -0.4853 -1.2599 -0.8052
  188POPC   C3421709   4.798   1.817   3.296  0.6992  0.2453  0.1074
  188POPC   H4X21710   4.688   1.828   3.309  0.9989  2.4309  1.2035
  188POPC   H4Y21711   4.826   1.881   3.210  0.0263 -0.7801 -0.9102
  188POPC   C3521712   4.873   1.857   3.424 -0.7315 -0.3864 -0.6295
  188POPC   H5X21713   4.875   1.968   3.429  1.0989 -0.2577 -2.6941
  188POPC   H5Y21714   4.975   1.815   3.413 -1.3096 -1.9154 -0.3906
  188POPC   C3621715   4.817   1.785   3.552 -0.2802 -0.3960  0.3881
  188POPC   H6X21716   4.850   1.680   3.544 -1.4050 -0.6449 -1.7815
  188POPC   H6Y21717   4.706   1.780   3.547 -0.1881 -1.6837 -1.1284
  188POPC   C3721718   4.882   1.840   3.681  0.6783 -0.4198  0.8883
  188POPC   H7X21719   4.867   1.950   3.690  1.0023 -0.2113 -0.8648
  188POPC   H7Y21720   4.991   1.818   3.683  0.6253 -0.7350  0.3947
  188POPC   C3821721   4.818   1.781   3.810 -0.4577 -0.4511  0.0837
  188POPC   H8X21722   4.850   1.676   3.829 -2.4305 -0.7612  2.0415
  188POPC   H8Y21723   4.710   1.780   3.783 -0.2444 -0.6866 -0.7862
  188POPC   C3921724   4.859   1.874   3.929  0.6848  0.2705  0.0841
  188POPC   H9X21725   4.832   1.978   3.902 -1.8165 -0.3524 -0.0925
  188POPC   H9Y21726   4.966   1.851   3.948  1.6933  1.9863 -2.8729
  188POPC  C31021727   4.782   1.835   4.051  0.8834  0.1372 -0.1482
  188POPC  H10X21728   4.827   1.739   4.085  1.5643  0.3779 -0.3482
  188POPC  H10Y21729   4.674   1.827   4.025  0.5009 -0.2139  1.4530
  188POPC  C31121730   4.798   1.942   4.157  0.6050 -0.2729 -0.6151
  188POPC  H11X21731   4.776   2.038   4.107  1.2003  1.5869  2.4105
  188POPC  H11Y21732   4.897   1.947   4.206  1.9041 -1.1363 -3.0307
  188POPC  C31221733   4.690   1.928   4.274 -0.8667  0.0913  0.4543
  188POPC  H12X21734   4.680   1.821   4.305 -1.2223  0.5738  2.1137
  188POPC  H12Y21735   4.600   1.977   4.232  1.0679  2.8664 -0.7591
  188POPC  C31321736   4.740   2.009   4.398 -0.1283  0.3114  0.2233
  188POPC  H13X21737   4.772   2.113   4.379  3.5460 -0.3494  1.8250
  188POPC  H13Y21738   4.836   1.963   4.432 -0.4046  0.7631  1.6737
  188POPC  C31421739   4.642   1.992   4.514 -0.8789  0.6277  0.1469
  188POPC  H14X21740   4.601   1.889   4.516  1.2143 -0.2943 -0.7475
  188POPC  H14Y21741   4.560   2.062   4.487  2.8495  4.6728 -1.9813
  188POPC  C31521742   4.692   2.051   4.642 -0.4883 -1.0675  0.1394
  188POPC  H15X21743   4.729   2.155   4.626 -0.4929 -0.8932  1.1890
  188POPC  H15Y21744   4.775   1.990   4.682  0.0394  1.0807  2.5376
  188POPC  C31621745   4.585   2.058   4.758  0.1248  0.1694  0.4116
  188POPC  H16X21746   4.626   2.104   4.850 -1.0791  2.3938 -0.0746
  188POPC  H16Y21747   4.551   1.957   4.787 -1.5898  1.1567  2.0611
  188POPC  H16Z21748   4.499   2.123   4.730  1.1609  1.7950  0.8451
  189SAPI   C1221749   4.620   5.141   6.646  0.4449 -0.5171  0.6861
  189SAPI    H221750   4.670   5.197   6.727 -1.6094 -0.8627  2.3024
  189SAPI    O221751   4.577   5.030   6.729  0.2142  0.5014 -0.0664
  189SAPI   HO221752   4.556   5.060   6.818 -0.7812 -2.9126  0.9997
  189SAPI   C1321753   4.511   5.226   6.598 -0.3989 -0.1157  0.0241
  189SAPI    H321754   4.544   5.306   6.528 -2.1062 -0.1384 -0.8509
  189SAPI    O321755   4.452   5.296   6.705  0.6405 -0.5241 -0.1436
  189SAPI   HO321756   4.388   5.244   6.756 -3.1413  2.6555 -1.2022
  189SAPI   C1421757   4.409   5.145   6.516  0.3149  0.0829 -0.9102
  189SAPI    H421758   4.356   5.083   6.592  1.3642  1.8714  1.3650
  189SAPI    O421759   4.313   5.230   6.452  0.1204 -0.2310 -0.7537
  189SAPI   HO421760   4.241   5.174   6.422  0.9418 -0.4706 -2.3694
  189SAPI   C1521761   4.471   5.042   6.419  0.2839 -0.3948  0.0755
  189SAPI    H521762   4.470   5.094   6.321 -2.0468 -1.2978 -0.4419
  189SAPI    O521763   4.396   4.921   6.398  0.7155 -0.6269 -0.4999
  189SAPI   HO521764   4.317   4.949   6.350  0.8212 -2.5690 -1.9522
  189SAPI   C1621765   4.619   5.002   6.441 -0.1597 -0.2222 -0.7671
  189SAPI    H621766   4.618   4.909   6.501 -1.6222 -0.4801 -1.1590
  189SAPI    O621767   4.679   4.975   6.313 -0.0261 -0.2332  0.1962
  189SAPI   HO621768   4.762   4.948   6.354  1.0133  2.3360 -0.0130
  189SAPI   C1121769   4.700   5.108   6.520  0.2735  0.1954 -0.1847
  189SAPI    H121770   4.708   5.192   6.448  0.0123 -0.9577 -1.5983
  189SAPI     P21771   4.947   5.165   6.588  0.3814 -0.1744  0.1039
  189SAPI   O1321772   5.060   5.104   6.661 -0.2075 -0.8048  0.1111
  189SAPI   O1421773   4.899   5.293   6.648 -0.1043 -0.2565  0.2914
  189SAPI   O1221774   4.826   5.054   6.553  0.1042 -0.6832  0.4860
  189SAPI   O1121775   4.996   5.204   6.448  0.1506  0.5868 -0.9078
  189SAPI    C121776   5.030   5.114   6.346 -0.9914  0.5528 -0.1632
  189SAPI    HA21777   5.126   5.066   6.377 -0.2615 -0.3130 -3.3732
  189SAPI    HB21778   4.953   5.037   6.323  0.6154 -0.5328 -2.2929
  189SAPI    C221779   5.048   5.182   6.209 -0.1229 -0.5054 -0.0489
  189SAPI    HS21780   5.081   5.103   6.139 -0.0892 -0.1595 -0.4321
  189SAPI   O2121781   5.137   5.291   6.225  0.0249  0.4133  0.1160
  189SAPI   C2121782   5.208   5.321   6.121 -0.5925 -0.8149  0.0993
  189SAPI   O2221783   5.218   5.252   6.021  0.3563  0.0470  0.4656
  189SAPI   C2221784   5.287   5.446   6.152 -0.5173 -0.0174 -0.1861
  189SAPI   H2R21785   5.220   5.521   6.201  0.2955  0.4577  0.2285
  189SAPI   H2S21786   5.360   5.417   6.231 -2.2105 -1.1593  1.0094
  189SAPI    C321787   4.912   5.236   6.152 -0.5718 -0.0047 -0.1832
  189SAPI    HX21788   4.874   5.302   6.233 -2.8392 -1.2779 -0.1280
  189SAPI    HY21789   4.856   5.140   6.147 -0.6412 -0.0550  1.0713
  189SAPI   O3121790   4.924   5.297   6.020 -0.3036  0.6927  0.1918
  189SAPI   C3121791   4.915   5.424   6.014  0.2523 -0.8051  0.2443
  189SAPI   O3221792   4.915   5.505   6.107 -0.2990 -0.6968  0.5246
  189SAPI   C3221793   4.917   5.461   5.860  0.1787  0.1667 -0.7896
  189SAPI   H2X21794   5.006   5.413   5.816  0.7933  1.7277 -1.3147
  189SAPI   H2Y21795   4.925   5.572   5.868 -3.2807  0.5009 -0.0498
  189SAPI   C2321796   5.373   5.493   6.027  0.3556 -0.2703  0.1856
  189SAPI   H3R21797   5.436   5.414   5.980 -0.9751 -2.3585  1.7477
  189SAPI   H3S21798   5.434   5.577   6.066 -0.8202 -0.2981  2.2256
  189SAPI   C2421799   5.293   5.560   5.916  0.4123  0.0528 -0.2478
  189SAPI   H4R21800   5.221   5.630   5.963  1.1642  1.3028 -0.8908
  189SAPI   H4S21801   5.233   5.478   5.870 -0.3971  1.3051 -1.5010
  189SAPI   C2521802   5.375   5.636   5.816  0.2023 -0.4770 -0.1826
  189SAPI   H5R21803   5.466   5.681   5.857  0.0262  1.8517 -2.1720
  189SAPI   C2621804   5.349   5.639   5.688  0.5181 -0.0799 -0.0089
  189SAPI   H6R21805   5.416   5.704   5.631  1.7799  0.2811  1.8150
  189SAPI   C2721806   5.224   5.591   5.617  0.2222  0.3281 -0.4716
  189SAPI   H7R21807   5.190   5.675   5.553  0.2502 -0.5996 -1.7470
  189SAPI   H7S21808   5.138   5.570   5.685 -0.5972 -0.9852 -1.8586
  189SAPI   C2821809   5.247   5.456   5.551  1.4252 -0.0312  0.3630
  189SAPI   H8R21810   5.273   5.383   5.629 -1.9883 -0.5763  1.1703
  189SAPI   C2921811   5.207   5.419   5.431 -0.1841 -0.2285  0.7670
  189SAPI   H9R21812   5.226   5.314   5.400 -0.5289  0.0508 -0.4421
  189SAPI  C21021813   5.140   5.496   5.321 -1.0771 -0.7935  0.8979
  189SAPI  H10R21814   5.106   5.592   5.365 -0.4370  0.3802 -1.0329
  189SAPI  H10S21815   5.043   5.454   5.289 -0.9595  0.3395 -1.0981
  189SAPI  C21121816   5.238   5.521   5.204  0.6418 -0.2793 -0.7874
  189SAPI  H11R21817   5.340   5.556   5.229 -0.4866  3.2533 -0.5290
  189SAPI  C21221818   5.211   5.499   5.076  0.3047 -0.3365 -0.0902
  189SAPI  H12R21819   5.290   5.529   5.005  1.1133  2.0651  1.6762
  189SAPI  C21321820   5.087   5.442   5.012 -0.0832  0.1286 -0.1549
  189SAPI  H13R21821   5.015   5.526   5.001  1.6512  1.6337 -0.5452
  189SAPI  H13S21822   5.034   5.361   5.067  3.4468 -2.0518  0.3071
  189SAPI  C21421823   5.132   5.386   4.878 -0.2466  0.3966 -0.4424
  189SAPI  H14R21824   5.216   5.315   4.879 -0.3673  0.2301 -1.2359
  189SAPI  C21521825   5.085   5.425   4.757 -0.0691 -0.4698  0.0522
  189SAPI  H15R21826   5.137   5.372   4.676  2.9239  0.8286  0.9861
  189SAPI  C21621827   4.968   5.513   4.714 -0.1739  0.2844  0.0228
  189SAPI  H16R21828   4.930   5.565   4.805 -0.7907  0.1036 -0.1241
  189SAPI  H16S21829   4.889   5.438   4.692  0.6027 -0.6679  0.4514
  189SAPI  C21721830   4.978   5.606   4.587  0.1327 -0.7456 -0.4881
  189SAPI  H17R21831   5.001   5.542   4.499  1.5293  0.1334 -0.7898
  189SAPI  H17S21832   5.062   5.678   4.602 -1.7491  1.1345  1.8980
  189SAPI  C21821833   4.846   5.676   4.557 -0.1431  0.0931  0.3882
  189SAPI  H18R21834   4.785   5.703   4.646 -1.6995  1.3563 -1.0012
  189SAPI  H18S21835   4.782   5.607   4.498  0.9880 -0.1089 -0.6503
  189SAPI  C21921836   4.866   5.808   4.486 -0.4877  0.2075 -0.3643
  189SAPI  H19R21837   4.867   5.793   4.376 -0.9383  1.0972 -0.4963
  189SAPI  H19S21838   4.967   5.846   4.510 -0.2954  1.1966 -2.4644
  189SAPI  C22021839   4.770   5.928   4.505  0.1742  0.2643 -0.3337
  189SAPI  H20R21840   4.795   6.020   4.448 -1.4343  0.2502 -1.1017
  189SAPI  H20S21841   4.765   5.958   4.612  2.2555  2.6559 -0.8163
  189SAPI  H20T21842   4.669   5.898   4.470 -0.0928  1.6041 -0.7552
  189SAPI   C3321843   4.784   5.411   5.783 -0.9449 -0.8538 -0.6890
  189SAPI   H3X21844   4.693   5.449   5.833  0.2892  0.2885  0.7571
  189SAPI   H3Y21845   4.775   5.301   5.771 -1.2015 -1.1186  1.6419
  189SAPI   C3421846   4.792   5.459   5.638 -0.1466 -0.1063 -0.0576
  189SAPI   H4X21847   4.897   5.451   5.604  0.2262 -1.6586  1.3307
  189SAPI   H4Y21848   4.764   5.567   5.634  2.2674  0.5672 -0.3275
  189SAPI   C3521849   4.704   5.369   5.539 -0.5101 -0.3729  0.2364
  189SAPI   H5X21850   4.603   5.357   5.582 -0.2200 -2.0225  0.5146
  189SAPI   H5Y21851   4.753   5.270   5.525 -0.9653 -0.7390  1.1856
  189SAPI   C3621852   4.693   5.411   5.395 -0.0435 -0.7747  0.7172
  189SAPI   H6X21853   4.795   5.417   5.352  0.6585  0.0876  2.3815
  189SAPI   H6Y21854   4.654   5.515   5.398 -1.5420 -1.2356 -1.2497
  189SAPI   C3721855   4.603   5.318   5.307  0.5835  0.5931 -0.2617
  189SAPI   H7X21856   4.501   5.326   5.349 -0.9973 -2.9922 -2.8673
  189SAPI   H7Y21857   4.638   5.212   5.304 -1.3043 -0.1081  0.7609
  189SAPI   C3821858   4.605   5.356   5.163  0.1392 -0.6800  0.1660
  189SAPI   H8X21859   4.572   5.461   5.154 -1.3794 -1.2863 -2.7471
  189SAPI   H8Y21860   4.514   5.309   5.119 -1.3233  1.5966  0.5777
  189SAPI   C3921861   4.735   5.320   5.093 -0.4470  0.6195  0.2133
  189SAPI   H9X21862   4.751   5.212   5.111 -1.7132  0.6111  1.4374
  189SAPI   H9Y21863   4.815   5.366   5.155  0.0151 -1.1450  0.9741
  189SAPI  C31021864   4.739   5.355   4.940 -0.0888 -0.0665 -0.1344
  189SAPI  H10X21865   4.834   5.315   4.898  0.5132 -1.0139  2.0021
  189SAPI  H10Y21866   4.743   5.462   4.911  1.3808 -0.3273 -1.0094
  189SAPI  C31121867   4.634   5.281   4.862  0.2328 -0.0402 -0.8674
  189SAPI  H11X21868   4.536   5.320   4.899  0.6046 -1.1364  1.4522
  189SAPI  H11Y21869   4.638   5.173   4.885 -0.4451  0.5197  2.4662
  189SAPI  C31221870   4.641   5.310   4.712  0.2880  0.7586 -0.1454
  189SAPI  H12X21871   4.746   5.298   4.678  0.0670  1.1100 -0.9809
  189SAPI  H12Y21872   4.630   5.420   4.696 -0.8253  0.7734  0.5870
  189SAPI  C31321873   4.540   5.227   4.621 -0.1564 -0.1410 -0.7744
  189SAPI  H13X21874   4.445   5.241   4.676  0.1979 -0.5050 -0.0391
  189SAPI  H13Y21875   4.557   5.117   4.630 -0.2273 -0.2324 -1.7294
  189SAPI  C31421876   4.535   5.265   4.478  1.2804 -0.1687 -0.1929
  189SAPI  H14X21877   4.635   5.240   4.438  0.8583  0.9678 -2.0650
  189SAPI  H14Y21878   4.523   5.376   4.484 -1.7180 -0.4259  0.2539
  189SAPI  C31521879   4.423   5.193   4.390  0.1014  0.2332 -0.2258
  189SAPI  H15X21880   4.349   5.167   4.469  1.7543 -0.0093  1.3366
  189SAPI  H15Y21881   4.475   5.097   4.367  1.8832  0.7203  1.4730
  189SAPI  C31621882   4.383   5.275   4.268  0.2159  0.1988 -0.0778
  189SAPI  H16X21883   4.471   5.290   4.202  0.3275  2.5444  0.5135
  189SAPI  H16Y21884   4.342   5.370   4.308  0.4643 -0.0410  0.7796
  189SAPI  C31721885   4.261   5.206   4.205  0.4419 -0.0244  0.2137
  189SAPI  H17X21886   4.283   5.100   4.180 -1.2558 -0.7849  1.7547
  189SAPI  H17Y21887   4.251   5.260   4.108  0.5590 -0.4193 -0.0230
  189SAPI  C31821888   4.136   5.218   4.289 -0.3360 -0.1713  0.7358
  189SAPI  H18X21889   4.143   5.133   4.360  4.0115 -1.1910 -0.6133
  189SAPI  H18Y21890   4.054   5.217   4.213  1.1765  2.1917 -1.0586
  189SAPI  H18Z21891   4.130   5.311   4.350  1.6785  0.6039 -0.1511
  190SAPI   C1221892   5.476   3.350   6.769 -0.0257  0.5553  0.6444
  190SAPI    H221893   5.492   3.298   6.673  1.5517 -0.3732  1.3687
  190SAPI    O221894   5.602   3.400   6.805 -0.3450  0.7670  0.7096
  190SAPI   HO221895   5.664   3.327   6.807 -0.2985  0.8269  1.3861
  190SAPI   C1321896   5.374   3.454   6.757  0.1115 -0.5373 -0.0370
  190SAPI    H321897   5.284   3.400   6.721 -1.0740  0.1600  1.7083
  190SAPI    O321898   5.402   3.558   6.663 -0.4147  0.1588  0.4731
  190SAPI   HO321899   5.496   3.573   6.680  0.0050 -2.1210  0.4219
  190SAPI   C1421900   5.335   3.508   6.898 -0.6712  0.3553 -0.5053
  190SAPI    H421901   5.407   3.590   6.917 -2.0570  1.2158  1.3501
  190SAPI    O421902   5.212   3.578   6.903 -0.1850  0.1860  0.4050
  190SAPI   HO421903   5.142   3.523   6.940 -1.8647  1.9070 -0.0629
  190SAPI   C1521904   5.349   3.407   7.020  1.0412  0.3396 -0.2800
  190SAPI    H521905   5.242   3.381   7.036  0.7296  1.8322  0.1901
  190SAPI    O521906   5.389   3.470   7.139  0.2293 -0.2773 -0.1939
  190SAPI   HO521907   5.320   3.445   7.200 -1.1716  2.5470 -0.4229
  190SAPI   C1621908   5.414   3.276   7.001  0.7946 -0.1586 -0.2014
  190SAPI    H621909   5.515   3.277   7.045  1.1394 -1.1881 -0.9397
  190SAPI    O621910   5.346   3.174   7.069  0.4734 -0.1587  0.2674
  190SAPI   HO621911   5.388   3.089   7.055 -0.2631 -0.5857  0.5815
  190SAPI   C1121912   5.438   3.228   6.858 -0.3681  0.3737  1.0674
  190SAPI    H121913   5.347   3.189   6.807  0.4506 -1.4172  0.8706
  190SAPI     P21914   5.498   2.954   6.862 -0.7607  0.0524 -0.0924
  190SAPI   O1321915   5.418   2.932   6.985  0.2888  0.0617  0.0107
  190SAPI   O1421916   5.630   2.880   6.861  0.2702 -0.1149  0.2486
  190SAPI   O1221917   5.531   3.118   6.838 -0.5315 -0.0541 -0.9752
  190SAPI   O1121918   5.407   2.930   6.729  0.3906  0.1660  0.1927
  190SAPI    C121919   5.316   2.817   6.727 -0.2509  0.2829 -0.0066
  190SAPI    HA21920   5.348   2.722   6.775 -1.7178 -1.0391 -1.4995
  190SAPI    HB21921   5.223   2.850   6.778  0.2108  1.3416  0.1744
  190SAPI    C221922   5.272   2.779   6.585 -0.2304 -0.0588 -0.1466
  190SAPI    HS21923   5.235   2.675   6.593  0.7469 -0.4160 -0.0174
  190SAPI   O2121924   5.379   2.795   6.490 -1.2989 -0.1688  0.0715
  190SAPI   C2121925   5.487   2.709   6.506 -0.0884  0.8858 -0.4535
  190SAPI   O2221926   5.493   2.615   6.585  0.1288 -0.6072 -0.3509
  190SAPI   C2221927   5.605   2.751   6.408  1.0711 -0.3579 -0.1139
  190SAPI   H2R21928   5.663   2.830   6.461  0.4428  1.4308 -1.9926
  190SAPI   H2S21929   5.664   2.657   6.404 -0.3633 -1.4464  1.9321
  190SAPI    C321930   5.165   2.879   6.537  0.1331 -0.0440  1.0975
  190SAPI    HX21931   5.220   2.975   6.545  0.2089  0.1937 -1.5419
  190SAPI    HY21932   5.074   2.883   6.601 -1.0786  1.1123 -0.6354
  190SAPI   O3121933   5.123   2.854   6.400 -0.4603  0.3085  0.1628
  190SAPI   C3121934   5.182   2.932   6.309 -0.0486  0.6017  0.0911
  190SAPI   O3221935   5.249   3.029   6.333  0.1224 -0.1744  0.2144
  190SAPI   C3221936   5.168   2.869   6.173  0.0598 -0.3770 -0.0834
  190SAPI   H2X21937   5.088   2.793   6.173 -0.7434  0.4375 -1.4542
  190SAPI   H2Y21938   5.260   2.808   6.160  1.2314  1.7152 -2.3066
  190SAPI   C2321939   5.549   2.803   6.277 -0.0310 -0.7406  0.4080
  190SAPI   H3R21940   5.489   2.896   6.276 -0.3194 -0.8977 -1.3978
  190SAPI   H3S21941   5.486   2.726   6.227 -0.9171  0.8679 -1.1044
  190SAPI   C2421942   5.663   2.825   6.175  0.0348  0.2120 -0.1725
  190SAPI   H4R21943   5.734   2.742   6.153  0.2729 -0.3225  2.3356
  190SAPI   H4S21944   5.722   2.898   6.235  1.8323 -0.2609 -1.2716
  190SAPI   C2521945   5.625   2.895   6.045  0.3438 -0.1142  0.3211
  190SAPI   H5R21946   5.519   2.926   6.040  0.2838 -0.1395  1.2639
  190SAPI   C2621947   5.709   2.934   5.945 -0.3334  0.5590 -0.7547
  190SAPI   H6R21948   5.671   2.995   5.862  0.9208  0.9284 -1.0703
  190SAPI   C2721949   5.860   2.892   5.938  0.2705  0.5466  0.4428
  190SAPI   H7R21950   5.871   2.783   5.954 -0.4132  0.0789 -1.8952
  190SAPI   H7S21951   5.910   2.952   6.017 -2.1715  0.0486  2.5245
  190SAPI   C2821952   5.920   2.938   5.808  0.2238 -0.0815 -0.7319
  190SAPI   H8R21953   5.960   3.040   5.818 -0.4724  0.3988 -2.5165
  190SAPI   C2921954   5.947   2.873   5.695 -0.2027 -0.0187 -1.0102
  190SAPI   H9R21955   5.981   2.922   5.603 -1.3845 -2.9631 -3.1541
  190SAPI  C21021956   5.914   2.725   5.670  0.1100  0.2374 -0.2564
  190SAPI  H10R21957   5.962   2.667   5.752 -2.4161  0.7973  1.7530
  190SAPI  H10S21958   5.966   2.695   5.576 -0.0124  0.0021 -0.2526
  190SAPI  C21121959   5.766   2.698   5.670  0.4159  0.2584  0.0853
  190SAPI  H11R21960   5.721   2.688   5.770 -1.4693 -1.8256 -0.9052
  190SAPI  C21221961   5.696   2.682   5.559 -0.3295  0.2027 -0.0858
  190SAPI  H12R21962   5.593   2.642   5.562  0.0680 -0.7748  2.0695
  190SAPI  C21321963   5.766   2.676   5.422 -0.2489  0.3389  0.0405
  190SAPI  H13R21964   5.823   2.582   5.432 -1.3893 -0.3102  0.5749
  190SAPI  H13S21965   5.831   2.766   5.420 -2.3405  1.9643  0.7058
  190SAPI  C21421966   5.666   2.690   5.313 -1.1014  0.4333  0.0041
  190SAPI  H14R21967   5.570   2.734   5.346 -0.6991  0.2809  1.4385
  190SAPI  C21521968   5.696   2.666   5.182  0.2699  0.3882 -0.0819
  190SAPI  H15R21969   5.616   2.689   5.110 -1.4464 -0.5911  1.4268
  190SAPI  C21621970   5.822   2.605   5.127  0.3742 -0.5703  0.0783
  190SAPI  H16R21971   5.909   2.655   5.175  1.6830 -1.7122 -1.0213
  190SAPI  H16S21972   5.834   2.612   5.017 -0.5613  0.0597 -0.0003
  190SAPI  C21721973   5.825   2.454   5.156  0.1833  0.3974  0.1896
  190SAPI  H17R21974   5.732   2.394   5.143  0.7048 -0.3725 -0.0718
  190SAPI  H17S21975   5.839   2.448   5.266  0.1351  1.3924  0.2581
  190SAPI  C21821976   5.928   2.379   5.078  0.8484 -0.3782 -0.6515
  190SAPI  H18R21977   6.023   2.434   5.095  1.0471 -0.5619 -1.1403
  190SAPI  H18S21978   5.905   2.391   4.970 -1.3132 -1.3015 -0.3502
  190SAPI  C21921979   5.946   2.235   5.112  0.1214  1.0842  0.0902
  190SAPI  H19R21980   5.857   2.180   5.076  0.0208  0.8592  0.6708
  190SAPI  H19S21981   5.950   2.211   5.221 -0.7486 -1.6576 -0.4100
  190SAPI  C22021982   6.060   2.185   5.035 -0.1145 -0.5014 -0.0380
  190SAPI  H20R21983   6.149   2.250   5.046 -0.0788 -0.6966  0.8328
  190SAPI  H20S21984   6.035   2.180   4.926  0.4879 -0.1574 -0.1985
  190SAPI  H20T21985   6.085   2.081   5.065 -1.0418 -0.1970  1.8818
  190SAPI   C3321986   5.153   2.966   6.048 -0.2626  0.5527  0.1146
  190SAPI   H3X21987   5.222   3.054   6.045 -1.2014  1.3029 -0.1323
  190SAPI   H3Y21988   5.045   2.992   6.054 -0.4739  0.0814 -1.2744
  190SAPI   C3421989   5.169   2.891   5.912  0.4936 -0.0709  0.1618
  190SAPI   H4X21990   5.088   2.816   5.908  0.6973 -0.2531 -0.7079
  190SAPI   H4Y21991   5.267   2.838   5.902  1.1089  1.1192 -0.4416
  190SAPI   C3521992   5.129   2.985   5.791 -0.2443  0.1629 -0.3570
  190SAPI   H5X21993   5.027   3.024   5.808 -0.2588 -0.4241  1.1156
  190SAPI   H5Y21994   5.127   2.934   5.693 -0.4023  3.5430 -2.2811
  190SAPI   C3621995   5.214   3.115   5.783 -0.9368  0.2254 -0.5930
  190SAPI   H6X21996   5.187   3.188   5.862  1.3599 -1.6241  2.1031
  190SAPI   H6Y21997   5.193   3.165   5.686  0.9616  0.4975 -0.8935
  190SAPI   C3721998   5.364   3.074   5.782  0.1984  0.0901 -0.0805
  190SAPI   H7X21999   5.398   3.036   5.881 -0.5819 -1.0552 -0.2413
  190SAPI   H7Y22000   5.420   3.170   5.771 -1.6821  1.2813  0.2647
  190SAPI   C3822001   5.407   2.991   5.659 -0.2318  0.2353  0.3688
  190SAPI   H8X22002   5.374   2.887   5.677 -0.5471  0.4465  1.0421
  190SAPI   H8Y22003   5.518   2.996   5.657 -0.0774 -1.3212  2.6962
  190SAPI   C3922004   5.368   3.055   5.523  0.1624 -0.0181 -0.3405
  190SAPI   H9X22005   5.391   3.163   5.520 -1.2181  0.3177  0.6568
  190SAPI   H9Y22006   5.258   3.048   5.508  0.4344  0.5861 -3.3645
  190SAPI  C31022007   5.446   3.000   5.406  0.5442 -0.4138 -0.1668
  190SAPI  H10X22008   5.417   2.893   5.403 -0.4896 -0.1492  0.0298
  190SAPI  H10Y22009   5.556   3.009   5.421  0.4480 -0.6577  0.7076
  190SAPI  C31122010   5.408   3.058   5.267 -0.8413 -0.5264 -0.1229
  190SAPI  H11X22011   5.423   3.168   5.269  0.6291 -0.7117 -0.3140
  190SAPI  H11Y22012   5.297   3.046   5.266 -0.7929 -1.0349  0.1814
  190SAPI  C31222013   5.474   2.978   5.153 -0.3269  0.2907 -0.7433
  190SAPI  H12X22014   5.455   2.872   5.181 -0.4357  0.7204  0.9403
  190SAPI  H12Y22015   5.584   2.992   5.157 -0.1940 -0.9713  1.5331
  190SAPI  C31322016   5.420   3.017   5.021  0.5260 -0.4520 -0.0538
  190SAPI  H13X22017   5.460   3.115   4.987 -0.9241  0.5887  1.1076
  190SAPI  H13Y22018   5.312   3.038   5.037  0.3149 -2.8262  2.4347
  190SAPI  C31422019   5.447   2.914   4.908 -0.1658 -0.3692  0.2989
  190SAPI  H14X22020   5.534   2.848   4.931 -0.5887 -1.0575 -0.0158
  190SAPI  H14Y22021   5.483   2.962   4.815  0.9889  0.8824  1.3545
  190SAPI  C31522022   5.325   2.829   4.877  0.0158  0.5925  0.0707
  190SAPI  H15X22023   5.339   2.779   4.779 -1.5009 -1.2617  0.7347
  190SAPI  H15Y22024   5.228   2.882   4.879 -0.2301  0.1358  0.7951
  190SAPI  C31622025   5.292   2.718   4.984  0.2052 -0.6540 -0.1064
  190SAPI  H16X22026   5.251   2.764   5.076 -0.7642 -0.2623 -0.7182
  190SAPI  H16Y22027   5.383   2.656   5.002 -0.0128 -1.0786 -0.4494
  190SAPI  C31722028   5.175   2.633   4.927  0.3331 -0.3063  0.0769
  190SAPI  H17X22029   5.199   2.610   4.821 -0.6567  2.7791 -0.9331
  190SAPI  H17Y22030   5.087   2.701   4.920 -3.4960 -4.8872 -2.2971
  190SAPI  C31822031   5.149   2.506   5.006  0.8267  0.3845  0.5406
  190SAPI  H18X22032   5.248   2.454   5.013  0.9195  0.7514  2.3821
  190SAPI  H18Y22033   5.083   2.435   4.951  1.8733  1.4258 -2.2635
  190SAPI  H18Z22034   5.111   2.523   5.108  0.5541 -2.0284  0.9175
  191SAPI   C1222035   3.225   4.071   2.457 -0.1025 -0.3272 -0.1097
  191SAPI    H222036   3.264   4.107   2.555 -1.1065  1.1524 -0.2237
  191SAPI    O222037   3.320   4.100   2.361 -0.1419  0.2306  0.1813
  191SAPI   HO222038   3.369   4.176   2.392  0.9208 -0.8488  1.2738
  191SAPI   C1322039   3.185   3.929   2.479  0.2958  0.5659 -0.4322
  191SAPI    H322040   3.122   3.926   2.571  0.7888  0.0959 -0.1036
  191SAPI    O322041   3.302   3.854   2.508  0.0227  0.4700  0.2299
  191SAPI   HO322042   3.329   3.803   2.432 -0.0797 -1.1298  1.2054
  191SAPI   C1422043   3.124   3.879   2.353  0.3409  0.2802  0.2440
  191SAPI    H422044   3.201   3.883   2.272  1.0814 -1.6865  0.7712
  191SAPI    O422045   3.077   3.742   2.360 -0.3176  0.5225 -0.5760
  191SAPI   HO422046   3.026   3.737   2.441  2.5207  2.6947  1.5413
  191SAPI   C1522047   3.004   3.971   2.304  0.0702 -0.1320 -0.6978
  191SAPI    H522048   2.922   3.959   2.378  0.8645  1.9283  0.6019
  191SAPI    O522049   2.954   3.922   2.174  0.0878 -0.2722 -0.1223
  191SAPI   HO522050   3.013   3.949   2.104  0.4654 -1.7573 -0.4107
  191SAPI   C1622051   3.035   4.124   2.311  0.3031 -0.5789  0.5784
  191SAPI    H622052   3.093   4.145   2.219 -2.9029  1.5209 -1.1375
  191SAPI    O622053   2.912   4.198   2.307 -0.4900 -0.5627  0.1675
  191SAPI   HO622054   2.918   4.250   2.387  1.9077  0.8321 -0.7902
  191SAPI   C1122055   3.103   4.152   2.440 -0.1355  0.5372 -0.9979
  191SAPI    H122056   3.025   4.125   2.515 -0.3622  2.3425 -0.5303
  191SAPI     P22057   3.058   4.401   2.551 -0.1587  0.1135  0.0836
  191SAPI   O1322058   2.915   4.396   2.511 -0.0523  0.0410  0.3668
  191SAPI   O1422059   3.136   4.527   2.547  0.5635  0.0846  0.0255
  191SAPI   O1222060   3.145   4.294   2.455  0.6388  0.3939 -0.1239
  191SAPI   O1122061   3.072   4.339   2.690  0.2344 -0.7054 -0.0532
  191SAPI    C122062   3.198   4.351   2.757  0.0032  0.3495 -0.2546
  191SAPI    HA22063   3.293   4.369   2.701 -0.6046  0.5589 -1.2422
  191SAPI    HB22064   3.181   4.433   2.829  0.1939 -0.2362  0.4733
  191SAPI    C222065   3.219   4.240   2.856  0.3369  0.5284 -0.5791
  191SAPI    HS22066   3.201   4.142   2.806  3.3222  0.1433 -1.0583
  191SAPI   O2122067   3.120   4.256   2.958  0.0628  0.1144  0.4873
  191SAPI   C2122068   3.090   4.151   3.040  0.1198  0.1296  0.4370
  191SAPI   O2222069   3.123   4.033   3.030 -0.1481 -0.8644 -0.2156
  191SAPI   C2222070   2.983   4.201   3.138 -0.3215  0.1878  0.2573
  191SAPI   H2R22071   2.965   4.309   3.119  1.4487  0.4973  0.1710
  191SAPI   H2S22072   2.895   4.143   3.101 -0.0250 -1.1317  1.5270
  191SAPI    C322073   3.358   4.234   2.923  0.3061  0.3333  0.5994
  191SAPI    HX22074   3.432   4.229   2.840  0.5813  0.3228  0.8425
  191SAPI    HY22075   3.368   4.151   2.996 -1.3881 -0.8431 -0.4711
  191SAPI   O3122076   3.375   4.360   2.987  0.4999  0.0642  0.1322
  191SAPI   C3122077   3.495   4.384   3.034 -0.1602 -0.3959 -0.2719
  191SAPI   O3222078   3.593   4.312   3.039 -0.4197  0.6811  0.3486
  191SAPI   C3222079   3.491   4.527   3.091 -0.2240 -0.2585  0.7401
  191SAPI   H2X22080   3.387   4.564   3.080  0.1745  0.6789 -0.0947
  191SAPI   H2Y22081   3.545   4.594   3.020 -0.4846  0.2316  0.9985
  191SAPI   C2322082   3.009   4.175   3.286 -0.6510 -0.0780 -0.0846
  191SAPI   H3R22083   3.005   4.073   3.330 -1.9593 -0.0507 -0.1038
  191SAPI   H3S22084   2.927   4.224   3.342  0.6356  0.2343  1.5972
  191SAPI   C2422085   3.140   4.246   3.327  0.2937  0.2253 -0.2017
  191SAPI   H4R22086   3.137   4.273   3.434  3.2001  1.9151 -0.4285
  191SAPI   H4S22087   3.158   4.338   3.268  2.0240 -0.2458 -0.4718
  191SAPI   C2522088   3.259   4.164   3.324  0.4011  0.0060  0.0051
  191SAPI   H5R22089   3.305   4.189   3.227  1.5962 -0.7209  0.3657
  191SAPI   C2622090   3.326   4.093   3.412 -0.7100  0.6088 -0.4195
  191SAPI   H6R22091   3.410   4.035   3.373 -1.8946 -0.3326 -1.6676
  191SAPI   C2722092   3.292   4.069   3.556  0.3875  0.6084  0.0396
  191SAPI   H7R22093   3.186   4.095   3.578  0.8006  1.4499  1.1463
  191SAPI   H7S22094   3.357   4.143   3.608  0.1906  0.5908  0.3163
  191SAPI   C2822095   3.315   3.925   3.595  0.2480 -0.0997 -0.3797
  191SAPI   H8R22096   3.348   3.856   3.516  1.7364 -2.8872  2.4320
  191SAPI   C2922097   3.323   3.870   3.719 -0.3605 -0.0230  0.1794
  191SAPI   H9R22098   3.334   3.760   3.720  2.4830  0.1811  1.7366
  191SAPI  C21022099   3.300   3.952   3.846  0.0162  0.3421  0.3518
  191SAPI  H10R22100   3.328   4.058   3.832 -3.1335  1.0731 -1.4240
  191SAPI  H10S22101   3.377   3.917   3.918  0.7088 -0.6390 -0.8382
  191SAPI  C21122102   3.162   3.928   3.894  0.5728  0.4300  0.2720
  191SAPI  H11R22103   3.088   3.987   3.838  1.3935 -1.1758 -2.7207
  191SAPI  C21222104   3.129   3.834   3.987  0.1653 -0.4866 -0.2146
  191SAPI  H12R22105   3.023   3.821   4.013 -0.0918  3.5097  1.4658
  191SAPI  C21322106   3.226   3.755   4.064  0.7545  0.3318  0.0251
  191SAPI  H13R22107   3.297   3.815   4.123  0.6042  1.3727 -0.8227
  191SAPI  H13S22108   3.285   3.693   3.993  0.0395  0.8510 -1.0455
  191SAPI  C21422109   3.157   3.655   4.150 -0.1050  0.0358 -0.1903
  191SAPI  H14R22110   3.081   3.603   4.089  0.0497  0.5736 -0.8631
  191SAPI  C21522111   3.200   3.621   4.272  0.6434 -0.5330  0.1575
  191SAPI  H15R22112   3.127   3.551   4.315 -0.1563  1.8573  3.0068
  191SAPI  C21622113   3.292   3.689   4.368 -0.2002 -0.9624  0.4809
  191SAPI  H16R22114   3.228   3.735   4.446 -1.5710  2.4212 -2.4027
  191SAPI  H16S22115   3.366   3.768   4.339  1.0313 -3.0493 -2.5821
  191SAPI  C21722116   3.384   3.585   4.434  0.0225  0.1755 -0.2165
  191SAPI  H17R22117   3.448   3.541   4.355 -1.0729 -0.7135 -0.6457
  191SAPI  H17S22118   3.317   3.507   4.477  0.7867  1.5439  3.9188
  191SAPI  C21822119   3.477   3.642   4.540 -0.4257  0.3287 -0.0400
  191SAPI  H18R22120   3.422   3.697   4.620 -1.3187 -1.0712  0.3447
  191SAPI  H18S22121   3.548   3.719   4.503  0.1254  2.2842  4.3898
  191SAPI  C21922122   3.553   3.530   4.607  0.0372 -0.0955  0.3621
  191SAPI  H19R22123   3.609   3.477   4.527  0.8789  0.4948  0.5507
  191SAPI  H19S22124   3.480   3.453   4.640 -2.1059  1.5281 -0.3561
  191SAPI  C22022125   3.642   3.568   4.723 -0.1530 -0.5862  0.3801
  191SAPI  H20R22126   3.726   3.634   4.692 -0.5645 -0.5216 -0.6344
  191SAPI  H20S22127   3.686   3.475   4.765  0.6614  0.4771  2.0152
  191SAPI  H20T22128   3.586   3.605   4.812 -0.5288 -0.2144 -0.0048
  191SAPI   C3322129   3.542   4.540   3.233  0.1473 -0.1799  0.1983
  191SAPI   H3X22130   3.570   4.647   3.245  0.6986 -0.2851 -0.0975
  191SAPI   H3Y22131   3.638   4.490   3.259  0.8119  1.3873  0.9360
  191SAPI   C3422132   3.436   4.500   3.342  0.3692  0.0357  0.1608
  191SAPI   H4X22133   3.441   4.389   3.349  1.3380  0.1047  0.6831
  191SAPI   H4Y22134   3.334   4.529   3.307  0.2436  0.5240  0.9004
  191SAPI   C3522135   3.470   4.555   3.482  0.6530 -0.5255 -0.2597
  191SAPI   H5X22136   3.432   4.658   3.499 -4.2989 -2.1768  0.2152
  191SAPI   H5Y22137   3.579   4.543   3.501  0.4005 -0.1772  1.6044
  191SAPI   C3622138   3.398   4.475   3.591  0.1789 -0.0988 -0.5424
  191SAPI   H6X22139   3.392   4.368   3.562 -0.0768 -0.6284  1.3321
  191SAPI   H6Y22140   3.293   4.509   3.603  0.2445  0.2236 -0.8685
  191SAPI   C3722141   3.460   4.495   3.728  0.2017 -0.0340 -0.1042
  191SAPI   H7X22142   3.570   4.505   3.720  0.2030 -0.5850 -0.9450
  191SAPI   H7Y22143   3.434   4.412   3.797 -1.4961 -0.3919 -1.1118
  191SAPI   C3822144   3.406   4.613   3.811 -0.2008  0.2561  0.4166
  191SAPI   H8X22145   3.312   4.576   3.858 -0.5894 -0.3376 -0.7995
  191SAPI   H8Y22146   3.394   4.707   3.754 -0.1820  0.5164  0.8373
  191SAPI   C3922147   3.500   4.645   3.927  0.4891  0.0876 -0.2149
  191SAPI   H9X22148   3.452   4.733   3.976 -1.2559 -0.6500 -0.5334
  191SAPI   H9Y22149   3.595   4.663   3.873  2.0355 -3.6542  0.9027
  191SAPI  C31022150   3.502   4.534   4.036 -0.1355  0.5375  0.4971
  191SAPI  H10X22151   3.567   4.452   4.000  0.1686  1.5456 -1.3689
  191SAPI  H10Y22152   3.408   4.476   4.037  0.1461  0.0715  0.1480
  191SAPI  C31122153   3.552   4.582   4.169 -0.1761  0.5046 -0.4581
  191SAPI  H11X22154   3.471   4.641   4.217  0.8734  1.1627  0.5659
  191SAPI  H11Y22155   3.636   4.655   4.166 -1.2382  1.7724 -0.3346
  191SAPI  C31222156   3.602   4.473   4.262 -0.5758  0.2490 -0.1621
  191SAPI  H12X22157   3.689   4.432   4.208 -0.7262 -1.5004  0.8417
  191SAPI  H12Y22158   3.535   4.385   4.275  1.4389 -0.9915  3.2094
  191SAPI  C31322159   3.633   4.533   4.396  0.2583  0.1643  0.2768
  191SAPI  H13X22160   3.557   4.612   4.415  1.2241  0.7425  2.0403
  191SAPI  H13Y22161   3.724   4.596   4.378 -0.6587  1.5487  0.3054
  191SAPI  C31422162   3.631   4.420   4.504 -0.3600  0.1562 -0.2221
  191SAPI  H14X22163   3.701   4.338   4.479 -1.6816 -0.8058 -0.8729
  191SAPI  H14Y22164   3.528   4.381   4.509 -0.0791 -0.8530 -1.5852
  191SAPI  C31522165   3.689   4.454   4.643  0.5566  0.2263  0.8304
  191SAPI  H15X22166   3.769   4.528   4.626 -0.1377  0.8347  0.1398
  191SAPI  H15Y22167   3.736   4.361   4.682 -1.9485 -1.9702 -0.9838
  191SAPI  C31622168   3.597   4.528   4.737  0.5212 -0.1710  0.4531
  191SAPI  H16X22169   3.520   4.459   4.776 -2.6545  2.3506 -0.9051
  191SAPI  H16Y22170   3.543   4.595   4.667 -3.4238 -1.5101  1.9221
  191SAPI  C31722171   3.661   4.590   4.867  0.4787  0.4053  0.1576
  191SAPI  H17X22172   3.756   4.640   4.837  0.8542  0.8065  1.8951
  191SAPI  H17Y22173   3.696   4.515   4.941 -0.5664  0.0730  0.3205
  191SAPI  C31822174   3.572   4.688   4.949  0.7135  0.3475  0.1854
  191SAPI  H18X22175   3.633   4.743   5.024  0.5476  1.8776 -0.7571
  191SAPI  H18Y22176   3.487   4.636   4.997 -1.4190  2.1957 -1.3836
  191SAPI  H18Z22177   3.519   4.760   4.883  0.1684 -0.9639 -0.8360
  192SAPI   C1222178   1.639   2.015   1.914 -0.3263 -0.5578  0.1385
  192SAPI    H222179   1.724   2.026   1.985  0.1651  0.8534 -0.6192
  192SAPI    O222180   1.701   2.053   1.789 -0.1732 -0.8061  0.0603
  192SAPI   HO222181   1.795   2.057   1.809 -0.4581  1.4005  1.3745
  192SAPI   C1322182   1.586   1.877   1.914  0.5393  0.0621 -0.2849
  192SAPI    H322183   1.537   1.866   2.013 -0.6120  0.6835 -0.7790
  192SAPI    O322184   1.689   1.782   1.908 -0.5613 -0.5336  0.1108
  192SAPI   HO322185   1.763   1.796   1.968  0.6473  0.0125 -1.4311
  192SAPI   C1422186   1.476   1.862   1.806  0.2473 -0.1956  0.7478
  192SAPI    H422187   1.525   1.870   1.706 -0.2714 -1.4814  0.3784
  192SAPI    O422188   1.423   1.731   1.807  0.1704  0.3692 -0.4323
  192SAPI   HO422189   1.418   1.689   1.721 -2.6961  0.7615 -0.5556
  192SAPI   C1522190   1.370   1.974   1.806 -0.9394  0.1401  0.4369
  192SAPI    H522191   1.302   1.944   1.889 -0.6811 -2.4416 -0.2129
  192SAPI    O522192   1.293   1.979   1.686  0.4467  0.0540 -0.7641
  192SAPI   HO522193   1.221   1.917   1.700  0.0816  0.8808  1.3900
  192SAPI   C1622194   1.426   2.113   1.837 -0.4182  0.4104  0.5913
  192SAPI    H622195   1.468   2.152   1.742 -0.4877 -0.2566  0.2794
  192SAPI    O622196   1.313   2.191   1.866 -0.2848 -0.8447 -0.4479
  192SAPI   HO622197   1.335   2.247   1.941 -1.6068 -2.3024  1.1101
  192SAPI   C1122198   1.522   2.104   1.958  0.3991  0.3745  0.1487
  192SAPI    H122199   1.461   2.049   2.032 -0.0645  1.8999  0.9381
  192SAPI     P22200   1.506   2.309   2.137 -0.3756  0.4059 -0.1056
  192SAPI   O1322201   1.363   2.330   2.102 -0.2898 -0.5792 -0.2438
  192SAPI   O1422202   1.601   2.427   2.145  0.7868  0.2496 -0.1429
  192SAPI   O1222203   1.576   2.225   2.019 -0.0438  0.8902 -0.0140
  192SAPI   O1122204   1.511   2.207   2.261 -0.2183  0.4350  0.3341
  192SAPI    C122205   1.626   2.197   2.343 -0.3645  0.3026 -1.0117
  192SAPI    HA22206   1.625   2.089   2.370  1.9660  0.1566 -1.3147
  192SAPI    HB22207   1.719   2.216   2.286 -0.2269 -2.7742 -1.9939
  192SAPI    C222208   1.621   2.288   2.466 -1.0140  0.0003 -0.1464
  192SAPI    HS22209   1.585   2.387   2.430 -0.8315  0.1200 -0.0025
  192SAPI   O2122210   1.749   2.298   2.530  0.2412  0.1908 -0.2400
  192SAPI   C2122211   1.802   2.415   2.546 -0.1397 -0.8804 -0.2263
  192SAPI   O2222212   1.753   2.521   2.509 -0.1294 -0.6049 -0.1810
  192SAPI   C2222213   1.933   2.406   2.621  0.2466  0.5777 -0.4622
  192SAPI   H2R22214   2.004   2.342   2.564 -1.1306 -0.7677 -0.7229
  192SAPI   H2S22215   1.986   2.504   2.631 -1.6726  1.5595  0.5859
  192SAPI    C322216   1.522   2.234   2.571  0.2574 -0.4028 -0.0991
  192SAPI    HX22217   1.560   2.138   2.611  0.9256  0.5100  1.5888
  192SAPI    HY22218   1.419   2.211   2.537 -0.3840  0.5466  1.1163
  192SAPI   O3122219   1.520   2.321   2.682 -0.1862 -0.2320 -0.0715
  192SAPI   C3122220   1.411   2.403   2.688  0.2133 -0.1711  0.1448
  192SAPI   O3222221   1.332   2.418   2.594 -0.7846  0.2323  0.0915
  192SAPI   C3222222   1.416   2.483   2.819 -0.4820  1.0762  0.1708
  192SAPI   H2X22223   1.417   2.594   2.804 -3.8162  1.2334  0.3899
  192SAPI   H2Y22224   1.513   2.463   2.868  0.5974  0.2145 -2.1414
  192SAPI   C2322225   1.917   2.335   2.759 -0.0965 -0.3709  0.6293
  192SAPI   H3R22226   1.853   2.245   2.751  0.2987 -0.5556 -0.6821
  192SAPI   H3S22227   1.857   2.400   2.826  0.9886  0.3341  0.9601
  192SAPI   C2422228   2.057   2.310   2.820  0.9314 -0.8705 -0.4148
  192SAPI   H4R22229   2.104   2.410   2.808 -2.5203  0.9932  0.2675
  192SAPI   H4S22230   2.110   2.229   2.765 -0.1573 -0.8719 -1.5071
  192SAPI   C2522231   2.042   2.258   2.964  0.1679  0.0885 -0.4375
  192SAPI   H5R22232   1.957   2.193   2.988  0.6807  1.1503  5.8114
  192SAPI   C2622233   2.117   2.313   3.066  0.5045 -0.2377  0.1095
  192SAPI   H6R22234   2.115   2.262   3.163  0.3875  1.2257  0.8969
  192SAPI   C2722235   2.231   2.408   3.043 -0.0818 -1.1036 -0.0076
  192SAPI   H7R22236   2.207   2.503   2.990  1.3734 -1.7927 -2.0698
  192SAPI   H7S22237   2.309   2.358   2.981  0.4720 -0.2141 -0.0506
  192SAPI   C2822238   2.287   2.460   3.168 -0.7611 -0.6691  0.3093
  192SAPI   H8R22239   2.213   2.495   3.242  0.5567  2.7648  0.2160
  192SAPI   C2922240   2.414   2.488   3.195 -0.1613 -0.6655  0.6177
  192SAPI   H9R22241   2.434   2.543   3.289  2.6393  0.2994 -0.4197
  192SAPI  C21022242   2.543   2.462   3.123 -0.1947  0.1548 -0.3788
  192SAPI  H10R22243   2.531   2.420   3.020  2.7708  2.9177 -2.0308
  192SAPI  H10S22244   2.604   2.387   3.177  1.5817  0.4464 -1.8943
  192SAPI  C21122245   2.632   2.582   3.117  0.2605  0.6382  1.1982
  192SAPI  H11R22246   2.611   2.650   3.033  1.5265 -0.7975 -0.3557
  192SAPI  C21222247   2.738   2.605   3.189  0.2761  0.3256 -0.0745
  192SAPI  H12R22248   2.794   2.697   3.169  1.0163  0.1009  0.8634
  192SAPI  C21322249   2.789   2.531   3.311  0.1253  0.3569 -0.1254
  192SAPI  H13R22250   2.892   2.507   3.277 -0.5273  1.7572 -3.4890
  192SAPI  H13S22251   2.747   2.429   3.322 -0.9778  0.6199 -1.5308
  192SAPI  C21422252   2.791   2.617   3.440 -0.7563 -0.1308 -0.0722
  192SAPI  H14R22253   2.698   2.662   3.477 -1.3369 -2.3344  1.3903
  192SAPI  C21522254   2.903   2.671   3.497 -0.0652  0.2153 -0.1082
  192SAPI  H15R22255   2.892   2.748   3.575  1.4313  0.0094  0.3402
  192SAPI  C21622256   3.039   2.635   3.448  0.1669  0.1812  0.2418
  192SAPI  H16R22257   3.032   2.640   3.337 -0.0521  0.2493  0.2582
  192SAPI  H16S22258   3.048   2.526   3.468  2.3601  0.4821  1.1202
  192SAPI  C21722259   3.146   2.705   3.518  0.2411  0.7554  0.3122
  192SAPI  H17R22260   3.134   2.710   3.628 -0.7676  3.6969  0.1731
  192SAPI  H17S22261   3.152   2.806   3.471 -0.3419  1.1914  1.1379
  192SAPI  C21822262   3.285   2.635   3.485 -0.5688 -0.7610 -0.3602
  192SAPI  H18R22263   3.315   2.674   3.386  1.5904  0.8254  0.8279
  192SAPI  H18S22264   3.278   2.524   3.494  1.0277 -1.0793 -2.2619
  192SAPI  C21922265   3.399   2.678   3.580 -0.0224  0.5762  1.0245
  192SAPI  H19R22266   3.388   2.638   3.682  1.9613  2.1616  1.9275
  192SAPI  H19S22267   3.397   2.788   3.593 -1.2545  0.4924  1.6498
  192SAPI  C22022268   3.544   2.648   3.535 -0.5738  0.2738  0.5682
  192SAPI  H20R22269   3.567   2.541   3.552 -0.7192  0.2184  0.4103
  192SAPI  H20S22270   3.619   2.715   3.584  2.3184 -0.5046 -2.4236
  192SAPI  H20T22271   3.557   2.675   3.428  0.1801 -1.1038  0.2862
  192SAPI   C3322272   1.301   2.461   2.919  0.1195  0.4574 -0.1533
  192SAPI   H3X22273   1.286   2.352   2.931 -2.5932  0.8757  0.8882
  192SAPI   H3Y22274   1.201   2.493   2.884 -0.7434 -1.7942  0.1184
  192SAPI   C3422275   1.333   2.527   3.055  0.0452  0.3714 -0.3691
  192SAPI   H4X22276   1.343   2.637   3.044  0.1077  0.6213  1.7731
  192SAPI   H4Y22277   1.436   2.494   3.078 -0.0335  2.3166  3.5584
  192SAPI   C3522278   1.250   2.476   3.171  0.0280 -0.6692 -0.3549
  192SAPI   H5X22279   1.259   2.365   3.179 -0.9611 -0.6498  1.5163
  192SAPI   H5Y22280   1.143   2.506   3.163  0.2095 -0.4085 -2.4645
  192SAPI   C3622281   1.303   2.536   3.296 -0.2359 -0.0896  0.0954
  192SAPI   H6X22282   1.239   2.508   3.382 -1.4808  2.3621  0.0507
  192SAPI   H6Y22283   1.296   2.647   3.292  0.6503 -0.0137  0.5480
  192SAPI   C3722284   1.444   2.512   3.327  0.4166  0.1944 -0.8074
  192SAPI   H7X22285   1.507   2.567   3.254  0.2627  2.8643  0.9581
  192SAPI   H7Y22286   1.462   2.403   3.312  0.3368 -0.1090  1.0779
  192SAPI   C3822287   1.484   2.556   3.470  0.4104  0.0711 -0.0048
  192SAPI   H8X22288   1.444   2.654   3.501 -1.5336 -0.4371 -0.7523
  192SAPI   H8Y22289   1.595   2.559   3.475  0.3269  1.3006  1.8141
  192SAPI   C3922290   1.448   2.449   3.578  0.8121  0.1957 -0.0821
  192SAPI   H9X22291   1.464   2.350   3.530  1.9902 -0.4356  1.5324
  192SAPI   H9Y22292   1.340   2.457   3.601  1.0811  1.3476  0.9182
  192SAPI  C31022293   1.518   2.474   3.716 -0.2893 -0.1400  0.8616
  192SAPI  H10X22294   1.627   2.458   3.722 -0.2469 -0.3734 -0.2473
  192SAPI  H10Y22295   1.464   2.412   3.792 -1.9460  1.2293  0.8726
  192SAPI  C31122296   1.485   2.609   3.768 -0.7869 -0.1834  0.1976
  192SAPI  H11X22297   1.374   2.607   3.769 -0.7719 -1.5908  0.2563
  192SAPI  H11Y22298   1.525   2.680   3.693 -0.7015 -0.6135 -0.1649
  192SAPI  C31222299   1.538   2.636   3.908  0.0738  0.2628 -1.0137
  192SAPI  H12X22300   1.507   2.739   3.934 -1.0835 -0.4227  0.5244
  192SAPI  H12Y22301   1.649   2.636   3.907  0.0836  1.0345 -2.5216
  192SAPI  C31322302   1.481   2.549   4.021 -0.6132  1.0357  0.3314
  192SAPI  H13X22303   1.562   2.481   4.055 -1.0231  0.6962  0.6267
  192SAPI  H13Y22304   1.388   2.499   3.988  0.9011 -0.3406 -2.1822
  192SAPI  C31422305   1.440   2.621   4.152 -0.0720  0.1071  0.0824
  192SAPI  H14X22306   1.399   2.543   4.220  0.3067  0.3512  0.5903
  192SAPI  H14Y22307   1.355   2.692   4.142 -1.0744 -0.7012  2.2153
  192SAPI  C31522308   1.554   2.692   4.229  0.6402 -0.8988  0.5352
  192SAPI  H15X22309   1.504   2.724   4.322 -1.5632 -2.1886 -0.1338
  192SAPI  H15Y22310   1.575   2.785   4.172  1.3212 -1.8566 -0.8373
  192SAPI  C31622311   1.687   2.619   4.250 -0.2515 -0.6465  0.2322
  192SAPI  H16X22312   1.735   2.622   4.149 -1.3984  1.1257 -0.2979
  192SAPI  H16Y22313   1.681   2.515   4.289 -0.0951 -1.3047 -1.3808
  192SAPI  C31722314   1.792   2.684   4.337  0.2730 -1.3497 -0.2400
  192SAPI  H17X22315   1.862   2.610   4.382  0.9611 -1.7840 -1.9449
  192SAPI  H17Y22316   1.755   2.741   4.426  1.7310 -1.2242  0.3208
  192SAPI  C31822317   1.878   2.774   4.253 -0.2281 -0.0732  0.0955
  192SAPI  H18X22318   1.814   2.846   4.196 -0.5112 -0.4358 -0.0521
  192SAPI  H18Y22319   1.937   2.711   4.183  2.1256  0.5121  1.4550
  192SAPI  H18Z22320   1.946   2.838   4.313 -1.2826 -0.3070  1.5857
  193SOD    SOD22321   5.593   6.624   6.382 -0.4448 -0.0670  0.0227
  194SOD    SOD22322   4.072   0.862   0.962 -0.2078  0.1556 -0.1475
  195SOD    SOD22323   5.050   4.342   7.256 -0.4771 -0.1401  0.3620
  196SOD    SOD22324   4.111   5.485   0.281 -0.0225 -0.3794  0.1319
  197SOD    SOD22325   5.767   5.668   2.521 -0.6634 -0.1700 -0.1461
  198SOD    SOD22326   4.733   0.121   2.219 -0.3843 -0.8848 -0.2159
  199SOD    SOD22327   2.527   0.959   6.661  0.3092 -0.5696 -0.0911
  200SOD    SOD22328   0.605   1.158   7.053 -0.3114 -0.3150 -0.1898
  201SOD    SOD22329   1.858   5.489   6.295 -0.4829 -0.2218 -0.2095
  202SOD    SOD22330   1.166   0.800   6.969 -0.8679 -0.1671 -0.0760
  203SOD    SOD22331   1.517   1.709   1.027 -0.4832  0.1661 -0.4371
  204SOD    SOD22332   4.405   5.140   7.679 -0.3223  0.2701  0.6514
  205SOD    SOD22333   0.309   2.821   2.486 -0.1048  0.0277 -0.0779
  206SOD    SOD22334   0.330   5.298   0.743 -0.4305  0.4678 -0.2100
  207SOD    SOD22335   2.709   3.215   1.625  0.1179  0.1281  0.1090
  208SOD    SOD22336   6.470   0.212   0.247  0.0929  0.2455  0.4177
  209SOD    SOD22337   1.841   1.856   8.397 -0.0039 -0.5821  0.0090
  210SOD    SOD22338   2.248   5.942   2.112 -0.2382 -0.0577 -0.1512
  211SOD    SOD22339   2.307   6.736   6.412 -0.2785 -0.4206  0.5157
  212SOD    SOD22340   5.837   2.150   1.234 -0.0105  0.0700  0.1222
  213SOD    SOD22341   6.718   2.835   6.994 -0.0703  0.2077 -0.3141
  214SOD    SOD22342   2.201   1.902   6.620 -0.0854  0.4634 -0.0528
  215SOD    SOD22343   3.369   0.328   2.351 -0.3069  0.4872 -0.1013
  216SOD    SOD22344   0.775   3.629   7.004  0.4497  0.3320 -0.0649
  217SOD    SOD22345   0.028   0.816   8.398 -0.5049 -0.1277  0.4352
  218SOD    SOD22346   0.317   4.106   7.837 -0.5406  0.1695 -0.2370
  219SOD    SOD22347   6.685   2.900   7.968  0.1418 -0.0113 -0.0724
  220SOD    SOD22348   5.958   1.903   0.738  0.5935 -0.1835 -0.0615
  221SOD    SOD22349   5.780   0.665   2.489  0.0936 -0.1446  0.1010
  222SOD    SOD22350   3.828   3.424   7.156  0.2537  0.1518 -0.3025
  223SOD    SOD22351   4.484   2.597   2.417  0.0118  0.1284  0.0081
  224SOD    SOD22352   5.582   4.338   1.693 -0.3096  0.4650 -0.4863
  225SOD    SOD22353   2.557   5.355   8.126  0.5220  0.1005 -0.2134
  226SOD    SOD22354   1.985   1.622   0.623 -0.3015 -0.0860 -0.0654
  227SOD    SOD22355   3.854   2.636   7.992 -0.6100  0.0808 -0.3281
  228SOD    SOD22356   6.591   2.504   6.751  0.2888 -0.5175 -0.2256
  229SOD    SOD22357   2.396   5.450   2.353  0.0664 -0.4405 -0.3532
  230CLA    CLA22358   2.986   2.512   7.336 -0.4424  0.1601  0.3627
  231CLA    CLA22359   0.056   0.048   8.514  0.2635  0.1199  0.3835
  232CLA    CLA22360   2.885   1.943   1.030 -0.2058 -0.3525 -0.2053
  233CLA    CLA22361   1.341   1.635   7.531  0.2553 -0.2532  0.1993
  234CLA    CLA22362   4.911   0.904   0.954 -0.8840  0.2403  0.0462
  235CLA    CLA22363   6.159   4.978   7.367  0.0924  0.0207  0.0812
  236CLA    CLA22364   0.459   2.651   8.308  0.1450  0.1259  0.3412
  237CLA    CLA22365   3.963   3.518   7.565 -0.5435  0.1211 -0.2885
  238CLA    CLA22366   2.930   0.145   0.747 -0.0711  0.2884 -0.4063
  239CLA    CLA22367   5.036   4.315   1.283 -0.0447  0.0640 -0.1364
  240CLA    CLA22368   5.608   4.463   8.341  0.2133  0.1792  0.4138
  241CLA    CLA22369   0.290   1.637   7.081  0.0262 -0.4206  0.0517
  242CLA    CLA22370   2.824   5.493   7.485 -0.4202  0.2517  0.1082
  243CLA    CLA22371   1.019   1.841   1.667  0.0703  0.3035 -0.1031
  244CLA    CLA22372   5.019   5.802   7.118  0.1962  0.2115 -0.1714
  245CLA    CLA22373   5.823   6.224   0.249 -0.0285 -0.1262 -0.0044
  246CLA    CLA22374   4.878   2.757   1.842 -0.1548 -0.1905 -0.2353
  247TIP3   OH222375   5.744   5.484   7.986  0.0735 -0.2577  0.0014
  247TIP3    H122376   5.677   5.531   8.036 -0.4579  0.5978 -1.4220
  247TIP3    H222377   5.798   5.441   8.051 -0.6512  0.7080  1.2795
  248TIP3   OH222378   4.621   0.779   1.636 -0.4418  0.0728  0.0374
  248TIP3    H122379   4.673   0.827   1.701 -0.7184  1.0328 -0.4364
  248TIP3    H222380   4.684   0.753   1.569  0.0333 -1.7700  1.1089
  249TIP3   OH222381   4.379   5.880   7.506 -0.1788 -0.1286 -0.0076
  249TIP3    H122382   4.413   5.947   7.447 -0.2586 -0.3949 -0.3539
  249TIP3    H222383   4.354   5.929   7.585 -1.7265  0.5017 -0.8386
  250TIP3   OH222384   6.809   0.553   7.436  0.4543  0.3233  0.1852
  250TIP3    H122385   6.753   0.616   7.482  0.5766 -0.3361  1.2834
  250TIP3    H222386   6.840   0.600   7.359 -1.3551  0.8179 -0.2911
  251TIP3   OH222387   6.824   1.459   8.204 -0.0736  0.2225  0.3706
  251TIP3    H122388   6.919   1.451   8.211 -0.2046 -2.2664  0.2697
  251TIP3    H222389   6.791   1.369   8.213 -2.2199  0.5641 -2.4438
  252TIP3   OH222390   6.814   3.482   1.844 -0.2261 -0.2958 -0.0430
  252TIP3    H122391   6.864   3.562   1.861  0.1589 -0.4584 -0.3930
  252TIP3    H222392   6.723   3.511   1.846 -0.1165  0.0187  0.5164
  253TIP3   OH222393   0.344   3.794   2.041 -0.0785 -0.2178  0.5330
  253TIP3    H122394   0.338   3.860   1.971 -1.3022 -0.3551  0.4946
  253TIP3    H222395   0.352   3.711   1.995  1.2627 -0.1371  0.5821
  254TIP3   OH222396   2.432   1.235   2.885 -0.1590  0.2459  0.6930
  254TIP3    H122397   2.460   1.321   2.918  2.3914 -0.6248  1.0344
  254TIP3    H222398   2.427   1.180   2.963  0.3746 -0.4268  0.2698
  255TIP3   OH222399   0.427   0.321   7.362  0.2033 -0.2196  0.0525
  255TIP3    H122400   0.343   0.337   7.318  1.7941  0.6010 -3.0056
  255TIP3    H222401   0.433   0.225   7.368 -0.0943 -0.3921 -1.7017
  256TIP3   OH222402   6.860   3.546   1.412 -0.3746 -0.4329 -0.7624
  256TIP3    H122403   6.952   3.553   1.434 -0.1182 -0.9490 -1.6251
  256TIP3    H222404   6.815   3.603   1.475  0.4357 -0.8997  0.2424
  257TIP3   OH222405   6.001   2.386   0.059  0.5347 -0.2159  0.0317
  257TIP3    H122406   6.040   2.315   0.110 -1.5610 -0.4227  1.4533
  257TIP3    H222407   5.929   2.344   0.011  0.0220  0.7286 -0.0416
  258TIP3   OH222408   0.481   3.210   1.035 -0.4701 -0.3440  0.0582
  258TIP3    H122409   0.436   3.126   1.025 -0.7090 -0.3578  1.1745
  258TIP3    H222410   0.569   3.186   1.064 -0.8690 -0.1880  1.4702
  259TIP3   OH222411   4.287   2.359   0.388  0.4613  0.0855 -0.0399
  259TIP3    H122412   4.279   2.420   0.315 -1.4136  0.3048  0.3044
  259TIP3    H222413   4.223   2.291   0.371  1.3489 -0.9179  0.4439
  260TIP3   OH222414   6.332   0.016   7.758 -0.3708  0.1214 -0.3346
  260TIP3    H122415   6.268  -0.039   7.713 -0.6163  0.6766 -0.6796
  260TIP3    H222416   6.348  -0.029   7.841 -0.5841 -0.4519 -0.6036
  261TIP3   OH222417   6.777   2.888   7.751  0.0308 -0.6052  0.1926
  261TIP3    H122418   6.833   2.959   7.718 -0.2647 -0.7504 -0.6560
  261TIP3    H222419   6.790   2.816   7.688  0.5663 -1.4291  1.2048
  262TIP3   OH222420   0.272   4.113   8.580  0.0406  0.2803 -0.0377
  262TIP3    H122421   0.337   4.162   8.530  1.3296 -0.1934  1.1392
  262TIP3    H222422   0.315   4.031   8.603 -0.3636  0.6289  2.1612
  263TIP3   OH222423   3.580   0.976   7.096 -0.2748  0.4940  0.0962
  263TIP3    H122424   3.631   0.906   7.136  0.9402  1.3608  0.1203
  263TIP3    H222425   3.575   0.952   7.003  0.1391  0.3567  0.1043
  264TIP3   OH222426   0.151   2.368   0.241  0.4602 -0.3268  0.1305
  264TIP3    H122427   0.120   2.389   0.153 -0.6440 -0.3508  0.4981
  264TIP3    H222428   0.229   2.316   0.227  0.6947  0.2615 -0.8289
  265TIP3   OH222429   1.517   4.888   8.529  0.1520  0.0374  0.4775
  265TIP3    H122430   1.424   4.881   8.549  0.5195  0.6080  2.6079
  265TIP3    H222431   1.521   4.944   8.452 -1.2345  0.5669  0.7675
  266TIP3   OH222432   6.218   2.873   7.498 -0.2155 -0.1447  0.4805
  266TIP3    H122433   6.204   2.788   7.457  0.4102 -0.1622  0.2947
  266TIP3    H222434   6.312   2.878   7.513 -0.1071  0.9427 -0.4502
  267TIP3   OH222435   3.468   3.952   0.795  0.1318 -0.3956 -0.1520
  267TIP3    H122436   3.481   4.045   0.779 -1.3444 -0.4693 -2.1635
  267TIP3    H222437   3.430   3.948   0.882  3.5664  0.5056  1.5818
  268TIP3   OH222438   5.171   0.289   7.968 -0.4999 -0.2584  0.7705
  268TIP3    H122439   5.183   0.195   7.980  0.5622 -0.3065 -0.3952
  268TIP3    H222440   5.116   0.296   7.889 -0.4266  0.0945  0.7485
  269TIP3   OH222441   6.682   2.633   6.566 -0.1111  0.1219  0.0886
  269TIP3    H122442   6.712   2.724   6.557  1.9110 -0.3391  1.3024
  269TIP3    H222443   6.690   2.597   6.478  1.5048  0.4835  0.0499
  270TIP3   OH222444   5.952   5.976   0.007 -0.7344  0.1907  0.1907
  270TIP3    H122445   6.044   6.002  -0.005 -0.8706  0.3025 -0.6216
  270TIP3    H222446   5.911   6.052   0.049 -0.8526  0.8415 -1.0714
  271TIP3   OH222447   5.315   2.864   0.378  0.5004 -0.6695 -0.1555
  271TIP3    H122448   5.385   2.810   0.412  0.8625 -1.0573 -1.4474
  271TIP3    H222449   5.248   2.863   0.446  1.2745 -1.2200  0.6133
  272TIP3   OH222450   3.780   3.582   1.769 -0.1658 -0.2815  0.3776
  272TIP3    H122451   3.858   3.608   1.719 -0.5225  0.3875  0.1563
  272TIP3    H222452   3.808   3.505   1.818  0.4759 -0.3818 -0.1244
  273TIP3   OH222453   2.486   1.369   0.862 -0.1263 -0.2023  0.3833
  273TIP3    H122454   2.457   1.380   0.952  1.1210 -0.9867  0.8978
  273TIP3    H222455   2.433   1.296   0.829  0.4306 -0.8796  0.9553
  274TIP3   OH222456   0.578   2.632   0.609  0.3308  0.4896  0.7832
  274TIP3    H122457   0.542   2.549   0.640  1.1165 -0.7249 -1.3394
  274TIP3    H222458   0.509   2.669   0.554  0.5634  0.4242  0.4383
  275TIP3   OH222459   2.986   2.071   0.744  0.7880 -0.1691  0.2843
  275TIP3    H122460   3.002   2.012   0.670  1.3975  0.0779  0.2111
  275TIP3    H222461   2.918   2.028   0.796  0.4565 -0.4174 -0.3422
  276TIP3   OH222462   3.966   3.937   0.968 -0.3871 -0.5400 -0.4820
  276TIP3    H122463   4.010   3.876   0.908 -0.9402 -0.4727 -0.9641
  276TIP3    H222464   3.887   3.963   0.922 -1.8285 -1.9631  1.0605
  277TIP3   OH222465   5.687   2.016   1.118  0.3259 -0.4495 -0.6246
  277TIP3    H122466   5.691   1.921   1.132  0.7869 -0.3944 -0.3730
  277TIP3    H222467   5.597   2.039   1.139  0.6519 -0.5618  1.0835
  278TIP3   OH222468   1.069   0.200   2.322 -0.0399  0.0462  0.1124
  278TIP3    H122469   1.089   0.234   2.409  0.0378  0.9656 -0.2479
  278TIP3    H222470   0.974   0.189   2.323  0.1080 -1.3362  0.7840
  279TIP3   OH222471   3.635   0.086   8.507 -0.5698 -0.2273 -0.1359
  279TIP3    H122472   3.694   0.146   8.552 -1.1853  1.2624 -1.2328
  279TIP3    H222473   3.586   0.141   8.446 -2.0009 -1.6651 -0.3632
  280TIP3   OH222474   3.625   4.035   1.578  0.3385  0.2443  0.3949
  280TIP3    H122475   3.594   4.081   1.656  1.3223  1.7641 -0.0580
  280TIP3    H222476   3.714   4.066   1.566  0.7566 -1.1977 -0.4329
  281TIP3   OH222477   1.593   3.636   6.783 -0.2263  0.1589  0.1099
  281TIP3    H122478   1.682   3.671   6.783 -0.3228  0.4131  0.5307
  281TIP3    H222479   1.600   3.552   6.736  0.2633  0.0947  0.2937
  282TIP3   OH222480   0.111   4.304   0.584  0.2794  0.7622  0.4434
  282TIP3    H122481   0.082   4.285   0.495 -0.2324 -3.1030  1.2771
  282TIP3    H222482   0.030   4.309   0.635  0.6657  0.2580  1.1155
  283TIP3   OH222483   1.652   2.045   7.653 -0.4665 -0.4513 -0.0368
  283TIP3    H122484   1.572   2.010   7.613  0.5446 -0.0356 -2.6184
  283TIP3    H222485   1.710   1.969   7.661 -1.0516 -0.7532  1.8358
  284TIP3   OH222486   2.163   5.505   7.603  0.1884 -0.5720 -0.1900
  284TIP3    H122487   2.092   5.540   7.550 -1.3473 -0.9071  1.5393
  284TIP3    H222488   2.182   5.419   7.564  0.5333  0.0530 -1.4222
  285TIP3   OH222489   6.522   2.262   2.477 -0.1055 -0.2659  0.3307
  285TIP3    H122490   6.577   2.193   2.514 -0.3188 -0.1185  0.9262
  285TIP3    H222491   6.444   2.215   2.446  0.7325 -0.6097 -1.3693
  286TIP3   OH222492   5.370   5.712   7.497 -0.0997 -0.0309 -0.1699
  286TIP3    H122493   5.307   5.770   7.454 -0.5494  0.3623  0.9821
  286TIP3    H222494   5.418   5.769   7.557 -0.7208 -0.8739  1.1699
  287TIP3   OH222495   2.331   3.061   7.968  0.2003  0.5613  0.0017
  287TIP3    H122496   2.323   3.115   7.889  1.6960  0.6418 -0.1395
  287TIP3    H222497   2.421   3.028   7.964 -0.4980 -1.5047  0.3695
  288TIP3   OH222498   5.600   0.981   0.628 -0.0296 -0.2926  0.1867
  288TIP3    H122499   5.549   0.954   0.705  0.0044  0.3869  0.4601
  288TIP3    H222500   5.578   0.917   0.561 -2.0332  0.5466 -0.0245
  289TIP3   OH222501   0.152   6.144   1.112  0.2489 -0.1079 -0.3916
  289TIP3    H122502   0.155   6.054   1.143  1.5152  0.5902  1.7281
  289TIP3    H222503   0.060   6.158   1.089 -0.0415 -1.8032 -0.4185
  290TIP3   OH222504   2.401   5.790   2.026 -0.5148  0.4184 -0.3160
  290TIP3    H122505   2.398   5.778   1.931 -0.5670  0.5205 -0.3286
  290TIP3    H222506   2.493   5.778   2.049 -0.6718 -0.6685 -0.2291
  291TIP3   OH222507   0.059   4.824   7.834 -0.2059  0.0397  0.0137
  291TIP3    H122508   0.079   4.904   7.785 -1.1355  0.8647  0.9408
  291TIP3    H222509   0.091   4.841   7.922 -0.5245 -0.5714  0.2532
  292TIP3   OH222510   6.167   0.060   1.964  0.4792  0.4783  0.2704
  292TIP3    H122511   6.188  -0.020   2.012 -1.5050 -0.0548  0.3460
  292TIP3    H222512   6.188   0.131   2.025 -0.3068 -0.1170  1.2669
  293TIP3   OH222513   6.499   3.263   2.199  0.2679  0.2337  0.7006
  293TIP3    H122514   6.544   3.276   2.283 -1.0463 -0.1572  1.4855
  293TIP3    H222515   6.458   3.177   2.206 -0.3931  0.4659 -0.0895
  294TIP3   OH222516   4.548   4.491   1.395 -0.2621  0.4251  0.1839
  294TIP3    H122517   4.508   4.405   1.387  0.0567  0.0931  1.7158
  294TIP3    H222518   4.506   4.531   1.471  0.5422  1.0695  0.3146
  295TIP3   OH222519   5.695   1.407   1.283 -0.0051 -0.4332 -0.4406
  295TIP3    H122520   5.622   1.469   1.291  1.1224  1.2214 -2.1377
  295TIP3    H222521   5.721   1.389   1.373 -1.4468  0.2200  0.1488
  296TIP3   OH222522   5.767   2.464   6.671 -0.5556 -0.3908  0.2372
  296TIP3    H122523   5.854   2.500   6.655  0.7095 -3.8362 -1.6103
  296TIP3    H222524   5.718   2.487   6.592 -0.8143  0.0434  0.5171
  297TIP3   OH222525   5.193   0.678   8.452  0.2451 -0.0488  0.2947
  297TIP3    H122526   5.214   0.649   8.363 -0.0652 -0.0803  0.2295
  297TIP3    H222527   5.102   0.652   8.465  0.5806 -0.9392  0.9857
  298TIP3   OH222528   1.052   1.960   8.596  0.1915  0.5680  0.3857
  298TIP3    H122529   0.961   1.963   8.625 -0.9542  0.0453 -2.7673
  298TIP3    H222530   1.051   2.000   8.509  2.7562 -0.5541 -0.2634
  299TIP3   OH222531   1.829   3.869   8.168 -0.4828 -0.4419  0.5098
  299TIP3    H122532   1.923   3.854   8.172 -0.6486 -1.6777  0.2178
  299TIP3    H222533   1.819   3.965   8.171  0.7535 -0.3105  0.7855
  300TIP3   OH222534   2.801   6.094   0.544 -0.0264 -0.6522 -0.1677
  300TIP3    H122535   2.778   6.134   0.460  0.6539  0.1033 -0.0013
  300TIP3    H222536   2.815   6.168   0.603  1.1509 -1.1277  0.1730
  301TIP3   OH222537   5.625   6.605   0.633 -0.1092 -0.3192  0.1909
  301TIP3    H122538   5.567   6.531   0.614 -0.9780  0.5336 -0.5312
  301TIP3    H222539   5.702   6.590   0.578 -0.3920 -0.5538 -0.1472
  302TIP3   OH222540   0.190   4.650   7.204 -0.4681 -0.0887 -0.1149
  302TIP3    H122541   0.233   4.604   7.133 -0.0969  0.4965 -0.2771
  302TIP3    H222542   0.259   4.704   7.244 -0.6530 -0.4746  0.7417
  303TIP3   OH222543   4.324   6.926   2.042 -0.2621 -0.3605  0.2051
  303TIP3    H122544   4.260   6.979   1.993 -1.2945 -1.3932  0.3995
  303TIP3    H222545   4.314   6.838   2.006  0.3418 -0.7451  0.9639
  304TIP3   OH222546   1.468   4.658   1.968 -0.4653 -0.3433 -0.2072
  304TIP3    H122547   1.477   4.597   1.894  0.7348  0.2027 -0.5375
  304TIP3    H222548   1.416   4.730   1.933  0.2091 -0.0270 -0.5561
  305TIP3   OH222549   5.551   1.885   8.059  1.2660 -0.1717 -0.4366
  305TIP3    H122550   5.543   1.910   8.152  2.1882  1.2553 -0.7183
  305TIP3    H222551   5.641   1.856   8.049  0.4505 -3.1173 -0.3051
  306TIP3   OH222552   5.173   4.338   0.843  0.0327  0.2854  0.0604
  306TIP3    H122553   5.112   4.282   0.892  0.3891 -1.1321 -1.0488
  306TIP3    H222554   5.126   4.420   0.832 -1.3585 -0.4822 -0.0202
  307TIP3   OH222555   4.161   5.121   7.256 -0.0340 -0.2325 -0.1642
  307TIP3    H122556   4.160   5.217   7.247 -0.2594 -0.3054 -1.0455
  307TIP3    H222557   4.085   5.092   7.205  0.8625 -0.9677 -1.1346
  308TIP3   OH222558   4.746   3.509   1.152  0.2252  0.0692  0.1625
  308TIP3    H122559   4.667   3.563   1.144  0.0434  0.1146  1.8750
  308TIP3    H222560   4.724   3.427   1.108 -0.1096  0.7427 -0.9599
  309TIP3   OH222561   4.712   2.760   1.582  0.4551  0.1165 -0.4580
  309TIP3    H122562   4.634   2.777   1.635  0.3337 -1.8166  0.0455
  309TIP3    H222563   4.781   2.742   1.646  0.5903 -1.0967 -0.9355
  310TIP3   OH222564   4.044   4.863   7.528  0.0119  0.1505 -0.3324
  310TIP3    H122565   4.102   4.834   7.457  0.6135 -1.3696  0.7218
  310TIP3    H222566   4.033   4.785   7.583  0.0496  1.4321  1.5774
  311TIP3   OH222567   4.602   3.927   1.157 -0.1908  0.4121  0.2084
  311TIP3    H122568   4.680   3.963   1.199  0.0417  0.5359 -0.3244
  311TIP3    H222569   4.574   3.996   1.096 -0.7159  0.3679  0.3924
  312TIP3   OH222570   3.200   0.426   0.418 -0.2738  0.0570  0.4592
  312TIP3    H122571   3.146   0.427   0.339  0.2044  0.4940  0.1294
  312TIP3    H222572   3.229   0.517   0.428 -0.5066  0.0455  1.2623
  313TIP3   OH222573   4.972   4.191   0.984  0.3264  0.0551  0.2889
  313TIP3    H122574   4.948   4.237   1.064 -0.2964  2.3722 -1.1414
  313TIP3    H222575   4.890   4.184   0.934  1.1599  1.3994 -1.4080
  314TIP3   OH222576   0.689   0.157   1.250  0.3471 -0.6598 -0.0408
  314TIP3    H122577   0.745   0.082   1.272 -1.0433 -1.3222  1.5012
  314TIP3    H222578   0.602   0.130   1.278 -0.0673  1.8470  1.3557
  315TIP3   OH222579   4.882   0.770   7.653 -0.3396  0.2340  0.0204
  315TIP3    H122580   4.798   0.761   7.697 -1.9687 -0.5115 -2.9688
  315TIP3    H222581   4.862   0.759   7.560  3.0272  0.4149 -0.8657
  316TIP3   OH222582   5.204   6.700   0.275  0.3980  0.4061  0.0605
  316TIP3    H122583   5.247   6.697   0.360  0.0208  1.5076  0.2998
  316TIP3    H222584   5.146   6.776   0.280 -0.4028 -0.1365 -0.8118
  317TIP3   OH222585   5.001   5.966   0.725 -0.4561 -0.1093  0.7907
  317TIP3    H122586   4.928   5.908   0.746 -0.0406 -1.4929 -1.3163
  317TIP3    H222587   5.079   5.912   0.736 -0.0620 -0.0458 -1.2775
  318TIP3   OH222588   1.368   2.058   8.049  0.2177  0.2378  0.1983
  318TIP3    H122589   1.370   2.153   8.060 -0.3064  0.3713 -0.7392
  318TIP3    H222590   1.321   2.045   7.966 -0.1601 -0.8542  0.5731
  319TIP3   OH222591   3.332   6.399   2.500 -0.2769  1.3728  0.0828
  319TIP3    H122592   3.402   6.463   2.513  1.9273 -0.6635 -1.0418
  319TIP3    H222593   3.365   6.319   2.541 -1.2529 -0.0498 -1.7927
  320TIP3   OH222594   1.562   1.987   7.252 -0.7416  0.1851 -0.9970
  320TIP3    H122595   1.624   2.030   7.310 -0.6568  0.1755 -1.0784
  320TIP3    H222596   1.479   2.032   7.266 -1.1415 -0.9326  0.3965
  321TIP3   OH222597   2.137   0.546   0.909 -0.2611  0.3535 -0.2999
  321TIP3    H122598   2.214   0.545   0.965 -1.2745 -0.1235  1.1431
  321TIP3    H222599   2.094   0.462   0.925 -1.3445  0.8116 -0.6808
  322TIP3   OH222600   6.488   2.336   2.016 -0.2978 -0.2160  0.4763
  322TIP3    H122601   6.424   2.279   2.058  0.0802  0.4928  2.1190
  322TIP3    H222602   6.553   2.353   2.084  0.6798  0.5412 -0.5970
  323TIP3   OH222603   5.571   6.546   8.498  0.3729  0.0030 -0.2033
  323TIP3    H122604   5.576   6.494   8.578  1.0924 -0.8916 -0.8155
  323TIP3    H222605   5.554   6.483   8.429  1.8835  0.4806 -1.0508
  324TIP3   OH222606   1.291   3.214   8.152 -0.5546  0.2825 -0.4066
  324TIP3    H122607   1.257   3.158   8.222 -0.7540  0.1512 -0.6091
  324TIP3    H222608   1.249   3.299   8.168 -0.9941  0.1186 -0.6626
  325TIP3   OH222609   3.094   3.694   1.112  0.0200  0.5822  0.1651
  325TIP3    H122610   3.147   3.760   1.157  0.0517  0.2963  0.5518
  325TIP3    H222611   3.025   3.673   1.174  0.6833 -0.6058  0.5212
  326TIP3   OH222612   1.429   2.763   2.597  0.2547  0.1453  0.3832
  326TIP3    H122613   1.517   2.799   2.584  1.1032 -1.4539  1.4335
  326TIP3    H222614   1.399   2.804   2.678  0.7647 -0.6319  0.9751
  327TIP3   OH222615   1.391   2.903   2.292  0.4957  0.0836 -0.0895
  327TIP3    H122616   1.454   2.939   2.356  2.2417 -0.3506 -1.4695
  327TIP3    H222617   1.368   2.817   2.327 -1.3678  1.2361  1.7118
  328TIP3   OH222618   0.574   6.061   6.816 -0.3573  0.3089 -0.2681
  328TIP3    H122619   0.496   6.098   6.858  0.5519 -0.4861  2.3811
  328TIP3    H222620   0.561   5.967   6.821  0.3281  0.1838 -0.7186
  329TIP3   OH222621   1.092   0.482   6.784  0.0718  0.3998 -0.1040
  329TIP3    H122622   1.069   0.406   6.730 -0.7141  2.4569 -2.9093
  329TIP3    H222623   1.187   0.482   6.788  0.0975 -0.3330 -0.6581
  330TIP3   OH222624   0.094   0.465   8.235  0.2914 -0.0967 -0.6041
  330TIP3    H122625   0.141   0.446   8.153 -1.5532 -0.1636 -1.7136
  330TIP3    H222626   0.049   0.548   8.218  2.4619  1.6857  1.5889
  331TIP3   OH222627   4.658   5.340   7.432 -0.4193 -0.2130 -0.3421
  331TIP3    H122628   4.707   5.419   7.454 -0.5931  0.1091 -1.0656
  331TIP3    H222629   4.721   5.284   7.387 -0.4427 -0.2315 -0.3520
  332TIP3   OH222630   0.893   0.056   8.199  0.3077  0.1604 -0.6572
  332TIP3    H122631   0.865   0.001   8.272 -0.9792  1.0248 -0.4567
  332TIP3    H222632   0.879   0.002   8.122 -0.2129 -0.0793 -0.4056
  333TIP3   OH222633   3.945   5.213   8.373  0.2324  0.0037 -0.0958
  333TIP3    H122634   3.900   5.259   8.444  0.2493  1.3557 -0.9173
  333TIP3    H222635   4.017   5.272   8.349  0.7717 -0.8562 -0.6284
  334TIP3   OH222636   1.332   4.781   6.842  0.2116 -0.1212 -0.6855
  334TIP3    H122637   1.367   4.861   6.803 -1.8270  0.7428 -0.8385
  334TIP3    H222638   1.239   4.799   6.856  0.3809 -1.1478  2.5949
  335TIP3   OH222639   3.064   5.032   7.236  0.2142  1.1322  0.8669
  335TIP3    H122640   2.997   5.094   7.263 -0.2110  0.5382  1.2070
  335TIP3    H222641   3.144   5.061   7.281  0.3691  2.2356 -0.0636
  336TIP3   OH222642   1.982   1.693   7.331  0.3971 -0.3291 -0.2152
  336TIP3    H122643   1.974   1.775   7.381 -0.1449  0.2298 -1.1851
  336TIP3    H222644   1.993   1.625   7.397 -0.5608  0.3569  0.6738
  337TIP3   OH222645   3.623   6.301   1.309  0.1777  0.4202 -0.0361
  337TIP3    H122646   3.699   6.257   1.346  0.0630 -2.1191 -2.4959
  337TIP3    H222647   3.557   6.232   1.302 -1.1886  1.7769 -1.0789
  338TIP3   OH222648   5.942   0.685   7.898  0.3759 -0.6925 -0.4781
  338TIP3    H122649   5.866   0.628   7.912  1.5085 -1.4865  4.6621
  338TIP3    H222650   6.002   0.634   7.844 -0.8293 -2.1136 -0.5116
  339TIP3   OH222651   4.694   3.413   8.251  0.6503 -0.3815  0.1257
  339TIP3    H122652   4.780   3.439   8.284  0.1191  0.7180  0.7173
  339TIP3    H222653   4.687   3.455   8.166 -0.2783  1.6857  1.1566
  340TIP3   OH222654   1.740   1.073   0.711  0.5645  0.7245  0.5358
  340TIP3    H122655   1.732   1.155   0.663 -1.3366  0.9839  1.2218
  340TIP3    H222656   1.783   1.013   0.650  0.1446  1.6580 -0.6944
  341TIP3   OH222657   4.996   2.769   2.658  0.4512  0.6483 -0.0192
  341TIP3    H122658   5.073   2.769   2.602  1.1794 -1.3276  0.8704
  341TIP3    H222659   4.944   2.843   2.628  1.8980  1.0309 -1.7475
  342TIP3   OH222660   1.403   5.738   2.089  0.0469  0.1062  0.1433
  342TIP3    H122661   1.462   5.669   2.119 -0.0493 -1.4574 -2.8950
  342TIP3    H222662   1.460   5.800   2.043 -0.0869  1.3302  1.5398
  343TIP3   OH222663   1.103   6.180   2.201 -0.0176  0.7296  0.1019
  343TIP3    H122664   1.059   6.228   2.271 -0.3856 -0.3269  0.6197
  343TIP3    H222665   1.088   6.088   2.222  1.4874  0.3563 -0.3288
  344TIP3   OH222666   3.769   1.549   8.032  0.4904 -0.1817  0.3077
  344TIP3    H122667   3.822   1.508   8.100 -0.1544  0.3309  1.1350
  344TIP3    H222668   3.686   1.501   8.033 -0.3114  1.1571  1.3542
  345TIP3   OH222669   1.132   0.651   1.342 -0.5018  0.2116 -0.2146
  345TIP3    H122670   1.047   0.626   1.379 -0.8901 -0.3092 -1.4159
  345TIP3    H222671   1.162   0.723   1.397 -1.4108 -0.0343  0.6281
  346TIP3   OH222672   0.390   6.584   8.507 -0.3935  0.1610  0.1709
  346TIP3    H122673   0.311   6.592   8.454 -0.1555 -0.4507 -0.2851
  346TIP3    H222674   0.425   6.673   8.512  0.4025  0.0109 -1.9790
  347TIP3   OH222675   0.203   1.051   1.575 -0.3160 -0.0812  0.4390
  347TIP3    H122676   0.122   1.050   1.627 -0.0194  0.2672  0.9182
  347TIP3    H222677   0.271   1.073   1.638  0.3108 -1.3580  0.2425
  348TIP3   OH222678   0.850   4.815   1.594  0.0860 -0.7026  0.1348
  348TIP3    H122679   0.922   4.816   1.531 -0.1717 -0.1571 -0.1635
  348TIP3    H222680   0.771   4.823   1.540 -0.0828  1.0508  0.5630
  349TIP3   OH222681   0.239   1.158   7.802 -0.1799  0.4590 -0.4322
  349TIP3    H122682   0.304   1.164   7.732  1.8469 -0.5921  1.2471
  349TIP3    H222683   0.214   1.065   7.804  0.5711  0.2556  0.8539
  350TIP3   OH222684   6.644   4.983   7.540 -0.9612  0.0590 -0.4805
  350TIP3    H122685   6.661   4.971   7.633  1.1294  2.0408 -0.5132
  350TIP3    H222686   6.679   4.904   7.498  0.9109  0.4565  0.2215
  351TIP3   OH222687   2.296   2.192   0.736  0.1573  0.0464  0.2969
  351TIP3    H122688   2.228   2.184   0.802  0.4151 -0.9365  0.4588
  351TIP3    H222689   2.361   2.250   0.775 -0.2819  0.4866  0.3885
  352TIP3   OH222690   1.083   5.324   7.586 -0.4836 -0.6463  0.5371
  352TIP3    H122691   1.001   5.276   7.576 -0.4850 -0.4352 -0.6449
  352TIP3    H222692   1.060   5.414   7.562  0.0829 -0.5823  0.2190
  353TIP3   OH222693   6.841   3.836   7.092 -0.4290 -0.1970  0.3249
  353TIP3    H122694   6.934   3.828   7.115 -1.2651 -3.4031  3.5063
  353TIP3    H222695   6.831   3.783   7.013  0.4729  0.4772 -0.2564
  354TIP3   OH222696   1.791   2.097   1.258  0.1950  0.3393  0.0679
  354TIP3    H122697   1.808   2.119   1.349  0.8694  0.0094  0.0291
  354TIP3    H222698   1.704   2.134   1.239  0.4979  1.2924  0.5358
  355TIP3   OH222699   1.403   0.889   0.164 -0.2314  0.2568 -0.4356
  355TIP3    H122700   1.475   0.829   0.184 -0.6459 -0.0996  0.0216
  355TIP3    H222701   1.376   0.865   0.075  0.9703  1.1831 -1.0767
  356TIP3   OH222702   6.682   6.346   0.919  0.6341 -0.3336 -0.4506
  356TIP3    H122703   6.764   6.396   0.925  0.7070 -0.5049  0.0815
  356TIP3    H222704   6.614   6.411   0.938  0.6050 -0.0886 -1.3480
  357TIP3   OH222705   5.590   3.149   0.512 -0.0493 -0.2304  0.0835
  357TIP3    H122706   5.542   3.144   0.430 -0.9466  1.3272  0.4781
  357TIP3    H222707   5.524   3.171   0.578  0.5665 -1.9678  1.3373
  358TIP3   OH222708   1.887   0.905   0.537  0.4560 -0.4416 -0.4100
  358TIP3    H122709   1.940   0.940   0.466 -0.2385  0.7428 -0.3825
  358TIP3    H222710   1.948   0.897   0.611  0.6846  0.6621 -0.4487
  359TIP3   OH222711   6.772   3.883   2.080 -0.1680 -0.1453 -0.2248
  359TIP3    H122712   6.773   3.949   2.148 -1.9439  1.7161 -1.8538
  359TIP3    H222713   6.696   3.829   2.100  0.9751 -1.4189  0.8112
  360TIP3   OH222714   6.251   5.593   1.843  0.1714 -0.0347 -0.2513
  360TIP3    H122715   6.248   5.599   1.938 -2.8084  0.3228 -0.2792
  360TIP3    H222716   6.231   5.681   1.812 -1.8952 -0.7440 -1.1128
  361TIP3   OH222717   4.205   2.143   7.744  0.1905  0.1282  0.1522
  361TIP3    H122718   4.231   2.086   7.816 -0.4008 -0.4673 -0.0974
  361TIP3    H222719   4.219   2.232   7.777 -0.5381 -0.1269  1.1790
  362TIP3   OH222720   5.329   5.423   0.638 -0.8334 -0.0176  0.7630
  362TIP3    H122721   5.242   5.394   0.665 -0.3338 -2.1623  0.2553
  362TIP3    H222722   5.328   5.419   0.543  0.2090 -1.4619  0.7745
  363TIP3   OH222723   6.147   3.850   7.435 -0.0865 -0.7914  1.2841
  363TIP3    H122724   6.055   3.874   7.441 -0.1245  0.7248 -2.6622
  363TIP3    H222725   6.147   3.758   7.411 -0.5282 -0.8235  1.4050
  364TIP3   OH222726   4.419   2.413   0.627 -0.0984 -0.2936  0.1145
  364TIP3    H122727   4.378   2.364   0.556 -0.3033  0.4105 -0.2697
  364TIP3    H222728   4.508   2.380   0.631  0.2358  0.3747 -1.1813
  365TIP3   OH222729   3.385   4.501   1.464  0.0393 -0.3265  1.3000
  365TIP3    H122730   3.465   4.449   1.461  1.0423  1.1902  0.5179
  365TIP3    H222731   3.412   4.584   1.502 -1.4474 -0.1907  2.1507
  366TIP3   OH222732   2.227   5.635   7.232  0.0499 -1.0122  0.5414
  366TIP3    H122733   2.292   5.564   7.234 -1.7447 -2.7598  0.8333
  366TIP3    H222734   2.215   5.659   7.324  0.2273 -0.7537  0.4965
  367TIP3   OH222735   6.310   3.014   0.356 -0.3753  0.7108 -0.4154
  367TIP3    H122736   6.251   2.939   0.356  2.0730 -1.5042  3.0258
  367TIP3    H222737   6.344   3.018   0.267 -0.3683 -2.5395 -0.6684
  368TIP3   OH222738   5.177   4.772   8.106  0.4211 -0.4515 -0.0863
  368TIP3    H122739   5.261   4.739   8.136  0.3290  0.7326  1.6343
  368TIP3    H222740   5.198   4.843   8.046  0.7544  1.0397  1.6852
  369TIP3   OH222741   0.872   4.528   7.641 -0.1459 -0.2750  0.1280
  369TIP3    H122742   0.918   4.599   7.596 -0.9939 -0.0592 -0.4304
  369TIP3    H222743   0.903   4.533   7.732 -2.6272  2.9837  0.9761
  370TIP3   OH222744   5.058   5.510   6.399  0.0680 -0.6389  0.0215
  370TIP3    H122745   5.060   5.434   6.341 -0.7307 -1.1012  0.5840
  370TIP3    H222746   5.150   5.527   6.420  0.3795 -0.4418 -1.3937
  371TIP3   OH222747   3.235   3.507   8.181 -0.1845  0.2081  0.0116
  371TIP3    H122748   3.174   3.552   8.122 -0.0761  2.7892  1.7111
  371TIP3    H222749   3.322   3.535   8.150 -0.1122  1.1427  1.0113
  372TIP3   OH222750   4.824   3.546   7.652 -0.2406 -0.4585  0.1068
  372TIP3    H122751   4.768   3.469   7.648  0.5238 -1.1312  1.4457
  372TIP3    H222752   4.796   3.592   7.731  0.5489 -0.3896  0.3620
  373TIP3   OH222753   3.819   4.969   7.464 -0.2542  0.3850  0.1679
  373TIP3    H122754   3.796   4.952   7.372  0.2667  3.8781 -0.7370
  373TIP3    H222755   3.904   4.926   7.475  0.4062  1.1702 -1.4904
  374TIP3   OH222756   1.457   4.480   1.339 -0.0540 -0.5902 -0.8340
  374TIP3    H122757   1.493   4.446   1.421 -0.5529 -1.2471 -0.8826
  374TIP3    H222758   1.456   4.575   1.351 -1.0358 -0.7232  0.3189
  375TIP3   OH222759   0.609   5.368   8.019 -0.5365 -0.5545 -0.0893
  375TIP3    H122760   0.687   5.423   8.025  0.1320 -1.3362 -1.1963
  375TIP3    H222761   0.538   5.424   8.047  0.2761  0.5384 -0.1544
  376TIP3   OH222762   5.091   6.703   7.838 -0.3089 -0.0727 -0.1873
  376TIP3    H122763   5.030   6.729   7.768 -0.1741  0.7857 -0.0059
  376TIP3    H222764   5.172   6.682   7.792 -0.5634 -0.6348 -0.3824
  377TIP3   OH222765   1.314   6.111   8.357 -0.2145  0.3580  0.5613
  377TIP3    H122766   1.356   6.102   8.443  0.8291  1.3337  0.1732
  377TIP3    H222767   1.224   6.136   8.378  0.0274  0.5998  1.3874
  378TIP3   OH222768   3.924   5.258   7.480 -0.0504 -0.1898  0.1396
  378TIP3    H122769   3.841   5.306   7.478  0.0397 -0.0203 -1.7350
  378TIP3    H222770   3.898   5.166   7.481 -0.2309 -0.1424  1.7971
  379TIP3   OH222771   2.287   3.274   1.635 -0.1933  0.0512  0.6206
  379TIP3    H122772   2.242   3.342   1.685 -2.0742  0.6237 -1.6280
  379TIP3    H222773   2.255   3.192   1.671 -0.5169  0.4241  1.1946
  380TIP3   OH222774   0.803   6.436   0.510 -0.1026 -0.1326 -0.1703
  380TIP3    H122775   0.726   6.414   0.563  0.5604  0.5481  1.1143
  380TIP3    H222776   0.769   6.489   0.439 -0.5693  2.3275  1.7548
  381TIP3   OH222777   1.807   2.673   1.073 -0.5798 -0.0488  0.0942
  381TIP3    H122778   1.751   2.717   1.137 -1.3407 -1.1047  0.1797
  381TIP3    H222779   1.798   2.726   0.993 -2.3097 -0.6027 -0.1153
  382TIP3   OH222780   0.199   0.555   6.439  0.5236 -0.0532 -0.5095
  382TIP3    H122781   0.122   0.612   6.431 -0.0205 -0.7131 -0.1442
  382TIP3    H222782   0.188   0.491   6.368  0.0848 -0.8686  0.2586
  383TIP3   OH222783   2.567   5.985   0.415 -0.1407 -0.0359 -0.0798
  383TIP3    H122784   2.478   5.999   0.448 -0.7211 -0.5829 -1.3564
  383TIP3    H222785   2.620   5.980   0.494 -1.2943 -0.0497  0.7294
  384TIP3   OH222786   6.787   2.643   7.554  0.2256 -0.4045  0.0044
  384TIP3    H122787   6.854   2.588   7.596  0.2735 -0.3651 -0.0192
  384TIP3    H222788   6.832   2.683   7.479  0.5407  0.6106  0.7117
  385TIP3   OH222789   1.758   6.601   0.601  0.2689 -0.3754 -0.2296
  385TIP3    H122790   1.711   6.647   0.532  2.5532 -0.5483 -2.0135
  385TIP3    H222791   1.737   6.650   0.681 -1.6020  0.4699 -1.1588
  386TIP3   OH222792   2.609   0.921   1.105  0.8916 -0.7662  0.3695
  386TIP3    H122793   2.543   0.881   1.161  1.4940 -0.1338  1.5744
  386TIP3    H222794   2.597   1.015   1.117  1.9531 -0.6441  0.5442
  387TIP3   OH222795   0.812   0.828   7.657 -0.2956  0.1463 -0.3488
  387TIP3    H122796   0.819   0.744   7.612 -0.9510 -0.7202  1.0984
  387TIP3    H222797   0.779   0.806   7.745  2.5665  1.5314  1.2215
  388TIP3   OH222798   0.140   3.580   0.696 -0.3496 -0.3253 -0.0238
  388TIP3    H122799   0.080   3.505   0.693 -0.5652 -0.1581  0.0814
  388TIP3    H222800   0.092   3.651   0.653 -0.1556 -0.2409 -0.1010
  389TIP3   OH222801   0.911   5.736   2.533  0.3690 -0.2911 -0.3195
  389TIP3    H122802   0.944   5.650   2.508  2.3373  0.2614  0.1991
  389TIP3    H222803   0.825   5.719   2.572  0.5208 -1.9580 -0.6655
  390TIP3   OH222804   5.587   5.394   8.269 -0.0140  0.0979 -0.1453
  390TIP3    H122805   5.649   5.370   8.338 -1.3894 -0.3803  0.9744
  390TIP3    H222806   5.524   5.452   8.312 -1.7559 -1.3950 -0.5769
  391TIP3   OH222807   3.181   1.659   7.494  0.6430  0.6889 -0.5729
  391TIP3    H122808   3.271   1.633   7.474 -0.0473 -1.5888 -0.9420
  391TIP3    H222809   3.168   1.632   7.585 -0.3026 -0.9737 -1.1656
  392TIP3   OH222810   5.801   1.710   1.501  0.6546 -0.2907  0.3893
  392TIP3    H122811   5.722   1.764   1.494  0.9619  0.0227 -1.1746
  392TIP3    H222812   5.872   1.772   1.516  0.9986 -0.2048 -1.3379
  393TIP3   OH222813   0.847   4.778   7.370 -0.0765 -0.4382 -0.1848
  393TIP3    H122814   0.764   4.730   7.370 -1.6677  2.0927  0.1414
  393TIP3    H222815   0.832   4.851   7.309  1.5910  0.6009  0.5756
  394TIP3   OH222816   1.328   3.694   8.276  0.2828 -0.4414 -0.0776
  394TIP3    H122817   1.379   3.616   8.254 -1.5930 -1.1496 -2.4249
  394TIP3    H222818   1.246   3.660   8.312 -1.6174  0.1609 -3.4352
  395TIP3   OH222819   0.793   4.258   2.226  0.3509 -0.0117  0.5565
  395TIP3    H122820   0.802   4.313   2.304 -0.9148  0.4815  0.3771
  395TIP3    H222821   0.699   4.245   2.217  0.4502  0.3023 -1.1500
  396TIP3   OH222822   0.034   4.057   1.605 -0.1516  0.2655  0.5679
  396TIP3    H122823  -0.036   4.043   1.668 -0.2055  0.9928  0.6728
  396TIP3    H222824   0.095   4.117   1.648  1.1096 -1.1931  0.9066
  397TIP3   OH222825   0.547   5.096   2.186 -0.3859 -0.7240 -0.3163
  397TIP3    H122826   0.493   5.104   2.265 -0.1298 -1.1963 -0.0812
  397TIP3    H222827   0.488   5.059   2.121 -1.7373  3.2096 -1.5914
  398TIP3   OH222828   4.810   5.516   6.511  0.1083  0.2381 -0.8200
  398TIP3    H122829   4.825   5.442   6.569 -1.7639 -0.0811 -0.6901
  398TIP3    H222830   4.885   5.515   6.451  2.8263  1.3673  2.2575
  399TIP3   OH222831   1.317   5.644   1.732 -0.0196 -0.0904 -0.5328
  399TIP3    H122832   1.246   5.698   1.696  1.1639  1.3894 -0.7382
  399TIP3    H222833   1.377   5.706   1.772  1.0925 -1.3260 -0.2087
  400TIP3   OH222834   6.130   6.377   1.403 -0.4617  0.2614  0.4292
  400TIP3    H122835   6.174   6.459   1.382 -0.3422 -0.4083 -2.2843
  400TIP3    H222836   6.157   6.317   1.334 -3.4332 -1.0035  0.2153
  401TIP3   OH222837   5.398   6.739   6.413 -0.0604 -0.9380  0.3462
  401TIP3    H122838   5.390   6.833   6.428 -1.8819 -1.1726  1.0713
  401TIP3    H222839   5.312   6.712   6.381  0.8149 -2.1556 -1.1736
  402TIP3   OH222840   0.046   4.687   0.689 -0.2655 -0.2880  0.4004
  402TIP3    H122841  -0.025   4.728   0.738  0.2830  0.1557  0.8362
  402TIP3    H222842   0.016   4.597   0.674 -0.2347 -0.5846  1.9885
  403TIP3   OH222843   4.003   5.482   1.960  0.0037  0.4455 -0.2997
  403TIP3    H122844   3.973   5.477   2.051 -0.1890 -1.7949 -0.4409
  403TIP3    H222845   4.089   5.525   1.966  0.9574 -1.5254  1.2327
  404TIP3   OH222846   4.346   2.692   1.248  0.3602 -0.1146  0.5259
  404TIP3    H122847   4.314   2.715   1.335 -0.4930  0.4564  0.0708
  404TIP3    H222848   4.298   2.612   1.226 -0.1255  0.2665  0.1941
  405TIP3   OH222849   5.827   2.452   0.416 -0.0150  0.3152  0.5512
  405TIP3    H122850   5.749   2.430   0.466 -1.6598  3.2519 -0.5209
  405TIP3    H222851   5.865   2.367   0.393 -1.7377 -1.1757  2.7711
  406TIP3   OH222852   1.499   3.572   0.863  0.0126  0.4578  0.5422
  406TIP3    H122853   1.524   3.499   0.805 -2.9040  1.0745 -1.7110
  406TIP3    H222854   1.571   3.635   0.853  1.1061 -0.7941  0.1120
  407TIP3   OH222855   3.764   6.246   2.456 -0.4192  0.4783  0.3975
  407TIP3    H122856   3.853   6.264   2.486 -0.1173 -0.2292 -0.0697
  407TIP3    H222857   3.748   6.312   2.388  0.7173 -0.9648 -1.3639
  408TIP3   OH222858   1.376   0.509   1.768 -0.2838  0.0932  0.0372
  408TIP3    H122859   1.305   0.512   1.832  0.2935 -0.6943  0.7353
  408TIP3    H222860   1.451   0.476   1.817  0.1889 -0.4638 -1.0295
  409TIP3   OH222861   5.981   5.389   8.164 -0.5100 -0.0773 -0.5421
  409TIP3    H122862   5.993   5.303   8.202 -0.9019 -0.3127 -0.9333
  409TIP3    H222863   6.069   5.421   8.146 -0.3652 -0.4028 -0.4076
  410TIP3   OH222864   1.874   6.476   7.701  0.4627  0.4010 -0.0901
  410TIP3    H122865   1.957   6.438   7.730 -0.1489 -0.9500 -0.0601
  410TIP3    H222866   1.877   6.471   7.605  0.3669  0.2443 -0.0849
  411TIP3   OH222867   2.760   5.393   1.559  0.3810 -0.1464 -0.3257
  411TIP3    H122868   2.781   5.388   1.466 -0.0443 -0.6670 -0.3979
  411TIP3    H222869   2.749   5.302   1.586 -1.0592  0.0562 -0.1435
  412TIP3   OH222870   6.013   4.213   0.984 -0.5036 -0.7420 -0.1825
  412TIP3    H122871   5.942   4.247   1.038 -1.3102 -0.6617 -1.2436
  412TIP3    H222872   5.983   4.126   0.958 -0.6118 -0.3887 -1.3015
  413TIP3   OH222873   6.182   4.082   7.256 -0.2962 -0.1346 -0.0938
  413TIP3    H122874   6.185   4.006   7.314 -1.2552 -1.4860 -1.7238
  413TIP3    H222875   6.151   4.048   7.173  0.4553  1.8384 -1.2662
  414TIP3   OH222876   6.772   6.927   1.049  0.5094  0.4347  0.3568
  414TIP3    H122877   6.864   6.901   1.051  0.0479 -1.2795  0.9862
  414TIP3    H222878   6.749   6.926   0.956  1.5786  2.7411  0.0073
  415TIP3   OH222879   1.991   6.304   0.819 -0.5731 -0.3173  0.1532
  415TIP3    H122880   2.002   6.388   0.775  0.2518  0.0262  0.9793
  415TIP3    H222881   1.897   6.287   0.816 -0.9025  1.2078  1.0037
  416TIP3   OH222882   1.642   0.652   1.994 -0.5623  0.3697 -0.6203
  416TIP3    H122883   1.693   0.583   1.952 -0.8443 -0.0975 -0.2088
  416TIP3    H222884   1.620   0.616   2.080 -1.7570  0.4889 -0.8673
  417TIP3   OH222885   2.097   1.179   0.112 -0.2259  0.5998 -0.2578
  417TIP3    H122886   2.144   1.221   0.040 -0.0664  2.1367  0.7044
  417TIP3    H222887   2.165   1.135   0.163 -0.0557  1.3324  0.1513
  418TIP3   OH222888   6.744   2.087   6.496  0.2988 -0.1403 -0.0075
  418TIP3    H122889   6.691   2.045   6.564 -1.3124 -2.0671 -2.3065
  418TIP3    H222890   6.823   2.033   6.490  2.0098  1.8702  2.3808
  419TIP3   OH222891   6.257   0.500   1.415  0.4824  0.0425  0.4488
  419TIP3    H122892   6.191   0.542   1.360  1.8505  0.1414 -1.2052
  419TIP3    H222893   6.332   0.485   1.357  2.0492  0.1890  2.2882
  420TIP3   OH222894   4.105   2.500   7.461  0.4565 -0.0377  0.1203
  420TIP3    H122895   4.182   2.458   7.424  0.1973 -0.7829  0.4073
  420TIP3    H222896   4.032   2.443   7.435  0.4361 -1.7063  3.2972
  421TIP3   OH222897   0.298   6.877   0.390  0.2518  0.0501 -0.0733
  421TIP3    H122898   0.384   6.880   0.348  0.3699  1.1247  0.2264
  421TIP3    H222899   0.236   6.878   0.317  0.4802 -0.3145 -0.2785
  422TIP3   OH222900   0.558   0.896   2.317  0.4784  0.1812 -0.4493
  422TIP3    H122901   0.490   0.840   2.354 -0.2626 -0.1258 -2.1733
  422TIP3    H222902   0.639   0.846   2.328  0.8208  1.2396  3.1143
  423TIP3   OH222903   1.440   6.744   2.030  0.0206  0.5225  0.4295
  423TIP3    H122904   1.358   6.776   1.991  0.1863  0.0695 -0.3020
  423TIP3    H222905   1.506   6.761   1.963  0.0225 -1.9022 -0.2549
  424TIP3   OH222906   2.032   1.490   0.421  0.1736  0.5269 -0.7495
  424TIP3    H122907   1.982   1.486   0.340 -1.2413 -0.7078  0.1490
  424TIP3    H222908   2.108   1.434   0.406 -0.4386 -0.2464 -0.9946
  425TIP3   OH222909   5.440   4.515   0.502  0.2758  0.1003 -0.0945
  425TIP3    H122910   5.409   4.605   0.489  0.1167  0.0579 -0.0149
  425TIP3    H222911   5.378   4.461   0.453 -0.0156 -0.0167  0.4020
  426TIP3   OH222912   6.329   0.787   1.826 -0.1921  0.1257  0.3378
  426TIP3    H122913   6.343   0.718   1.760 -0.9241  0.2031  0.0885
  426TIP3    H222914   6.416   0.819   1.846  0.4102 -2.2105  1.9293
  427TIP3   OH222915   0.046   0.179   7.520 -0.4943 -0.2329  0.3189
  427TIP3    H122916   0.043   0.098   7.570 -0.0812 -0.1334  0.5062
  427TIP3    H222917   0.074   0.153   7.433 -0.0269 -0.2461  0.4730
  428TIP3   OH222918   3.341   2.484   0.088 -0.5189 -0.0290  0.1325
  428TIP3    H122919   3.327   2.453   0.177 -1.4368 -0.4491 -0.1409
  428TIP3    H222920   3.423   2.443   0.060  0.5555  1.2552  1.2686
  429TIP3   OH222921   5.020   0.843   1.633 -0.3633 -0.9901  0.5098
  429TIP3    H122922   5.108   0.879   1.627 -0.3149 -1.0325  0.9519
  429TIP3    H222923   4.994   0.829   1.542 -1.2437  2.1889  0.1395
  430TIP3   OH222924   4.618   6.684   7.528  0.0683 -0.2347  0.4934
  430TIP3    H122925   4.557   6.618   7.496  0.8556 -2.3734  3.0161
  430TIP3    H222926   4.562   6.753   7.564 -0.9203 -1.6430  1.7945
  431TIP3   OH222927   5.654   6.012   0.364  0.6062 -0.3393 -0.0453
  431TIP3    H122928   5.702   6.092   0.340  1.4861 -0.8149  0.0818
  431TIP3    H222929   5.694   5.983   0.446 -0.5056 -0.2714  0.5384
  432TIP3   OH222930   0.180   2.449   2.077 -0.5636 -0.0527  0.3331
  432TIP3    H122931   0.208   2.363   2.045 -1.5918 -0.3272  0.1347
  432TIP3    H222932   0.148   2.494   1.999  0.5192  0.7603  0.3243
  433TIP3   OH222933   0.835   1.486   2.303 -0.0620  0.6657 -0.3746
  433TIP3    H122934   0.873   1.398   2.310  1.9255  1.6214  2.6549
  433TIP3    H222935   0.763   1.486   2.366 -2.3307  0.3160 -2.7749
  434TIP3   OH222936   4.206   4.166   6.389  0.3982 -0.3724  0.0455
  434TIP3    H122937   4.167   4.141   6.472 -0.5558 -1.2675 -0.6469
  434TIP3    H222938   4.286   4.213   6.413  0.3116 -0.9052  1.4513
  435TIP3   OH222939   0.268   3.136   0.096 -0.0985 -0.2936  0.1741
  435TIP3    H122940   0.197   3.190   0.132  1.0008 -0.5478  3.0126
  435TIP3    H222941   0.291   3.076   0.167  1.6485 -1.5619 -1.3538
  436TIP3   OH222942   1.273   0.964   2.051  0.1192  0.3529 -0.3000
  436TIP3    H122943   1.324   0.886   2.025 -1.2452 -0.4069 -0.8379
  436TIP3    H222944   1.217   0.981   1.975  0.5399  2.0139 -0.2637
  437TIP3   OH222945   5.966   4.118   0.187  0.7848 -0.0965 -0.3196
  437TIP3    H122946   6.032   4.188   0.187 -0.1694  0.8250 -0.4699
  437TIP3    H222947   5.915   4.133   0.108 -2.0939  1.6515  1.6585
  438TIP3   OH222948   6.930   3.527   7.162  0.3763  0.0421  0.3095
  438TIP3    H122949   6.842   3.537   7.126  0.8706  0.8912 -0.7152
  438TIP3    H222950   6.956   3.439   7.138 -0.0568 -0.0897  0.3142
  439TIP3   OH222951   2.131   2.980   0.392 -0.1009 -0.4585 -0.3974
  439TIP3    H122952   2.156   3.070   0.368  0.2512 -0.9577 -2.0831
  439TIP3    H222953   2.118   2.936   0.308  0.1173 -2.0971  0.3787
  440TIP3   OH222954   5.771   0.694   7.139  0.0666  0.7234  0.1836
  440TIP3    H122955   5.853   0.661   7.102 -0.5438 -0.5375 -0.1274
  440TIP3    H222956   5.720   0.722   7.063 -0.5572 -0.3708  0.1759
  441TIP3   OH222957   3.287   5.208   6.821  0.2136 -0.2771  0.3846
  441TIP3    H122958   3.238   5.290   6.817  2.2922  0.9960 -1.3150
  441TIP3    H222959   3.379   5.234   6.812  0.9686 -2.7698  0.0010
  442TIP3   OH222960   0.143   0.259   0.389 -0.1191 -0.3031 -0.6184
  442TIP3    H122961   0.223   0.269   0.440  0.4321  1.0827 -1.7025
  442TIP3    H222962   0.075   0.301   0.443 -0.5836 -3.0147  1.1434
  443TIP3   OH222963   6.240   1.327   7.030  0.5221  0.0451 -0.4347
  443TIP3    H122964   6.231   1.420   7.052  1.8879 -0.4321  2.7186
  443TIP3    H222965   6.150   1.296   7.018 -0.1886  1.2442  1.3120
  444TIP3   OH222966   6.518   2.626   1.895 -0.0111  0.1689  0.2507
  444TIP3    H122967   6.493   2.688   1.964  0.0130 -0.7570  1.1283
  444TIP3    H222968   6.457   2.553   1.906  1.1915 -0.8295  0.5421
  445TIP3   OH222969   3.719   4.184   2.616  0.2305 -0.1581  0.1611
  445TIP3    H122970   3.807   4.194   2.580  0.5332  0.1862  0.9542
  445TIP3    H222971   3.734   4.169   2.710 -0.5170 -1.1406  0.1318
  446TIP3   OH222972   5.469   6.327   6.600 -0.6378 -0.4719  0.1358
  446TIP3    H122973   5.489   6.248   6.550 -0.3391 -1.7994  2.2725
  446TIP3    H222974   5.378   6.316   6.627 -0.9756  0.5085 -0.5317
  447TIP3   OH222975   1.876   6.567   6.893  0.3967 -0.2276  0.0384
  447TIP3    H122976   1.967   6.578   6.867  1.2627 -0.4243  2.7252
  447TIP3    H222977   1.845   6.656   6.909  0.1618 -0.1840 -0.5995
  448TIP3   OH222978   0.481   5.113   6.260 -0.2699  0.0375  0.1206
  448TIP3    H122979   0.467   5.105   6.354  0.8761  0.1329  0.3095
  448TIP3    H222980   0.486   5.023   6.228  0.6938 -0.0044  0.3707
  449TIP3   OH222981   0.327   1.893   8.463 -0.6630 -0.1671  0.4789
  449TIP3    H122982   0.274   1.838   8.406 -1.5750  0.2876  0.8709
  449TIP3    H222983   0.380   1.831   8.513 -1.3649 -0.6700  0.6125
  450TIP3   OH222984   5.283   6.396   0.687 -0.0450  0.3029  0.2658
  450TIP3    H122985   5.218   6.325   0.689  0.3650 -0.1075 -0.3953
  450TIP3    H222986   5.333   6.379   0.607 -0.3050  1.6635 -0.2105
  451TIP3   OH222987   2.862   6.110   6.829  0.3609  0.0199 -0.3488
  451TIP3    H122988   2.790   6.047   6.842  0.5315  0.0092  0.5903
  451TIP3    H222989   2.918   6.068   6.764  0.9829 -1.2839  0.9462
  452TIP3   OH222990   5.853   5.890   1.959  0.5535 -0.1453 -0.5153
  452TIP3    H122991   5.890   5.899   2.047  0.0173 -0.9707 -0.1936
  452TIP3    H222992   5.762   5.867   1.974  0.0401  1.2459 -1.2949
  453TIP3   OH222993   2.125   2.053   0.115 -0.0205  0.3827  0.4205
  453TIP3    H122994   2.213   2.086   0.101  0.1638  0.3016  1.3134
  453TIP3    H222995   2.080   2.065   0.031  1.0937 -0.3837 -0.3097
  454TIP3   OH222996   0.248   4.929   6.375 -1.2560  0.3566  0.0819
  454TIP3    H122997   0.328   4.912   6.324 -1.7966  0.0527 -0.6796
  454TIP3    H222998   0.211   4.842   6.389 -1.7094  0.5372  0.0094
  455TIP3   OH222999   3.604   5.668   7.243  0.1527  0.4582  0.6207
  455TIP3    H123000   3.657   5.746   7.230  1.6921 -0.8094 -1.3515
  455TIP3    H223001   3.539   5.670   7.172 -0.4389  0.4311  1.1531
  456TIP3   OH223002   5.944   4.244   2.142  0.1093  0.3607 -0.2339
  456TIP3    H123003   6.027   4.266   2.185  0.2799 -1.0809  0.2408
  456TIP3    H223004   5.937   4.149   2.152 -1.3975  0.4075 -0.6509
  457TIP3   OH223005   1.644   4.094   8.459 -0.0319 -0.1671 -0.1198
  457TIP3    H123006   1.648   4.001   8.485 -0.7223  0.3301  1.9380
  457TIP3    H223007   1.731   4.112   8.423  0.0156 -1.6816 -0.8661
  458TIP3   OH223008   0.686   4.333   7.216  0.4322 -0.8079  0.2671
  458TIP3    H123009   0.720   4.365   7.300 -0.5649 -0.8789  0.7136
  458TIP3    H223010   0.595   4.361   7.215  0.5656 -0.3519 -1.0454
  459TIP3   OH223011   4.103   2.322   0.987 -0.0126  0.1199 -0.1389
  459TIP3    H123012   4.099   2.234   1.023  0.1601  0.2055  0.0911
  459TIP3    H223013   4.025   2.330   0.933  0.3092 -0.4051 -0.6895
  460TIP3   OH223014   4.659   2.854   2.734 -0.3296 -0.1280 -0.1022
  460TIP3    H123015   4.587   2.913   2.713  0.3061  0.4411 -0.7177
  460TIP3    H223016   4.738   2.906   2.721  0.1780 -0.2379  2.0811
  461TIP3   OH223017   6.348   3.173   0.574  0.0423  0.4385 -0.7512
  461TIP3    H123018   6.343   3.125   0.491  0.4177  0.3582 -0.7299
  461TIP3    H223019   6.433   3.148   0.610 -1.3866 -2.1040  1.2200
  462TIP3   OH223020   3.763   0.881   2.193  0.4561  0.1589 -0.0386
  462TIP3    H123021   3.762   0.967   2.151  1.8795  0.3810  0.3507
  462TIP3    H223022   3.766   0.900   2.287  0.6730 -0.3161  0.0538
  463TIP3   OH223023   4.335   2.039   0.205  0.4259  0.5183 -0.1654
  463TIP3    H123024   4.424   2.072   0.194  1.0826 -1.4552 -1.5749
  463TIP3    H223025   4.307   2.018   0.116 -0.9218 -0.1417  0.3866
  464TIP3   OH223026   2.292   2.394   8.324 -0.0606  0.7961 -0.1658
  464TIP3    H123027   2.257   2.387   8.236 -0.0513  2.9471 -0.3899
  464TIP3    H223028   2.278   2.486   8.349  1.8212  0.7778  1.2350
  465TIP3   OH223029   2.557   1.189   6.712  0.4575 -0.4380  0.2088
  465TIP3    H123030   2.471   1.216   6.744  0.4901 -0.5319  0.3737
  465TIP3    H223031   2.614   1.263   6.732  0.5433 -0.6221  0.6447
  466TIP3   OH223032   4.551   6.206   0.140  0.7287  0.0922  0.1034
  466TIP3    H123033   4.636   6.169   0.118  0.7509  0.1088  0.1607
  466TIP3    H223034   4.509   6.222   0.055  1.0912  0.8113  0.0485
  467TIP3   OH223035   5.889   0.469   2.033 -0.3977  0.6402  0.1912
  467TIP3    H123036   5.962   0.427   2.079  0.0511 -0.0239 -1.0705
  467TIP3    H223037   5.919   0.477   1.943 -1.3670  1.6386 -0.0656
  468TIP3   OH223038   1.610   3.701   7.560 -0.0572 -0.5616  0.0672
  468TIP3    H123039   1.648   3.646   7.491 -0.8113 -0.1860 -0.6692
  468TIP3    H223040   1.678   3.706   7.627  0.6013 -1.1336 -0.5424
  469TIP3   OH223041   5.558   3.941   1.923 -0.0010  0.3217 -0.1733
  469TIP3    H123042   5.652   3.937   1.908  0.6138 -0.3387  3.0684
  469TIP3    H223043   5.522   3.870   1.871  1.3832  0.0446 -0.7987
  470TIP3   OH223044   6.728   4.988   0.212  0.2263  0.1145  0.4684
  470TIP3    H123045   6.640   5.025   0.214 -0.1161 -0.7012  1.2165
  470TIP3    H223046   6.750   4.984   0.119 -1.2505 -1.3206  0.1321
  471TIP3   OH223047   2.142   0.601   7.760  0.5097  0.1893  0.0623
  471TIP3    H123048   2.094   0.683   7.745  1.2896  0.4815 -0.9327
  471TIP3    H223049   2.073   0.538   7.781 -0.5100  0.3092 -2.5054
  472TIP3   OH223050   5.322   6.660   8.249  0.6785 -0.4678 -0.0774
  472TIP3    H123051   5.366   6.622   8.173  2.0230 -0.6473  0.7625
  472TIP3    H223052   5.287   6.585   8.297  1.0538 -0.4631  0.2090
  473TIP3   OH223053   2.009   1.458   7.808  0.1461  0.5934  0.1037
  473TIP3    H123054   2.046   1.546   7.796  0.4289  0.7035  1.5468
  473TIP3    H223055   1.927   1.459   7.758  1.1475  0.9804 -1.5776
  474TIP3   OH223056   2.426   5.331   7.652  0.7644 -0.2378  0.3713
  474TIP3    H123057   2.348   5.317   7.705  0.4846  0.5009  0.1611
  474TIP3    H223058   2.454   5.420   7.673  1.7161 -0.5861  0.6492
  475TIP3   OH223059   4.804   6.900   7.928 -0.1198 -0.3199  0.0017
  475TIP3    H123060   4.819   6.994   7.937  0.0730 -0.1118 -2.0046
  475TIP3    H223061   4.849   6.877   7.847 -0.8257 -2.0005  0.0580
  476TIP3   OH223062   1.858   0.815   1.855 -0.1161  0.0346 -0.3766
  476TIP3    H123063   1.793   0.855   1.913 -1.5754 -0.7434 -1.4280
  476TIP3    H223064   1.840   0.721   1.859 -0.4637 -0.0183 -2.3036
  477TIP3   OH223065   3.744   2.644   7.341  0.0129  0.2815 -0.7300
  477TIP3    H123066   3.750   2.552   7.316  2.2861  0.3465 -0.6712
  477TIP3    H223067   3.720   2.642   7.434  1.4910 -0.3452 -0.3287
  478TIP3   OH223068   1.743   3.326   1.318  0.2817  0.2055 -0.0492
  478TIP3    H123069   1.782   3.358   1.399 -0.3172  0.1520  0.2665
  478TIP3    H223070   1.722   3.405   1.268  0.6712  0.2380 -0.1676
  479TIP3   OH223071   4.806   1.047   0.705 -0.2400 -0.2260 -1.0358
  479TIP3    H123072   4.832   1.040   0.797 -0.4261 -0.1703 -0.9788
  479TIP3    H223073   4.869   0.993   0.658  0.5921  0.6873 -1.0108
  480TIP3   OH223074   3.882   5.484   2.207  0.0206  0.5780 -0.9623
  480TIP3    H123075   3.885   5.392   2.233  0.5221  0.5832 -0.9953
  480TIP3    H223076   3.826   5.525   2.272  1.6492  0.6841  0.4445
  481TIP3   OH223077   3.577   0.145   1.148 -0.2809 -0.2067  0.1586
  481TIP3    H123078   3.533   0.127   1.065  0.7324  1.0594 -0.6930
  481TIP3    H223079   3.581   0.060   1.192 -1.2006 -0.8223 -0.8909
  482TIP3   OH223080   1.745   4.616   1.994 -0.4906  0.0113  0.1379
  482TIP3    H123081   1.759   4.548   2.059 -1.1528 -2.7611 -2.3758
  482TIP3    H223082   1.660   4.654   2.016 -0.7129 -0.8859  0.8821
  483TIP3   OH223083   0.027   1.307   1.186 -0.2810 -1.0041  0.0377
  483TIP3    H123084  -0.061   1.270   1.194 -0.9103  0.7395  3.0947
  483TIP3    H223085   0.021   1.366   1.111 -1.5301 -1.3747 -0.1901
  484TIP3   OH223086   4.845   1.529   6.778  0.4833 -0.1222  0.5835
  484TIP3    H123087   4.839   1.590   6.704 -2.3643 -0.0772  0.7435
  484TIP3    H223088   4.853   1.443   6.738  0.9762  0.0545  0.2885
  485TIP3   OH223089   5.744   4.469   1.560 -0.3237 -0.0474 -0.7425
  485TIP3    H123090   5.668   4.526   1.560 -0.9327 -0.7685  1.5283
  485TIP3    H223091   5.811   4.516   1.610 -0.0261 -0.3297 -0.8650
  486TIP3   OH223092   5.867   2.407   1.549 -0.3002  0.3083 -0.3124
  486TIP3    H123093   5.816   2.476   1.592 -1.6028 -0.0129 -1.2859
  486TIP3    H223094   5.855   2.330   1.605  0.7144  0.6944  0.4814
  487TIP3   OH223095   0.125   1.443   8.579 -0.1970  0.0331  0.2217
  487TIP3    H123096   0.165   1.361   8.550  0.4089 -0.3257  1.9232
  487TIP3    H223097   0.041   1.417   8.618 -0.6092  0.3917 -0.4074
  488TIP3   OH223098   3.022   6.787   6.609  0.1822 -0.1390  0.0467
  488TIP3    H123099   3.021   6.710   6.552 -0.5175  0.6071 -0.9880
  488TIP3    H223100   2.938   6.830   6.591  0.7268  1.0669  0.3280
  489TIP3   OH223101   2.330   5.444   6.006  0.8374 -0.4291 -0.7078
  489TIP3    H123102   2.341   5.539   6.004  1.7470 -0.5260 -0.6025
  489TIP3    H223103   2.366   5.418   6.091 -0.3844 -0.7554 -0.2690
  490TIP3   OH223104   2.399   3.520   0.075  0.4791  0.4346 -0.5200
  490TIP3    H123105   2.347   3.447   0.110  0.2113  0.2586 -1.2623
  490TIP3    H223106   2.413   3.497  -0.017  2.6160  0.0622 -0.1471
  491TIP3   OH223107   5.947   5.159   7.143 -0.7929  0.0703  0.2569
  491TIP3    H123108   5.963   5.073   7.183 -1.4750 -0.4397 -0.5451
  491TIP3    H223109   5.973   5.221   7.211  2.9206 -0.6567 -0.2814
  492TIP3   OH223110   3.950   4.792   0.323  0.1030  0.1462  0.6195
  492TIP3    H123111   3.880   4.785   0.388  0.8257  1.0858  1.5424
  492TIP3    H223112   3.905   4.790   0.238 -0.9479 -0.1477  1.1635
  493TIP3   OH223113   5.744   5.269   7.027  0.1715  0.0978  0.1190
  493TIP3    H123114   5.805   5.216   7.078 -1.3030  0.5169  2.5088
  493TIP3    H223115   5.709   5.209   6.961 -0.7328 -1.7138  2.1226
  494TIP3   OH223116   1.677   2.299   7.384  0.2232 -0.0818 -0.3749
  494TIP3    H123117   1.682   2.392   7.366 -1.0868  0.1813  0.4874
  494TIP3    H223118   1.612   2.291   7.454 -0.6755 -1.7492 -1.3264
  495TIP3   OH223119   4.543   5.272   1.257 -0.2357 -0.5295  0.4216
  495TIP3    H123120   4.545   5.180   1.232 -1.6503 -0.0699 -1.6735
  495TIP3    H223121   4.572   5.320   1.179  0.1683  0.8325  1.3553
  496TIP3   OH223122   5.569   6.831   0.182  0.3211 -0.1825  0.2612
  496TIP3    H123123   5.531   6.822   0.270  1.2586 -0.8017  0.6133
  496TIP3    H223124   5.499   6.871   0.130 -1.3030 -2.4681  0.5544
  497TIP3   OH223125   3.793   1.068   8.525 -0.5909 -0.2449  0.1500
  497TIP3    H123126   3.828   1.033   8.444  0.2178  1.4813 -0.3005
  497TIP3    H223127   3.838   1.019   8.594  1.0609  0.3832 -0.4417
  498TIP3   OH223128   2.931   5.452   0.227 -0.1520  0.2064 -0.4562
  498TIP3    H123129   2.975   5.515   0.283 -0.3490 -0.6048  0.6525
  498TIP3    H223130   2.993   5.434   0.156  1.7700 -1.5840  1.5281
  499TIP3   OH223131   0.420   1.098   0.151  0.2214 -1.1259  0.1876
  499TIP3    H123132   0.471   1.145   0.218  0.4350  0.8879 -1.2870
  499TIP3    H223133   0.341   1.068   0.198  0.4001  0.1482  1.3849
  500TIP3   OH223134   3.604   5.351   2.509 -0.0616  0.7781  0.2187
  500TIP3    H123135   3.699   5.351   2.513  0.0083 -0.7745 -0.8756
  500TIP3    H223136   3.578   5.270   2.553 -1.0433  2.3513  2.7471
  501TIP3   OH223137   6.829   1.459   1.647  0.0849 -0.0374 -0.1259
  501TIP3    H123138   6.813   1.372   1.610 -1.2250 -0.3423  1.0586
  501TIP3    H223139   6.896   1.497   1.591 -0.9740 -0.9109 -2.0828
  502TIP3   OH223140   5.960   1.902   0.069  0.1413 -0.3059  0.2933
  502TIP3    H123141   5.886   1.919   0.010  0.3584  0.5422  0.2524
  502TIP3    H223142   5.938   1.820   0.112  0.4843 -1.5803 -1.7895
  503TIP3   OH223143   5.470   6.079   0.136  0.2874 -0.4101  0.6361
  503TIP3    H123144   5.547   6.060   0.190  2.0834  0.2932 -1.5162
  503TIP3    H223145   5.464   6.005   0.075  0.1234  0.2061 -0.1180
  504TIP3   OH223146   3.239   6.518   2.253  0.1672 -0.0811 -0.2297
  504TIP3    H123147   3.146   6.496   2.244  0.3084 -1.5142  1.3493
  504TIP3    H223148   3.262   6.492   2.342  1.8626  1.1743 -0.2437
  505TIP3   OH223149   0.833   2.249   7.222 -0.1934 -0.3537  0.8157
  505TIP3    H123150   0.831   2.265   7.127 -0.2180 -0.0942  0.8585
  505TIP3    H223151   0.905   2.187   7.234  0.3604  0.2569  0.7216
  506TIP3   OH223152   0.058   0.039   7.044 -0.1377  0.6378 -0.0116
  506TIP3    H123153   0.029   0.005   6.959 -0.9319 -2.7340  1.4302
  506TIP3    H223154  -0.022   0.067   7.088 -0.0809 -0.1423  0.6020
  507TIP3   OH223155   1.692   4.936   1.198  0.4077  0.6260 -0.9550
  507TIP3    H123156   1.729   4.867   1.144 -3.1422 -2.5954  0.2592
  507TIP3    H223157   1.694   4.901   1.287  0.4018  3.0573  0.0724
  508TIP3   OH223158   2.840   5.778   0.771 -0.1180 -0.2272 -0.4362
  508TIP3    H123159   2.876   5.695   0.740  1.7479  1.4017 -2.9669
  508TIP3    H223160   2.756   5.787   0.726 -0.3614 -0.7300 -0.0969
  509TIP3   OH223161   5.576   0.673   2.354  0.3763 -0.0746  0.6857
  509TIP3    H123162   5.483   0.680   2.379  0.5919 -1.8787  2.2233
  509TIP3    H223163   5.577   0.606   2.286  0.6215 -0.7585  1.3448
  510TIP3   OH223164   4.212   3.413   1.162  0.1244 -0.2411  0.1289
  510TIP3    H123165   4.283   3.413   1.097  0.4495  0.0829  0.4810
  510TIP3    H223166   4.133   3.396   1.111  0.2816  0.7444 -0.4644
  511TIP3   OH223167   6.497   6.687   1.933  0.0816 -0.2022 -0.5363
  511TIP3    H123168   6.468   6.603   1.896 -0.9625  0.0917 -0.4192
  511TIP3    H223169   6.453   6.692   2.018 -0.8448  1.0140 -1.0649
  512TIP3   OH223170   4.111   1.791   1.766  0.0080  0.2730 -0.0296
  512TIP3    H123171   4.035   1.733   1.778 -0.1556  0.6495  0.8035
  512TIP3    H223172   4.155   1.756   1.688 -0.0453 -1.0194  0.4836
  513TIP3   OH223173   3.927   6.642   1.384 -0.7361 -0.6844  0.2424
  513TIP3    H123174   3.841   6.664   1.350  0.4541  1.1138 -1.8674
  513TIP3    H223175   3.976   6.611   1.308  0.7076 -1.0296  1.2632
  514TIP3   OH223176   4.066   1.268   1.040  0.2266  0.2224  0.5064
  514TIP3    H123177   4.127   1.340   1.053  1.6189 -0.5200 -1.4983
  514TIP3    H223178   4.120   1.196   1.009 -1.4017 -1.0971  0.6079
  515TIP3   OH223179   6.739   1.166   0.576  0.1352 -0.1888  0.3488
  515TIP3    H123180   6.785   1.205   0.650  0.5155 -0.7080  0.3953
  515TIP3    H223181   6.809   1.133   0.520 -0.1806 -1.6454  0.7724
  516TIP3   OH223182   5.689   2.611   6.889  0.3884  0.1640  0.0534
  516TIP3    H123183   5.653   2.690   6.849  1.2842 -0.2989 -1.7871
  516TIP3    H223184   5.712   2.555   6.814 -0.2115 -1.8356  1.3083
  517TIP3   OH223185   5.433   4.493   1.611 -0.2550  0.3486  0.0916
  517TIP3    H123186   5.382   4.449   1.544  0.4244  0.8410 -0.7758
  517TIP3    H223187   5.450   4.580   1.575 -0.7410  0.9902  1.3428
  518TIP3   OH223188   1.513   2.729   0.817  0.1488 -0.7803 -0.2600
  518TIP3    H123189   1.451   2.691   0.754 -1.3241  1.6261 -0.3930
  518TIP3    H223190   1.503   2.676   0.896 -2.4342 -0.2665 -0.1525
  519TIP3   OH223191   2.746   5.200   0.702  0.3796 -0.1190  0.3072
  519TIP3    H123192   2.673   5.243   0.747 -0.2404 -0.5622 -0.2393
  519TIP3    H223193   2.750   5.244   0.617 -0.0369 -0.8940 -0.1237
  520TIP3   OH223194   6.808   2.606   2.131 -0.3019  0.2455 -0.1685
  520TIP3    H123195   6.858   2.541   2.181 -1.9191  0.6961  2.1949
  520TIP3    H223196   6.817   2.578   2.040  0.6346 -2.1820  0.5901
  521TIP3   OH223197   4.787   2.731   0.912 -0.2258 -0.2357 -0.3554
  521TIP3    H123198   4.713   2.775   0.955  0.7784 -0.1441  1.3600
  521TIP3    H223199   4.833   2.686   0.983  2.8514  1.7968 -0.8635
  522TIP3   OH223200   5.838   4.197   7.363 -0.2534  0.5751  0.3584
  522TIP3    H123201   5.826   4.139   7.288 -3.9825  0.6853  0.6801
  522TIP3    H223202   5.873   4.141   7.432 -2.2427 -0.9887  0.1761
  523TIP3   OH223203   3.926   3.887   8.610 -0.4217  0.4009 -0.1546
  523TIP3    H123204   3.944   3.943   8.685  1.1785  0.0264 -0.2328
  523TIP3    H223205   3.902   3.803   8.649  0.4793  0.1847 -0.0350
  524TIP3   OH223206   6.656   5.306   6.558  0.2762 -0.4733  0.2631
  524TIP3    H123207   6.596   5.234   6.578 -2.1017  0.4034 -2.8667
  524TIP3    H223208   6.717   5.269   6.493 -1.8591  0.4960 -2.4884
  525TIP3   OH223209   4.972   3.357   1.496  0.2340  0.5083  0.3101
  525TIP3    H123210   4.968   3.345   1.590  0.4536 -0.4405  0.2074
  525TIP3    H223211   4.882   3.374   1.470  0.1172  0.4076  0.6476
  526TIP3   OH223212   0.693   6.591   8.553 -0.4144  0.1898  0.2338
  526TIP3    H123213   0.606   6.551   8.551  0.5374 -1.9956  0.1684
  526TIP3    H223214   0.717   6.591   8.645 -1.1344  2.4349  0.4875
  527TIP3   OH223215   3.793   6.577   7.586 -0.0118 -0.4029 -0.1518
  527TIP3    H123216   3.759   6.644   7.645  0.5903  0.1446 -0.4033
  527TIP3    H223217   3.819   6.626   7.508  1.0722 -0.8294 -0.0768
  528TIP3   OH223218   4.921   5.597   1.556 -0.4525  0.4810 -0.1938
  528TIP3    H123219   4.877   5.636   1.480 -0.9477 -0.8879 -0.6339
  528TIP3    H223220   5.012   5.588   1.527 -0.3777  1.0809 -0.1675
  529TIP3   OH223221   6.076   1.449   7.970 -0.1671  0.3888 -0.1117
  529TIP3    H123222   6.047   1.507   7.900  2.3244  0.1028 -1.5071
  529TIP3    H223223   6.073   1.361   7.933  1.1528  0.2281  0.0946
  530TIP3   OH223224   0.171   5.422   6.472 -0.0547  0.3003 -0.4385
  530TIP3    H123225   0.252   5.423   6.419  0.7236 -0.4570  0.6988
  530TIP3    H223226   0.105   5.460   6.414  1.1581  1.1449 -1.3292
  531TIP3   OH223227   3.166   0.437   2.359  0.9548 -0.0180 -0.1908
  531TIP3    H123228   3.146   0.530   2.364  2.3100  0.4485 -2.3092
  531TIP3    H223229   3.082   0.395   2.341  0.3687  0.7964  0.5828
  532TIP3   OH223230   5.310   0.208   6.811  0.3328 -0.2326 -0.5849
  532TIP3    H123231   5.362   0.164   6.878  0.4723  1.2370  0.2872
  532TIP3    H223232   5.346   0.296   6.805 -0.3824  0.0112 -1.8323
  533TIP3   OH223233   3.786   6.464   8.425 -0.0417 -0.2345  0.1138
  533TIP3    H123234   3.852   6.533   8.412 -1.5413  0.8747 -2.3003
  533TIP3    H223235   3.721   6.504   8.482  0.7275 -0.9130  1.5147
  534TIP3   OH223236   0.612   4.859   1.388  0.1999  0.4457  0.4667
  534TIP3    H123237   0.531   4.862   1.337 -0.8468 -1.2101  1.9211
  534TIP3    H223238   0.665   4.792   1.345  0.0471  0.2851  0.5251
  535TIP3   OH223239   1.793   3.993   1.284  0.7142 -0.5559 -0.3420
  535TIP3    H123240   1.797   4.031   1.196  0.2802  1.0387  0.2967
  535TIP3    H223241   1.727   3.924   1.278  0.9834 -0.7389 -1.3533
  536TIP3   OH223242   1.361   6.122   2.186 -0.0347 -0.0665 -0.6892
  536TIP3    H123243   1.266   6.125   2.181 -0.0541 -0.4335 -0.5543
  536TIP3    H223244   1.390   6.191   2.126 -0.3580 -0.8114 -1.7251
  537TIP3   OH223245   1.086   3.497   0.931 -0.3100  0.7564 -0.2051
  537TIP3    H123246   1.097   3.404   0.911 -0.8502  0.6821 -0.1751
  537TIP3    H223247   1.080   3.501   1.026  1.5739  1.0353 -0.0656
  538TIP3   OH223248   4.472   0.630   0.888  0.3052 -0.5395 -0.2174
  538TIP3    H123249   4.557   0.666   0.913  0.3154  1.7448 -2.9632
  538TIP3    H223250   4.492   0.564   0.822  0.0040 -0.0029 -0.8670
  539TIP3   OH223251   0.178   2.106   0.518 -0.0413 -0.1060 -0.1933
  539TIP3    H123252   0.195   2.062   0.602  0.3591  0.3934 -0.0052
  539TIP3    H223253   0.190   2.038   0.452 -0.3339 -0.4996  0.1522
  540TIP3   OH223254   5.070   6.628   0.750  0.3931 -0.0293  0.3060
  540TIP3    H123255   5.152   6.579   0.741  1.5646  1.6516  1.3928
  540TIP3    H223256   5.017   6.574   0.808  1.0507 -0.7437  0.2671
  541TIP3   OH223257   0.818   2.889   7.990  0.7595 -0.3242  0.1235
  541TIP3    H123258   0.790   2.798   7.987  0.0109 -0.1937  1.9634
  541TIP3    H223259   0.867   2.897   8.071 -0.7067  1.2905  0.9163
  542TIP3   OH223260   3.419   1.173   0.793 -0.2763 -0.5222 -0.0413
  542TIP3    H123261   3.422   1.255   0.842  0.2202 -0.7769  0.3517
  542TIP3    H223262   3.492   1.179   0.731  0.8738 -1.4128  1.1814
  543TIP3   OH223263   5.363   3.199   0.769  0.2059 -0.3963  0.4274
  543TIP3    H123264   5.324   3.213   0.855 -1.8860  0.0425 -0.5334
  543TIP3    H223265   5.359   3.284   0.726 -0.8247 -1.0704 -0.8783
  544TIP3   OH223266   0.978   3.995   7.763 -0.5056 -0.0703 -0.1994
  544TIP3    H123267   0.936   4.081   7.755 -0.4667  0.2170  2.0782
  544TIP3    H223268   0.997   3.969   7.672 -0.0933  2.5206 -0.9432
  545TIP3   OH223269   1.518   0.663   0.244 -0.1163  0.7754 -0.3821
  545TIP3    H123270   1.561   0.674   0.328  0.6355 -0.9892 -0.4965
  545TIP3    H223271   1.446   0.602   0.261  0.6109 -0.3453 -1.1510
  546TIP3   OH223272   0.027   4.035   0.843 -0.1076 -0.2013 -0.3922
  546TIP3    H123273  -0.061   4.068   0.830 -0.6121 -1.3707 -0.0729
  546TIP3    H223274   0.037   4.030   0.938  0.2209 -0.2903 -0.4291
  547TIP3   OH223275   1.784   4.779   2.229 -0.5117  0.0650 -0.3375
  547TIP3    H123276   1.699   4.822   2.218 -0.6869 -0.5716 -1.5814
  547TIP3    H223277   1.764   4.686   2.235  0.1221 -0.1335 -1.1475
  548TIP3   OH223278   4.844   1.833   1.560 -0.0694 -0.4103  0.1342
  548TIP3    H123279   4.921   1.881   1.530 -0.7036  1.2932  1.0935
  548TIP3    H223280   4.784   1.834   1.484 -0.0328  0.2347  0.1128
  549TIP3   OH223281   0.867   6.587   7.750  0.1574 -0.6935  0.0521
  549TIP3    H123282   0.781   6.614   7.717  1.2479 -0.6547 -3.1488
  549TIP3    H223283   0.889   6.511   7.697  1.8473 -1.0864  1.2566
  550TIP3   OH223284   4.655   5.846   7.238 -0.4734  0.1456  0.0215
  550TIP3    H123285   4.670   5.897   7.318 -0.7604 -0.9825  0.8323
  550TIP3    H223286   4.668   5.755   7.265 -0.8132 -0.2765 -1.1646
  551TIP3   OH223287   4.339   0.398   2.069  0.4750 -0.3098  0.3971
  551TIP3    H123288   4.282   0.379   2.143  1.1839 -3.0143  0.3723
  551TIP3    H223289   4.428   0.396   2.105  0.7409  0.3694 -0.1843
  552TIP3   OH223290   2.548   2.650   0.927 -0.2548  0.4211  0.6994
  552TIP3    H123291   2.519   2.561   0.904  1.5636 -0.2001  0.6379
  552TIP3    H223292   2.490   2.707   0.878  1.9162 -0.8052 -3.8389
  553TIP3   OH223293   3.843   5.316   1.097  0.3033 -0.1227  0.0435
  553TIP3    H123294   3.925   5.322   1.048 -0.2144  0.1606 -0.7921
  553TIP3    H223295   3.871   5.318   1.189  1.3337 -1.4545 -0.2140
  554TIP3   OH223296   1.806   0.003   8.106  0.5220  0.2237  0.4842
  554TIP3    H123297   1.874  -0.061   8.086 -0.3194 -0.3172 -0.8040
  554TIP3    H223298   1.839   0.085   8.070  0.1450 -0.2173 -0.9352
  555TIP3   OH223299   3.155   3.798   2.806  0.0302  0.5177 -0.1676
  555TIP3    H123300   3.074   3.833   2.843  1.0090  3.5835 -0.6176
  555TIP3    H223301   3.221   3.864   2.828  1.3773  0.7644 -4.1978
  556TIP3   OH223302   0.533   1.358   7.383  0.3399  0.2228  0.2016
  556TIP3    H123303   0.570   1.273   7.361 -2.1063 -0.7679 -0.4145
  556TIP3    H223304   0.515   1.353   7.477 -0.4277 -0.2431  0.0418
  557TIP3   OH223305   1.391   5.511   1.501 -0.1746  0.0956 -0.7193
  557TIP3    H123306   1.452   5.439   1.518  1.4180  0.9132 -2.5186
  557TIP3    H223307   1.369   5.546   1.587  3.1333  0.6855  0.0226
  558TIP3   OH223308   0.687   1.868   0.839  0.2433  0.0910 -0.2593
  558TIP3    H123309   0.654   1.808   0.906  1.5244 -1.8208 -1.2244
  558TIP3    H223310   0.701   1.812   0.762  1.0402  1.7467 -1.3759
  559TIP3   OH223311   1.495   1.899   1.454  0.1159 -0.0511  0.4820
  559TIP3    H123312   1.510   1.953   1.377  0.9742  0.2706  0.8546
  559TIP3    H223313   1.405   1.918   1.481 -0.7075 -1.2683 -1.2747
  560TIP3   OH223314   2.646   0.376   7.678 -0.6193 -0.2985 -0.1032
  560TIP3    H123315   2.717   0.362   7.615 -0.9019  1.0600 -0.7508
  560TIP3    H223316   2.654   0.303   7.739  0.2785 -1.0960 -1.1393
  561TIP3   OH223317   3.380   1.533   0.304 -0.1540 -0.2314  0.1942
  561TIP3    H123318   3.424   1.470   0.360 -0.8527  0.4466  1.5479
  561TIP3    H223319   3.346   1.600   0.364 -0.0331  1.0720 -1.1292
  562TIP3   OH223320   3.924   2.822   7.878 -0.3888  0.4141  0.7553
  562TIP3    H123321   3.937   2.881   7.805 -1.3513 -0.6351 -0.3037
  562TIP3    H223322   3.954   2.871   7.955 -0.4364  1.9529 -0.1826
  563TIP3   OH223323   4.184   0.238   1.213  0.0122 -0.0010 -0.7280
  563TIP3    H123324   4.260   0.187   1.239 -0.6177 -0.1223  0.9754
  563TIP3    H223325   4.178   0.225   1.118  1.9957 -0.1123 -0.8842
  564TIP3   OH223326   6.045   1.646   8.158  0.1042 -0.0164 -0.3052
  564TIP3    H123327   6.024   1.582   8.090 -0.2690  0.0747 -0.2772
  564TIP3    H223328   5.975   1.638   8.222  0.7747 -0.5370  0.3910
  565TIP3   OH223329   6.558   0.253   8.432 -0.2915  0.0713 -0.3955
  565TIP3    H123330   6.530   0.268   8.522 -0.2081  0.8032 -0.4813
  565TIP3    H223331   6.477   0.261   8.381 -0.6006 -1.7661 -0.2634
  566TIP3   OH223332   1.930   2.583   1.597  0.6315 -0.2324  0.9139
  566TIP3    H123333   1.867   2.512   1.583 -0.0757  0.5696 -0.1023
  566TIP3    H223334   1.979   2.589   1.515  1.4528 -0.2664  1.3885
  567TIP3   OH223335   6.627   2.893   8.205 -0.2578 -0.1711  0.3300
  567TIP3    H123336   6.665   2.906   8.291 -0.2497  1.5038  0.0950
  567TIP3    H223337   6.570   2.817   8.215 -1.5011  0.9535  2.2433
  568TIP3   OH223338   3.625   2.673   7.938 -0.5850  0.2380  0.1430
  568TIP3    H123339   3.598   2.684   8.030 -1.2273  0.0649 -0.0238
  568TIP3    H223340   3.592   2.751   7.894  1.0587  1.0876  0.3428
  569TIP3   OH223341   0.693   3.663   7.251  0.1725 -0.0973  0.4114
  569TIP3    H123342   0.690   3.742   7.305 -3.4381  0.4908 -0.3800
  569TIP3    H223343   0.659   3.594   7.308  0.2486 -0.3706  0.1278
  570TIP3   OH223344   6.485   2.272   1.133  0.1888  0.1547 -0.0274
  570TIP3    H123345   6.414   2.209   1.119  0.4143 -0.2192  0.5078
  570TIP3    H223346   6.441   2.355   1.147 -0.1619 -0.1328  0.6122
  571TIP3   OH223347   2.362   6.203   1.153 -0.0130  0.4552  0.5975
  571TIP3    H123348   2.314   6.199   1.070  1.6810  0.0400 -0.4087
  571TIP3    H223349   2.423   6.276   1.142  1.6901 -0.9156  0.6305
  572TIP3   OH223350   3.561   6.854   7.332 -0.0392 -0.1424 -0.0510
  572TIP3    H123351   3.596   6.766   7.331  1.3566  0.3927 -1.2805
  572TIP3    H223352   3.466   6.843   7.321  0.1747 -1.4507 -0.6768
  573TIP3   OH223353   5.958   6.152   1.562  0.4164 -0.3845 -0.5114
  573TIP3    H123354   5.919   6.117   1.482 -0.7017 -0.0873 -0.1273
  573TIP3    H223355   5.985   6.241   1.538 -0.5934 -0.0268 -0.3873
  574TIP3   OH223356   5.199   1.454   8.469 -0.3172 -0.1374 -0.3142
  574TIP3    H123357   5.238   1.461   8.382  0.9406 -1.4110  0.1124
  574TIP3    H223358   5.186   1.545   8.497 -0.5680  0.2936 -1.7311
  575TIP3   OH223359   6.517   1.207   0.421  0.3073 -0.0271 -0.2109
  575TIP3    H123360   6.588   1.199   0.485 -1.1782  2.1512  1.8866
  575TIP3    H223361   6.544   1.281   0.366 -0.6588  1.4545  1.2060
  576TIP3   OH223362   1.687   3.772   0.753  0.7856  0.0723  0.0076
  576TIP3    H123363   1.774   3.777   0.714 -0.3624 -0.3099 -2.8704
  576TIP3    H223364   1.672   3.859   0.790  2.0957  0.3766 -0.1343
  577TIP3   OH223365   3.592   4.232   0.833 -0.4804 -0.0148  0.0617
  577TIP3    H123366   3.623   4.217   0.744 -1.1972  0.1549 -0.2224
  577TIP3    H223367   3.669   4.263   0.880 -0.4747  1.5703 -0.9240
  578TIP3   OH223368   5.453   0.311   0.368 -0.0122  0.1765  0.0620
  578TIP3    H123369   5.413   0.341   0.286 -1.1245 -0.9615  0.1503
  578TIP3    H223370   5.544   0.293   0.345 -0.3141 -0.1300 -0.9376
  579TIP3   OH223371   1.088   4.901   2.279 -0.7842 -0.1458  0.2359
  579TIP3    H123372   1.060   4.981   2.325  0.3607  0.0826  0.5661
  579TIP3    H223373   1.178   4.919   2.253  1.1139 -2.8309  4.0320
  580TIP3   OH223374   5.017   0.644   0.601  0.3044  0.0748  0.1005
  580TIP3    H123375   4.932   0.624   0.562 -0.6553  3.5087  0.0366
  580TIP3    H223376   5.052   0.715   0.547  1.7979  0.8277  1.9123
  581TIP3   OH223377   6.217   2.028   8.336 -0.0954  0.4928 -0.4493
  581TIP3    H123378   6.210   1.963   8.406  2.1399  1.0934  0.4098
  581TIP3    H223379   6.244   1.977   8.260  1.1458  0.2856  0.0945
  582TIP3   OH223380   5.179   0.010   8.004  0.1164  0.2430  0.4082
  582TIP3    H123381   5.131  -0.056   7.953 -2.0498  1.6703  0.4586
  582TIP3    H223382   5.271  -0.004   7.982 -0.6141  0.1499 -3.1616
  583TIP3   OH223383   5.353   5.975   7.633 -0.2717 -0.2286  0.0594
  583TIP3    H123384   5.442   6.001   7.653  0.2507 -2.1045  0.4193
  583TIP3    H223385   5.346   5.984   7.538  0.8495 -1.5169 -0.1826
  584TIP3   OH223386   2.296   3.195   2.270 -0.3103  0.0711 -0.6407
  584TIP3    H123387   2.354   3.127   2.302  0.3427  1.2405  0.7488
  584TIP3    H223388   2.280   3.251   2.346 -2.3788  0.4011 -1.2563
  585TIP3   OH223389   0.274   1.786   1.217 -0.3161  0.4389  0.2301
  585TIP3    H123390   0.203   1.816   1.274 -1.0191  0.1750 -0.4883
  585TIP3    H223391   0.308   1.708   1.262 -0.3791  0.6522  0.6550
  586TIP3   OH223392   4.383   2.023   8.265 -0.2231 -0.5153 -0.4192
  586TIP3    H123393   4.309   2.083   8.267 -0.0793 -0.2913 -1.4836
  586TIP3    H223394   4.348   1.941   8.231 -0.1482 -0.6697 -0.1375
  587TIP3   OH223395   1.402   5.659   8.080 -0.4389  0.0290  0.1927
  587TIP3    H123396   1.384   5.642   7.988  0.7203  1.1126 -0.2732
  587TIP3    H223397   1.472   5.725   8.079 -0.8712  0.5729  1.8432
  588TIP3   OH223398   1.884   4.501   1.096  0.6102  0.6697 -0.0310
  588TIP3    H123399   1.950   4.452   1.047  0.6273  0.2584  0.3931
  588TIP3    H223400   1.912   4.495   1.188 -0.3815 -0.1160  0.2421
  589TIP3   OH223401   0.969   3.702   7.114  0.4111 -0.1302 -0.0654
  589TIP3    H123402   0.960   3.794   7.136  0.7596 -0.2388  0.5594
  589TIP3    H223403   1.064   3.689   7.103  0.2269  0.0333 -2.1811
  590TIP3   OH223404   5.518   1.915   0.084  0.0665  0.2386 -0.3208
  590TIP3    H123405   5.476   1.841   0.042  0.5198 -0.1909 -0.0392
  590TIP3    H223406   5.543   1.883   0.171 -0.2842  0.9092  0.0385
  591TIP3   OH223407   5.341   6.138   7.202  0.0887  0.0071 -0.3870
  591TIP3    H123408   5.257   6.139   7.156 -0.0291  0.5991 -0.1661
  591TIP3    H223409   5.406   6.149   7.132  0.0412 -1.2358 -0.6541
  592TIP3   OH223410   6.901   1.611   7.099  0.1097 -0.3698  0.4515
  592TIP3    H123411   6.873   1.591   7.010 -1.7021 -0.3553  0.9911
  592TIP3    H223412   6.994   1.632   7.090  0.0760 -0.8189 -1.3558
  593TIP3   OH223413   3.671   5.600   2.326 -0.3051 -0.1574  0.0400
  593TIP3    H123414   3.590   5.645   2.301  1.4681  2.6601 -1.2225
  593TIP3    H223415   3.642   5.524   2.376 -3.6958  2.4161  2.5202
  594TIP3   OH223416   5.521   6.519   8.089  0.4617  0.4889 -0.0476
  594TIP3    H123417   5.456   6.450   8.075  0.2120  0.5589  0.7214
  594TIP3    H223418   5.592   6.475   8.136 -0.5172  1.1314  2.1577
  595TIP3   OH223419   6.430   4.757   1.715  0.4199 -0.2079 -0.3468
  595TIP3    H123420   6.405   4.666   1.734 -2.8787  0.3902 -1.1516
  595TIP3    H223421   6.420   4.802   1.799 -0.5776 -0.1317 -0.4927
  596TIP3   OH223422   5.678   1.315   2.376  0.1332 -0.0139  0.8364
  596TIP3    H123423   5.707   1.305   2.467 -2.2494 -0.9915  1.5732
  596TIP3    H223424   5.595   1.363   2.382 -0.8698 -1.4491 -0.6344
  597TIP3   OH223425   4.873   2.581   1.176  0.0361 -0.2352  0.2188
  597TIP3    H123426   4.792   2.592   1.225  0.1310 -1.8354  0.7954
  597TIP3    H223427   4.936   2.639   1.220 -0.2198 -0.6699  1.1853
  598TIP3   OH223428   1.938   2.702   0.659 -0.2186 -0.1040  0.1696
  598TIP3    H123429   1.890   2.774   0.701 -0.5586  0.1048 -0.5711
  598TIP3    H223430   1.881   2.626   0.669 -0.2928 -0.0582  0.0914
  599TIP3   OH223431   1.786   1.071   0.084 -0.4016  0.7686 -0.4883
  599TIP3    H123432   1.870   1.110   0.108 -0.4239  0.0533  0.8816
  599TIP3    H223433   1.776   0.997   0.144 -2.4348  1.3763  0.0019
  600TIP3   OH223434   0.068   2.122   0.944 -0.1682  0.0831  0.2864
  600TIP3    H123435   0.071   2.112   1.040 -0.2454 -2.5351  0.1095
  600TIP3    H223436  -0.020   2.092   0.920 -0.3308  1.2086 -0.5828
  601TIP3   OH223437   5.955   6.722   2.070 -0.6516  0.2709  0.7658
  601TIP3    H123438   5.906   6.732   1.988 -1.4533 -1.0341  1.0583
  601TIP3    H223439   5.922   6.641   2.108  1.2268 -0.2660  1.3529
  602TIP3   OH223440   3.893   4.677   6.487  0.2148 -0.3956  0.2632
  602TIP3    H123441   3.944   4.632   6.554  1.0222  0.1909  0.0629
  602TIP3    H223442   3.801   4.662   6.511  0.4849 -1.1962  0.8125
  603TIP3   OH223443   4.698   3.436   0.325  0.5025 -0.1592 -0.1133
  603TIP3    H123444   4.714   3.502   0.258  3.2763  0.2364  0.8334
  603TIP3    H223445   4.731   3.475   0.406 -0.3988 -1.6383  1.0181
  604TIP3   OH223446   2.180   0.902   1.184 -0.1327 -0.2936  0.3408
  604TIP3    H123447   2.140   0.854   1.256  1.0979 -0.8635  0.6742
  604TIP3    H223448   2.123   0.977   1.170 -0.0493  0.1939  2.3566
  605TIP3   OH223449   1.349   3.092   7.328 -0.9026 -0.4475  0.0655
  605TIP3    H123450   1.375   3.012   7.284  0.2832  0.1593 -0.3615
  605TIP3    H223451   1.361   3.073   7.421 -0.0276 -0.5697 -0.0660
  606TIP3   OH223452   5.940   3.940   8.279  0.0425 -0.5110 -0.2036
  606TIP3    H123453   6.015   3.993   8.251 -0.0092 -0.9538 -1.2418
  606TIP3    H223454   5.872   4.003   8.299  0.2618 -0.1533 -0.5765
  607TIP3   OH223455   1.738   4.401   6.585 -0.3001  0.2800  0.4118
  607TIP3    H123456   1.718   4.493   6.567 -1.1873 -0.1199 -0.8708
  607TIP3    H223457   1.666   4.372   6.641 -0.0227  0.3559  0.8127
  608TIP3   OH223458   5.783   0.699   7.546 -0.1148 -0.6392 -0.4202
  608TIP3    H123459   5.812   0.763   7.481  1.0279 -1.1518 -0.4397
  608TIP3    H223460   5.695   0.729   7.572 -0.0411  0.3139 -1.2145
  609TIP3   OH223461   0.495   5.564   1.597 -0.2461 -0.1600  0.4815
  609TIP3    H123462   0.438   5.590   1.525 -0.7436 -1.3599  0.4057
  609TIP3    H223463   0.507   5.469   1.584  1.8692  0.0630  0.4312
  610TIP3   OH223464   6.930   2.293   0.590 -1.3332 -0.0596  0.1331
  610TIP3    H123465   6.860   2.326   0.533 -1.5761 -1.6398 -0.5314
  610TIP3    H223466   6.990   2.247   0.532 -1.0489 -0.8504  1.0151
  611TIP3   OH223467   2.428   1.011   8.407 -0.2877 -0.4937 -0.2690
  611TIP3    H123468   2.350   0.978   8.452  0.4307 -1.1344  0.5300
  611TIP3    H223469   2.457   0.938   8.353  0.3476 -0.6127  0.2237
  612TIP3   OH223470   2.588   0.586   8.254 -0.4060  0.1341 -0.8867
  612TIP3    H123471   2.514   0.543   8.297 -0.5958 -1.1810 -2.4588
  612TIP3    H223472   2.608   0.661   8.311 -1.8075 -0.4785  0.4863
  613TIP3   OH223473   0.858   5.116   1.379  0.7763 -1.1764  0.0615
  613TIP3    H123474   0.946   5.134   1.413  0.9847 -0.6920 -0.6800
  613TIP3    H223475   0.874   5.076   1.293  0.2846 -0.1676 -0.5188
  614TIP3   OH223476   2.269   1.954   8.439  0.1713  0.2660 -0.0702
  614TIP3    H123477   2.357   1.980   8.411 -0.0250 -0.4989 -1.5208
  614TIP3    H223478   2.216   2.033   8.432  0.6705  0.6556  0.5069
  615TIP3   OH223479   0.107   0.199   1.566 -0.1170  0.3060  0.0418
  615TIP3    H123480   0.063   0.283   1.553 -1.6600 -0.4885 -0.1523
  615TIP3    H223481   0.156   0.210   1.647  0.7301  1.7837 -0.6320
  616TIP3   OH223482   5.662   6.104   1.122  0.0073 -0.2596  0.1423
  616TIP3    H123483   5.660   6.191   1.081 -1.1586 -0.3331  0.0083
  616TIP3    H223484   5.570   6.086   1.143  0.3015 -1.2623  0.5960
  617TIP3   OH223485   6.752   6.895   1.440  0.6490 -0.3109 -0.1460
  617TIP3    H123486   6.735   6.952   1.514  1.5457  0.7537 -0.7347
  617TIP3    H223487   6.831   6.930   1.400 -0.7594  0.2141 -2.6501
  618TIP3   OH223488   3.158   2.716   8.005  0.2788  0.0982  0.1927
  618TIP3    H123489   3.196   2.737   8.090 -0.1263  2.6611 -0.1766
  618TIP3    H223490   3.063   2.721   8.019  0.1285 -1.8673  0.1050
  619TIP3   OH223491   2.639   6.400   0.090  0.1946 -0.3222 -0.1563
  619TIP3    H123492   2.646   6.483   0.136 -1.4515  0.2262 -0.8126
  619TIP3    H223493   2.671   6.418   0.002  0.5462 -0.5834 -0.0816
  620TIP3   OH223494   5.883   3.772   7.378 -0.3255  0.0480 -0.3103
  620TIP3    H123495   5.811   3.739   7.431  1.0740 -0.5614  1.3073
  620TIP3    H223496   5.841   3.813   7.302 -2.2696 -2.1185 -0.4934
  621TIP3   OH223497   0.322   0.189   0.112 -0.1638 -0.6843  0.1999
  621TIP3    H123498   0.256   0.254   0.134 -0.2229 -1.0070  1.0352
  621TIP3    H223499   0.391   0.201   0.178  1.5065  0.8456 -1.7001
  622TIP3   OH223500   6.704   2.506   6.304 -0.1488  0.4204 -0.2766
  622TIP3    H123501   6.642   2.542   6.240 -2.2848 -1.2445  0.7143
  622TIP3    H223502   6.685   2.412   6.305  0.4198  0.2736  2.1275
  623TIP3   OH223503   3.413   0.493   2.531  0.7513  0.6454  0.2178
  623TIP3    H123504   3.432   0.564   2.470 -0.1586  1.9396  1.3897
  623TIP3    H223505   3.485   0.497   2.595 -0.0238  1.4232  1.0585
  624TIP3   OH223506   1.542   6.530   1.127  0.0102  0.3410 -0.1823
  624TIP3    H123507   1.487   6.512   1.203  0.6682 -1.1274 -0.0200
  624TIP3    H223508   1.584   6.613   1.147 -1.0155  0.7491  0.3495
  625TIP3   OH223509   3.072   4.813   1.047 -0.5739 -0.1552 -0.4335
  625TIP3    H123510   3.152   4.864   1.052 -1.4808  1.4501 -1.3886
  625TIP3    H223511   3.096   4.734   0.998  0.6002 -0.1449  0.0967
  626TIP3   OH223512   5.685   3.302   0.234  0.2131 -0.1332  0.2669
  626TIP3    H123513   5.661   3.391   0.210  0.8113 -0.3285 -1.1944
  626TIP3    H223514   5.607   3.267   0.278 -1.0008  0.3107 -1.4008
  627TIP3   OH223515   1.088   3.512   1.204 -0.0003  0.0056 -0.5739
  627TIP3    H123516   1.176   3.549   1.211  0.8830 -2.0860  0.0856
  627TIP3    H223517   1.032   3.572   1.253  0.6974  2.2940 -2.3864
  628TIP3   OH223518   4.259   6.611   8.061 -0.0125 -0.5220  0.7651
  628TIP3    H123519   4.324   6.677   8.040  0.8082 -1.1239  1.3312
  628TIP3    H223520   4.258   6.553   7.985  0.5122 -0.8097  0.9708
  629TIP3   OH223521   1.649   3.362   6.691  0.1332  0.2994 -0.2219
  629TIP3    H123522   1.739   3.377   6.722 -0.0708 -1.2398  1.3236
  629TIP3    H223523   1.659   3.312   6.610  0.6647  2.4715 -1.5645
  630TIP3   OH223524   0.426   6.609   1.342 -0.9644  0.2171  0.2058
  630TIP3    H123525   0.434   6.689   1.393 -0.0140 -0.2059  0.7303
  630TIP3    H223526   0.335   6.581   1.355 -0.6746 -0.0053  1.8337
  631TIP3   OH223527   4.434   1.214   8.508  0.2931  0.4708 -0.1007
  631TIP3    H123528   4.466   1.146   8.568  2.8994  1.2643 -0.4537
  631TIP3    H223529   4.463   1.296   8.547 -0.6160  1.2225 -0.9474
  632TIP3   OH223530   2.212   3.419   7.739  0.5213  0.4253 -0.6278
  632TIP3    H123531   2.207   3.483   7.810  0.2729  1.1254 -1.2645
  632TIP3    H223532   2.121   3.407   7.711  0.3045 -1.6288  0.6993
  633TIP3   OH223533   5.954   5.607   7.087 -0.2200 -0.4180  0.3975
  633TIP3    H123534   6.019   5.670   7.118  1.1533 -1.1847 -0.7688
  633TIP3    H223535   5.920   5.567   7.167  0.5000  0.2462  1.0607
  634TIP3   OH223536   3.508   5.187   6.559  0.2270  0.6447 -0.0980
  634TIP3    H123537   3.557   5.232   6.628  3.0641  0.3271 -1.7326
  634TIP3    H223538   3.541   5.097   6.561 -0.8639  0.2038 -0.8063
  635TIP3   OH223539   6.428   6.920   0.301  0.2229 -0.2954 -0.4965
  635TIP3    H123540   6.358   6.895   0.242 -0.8945 -0.4854  0.8603
  635TIP3    H223541   6.472   6.837   0.323 -0.2720 -0.4288  0.0309
  636TIP3   OH223542   6.786   5.139   0.713 -0.5108  0.3496 -0.3656
  636TIP3    H123543   6.877   5.131   0.741 -0.6421  0.5182  0.1270
  636TIP3    H223544   6.791   5.151   0.619 -0.1127 -1.4663 -0.6109
  637TIP3   OH223545   3.689   2.476   0.692  0.3139 -0.8723 -0.3073
  637TIP3    H123546   3.636   2.541   0.739  1.6987  0.6259 -0.7418
  637TIP3    H223547   3.656   2.480   0.602 -1.0328 -2.3572  0.0726
  638TIP3   OH223548   5.693   0.345   0.713  0.4829  0.1251 -0.0986
  638TIP3    H123549   5.766   0.308   0.663  0.6663 -0.0670  0.3039
  638TIP3    H223550   5.703   0.440   0.703  1.0400  0.1112  0.3048
  639TIP3   OH223551   1.820   6.095   1.405  0.2792  0.3772 -0.4001
  639TIP3    H123552   1.874   6.020   1.381 -0.4932 -0.7728  1.3064
  639TIP3    H223553   1.829   6.103   1.500 -0.3889  1.8880 -0.4248
  640TIP3   OH223554   4.719   1.734   1.177 -0.0118  0.0559 -0.4061
  640TIP3    H123555   4.720   1.826   1.203  1.4512  0.1186 -0.6248
  640TIP3    H223556   4.783   1.728   1.106 -0.9182 -0.9233 -1.1874
  641TIP3   OH223557   5.750   4.010   7.176  0.0583 -0.5925  0.0007
  641TIP3    H123558   5.673   3.975   7.132  0.0217 -0.0633 -0.3693
  641TIP3    H223559   5.790   4.069   7.111  0.1608 -0.0225  0.5765
  642TIP3   OH223560   1.344   1.772   1.177 -0.3819  0.4574  0.2748
  642TIP3    H123561   1.345   1.847   1.237 -0.9161 -0.4952  1.5218
  642TIP3    H223562   1.254   1.739   1.181  0.3736 -1.6720  1.6336
  643TIP3   OH223563   6.575   3.591   1.459  0.2663  0.4648  0.3036
  643TIP3    H123564   6.516   3.586   1.534  0.7774  1.0944  0.7525
  643TIP3    H223565   6.582   3.501   1.428  0.1350  0.1832  1.0748
  644TIP3   OH223566   0.418   1.493   1.147 -0.4003  0.5776 -0.5663
  644TIP3    H123567   0.457   1.527   1.227 -1.7504  1.1032 -0.1061
  644TIP3    H223568   0.366   1.418   1.175  0.3238 -0.1712 -1.1830
  645TIP3   OH223569   0.010   6.869   6.803  0.2153 -0.2013  0.2452
  645TIP3    H123570  -0.049   6.887   6.730 -0.5058 -0.4159  0.7643
  645TIP3    H223571   0.089   6.834   6.761  0.4849  1.2763 -0.5487
  646TIP3   OH223572   1.259   2.646   8.443 -0.1298  0.2448 -0.2923
  646TIP3    H123573   1.268   2.730   8.488 -1.1223  0.6014 -0.7248
  646TIP3    H223574   1.230   2.669   8.355 -0.5397 -0.5529 -0.3791
  647TIP3   OH223575   5.212   4.982   7.932 -0.3043 -0.0691 -0.2128
  647TIP3    H123576   5.152   5.056   7.923 -0.3713  0.0285  0.9171
  647TIP3    H223577   5.190   4.925   7.859 -1.8403 -0.0689  0.2094
  648TIP3   OH223578   2.896   3.775   2.569  0.2733 -0.5088  0.1943
  648TIP3    H123579   2.814   3.787   2.617  0.0576 -0.0151 -0.2906
  648TIP3    H223580   2.958   3.835   2.611  0.1798 -0.3268  0.0692
  649TIP3   OH223581   1.621   3.158   1.034 -0.3699 -0.1494 -0.0318
  649TIP3    H123582   1.604   3.119   0.948 -0.8318 -1.6503  0.7047
  649TIP3    H223583   1.676   3.234   1.015  0.0492 -0.7943 -1.6014
  650TIP3   OH223584   1.480   6.703   7.788  0.0782  0.1248 -0.3363
  650TIP3    H123585   1.398   6.718   7.741  0.0072 -0.1749 -0.3078
  650TIP3    H223586   1.541   6.674   7.720  0.5056  1.5226 -0.5791
  651TIP3   OH223587   1.639   4.080   2.575  0.5157 -0.0059 -0.1486
  651TIP3    H123588   1.671   4.141   2.641  0.3689  0.6894 -0.7124
  651TIP3    H223589   1.718   4.049   2.530  0.6004 -0.3413  0.2242
  652TIP3   OH223590   0.765   5.276   0.091  0.3619  0.2408  0.2262
  652TIP3    H123591   0.726   5.251   0.008 -0.0348 -0.4092  0.6060
  652TIP3    H223592   0.738   5.208   0.153 -0.9480  1.7020  1.3526
  653TIP3   OH223593   1.553   1.423   6.274  0.2055 -0.2120 -0.0546
  653TIP3    H123594   1.473   1.424   6.220 -0.6057 -0.6261  1.1073
  653TIP3    H223595   1.621   1.455   6.215 -0.7253 -0.2757 -1.2153
  654TIP3   OH223596   4.376   1.286   0.487  0.3032 -0.2785  0.1638
  654TIP3    H123597   4.438   1.341   0.534 -0.8526  1.4608 -0.2522
  654TIP3    H223598   4.375   1.321   0.398 -1.0856 -0.4171  0.0975
  655TIP3   OH223599   5.901   2.634   1.807 -0.0229  0.6233 -0.2106
  655TIP3    H123600   5.881   2.592   1.891 -0.2867 -0.7381 -0.9229
  655TIP3    H223601   5.816   2.647   1.766  0.2355 -2.0233 -1.7699
  656TIP3   OH223602   1.972   4.794   7.762  0.4866 -0.0817 -0.3111
  656TIP3    H123603   1.909   4.748   7.816  2.9205 -1.4785  1.5346
  656TIP3    H223604   1.968   4.750   7.677  0.2479 -1.3725  0.3453
  657TIP3   OH223605   0.272   4.395   8.195 -0.0083 -0.3182 -0.6037
  657TIP3    H123606   0.340   4.453   8.161 -0.8260 -0.8034 -3.3327
  657TIP3    H223607   0.314   4.309   8.199  0.4361 -0.0469  0.8479
  658TIP3   OH223608   2.992   4.247   6.812 -0.1060 -0.0750  0.5306
  658TIP3    H123609   2.968   4.161   6.777  0.6193 -0.1575  0.2054
  658TIP3    H223610   3.075   4.268   6.768 -0.1768  0.7019  0.7520
  659TIP3   OH223611   0.071   2.733   2.472 -0.0838 -0.1019 -0.0870
  659TIP3    H123612   0.080   2.673   2.398  2.3786  0.5161 -0.3717
  659TIP3    H223613   0.051   2.677   2.547 -0.1238 -1.0084 -0.7618
  660TIP3   OH223614   3.257   2.969   0.383  0.2915  0.3263  0.0672
  660TIP3    H123615   3.278   3.049   0.431 -3.0659  3.1023 -2.5903
  660TIP3    H223616   3.173   2.941   0.418 -1.2884  1.3126 -2.6604
  661TIP3   OH223617   3.815   5.844   8.256  0.7184 -0.1296  0.5641
  661TIP3    H123618   3.801   5.848   8.350  0.0130  0.5520  0.4411
  661TIP3    H223619   3.785   5.929   8.223  0.8987 -0.3770 -0.2800
  662TIP3   OH223620   0.634   6.023   7.858 -0.8169  0.7111 -0.0386
  662TIP3    H123621   0.603   6.016   7.948  2.1062 -0.2243  1.0113
  662TIP3    H223622   0.612   5.939   7.818 -2.0270  1.0905 -0.2079
  663TIP3   OH223623   6.825   1.154   1.592  0.3161 -0.2538  0.4907
  663TIP3    H123624   6.840   1.111   1.508  1.1042  0.7521  0.1028
  663TIP3    H223625   6.734   1.183   1.588  0.0409 -1.0872  0.4084
  664TIP3   OH223626   5.334   5.066   8.195  0.0363 -0.5530  0.1061
  664TIP3    H123627   5.302   5.060   8.105  1.8001 -1.6306 -0.4845
  664TIP3    H223628   5.363   4.977   8.216  1.0159  0.0088  1.2212
  665TIP3   OH223629   6.556   2.524   7.518  0.3698 -0.2087 -0.7092
  665TIP3    H123630   6.555   2.460   7.589 -1.4056  1.0770  0.5147
  665TIP3    H223631   6.629   2.582   7.539  0.2496 -0.2073 -0.2859
  666TIP3   OH223632   0.588   3.691   6.506 -0.4324  0.2537 -0.3332
  666TIP3    H123633   0.542   3.697   6.422 -1.3248 -0.5505  0.0936
  666TIP3    H223634   0.644   3.614   6.497 -0.2116  0.4096 -0.3281
  667TIP3   OH223635   6.381   4.923   0.942  0.1074 -0.5138  0.1521
  667TIP3    H123636   6.346   4.861   0.877  1.2242 -0.6565 -0.3382
  667TIP3    H223637   6.473   4.931   0.919  0.3662 -0.0356  1.3248
  668TIP3   OH223638   1.924   5.727   2.251 -0.3562 -0.0191 -0.4374
  668TIP3    H123639   1.875   5.793   2.202  0.1122  1.0495  0.4866
  668TIP3    H223640   2.015   5.754   2.245 -0.1666 -0.5270  0.0229
  669TIP3   OH223641   1.420   1.576   6.953 -0.2853  0.1870 -0.5465
  669TIP3    H123642   1.353   1.614   6.896 -1.4454 -0.7542  0.1454
  669TIP3    H223643   1.394   1.601   7.041  0.1851 -0.3383 -0.2550
  670TIP3   OH223644   0.769   6.017   7.019  0.2259 -0.6221  0.1527
  670TIP3    H123645   0.837   6.083   7.036  1.9755 -1.4603 -2.8694
  670TIP3    H223646   0.701   6.065   6.971  0.1933 -0.4640  0.3520
  671TIP3   OH223647   0.649   4.666   7.055 -0.4448  0.2605  0.3117
  671TIP3    H123648   0.623   4.744   7.006  1.5950 -0.1861 -1.6569
  671TIP3    H223649   0.586   4.599   7.027  0.7541 -0.0256 -1.9846
  672TIP3   OH223650   2.319   6.714   1.584  0.0467  0.1977 -0.5090
  672TIP3    H123651   2.246   6.776   1.578  0.1184  0.4370  0.7559
  672TIP3    H223652   2.278   6.629   1.598 -0.0027  0.4213  0.8307
  673TIP3   OH223653   3.902   3.161   0.124 -0.5072  0.2407  0.6271
  673TIP3    H123654   3.824   3.152   0.179 -0.5630  0.3555  0.5680
  673TIP3    H223655   3.871   3.207   0.046 -0.2765  0.7513  0.8281
  674TIP3   OH223656   6.574   6.112   7.796  0.4439 -0.3348  0.5973
  674TIP3    H123657   6.544   6.195   7.760  0.4176  0.5101  2.4885
  674TIP3    H223658   6.503   6.050   7.776 -0.0623  0.3625  0.2033
  675TIP3   OH223659   4.629   1.926   7.377  0.2517  0.4204  0.2875
  675TIP3    H123660   4.710   1.916   7.327 -0.3889  0.2819 -0.7548
  675TIP3    H223661   4.571   1.975   7.319 -0.0645  1.4623  1.4370
  676TIP3   OH223662   5.269   1.785   1.275  0.5475 -0.1841  0.3071
  676TIP3    H123663   5.240   1.714   1.333  0.3150  0.0340  0.4628
  676TIP3    H223664   5.276   1.861   1.333 -0.3659  0.2097 -0.0703
  677TIP3   OH223665   2.832   0.626   7.405  0.1177  0.1528  0.7623
  677TIP3    H123666   2.780   0.650   7.482 -0.3146  0.7944  0.2857
  677TIP3    H223667   2.844   0.532   7.413 -1.7180 -0.1379  0.5505
  678TIP3   OH223668   0.433   4.104   8.190  0.1810  0.0495 -0.2590
  678TIP3    H123669   0.477   4.042   8.249  0.7478  0.1375 -0.5760
  678TIP3    H223670   0.410   4.051   8.114 -1.6582 -0.3501  0.5237
  679TIP3   OH223671   5.649   1.059   7.461 -0.4822 -0.5251 -0.0058
  679TIP3    H123672   5.581   1.118   7.495 -1.6099 -0.7967 -1.6833
  679TIP3    H223673   5.640   0.980   7.514  0.1242  0.2682  1.3381
  680TIP3   OH223674   6.748   1.578   0.651 -0.5542 -0.5283  0.1622
  680TIP3    H123675   6.728   1.651   0.710 -0.4650 -1.7597  1.8004
  680TIP3    H223676   6.729   1.612   0.564 -3.9689  0.3407  1.0751
  681TIP3   OH223677   1.825   3.784   7.713  0.0468 -0.0903  0.5869
  681TIP3    H123678   1.862   3.872   7.714  0.6096 -0.3203  1.0710
  681TIP3    H223679   1.786   3.773   7.800  0.2442 -0.4218  0.6366
  682TIP3   OH223680   0.761   3.904   7.910  0.3404  1.0562  0.3571
  682TIP3    H123681   0.762   3.971   7.979  1.7450  3.4962 -1.8048
  682TIP3    H223682   0.839   3.924   7.857 -0.7174 -0.5573 -1.9910
  683TIP3   OH223683   3.420   6.314   0.563  0.1003  0.7185 -0.4545
  683TIP3    H123684   3.404   6.401   0.599  3.3974  1.6843 -1.0108
  683TIP3    H223685   3.440   6.329   0.471  0.5681 -0.6373 -0.5942
  684TIP3   OH223686   4.575   6.789   2.589  0.3314 -0.2182 -0.3898
  684TIP3    H123687   4.526   6.740   2.656 -1.4061  0.8150 -0.8530
  684TIP3    H223688   4.631   6.848   2.640  0.5798 -0.8943  0.1478
  685TIP3   OH223689   3.916   3.645   1.067  0.6543 -0.2481  0.2369
  685TIP3    H123690   3.862   3.684   1.136  0.9083  0.5369  0.0101
  685TIP3    H223691   4.005   3.676   1.087  0.7607 -0.1940 -0.3181
  686TIP3   OH223692   3.126   0.054   0.486 -0.0798  0.4809 -0.0576
  686TIP3    H123693   3.107   0.099   0.569 -0.3769  0.3411 -0.0472
  686TIP3    H223694   3.167   0.121   0.431  0.3513  0.5043  0.2936
  687TIP3   OH223695   2.440   4.011   1.546  0.6050 -0.6181 -0.0712
  687TIP3    H123696   2.462   3.940   1.607 -1.1812 -0.6619  0.5871
  687TIP3    H223697   2.367   4.056   1.587  0.8615  0.8197 -1.1093
  688TIP3   OH223698   6.661   2.577   8.315  0.0523  0.6665 -0.0073
  688TIP3    H123699   6.619   2.508   8.366  0.2419  0.3529 -0.2668
  688TIP3    H223700   6.592   2.643   8.303 -0.4842  0.0026 -0.7217
  689TIP3   OH223701   1.522   0.328   1.956 -0.1040 -0.4696  0.5010
  689TIP3    H123702   1.504   0.373   2.038  0.5227 -0.1002  0.4397
  689TIP3    H223703   1.440   0.283   1.935 -0.2457 -0.6292  1.3624
  690TIP3   OH223704   6.123   5.617   8.570  0.8658  0.2125 -0.5917
  690TIP3    H123705   6.156   5.646   8.655  0.0127 -2.3991  0.7353
  690TIP3    H223706   6.197   5.631   8.510  2.3163  0.0220  1.0620
  691TIP3   OH223707   2.590   4.794   1.390 -0.2658 -0.3939 -0.1736
  691TIP3    H123708   2.546   4.717   1.354 -0.9725 -0.8570  1.5799
  691TIP3    H223709   2.597   4.855   1.316 -1.8021 -1.2167 -1.0387
  692TIP3   OH223710   3.314   1.231   8.411  0.4275 -0.0665 -0.3248
  692TIP3    H123711   3.380   1.162   8.417  0.3449 -0.0058  2.1577
  692TIP3    H223712   3.348   1.302   8.465 -1.7778 -0.1842  1.3602
  693TIP3   OH223713   4.622   1.720   0.905  0.3321 -0.3014  0.1764
  693TIP3    H123714   4.677   1.748   0.978  0.2286 -0.1580  0.2004
  693TIP3    H223715   4.674   1.653   0.860  1.0306  0.6527 -0.4806
  694TIP3   OH223716   0.262   3.602   6.926 -0.2495  0.5085  0.3519
  694TIP3    H123717   0.285   3.574   7.015  0.2686 -0.8173 -0.1817
  694TIP3    H223718   0.209   3.530   6.891  1.0277  0.1986 -1.0196
  695TIP3   OH223719   2.216   4.354   0.221  0.3023 -0.1450  1.1712
  695TIP3    H123720   2.291   4.334   0.278  1.9700  0.8135 -0.5463
  695TIP3    H223721   2.226   4.447   0.200  0.3401 -0.6538 -1.4001
  696TIP3   OH223722   3.453   1.718   7.005  0.2498  0.0324  0.2085
  696TIP3    H123723   3.474   1.681   7.091 -1.9566 -2.1336 -0.0982
  696TIP3    H223724   3.486   1.654   6.942 -0.1166  0.5248 -0.5023
  697TIP3   OH223725   4.501   2.381   1.128  0.0756 -0.5606  0.2386
  697TIP3    H123726   4.423   2.424   1.165  0.9756  0.8178  0.5763
  697TIP3    H223727   4.489   2.387   1.033 -0.0433 -0.0091  0.2876
  698TIP3   OH223728   6.105   2.229   1.898  0.0781  0.2984  0.1309
  698TIP3    H123729   6.124   2.161   1.964 -0.4994 -0.2514 -0.2581
  698TIP3    H223730   6.101   2.310   1.949  2.8540  0.4056  0.3340
  699TIP3   OH223731   5.201   3.432   8.297 -0.2165  0.3844  0.6112
  699TIP3    H123732   5.268   3.368   8.321 -1.5975 -2.1254 -1.7153
  699TIP3    H223733   5.251   3.512   8.277  1.7601 -0.4982  1.6927
  700TIP3   OH223734   2.313   6.431   0.772  0.4632 -0.2379  0.0581
  700TIP3    H123735   2.226   6.400   0.747  0.1310 -0.3470  1.3193
  700TIP3    H223736   2.372   6.361   0.743  0.2611  0.2854 -1.7141
  701TIP3   OH223737   6.608   0.702   0.754  0.2953  0.1020 -0.2237
  701TIP3    H123738   6.524   0.662   0.776 -0.0725  0.5905 -0.7062
  701TIP3    H223739   6.595   0.795   0.770  0.7777  0.1702 -0.2070
  702TIP3   OH223740   4.268   3.053   7.156  0.1751 -0.1907  0.3178
  702TIP3    H123741   4.263   3.101   7.239  0.4475  2.0731 -0.9065
  702TIP3    H223742   4.270   2.961   7.182  1.6103  0.4713  2.8899
  703TIP3   OH223743   1.229   5.114   2.420 -0.0108  0.0403  0.0906
  703TIP3    H123744   1.295   5.049   2.393  0.3201  0.8592 -1.1445
  703TIP3    H223745   1.278   5.181   2.466 -0.1619  0.0650  0.2176
  704TIP3   OH223746   3.002   1.161   6.578 -0.2446 -0.3720 -0.3925
  704TIP3    H123747   3.070   1.134   6.640 -1.1815 -1.4609  0.2213
  704TIP3    H223748   3.039   1.142   6.492  1.4884  2.1088 -0.2950
  705TIP3   OH223749   1.683   5.168   8.383  0.2994 -0.4236 -0.1931
  705TIP3    H123750   1.630   5.241   8.351 -1.1097 -2.2785 -2.3787
  705TIP3    H223751   1.734   5.206   8.455 -3.2358  1.7465  1.4552
  706TIP3   OH223752   3.472   1.973   0.373 -0.6969  0.7135 -0.2720
  706TIP3    H123753   3.412   1.954   0.300 -0.2022  0.3000 -0.5796
  706TIP3    H223754   3.416   1.974   0.450 -1.0110 -0.3425 -0.4643
  707TIP3   OH223755   0.547   3.242   6.558  0.4635  0.0371  0.4819
  707TIP3    H123756   0.503   3.322   6.586  0.1357  0.0936 -0.1694
  707TIP3    H223757   0.622   3.233   6.618  1.2730  1.5501 -0.2363
  708TIP3   OH223758   2.702   1.018   0.846 -0.1269  0.1235 -0.2969
  708TIP3    H123759   2.729   1.108   0.866  0.5871  0.0060 -0.7137
  708TIP3    H223760   2.649   0.992   0.922  0.7453  0.4375  0.4376
  709TIP3   OH223761   5.433   4.654   7.044 -0.8246 -0.4001 -0.2833
  709TIP3    H123762   5.512   4.708   7.040 -0.3871 -0.8600  1.2047
  709TIP3    H223763   5.403   4.646   6.954  0.1007  0.8532 -0.7206
  710TIP3   OH223764   0.481   3.696   8.599 -0.2412 -0.6453 -0.3693
  710TIP3    H123765   0.553   3.644   8.564  0.8546 -0.3275  1.3250
  710TIP3    H223766   0.516   3.736   8.679 -1.7798  0.8503 -0.3864
  711TIP3   OH223767   4.445   2.349   6.998 -0.0707 -0.3895  0.0674
  711TIP3    H123768   4.375   2.284   7.007 -0.3797  0.1052  1.4950
  711TIP3    H223769   4.525   2.297   6.992 -0.4733 -0.9404 -0.8789
  712TIP3   OH223770   2.835   1.431   0.557 -0.2655  0.2564  0.0688
  712TIP3    H123771   2.862   1.342   0.536  1.5018  0.7037  0.3211
  712TIP3    H223772   2.891   1.457   0.630 -0.7472  1.5906 -0.0006
  713TIP3   OH223773   5.853   6.036   1.324 -0.1708  0.1910 -0.3532
  713TIP3    H123774   5.868   5.943   1.308  0.7786  0.4540 -1.0848
  713TIP3    H223775   5.778   6.058   1.270  0.3221  0.0950 -1.0980
  714TIP3   OH223776   6.401   2.482   8.066  0.1802  0.0711 -0.4525
  714TIP3    H123777   6.334   2.472   8.134 -1.0770  0.1676 -1.6359
  714TIP3    H223778   6.388   2.406   8.009  1.1637  0.0353 -0.6382
  715TIP3   OH223779   5.580   0.831   1.651  0.1856 -0.1320  0.2369
  715TIP3    H123780   5.540   0.804   1.569  1.1809  0.0649 -0.3240
  715TIP3    H223781   5.509   0.876   1.698 -0.9924 -2.0803  0.4234
  716TIP3   OH223782   1.698   0.723   0.432 -0.0676 -0.0814  0.0527
  716TIP3    H123783   1.737   0.804   0.464 -1.6038  0.1222  1.5468
  716TIP3    H223784   1.712   0.660   0.503 -0.9009 -0.4619 -0.1024
  717TIP3   OH223785   6.070   3.252   7.639  0.4338 -0.2245  0.6965
  717TIP3    H123786   6.022   3.300   7.706  0.4210  0.1048  0.4553
  717TIP3    H223787   6.008   3.185   7.609  1.0962 -1.6253  2.3501
  718TIP3   OH223788   2.694   4.947   6.554  0.0532 -0.6826 -0.6703
  718TIP3    H123789   2.627   4.888   6.519 -0.0530 -0.1584 -1.3820
  718TIP3    H223790   2.694   5.021   6.493 -0.3823  0.4376  0.6355
  719TIP3   OH223791   6.127   2.330   2.705  0.0813  0.3783 -0.0332
  719TIP3    H123792   6.113   2.235   2.696  1.0971  0.0409  1.5359
  719TIP3    H223793   6.207   2.348   2.656 -0.4514  0.5517 -0.8537
  720TIP3   OH223794   6.190   3.353   7.397  0.3384 -0.2252 -0.3058
  720TIP3    H123795   6.169   3.295   7.470 -0.9687  0.2492 -0.2649
  720TIP3    H223796   6.259   3.308   7.349 -0.3512 -1.6323 -0.0418
  721TIP3   OH223797   4.378   5.925   1.170  0.2241 -0.2882 -0.4344
  721TIP3    H123798   4.293   5.925   1.126  0.3968 -0.7570 -0.7811
  721TIP3    H223799   4.382   5.840   1.214  0.5046 -0.2636 -0.4109
  722TIP3   OH223800   2.064   4.121   1.129 -0.4743  0.1919  0.4046
  722TIP3    H123801   1.973   4.144   1.147 -1.7605 -2.4103 -1.9576
  722TIP3    H223802   2.109   4.132   1.213 -3.1055  0.8588  1.8375
  723TIP3   OH223803   6.488   5.970   6.829  0.0051  0.5405 -0.0508
  723TIP3    H123804   6.482   6.057   6.788 -1.3215  0.3643 -0.2748
  723TIP3    H223805   6.449   5.911   6.765  2.2929 -0.4969 -0.5679
  724TIP3   OH223806   2.226   5.998   0.496  0.3530 -0.0357 -0.0870
  724TIP3    H123807   2.213   6.092   0.505  0.1977 -0.0637 -0.0135
  724TIP3    H223808   2.198   5.978   0.407  2.1140  0.2802 -0.7528
  725TIP3   OH223809   3.628   0.384   1.900  0.0113 -0.4274  0.0787
  725TIP3    H123810   3.713   0.349   1.871 -0.0371 -0.0305 -0.5706
  725TIP3    H223811   3.649   0.468   1.940  0.0064 -0.6862  0.6317
  726TIP3   OH223812   4.217   1.519   2.507 -0.5071 -0.0029 -0.1793
  726TIP3    H123813   4.237   1.609   2.482  1.0622 -0.4247 -0.5817
  726TIP3    H223814   4.301   1.483   2.535 -0.8307 -1.7139 -1.2329
  727TIP3   OH223815   2.765   4.590   1.733  0.4731  0.3223  0.4794
  727TIP3    H123816   2.767   4.579   1.638  0.2521  0.0982  0.5001
  727TIP3    H223817   2.845   4.638   1.753  2.2724 -2.4232  0.5337
  728TIP3   OH223818   1.341   2.597   0.619  0.4705  0.2004 -0.3925
  728TIP3    H123819   1.350   2.511   0.576  0.8837  0.0892 -0.0870
  728TIP3    H223820   1.254   2.595   0.658  0.8344 -0.4464  0.4062
  729TIP3   OH223821   1.179   5.645   2.312  0.3820  0.5618  0.1650
  729TIP3    H123822   1.244   5.698   2.358  0.9542  0.2235 -0.2322
  729TIP3    H223823   1.154   5.698   2.236 -0.3596  1.0034  0.7042
  730TIP3   OH223824   1.613   1.615   0.768  0.0363 -0.2850 -0.7383
  730TIP3    H123825   1.556   1.553   0.721  0.5747 -0.8895 -0.6052
  730TIP3    H223826   1.683   1.561   0.804 -1.5163 -0.2943  2.7608
  731TIP3   OH223827   5.670   1.797   7.297 -0.0056  0.2862  0.1751
  731TIP3    H123828   5.720   1.719   7.322 -0.2487  0.3150  0.7699
  731TIP3    H223829   5.652   1.784   7.204 -1.8153 -1.3884  0.6866
  732TIP3   OH223830   2.346   6.465   0.228  0.0265  0.3308  0.2690
  732TIP3    H123831   2.337   6.386   0.176 -1.7008  1.0583 -0.6310
  732TIP3    H223832   2.424   6.508   0.194  1.1865 -1.1067  1.0024
  733TIP3   OH223833   1.900   2.426   1.011 -0.7662 -0.1961 -0.3206
  733TIP3    H123834   1.890   2.474   1.093 -0.2425 -3.0938  1.5666
  733TIP3    H223835   1.811   2.403   0.985 -0.8368 -0.7663  0.4083
  734TIP3   OH223836   2.436   6.223   0.088  0.1411  0.5590 -0.2809
  734TIP3    H123837   2.400   6.234  -0.000  0.7659 -0.0392 -0.6141
  734TIP3    H223838   2.521   6.268   0.085  0.5951 -0.2776 -0.2739
  735TIP3   OH223839   0.273   1.428   1.799 -0.1961 -1.0339  0.5180
  735TIP3    H123840   0.274   1.480   1.880 -2.8357 -2.4109  1.5335
  735TIP3    H223841   0.236   1.488   1.733  2.7040  0.3607 -0.0000
  736TIP3   OH223842   5.370   0.455   8.009  0.5125  0.4769  0.2194
  736TIP3    H123843   5.295   0.404   7.976  0.1189  0.8965  0.4572
  736TIP3    H223844   5.431   0.389   8.042  1.2304 -0.0334 -1.9251
  737TIP3   OH223845   2.972   4.455   0.138 -0.3820  0.0396 -0.3752
  737TIP3    H123846   3.063   4.449   0.167 -0.8293 -0.6981  0.9942
  737TIP3    H223847   2.964   4.542   0.100  1.9112 -1.2405 -4.3628
  738TIP3   OH223848   6.610   3.164   8.273 -0.0385  0.1480 -0.1298
  738TIP3    H123849   6.575   3.078   8.248  1.1143 -0.6576  0.8797
  738TIP3    H223850   6.697   3.167   8.232  0.0609  0.7005  0.1122
  739TIP3   OH223851   0.711   3.070   7.589 -0.3363 -0.0001 -0.2722
  739TIP3    H123852   0.741   3.161   7.580 -0.8066  0.1438 -0.4217
  739TIP3    H223853   0.648   3.072   7.661  0.4276 -0.4074  0.4226
  740TIP3   OH223854   2.528   2.572   2.216  0.2798  0.7592 -0.4299
  740TIP3    H123855   2.466   2.640   2.243  0.5620  1.2298 -0.9348
  740TIP3    H223856   2.478   2.491   2.220  0.1390  0.8889  0.8756
  741TIP3   OH223857   2.417   3.940   1.281  0.1190 -0.3867 -0.0727
  741TIP3    H123858   2.401   3.982   1.365 -0.9590 -0.5493 -0.1840
  741TIP3    H223859   2.406   4.009   1.216  0.2118 -0.4249 -0.1299
  742TIP3   OH223860   4.882   0.691   7.386 -0.1669 -0.0846  0.1071
  742TIP3    H123861   4.814   0.623   7.388  0.2064 -0.4517  2.1323
  742TIP3    H223862   4.964   0.643   7.390  0.1283  0.4540  0.6031
  743TIP3   OH223863   0.432   1.922   7.089  0.4217 -0.1326  0.1192
  743TIP3    H123864   0.454   1.907   7.181  1.8196 -1.1595 -0.3325
  743TIP3    H223865   0.382   1.844   7.064  0.6665 -0.2070 -0.1516
  744TIP3   OH223866   5.623   1.635   2.487 -0.1777 -0.0003  0.2755
  744TIP3    H123867   5.576   1.566   2.535 -0.2712 -0.9777 -1.1268
  744TIP3    H223868   5.714   1.608   2.489 -0.6106 -2.9085 -4.1450
  745TIP3   OH223869   0.304   5.363   0.985  0.1778  0.0479 -0.3631
  745TIP3    H123870   0.287   5.287   1.041 -0.3349  0.3396 -0.1194
  745TIP3    H223871   0.373   5.412   1.030 -0.6316  0.5829  0.3042
  746TIP3   OH223872   1.703   4.818   0.305  0.1790  0.6403  0.4620
  746TIP3    H123873   1.752   4.886   0.259 -0.7390  2.2824  1.8300
  746TIP3    H223874   1.641   4.865   0.360  0.0104 -1.2818  2.0372
  747TIP3   OH223875   4.344   0.683   0.044 -0.0190 -0.3209 -0.2827
  747TIP3    H123876   4.374   0.735  -0.030  1.2861 -1.7221 -0.7920
  747TIP3    H223877   4.401   0.709   0.116  0.2937 -0.6699 -0.4026
  748TIP3   OH223878   6.027   3.905   6.763  0.6250  0.2871 -0.4140
  748TIP3    H123879   6.050   3.813   6.752  0.1456  0.2932 -1.5372
  748TIP3    H223880   5.942   3.915   6.720 -0.3622  0.8150  1.5044
  749TIP3   OH223881   3.841   4.903   7.204 -0.0281  0.0710  0.9469
  749TIP3    H123882   3.847   4.992   7.170 -0.4713  0.0734  0.8763
  749TIP3    H223883   3.922   4.860   7.174  0.2802  0.5036  1.1507
  750TIP3   OH223884   1.542   6.931   2.198 -0.0025 -0.2624 -0.2141
  750TIP3    H123885   1.465   6.988   2.202  0.3731  0.3517 -1.3634
  750TIP3    H223886   1.516   6.858   2.141 -0.3984 -1.1508  1.0533
  751TIP3   OH223887   3.837   1.004   7.257  0.0845  0.3784  0.8124
  751TIP3    H123888   3.859   0.912   7.243 -1.1002  0.0236  1.1736
  751TIP3    H223889   3.870   1.049   7.179  1.5475 -0.1879  1.0722
  752TIP3   OH223890   0.473   5.991   1.342  0.0916  0.5074  0.2271
  752TIP3    H123891   0.455   5.992   1.248 -0.4562 -2.0753  0.2284
  752TIP3    H223892   0.414   6.057   1.378 -0.9630  0.3102 -1.0683
  753TIP3   OH223893   6.312   5.766   7.663  0.9768 -0.1414 -0.0183
  753TIP3    H123894   6.365   5.755   7.741 -0.4995  0.4523  1.1321
  753TIP3    H223895   6.229   5.723   7.683  0.9988 -1.1204 -1.7783
  754TIP3   OH223896   4.210   4.650   1.516 -0.0583  0.2805 -0.5048
  754TIP3    H123897   4.185   4.690   1.433  0.2376  0.9365 -0.2867
  754TIP3    H223898   4.151   4.690   1.580  0.4993  0.6746 -0.2261
  755TIP3   OH223899   0.300   4.162   7.397  0.3326 -0.0431  0.1403
  755TIP3    H123900   0.317   4.107   7.320  0.7595 -0.9941  0.9018
  755TIP3    H223901   0.263   4.243   7.360  0.9893 -0.2776 -1.1024
  756TIP3   OH223902   0.469   6.053   8.585  0.2287 -0.0351 -0.0122
  756TIP3    H123903   0.482   5.967   8.547  3.0137 -0.2908  1.3167
  756TIP3    H223904   0.479   6.114   8.512 -3.0621 -0.7344 -1.2383
  757TIP3   OH223905   5.536   2.890   8.240  0.4171  0.0631  1.2744
  757TIP3    H123906   5.572   2.821   8.184  0.1711  0.1601  0.9901
  757TIP3    H223907   5.581   2.969   8.210 -0.0190  0.1826  0.9249
  758TIP3   OH223908   1.858   1.870   7.673  0.3663  0.4897  0.5626
  758TIP3    H123909   1.831   1.812   7.602  2.1817  2.4069 -1.8503
  758TIP3    H223910   1.872   1.812   7.747 -2.6152 -1.4906 -0.2330
  759TIP3   OH223911   5.628   0.487   6.431  0.0284  0.2149  0.2580
  759TIP3    H123912   5.649   0.412   6.486  0.4004 -1.2196 -1.7235
  759TIP3    H223913   5.701   0.492   6.369 -0.3805  1.7589 -0.1522
  760TIP3   OH223914   2.322   2.647   7.338  0.3900  0.0701 -0.4745
  760TIP3    H123915   2.328   2.623   7.430  0.4258 -0.4516 -0.6135
  760TIP3    H223916   2.377   2.726   7.331  0.1336  0.2978  0.0082
  761TIP3   OH223917   1.155   4.266   2.365 -0.2304  0.4474 -0.1643
  761TIP3    H123918   1.087   4.271   2.433  1.3968  0.4009  1.5291
  761TIP3    H223919   1.141   4.181   2.324  0.3348 -0.7015  1.8963
  762TIP3   OH223920   2.098   3.275   1.276  0.2881 -0.5338 -0.5573
  762TIP3    H123921   2.063   3.199   1.321 -1.9737 -0.9401 -2.7471
  762TIP3    H223922   2.183   3.246   1.243 -0.8728 -2.5116 -2.0685
  763TIP3   OH223923   0.533   5.964   1.785  0.7498 -0.1724  1.3264
  763TIP3    H123924   0.576   5.910   1.719 -0.8235 -0.1688  0.2348
  763TIP3    H223925   0.480   5.903   1.836 -0.6740  0.2230  0.3836
  764TIP3   OH223926   5.670   3.501   8.481 -0.5426  0.0649 -0.0742
  764TIP3    H123927   5.700   3.511   8.391 -0.9251  0.8762 -0.1228
  764TIP3    H223928   5.743   3.458   8.526 -1.0049 -1.9966 -1.1411
  765TIP3   OH223929   0.120   4.691   8.415 -0.2162 -0.0410 -0.3535
  765TIP3    H123930   0.112   4.659   8.505 -0.5472 -2.1775 -1.0969
  765TIP3    H223931   0.051   4.757   8.407 -1.3514 -1.0883  0.4486
  766TIP3   OH223932   4.490   0.862   8.041 -0.1088 -0.4477  0.1851
  766TIP3    H123933   4.465   0.770   8.038 -0.9487 -0.2671  1.0940
  766TIP3    H223934   4.576   0.863   8.083  0.6582 -0.9298 -1.3074
  767TIP3   OH223935   4.209   1.943   7.555 -0.1006 -0.8529 -0.8992
  767TIP3    H123936   4.211   2.026   7.603 -0.8918 -0.2229 -1.9079
  767TIP3    H223937   4.211   1.968   7.463 -3.3441 -1.7181 -1.3530
  768TIP3   OH223938   3.417   4.710   0.814  0.1781  0.7302 -0.3250
  768TIP3    H123939   3.361   4.667   0.878 -1.4702  0.7637 -1.6489
  768TIP3    H223940   3.496   4.657   0.811 -0.5661 -0.4564  0.2705
  769TIP3   OH223941   5.730   0.309   7.746 -0.0595  0.0192  0.0527
  769TIP3    H123942   5.643   0.351   7.747 -0.4152 -0.7110  0.4255
  769TIP3    H223943   5.716   0.225   7.703  0.3705 -0.2874  0.4964
  770TIP3   OH223944   3.593   0.964   0.480 -0.1673  0.6778 -0.2229
  770TIP3    H123945   3.688   0.976   0.481 -0.0315 -0.1538 -1.2769
  770TIP3    H223946   3.565   1.005   0.398 -0.5330 -0.2812 -0.5860
  771TIP3   OH223947   3.093   2.922   8.413 -0.4020  0.1487  0.1335
  771TIP3    H123948   3.081   2.910   8.507  1.4812 -0.9749  0.2879
  771TIP3    H223949   3.149   2.999   8.406 -0.3981  0.1298 -0.0512
  772TIP3   OH223950   6.093   5.837   7.165  0.5909  0.3819  0.4942
  772TIP3    H123951   6.171   5.808   7.118 -0.6838 -1.0319 -0.8466
  772TIP3    H223952   6.050   5.898   7.105 -0.6416 -0.8439  0.0613
  773TIP3   OH223953   5.293   0.139   0.820 -0.0491 -0.0125 -0.6811
  773TIP3    H123954   5.261   0.226   0.844 -1.1973 -0.6751  0.3156
  773TIP3    H223955   5.367   0.156   0.763 -0.2287  1.6238 -0.4869
  774TIP3   OH223956   0.058   5.520   1.291  0.5454  0.1172 -0.1108
  774TIP3    H123957  -0.014   5.581   1.273  1.6835  1.6355  0.2551
  774TIP3    H223958   0.112   5.524   1.211  1.6667  1.1578  0.6575
  775TIP3   OH223959   6.179   3.179   0.155 -0.4505  0.4684 -0.0650
  775TIP3    H123960   6.134   3.094   0.160 -1.0287  0.8291  1.7794
  775TIP3    H223961   6.117   3.241   0.191 -0.0870  1.7389 -1.5520
  776TIP3   OH223962   3.506   1.355   8.565 -0.0094  0.0969  0.5110
  776TIP3    H123963   3.535   1.289   8.628  1.8556 -1.0934 -1.4593
  776TIP3    H223964   3.579   1.363   8.505 -1.7185  1.1533 -1.5278
  777TIP3   OH223965   1.255   4.755   8.291  0.3059 -0.0873  0.1899
  777TIP3    H123966   1.169   4.787   8.265  0.6059 -1.2463 -2.5510
  777TIP3    H223967   1.316   4.823   8.259  0.6606 -1.3862 -2.0859
  778TIP3   OH223968   6.752   2.042   8.415  0.1962  0.3631  0.0334
  778TIP3    H123969   6.775   2.108   8.350  0.0055  1.2588  0.8570
  778TIP3    H223970   6.768   2.084   8.499  0.4896 -0.7927  0.5848
  779TIP3   OH223971   6.233   4.436   0.449  0.3781  0.0982  0.3559
  779TIP3    H123972   6.271   4.428   0.361 -0.5127 -2.6414  0.1381
  779TIP3    H223973   6.307   4.424   0.508  0.6225 -0.3335 -0.0324
  780TIP3   OH223974   6.277   0.809   7.402 -0.5822 -0.1443 -0.4205
  780TIP3    H123975   6.235   0.895   7.404 -0.2910 -0.0059  0.8285
  780TIP3    H223976   6.209   0.747   7.428 -1.2767 -0.5528 -3.0161
  781TIP3   OH223977   5.566   4.042   8.560 -0.2102 -0.2133  0.6232
  781TIP3    H123978   5.654   4.073   8.581  0.4127 -0.3667 -1.5179
  781TIP3    H223979   5.526   4.114   8.512 -0.3148 -1.0528 -0.6092
  782TIP3   OH223980   1.138   2.243   7.572 -0.0382  0.0863 -0.2081
  782TIP3    H123981   1.043   2.233   7.567 -0.1254  0.7033  0.2069
  782TIP3    H223982   1.165   2.180   7.638 -0.0596 -0.6520 -0.8800
  783TIP3   OH223983   1.464   3.099   8.409 -0.2721  0.2191  0.1160
  783TIP3    H123984   1.384   3.058   8.375 -0.2399  1.4609 -1.6101
  783TIP3    H223985   1.516   3.027   8.443 -1.2373 -0.8533 -0.6211
  784TIP3   OH223986   1.035   6.157   8.455 -0.0802 -0.0611 -0.1286
  784TIP3    H123987   1.007   6.066   8.458 -1.0181  0.2477  2.2157
  784TIP3    H223988   0.956   6.205   8.429  0.6442  0.0765 -2.3229
  785TIP3   OH223989   4.901   0.242   0.121 -0.1670  0.0379 -0.3927
  785TIP3    H123990   4.882   0.235   0.027  0.2596 -0.3906 -0.4485
  785TIP3    H223991   4.968   0.176   0.137  1.1186  1.3426 -0.1542
  786TIP3   OH223992   4.448   2.852   1.701  0.2977 -0.3029 -0.0749
  786TIP3    H123993   4.435   2.783   1.766 -0.9782 -0.1109 -0.1055
  786TIP3    H223994   4.407   2.929   1.739  0.8878  0.2064 -0.4550
  787TIP3   OH223995   4.765   4.033   0.771 -0.1704  0.2698 -0.6117
  787TIP3    H123996   4.797   4.082   0.695  1.8534 -0.7998 -0.5354
  787TIP3    H223997   4.707   3.966   0.734  0.0690  0.3366 -1.1148
  788TIP3   OH223998   4.673   4.848   7.231 -0.8999 -0.0515  0.0625
  788TIP3    H123999   4.663   4.942   7.220  1.0496  0.2050  0.2261
  788TIP3    H224000   4.767   4.833   7.230 -1.1362 -1.8966  0.9010
  789TIP3   OH224001   2.673   2.668   8.294  0.2939  0.3065  0.0970
  789TIP3    H124002   2.751   2.678   8.239  1.1859 -0.5154  1.1722
  789TIP3    H224003   2.696   2.601   8.357 -0.9743  0.6914  1.0212
  790TIP3   OH224004   1.768   1.475   7.645 -0.2316 -0.6452  0.0095
  790TIP3    H124005   1.689   1.425   7.665  0.3055 -1.0175  1.3269
  790TIP3    H224006   1.742   1.566   7.657 -0.3883 -0.7816  0.7819
  791TIP3   OH224007   5.522   5.650   0.636 -0.6381 -0.1152 -0.2953
  791TIP3    H124008   5.463   5.574   0.640 -0.4296 -0.2964 -0.5970
  791TIP3    H224009   5.608   5.612   0.616 -0.6715  0.2663 -1.1982
  792TIP3   OH224010   3.462   2.016   1.899 -0.2673 -0.5778  0.5902
  792TIP3    H124011   3.461   1.928   1.861 -0.1099 -0.1763 -0.3682
  792TIP3    H224012   3.370   2.041   1.905 -0.2585 -0.2078 -0.5924
  793TIP3   OH224013   6.624   4.499   2.779 -0.3345 -0.0702  0.3920
  793TIP3    H124014   6.671   4.579   2.756 -1.1665  0.6276  1.0197
  793TIP3    H224015   6.603   4.458   2.695  0.8040 -0.0584  0.0939
  794TIP3   OH224016   1.939   3.059   7.309 -0.1640  0.0229  0.0248
  794TIP3    H124017   2.015   3.017   7.268  0.5570 -1.0599  2.3045
  794TIP3    H224018   1.951   3.152   7.292  1.9773 -0.0712  0.7529
  795TIP3   OH224019   6.237   6.572   8.034 -0.3632 -0.3913 -0.3645
  795TIP3    H124020   6.293   6.646   8.012 -1.1317  0.2080 -0.3281
  795TIP3    H224021   6.192   6.599   8.115  0.7556 -1.6565  0.7246
  796TIP3   OH224022   4.464   3.275   6.606 -0.1471  0.2598 -0.5893
  796TIP3    H124023   4.559   3.279   6.612  0.0914 -2.9205 -0.5603
  796TIP3    H224024   4.435   3.365   6.622  2.6766  0.7757  2.8173
  797TIP3   OH224025   0.987   3.271   1.225  0.0173  0.0395 -0.2650
  797TIP3    H124026   1.056   3.206   1.211  0.8841  1.1051 -1.1565
  797TIP3    H224027   1.020   3.350   1.182 -1.7168  0.6097 -0.6176
  798TIP3   OH224028   6.115   3.967   7.016  0.3423  0.1865  0.6014
  798TIP3    H124029   6.087   3.954   6.926  1.5637  0.0898  0.2188
  798TIP3    H224030   6.125   3.879   7.051 -1.7565  0.1938  1.4037
  799TIP3   OH224031   0.596   2.236   0.456  0.1778 -0.1006  0.0006
  799TIP3    H124032   0.653   2.298   0.502  0.8394  0.9975 -2.1760
  799TIP3    H224033   0.515   2.285   0.443 -0.3825 -0.7718  0.8553
  800TIP3   OH224034   0.787   0.995   1.660  0.4158 -0.4829 -0.0554
  800TIP3    H124035   0.775   0.937   1.736 -0.0032  1.6728  1.6398
  800TIP3    H224036   0.698   1.022   1.637  0.7016  0.8764  0.3644
  801TIP3   OH224037   2.906   4.256   1.381 -0.1745  0.5974 -0.1687
  801TIP3    H124038   2.952   4.197   1.442  0.3203  0.7521 -0.3891
  801TIP3    H224039   2.815   4.253   1.410  0.0284  0.5582  0.4941
  802TIP3   OH224040   2.546   3.180   2.686 -0.0893  0.5063  0.2521
  802TIP3    H124041   2.599   3.145   2.614 -0.5580  1.0867 -0.3921
  802TIP3    H224042   2.587   3.146   2.765 -0.2962 -1.1701 -0.3263
  803TIP3   OH224043   1.980   5.008   1.296 -0.2085  0.6717  0.3195
  803TIP3    H124044   2.051   5.070   1.283  0.3096 -0.3438 -2.2451
  803TIP3    H224045   1.936   5.003   1.211 -2.1416 -0.2184  1.2901
  804TIP3   OH224046   5.301   2.616   1.573  0.1887  0.2773 -0.1658
  804TIP3    H124047   5.313   2.710   1.588  1.5712 -0.1923  1.9456
  804TIP3    H224048   5.249   2.586   1.647  1.7964 -1.0275  0.4735
  805TIP3   OH224049   3.917   2.066   0.114 -0.7580  0.3601 -0.1838
  805TIP3    H124050   3.938   1.973   0.127 -1.8594  0.1422  0.1070
  805TIP3    H224051   3.831   2.077   0.154 -1.3108  1.1733 -1.5277
  806TIP3   OH224052   6.038   3.925   7.786 -0.4869  0.0255 -0.3981
  806TIP3    H124053   6.107   3.987   7.809 -0.5996 -0.2443  0.6845
  806TIP3    H224054   6.007   3.889   7.869 -1.7908 -0.0222 -0.8674
  807TIP3   OH224055   6.400   4.788   0.283 -0.4642 -0.2035 -0.0259
  807TIP3    H124056   6.425   4.857   0.222 -1.1731  0.2329  0.1586
  807TIP3    H224057   6.448   4.711   0.254 -0.4864  0.1013 -0.8921
  808TIP3   OH224058   3.036   4.618   8.376  0.3972  0.1508 -0.1576
  808TIP3    H124059   3.057   4.679   8.306 -1.2287  1.2624  0.2535
  808TIP3    H224060   3.018   4.674   8.452 -0.3186 -0.8840  0.4619
  809TIP3   OH224061   0.122   0.237   6.811 -0.1336 -0.4666 -0.0937
  809TIP3    H124062   0.122   0.145   6.837  0.4296 -0.4484 -0.0195
  809TIP3    H224063   0.210   0.253   6.779 -0.0749  0.1754  0.3568
  810TIP3   OH224064   6.405   3.666   7.948 -0.2737 -0.2243 -0.5176
  810TIP3    H124065   6.435   3.743   7.900 -1.4995  0.9599  0.5294
  810TIP3    H224066   6.471   3.654   8.017  0.2634 -0.5304 -1.0722
  811TIP3   OH224067   5.902   2.528   7.252 -0.3053  0.1248 -0.3964
  811TIP3    H124068   5.902   2.529   7.156  0.2883 -0.0542 -0.4021
  811TIP3    H224069   5.809   2.528   7.276 -0.4829 -1.1188 -0.9883
  812TIP3   OH224070   6.794   3.689   7.385 -0.6616  0.0143 -0.0462
  812TIP3    H124071   6.851   3.760   7.411 -0.2347 -0.8459  1.4581
  812TIP3    H224072   6.750   3.722   7.306 -1.4886  2.4705  1.3222
  813TIP3   OH224073   1.725   6.839   2.396  0.1737  0.4574  0.0875
  813TIP3    H124074   1.801   6.896   2.381  0.9349 -0.8673 -1.3131
  813TIP3    H224075   1.655   6.879   2.346  0.4535  0.6560 -0.1455
  814TIP3   OH224076   4.360   0.159   0.657 -0.2733 -0.2788 -0.1680
  814TIP3    H124077   4.421   0.203   0.597 -0.1517  1.3625  1.0896
  814TIP3    H224078   4.393   0.070   0.664  1.4965  0.3408 -0.1950
  815TIP3   OH224079   1.267   6.898   0.778  0.7941 -0.5290 -0.3025
  815TIP3    H124080   1.350   6.910   0.732  0.9692 -0.6511 -0.0206
  815TIP3    H224081   1.223   6.983   0.770  0.6407 -0.6775 -1.0481
  816TIP3   OH224082   5.671   5.275   8.518  0.5266  0.3584 -0.5972
  816TIP3    H124083   5.695   5.326   8.595 -0.0775  0.2195 -0.3170
  816TIP3    H224084   5.749   5.222   8.500  0.1655 -0.7330  0.8421
  817TIP3   OH224085   2.033   3.021   7.992 -0.9030  0.4731 -0.4615
  817TIP3    H124086   2.022   2.927   8.001 -1.1811  0.4699 -0.8038
  817TIP3    H224087   2.127   3.034   7.980 -0.3446  0.5095  2.8386
  818TIP3   OH224088   1.357   1.328   1.412 -0.5017  0.2957 -0.0325
  818TIP3    H124089   1.360   1.252   1.355 -0.6087  1.7257 -2.0584
  818TIP3    H224090   1.282   1.378   1.381 -0.0055  1.5740  0.7486
  819TIP3   OH224091   3.543   6.643   0.350  0.0869  0.2447  0.0803
  819TIP3    H124092   3.626   6.684   0.376 -0.3717  0.5897  1.0309
  819TIP3    H224093   3.564   6.549   0.348  0.7824  0.4064 -0.7738
  820TIP3   OH224094   5.722   6.435   6.441 -0.2754 -0.3320  0.2418
  820TIP3    H124095   5.796   6.378   6.422  0.1180  0.2660 -0.0474
  820TIP3    H224096   5.677   6.393   6.514  1.4378  0.2904  1.7244
  821TIP3   OH224097   1.085   6.793   2.291 -0.1231  0.2624  0.7439
  821TIP3    H124098   1.151   6.817   2.356  1.4863  1.0780 -1.0525
  821TIP3    H224099   1.078   6.697   2.298  0.4350  0.2856  1.7355
  822TIP3   OH224100   4.927   6.257   0.391  0.0120  0.2578 -0.5997
  822TIP3    H124101   4.855   6.240   0.451  0.6763 -1.0500 -0.1347
  822TIP3    H224102   4.943   6.351   0.398 -1.4796  0.5308 -0.5453
  823TIP3   OH224103   3.802   6.856   1.977  0.2660  0.2199  0.1012
  823TIP3    H124104   3.883   6.890   1.939  0.7228  2.4656  2.7763
  823TIP3    H224105   3.823   6.766   2.001  1.9172  0.6924  0.5435
  824TIP3   OH224106   1.746   5.666   0.473 -0.4139 -0.4747 -0.1763
  824TIP3    H124107   1.723   5.573   0.482 -0.4678 -0.3851  0.6416
  824TIP3    H224108   1.778   5.691   0.559  1.6933 -0.2902 -0.9573
  825TIP3   OH224109   0.165   6.451   7.736 -0.5157  0.0623 -0.3150
  825TIP3    H124110   0.077   6.414   7.741 -0.1836 -0.6875  0.1580
  825TIP3    H224111   0.214   6.391   7.680  0.1567 -0.5316  0.8509
  826TIP3   OH224112   6.323   0.251   0.425  0.9809  0.8112  0.0605
  826TIP3    H124113   6.242   0.300   0.416 -0.1805 -0.9859  0.4139
  826TIP3    H224114   6.340   0.249   0.519  1.4113  1.1178 -0.0051
  827TIP3   OH224115   0.062   2.757   0.881 -0.3602  0.0800  0.1694
  827TIP3    H124116   0.124   2.705   0.830 -0.9449 -0.3246 -0.1359
  827TIP3    H224117  -0.004   2.785   0.817 -0.0816  1.1660  0.3294
  828TIP3   OH224118   5.222   3.489   7.382 -1.0285 -0.1230 -0.2780
  828TIP3    H124119   5.280   3.416   7.404 -1.1836 -0.3648 -0.6621
  828TIP3    H224120   5.210   3.536   7.464  0.0912  0.2062 -0.2836
  829TIP3   OH224121   3.289   0.963   0.503 -0.0480  0.9601  0.2385
  829TIP3    H124122   3.366   1.013   0.475  0.8312 -0.7590 -0.5632
  829TIP3    H224123   3.258   1.008   0.581  2.1697  1.3543  0.9540
  830TIP3   OH224124   1.781   6.818   6.948  0.2286 -0.4137  0.2610
  830TIP3    H124125   1.709   6.824   7.010  0.1764  2.1525  0.0505
  830TIP3    H224126   1.763   6.886   6.883  1.9401 -0.8842 -0.7828
  831TIP3   OH224127   6.209   6.694   1.969 -0.2910 -0.8685  0.5186
  831TIP3    H124128   6.260   6.649   2.036 -1.7202  0.3089  2.4755
  831TIP3    H224129   6.134   6.730   2.015 -0.0651  2.1852 -1.2214
  832TIP3   OH224130   0.384   2.792   6.999  0.3316 -0.8082  0.1964
  832TIP3    H124131   0.377   2.714   6.944 -1.2311 -1.2528  0.9784
  832TIP3    H224132   0.344   2.862   6.947 -1.4231 -1.2910  0.8295
  833TIP3   OH224133   6.056   5.976   6.801 -0.5472  0.5245  0.4510
  833TIP3    H124134   6.099   5.978   6.716 -0.7969  0.4009  0.3217
  833TIP3    H224135   6.120   6.015   6.861  0.3615 -1.0370  0.5379
  834TIP3   OH224136   3.210   1.167   1.778  0.2578  0.2909 -1.0168
  834TIP3    H124137   3.260   1.184   1.858 -0.1221  0.1012 -0.7346
  834TIP3    H224138   3.255   1.093   1.736  0.6928  0.6464 -1.1871
  835TIP3   OH224139   1.167   4.479   0.399 -0.2040  0.9498 -0.0086
  835TIP3    H124140   1.251   4.462   0.443  0.3046  1.9531 -0.5719
  835TIP3    H224141   1.159   4.409   0.335  1.4161  2.1861 -1.6576
  836TIP3   OH224142   5.426   0.127   7.799 -0.5267  0.0696 -0.1794
  836TIP3    H124143   5.415   0.077   7.719 -1.8232 -0.8174  0.5124
  836TIP3    H224144   5.443   0.217   7.770 -0.7058 -0.2850 -1.4263
  837TIP3   OH224145   2.463   5.396   8.513 -0.0081  0.0230 -0.3633
  837TIP3    H124146   2.516   5.475   8.522  0.5903 -0.3482 -0.5538
  837TIP3    H224147   2.505   5.348   8.441 -0.8915 -0.0495 -0.8346
  838TIP3   OH224148   6.551   6.832   1.201 -0.5228  0.8956  0.6285
  838TIP3    H124149   6.598   6.821   1.284  0.2031  2.4342  0.4536
  838TIP3    H224150   6.620   6.844   1.136 -1.0665 -0.7629 -0.3218
  839TIP3   OH224151   1.037   4.752   0.783  0.1952 -0.2473  0.1909
  839TIP3    H124152   1.094   4.717   0.851 -2.4878 -1.0619  2.1935
  839TIP3    H224153   1.026   4.680   0.721  0.1201 -0.6231  0.6338
  840TIP3   OH224154   6.744   0.415   8.089  0.7886  0.1506 -0.3091
  840TIP3    H124155   6.748   0.508   8.113 -2.0402  0.2522  0.1160
  840TIP3    H224156   6.784   0.369   8.162  0.5935  0.9572  0.3177
  841TIP3   OH224157   5.549   3.731   0.601 -0.3697  0.2866  0.1816
  841TIP3    H124158   5.597   3.814   0.598 -0.8158  0.5173 -1.3600
  841TIP3    H224159   5.607   3.668   0.558 -1.9959  0.9205 -3.2156
  842TIP3   OH224160   2.579   4.383   1.043 -0.2170 -0.6192  0.1399
  842TIP3    H124161   2.552   4.434   1.119  0.4937 -0.2757  0.1734
  842TIP3    H224162   2.653   4.432   1.006  0.0963 -1.3113 -0.1765
  843TIP3   OH224163   1.063   0.437   2.218 -0.2035 -0.3774 -0.0334
  843TIP3    H124164   1.029   0.486   2.292 -2.2454 -1.9728  0.1801
  843TIP3    H224165   1.061   0.345   2.247  0.7493 -0.8745 -1.4163
  844TIP3   OH224166   6.228   1.433   7.312  0.9035 -0.2135  0.6473
  844TIP3    H124167   6.269   1.420   7.226 -0.6775  2.7551 -0.7099
  844TIP3    H224168   6.242   1.525   7.332 -0.5102 -0.3535  2.6373
  845TIP3   OH224169   6.653   4.853   1.592 -0.0053  0.5292  0.4415
  845TIP3    H124170   6.568   4.849   1.636 -1.1930  1.0317 -1.6648
  845TIP3    H224171   6.638   4.908   1.515  1.6287 -1.1513 -1.1954
  846TIP3   OH224172   3.561   1.112   8.109 -0.0475  0.1907  0.9687
  846TIP3    H124173   3.517   1.027   8.102 -2.7099  1.5263  0.5660
  846TIP3    H224174   3.654   1.091   8.098 -0.7117 -2.5370 -0.2222
  847TIP3   OH224175   0.125   5.067   1.694  0.0931 -0.1249  0.3601
  847TIP3    H124176   0.137   5.032   1.783  0.9904  1.4794  0.9133
  847TIP3    H224177   0.207   5.112   1.675 -1.2088  2.2772  0.0298
  848TIP3   OH224178   1.692   2.434   0.140  0.0379  0.0051 -0.3270
  848TIP3    H124179   1.686   2.366   0.073  0.9500 -0.8953  0.4665
  848TIP3    H224180   1.601   2.447   0.169 -0.3513  0.3452 -1.6374
  849TIP3   OH224181   0.424   0.153   0.606 -0.0778 -0.3802 -0.3309
  849TIP3    H124182   0.402   0.064   0.580 -1.0675 -0.9933  2.2940
  849TIP3    H224183   0.501   0.143   0.662 -1.2020  0.1612  1.3789
  850TIP3   OH224184   0.877   6.910   1.381  0.4450  0.3362  0.4613
  850TIP3    H124185   0.941   6.861   1.330  0.4413  0.0908  0.6923
  850TIP3    H224186   0.929   6.973   1.430  0.2645  2.5690 -1.9729
  851TIP3   OH224187   0.399   1.033   1.764 -0.6056 -0.3828 -0.5503
  851TIP3    H124188   0.432   0.944   1.780 -1.6836 -0.6351  0.4113
  851TIP3    H224189   0.448   1.088   1.825 -0.5777 -0.4613 -0.5008
  852TIP3   OH224190   1.755   3.355   7.503 -0.0875  0.3299  0.3649
  852TIP3    H124191   1.824   3.383   7.563 -0.0009 -1.2353  1.0458
  852TIP3    H224192   1.750   3.425   7.438  1.3362  1.0307  0.9600
  853TIP3   OH224193   5.928   2.753   0.678  0.2041 -0.2965  0.4686
  853TIP3    H124194   5.862   2.821   0.662  1.3971  1.1062  1.2470
  853TIP3    H224195   5.960   2.729   0.591 -0.7321 -0.4140  0.1398
  854TIP3   OH224196   4.770   6.618   1.359  0.2126 -0.8856  0.2240
  854TIP3    H124197   4.755   6.694   1.303  2.5317 -0.8495 -0.4477
  854TIP3    H224198   4.716   6.549   1.320 -1.0816  0.1086  0.1984
  855TIP3   OH224199   3.506   4.853   1.870 -0.1192 -0.5034  0.7783
  855TIP3    H124200   3.464   4.896   1.796  0.0133 -1.5503  0.0807
  855TIP3    H224201   3.586   4.903   1.885  1.1843 -1.8000 -1.4659
  856TIP3   OH224202   5.861   0.459   2.554  0.5390  0.8275  0.1838
  856TIP3    H124203   5.950   0.426   2.565  0.0995  0.2780  2.6249
  856TIP3    H224204   5.805   0.385   2.577 -0.5368  1.6931  0.4314
  857TIP3   OH224205   2.525   6.674   0.144  0.0609 -0.2091  0.5198
  857TIP3    H124206   2.587   6.735   0.183  3.4110 -2.1652 -1.3140
  857TIP3    H224207   2.525   6.695   0.051 -0.0665 -1.8168  0.1242
  858TIP3   OH224208   6.779   2.771   1.670 -0.2040  0.1745 -0.3126
  858TIP3    H124209   6.822   2.854   1.692 -0.6561  0.3515 -0.0722
  858TIP3    H224210   6.687   2.785   1.694 -0.0997 -0.7483  0.7284
  859TIP3   OH224211   2.609   1.627   0.127  0.1067  0.5032 -0.3693
  859TIP3    H124212   2.551   1.551   0.125  1.3633 -0.5029  0.2531
  859TIP3    H224213   2.550   1.702   0.133 -1.1290 -0.4898  0.3074
  860TIP3   OH224214   3.913   5.740   1.121 -0.7482 -0.3157 -0.8161
  860TIP3    H124215   3.843   5.711   1.062 -0.2362 -0.2048 -1.4941
  860TIP3    H224216   3.872   5.742   1.208 -1.2994 -1.2427 -1.0415
  861TIP3   OH224217   6.169   1.807   8.511  0.2148 -0.2839  0.2333
  861TIP3    H124218   6.176   1.714   8.489 -1.0649 -0.7038  1.5037
  861TIP3    H224219   6.132   1.809   8.599  0.8040  1.4332  0.4848
  862TIP3   OH224220   1.843   2.806   0.168  0.1114  0.1987 -0.5589
  862TIP3    H124221   1.836   2.820   0.262 -2.3656  1.0427 -0.8031
  862TIP3    H224222   1.808   2.886   0.129 -0.9455 -0.9897 -2.1697
  863TIP3   OH224223   6.171   3.583   7.798  0.3607 -0.0748 -0.0290
  863TIP3    H124224   6.150   3.661   7.747 -0.4369  1.0951  1.9574
  863TIP3    H224225   6.258   3.600   7.835  0.1008 -0.0070  0.5726
  864TIP3   OH224226   6.435   0.600   8.608  0.0438  0.2147 -0.1064
  864TIP3    H124227   6.362   0.545   8.638  0.8768 -0.0490  1.5608
  864TIP3    H224228   6.401   0.644   8.531 -0.4994 -3.0192 -1.9020
  865TIP3   OH224229   6.789   1.890   7.283 -0.2780 -0.1884  0.7147
  865TIP3    H124230   6.776   1.804   7.242 -1.8889  0.4705 -0.2587
  865TIP3    H224231   6.708   1.905   7.331 -0.3394  1.1094  0.2423
  866TIP3   OH224232   6.447   3.050   6.450 -0.4773  0.1873 -0.5649
  866TIP3    H124233   6.393   3.021   6.377  0.5339  1.0874 -1.7083
  866TIP3    H224234   6.525   3.087   6.410  0.3194  0.2998  0.9941
  867TIP3   OH224235   4.272   3.475   7.433 -0.2453  0.2700  0.0173
  867TIP3    H124236   4.365   3.495   7.418 -0.0586 -1.4706 -1.4254
  867TIP3    H224237   4.238   3.554   7.476  1.8096  1.0847  0.2803
  868TIP3   OH224238   1.239   3.713   7.063 -0.0658 -0.8573  0.0378
  868TIP3    H124239   1.313   3.654   7.079 -0.8401 -2.6768 -2.4149
  868TIP3    H224240   1.262   3.759   6.982 -0.1412  1.2131  1.1304
  869TIP3   OH224241   3.359   5.120   6.041  0.5141 -0.2224  0.2031
  869TIP3    H124242   3.402   5.160   6.117 -0.2153  1.0595 -0.0453
  869TIP3    H224243   3.371   5.182   5.970 -0.2488 -0.6456 -0.3139
  870TIP3   OH224244   1.527   5.974   2.013  0.1312  0.7013 -0.7288
  870TIP3    H124245   1.538   6.046   1.951  1.8582  1.9760  0.9446
  870TIP3    H224246   1.456   6.002   2.071 -1.3866 -0.4269 -1.9428
  871TIP3   OH224247   0.499   2.199   1.462  0.4056 -0.4692 -0.0303
  871TIP3    H124248   0.587   2.165   1.445  0.7992 -0.5441  1.9717
  871TIP3    H224249   0.501   2.289   1.429  1.9539  0.2563  1.8446
  872TIP3   OH224250   2.198   4.220   8.414  0.2404  0.0817  0.1127
  872TIP3    H124251   2.148   4.205   8.494 -0.0561  2.3520  0.4302
  872TIP3    H224252   2.286   4.186   8.434 -0.5773 -2.1130  0.2607
  873TIP3   OH224253   5.445   0.987   0.854 -0.0718 -0.2419  0.2502
  873TIP3    H124254   5.396   1.044   0.795 -0.7564 -1.5808 -0.5239
  873TIP3    H224255   5.422   1.017   0.942  0.8961  1.7289 -0.1224
  874TIP3   OH224256   2.953   6.542   6.471  0.1160 -0.2018  0.0102
  874TIP3    H124257   3.014   6.477   6.435 -1.1752 -1.2667 -0.3259
  874TIP3    H224258   2.929   6.507   6.556 -1.3190 -0.6967 -0.5676
  875TIP3   OH224259   6.694   5.302   8.259  0.3614  0.6694  0.0249
  875TIP3    H124260   6.627   5.337   8.318 -0.6094  1.3673 -1.4300
  875TIP3    H224261   6.705   5.370   8.192  1.7887  0.1209 -0.3270
  876TIP3   OH224262   5.851   0.768   1.617 -0.6064  0.2017  1.0328
  876TIP3    H124263   5.761   0.801   1.615 -0.4282  0.7057 -1.3104
  876TIP3    H224264   5.842   0.673   1.614 -1.0666  0.2705 -0.0143
  877TIP3   OH224265   4.029   3.613   1.618 -0.3378 -0.4933  0.2860
  877TIP3    H124266   4.121   3.598   1.641 -0.2678  1.2702  1.2944
  877TIP3    H224267   4.030   3.629   1.523  0.1551 -2.0328  0.0051
  878TIP3   OH224268   5.389   4.590   7.353  0.7053  0.2429 -0.2003
  878TIP3    H124269   5.483   4.575   7.343  0.0675 -3.1642 -3.0995
  878TIP3    H224270   5.361   4.625   7.268 -0.8491 -0.3728  0.0298
  879TIP3   OH224271   5.660   2.331   7.605  0.4023 -0.2796 -0.1719
  879TIP3    H124272   5.722   2.317   7.534  0.9174 -1.9276  0.5579
  879TIP3    H224273   5.714   2.354   7.681 -0.0291  0.0720  0.0344
  880TIP3   OH224274   1.884   5.251   7.649  0.3749 -0.4219  0.0784
  880TIP3    H124275   1.867   5.165   7.688  0.6810  0.1042  1.4194
  880TIP3    H224276   1.840   5.247   7.564  0.8335 -2.0868 -0.1237
  881TIP3   OH224277   3.346   4.914   1.018 -0.3093 -0.5776 -0.3245
  881TIP3    H124278   3.300   4.997   1.000 -1.0566 -1.1259 -1.0282
  881TIP3    H224279   3.405   4.903   0.944  0.1782 -0.4287  0.0324
  882TIP3   OH224280   6.453   0.547   6.612  0.7603  0.5789  0.0428
  882TIP3    H124281   6.363   0.575   6.626  0.2138 -0.4449 -1.2617
  882TIP3    H224282   6.505   0.627   6.624 -0.3473  1.2664  0.4123
  883TIP3   OH224283   5.811   2.017   8.210 -0.3183 -1.0103  0.2324
  883TIP3    H124284   5.831   1.977   8.295  0.0513 -2.1862 -0.3761
  883TIP3    H224285   5.812   1.943   8.149 -0.9057 -0.2308 -0.7429
  884TIP3   OH224286   1.318   3.579   7.930 -0.9394  0.1872 -0.0386
  884TIP3    H124287   1.410   3.605   7.938 -0.4318 -1.9118  2.8002
  884TIP3    H224288   1.275   3.655   7.892  1.7249  1.8176 -0.0797
  885TIP3   OH224289   6.278   6.600   1.330  0.1371  0.3000 -0.0210
  885TIP3    H124290   6.289   6.660   1.256  1.7308  1.0540  0.7962
  885TIP3    H224291   6.367   6.574   1.354 -0.3308  0.2097  1.7504
  886TIP3   OH224292   1.062   5.331   6.549 -0.4518  0.4472  0.0593
  886TIP3    H124293   1.018   5.394   6.493 -0.3526  0.3548 -0.1218
  886TIP3    H224294   1.150   5.367   6.561 -0.9392  1.2850  1.4424
  887TIP3   OH224295   1.917   1.119   1.992 -0.1162  0.1519 -0.7366
  887TIP3    H124296   1.843   1.059   1.997  0.5053 -0.5772 -0.0386
  887TIP3    H224297   1.882   1.196   1.947 -1.3331 -0.1212 -0.3117
  888TIP3   OH224298   0.928   5.523   1.707 -0.0035 -0.5456 -0.6521
  888TIP3    H124299   0.891   5.531   1.795 -2.1046 -1.3124 -1.3969
  888TIP3    H224300   0.947   5.614   1.681 -0.9304 -0.1550 -0.0257
  889TIP3   OH224301   3.298   4.415   7.085  0.2238 -0.5379 -0.0582
  889TIP3    H124302   3.204   4.410   7.066  0.0413 -0.7456  0.8470
  889TIP3    H224303   3.320   4.328   7.118  0.8678 -0.6647 -0.7811
  890TIP3   OH224304   3.749   6.420   0.575  0.1907 -0.4198  0.0313
  890TIP3    H124305   3.733   6.336   0.617 -0.6897 -0.6658 -0.7735
  890TIP3    H224306   3.845   6.430   0.577  0.4018 -1.9871 -0.9261
  891TIP3   OH224307   1.405   5.043   8.235 -0.3927  0.2894 -0.0441
  891TIP3    H124308   1.468   4.977   8.207 -1.3126 -0.4470 -0.4575
  891TIP3    H224309   1.416   5.115   8.174  0.5225  0.4604  0.3147
  892TIP3   OH224310   2.056   1.760   8.433  0.4678  0.0065  0.5687
  892TIP3    H124311   2.131   1.819   8.433  0.9146 -0.5539  0.1279
  892TIP3    H224312   2.075   1.697   8.503  0.3584 -0.0786  0.5215
  893TIP3   OH224313   0.147   2.341   2.650  0.2030 -0.3564  0.5121
  893TIP3    H124314   0.212   2.311   2.714  0.1093 -1.8242 -0.0409
  893TIP3    H224315   0.147   2.273   2.583 -0.0137  0.9433 -0.8494
  894TIP3   OH224316   0.866   2.233   7.631 -0.5149 -0.3833 -0.2154
  894TIP3    H124317   0.871   2.263   7.722 -1.7006 -0.2419 -0.1765
  894TIP3    H224318   0.808   2.157   7.635 -1.2247  0.1016 -0.9541
  895TIP3   OH224319   0.915   0.061   0.353 -0.3588  0.6509 -0.6670
  895TIP3    H124320   0.892   0.039   0.263 -0.0944  1.8195 -1.0412
  895TIP3    H224321   1.003   0.025   0.365 -0.7226 -0.2412 -0.5831
  896TIP3   OH224322   0.478   1.924   1.562  0.4121 -0.4242 -0.3805
  896TIP3    H124323   0.504   1.904   1.472  0.8885 -1.1759 -0.0814
  896TIP3    H224324   0.463   2.019   1.562  0.4194 -0.4143 -1.2439
  897TIP3   OH224325   1.368   2.383   0.462  0.1576  0.6729  0.0435
  897TIP3    H124326   1.323   2.400   0.379 -1.3436  0.9833  0.8853
  897TIP3    H224327   1.453   2.347   0.436 -1.2045 -1.5753 -1.6037
  898TIP3   OH224328   0.055   1.734   7.563  0.3825 -0.5617  0.0976
  898TIP3    H124329   0.039   1.794   7.636 -0.4272 -0.7171  0.0646
  898TIP3    H224330   0.088   1.789   7.492  1.5580 -0.4681  0.6960
  899TIP3   OH224331   2.669   0.021   1.091 -0.4042  0.3265 -0.3157
  899TIP3    H124332   2.648   0.031   1.184  0.6302 -1.1922  0.1160
  899TIP3    H224333   2.623  -0.059   1.065 -0.2124  0.4219 -0.9624
  900TIP3   OH224334   6.599   6.685   0.384 -0.0874 -0.5292  0.7147
  900TIP3    H124335   6.629   6.668   0.294  2.5131  1.0631  1.1761
  900TIP3    H224336   6.623   6.607   0.433 -0.2733 -0.8516  0.2984
  901TIP3   OH224337   4.188   1.630   2.207  0.0600 -0.5741  0.0565
  901TIP3    H124338   4.147   1.604   2.290  1.1009 -2.0281  0.1564
  901TIP3    H224339   4.262   1.570   2.197  0.0660 -0.3159 -1.8463
  902TIP3   OH224340   0.988   4.800   7.878  0.3211  0.2422  0.0923
  902TIP3    H124341   1.046   4.862   7.922 -1.1549  1.8345 -0.0803
  902TIP3    H224342   1.043   4.760   7.810  1.3815  1.2033  0.3527
  903TIP3   OH224343   6.822   3.805   8.059  0.2677  0.5127 -0.4072
  903TIP3    H124344   6.899   3.859   8.076  0.4319 -0.0027  0.5547
  903TIP3    H224345   6.840   3.723   8.104 -0.1007 -0.2542 -1.5985
  904TIP3   OH224346   2.576   3.544   7.563 -0.4513  0.2228  0.1988
  904TIP3    H124347   2.610   3.551   7.652 -1.2705 -0.1067  0.5523
  904TIP3    H224348   2.487   3.580   7.568  0.1278  1.9206 -0.8906
  905TIP3   OH224349   6.237   6.382   7.031  0.6165 -0.2572  0.1877
  905TIP3    H124350   6.225   6.297   7.072 -0.6151 -0.5858 -0.7555
  905TIP3    H224351   6.303   6.367   6.964  0.8124 -0.3351  0.3987
  906TIP3   OH224352   6.335   5.336   6.568  0.2502 -0.2920  0.4005
  906TIP3    H124353   6.279   5.318   6.493  0.6492  1.6175 -0.4278
  906TIP3    H224354   6.386   5.256   6.580 -0.2168 -0.8263 -1.0264
  907TIP3   OH224355   2.219   5.190   0.860  0.2180  0.6090  0.1222
  907TIP3    H124356   2.227   5.150   0.773  0.2209  0.0652  0.3748
  907TIP3    H224357   2.132   5.165   0.891 -0.4799  2.2111 -0.4229
  908TIP3   OH224358   1.088   6.008   1.970 -0.3710  0.2275 -0.1681
  908TIP3    H124359   1.104   6.080   2.031  1.8925 -0.5508  0.2451
  908TIP3    H224360   1.096   5.929   2.023 -1.3700 -0.3882 -0.9014
  909TIP3   OH224361   5.782   1.430   2.014 -0.0059  0.1712 -0.1310
  909TIP3    H124362   5.700   1.388   1.988 -0.2239  0.4931  0.0252
  909TIP3    H224363   5.755   1.514   2.053  0.4509  0.7079 -0.9362
  910TIP3   OH224364   0.384   5.827   7.501  0.4628  0.4314  0.2171
  910TIP3    H124365   0.378   5.739   7.465 -0.1227 -0.3962  2.1815
  910TIP3    H224366   0.473   5.855   7.481  1.3654 -1.4486  1.2691
  911TIP3   OH224367   5.534   2.682   1.894 -0.0690 -0.2153 -0.5079
  911TIP3    H124368   5.470   2.748   1.920  0.6754  1.1223 -1.9285
  911TIP3    H224369   5.590   2.671   1.971  0.5731  1.8012 -0.6394
  912TIP3   OH224370   6.760   3.668   6.493 -0.1029 -0.0547 -0.3221
  912TIP3    H124371   6.750   3.724   6.570  0.5529 -0.5757  0.1475
  912TIP3    H224372   6.681   3.685   6.441 -0.2170  0.8201  0.1183
  913TIP3   OH224373   5.457   1.500   6.946  1.0253  0.0020  0.0319
  913TIP3    H124374   5.459   1.505   7.041 -2.1336  1.7561  0.1671
  913TIP3    H224375   5.538   1.542   6.917  2.2866 -1.0285  1.9047
  914TIP3   OH224376   3.777   1.887   1.604 -0.3336 -0.2230 -0.2206
  914TIP3    H124377   3.711   1.885   1.535 -0.1773  0.4726 -0.3989
  914TIP3    H224378   3.855   1.848   1.563  0.4485  2.2146 -1.2077
  915TIP3   OH224379   0.469   3.749   6.735 -0.6464 -0.2832 -0.5913
  915TIP3    H124380   0.386   3.708   6.759 -0.8297  0.0605 -0.6367
  915TIP3    H224381   0.494   3.706   6.653 -0.8842 -0.2372 -0.6872
  916TIP3   OH224382   6.460   3.224   1.399 -0.4371  0.4088 -0.1325
  916TIP3    H124383   6.396   3.156   1.380 -0.8803  1.0450 -0.9650
  916TIP3    H224384   6.530   3.211   1.335  0.2998 -0.2925  0.7809
  917TIP3   OH224385   6.788   5.806   8.613 -0.3570 -0.4284  0.6870
  917TIP3    H124386   6.862   5.850   8.655  0.9302 -1.7724 -0.0877
  917TIP3    H224387   6.735   5.878   8.578  2.1478  0.6160 -1.3698
  918TIP3   OH224388   5.096   6.898   7.510 -0.2755 -0.6238  0.7946
  918TIP3    H124389   5.057   6.927   7.427 -0.5622 -1.1254  0.7493
  918TIP3    H224390   5.185   6.933   7.508 -0.5065 -0.0278  0.5994
  919TIP3   OH224391   2.943   5.990   2.148  0.0771 -0.6755  0.1488
  919TIP3    H124392   2.957   5.910   2.097 -0.0859 -1.1661  0.8462
  919TIP3    H224393   2.847   5.998   2.153  0.0585 -1.4021  1.5063
  920TIP3   OH224394   4.538   0.746   0.274 -0.1806  0.0011 -0.2260
  920TIP3    H124395   4.549   0.834   0.310  1.2046  0.0803 -0.7981
  920TIP3    H224396   4.532   0.689   0.350  0.8322  0.3808  0.1461
  921TIP3   OH224397   1.873   3.415   0.462 -0.0287  0.1415 -0.1397
  921TIP3    H124398   1.820   3.342   0.429 -0.3080  0.4619 -0.4060
  921TIP3    H224399   1.876   3.477   0.389  1.1095 -0.0769 -0.2949
  922TIP3   OH224400   1.093   2.083   8.358 -0.2562  0.3263 -0.3385
  922TIP3    H124401   1.115   2.151   8.294  1.2377 -0.1770 -0.4114
  922TIP3    H224402   1.039   2.021   8.309 -0.9427  1.0385 -0.4946
  923TIP3   OH224403   4.525   3.482   0.916  0.0207 -0.2795  0.3686
  923TIP3    H124404   4.586   3.462   0.845 -0.1868  0.4574 -0.0303
  923TIP3    H224405   4.464   3.408   0.917 -1.0181  0.4932 -1.3950
  924TIP3   OH224406   0.548   0.536   2.500 -0.1765  0.1429 -0.2251
  924TIP3    H124407   0.624   0.561   2.552 -0.6906 -1.3421  1.3433
  924TIP3    H224408   0.556   0.442   2.488 -2.3396 -0.3068  1.1054
  925TIP3   OH224409   5.268   1.687   0.717 -0.6694 -0.5867  0.1750
  925TIP3    H124410   5.250   1.688   0.811 -0.5480  0.5863  0.1957
  925TIP3    H224411   5.196   1.737   0.678  0.9182  1.7020 -0.0159
  926TIP3   OH224412   4.373   1.997   1.943  0.1991  0.4087  0.3994
  926TIP3    H124413   4.423   2.039   2.012  0.7851  0.1135  0.1660
  926TIP3    H224414   4.301   1.953   1.988 -0.2736  1.4395  0.6640
  927TIP3   OH224415   2.193   5.791   2.299 -0.3665  0.0016 -0.5742
  927TIP3    H124416   2.238   5.710   2.274 -0.9771 -0.9588  1.2042
  927TIP3    H224417   2.209   5.799   2.393  0.4197  2.4663 -0.8527
  928TIP3   OH224418   1.814   5.800   1.006 -0.0974 -0.3998 -0.3952
  928TIP3    H124419   1.767   5.859   1.065  0.6148 -0.3764  0.1502
  928TIP3    H224420   1.901   5.838   0.999  0.1120 -0.9338 -0.7067
  929TIP3   OH224421   2.835   3.657   0.744  0.1712  0.3264 -0.3752
  929TIP3    H124422   2.852   3.569   0.775 -0.3688  0.9065  1.7881
  929TIP3    H224423   2.744   3.675   0.771  0.2827  1.5510 -0.7232
  930TIP3   OH224424   2.020   4.813   0.093 -0.3606  0.2024 -0.3083
  930TIP3    H124425   1.999   4.790   0.184 -1.5423  0.4872 -0.4949
  930TIP3    H224426   1.936   4.839   0.055 -0.1911 -1.3852 -1.9285
  931TIP3   OH224427   6.862   0.259   0.168 -0.3918  0.0170  0.9048
  931TIP3    H124428   6.946   0.284   0.204 -0.7273  0.6451  1.2614
  931TIP3    H224429   6.847   0.320   0.095  1.0610 -2.2715 -1.4900
  932TIP3   OH224430   3.982   0.753   7.235 -0.0363 -0.3440 -0.6077
  932TIP3    H124431   3.966   0.703   7.155 -1.3096  0.1924 -0.7096
  932TIP3    H224432   3.953   0.695   7.306 -0.6505 -0.1006 -0.6614
  933TIP3   OH224433   3.823   1.817   7.965  1.0632 -0.0333 -0.5590
  933TIP3    H124434   3.786   1.871   8.035  2.8067  1.3348 -0.6275
  933TIP3    H224435   3.788   1.729   7.981  1.2394  0.2760  1.9178
  934TIP3   OH224436   1.126   6.094   6.198 -0.3041 -0.3830 -1.0685
  934TIP3    H124437   1.114   6.189   6.194  1.5663  0.0625  1.3236
  934TIP3    H224438   1.057   6.063   6.257  0.5689 -0.0932  0.1490
  935TIP3   OH224439   5.104   5.241   7.755  0.0516 -0.4461  0.0863
  935TIP3    H124440   5.166   5.260   7.826  1.3246  1.7795 -1.5015
  935TIP3    H224441   5.061   5.325   7.738 -1.6327 -1.3934 -0.5320
  936TIP3   OH224442   6.442   5.082   1.434 -0.6399  0.0071  0.1091
  936TIP3    H124443   6.366   5.098   1.377  0.1981 -0.8360 -1.2959
  936TIP3    H224444   6.516   5.120   1.387  0.3346 -2.1138 -0.2093
  937TIP3   OH224445   3.835   2.761   0.228  0.0111  0.3249  0.2164
  937TIP3    H124446   3.777   2.792   0.297  1.3734  0.1349  1.4904
  937TIP3    H224447   3.889   2.836   0.206 -0.4247  0.3913 -0.6839
  938TIP3   OH224448   0.215   4.230   1.716 -0.1750 -0.0018  0.2149
  938TIP3    H124449   0.266   4.221   1.635 -1.0375  0.0831 -0.3581
  938TIP3    H224450   0.174   4.316   1.709  0.4822  0.3977  1.1939
  939TIP3   OH224451   4.363   5.611   1.255 -0.0111 -0.2346 -0.2588
  939TIP3    H124452   4.339   5.520   1.271 -1.6480 -0.2341 -2.3312
  939TIP3    H224453   4.454   5.608   1.226 -0.7035 -1.4961 -2.4543
  940TIP3   OH224454   3.584   4.385   2.054  0.2382  0.0298 -0.2126
  940TIP3    H124455   3.521   4.415   1.988  1.1480 -0.7957 -1.4920
  940TIP3    H224456   3.634   4.464   2.075 -1.7529  0.9393  1.5353
  941TIP3   OH224457   4.608   5.992   1.294  0.3176  0.4400 -0.2643
  941TIP3    H124458   4.604   6.087   1.301  1.4799  0.5411 -0.7981
  941TIP3    H224459   4.517   5.965   1.277  0.0034  1.4477 -0.2405
  942TIP3   OH224460   2.068   3.549   1.402 -0.3579 -0.8475  0.2849
  942TIP3    H124461   2.066   3.467   1.352 -2.2394 -0.2224 -0.7828
  942TIP3    H224462   2.145   3.595   1.369 -0.4930 -1.2775 -0.6834
  943TIP3   OH224463   6.822   0.572   0.173 -0.2771  0.6513  0.8814
  943TIP3    H124464   6.825   0.573   0.077  0.0503 -0.2610  0.8722
  943TIP3    H224465   6.753   0.635   0.196 -0.7968  0.4077  0.0303
  944TIP3   OH224466   3.231   1.536   7.715 -0.0691  0.3132 -0.2905
  944TIP3    H124467   3.312   1.554   7.764 -2.0038 -0.2385  3.4944
  944TIP3    H224468   3.241   1.445   7.685  1.4571  0.8884 -1.6464
  945TIP3   OH224469   6.538   6.028   8.059 -0.2013 -0.0647 -0.3264
  945TIP3    H124470   6.493   5.951   8.093 -1.6189  0.9014  0.1208
  945TIP3    H224471   6.542   6.014   7.965  1.2744 -1.5109 -0.0979
  946TIP3   OH224472   4.540   2.386   8.012 -0.1863 -0.1250 -0.2506
  946TIP3    H124473   4.550   2.481   8.009 -1.5637  0.0335 -0.2600
  946TIP3    H224474   4.620   2.352   7.970  0.2077  1.0191 -0.4604
  947TIP3   OH224475   6.274   0.341   8.044  0.4524  0.8324 -0.3808
  947TIP3    H124476   6.356   0.371   8.006  1.3414 -3.1281 -2.1632
  947TIP3    H224477   6.218   0.321   7.968 -0.3671 -0.8051  0.5860
  948TIP3   OH224478   4.327   3.795   7.891  0.6940 -0.2258  0.0404
  948TIP3    H124479   4.353   3.758   7.975  1.2850  1.2636  0.5408
  948TIP3    H224480   4.273   3.726   7.851  0.7682 -1.1417  1.4222
  949TIP3   OH224481   4.983   2.047   7.351  0.6049  0.8485 -0.4805
  949TIP3    H124482   4.998   2.140   7.333  1.1039  0.3633 -3.0584
  949TIP3    H224483   4.907   2.025   7.297  0.6407 -0.2782 -0.0806
  950TIP3   OH224484   2.115   0.350   2.207 -0.4582 -0.2080  0.1926
  950TIP3    H124485   2.094   0.262   2.238 -0.3668 -0.8214 -1.4111
  950TIP3    H224486   2.034   0.400   2.222 -0.7560 -0.7459  0.4229
  951TIP3   OH224487   1.098   6.708   8.188 -0.2760 -0.2021  0.2839
  951TIP3    H124488   1.012   6.723   8.151 -0.7488 -1.5519  0.7521
  951TIP3    H224489   1.121   6.619   8.161  1.7202  0.6857 -1.2236
  952TIP3   OH224490   4.074   1.742   7.978  0.0262  0.0918  0.0520
  952TIP3    H124491   4.100   1.737   7.886  0.6174  1.0437  0.1497
  952TIP3    H224492   3.987   1.784   7.977  0.3551  0.7853 -0.0402
  953TIP3   OH224493   5.730   5.804   7.257  0.1334  0.3341 -0.0198
  953TIP3    H124494   5.763   5.746   7.327 -0.0878 -0.1769 -0.3366
  953TIP3    H224495   5.769   5.889   7.277  1.5176 -0.2077 -0.2736
  954TIP3   OH224496   4.177   1.812   8.221 -0.1705 -0.3649 -0.5406
  954TIP3    H124497   4.199   1.726   8.257  0.6859  0.0935  0.0604
  954TIP3    H224498   4.151   1.793   8.130  2.0438 -1.0571 -1.0935
  955TIP3   OH224499   6.609   6.014   8.577 -0.8245  0.0878 -0.2308
  955TIP3    H124500   6.521   6.027   8.614 -1.2197 -0.6994 -0.8491
  955TIP3    H224501   6.604   6.056   8.491 -0.1850  1.1423  0.2205
  956TIP3   OH224502   6.743   3.253   8.592  0.3287 -0.4349 -0.0220
  956TIP3    H124503   6.656   3.240   8.555 -0.1721 -1.6233  1.4736
  956TIP3    H224504   6.729   3.312   8.666  0.4939 -1.8000  1.1575
  957TIP3   OH224505   6.467   0.793   1.268 -0.0936 -0.1217  0.4685
  957TIP3    H124506   6.515   0.810   1.187 -0.4897  1.9934  0.6008
  957TIP3    H224507   6.479   0.700   1.284  1.3278 -0.2822 -1.1638
  958TIP3   OH224508   0.852   0.329   7.593 -0.4038  0.1734 -0.2472
  958TIP3    H124509   0.881   0.312   7.504  0.4235  0.1781  0.0203
  958TIP3    H224510   0.784   0.263   7.610 -0.5732  0.1850 -0.8762
  959TIP3   OH224511   2.954   6.154   7.285 -0.3650  0.7182 -1.1613
  959TIP3    H124512   2.967   6.200   7.202 -0.8265  2.5536 -0.2579
  959TIP3    H224513   3.041   6.144   7.322 -0.3105  1.5318 -1.0464
  960TIP3   OH224514   3.070   4.065   1.560  0.1697 -0.0956  0.0868
  960TIP3    H124515   3.115   4.034   1.639 -0.0223 -0.5494  0.0217
  960TIP3    H224516   3.008   3.995   1.539 -1.4422  1.0316  0.8584
  961TIP3   OH224517   5.609   4.787   0.439  0.1061  0.3148 -0.5912
  961TIP3    H124518   5.528   4.787   0.388 -0.6496 -2.1067  0.4698
  961TIP3    H224519   5.657   4.863   0.407 -0.7966 -0.3964 -4.0761
  962TIP3   OH224520   3.500   6.817   1.402  0.3277  0.2661 -0.0927
  962TIP3    H124521   3.459   6.868   1.473  0.4350 -0.1717  0.2864
  962TIP3    H224522   3.427   6.772   1.360  0.2202  0.7873 -0.4861
  963TIP3   OH224523   0.822   6.480   6.621 -0.1008  0.3839 -0.7014
  963TIP3    H124524   0.763   6.541   6.666  1.1293  1.0377  0.0748
  963TIP3    H224525   0.792   6.393   6.649 -1.2196  0.6513 -0.9991
  964TIP3   OH224526   4.767   3.671   0.881 -0.0028 -0.6698 -0.1607
  964TIP3    H124527   4.727   3.740   0.829  1.6432  2.0371  1.9164
  964TIP3    H224528   4.696   3.609   0.897 -1.4951  0.3656 -2.3100
  965TIP3   OH224529   0.197   6.100   8.385  0.4283  0.2139 -0.0106
  965TIP3    H124530   0.111   6.100   8.427  0.0322  0.4630 -0.8017
  965TIP3    H224531   0.252   6.150   8.444  0.1793 -0.4272  0.7868
  966TIP3   OH224532   3.463   5.937   7.523 -0.3830 -0.0582 -0.0612
  966TIP3    H124533   3.510   6.007   7.477 -0.9492  0.3686 -0.0070
  966TIP3    H224534   3.421   5.886   7.453  0.3148 -0.5610 -0.1215
  967TIP3   OH224535   2.370   0.460   8.407 -0.3510  0.1558  0.4034
  967TIP3    H124536   2.335   0.509   8.481 -1.1746  1.1304 -0.6016
  967TIP3    H224537   2.296   0.450   8.347 -0.0835 -1.9081  0.3457
  968TIP3   OH224538   2.195   5.336   1.854  0.1302  0.1021  0.6995
  968TIP3    H124539   2.243   5.289   1.923 -1.8452 -0.5456  1.7249
  968TIP3    H224540   2.140   5.399   1.902  1.3151  2.1870 -0.5529
  969TIP3   OH224541   5.037   3.551   8.610 -0.9488  0.2191  0.2210
  969TIP3    H124542   5.094   3.474   8.604 -1.6425 -0.1998 -1.3486
  969TIP3    H224543   4.954   3.516   8.642 -0.7179  0.6390  1.3240
  970TIP3   OH224544   4.758   0.345   0.313 -0.0240 -0.3442 -0.1446
  970TIP3    H124545   4.808   0.304   0.243  0.9560 -0.4696  0.6008
  970TIP3    H224546   4.730   0.429   0.278 -0.8436 -1.0255 -1.1969
  971TIP3   OH224547   6.911   5.564   6.331  0.0329 -0.6813  0.1941
  971TIP3    H124548   6.852   5.634   6.358  0.2472  0.0663 -1.2047
  971TIP3    H224549   6.858   5.509   6.274  0.4772 -0.4328 -0.4585
  972TIP3   OH224550   5.314   4.162   2.593 -0.0333 -0.3945 -0.2352
  972TIP3    H124551   5.236   4.136   2.543 -1.9493  0.6878  1.9655
  972TIP3    H224552   5.308   4.257   2.598  1.0894 -0.3463  0.5136
  973TIP3   OH224553   3.741   3.535   8.139 -0.1000  0.2794 -0.2579
  973TIP3    H124554   3.649   3.507   8.133 -0.5487  1.5173  0.3247
  973TIP3    H224555   3.786   3.487   8.070 -1.3382  0.1717 -1.0227
  974TIP3   OH224556   6.882   2.345   7.556  0.0223 -0.7190  0.3503
  974TIP3    H124557   6.826   2.295   7.615  0.4125 -0.8840  0.5866
  974TIP3    H224558   6.970   2.311   7.572  0.3969  0.4869  0.9878
  975TIP3   OH224559   2.776   5.002   0.927  0.1357  0.2003 -0.2907
  975TIP3    H124560   2.686   5.031   0.935 -0.1217 -0.6249 -0.0574
  975TIP3    H224561   2.804   5.033   0.841  0.3254  2.2598  0.4470
  976TIP3   OH224562   1.751   4.633   7.871  0.4314  0.5715  0.2747
  976TIP3    H124563   1.760   4.599   7.959  2.6484  0.8858  0.2156
  976TIP3    H224564   1.744   4.555   7.815  1.8749  0.2833  0.4769
  977TIP3   OH224565   5.219   4.873   8.544  0.4227  0.2388 -0.0421
  977TIP3    H124566   5.138   4.844   8.502 -1.8495  0.6734  3.5350
  977TIP3    H224567   5.264   4.792   8.569  1.0665 -0.0044 -1.8419
  978TIP3   OH224568   2.960   6.071   1.156 -0.5703  0.1074 -0.2287
  978TIP3    H124569   3.005   6.154   1.170 -0.2688 -0.1376  0.2941
  978TIP3    H224570   2.983   6.045   1.067  1.3033 -0.5967  0.4117
  979TIP3   OH224571   3.878   2.178   7.972  0.4078 -0.6539 -0.0998
  979TIP3    H124572   3.895   2.193   7.879  1.8193 -0.7963  0.1183
  979TIP3    H224573   3.951   2.124   8.001  0.1956 -0.2677  1.1895
  980TIP3   OH224574   4.604   1.263   1.251 -0.3425  0.3556 -0.5156
  980TIP3    H124575   4.531   1.202   1.258 -1.1753  1.4916  2.2382
  980TIP3    H224576   4.667   1.232   1.316 -0.8187  2.3482  1.0215
  981TIP3   OH224577   6.255   5.215   7.756  0.0532 -0.2598 -0.8615
  981TIP3    H124578   6.170   5.210   7.801 -0.3182 -3.3517 -1.6199
  981TIP3    H224579   6.311   5.264   7.815 -1.6228 -0.2702  0.8403
  982TIP3   OH224580   1.035   5.272   8.208  0.3203  0.2244  0.0358
  982TIP3    H124581   1.074   5.335   8.146  0.0138  0.9204  0.5387
  982TIP3    H224582   1.085   5.283   8.288  1.0500 -1.0434 -0.2148
  983TIP3   OH224583   4.155   3.596   8.568 -0.2123  0.2130  0.1993
  983TIP3    H124584   4.158   3.553   8.653 -1.4462  1.1227  0.7395
  983TIP3    H224585   4.091   3.666   8.579 -0.8883 -0.0451 -1.6626
  984TIP3   OH224586   5.715   3.942   0.600  0.8712  0.3630  0.0304
  984TIP3    H124587   5.762   4.012   0.645  1.0785  1.3087 -1.5951
  984TIP3    H224588   5.745   3.946   0.509  0.3556 -1.3885 -0.2631
  985TIP3   OH224589   5.700   1.507   7.438  0.2798 -0.1619  0.2787
  985TIP3    H124590   5.694   1.413   7.450  0.9881 -0.0778  1.3483
  985TIP3    H224591   5.792   1.528   7.451  0.7397  0.3178 -2.8489
  986TIP3   OH224592   6.226   6.856   0.106  0.3589 -0.3093 -0.2373
  986TIP3    H124593   6.266   6.769   0.101  0.2567 -0.3054 -1.2960
  986TIP3    H224594   6.137   6.839   0.137  1.3995 -0.2235  3.3277
  987TIP3   OH224595   0.151   2.372   6.867  0.1595 -0.7745 -0.3225
  987TIP3    H124596   0.097   2.298   6.839  0.5782 -1.0751 -0.3580
  987TIP3    H224597   0.204   2.393   6.789  1.1166 -1.4185  0.1367
  988TIP3   OH224598   6.527   0.270   2.327 -0.1878 -0.1727  0.2248
  988TIP3    H124599   6.592   0.338   2.314  0.1613 -0.0093  2.4028
  988TIP3    H224600   6.448   0.317   2.356  0.2179 -0.6451  2.2909
  989TIP3   OH224601   1.607   6.521   6.333 -0.3616 -0.1167 -0.8400
  989TIP3    H124602   1.606   6.595   6.273  0.4081 -0.2979 -1.0807
  989TIP3    H224603   1.516   6.491   6.335 -0.8182  1.2105 -0.2585
  990TIP3   OH224604   2.193   0.145   6.615  0.3883  0.4191  0.1522
  990TIP3    H124605   2.109   0.098   6.617  0.4338  0.3644  1.1820
  990TIP3    H224606   2.169   0.234   6.591  0.1131  0.2516 -0.2167
  991TIP3   OH224607   3.840   6.361   0.095  0.0536  0.0199 -0.2937
  991TIP3    H124608   3.748   6.366   0.071  0.1312  2.2641 -0.2932
  991TIP3    H224609   3.846   6.406   0.179  1.2734  0.6258 -0.6833
  992TIP3   OH224610   2.567   5.201   0.348  0.8160  0.3271 -1.0718
  992TIP3    H124611   2.546   5.108   0.342 -1.3343  0.6079  0.8894
  992TIP3    H224612   2.516   5.242   0.278 -3.0676  0.5976  1.6209
  993TIP3   OH224613   4.782   1.811   0.328  0.3407  0.4169  0.4465
  993TIP3    H124614   4.740   1.725   0.335 -1.0284  0.8414 -1.7121
  993TIP3    H224615   4.746   1.862   0.401 -3.0999  0.7878 -1.3293
  994TIP3   OH224616   5.806   0.114   2.068  0.4476 -0.0708 -0.1573
  994TIP3    H124617   5.877   0.173   2.043  0.7456 -0.4067 -0.1109
  994TIP3    H224618   5.804   0.119   2.164  2.1293 -2.0046  0.0518
  995TIP3   OH224619   4.432   0.127   1.326  0.3673 -0.0030 -0.3647
  995TIP3    H124620   4.447   0.040   1.361 -1.0767  0.3400  1.2029
  995TIP3    H224621   4.469   0.186   1.391 -0.9452  0.6112 -0.1428
  996TIP3   OH224622   6.736   2.063   7.621  0.3390  0.2016 -0.0933
  996TIP3    H124623   6.724   2.083   7.528  2.0130  2.0627  0.0121
  996TIP3    H224624   6.662   2.006   7.644  0.9841 -2.0874 -3.0453
  997TIP3   OH224625   4.157   0.300   0.953  0.1580 -0.2513  0.4014
  997TIP3    H124626   4.073   0.330   0.918  0.2191 -0.2478  0.2592
  997TIP3    H224627   4.183   0.228   0.896  1.1401  0.9129 -0.6675
  998TIP3   OH224628   1.380   0.775   0.572  0.2222 -0.1243  0.3383
  998TIP3    H124629   1.329   0.823   0.507 -1.3710 -0.9030  0.9624
  998TIP3    H224630   1.361   0.683   0.554 -1.2330 -0.3288  2.6252
  999TIP3   OH224631   4.482   0.410   7.634 -0.0156 -0.1401 -0.2493
  999TIP3    H124632   4.424   0.484   7.654 -1.2437 -0.7490 -1.3751
  999TIP3    H224633   4.439   0.366   7.561 -0.0783 -2.7975  1.2918
 1000TIP3   OH224634   5.455   4.486   7.733 -0.2152 -0.0348 -0.4339
 1000TIP3    H124635   5.414   4.564   7.770  1.4225  0.3051  0.8043
 1000TIP3    H224636   5.514   4.519   7.665  1.5907  0.0482  1.0722
 1001TIP3   OH224637   0.885   0.884   0.503 -0.3107 -0.7546  0.1437
 1001TIP3    H124638   0.903   0.826   0.577  0.7636  1.2425  1.5337
 1001TIP3    H224639   0.790   0.897   0.504 -0.1933  0.2305  1.9981
 1002TIP3   OH224640   6.507   6.366   7.676  0.1988 -0.1935 -0.2189
 1002TIP3    H124641   6.429   6.421   7.674  0.0150 -0.4445 -0.0493
 1002TIP3    H224642   6.553   6.391   7.755  0.3119 -0.0143 -0.3420
 1003TIP3   OH224643   6.441   5.735   7.431  0.3676 -0.1785  0.3368
 1003TIP3    H124644   6.424   5.749   7.524  3.5285  1.0148  0.8572
 1003TIP3    H224645   6.441   5.823   7.394  1.6247 -0.3935 -0.2349
 1004TIP3   OH224646   1.379   2.837   7.253 -0.3368 -0.2416  0.6105
 1004TIP3    H124647   1.423   2.753   7.249 -0.9274 -0.5065 -1.3112
 1004TIP3    H224648   1.317   2.836   7.179 -0.0731  2.0141  0.2724
 1005TIP3   OH224649   2.015   2.249   0.276 -0.6396 -0.0381 -0.5094
 1005TIP3    H124650   2.040   2.166   0.234  1.5513  0.3837 -0.1622
 1005TIP3    H224651   2.098   2.287   0.304 -1.8552  0.1805  3.3639
 1006TIP3   OH224652   2.075   3.503   8.521  0.3560 -0.6879  0.0519
 1006TIP3    H124653   2.055   3.535   8.433 -1.4844 -0.2484  0.5979
 1006TIP3    H224654   2.065   3.580   8.577 -1.2164 -1.5282  0.9936
 1007TIP3   OH224655   2.203   2.937   8.533 -0.0668 -0.2990 -0.1721
 1007TIP3    H124656   2.192   2.956   8.440  0.9627 -0.2572 -0.2972
 1007TIP3    H224657   2.164   3.012   8.578 -2.4694 -1.2712 -0.4934
 1008TIP3   OH224658   5.507   6.084   6.498  0.0863  0.5734  0.2262
 1008TIP3    H124659   5.582   6.039   6.537  0.3855  0.5647 -0.3509
 1008TIP3    H224660   5.438   6.018   6.495  0.5688  0.0921 -0.7542
 1009TIP3   OH224661   5.645   3.183   7.355  0.0252  0.3818 -0.2649
 1009TIP3    H124662   5.617   3.137   7.434 -0.1473 -0.9284 -1.0606
 1009TIP3    H224663   5.640   3.276   7.378 -1.1678  0.0657  0.8779
 1010TIP3   OH224664   5.584   4.841   7.497  0.1585  0.3302  0.2735
 1010TIP3    H124665   5.502   4.837   7.448 -0.3629  1.8955  0.9592
 1010TIP3    H224666   5.562   4.889   7.577  1.7002  0.6382  0.5421
 1011TIP3   OH224667   6.635   3.569   7.152  0.5537 -0.2287  0.5028
 1011TIP3    H124668   6.570   3.597   7.217  0.7240  0.3902  0.4101
 1011TIP3    H224669   6.583   3.524   7.085 -0.2360  2.6533 -1.0045
 1012TIP3   OH224670   6.305   0.241   7.195  0.6098  0.1073  1.0883
 1012TIP3    H124671   6.223   0.237   7.243  0.7545  2.4380  1.6716
 1012TIP3    H224672   6.335   0.331   7.208  2.2088 -0.0931 -0.8418
 1013TIP3   OH224673   6.455   4.073   0.458  0.4056 -0.5895  0.5085
 1013TIP3    H124674   6.393   4.104   0.524  1.3634 -1.5957  1.9287
 1013TIP3    H224675   6.434   3.980   0.448  0.2206 -0.4384 -0.6966
 1014TIP3   OH224676   1.288   2.295   1.156 -0.0912 -1.0109  0.1817
 1014TIP3    H124677   1.281   2.323   1.065  0.1037  0.7780  0.6822
 1014TIP3    H224678   1.204   2.319   1.195 -0.0398 -1.4361  0.5702
 1015TIP3   OH224679   4.010   3.474   6.810 -0.3123 -0.4179  0.5073
 1015TIP3    H124680   4.057   3.491   6.729  0.3652 -0.5670  0.8617
 1015TIP3    H224681   3.969   3.557   6.833 -2.3973 -0.9022 -1.1569
 1016TIP3   OH224682   3.756   4.978   1.988  0.5697 -0.1943 -0.1406
 1016TIP3    H124683   3.848   4.978   1.961  0.6338 -0.8594  0.0645
 1016TIP3    H224684   3.735   5.071   2.000  1.3827 -0.0642  0.3616
 1017TIP3   OH224685   4.858   4.657   0.820  0.3079 -0.4891 -0.7878
 1017TIP3    H124686   4.944   4.656   0.861  0.9102  1.3160 -1.8646
 1017TIP3    H224687   4.815   4.735   0.855 -0.6944 -1.0896 -0.6483
 1018TIP3   OH224688   4.879   6.055   0.198  0.4611  0.1793  0.2869
 1018TIP3    H124689   4.889   6.124   0.263  0.1041  0.3483  0.1668
 1018TIP3    H224690   4.916   6.092   0.118  0.6938  0.0577  0.3399
 1019TIP3   OH224691   1.985   1.462   7.466  0.2853  0.2745  0.5580
 1019TIP3    H124692   1.897   1.429   7.479  0.3572 -1.8950 -3.0139
 1019TIP3    H224693   2.042   1.388   7.488  1.1437  1.1161  1.2569
 1020TIP3   OH224694   2.316   6.155   8.252  0.7638  0.9008  0.7876
 1020TIP3    H124695   2.403   6.119   8.235  1.4193  1.7724  2.1312
 1020TIP3    H224696   2.301   6.140   8.345 -1.2059 -0.6072  0.3006
 1021TIP3   OH224697   3.219   4.195   1.334 -0.0811 -0.6264 -0.6253
 1021TIP3    H124698   3.300   4.145   1.333 -0.0770 -0.6105 -1.1287
 1021TIP3    H224699   3.170   4.160   1.408  0.5427 -0.3803 -0.0839
 1022TIP3   OH224700   6.887   6.162   0.060  0.6465 -0.3580 -0.7823
 1022TIP3    H124701   6.895   6.256   0.077 -2.0015  0.0501 -1.4704
 1022TIP3    H224702   6.819   6.132   0.120  1.8170 -1.9951 -0.1986
 1023TIP3   OH224703   4.125   1.918   1.349  0.5744 -0.0826  0.3379
 1023TIP3    H124704   4.167   1.858   1.411  0.8529  0.5125  0.7361
 1023TIP3    H224705   4.037   1.883   1.337  1.5884 -2.2236 -1.6603
 1024TIP3   OH224706   5.288   0.029   6.583 -0.2699  0.7505  0.2315
 1024TIP3    H124707   5.286   0.086   6.660 -2.5021 -0.1930  0.9569
 1024TIP3    H224708   5.224  -0.040   6.602 -0.6018  0.2497 -2.2909
 1025TIP3   OH224709   2.243   2.425   7.191 -0.1124  0.2747 -0.2901
 1025TIP3    H124710   2.283   2.497   7.239 -0.9523 -1.1806  2.8698
 1025TIP3    H224711   2.151   2.450   7.183 -0.5952 -0.7554  1.6175
 1026TIP3   OH224712   2.270   0.551   6.831 -0.6568 -0.5137 -0.3851
 1026TIP3    H124713   2.231   0.466   6.813 -0.5496 -0.2762 -1.8272
 1026TIP3    H224714   2.224   0.612   6.773  0.5896  0.0766 -0.7893
 1027TIP3   OH224715   5.831   4.886   1.504 -0.4711  0.2375  0.0808
 1027TIP3    H124716   5.869   4.919   1.585  0.2930 -1.1539  0.3123
 1027TIP3    H224717   5.820   4.964   1.449 -0.8969  1.1828  1.4628
 1028TIP3   OH224718   1.101   6.516   2.287 -0.2688  0.5203 -0.5308
 1028TIP3    H124719   1.015   6.522   2.247  0.1584  0.7079 -1.4574
 1028TIP3    H224720   1.099   6.435   2.337 -0.7619  0.1678 -1.1054
 1029TIP3   OH224721   1.794   2.856   7.416 -0.0213 -0.0085  0.7198
 1029TIP3    H124722   1.857   2.922   7.388  1.8289 -1.0404  2.2612
 1029TIP3    H224723   1.720   2.907   7.450  0.1864  1.2298 -0.5972
 1030TIP3   OH224724   5.847   5.744   1.361 -0.0935  0.0455 -0.1862
 1030TIP3    H124725   5.768   5.696   1.335  0.0406  0.0322 -0.5767
 1030TIP3    H224726   5.855   5.727   1.455 -0.2429 -0.4096 -0.2510
 1031TIP3   OH224727   2.839   0.787   8.612 -0.5814 -0.6520 -0.6787
 1031TIP3    H124728   2.922   0.831   8.597  0.1863 -1.1311  1.6706
 1031TIP3    H224729   2.854   0.696   8.585 -0.3722 -0.7089 -0.3745
 1032TIP3   OH224730   3.702   0.001   0.691 -0.5287 -0.0850  0.0055
 1032TIP3    H124731   3.676  -0.044   0.771  1.6657 -1.7533 -0.1118
 1032TIP3    H224732   3.724   0.090   0.719 -1.3258 -0.1651  0.9381
 1033TIP3   OH224733   2.221   2.105   7.793 -0.2023 -0.0269 -0.0227
 1033TIP3    H124734   2.268   2.048   7.732  0.7630  1.9132 -1.1974
 1033TIP3    H224735   2.282   2.117   7.866  0.1767  0.6037 -0.4370
 1034TIP3   OH224736   6.578   4.437   6.558 -0.0532  0.3078  0.6181
 1034TIP3    H124737   6.599   4.400   6.472 -0.9126 -0.7066  0.8352
 1034TIP3    H224738   6.510   4.502   6.540 -2.2704 -1.8187  0.7889
 1035TIP3   OH224739   5.613   0.014   1.602 -0.6282  0.1461  0.1389
 1035TIP3    H124740   5.617  -0.004   1.696 -1.0624  1.2326  0.3889
 1035TIP3    H224741   5.582  -0.068   1.564 -0.9584 -0.1559  1.0082
 1036TIP3   OH224742   0.455   3.935   7.941 -0.5411 -0.4370 -0.3444
 1036TIP3    H124743   0.464   3.847   7.905  0.5993 -0.8515  0.8876
 1036TIP3    H224744   0.545   3.962   7.962 -0.9905  0.5169  0.4508
 1037TIP3   OH224745   2.227   1.021   7.873 -0.3535  0.5921 -0.4468
 1037TIP3    H124746   2.323   1.020   7.869 -0.2916 -1.7356 -0.0562
 1037TIP3    H224747   2.208   1.067   7.955  0.4593  0.5175 -0.2014
 1038TIP3   OH224748   3.547   5.024   7.392  0.0260 -0.6588 -0.3203
 1038TIP3    H124749   3.629   5.020   7.442 -1.2152  1.1347  2.0545
 1038TIP3    H224750   3.518   4.933   7.386  0.5924 -1.0010  1.6107
 1039TIP3   OH224751   2.017   5.936   1.317  0.3085  0.1399 -0.0686
 1039TIP3    H124752   2.031   5.844   1.340  0.6303 -0.1957 -1.5187
 1039TIP3    H224753   2.096   5.981   1.347  0.6019 -0.2413 -0.2598
 1040TIP3   OH224754   3.895   3.890   1.678 -0.6082 -0.0428  0.5284
 1040TIP3    H124755   3.949   3.947   1.624 -1.9208  1.0326  0.3054
 1040TIP3    H224756   3.919   3.801   1.651  0.2700  0.4346 -0.2980
 1041TIP3   OH224757   0.622   3.028   1.300 -0.0982 -0.0097 -0.2678
 1041TIP3    H124758   0.654   3.105   1.347 -1.7184  0.0161  0.9033
 1041TIP3    H224759   0.527   3.043   1.293 -0.4083 -1.7847 -0.2326
 1042TIP3   OH224760   2.101   3.530   6.281  0.7879 -0.7748  0.5046
 1042TIP3    H124761   2.103   3.626   6.284 -1.4779 -0.5767 -1.1085
 1042TIP3    H224762   2.164   3.507   6.213 -1.6251 -0.0044 -2.2133
 1043TIP3   OH224763   2.694   1.996   0.183 -0.2813 -0.2969  0.1513
 1043TIP3    H124764   2.607   1.963   0.208 -0.1759 -0.6266  0.0855
 1043TIP3    H224765   2.737   2.016   0.266 -0.3495 -0.3106  0.1903
 1044TIP3   OH224766   3.632   0.428   0.594 -0.1478  0.2145  0.3089
 1044TIP3    H124767   3.576   0.412   0.670  0.0182 -1.2862  0.1496
 1044TIP3    H224768   3.593   0.504   0.551 -2.6055 -1.2896 -0.2881
 1045TIP3   OH224769   0.463   6.851   8.488  0.2568  0.3806 -0.2111
 1045TIP3    H124770   0.536   6.909   8.504  1.0981 -0.9394  1.0199
 1045TIP3    H224771   0.408   6.859   8.566  1.0683 -1.3656  0.6191
 1046TIP3   OH224772   2.738   3.771   1.168  0.0957 -0.2525  0.2856
 1046TIP3    H124773   2.704   3.778   1.257  1.9469  0.2492  0.9915
 1046TIP3    H224774   2.765   3.860   1.145  0.7059 -0.5865 -0.3326
 1047TIP3   OH224775   5.742   3.003   0.683  0.3250 -0.0214  0.0809
 1047TIP3    H124776   5.658   2.962   0.663 -0.2446  0.3118  1.6909
 1047TIP3    H224777   5.763   3.055   0.605 -1.1042  0.1419 -0.2107
 1048TIP3   OH224778   1.651   2.241   6.945 -0.2659 -0.1258 -0.2681
 1048TIP3    H124779   1.652   2.314   7.007  0.2333  1.3847 -1.9554
 1048TIP3    H224780   1.743   2.223   6.927 -0.4070 -0.2124 -0.9260
 1049TIP3   OH224781   2.733   2.003   1.680 -0.0661 -0.3412  0.4015
 1049TIP3    H124782   2.699   1.916   1.701  0.3529 -0.2862  1.3634
 1049TIP3    H224783   2.669   2.064   1.718  0.0732 -0.2322  0.4611
 1050TIP3   OH224784   0.494   2.075   1.981 -0.0390  0.2385 -0.2780
 1050TIP3    H124785   0.500   2.162   2.020  0.9364  0.5801 -1.1322
 1050TIP3    H224786   0.540   2.084   1.897  0.2512 -1.1558 -0.2795
 1051TIP3   OH224787   0.833   2.824   7.609  0.1573  0.3728  0.5058
 1051TIP3    H124788   0.788   2.908   7.602  0.1881  0.4187  0.8105
 1051TIP3    H224789   0.800   2.772   7.535 -1.4680 -0.0913  1.4853
 1052TIP3   OH224790   4.002   2.531   1.368 -0.6318 -0.3786  0.4324
 1052TIP3    H124791   4.006   2.559   1.277 -2.3151 -1.7942 -0.1208
 1052TIP3    H224792   3.947   2.597   1.411 -2.6100 -1.4328 -0.3483
 1053TIP3   OH224793   0.747   3.438   8.000  0.0325 -0.0565  0.1636
 1053TIP3    H124794   0.742   3.350   8.037  1.4372 -0.6704 -1.0119
 1053TIP3    H224795   0.658   3.474   8.010 -0.5916 -1.6383  0.5479
 1054TIP3   OH224796   5.060   2.049   7.868 -0.1513 -0.0498  0.4744
 1054TIP3    H124797   5.024   2.104   7.799  0.8792 -2.0121 -1.7411
 1054TIP3    H224798   5.120   2.107   7.916 -0.9855  1.3776 -0.1419
 1055TIP3   OH224799   5.395   0.470   1.024  0.1483  0.2909  0.1005
 1055TIP3    H124800   5.339   0.420   0.964 -2.2156  1.9880  0.7223
 1055TIP3    H224801   5.401   0.557   0.984  1.6244  0.4195  0.5405
 1056TIP3   OH224802   0.020   3.757   1.654  0.1249  0.1076  0.0927
 1056TIP3    H124803  -0.073   3.735   1.662  0.5701 -1.3057  2.4891
 1056TIP3    H224804   0.021   3.851   1.639 -1.6880  0.4100  1.4919
 1057TIP3   OH224805   0.512   3.477   1.502 -0.0234 -0.2477  0.1486
 1057TIP3    H124806   0.472   3.406   1.552  2.2244 -0.6267  1.5657
 1057TIP3    H224807   0.525   3.441   1.414  2.1913 -2.1681  1.1411
 1058TIP3   OH224808   4.766   3.512   1.925  0.4259 -0.2775  0.5576
 1058TIP3    H124809   4.800   3.456   1.856  0.9100 -0.6125  1.0655
 1058TIP3    H224810   4.841   3.530   1.982  0.2819  0.8541  0.4277
 1059TIP3   OH224811   4.658   1.098   1.670  0.1319 -0.3370 -0.6801
 1059TIP3    H124812   4.736   1.070   1.717 -1.0708 -1.3117  0.8125
 1059TIP3    H224813   4.669   1.061   1.582  0.5144 -2.0356  0.0466
 1060TIP3   OH224814   2.629   6.233   7.645  0.3929 -0.2263 -0.0369
 1060TIP3    H124815   2.723   6.220   7.639  0.3082 -0.7047 -0.3527
 1060TIP3    H224816   2.609   6.294   7.573  0.6543  0.9925  0.8836
 1061TIP3   OH224817   2.679   3.528   1.373 -0.1585 -0.1812  0.1082
 1061TIP3    H124818   2.629   3.530   1.455 -0.7236 -0.2869 -0.2281
 1061TIP3    H224819   2.613   3.516   1.305  0.0290  2.1328 -0.5892
 1062TIP3   OH224820   0.051   3.909   7.502 -0.0309 -0.0070  0.5475
 1062TIP3    H124821   0.123   3.922   7.563  0.1102  0.0604  0.3686
 1062TIP3    H224822   0.090   3.863   7.428  0.0185  0.7802  0.0739
 1063TIP3   OH224823   5.916   2.311   7.472 -0.5365 -0.2636 -0.0909
 1063TIP3    H124824   5.984   2.336   7.533  0.0093 -1.3395 -0.2296
 1063TIP3    H224825   5.936   2.360   7.392 -0.9284  0.7131  0.3921
 1064TIP3   OH224826   0.070   6.863   1.701  0.5786 -0.5728 -0.0332
 1064TIP3    H124827   0.032   6.946   1.672  0.5022 -0.6648 -0.2006
 1064TIP3    H224828   0.163   6.882   1.711  0.4019 -0.1700  1.0124
 1065TIP3   OH224829   6.312   0.950   0.660 -0.1721  0.4343 -0.1602
 1065TIP3    H124830   6.405   0.969   0.670  0.2817 -1.4692 -0.4178
 1065TIP3    H224831   6.298   0.868   0.706 -1.5386  0.2249 -0.8775
 1066TIP3   OH224832   5.584   6.784   7.084  0.3518 -0.2357  0.0841
 1066TIP3    H124833   5.525   6.820   7.017 -0.3735 -3.0130 -0.9119
 1066TIP3    H224834   5.672   6.800   7.050  0.0315 -0.0606 -0.6849
 1067TIP3   OH224835   6.377   5.855   0.172 -0.0384  0.3993  0.4850
 1067TIP3    H124836   6.321   5.923   0.210 -2.0260 -0.5996 -0.4516
 1067TIP3    H224837   6.324   5.775   0.180  1.1237 -0.5376 -0.8211
 1068TIP3   OH224838   3.456   2.958   1.259 -0.0607 -0.0317  0.1486
 1068TIP3    H124839   3.415   3.043   1.274  1.1164  0.3712  1.1847
 1068TIP3    H224840   3.382   2.898   1.249 -0.9099  1.1119 -0.7247
 1069TIP3   OH224841   1.905   2.138   6.921 -0.5540  0.1968  0.1117
 1069TIP3    H124842   1.914   2.046   6.948  0.9905  0.1275 -0.5285
 1069TIP3    H224843   1.984   2.180   6.955  1.3902  0.1804 -3.8546
 1070TIP3   OH224844   5.520   1.798   1.546 -0.2931  0.0853  0.6749
 1070TIP3    H124845   5.539   1.743   1.622 -0.1877 -0.3053  0.3716
 1070TIP3    H224846   5.528   1.888   1.579 -0.6883 -0.0768  1.2320
 1071TIP3   OH224847   3.738   2.162   7.527  0.3999 -0.3743  0.1869
 1071TIP3    H124848   3.707   2.218   7.456 -2.3958 -0.7874  0.9741
 1071TIP3    H224849   3.747   2.075   7.488 -0.1216 -0.3824  0.0770
 1072TIP3   OH224850   3.069   3.474   6.509  0.1049 -0.1751  0.0081
 1072TIP3    H124851   3.110   3.534   6.446  1.4386 -1.4220 -0.3522
 1072TIP3    H224852   3.022   3.532   6.569  0.9759  1.2175 -0.5877
 1073TIP3   OH224853   1.073   1.550   0.464 -0.3596  0.4923 -0.5304
 1073TIP3    H124854   1.033   1.490   0.528 -0.4684  0.2057 -0.8686
 1073TIP3    H224855   1.050   1.637   0.497 -2.4768  0.3450 -1.4544
 1074TIP3   OH224856   2.424   2.512   0.627 -0.1810  0.2718  0.1804
 1074TIP3    H124857   2.396   2.519   0.719 -2.0148 -0.1430 -0.2991
 1074TIP3    H224858   2.350   2.548   0.577  0.3971 -0.3721 -1.1830
 1075TIP3   OH224859   1.395   4.829   1.334 -0.3189 -0.4958 -0.3148
 1075TIP3    H124860   1.402   4.806   1.241 -0.4379 -0.9494 -0.2137
 1075TIP3    H224861   1.464   4.894   1.347 -0.6419 -0.0416 -0.8384
 1076TIP3   OH224862   5.106   0.605   0.210 -0.2998  0.0832 -0.6586
 1076TIP3    H124863   5.026   0.622   0.160  0.2128 -1.0217 -1.9163
 1076TIP3    H224864   5.175   0.649   0.161 -0.0729  0.7240  0.2214
 1077TIP3   OH224865   2.303   4.471   8.483 -0.1026 -0.0651 -0.2265
 1077TIP3    H124866   2.260   4.392   8.514  2.5089 -1.6108 -0.2596
 1077TIP3    H224867   2.386   4.475   8.531  0.6621  1.6335 -1.5564
 1078TIP3   OH224868   1.141   2.496   6.707  0.5805  0.1322  0.2190
 1078TIP3    H124869   1.178   2.558   6.770 -0.0313 -0.5080  1.2406
 1078TIP3    H224870   1.162   2.410   6.743 -0.6594 -0.2443  0.0860
 1079TIP3   OH224871   2.599   3.052   6.419 -0.0464  0.3203 -0.0257
 1079TIP3    H124872   2.573   3.121   6.359  0.7806  1.0322  0.4178
 1079TIP3    H224873   2.694   3.049   6.412  0.0234  0.1041  0.9209
 1080TIP3   OH224874   6.167   5.400   1.115 -0.3493  0.2517  0.2839
 1080TIP3    H124875   6.174   5.470   1.180 -1.2299 -0.0980  0.7666
 1080TIP3    H224876   6.078   5.406   1.082 -0.0239  0.1942 -0.6506
 1081TIP3   OH224877   0.315   6.590   0.197 -0.2021  0.0872 -0.3804
 1081TIP3    H124878   0.353   6.628   0.118  1.2525 -2.1777 -0.8525
 1081TIP3    H224879   0.221   6.610   0.190  0.0425  0.8402 -2.1235
 1082TIP3   OH224880   0.593   0.258   2.504 -0.1497 -0.6242 -0.2505
 1082TIP3    H124881   0.548   0.264   2.588  0.5331 -1.2536  0.1729
 1082TIP3    H224882   0.546   0.190   2.456 -2.0189  1.3360 -1.3430
 1083TIP3   OH224883   5.105   2.738   2.190  0.0933 -0.1077  0.0908
 1083TIP3    H124884   5.174   2.800   2.212 -0.1543  0.9182 -1.7861
 1083TIP3    H224885   5.033   2.793   2.157 -0.3713 -1.3352 -1.0627
 1084TIP3   OH224886   5.226   3.474   1.057 -0.3427 -0.6529  0.3042
 1084TIP3    H124887   5.197   3.401   1.002 -0.8031 -2.6846  3.0399
 1084TIP3    H224888   5.153   3.489   1.117  0.9908 -0.1139  1.8600
 1085TIP3   OH224889   5.351   3.418   8.569  0.6818 -0.2598  0.7668
 1085TIP3    H124890   5.339   3.336   8.520 -0.3814 -0.1738  0.8510
 1085TIP3    H224891   5.323   3.396   8.658 -0.8701  0.4978  0.5100
 1086TIP3   OH224892   2.626   0.837   6.882  0.3556 -0.0320 -0.5142
 1086TIP3    H124893   2.659   0.747   6.878 -0.9991 -0.5133 -1.4559
 1086TIP3    H224894   2.576   0.840   6.964  2.3791  0.6199  0.7767
 1087TIP3   OH224895   4.605   6.713   6.847  0.2668  0.0175  0.0669
 1087TIP3    H124896   4.538   6.693   6.912  1.1237  1.1392  1.3749
 1087TIP3    H224897   4.578   6.796   6.809  0.0295 -0.3887 -0.6678
 1088TIP3   OH224898   5.342   4.533   0.930 -0.0208  0.2174 -0.4001
 1088TIP3    H124899   5.271   4.468   0.925  1.0186 -1.4332  3.0140
 1088TIP3    H224900   5.299   4.612   0.963 -0.5819 -0.1993 -0.1002
 1089TIP3   OH224901   4.184   6.560   6.263 -0.2881 -0.4449 -0.3908
 1089TIP3    H124902   4.162   6.467   6.272  2.6657 -1.1892  0.0796
 1089TIP3    H224903   4.172   6.579   6.170  0.7017 -1.8133 -0.8366
 1090TIP3   OH224904   2.343   0.590   1.625 -0.0434 -0.1929  1.3522
 1090TIP3    H124905   2.329   0.659   1.560 -0.2191 -1.9564 -0.5915
 1090TIP3    H224906   2.380   0.517   1.575  1.4465 -1.0496  3.5801
 1091TIP3   OH224907   0.664   5.424   7.745  0.3178  0.2337  0.3167
 1091TIP3    H124908   0.744   5.469   7.774  0.8657 -0.7681  0.3982
 1091TIP3    H224909   0.643   5.363   7.817 -0.7094  0.7072  0.4392
 1092TIP3   OH224910   1.613   2.375   1.781  0.0900 -0.8196  0.2085
 1092TIP3    H124911   1.703   2.401   1.798  0.2816 -0.6833 -0.9355
 1092TIP3    H224912   1.588   2.322   1.857  0.2503  1.2739  1.8161
 1093TIP3   OH224913   0.018   4.803   2.163  0.0667 -0.7723 -0.4007
 1093TIP3    H124914   0.047   4.887   2.198 -0.7950 -0.0698 -1.2904
 1093TIP3    H224915   0.080   4.784   2.092 -0.2349 -0.4556 -0.7530
 1094TIP3   OH224916   3.975   4.166   2.526 -0.3957  0.1591 -0.1072
 1094TIP3    H124917   4.009   4.101   2.588 -1.0616 -1.2961 -1.2092
 1094TIP3    H224918   3.985   4.125   2.440 -0.1642  1.8358 -0.9208
 1095TIP3   OH224919   4.294   3.081   1.789  0.7863  0.2416  0.3228
 1095TIP3    H124920   4.357   3.063   1.860 -0.8512 -1.4428  1.4394
 1095TIP3    H224921   4.216   3.113   1.834 -0.2843 -0.8369 -0.7061
 1096TIP3   OH224922   0.684   6.257   6.662 -0.3146  0.1401 -0.4898
 1096TIP3    H124923   0.647   6.198   6.727 -0.9006  0.3158 -0.6616
 1096TIP3    H224924   0.618   6.264   6.594  0.2935 -0.0331 -1.1084
 1097TIP3   OH224925   2.657   3.899   0.198 -0.2030  0.1015  0.2772
 1097TIP3    H124926   2.722   3.970   0.193 -1.4676  1.2267 -2.5240
 1097TIP3    H224927   2.584   3.937   0.247  0.1670 -0.2266  1.0955
 1098TIP3   OH224928   4.942   5.499   1.188 -0.5365  0.4892 -0.3421
 1098TIP3    H124929   4.855   5.467   1.211 -0.8351 -0.6091 -2.6269
 1098TIP3    H224930   4.938   5.511   1.093  2.0410 -0.4177 -0.6402
 1099TIP3   OH224931   2.485   2.877   8.284  0.0880 -0.4184 -0.2186
 1099TIP3    H124932   2.542   2.930   8.339  1.1633  0.1125 -1.8021
 1099TIP3    H224933   2.534   2.796   8.269  0.4668  0.0385 -1.5845
 1100TIP3   OH224934   6.501   6.290   8.099 -0.3590  0.3127 -0.5176
 1100TIP3    H124935   6.510   6.207   8.051  2.1552  0.0817  0.2149
 1100TIP3    H224936   6.522   6.357   8.035 -1.8248  0.3912 -0.9562
 1101TIP3   OH224937   0.118   2.482   7.743 -0.0689 -0.1830  0.0332
 1101TIP3    H124938   0.122   2.483   7.648 -2.4686 -0.4111 -0.1441
 1101TIP3    H224939   0.094   2.572   7.767  0.4607 -0.1413  0.4337
 1102TIP3   OH224940   0.138   4.157   8.008 -0.8458  0.2296 -0.2310
 1102TIP3    H124941   0.060   4.209   8.028  1.5467  3.9264  0.3845
 1102TIP3    H224942   0.161   4.115   8.091 -1.0353  0.7837  0.1037
 1103TIP3   OH224943   2.497   5.946   1.210 -0.0180  0.5624  0.5067
 1103TIP3    H124944   2.451   6.022   1.176 -0.3400 -0.1124 -0.6167
 1103TIP3    H224945   2.581   5.980   1.242  1.1695  1.0243 -2.7325
 1104TIP3   OH224946   6.926   3.257   1.405 -0.4964 -0.3977 -0.5602
 1104TIP3    H124947   6.880   3.337   1.378 -0.5657 -0.1210  0.3269
 1104TIP3    H224948   6.973   3.283   1.485  0.9748 -0.7517 -1.2761
 1105TIP3   OH224949   5.746   6.714   8.313  0.3640 -0.0401  0.5968
 1105TIP3    H124950   5.804   6.668   8.252  1.9220  0.8174  1.3807
 1105TIP3    H224951   5.689   6.645   8.348 -2.1847 -0.3197 -3.3377
 1106TIP3   OH224952   6.189   4.380   0.040 -0.8027 -0.1489  0.1025
 1106TIP3    H124953   6.177   4.305  -0.018  0.6445 -0.3254  0.0064
 1106TIP3    H224954   6.273   4.418   0.013  0.4213 -0.8226  2.7442
 1107TIP3   OH224955   5.790   1.521   8.065  0.5161  0.1944  0.1477
 1107TIP3    H124956   5.768   1.438   8.106 -2.9006  0.3790 -1.0198
 1107TIP3    H224957   5.770   1.508   7.972 -1.0300  2.5219  0.0562
 1108TIP3   OH224958   5.152   0.698   2.579  0.5024  0.1295  0.1931
 1108TIP3    H124959   5.140   0.606   2.600 -0.9713 -0.0044 -1.0236
 1108TIP3    H224960   5.182   0.699   2.488  0.0637  0.8423  0.0409
 1109TIP3   OH224961   3.781   0.363   6.779 -0.0068  0.0166 -0.3086
 1109TIP3    H124962   3.824   0.383   6.863  0.8700 -0.8845 -0.5281
 1109TIP3    H224963   3.709   0.426   6.774 -0.9957 -0.8397  1.7990
 1110TIP3   OH224964   6.127   5.309   6.371 -0.2200 -0.7030 -0.2819
 1110TIP3    H124965   6.074   5.279   6.297 -0.1354 -1.0358 -0.2110
 1110TIP3    H224966   6.165   5.391   6.341 -1.5247  0.0331  0.0185
 1111TIP3   OH224967   3.063   1.356   1.606 -0.4141  0.0013 -1.3574
 1111TIP3    H124968   3.104   1.309   1.679 -0.3316  1.2618 -0.5660
 1111TIP3    H224969   3.135   1.404   1.566 -0.6687  0.1931 -1.5814
 1112TIP3   OH224970   2.792   2.248   0.991 -0.7429 -0.3109 -0.0463
 1112TIP3    H124971   2.829   2.275   0.907  1.2614 -0.2884  0.7885
 1112TIP3    H224972   2.812   2.155   0.998 -0.6744 -0.2606  0.5123
 1113TIP3   OH224973   4.139   4.256   6.842 -0.2871  0.3122 -0.2226
 1113TIP3    H124974   4.148   4.329   6.780 -2.0522  0.8607  0.1208
 1113TIP3    H224975   4.220   4.257   6.892  2.2696 -1.5370 -3.9020
 1114TIP3   OH224976   1.439   6.341   6.682  0.4088 -0.1670  0.5043
 1114TIP3    H124977   1.371   6.273   6.674  1.1722 -0.9613  0.5954
 1114TIP3    H224978   1.516   6.294   6.714  1.4798  0.4028 -1.0982
 1115TIP3   OH224979   6.412   0.302   1.760 -0.1375  0.0530  0.3422
 1115TIP3    H124980   6.420   0.274   1.851  2.7358  0.7280  0.4081
 1115TIP3    H224981   6.444   0.227   1.709  0.8095  0.6221  0.0798
 1116TIP3   OH224982   4.277   5.382   0.160 -0.5581 -0.1817  0.2341
 1116TIP3    H124983   4.282   5.311   0.095  1.3102 -0.4058  0.5562
 1116TIP3    H224984   4.322   5.455   0.118  0.7363 -0.3498  1.2576
 1117TIP3   OH224985   2.476   1.581   1.858 -0.0353  0.4607  0.0158
 1117TIP3    H124986   2.501   1.543   1.942  2.0980  2.6429  0.4878
 1117TIP3    H224987   2.381   1.593   1.863 -0.4148 -2.2628  0.8095
 1118TIP3   OH224988   4.788   2.310   1.056  0.1383  0.4713  0.0995
 1118TIP3    H124989   4.707   2.315   1.107  0.5320  1.8365  0.6328
 1118TIP3    H224990   4.766   2.253   0.982 -1.2522  0.6640  0.3355
 1119TIP3   OH224991   3.981   5.993   8.011 -0.0057 -0.3413  0.3249
 1119TIP3    H124992   4.024   6.070   7.973  1.9442 -1.1266  0.8173
 1119TIP3    H224993   3.910   6.029   8.064 -1.5309  0.8856 -2.3311
 1120TIP3   OH224994   4.475   5.809   0.503  0.5602 -0.4244 -0.2120
 1120TIP3    H124995   4.394   5.817   0.554  0.4741  1.0683 -0.5311
 1120TIP3    H224996   4.484   5.715   0.488 -2.9019 -0.5577 -2.8840
 1121TIP3   OH224997   0.010   4.449   0.944  0.4530 -0.5258  0.7188
 1121TIP3    H124998   0.102   4.424   0.947  0.3503 -0.9807  0.2673
 1121TIP3    H224999  -0.024   4.424   1.029  0.8924  0.2424  1.1286
 1122TIP3   OH225000   4.426   4.809   6.707 -0.4284  0.1972 -0.0903
 1122TIP3    H125001   4.476   4.885   6.678  0.2817 -0.6439 -1.1061
 1122TIP3    H225002   4.481   4.734   6.687 -1.5971 -0.6731 -0.1420
 1123TIP3   OH225003   5.688   4.588   7.587  0.2329 -0.0826  0.1186
 1123TIP3    H125004   5.680   4.669   7.536  0.0882  0.5146  1.0438
 1123TIP3    H225005   5.760   4.540   7.546  1.2030  1.1340  0.3370
 1124TIP3   OH225006   3.518   1.508   7.201 -0.7819  0.0337  0.5543
 1124TIP3    H125007   3.513   1.497   7.296 -0.6578 -2.4871  0.3391
 1124TIP3    H225008   3.569   1.432   7.171 -1.7592  0.1691 -1.6254
 1125TIP3   OH225009   0.355   0.419   8.566  0.3464  0.0567 -0.0721
 1125TIP3    H125010   0.340   0.351   8.501  1.3264 -0.4197  0.1813
 1125TIP3    H225011   0.361   0.372   8.649  4.1194 -0.0150 -0.2206
 1126TIP3   OH225012   1.799   3.690   1.511 -0.2166 -0.9051 -0.5528
 1126TIP3    H125013   1.837   3.687   1.599  1.4452 -1.2827 -1.2583
 1126TIP3    H225014   1.783   3.598   1.489 -0.0345 -0.8545 -0.8983
 1127TIP3   OH225015   1.148   0.026   6.855 -0.0432 -0.1416 -0.1988
 1127TIP3    H125016   1.071   0.082   6.859  1.4427  1.9398  2.9933
 1127TIP3    H225017   1.222   0.086   6.852  1.5744 -2.0584 -2.8874
 1128TIP3   OH225018   5.320   6.593   1.229 -0.4921 -0.2123  0.6915
 1128TIP3    H125019   5.339   6.687   1.232  1.5677 -0.4563 -1.7520
 1128TIP3    H225020   5.385   6.553   1.286 -2.0786 -0.1795  2.6586
 1129TIP3   OH225021   6.173   4.937   7.069  0.4500 -0.4590  0.2726
 1129TIP3    H125022   6.171   4.964   7.160 -0.1345  0.8977 -0.1174
 1129TIP3    H225023   6.264   4.915   7.052  0.3043 -2.2690  1.5897
 1130TIP3   OH225024   0.451   4.406   1.361 -0.6123  0.8539  0.3435
 1130TIP3    H125025   0.393   4.338   1.395  0.3788  0.4108  1.2217
 1130TIP3    H225026   0.539   4.376   1.384 -0.1255  2.2568  0.4248
 1131TIP3   OH225027   0.037   0.976   2.525 -0.2881  0.0937  0.5837
 1131TIP3    H125028  -0.040   0.986   2.580 -0.4449 -0.7261  0.5265
 1131TIP3    H225029   0.070   1.065   2.513 -1.5381  0.5224  0.1544
 1132TIP3   OH225030   2.502   4.931   6.189  0.0678  0.1482  0.0591
 1132TIP3    H125031   2.496   5.000   6.255  1.2307  1.5214 -1.1844
 1132TIP3    H225032   2.433   4.954   6.125 -1.8491 -1.8184  1.2667
 1133TIP3   OH225033   5.204   2.336   8.610 -0.3518  0.2612  0.3247
 1133TIP3    H125034   5.146   2.336   8.534  2.0186  2.2386 -1.6352
 1133TIP3    H225035   5.266   2.265   8.593  0.6019  1.1464  0.0136
 1134TIP3   OH225036   5.928   3.934   0.937 -0.4354 -0.1889 -0.2382
 1134TIP3    H125037   5.850   3.898   0.979 -0.9114 -1.1524 -1.8791
 1134TIP3    H225038   5.925   3.900   0.848  1.4792  0.3651 -0.5459
 1135TIP3   OH225039   3.579   6.767   6.529  0.8946  0.6328 -0.0713
 1135TIP3    H125040   3.622   6.852   6.518 -0.9798  1.9085  1.6726
 1135TIP3    H225041   3.648   6.709   6.563  1.7719  1.9472  0.4591
 1136TIP3   OH225042   3.963   2.870   0.479  0.2752 -0.2041  0.7752
 1136TIP3    H125043   3.948   2.777   0.463  0.6473 -0.1859  0.3100
 1136TIP3    H225044   4.044   2.890   0.433 -0.4846  0.6438 -0.2570
 1137TIP3   OH225045   5.615   0.627   8.170  0.0494 -1.0064  0.2152
 1137TIP3    H125046   5.567   0.630   8.087  0.2726  1.2038  0.1058
 1137TIP3    H225047   5.706   0.645   8.146 -0.4006  3.7292  1.1639
 1138TIP3   OH225048   2.986   1.947   0.101  0.9373  0.3621 -0.5228
 1138TIP3    H125049   2.942   1.863   0.093  0.4124  0.7752 -2.3514
 1138TIP3    H225050   2.959   1.980   0.187  1.6594 -1.5659  0.5262
 1139TIP3   OH225051   5.289   2.502   8.191  0.5512  0.1969 -0.3098
 1139TIP3    H125052   5.195   2.487   8.198  0.5110 -0.1763 -1.4785
 1139TIP3    H225053   5.323   2.479   8.278 -0.3123 -0.6330 -0.1662
 1140TIP3   OH225054   4.500   2.259   1.663 -0.7519 -0.4055 -0.0454
 1140TIP3    H125055   4.415   2.302   1.673 -0.2760  0.4537  0.4087
 1140TIP3    H225056   4.514   2.256   1.569 -0.7385  0.5744 -0.0869
 1141TIP3   OH225057   4.437   3.544   6.656  0.5251 -0.4010 -0.3229
 1141TIP3    H125058   4.358   3.598   6.657  0.1525 -0.9492  0.5404
 1141TIP3    H225059   4.508   3.607   6.665  0.2197  0.1206 -1.3368
 1142TIP3   OH225060   4.080   3.927   8.260 -0.2319  0.0914 -0.0253
 1142TIP3    H125061   4.078   4.017   8.226  1.1087  1.0732  2.2696
 1142TIP3    H225062   3.998   3.919   8.309 -0.7154 -0.2268 -0.8770
 1143TIP3   OH225063   0.908   5.306   6.788 -0.0625  0.4843  0.1853
 1143TIP3    H125064   0.867   5.390   6.809 -2.6633 -0.4752 -0.7318
 1143TIP3    H225065   0.971   5.327   6.719  0.3434  1.8620  0.9335
 1144TIP3   OH225066   5.078   2.713   7.797 -0.5220  0.9197  0.2492
 1144TIP3    H125067   5.095   2.757   7.714 -0.3773  1.8798  0.7757
 1144TIP3    H225068   5.107   2.775   7.864 -1.3527  0.4801  1.0438
 1145TIP3   OH225069   0.363   4.189   1.025  0.6027 -0.8949 -0.1112
 1145TIP3    H125070   0.329   4.111   1.069 -1.5066  1.2085  2.3080
 1145TIP3    H225071   0.453   4.197   1.058  0.2224 -1.3047  1.0954
 1146TIP3   OH225072   2.406   1.759   1.327 -0.0816  0.1311 -0.4985
 1146TIP3    H125073   2.452   1.694   1.380 -1.8517  0.0339  1.0075
 1146TIP3    H225074   2.447   1.752   1.240  2.1570 -0.4815  0.5145
 1147TIP3   OH225075   1.719   4.641   1.441  0.1052  0.0215  0.3899
 1147TIP3    H125076   1.718   4.627   1.535 -3.1406 -0.4336  0.3917
 1147TIP3    H225077   1.795   4.591   1.410  0.3762 -1.0501  2.5845
 1148TIP3   OH225078   0.469   2.492   7.875 -0.4460  0.1933  0.2136
 1148TIP3    H125079   0.395   2.456   7.925 -0.6882 -1.3892 -1.1866
 1148TIP3    H225080   0.444   2.478   7.784  2.7910 -3.1547 -0.3617
 1149TIP3   OH225081   0.091   4.877   8.614  0.0348  0.2733 -0.4032
 1149TIP3    H125082   0.026   4.941   8.585 -0.0585  0.1313 -0.5098
 1149TIP3    H225083   0.041   4.797   8.628  0.6522 -0.8926 -3.9125
 1150TIP3   OH225084   1.256   3.335   7.209 -0.5007  0.2407 -0.6281
 1150TIP3    H125085   1.279   3.407   7.268  1.2109 -0.0034 -0.9518
 1150TIP3    H225086   1.292   3.257   7.252 -1.8961 -0.3821 -0.5271
 1151TIP3   OH225087   0.093   5.922   0.083  0.0218 -0.0560 -0.0913
 1151TIP3    H125088   0.056   6.008   0.064  0.8281  0.2024 -0.5514
 1151TIP3    H225089   0.178   5.941   0.122  0.4687 -0.6390 -0.7493
 1152TIP3   OH225090   6.578   1.147   8.477 -0.1604  0.0931 -0.3231
 1152TIP3    H125091   6.529   1.188   8.406  0.0183 -0.2708 -0.6621
 1152TIP3    H225092   6.530   1.171   8.557  0.1636  1.2857 -0.4657
 1153TIP3   OH225093   5.520   1.599   8.363 -0.3263  0.0154 -0.1309
 1153TIP3    H125094   5.452   1.536   8.341 -0.9211  0.8311 -0.7174
 1153TIP3    H225095   5.474   1.684   8.364  0.3777  0.4085  0.9451
 1154TIP3   OH225096   4.281   3.393   1.705 -0.0473 -0.7734 -0.0143
 1154TIP3    H125097   4.222   3.337   1.655  1.7636 -2.5324 -0.3320
 1154TIP3    H225098   4.338   3.332   1.752  1.4342  0.8179  0.3645
 1155TIP3   OH225099   2.133   1.030   7.262 -0.2619  0.8212 -0.4934
 1155TIP3    H125100   2.088   0.949   7.289  1.2978  0.5791  1.6652
 1155TIP3    H225101   2.127   1.030   7.167 -3.0573 -0.1759 -0.4251
 1156TIP3   OH225102   4.801   3.599   7.396  0.3490 -0.0451  0.0823
 1156TIP3    H125103   4.809   3.583   7.490 -1.5178 -1.4651  0.0840
 1156TIP3    H225104   4.862   3.537   7.356 -0.1207 -0.7058  0.3531
 1157TIP3   OH225105   5.759   2.353   1.911 -0.1323 -0.3375 -0.0493
 1157TIP3    H125106   5.793   2.441   1.925  2.0850 -1.2448  0.6915
 1157TIP3    H225107   5.669   2.356   1.943  0.8630  0.9002  2.9824
 1158TIP3   OH225108   5.903   1.044   1.068  0.0885  0.5439  0.3879
 1158TIP3    H125109   5.998   1.041   1.060  0.2811 -0.9949  2.3635
 1158TIP3    H225110   5.871   0.996   0.992  0.9246  0.5414  0.0303
 1159TIP3   OH225111   5.763   0.648   8.572 -0.0156 -0.2430 -0.4791
 1159TIP3    H125112   5.691   0.645   8.509 -1.6429 -1.8459  1.3431
 1159TIP3    H225113   5.761   0.738   8.605 -0.7074 -0.0673 -0.9629
 1160TIP3   OH225114   6.668   4.279   1.743  0.0753  0.4459 -0.2491
 1160TIP3    H125115   6.637   4.239   1.662 -1.2387  1.5805 -0.3289
 1160TIP3    H225116   6.649   4.213   1.810 -2.0382  0.8602 -0.3844
 1161TIP3   OH225117   6.832   3.274   7.292 -0.0017 -0.1387 -0.4327
 1161TIP3    H125118   6.906   3.334   7.301  0.8238 -1.3038  0.9779
 1161TIP3    H225119   6.800   3.289   7.203  1.3936  0.9999 -0.7812
 1162TIP3   OH225120   0.930   6.011   2.510  0.3014 -0.2602  0.6481
 1162TIP3    H125121   0.853   6.040   2.560 -0.4212 -0.2939 -0.4156
 1162TIP3    H225122   0.927   5.916   2.514 -0.6942 -0.3271 -0.7746
 1163TIP3   OH225123   3.659   3.138   2.340 -0.1006 -0.2001 -0.5084
 1163TIP3    H125124   3.567   3.154   2.359 -0.3048  0.4239 -1.9038
 1163TIP3    H225125   3.706   3.184   2.409 -0.8201  0.9300 -0.7473
 1164TIP3   OH225126   2.894   0.082   6.333  0.2173 -0.3314 -0.0329
 1164TIP3    H125127   2.853   0.048   6.413  0.9522 -0.5659  0.2510
 1164TIP3    H225128   2.979   0.116   6.362  0.5764 -0.6064 -0.7487
 1165TIP3   OH225129   0.490   2.361   8.313  0.7552  0.4676  0.0731
 1165TIP3    H125130   0.578   2.344   8.346  1.4058 -0.4738 -1.9738
 1165TIP3    H225131   0.489   2.454   8.293  1.9410  0.1885 -1.5173
 1166TIP3   OH225132   3.555   2.307   1.708 -0.1976 -0.0354  0.9577
 1166TIP3    H125133   3.623   2.350   1.760 -0.7770 -0.0703  1.7712
 1166TIP3    H225134   3.559   2.215   1.735 -0.1234 -0.1651  0.5104
 1167TIP3   OH225135   4.404   4.932   7.778 -0.1163 -0.6644  0.5959
 1167TIP3    H125136   4.328   4.888   7.815  0.0440 -2.0841 -0.6232
 1167TIP3    H225137   4.461   4.860   7.750  0.3445  0.3062 -1.1264
 1168TIP3   OH225138   2.343   3.698   7.207  0.0827 -0.8203 -0.3374
 1168TIP3    H125139   2.257   3.727   7.178  1.5034  1.8529 -2.2962
 1168TIP3    H225140   2.347   3.722   7.300 -0.3255  1.6632 -0.8945
 1169TIP3   OH225141   6.365   3.933   1.829  0.2520 -0.1279 -0.3196
 1169TIP3    H125142   6.390   3.903   1.916 -2.6433 -0.4685  0.5191
 1169TIP3    H225143   6.318   4.015   1.845 -1.6957 -0.9874 -1.3089
 1170TIP3   OH225144   1.803   1.815   1.294 -0.5080 -0.2781 -0.1558
 1170TIP3    H125145   1.765   1.805   1.381 -1.0796  1.3761 -0.1849
 1170TIP3    H225146   1.794   1.908   1.274 -0.8162 -0.6903 -2.1785
 1171TIP3   OH225147   6.289   1.181   6.267 -0.3091 -0.2377  0.3976
 1171TIP3    H125148   6.242   1.261   6.243  0.4597  0.2539  0.4945
 1171TIP3    H225149   6.343   1.161   6.190 -0.9325 -0.9933  0.1510
 1172TIP3   OH225150   2.333   6.315   8.002  0.3022 -0.0844  0.1470
 1172TIP3    H125151   2.372   6.242   7.954 -1.9403 -1.6791  0.5782
 1172TIP3    H225152   2.329   6.285   8.092  1.7082  1.6688  0.8429
 1173TIP3   OH225153   2.951   6.660   6.832  0.0500 -0.1100 -0.1768
 1173TIP3    H125154   2.980   6.744   6.797 -0.9443  1.1689  1.8675
 1173TIP3    H225155   2.857   6.657   6.815 -0.2654  0.0792  1.3361
 1174TIP3   OH225156   4.699   1.990   1.263 -0.1157  0.4879  0.4330
 1174TIP3    H125157   4.632   2.043   1.306 -1.2593 -0.9210  0.4826
 1174TIP3    H225158   4.763   2.053   1.231  0.3542  1.6869  3.4156
 1175TIP3   OH225159   4.251   5.811   2.361 -0.1454  0.0622  0.6067
 1175TIP3    H125160   4.229   5.719   2.372 -1.6220  0.1532 -1.1172
 1175TIP3    H225161   4.180   5.847   2.308  1.9936  1.4293 -1.5780
 1176TIP3   OH225162   2.791   0.885   7.713  0.2075 -0.8222 -0.2095
 1176TIP3    H125163   2.745   0.803   7.695 -1.0968  0.0219 -0.8785
 1176TIP3    H225164   2.721   0.947   7.735  1.1910  0.0506  0.5346
 1177TIP3   OH225165   3.075   3.203   6.516  0.2426 -0.0246 -0.2656
 1177TIP3    H125166   3.161   3.203   6.473  1.3504  2.9039  1.6869
 1177TIP3    H225167   3.054   3.296   6.528 -2.0987 -0.6893  1.4656
 1178TIP3   OH225168   5.307   1.842   8.554 -0.0779  0.3082 -0.4640
 1178TIP3    H125169   5.233   1.782   8.560 -1.2754  1.6482 -1.1672
 1178TIP3    H225170   5.312   1.864   8.461  1.1566  0.3309 -0.4130
 1179TIP3   OH225171   6.528   1.074   0.163 -0.1011  0.4313 -0.5014
 1179TIP3    H125172   6.476   1.131   0.106  0.7608  0.3356 -1.4195
 1179TIP3    H225173   6.525   1.116   0.249 -1.2171  0.7205 -0.6691
 1180TIP3   OH225174   5.660   6.920   1.868 -0.0814  0.1292  0.0570
 1180TIP3    H125175   5.724   6.970   1.919 -1.0651  1.0562  0.4050
 1180TIP3    H225176   5.655   6.835   1.912 -0.6640  0.7968  1.3205
 1181TIP3   OH225177   4.081   4.175   0.906  0.0698 -0.0114  0.5323
 1181TIP3    H125178   4.088   4.148   0.814 -2.6910  1.1187 -0.1218
 1181TIP3    H225179   4.056   4.095   0.952  2.3171 -0.7865  0.5289
 1182TIP3   OH225180   1.487   1.785   8.437 -0.1767  0.1214 -0.2143
 1182TIP3    H125181   1.469   1.780   8.531  2.1237  1.6481  0.3898
 1182TIP3    H225182   1.449   1.868   8.409 -1.4356 -0.6360 -0.8135
 1183TIP3   OH225183   2.318   4.993   8.429  0.2563  0.1150 -0.1901
 1183TIP3    H125184   2.311   4.901   8.403 -2.4480  0.6805 -1.7792
 1183TIP3    H225185   2.235   5.011   8.474 -0.0009  2.1935 -1.4074
 1184TIP3   OH225186   4.405   2.487   0.889 -0.2760  0.2822 -0.3893
 1184TIP3    H125187   4.365   2.441   0.815 -0.5156  0.2902 -0.2640
 1184TIP3    H225188   4.336   2.545   0.922 -0.7590 -1.0026  0.9653
 1185TIP3   OH225189   1.020   1.375   1.831  0.2500  0.0188  0.3456
 1185TIP3    H125190   1.070   1.432   1.773  0.0533  1.1568  1.2664
 1185TIP3    H225191   0.976   1.435   1.892 -1.2023 -1.0116  0.3756
 1186TIP3   OH225192   5.122   2.204   1.648  0.7255  0.5235 -0.3288
 1186TIP3    H125193   5.044   2.259   1.640  0.2498 -0.2474 -1.4743
 1186TIP3    H225194   5.191   2.263   1.677 -0.3268  1.1822  0.9375
 1187TIP3   OH225195   6.534   4.474   0.457  0.6371 -0.2756 -0.5754
 1187TIP3    H125196   6.543   4.384   0.425  2.0344  0.1524 -1.4852
 1187TIP3    H225197   6.557   4.528   0.382  2.2410  0.8010  0.6363
 1188TIP3   OH225198   0.486   4.180   1.940  0.0016 -0.3376  0.1252
 1188TIP3    H125199   0.564   4.222   1.905  0.5551 -0.2291  1.4300
 1188TIP3    H225200   0.493   4.191   2.035 -0.4082 -2.3941  0.4381
 1189TIP3   OH225201   0.783   3.668   0.873  0.0223  0.1478 -0.1297
 1189TIP3    H125202   0.854   3.678   0.809  0.4693  2.3118  0.6044
 1189TIP3    H225203   0.784   3.575   0.896  1.5116 -0.1911 -1.3815
 1190TIP3   OH225204   5.037   4.200   7.040  0.0096  0.0282 -0.4974
 1190TIP3    H125205   4.987   4.126   7.006  1.4313 -1.6252  0.8468
 1190TIP3    H225206   5.102   4.218   6.971 -0.4210  0.1231 -0.8821
 1191TIP3   OH225207   4.924   2.596   2.359 -0.3547 -0.5607  0.4638
 1191TIP3    H125208   4.970   2.664   2.311 -1.1731 -0.6192 -0.4158
 1191TIP3    H225209   4.993   2.547   2.403  0.4580 -0.8028 -1.0274
 1192TIP3   OH225210   1.644   3.683   7.138  0.3625  0.0269  0.0154
 1192TIP3    H125211   1.638   3.757   7.198  1.8058 -1.2061  1.7712
 1192TIP3    H225212   1.644   3.723   7.051  0.2412  2.0108  0.8678
 1193TIP3   OH225213   5.964   6.861   0.984  0.2517  0.3464  0.0104
 1193TIP3    H125214   6.028   6.805   1.027  1.1963  1.1252 -0.3481
 1193TIP3    H225215   5.884   6.808   0.982  1.2483 -1.2240 -0.8223
 1194TIP3   OH225216   5.382   5.622   0.093 -0.2631  0.1135 -0.2924
 1194TIP3    H125217   5.307   5.671   0.059  1.1216  0.5678 -2.9941
 1194TIP3    H225218   5.379   5.539   0.045  0.3327 -0.3167  0.4004
 1195TIP3   OH225219   0.488   2.541   8.612  0.2155 -0.2121  0.4332
 1195TIP3    H125220   0.578   2.511   8.594  0.0286 -1.8441  1.9260
 1195TIP3    H225221   0.457   2.575   8.528  1.9492 -0.3673 -0.3208
 1196TIP3   OH225222   2.812   2.725   0.465  0.6932 -0.5703 -0.7154
 1196TIP3    H125223   2.815   2.744   0.371  2.5127  1.2025 -0.3651
 1196TIP3    H225224   2.762   2.798   0.502 -0.1913 -1.3661 -0.2810
 1197TIP3   OH225225   1.135   3.689   7.379 -0.0604  0.3639 -0.0744
 1197TIP3    H125226   1.197   3.618   7.394  0.3264  0.6040 -0.5235
 1197TIP3    H225227   1.169   3.736   7.302 -1.2707 -0.0451 -0.8958
 1198TIP3   OH225228   0.954   3.980   7.219 -0.4691  0.3593 -0.3361
 1198TIP3    H125229   0.921   4.002   7.305  0.1378  2.4551 -0.5720
 1198TIP3    H225230   1.049   3.989   7.227 -0.3530 -0.1577 -1.0309
 1199TIP3   OH225231   1.462   4.226   2.357 -0.2140  0.1205 -0.3888
 1199TIP3    H125232   1.395   4.171   2.399 -2.8780  1.4236 -2.6323
 1199TIP3    H225233   1.534   4.166   2.339 -1.0424 -1.5465  1.4075
 1200TIP3   OH225234   1.676   6.734   1.236  0.6576 -0.4434 -0.3594
 1200TIP3    H125235   1.746   6.704   1.295  1.1865  0.8462 -0.2914
 1200TIP3    H225236   1.721   6.755   1.154  0.3179  0.1427 -0.4042
 1201TIP3   OH225237   3.869   1.596   7.250 -0.3347  0.3513  0.2274
 1201TIP3    H125238   3.950   1.646   7.248  0.7559 -1.3649 -0.0452
 1201TIP3    H225239   3.811   1.642   7.189 -0.1279  2.4381  1.5126
 1202TIP3   OH225240   2.946   6.227   6.408 -0.2697 -0.1727  0.3302
 1202TIP3    H125241   2.968   6.195   6.320  1.4740  1.1971  0.1951
 1202TIP3    H225242   3.028   6.267   6.439 -1.0190 -0.1229  2.3586
 1203TIP3   OH225243   2.419   0.467   0.344  0.8973 -0.1184  0.2856
 1203TIP3    H125244   2.430   0.559   0.319 -0.3115  0.2102  0.8787
 1203TIP3    H225245   2.487   0.452   0.409 -1.1667  1.5432  3.1085
 1204TIP3   OH225246   1.052   0.868   7.150 -0.1874  0.4855 -0.1036
 1204TIP3    H125247   1.047   0.963   7.156  2.2222  0.6929 -0.2010
 1204TIP3    H225248   0.993   0.836   7.219  1.5735  2.1672  2.3663
 1205TIP3   OH225249   0.511   4.821   8.480 -0.1620 -0.2809 -0.3560
 1205TIP3    H125250   0.440   4.856   8.425  0.0958 -0.3943 -0.7669
 1205TIP3    H225251   0.517   4.882   8.553  1.0139  1.1667 -1.6172
 1206TIP3   OH225252   6.662   0.255   0.358  0.5843 -0.3306  0.0282
 1206TIP3    H125253   6.703   0.186   0.412  0.3434 -1.2862 -0.9689
 1206TIP3    H225254   6.735   0.289   0.306  0.8493  0.7036  1.0327
 1207TIP3   OH225255   0.431   0.967   8.187 -0.6595  0.5154  0.5968
 1207TIP3    H125256   0.398   0.902   8.249  1.5408 -0.0883  1.2603
 1207TIP3    H225257   0.497   1.016   8.237 -1.1486  2.2398 -0.3505
 1208TIP3   OH225258   2.119   0.122   8.089  0.5704 -0.4101 -0.3641
 1208TIP3    H125259   2.185   0.112   8.020 -1.2949 -3.2019 -1.9402
 1208TIP3    H225260   2.161   0.085   8.168  1.2914 -1.1470 -1.0707
 1209TIP3   OH225261   4.398   3.986   1.575  0.0017  0.6824  0.1212
 1209TIP3    H125262   4.444   4.070   1.576  0.9171  0.1935  0.1101
 1209TIP3    H225263   4.466   3.921   1.589 -0.6696 -0.0771 -0.0491
 1210TIP3   OH225264   2.584   6.611   7.413  0.4406  0.0450 -0.8401
 1210TIP3    H125265   2.545   6.601   7.500 -0.3134 -0.0931 -1.1818
 1210TIP3    H225266   2.612   6.523   7.389  0.2978  0.0125 -0.8915
 1211TIP3   OH225267   4.463   4.754   1.276 -0.2613  0.4446 -0.1982
 1211TIP3    H125268   4.493   4.836   1.315 -0.7019  1.3062 -1.5837
 1211TIP3    H225269   4.533   4.692   1.294  0.8715  1.5685 -0.5780
 1212TIP3   OH225270   4.161   1.664   8.583  0.0407  0.2869  0.0864
 1212TIP3    H125271   4.175   1.621   8.499  0.6367  1.1669 -0.2751
 1212TIP3    H225272   4.121   1.748   8.561 -1.9719 -0.4175  0.8418
 1213TIP3   OH225273   4.417   5.173   8.275  0.2126  0.2207 -0.3475
 1213TIP3    H125274   4.470   5.093   8.276  0.4384  0.3769  0.3814
 1213TIP3    H225275   4.428   5.211   8.362 -0.3588  0.7450 -0.4933
 1214TIP3   OH225276   3.727   5.245   0.841  0.1047  0.5141  0.0794
 1214TIP3    H125277   3.749   5.276   0.929  0.9902 -1.2385  0.5287
 1214TIP3    H225278   3.668   5.312   0.806  1.8499  2.6202  0.9565
 1215TIP3   OH225279   5.711   6.247   7.833 -0.0093  0.2315 -0.4106
 1215TIP3    H125280   5.628   6.226   7.790 -0.1248  1.4612 -0.8121
 1215TIP3    H225281   5.706   6.201   7.917 -1.4165  0.8582 -0.1178
 1216TIP3   OH225282   5.121   0.871   1.196 -0.3287  0.5255  0.3265
 1216TIP3    H125283   5.209   0.902   1.175  0.8795 -2.2086  0.8773
 1216TIP3    H225284   5.071   0.886   1.116  1.3526 -0.1696 -0.9229
 1217TIP3   OH225285   4.783   5.274   7.969 -0.1192  0.3736 -0.1073
 1217TIP3    H125286   4.783   5.358   8.016 -0.3519  0.1138  0.3604
 1217TIP3    H225287   4.798   5.209   8.037 -0.9173 -0.0474 -0.3312
 1218TIP3   OH225288   6.759   3.425   0.598  0.0007 -0.3343  0.0081
 1218TIP3    H125289   6.665   3.426   0.577 -0.0866 -0.1139  0.4127
 1218TIP3    H225290   6.762   3.413   0.693  0.3377  1.6079  0.2849
 1219TIP3   OH225291   5.616   6.480   2.451 -0.3678 -0.7134 -0.3322
 1219TIP3    H125292   5.528   6.474   2.487 -0.8514 -2.2587 -1.6529
 1219TIP3    H225293   5.662   6.404   2.486  0.1350 -0.4745 -0.4563
 1220TIP3   OH225294   3.554   1.471   1.241 -0.2312 -0.2994 -0.0618
 1220TIP3    H125295   3.494   1.532   1.198  0.5161  0.6206  0.1538
 1220TIP3    H225296   3.623   1.527   1.278 -0.2460 -1.1488  1.3489
 1221TIP3   OH225297   4.035   5.830   6.004  0.2173  0.0719  0.1635
 1221TIP3    H125298   4.069   5.919   5.997  1.2722 -0.3501 -0.3362
 1221TIP3    H225299   3.997   5.826   6.092  0.4519  0.9144  0.3147
 1222TIP3   OH225300   1.616   0.635   0.971  0.0665 -0.4191  0.9503
 1222TIP3    H125301   1.644   0.724   0.991 -0.0384 -0.6784  2.3229
 1222TIP3    H225302   1.626   0.628   0.876  1.4272  0.5993  0.9791
 1223TIP3   OH225303   3.753   4.114   1.258  0.1985 -0.1274  0.1091
 1223TIP3    H125304   3.684   4.180   1.267  0.5417  0.2492  0.0491
 1223TIP3    H225305   3.792   4.108   1.345 -0.1318 -0.5870  0.2237
 1224TIP3   OH225306   6.313   3.822   7.658  0.3653 -0.6404  0.1199
 1224TIP3    H125307   6.271   3.861   7.582  0.4631  1.1760  0.9420
 1224TIP3    H225308   6.289   3.879   7.731  1.0081 -1.8140  1.3081
 1225TIP3   OH225309   6.457   1.682   8.115  0.1963  0.0312 -0.1682
 1225TIP3    H125310   6.522   1.691   8.184  0.4285 -2.2550 -0.0062
 1225TIP3    H225311   6.508   1.690   8.033  0.7391 -1.6746 -0.0441
 1226TIP3   OH225312   1.137   6.589   7.333 -0.1617  0.2214 -0.1890
 1226TIP3    H125313   1.143   6.504   7.377 -1.1900  1.7611  3.2718
 1226TIP3    H225314   1.223   6.629   7.345  0.1695 -0.0803 -1.3953
 1227TIP3   OH225315   2.385   2.467   0.010  0.0661 -0.1227  0.0142
 1227TIP3    H125316   2.471   2.509   0.012  1.0183 -1.9732  0.7154
 1227TIP3    H225317   2.338   2.511  -0.061  1.0174  1.9668  0.5988
 1228TIP3   OH225318   0.486   1.529   6.863 -0.0159  0.4104  0.4688
 1228TIP3    H125319   0.498   1.448   6.913  3.4665  1.3513  1.3840
 1228TIP3    H225320   0.445   1.589   6.926  0.9467  0.4893  1.0304
 1229TIP3   OH225321   0.988   1.780   2.339  0.3889 -0.5356  0.7013
 1229TIP3    H125322   0.927   1.741   2.402  0.1149  0.2882  0.9699
 1229TIP3    H225323   0.979   1.875   2.354  0.7435 -0.3554 -0.1877
 1230TIP3   OH225324   1.131   0.222   1.093  0.4249  0.1408 -0.4274
 1230TIP3    H125325   1.178   0.245   1.174  0.4277  0.5721 -0.5494
 1230TIP3    H225326   1.199   0.186   1.036  0.5612  0.5044 -0.5007
 1231TIP3   OH225327   3.113   3.648   0.478  0.1742  0.0645 -0.1484
 1231TIP3    H125328   3.117   3.732   0.524 -0.5286  0.2678 -0.4288
 1231TIP3    H225329   3.183   3.596   0.515 -0.6361  0.0566  1.4611
 1232TIP3   OH225330   2.938   2.424   0.131  0.2269  0.4506  0.1087
 1232TIP3    H125331   2.980   2.358   0.076  1.8594  0.1865  1.5729
 1232TIP3    H225332   2.884   2.475   0.071 -1.2253 -2.2848 -1.0538
 1233TIP3   OH225333   3.167   1.504   8.032 -0.2609  0.0142 -0.8581
 1233TIP3    H125334   3.206   1.584   7.998 -2.1308  1.8555  0.9890
 1233TIP3    H225335   3.072   1.520   8.029 -0.6306 -1.2578  1.4499
 1234TIP3   OH225336   6.878   5.119   7.876  0.4114 -0.1569  0.0460
 1234TIP3    H125337   6.943   5.104   7.808  0.0905 -1.1840 -0.0453
 1234TIP3    H225338   6.794   5.111   7.831  0.1975  0.7673  0.2420
 1235TIP3   OH225339   6.339   1.205   1.427 -0.6379 -0.2957 -0.1469
 1235TIP3    H125340   6.267   1.177   1.371 -1.1337 -2.4899  1.4385
 1235TIP3    H225341   6.300   1.209   1.515  0.4596  1.5720  0.3014
 1236TIP3   OH225342   6.909   4.743   1.552 -0.1189 -0.0795  0.5887
 1236TIP3    H125343   6.820   4.726   1.583 -0.5222  0.3006 -0.3335
 1236TIP3    H225344   6.905   4.829   1.510  0.3663 -0.6215 -0.6180
 1237TIP3   OH225345   4.038   5.268   0.358  0.3969  0.1324 -0.2742
 1237TIP3    H125346   4.056   5.177   0.336 -2.3267 -0.6354  0.3480
 1237TIP3    H225347   4.067   5.277   0.449  0.1197 -0.2918 -0.1412
 1238TIP3   OH225348   4.401   3.951   0.889  0.5639 -0.4798  0.1337
 1238TIP3    H125349   4.315   3.916   0.865 -0.9270  1.7860  1.7118
 1238TIP3    H225350   4.464   3.888   0.853 -1.6735 -1.4636 -2.3767
 1239TIP3   OH225351   1.070   3.515   1.477  0.6205 -0.1621  0.1285
 1239TIP3    H125352   1.081   3.427   1.439  0.9710 -0.6360  1.2878
 1239TIP3    H225353   0.979   3.517   1.507  0.6654 -0.2019  0.2689
 1240TIP3   OH225354   4.197   5.730   0.599 -0.0862  0.0556 -0.6453
 1240TIP3    H125355   4.113   5.714   0.641 -0.1452  0.5264 -0.5877
 1240TIP3    H225356   4.180   5.797   0.533  0.7463  2.1844  1.1729
 1241TIP3   OH225357   5.565   3.532   0.143  0.4593 -0.0862 -0.3219
 1241TIP3    H125358   5.568   3.509   0.050 -2.2596  1.2471 -0.8260
 1241TIP3    H225359   5.579   3.627   0.145 -0.4339  0.0404  0.5285
 1242TIP3   OH225360   3.683   2.416   1.946  0.3009 -0.3757  0.5770
 1242TIP3    H125361   3.651   2.340   1.995  2.3702 -0.4391  1.9761
 1242TIP3    H225362   3.690   2.485   2.012 -0.1871  0.6221 -0.3890
 1243TIP3   OH225363   5.695   1.620   0.912  0.0429 -0.4286  0.6531
 1243TIP3    H125364   5.666   1.642   0.823  1.6387 -1.0534 -0.0622
 1243TIP3    H225365   5.645   1.542   0.935 -1.1122  0.3110  0.7205
 1244TIP3   OH225366   1.386   0.428   0.107  0.4041 -0.3691 -0.0233
 1244TIP3    H125367   1.412   0.446   0.017 -0.4386  0.2169 -0.1627
 1244TIP3    H225368   1.429   0.345   0.129 -0.7510 -1.4293 -1.5526
 1245TIP3   OH225369   2.872   6.006   0.186 -0.7623 -0.1830  1.2614
 1245TIP3    H125370   2.780   6.005   0.160 -0.9718 -0.4428  1.9907
 1245TIP3    H225371   2.894   6.099   0.195 -0.9521 -0.1211  1.0881
 1246TIP3   OH225372   1.719   5.823   1.477  0.2779 -0.3303 -0.1746
 1246TIP3    H125373   1.637   5.775   1.467  0.2049 -0.0993 -0.7069
 1246TIP3    H225374   1.773   5.793   1.403  0.4769 -0.0852 -0.1291
 1247TIP3   OH225375   3.067   1.861   2.640  0.2120  0.0367  0.6750
 1247TIP3    H125376   3.070   1.955   2.657  1.3235 -0.1600  1.7894
 1247TIP3    H225377   3.065   1.821   2.727 -2.5382 -0.9820  0.2584
 1248TIP3   OH225378   6.863   5.577   7.995  0.3594 -0.0092  0.2542
 1248TIP3    H125379   6.847   5.485   7.975  0.0502  0.1942 -0.4639
 1248TIP3    H225380   6.949   5.596   7.958  0.8842 -0.2600  1.2914
 1249TIP3   OH225381   6.097   5.372   7.275  0.0634 -0.1908  0.3334
 1249TIP3    H125382   6.022   5.427   7.295  2.7138  3.6838  0.7165
 1249TIP3    H225383   6.141   5.359   7.360  1.5408  0.4784 -0.2901
 1250TIP3   OH225384   2.261   0.848   8.195 -0.4403  0.1082 -0.5296
 1250TIP3    H125385   2.350   0.874   8.172  0.1700 -0.3454  1.1850
 1250TIP3    H225386   2.211   0.930   8.193  0.4345  0.6786  0.2520
 1251TIP3   OH225387   3.071   3.965   8.077  0.1240 -0.1670  0.0079
 1251TIP3    H125388   3.027   3.997   7.998  0.0965  1.7420  0.7492
 1251TIP3    H225389   3.164   3.967   8.055  0.1959  1.4292  0.3440
 1252TIP3   OH225390   0.190   1.433   8.194 -0.3885 -0.6203 -0.1026
 1252TIP3    H125391   0.238   1.477   8.125 -0.6225 -0.5282 -0.2091
 1252TIP3    H225392   0.186   1.341   8.166 -0.2743 -0.6283 -0.0923
 1253TIP3   OH225393   4.201   4.829   7.305  0.1514 -0.3749  0.5373
 1253TIP3    H125394   4.231   4.919   7.309  0.4093 -0.4561  0.4490
 1253TIP3    H225395   4.144   4.826   7.228 -1.3030  0.1376  1.5531
 1254TIP3   OH225396   0.109   6.477   6.285 -0.3490 -0.3074  0.5512
 1254TIP3    H125397   0.140   6.567   6.280 -0.3889 -0.1740  2.1028
 1254TIP3    H225398   0.057   6.475   6.366 -0.8043 -1.5834  0.2422
 1255TIP3   OH225399   2.229   2.087   2.505  0.7880  0.0537  0.4506
 1255TIP3    H125400   2.270   2.002   2.521  1.0516  0.2968  1.1240
 1255TIP3    H225401   2.139   2.077   2.536  0.5319 -0.2645 -0.3668
 1256TIP3   OH225402   0.181   4.556   6.936 -0.4692  0.4291 -0.3019
 1256TIP3    H125403   0.183   4.506   6.855  0.5108  1.9459 -1.2718
 1256TIP3    H225404   0.099   4.531   6.979 -0.9340 -0.4940 -1.6888
 1257TIP3   OH225405   3.362   0.194   6.691 -0.1451 -0.2224  0.0746
 1257TIP3    H125406   3.377   0.258   6.760 -2.9345 -0.0994  0.6640
 1257TIP3    H225407   3.332   0.115   6.738 -2.0837 -0.1351 -0.9407
 1258TIP3   OH225408   4.209   3.664   0.568 -0.2017 -0.4612 -0.3316
 1258TIP3    H125409   4.145   3.625   0.509 -0.1715  1.3734 -1.6861
 1258TIP3    H225410   4.293   3.628   0.541 -0.4238 -1.2665  0.0403
 1259TIP3   OH225411   6.869   3.547   0.365  0.0831 -0.6157  0.5441
 1259TIP3    H125412   6.883   3.633   0.405  0.9241 -1.5502  2.3779
 1259TIP3    H225413   6.844   3.491   0.438 -1.2083 -1.7909 -0.7414
 1260TIP3   OH225414   2.570   5.878   7.764 -0.1121 -0.7260  0.5919
 1260TIP3    H125415   2.538   5.900   7.677  0.7676 -0.6221  0.2861
 1260TIP3    H225416   2.646   5.935   7.777 -1.7626  1.1962  2.5153
 1261TIP3   OH225417   0.123   5.087   7.660  0.2476 -0.0803 -0.1194
 1261TIP3    H125418   0.097   5.061   7.572  1.4522  0.5696 -0.7003
 1261TIP3    H225419   0.217   5.067   7.664  0.5490  1.3228  0.4480
 1262TIP3   OH225420   1.599   4.024   0.795 -0.8224 -0.9014 -0.4242
 1262TIP3    H125421   1.541   4.040   0.870 -0.8060 -3.0768  0.1315
 1262TIP3    H225422   1.551   4.060   0.721 -0.9606  1.0777  0.5654
 1263TIP3   OH225423   0.784   2.316   0.635  0.0074 -0.4172 -0.7588
 1263TIP3    H125424   0.767   2.247   0.700 -2.2292  0.1668 -0.6682
 1263TIP3    H225425   0.804   2.393   0.687  0.3828 -0.4736 -0.8178
 1264TIP3   OH225426   2.933   1.167   0.537 -0.1404 -0.3677 -0.2609
 1264TIP3    H125427   2.979   1.142   0.457  0.5414  0.5793 -0.1756
 1264TIP3    H225428   2.992   1.141   0.608 -0.2785 -0.2661 -0.1082
 1265TIP3   OH225429   6.329   1.437   8.087  0.1715 -0.1212 -0.1205
 1265TIP3    H125430   6.358   1.529   8.084  1.1403 -0.4183 -0.3740
 1265TIP3    H225431   6.237   1.440   8.059  0.4134  0.6880 -0.9014
 1266TIP3   OH225432   3.812   1.720   2.035 -0.1092  0.0568 -0.1978
 1266TIP3    H125433   3.819   1.803   1.989  1.8633 -0.1583 -0.3615
 1266TIP3    H225434   3.814   1.744   2.128 -1.1568  0.2808 -0.2209
 1267TIP3   OH225435   4.504   0.425   0.717  0.0180 -0.6795  0.2793
 1267TIP3    H125436   4.436   0.365   0.748 -1.0600 -0.1582 -0.9457
 1267TIP3    H225437   4.557   0.372   0.657  0.2678 -0.9029  0.6938
 1268TIP3   OH225438   5.689   3.495   7.533 -0.1606 -0.0722  0.2863
 1268TIP3    H125439   5.782   3.494   7.511 -0.0985  0.2920  0.5240
 1268TIP3    H225440   5.648   3.545   7.462 -0.0808  0.3369  0.5218
 1269TIP3   OH225441   1.692   1.217   0.939  0.6005  1.0385 -0.3188
 1269TIP3    H125442   1.715   1.142   0.884 -0.2075 -1.0468  2.0016
 1269TIP3    H225443   1.612   1.253   0.899 -0.4251 -0.9137 -0.1354
 1270TIP3   OH225444   5.114   3.645   7.587  0.5753 -0.6220  0.4743
 1270TIP3    H125445   5.024   3.614   7.590  0.6180 -0.8336 -0.1322
 1270TIP3    H225446   5.155   3.609   7.666 -0.1134  0.3061  1.2716
 1271TIP3   OH225447   2.003   6.863   0.635 -0.4138 -0.7195 -0.4254
 1271TIP3    H125448   2.041   6.822   0.557 -0.0080  0.6476 -0.9864
 1271TIP3    H225449   2.048   6.821   0.709  2.0309  0.5786 -1.0516
 1272TIP3   OH225450   5.140   5.378   7.398  0.6589 -0.6149  0.5668
 1272TIP3    H125451   5.167   5.429   7.321  0.4832  0.2328  1.0468
 1272TIP3    H225452   5.201   5.405   7.467  1.1321 -1.7453  0.6057
 1273TIP3   OH225453   3.397   4.539   2.406 -0.1135 -0.0840  0.3337
 1273TIP3    H125454   3.324   4.554   2.466  1.5984  0.2407  2.4403
 1273TIP3    H225455   3.431   4.453   2.431 -0.2034 -0.5702 -1.1324
 1274TIP3   OH225456   5.746   5.008   0.135 -0.1191  0.0786  0.1562
 1274TIP3    H125457   5.665   5.057   0.127  0.3751  1.7147  3.4174
 1274TIP3    H225458   5.815   5.072   0.118  0.5342 -0.7340 -0.3500
 1275TIP3   OH225459   4.316   2.074   8.530 -0.2919  0.0396  0.8857
 1275TIP3    H125460   4.225   2.090   8.503 -0.2742 -0.8658  0.2283
 1275TIP3    H225461   4.357   2.036   8.452  0.5384  0.0582  1.3130
 1276TIP3   OH225462   0.159   6.700   8.393  0.2032 -0.1799 -0.3439
 1276TIP3    H125463   0.146   6.793   8.410 -0.3322 -0.0855 -1.2229
 1276TIP3    H225464   0.155   6.692   8.298 -2.0218 -1.4045 -0.2136
 1277TIP3   OH225465   2.073   3.507   7.001 -0.2468 -0.5300 -0.0214
 1277TIP3    H125466   2.000   3.474   6.948 -0.2638 -1.1204  0.3666
 1277TIP3    H225467   2.140   3.530   6.937 -0.1158 -1.6085 -0.2861
 1278TIP3   OH225468   6.355   1.214   7.680 -0.1351  0.3711 -0.1693
 1278TIP3    H125469   6.262   1.234   7.669 -0.6714 -1.8205 -0.0090
 1278TIP3    H225470   6.362   1.177   7.768  1.2793  2.3341  0.6277
 1279TIP3   OH225471   0.777   3.969   6.803 -0.6253 -0.3151  0.1537
 1279TIP3    H125472   0.812   3.880   6.811  2.4028  0.7700  0.2825
 1279TIP3    H225473   0.779   4.003   6.893  0.9837  0.7546 -0.2433
 1280TIP3   OH225474   6.405   3.372   8.258  0.1566  0.3793 -0.2395
 1280TIP3    H125475   6.457   3.448   8.233 -0.2430  0.9586  0.6735
 1280TIP3    H225476   6.467   3.299   8.258  0.8264  0.9404  0.1779
 1281TIP3   OH225477   5.369   1.738   1.021  0.0406 -0.1483  0.0795
 1281TIP3    H125478   5.427   1.814   1.026 -1.0753  0.7137  0.2859
 1281TIP3    H225479   5.340   1.724   1.111 -0.2689 -0.4135 -0.0602
 1282TIP3   OH225480   0.682   3.547   2.059  0.0757 -0.2178  0.0011
 1282TIP3    H125481   0.751   3.573   1.997  0.8969 -0.0686  0.9548
 1282TIP3    H225482   0.711   3.582   2.143 -1.8209  0.9771  0.2077
 1283TIP3   OH225483   6.725   3.046   1.378  0.7335  0.3991 -0.2349
 1283TIP3    H125484   6.796   3.105   1.356  0.5498  0.4167 -0.7952
 1283TIP3    H225485   6.711   2.994   1.299 -1.3029  1.8532 -0.9306
 1284TIP3   OH225486   5.028   5.204   0.123 -0.3121 -0.4238  0.1813
 1284TIP3    H125487   5.083   5.126   0.133 -1.5530 -1.3019  0.5290
 1284TIP3    H225488   5.089   5.276   0.107  0.8297 -1.5785 -0.8231
 1285TIP3   OH225489   5.157   3.907   7.523 -0.5118  0.2079 -0.5753
 1285TIP3    H125490   5.117   3.821   7.530 -1.2396  0.3126 -2.6452
 1285TIP3    H225491   5.171   3.935   7.614 -0.3193 -2.0297  0.1354
 1286TIP3   OH225492   2.202   6.139   0.926 -0.2280 -0.3914 -0.3967
 1286TIP3    H125493   2.164   6.060   0.965 -1.8778  0.7403  0.3984
 1286TIP3    H225494   2.133   6.174   0.869  0.4224  0.5262 -0.6503
 1287TIP3   OH225495   4.749   0.628   0.609  0.1623  0.1952  0.3100
 1287TIP3    H125496   4.664   0.619   0.565  0.5642 -0.5088 -0.3562
 1287TIP3    H225497   4.733   0.690   0.680 -0.5829  1.1031 -0.6250
 1288TIP3   OH225498   4.900   2.107   0.029  0.3750  0.6629 -0.3253
 1288TIP3    H125499   4.976   2.136  -0.021 -0.3276  0.6532 -1.4425
 1288TIP3    H225500   4.887   2.175   0.095  0.5303  1.3526 -0.9980
 1289TIP3   OH225501   4.068   0.170   8.546  0.1016 -0.1272  0.0029
 1289TIP3    H125502   4.067   0.097   8.484  0.4037 -1.4849  1.5104
 1289TIP3    H225503   4.156   0.169   8.584 -0.5601 -0.4172  1.6246
 1290TIP3   OH225504   5.001   1.375   0.845 -0.0220  0.0236  0.2195
 1290TIP3    H125505   5.034   1.420   0.923  1.0967  0.4634 -0.4949
 1290TIP3    H225506   5.019   1.283   0.862 -0.6193  0.0172  0.8740
 1291TIP3   OH225507   1.982   2.026   1.033  0.2090  0.4913  0.1619
 1291TIP3    H125508   2.026   1.944   1.056 -1.5157 -1.3972 -2.7256
 1291TIP3    H225509   1.894   2.016   1.069 -0.4797  0.3372 -1.4906
 1292TIP3   OH225510   6.129   1.176   7.360  0.0715  0.3677 -0.1660
 1292TIP3    H125511   6.146   1.269   7.344 -1.1992  0.7949  0.8194
 1292TIP3    H225512   6.207   1.132   7.327  0.8900  1.8103 -0.2639
 1293TIP3   OH225513   3.928   3.923   1.273  0.2495  0.2064 -0.2585
 1293TIP3    H125514   3.974   3.920   1.189  0.4019  1.2704 -0.2293
 1293TIP3    H225515   3.859   3.988   1.260  0.0164  0.0794  0.3155
 1294TIP3   OH225516   5.600   4.910   1.239  0.2743 -0.5325  0.6785
 1294TIP3    H125517   5.695   4.915   1.237  0.2392  0.1952  0.7938
 1294TIP3    H225518   5.573   4.917   1.147  0.1422  3.5339  0.8729
 1295TIP3   OH225519   2.100   3.252   0.247 -0.3065 -0.1041  0.3523
 1295TIP3    H125520   2.112   3.268   0.341  1.2714  0.3372  0.1023
 1295TIP3    H225521   2.042   3.322   0.217  1.9914  1.9278  0.3593
 1296TIP3   OH225522   4.573   3.899   7.748 -0.2871  0.4524  0.5187
 1296TIP3    H125523   4.573   3.943   7.664 -2.2891 -0.9568 -0.3205
 1296TIP3    H225524   4.576   3.969   7.813 -0.9950  1.6887 -0.7454
 1297TIP3   OH225525   1.334   3.675   1.155  0.9608  0.5295  0.2580
 1297TIP3    H125526   1.371   3.600   1.109  2.1552  2.2827 -1.8446
 1297TIP3    H225527   1.409   3.725   1.185  0.1942  0.8825  1.6942
 1298TIP3   OH225528   5.911   1.514   7.755  0.2733  0.2539  0.6441
 1298TIP3    H125529   5.851   1.445   7.782  0.4710 -0.1870 -0.0233
 1298TIP3    H225530   5.913   1.509   7.660  1.7528 -0.0851  0.6656
 1299TIP3   OH225531   3.492   5.404   7.727 -0.1505  0.0252 -0.0924
 1299TIP3    H125532   3.446   5.471   7.779  0.2273  1.4262 -1.4670
 1299TIP3    H225533   3.473   5.428   7.636 -3.0641 -3.8960 -0.7659
 1300TIP3   OH225534   1.437   5.560   7.816 -0.6870 -0.2077  0.3254
 1300TIP3    H125535   1.529   5.533   7.822 -0.4481  0.6126  0.5135
 1300TIP3    H225536   1.389   5.480   7.797  0.3907 -0.2426 -2.8352
 1301TIP3   OH225537   6.171   5.747   7.979 -0.1438 -0.7361  0.1253
 1301TIP3    H125538   6.231   5.806   7.934  0.9748 -1.8847  0.0720
 1301TIP3    H225539   6.133   5.694   7.909 -0.5542 -0.6225  0.2574
 1302TIP3   OH225540   5.671   4.502   1.854 -0.2227  0.6249 -0.1688
 1302TIP3    H125541   5.685   4.597   1.852 -1.1840  0.7930  0.4309
 1302TIP3    H225542   5.752   4.466   1.890 -1.0179  1.5095  2.7687
 1303TIP3   OH225543   3.089   5.417   7.118  0.4228 -0.2439  0.2625
 1303TIP3    H125544   3.038   5.425   7.037 -0.7258  0.4524  1.0120
 1303TIP3    H225545   3.033   5.364   7.176  1.0783 -0.4526  0.7185
 1304TIP3   OH225546   4.581   6.068   7.439  0.4209  0.5952  0.4144
 1304TIP3    H125547   4.651   6.032   7.494  1.4007  0.1729 -1.0468
 1304TIP3    H225548   4.568   6.156   7.471  2.4747  1.1082  0.0084
 1305TIP3   OH225549   3.048   5.202   8.183 -0.3413  0.1737  0.2398
 1305TIP3    H125550   3.044   5.117   8.138 -3.1706  0.7509 -0.7823
 1305TIP3    H225551   3.119   5.249   8.140 -0.0694 -0.9370 -0.5560
 1306TIP3   OH225552   6.110   5.132   8.342 -0.0553  0.6648 -0.1165
 1306TIP3    H125553   6.033   5.124   8.399  1.8569 -0.6801  2.5152
 1306TIP3    H225554   6.098   5.063   8.277 -1.4738  1.0701 -0.3299
 1307TIP3   OH225555   6.902   6.473   2.523  0.2675  0.2918  0.0135
 1307TIP3    H125556   6.927   6.545   2.580  0.6127  0.6850 -0.6173
 1307TIP3    H225557   6.985   6.437   2.491  0.0781  0.9704 -1.3220
 1308TIP3   OH225558   2.979   3.020   1.944  0.5454  0.2191  0.1348
 1308TIP3    H125559   2.962   2.930   1.974  0.4572  0.5406  1.0862
 1308TIP3    H225560   2.929   3.075   2.004 -0.2996  0.8719 -1.1245
 1309TIP3   OH225561   1.270   4.192   0.771 -0.6803 -0.0191  0.2842
 1309TIP3    H125562   1.235   4.267   0.819  1.4515  1.2743 -0.0348
 1309TIP3    H225563   1.234   4.201   0.683  0.5911  1.4747 -0.1306
 1310TIP3   OH225564   4.544   5.822   1.947 -0.1704 -0.2097 -0.0321
 1310TIP3    H125565   4.519   5.835   2.039  0.3220  0.0229  0.0736
 1310TIP3    H225566   4.508   5.736   1.924 -0.7920 -0.0129  0.2057
 1311TIP3   OH225567   5.603   3.717   1.571  0.2095  0.4154  0.4442
 1311TIP3    H125568   5.598   3.627   1.540 -0.6080  0.8958 -0.9568
 1311TIP3    H225569   5.692   3.745   1.551 -0.3775  0.8108 -1.9686
 1312TIP3   OH225570   2.675   0.231   0.153 -0.2322  0.7086  0.4955
 1312TIP3    H125571   2.601   0.197   0.204 -0.6920  1.1780  0.1469
 1312TIP3    H225572   2.749   0.176   0.180 -0.8102 -0.1088  0.4665
 1313TIP3   OH225573   6.009   2.093   7.692 -0.0951  0.1383 -0.0093
 1313TIP3    H125574   5.928   2.129   7.729 -0.3467 -0.8771  0.4761
 1313TIP3    H225575   6.073   2.100   7.763  0.2578  0.9731 -0.4047
 1314TIP3   OH225576   2.625   1.157   8.069  0.0778  0.0198  0.1419
 1314TIP3    H125577   2.570   1.227   8.033  0.7781  0.6697  0.3114
 1314TIP3    H225578   2.682   1.201   8.132  0.3600 -0.7476  0.4340
 1315TIP3   OH225579   5.004   0.616   0.878  0.3157 -0.1641 -0.2099
 1315TIP3    H125580   4.990   0.710   0.892 -0.7922 -0.2628 -0.5063
 1315TIP3    H225581   4.984   0.603   0.785 -0.2732 -0.8069  0.0011
 1316TIP3   OH225582   5.399   0.175   1.251 -0.0073 -0.0559  0.0677
 1316TIP3    H125583   5.344   0.151   1.326 -0.6631  1.1229 -0.0127
 1316TIP3    H225584   5.385   0.105   1.188 -1.8744  0.4452 -0.1628
 1317TIP3   OH225585   6.490   4.372   0.010 -0.1546  0.6201  0.1233
 1317TIP3    H125586   6.525   4.285   0.031  0.5975  1.2103  1.4087
 1317TIP3    H225587   6.470   4.367  -0.084  0.4366 -0.7484  0.0414
 1318TIP3   OH225588   0.197   5.206   7.190  0.2919  0.9829  0.2177
 1318TIP3    H125589   0.110   5.224   7.153 -0.6655  0.8400  2.3009
 1318TIP3    H225590   0.201   5.260   7.269  2.1270  0.9871  0.1522
 1319TIP3   OH225591   1.788   4.094   1.767  0.3685 -0.8725 -0.3732
 1319TIP3    H125592   1.786   4.013   1.817  2.1396 -0.1058  1.0856
 1319TIP3    H225593   1.741   4.157   1.821  0.0306 -0.6453 -0.9258
 1320TIP3   OH225594   6.083   2.428   6.808 -0.2495 -0.6183  0.2986
 1320TIP3    H125595   6.150   2.391   6.752 -0.8490  0.7494 -1.4181
 1320TIP3    H225596   6.050   2.504   6.759 -1.5823 -0.0249  2.0150
 1321TIP3   OH225597   4.462   1.823   1.358  0.2569 -0.4794  0.3777
 1321TIP3    H125598   4.540   1.776   1.328 -0.1753 -0.4725 -0.8561
 1321TIP3    H225599   4.489   1.869   1.437  1.4922 -0.4832 -0.0294
 1322TIP3   OH225600   0.179   0.338   7.199  0.1214  0.3834  0.1416
 1322TIP3    H125601   0.106   0.398   7.215  1.8859  2.2596  1.6506
 1322TIP3    H225602   0.216   0.366   7.116  1.0624  1.6257  0.9357
 1323TIP3   OH225603   5.658   2.902   1.566 -0.0135 -0.3413 -0.2561
 1323TIP3    H125604   5.613   2.867   1.489  3.7634 -0.0882 -2.8427
 1323TIP3    H225605   5.624   2.991   1.575 -2.5624 -1.2706  0.2876
 1324TIP3   OH225606   4.219   6.261   1.087  0.2444 -0.0523  0.4482
 1324TIP3    H125607   4.133   6.220   1.074 -0.1747  1.2882 -1.3142
 1324TIP3    H225608   4.219   6.285   1.180 -1.9085  1.2003  0.1930
 1325TIP3   OH225609   0.524   2.469   1.417 -0.3421 -0.1226  0.5120
 1325TIP3    H125610   0.556   2.537   1.357 -0.8000  1.3121  1.8110
 1325TIP3    H225611   0.482   2.518   1.488 -2.5565 -1.8352  0.4908
 1326TIP3   OH225612   0.539   5.069   6.523 -0.1924 -0.5761 -0.1429
 1326TIP3    H125613   0.591   5.099   6.598 -0.7192  0.2445 -0.0943
 1326TIP3    H225614   0.600   5.016   6.471  0.1268 -1.3289  0.9613
 1327TIP3   OH225615   3.729   4.984   6.820 -0.8739 -0.5307  0.4205
 1327TIP3    H125616   3.652   4.967   6.767 -0.2693 -2.1659 -0.0053
 1327TIP3    H225617   3.709   4.946   6.906 -1.5877  1.5076  1.1954
 1328TIP3   OH225618   0.565   6.026   0.614  0.0865  0.5294 -0.3176
 1328TIP3    H125619   0.510   6.083   0.561 -0.5184 -0.4833 -0.7942
 1328TIP3    H225620   0.521   5.941   0.613  0.1189  0.4312  1.6895
 1329TIP3   OH225621   5.079   1.683   2.520 -0.7869  0.0359 -0.3348
 1329TIP3    H125622   5.118   1.595   2.517  0.0109  0.2829  1.4117
 1329TIP3    H225623   4.990   1.671   2.487 -0.4086 -1.2630 -0.9454
 1330TIP3   OH225624   5.294   6.004   1.013  0.0983 -0.0448 -0.2928
 1330TIP3    H125625   5.366   5.950   0.981  0.0683 -0.3705  0.1851
 1330TIP3    H225626   5.333   6.058   1.081 -0.2653 -0.7590  0.4986
 1331TIP3   OH225627   2.683   1.624   2.319 -0.2501  0.4615  0.0431
 1331TIP3    H125628   2.722   1.561   2.379 -1.7421  1.1097  1.7457
 1331TIP3    H225629   2.749   1.693   2.311  0.6942 -0.4806 -0.5151
 1332TIP3   OH225630   4.909   6.824   7.678 -0.2216  0.4378 -0.0693
 1332TIP3    H125631   4.975   6.860   7.619 -0.5308 -0.5632 -1.0675
 1332TIP3    H225632   4.828   6.824   7.626 -0.5298 -0.3490  0.4014
 1333TIP3   OH225633   4.928   0.285   7.717 -0.4327 -0.2968  0.0111
 1333TIP3    H125634   4.861   0.353   7.719 -0.0371  0.0848  0.8829
 1333TIP3    H225635   4.980   0.305   7.640  0.9180  1.6537  1.3305
 1334TIP3   OH225636   2.974   6.298   0.197  0.1422 -0.3123  0.0476
 1334TIP3    H125637   3.030   6.374   0.181  1.3394 -1.3855 -1.1238
 1334TIP3    H225638   2.894   6.334   0.236  0.8096  1.4953 -0.1886
 1335TIP3   OH225639   2.633   5.054   1.280  0.3240 -0.1062  0.2140
 1335TIP3    H125640   2.613   5.107   1.357 -0.7976  2.3079 -1.6134
 1335TIP3    H225641   2.728   5.061   1.270  0.2548  1.2118  0.2950
 1336TIP3   OH225642   0.375   4.836   7.311 -0.2448 -0.1628  0.0535
 1336TIP3    H125643   0.371   4.814   7.404  1.7454 -1.7190 -0.1492
 1336TIP3    H225644   0.298   4.891   7.296 -1.2313 -0.7800  2.3535
 1337TIP3   OH225645   1.394   3.834   8.511 -0.1227 -0.1089  0.1430
 1337TIP3    H125646   1.426   3.754   8.553 -2.0200 -0.6852  0.6322
 1337TIP3    H225647   1.352   3.803   8.431 -2.4028  0.0890  1.1660
 1338TIP3   OH225648   5.018   2.647   0.784 -0.4291 -0.5238  0.0303
 1338TIP3    H125649   4.929   2.677   0.798 -0.2120  0.8245 -1.2264
 1338TIP3    H225650   5.072   2.726   0.786  0.9955 -1.4539  2.3246
 1339TIP3   OH225651   3.550   6.338   0.030 -0.6505 -0.3282  0.2644
 1339TIP3    H125652   3.515   6.254   0.001 -0.7045  0.1027 -0.9892
 1339TIP3    H225653   3.494   6.404  -0.013 -1.7295  0.3867  2.6111
 1340TIP3   OH225654   0.949   3.198   8.278  0.0285  0.5207 -0.7337
 1340TIP3    H125655   0.863   3.156   8.274  0.3456 -0.3843  0.8216
 1340TIP3    H225656   0.933   3.289   8.254 -1.5857  0.6268  0.5376
 1341TIP3   OH225657   4.173   1.156   0.192  0.3693 -0.5380  0.3346
 1341TIP3    H125658   4.239   1.220   0.165 -0.1235 -0.3219 -0.3975
 1341TIP3    H225659   4.102   1.167   0.128  0.5451 -2.2645 -0.1865
 1342TIP3   OH225660   4.939   2.271   2.129 -0.0460 -0.2296  0.0922
 1342TIP3    H125661   4.886   2.210   2.079 -0.6032 -0.5479  1.0453
 1342TIP3    H225662   4.943   2.234   2.217  0.3930  0.6274  0.4555
 1343TIP3   OH225663   6.135   5.577   7.746  0.4551  0.2643 -0.6831
 1343TIP3    H125664   6.183   5.522   7.684  1.1073  1.0857 -0.9405
 1343TIP3    H225665   6.045   5.576   7.714  0.2911 -1.2809 -0.2140
 1344TIP3   OH225666   4.682   5.840   1.702 -0.1680  0.1938 -0.2691
 1344TIP3    H125667   4.619   5.791   1.648  0.6159 -1.0511 -0.0955
 1344TIP3    H225668   4.640   5.844   1.788 -0.2635 -0.1212 -0.2987
 1345TIP3   OH225669   0.404   5.289   7.401  0.2315 -0.3148 -0.4225
 1345TIP3    H125670   0.411   5.193   7.400 -0.2316 -0.4148  1.5717
 1345TIP3    H225671   0.311   5.306   7.418  0.4358  0.4603 -0.0266
 1346TIP3   OH225672   3.737   3.630   8.427  0.2091 -0.0593 -0.1328
 1346TIP3    H125673   3.642   3.639   8.442  0.2408  1.3101 -0.6202
 1346TIP3    H225674   3.744   3.590   8.341  0.0864 -1.4827  0.4869
 1347TIP3   OH225675   1.677   5.456   7.807 -0.3086  0.4693  0.1459
 1347TIP3    H125676   1.765   5.487   7.825  0.0994 -0.6362  0.1490
 1347TIP3    H225677   1.681   5.427   7.716  0.3918 -2.8938  1.1188
 1348TIP3   OH225678   5.865   5.537   8.413  0.1828  0.3484  0.1043
 1348TIP3    H125679   5.898   5.506   8.329  0.6034 -1.3814  0.8616
 1348TIP3    H225680   5.932   5.511   8.476 -0.3563  1.1772  1.0451
 1349TIP3   OH225681   0.679   1.725   6.846 -0.1375  0.1065  0.2871
 1349TIP3    H125682   0.597   1.675   6.856 -1.2933  2.1540  1.9492
 1349TIP3    H225683   0.650   1.813   6.823  1.7530  0.4160 -1.0498
 1350TIP3   OH225684   5.489   0.738   1.410 -0.3187 -0.3684 -0.3075
 1350TIP3    H125685   5.409   0.691   1.388 -0.6261  0.2383 -0.5043
 1350TIP3    H225686   5.554   0.706   1.347 -0.1394 -1.5468  0.4353
 1351TIP3   OH225687   4.926   0.419   7.227  0.1167  0.1745  0.0011
 1351TIP3    H125688   4.942   0.336   7.183 -1.1795 -0.2312  0.2459
 1351TIP3    H225689   5.013   0.457   7.239  0.8549 -1.6581  0.8646
 1352TIP3   OH225690   1.412   6.692   7.313  0.0856 -0.3119 -0.3690
 1352TIP3    H125691   1.426   6.725   7.224  0.5989 -0.5733 -0.3860
 1352TIP3    H225692   1.382   6.768   7.363 -1.3666 -0.4025 -1.0332
 1353TIP3   OH225693   6.926   3.240   1.017  0.0292 -0.0808  0.0628
 1353TIP3    H125694   6.965   3.300   1.081  0.5875  0.8034 -1.0797
 1353TIP3    H225695   6.964   3.155   1.037  1.2999  0.4566  0.0202
 1354TIP3   OH225696   6.404   2.165   7.464 -0.1630 -0.1052 -0.4151
 1354TIP3    H125697   6.429   2.208   7.546  0.4609  1.6408 -1.4724
 1354TIP3    H225698   6.340   2.099   7.490 -0.7637  1.1015  1.3502
 1355TIP3   OH225699   2.870   3.915   0.533 -0.0557 -0.6048 -0.3111
 1355TIP3    H125700   2.848   3.823   0.547 -0.4385 -0.4389  0.1944
 1355TIP3    H225701   2.895   3.948   0.619  1.6608 -0.6318 -0.7654
 1356TIP3   OH225702   0.403   4.503   7.439 -0.1247 -0.4600  0.5015
 1356TIP3    H125703   0.372   4.517   7.529 -0.6613  1.0722  0.0977
 1356TIP3    H225704   0.333   4.452   7.398 -0.4409 -0.1251  0.6159
 1357TIP3   OH225705   0.373   6.836   1.498 -0.4229 -0.2986  0.3952
 1357TIP3    H125706   0.461   6.804   1.522 -0.0588  0.0890 -0.3999
 1357TIP3    H225707   0.344   6.884   1.576  0.2110 -0.1523  0.5518
 1358TIP3   OH225708   2.338   5.865   8.491 -0.6948 -0.1673 -0.0190
 1358TIP3    H125709   2.288   5.825   8.563 -0.7749 -0.2443 -0.1163
 1358TIP3    H225710   2.314   5.957   8.494 -0.6778 -0.1655  0.0710
 1359TIP3   OH225711   2.797   3.118   7.592  0.5797  1.1004 -0.8142
 1359TIP3    H125712   2.850   3.046   7.627 -0.7757  0.2592 -0.4324
 1359TIP3    H225713   2.845   3.147   7.514  1.2431 -0.1038 -0.8818
 1360TIP3   OH225714   0.026   3.216   0.525  0.1221 -0.1291  0.0750
 1360TIP3    H125715   0.066   3.272   0.592  0.3919 -0.3104  0.0693
 1360TIP3    H225716  -0.055   3.261   0.501  0.0229 -0.0660  0.5262
 1361TIP3   OH225717   3.646   4.809   7.015  0.1667 -0.4624  0.0398
 1361TIP3    H125718   3.698   4.825   7.094  0.7467 -2.1511  0.0375
 1361TIP3    H225719   3.561   4.782   7.048  0.4792 -1.3909  0.1098
 1362TIP3   OH225720   6.428   3.984   0.015 -0.4946 -0.0106  0.4118
 1362TIP3    H125721   6.430   3.903  -0.036  1.0402  0.0382  0.3293
 1362TIP3    H225722   6.382   3.960   0.096  0.4998 -1.1691  0.6688
 1363TIP3   OH225723   3.625   2.981   2.060  0.2215 -0.3689  0.0021
 1363TIP3    H125724   3.617   2.950   1.970 -1.4293  0.6487 -0.2547
 1363TIP3    H225725   3.608   3.075   2.054 -1.4317 -0.5190  1.5487
 1364TIP3   OH225726   6.357   2.655   7.710 -0.6185  0.2101 -0.0381
 1364TIP3    H125727   6.289   2.627   7.771 -0.3508  0.6745  0.4730
 1364TIP3    H225728   6.410   2.576   7.695  2.8647  1.1568  4.8219
 1365TIP3   OH225729   5.658   0.080   8.455  0.4314 -0.1058  0.0571
 1365TIP3    H125730   5.681   0.024   8.381  0.6863  0.4673 -0.3068
 1365TIP3    H225731   5.596   0.143   8.419  1.7880  1.2083 -0.0987
 1366TIP3   OH225732   4.523   3.472   8.447  0.2769 -0.4280  0.1190
 1366TIP3    H125733   4.572   3.445   8.369  0.6061 -0.9110  0.4828
 1366TIP3    H225734   4.447   3.519   8.413  1.9159  1.9861 -0.4229
 1367TIP3   OH225735   2.485   1.199   0.005 -0.3576  0.3496 -0.2091
 1367TIP3    H125736   2.477   1.138  -0.068 -1.0181 -0.8921  0.8637
 1367TIP3    H225737   2.554   1.162   0.060  0.1102  1.2538 -0.1600
 1368TIP3   OH225738   1.277   2.122   8.609  0.7602  0.3169 -0.2027
 1368TIP3    H125739   1.191   2.103   8.571  1.7885 -0.4785 -2.2529
 1368TIP3    H225740   1.293   2.214   8.587  0.3622  0.5415  0.4012
 1369TIP3   OH225741   1.347   3.485   7.402 -0.2022 -0.2955  0.0040
 1369TIP3    H125742   1.337   3.421   7.473  0.2961 -1.0440 -0.5732
 1369TIP3    H225743   1.426   3.533   7.425  0.7593 -1.4721 -0.7118
 1370TIP3   OH225744   0.137   4.336   0.027 -0.0553 -0.3051  0.1647
 1370TIP3    H125745   0.120   4.356  -0.065  0.4400  0.2185  0.1786
 1370TIP3    H225746   0.193   4.258   0.024  2.6067  1.4695 -0.1549
 1371TIP3   OH225747   4.509   5.518   7.859 -0.4096  0.1769 -0.0472
 1371TIP3    H125748   4.429   5.564   7.835 -1.8158 -0.9075  2.3103
 1371TIP3    H225749   4.557   5.580   7.913 -0.5698  0.1485  0.1273
 1372TIP3   OH225750   5.625   5.918   7.630 -0.4323 -0.0929  0.1102
 1372TIP3    H125751   5.643   5.852   7.697 -1.4931  0.2811  0.7868
 1372TIP3    H225752   5.653   5.877   7.548  2.6459  0.1296  0.9350
 1373TIP3   OH225753   6.081   2.589   1.513  0.0409  0.4197  0.9023
 1373TIP3    H125754   6.151   2.531   1.486  0.2972  2.2117 -2.8134
 1373TIP3    H225755   6.009   2.530   1.538  1.8136 -1.4017  2.0059
 1374TIP3   OH225756   6.767   0.352   7.078 -0.8022 -0.1477 -0.0271
 1374TIP3    H125757   6.784   0.263   7.108  0.0386  0.4764  1.4472
 1374TIP3    H225758   6.697   0.384   7.136 -1.8982 -0.2034 -1.2735
 1375TIP3   OH225759   5.012   5.948   1.051  0.4057 -0.4333 -0.3018
 1375TIP3    H125760   5.096   5.966   1.007  0.7040  2.5233  1.2329
 1375TIP3    H225761   5.037   5.922   1.140 -0.3078 -1.1490 -0.3005
 1376TIP3   OH225762   2.610   2.856   1.398  0.0297  0.3800 -0.5012
 1376TIP3    H125763   2.699   2.828   1.376  0.8187  0.3096  2.3961
 1376TIP3    H225764   2.554   2.804   1.340  1.8223  0.6883 -2.6482
 1377TIP3   OH225765   5.369   6.554   7.280  0.1148  0.0125 -0.1893
 1377TIP3    H125766   5.434   6.531   7.214 -0.5693  0.0241 -0.8827
 1377TIP3    H225767   5.368   6.650   7.282  0.9523  0.0173  0.6763
 1378TIP3   OH225768   1.613   6.530   7.282 -0.3821 -0.0755  0.1076
 1378TIP3    H125769   1.534   6.577   7.312 -1.4394  0.1182 -2.6933
 1378TIP3    H225770   1.681   6.597   7.280 -0.7006  0.2688  0.4548
 1379TIP3   OH225771   2.447   4.746   6.788 -0.2287 -0.6210 -0.0295
 1379TIP3    H125772   2.487   4.831   6.805 -0.2851 -0.5210 -0.3957
 1379TIP3    H225773   2.432   4.745   6.694 -0.6771 -0.8425  0.0449
 1380TIP3   OH225774   3.898   0.266   0.608  0.2770  0.1296  0.0959
 1380TIP3    H125775   3.814   0.312   0.596  0.5346  0.3817 -0.8291
 1380TIP3    H225776   3.925   0.242   0.520  2.3532  2.1727  0.0763
 1381TIP3   OH225777   0.443   3.756   2.962  0.0882 -0.2376  0.0399
 1381TIP3    H125778   0.356   3.731   2.993  0.5953 -0.4167  1.3818
 1381TIP3    H225779   0.430   3.841   2.920 -0.9441 -0.8540 -0.9769
 1382TIP3   OH225780   3.050   4.188   6.401  0.0066 -0.5073 -0.0917
 1382TIP3    H125781   3.097   4.195   6.318 -0.3467  1.1826 -0.1981
 1382TIP3    H225782   3.107   4.231   6.465 -0.7753  0.3890  0.0299
 1383TIP3   OH225783   1.449   0.526   6.858  0.6929 -0.6413 -0.0195
 1383TIP3    H125784   1.431   0.472   6.782  1.0096 -0.1685 -0.4366
 1383TIP3    H225785   1.540   0.553   6.848  0.7582 -0.6187  0.5568
 1384TIP3   OH225786   2.553   2.585   1.750 -0.2901 -0.1714  0.0972
 1384TIP3    H125787   2.620   2.517   1.764  0.0666  0.0898 -0.3336
 1384TIP3    H225788   2.592   2.664   1.786 -0.8537 -0.2578  0.9307
 1385TIP3   OH225789   6.732   2.296   1.027 -0.1672  1.0653  0.1983
 1385TIP3    H125790   6.652   2.264   1.069  0.0165  1.0717  0.5611
 1385TIP3    H225791   6.790   2.318   1.100  0.9079 -0.7294 -0.0443
 1386TIP3   OH225792   3.952   0.913   0.077  0.8481 -0.1597 -0.1660
 1386TIP3    H125793   4.025   0.863   0.116  0.0954 -1.2072 -0.0616
 1386TIP3    H225794   3.888   0.920   0.148  0.2649 -0.4422 -0.6634
 1387TIP3   OH225795   1.637   0.893   1.096  0.3360 -0.2917 -0.2756
 1387TIP3    H125796   1.691   0.968   1.122  0.5783 -0.9674  1.3118
 1387TIP3    H225797   1.564   0.931   1.048  0.1619  1.0300  0.9703
 1388TIP3   OH225798   0.005   3.866   0.142  0.1744  0.0981  0.0203
 1388TIP3    H125799  -0.031   3.859   0.054 -0.6204  2.9479  0.0078
 1388TIP3    H225800   0.094   3.831   0.135 -0.1580 -0.4725 -1.6989
 1389TIP3   OH225801   2.929   1.083   8.337  0.7753 -0.1457  0.0830
 1389TIP3    H125802   2.918   1.005   8.283  1.0418 -0.4114  0.4029
 1389TIP3    H225803   2.924   1.156   8.275 -0.3882 -0.3619 -0.0973
 1390TIP3   OH225804   0.433   4.896   0.768 -0.7330 -0.6421  0.1098
 1390TIP3    H125805   0.515   4.871   0.726 -0.6237 -0.8052  0.4193
 1390TIP3    H225806   0.377   4.820   0.758  0.0192 -1.5124  2.1505
 1391TIP3   OH225807   4.777   3.192   0.007  0.2883  0.5158  0.0976
 1391TIP3    H125808   4.837   3.130   0.049 -1.2046 -0.1768  1.3197
 1391TIP3    H225809   4.691   3.149   0.012 -0.1034  0.5918 -3.3064
 1392TIP3   OH225810   0.925   0.519   7.119  0.2092  0.2808  0.3141
 1392TIP3    H125811   0.908   0.597   7.065 -0.3909  0.5503  0.8738
 1392TIP3    H225812   1.017   0.526   7.144  0.4828  0.1848 -0.6131
 1393TIP3   OH225813   4.114   0.428   7.913  0.0200 -1.1733  0.3277
 1393TIP3    H125814   4.200   0.469   7.927  0.0066 -1.2813  0.7605
 1393TIP3    H225815   4.057   0.471   7.976 -0.6912  0.1880 -1.2008
 1394TIP3   OH225816   5.965   6.213   8.221  0.4042  0.1843 -0.2345
 1394TIP3    H125817   5.970   6.125   8.183 -2.9505  0.8821 -2.8337
 1394TIP3    H225818   6.036   6.262   8.180  0.2350 -0.5176 -1.4066
 1395TIP3   OH225819   3.993   6.718   1.811  0.6272 -0.1650  0.3154
 1395TIP3    H125820   3.953   6.760   1.734 -2.3722  0.4452  2.0500
 1395TIP3    H225821   4.003   6.626   1.785 -1.0007 -0.1299 -0.5987
 1396TIP3   OH225822   1.188   1.223   0.832  0.6435  0.5400  0.7491
 1396TIP3    H125823   1.106   1.184   0.863  0.1115  1.0616  0.0250
 1396TIP3    H225824   1.224   1.158   0.772  1.1350 -0.0009  1.6045
 1397TIP3   OH225825   4.705   2.001   8.465  0.6495 -0.3913  0.0665
 1397TIP3    H125826   4.631   1.960   8.509  1.9450 -0.6444  2.1968
 1397TIP3    H225827   4.763   2.029   8.537  2.7111 -0.4017 -1.4839
 1398TIP3   OH225828   0.444   3.424   7.887 -0.1088  0.5532  0.4955
 1398TIP3    H125829   0.481   3.358   7.945 -0.1078  0.9453  0.9450
 1398TIP3    H225830   0.376   3.377   7.839  1.5848 -0.4302 -1.0539
 1399TIP3   OH225831   4.638   5.943   7.879 -0.0409 -0.6994 -0.0800
 1399TIP3    H125832   4.652   5.857   7.919  0.7820  0.3015  1.9461
 1399TIP3    H225833   4.547   5.941   7.851 -0.5134 -1.7085  1.3673
 1400TIP3   OH225834   6.015   2.885   8.325  0.8072 -0.4713 -0.0533
 1400TIP3    H125835   5.946   2.911   8.263  0.4997 -1.0457  0.0413
 1400TIP3    H225836   6.058   2.967   8.348 -0.2654 -0.0043  0.3895
 1401TIP3   OH225837   0.590   1.089   1.122 -0.2204  0.2310  0.1991
 1401TIP3    H125838   0.651   1.017   1.139  1.0887  0.7663 -1.8492
 1401TIP3    H225839   0.511   1.066   1.172  0.1522 -2.6167 -0.3317
 1402TIP3   OH225840   3.214   2.965   6.260 -0.6159  0.6622  0.2749
 1402TIP3    H125841   3.129   2.928   6.234 -0.0608 -0.3121 -0.2255
 1402TIP3    H225842   3.238   2.916   6.339  0.5837 -0.8151 -0.9391
 1403TIP3   OH225843   1.587   5.815   6.758  0.3379 -0.3007 -0.3553
 1403TIP3    H125844   1.503   5.775   6.735 -0.4057  1.1103 -0.1873
 1403TIP3    H225845   1.647   5.783   6.691 -0.5862 -0.4381 -1.1484
 1404TIP3   OH225846   0.362   0.539   0.942 -0.1384 -0.7330 -0.1273
 1404TIP3    H125847   0.394   0.559   0.854  0.7288 -0.9389  0.1380
 1404TIP3    H225848   0.268   0.524   0.930 -0.3785  1.0063 -0.7424
 1405TIP3   OH225849   4.096   2.019   0.362 -0.3791  0.5870  0.0015
 1405TIP3    H125850   4.030   2.064   0.310 -0.9754  0.0046  0.2417
 1405TIP3    H225851   4.170   2.008   0.302 -1.2409 -0.5366 -0.9234
 1406TIP3   OH225852   5.113   1.269   0.250 -0.4359  0.3966  0.5645
 1406TIP3    H125853   5.155   1.355   0.246 -1.4404  0.9007  0.5162
 1406TIP3    H225854   5.023   1.288   0.276 -0.1801 -0.7927  2.5225
 1407TIP3   OH225855   3.609   5.306   0.534  0.0224  0.0521 -0.2672
 1407TIP3    H125856   3.534   5.249   0.518 -1.0810  1.8028 -1.8839
 1407TIP3    H225857   3.665   5.293   0.457  2.1439 -2.1659  1.4783
 1408TIP3   OH225858   4.920   0.607   1.735 -0.9093  0.6230 -0.2779
 1408TIP3    H125859   4.981   0.534   1.745 -2.3175 -0.3294  2.3240
 1408TIP3    H225860   4.975   0.681   1.709  0.9546 -0.7464 -0.4212
 1409TIP3   OH225861   4.577   0.140   2.043 -0.1999 -0.3716  0.1034
 1409TIP3    H125862   4.546   0.205   1.980  1.9748 -0.7404 -1.4626
 1409TIP3    H225863   4.500   0.087   2.062 -0.9310 -0.3337 -2.4080
 1410TIP3   OH225864   5.864   4.925   7.791 -0.0701  0.4821  0.6900
 1410TIP3    H125865   5.903   4.978   7.721  0.2998  0.6746  1.0376
 1410TIP3    H225866   5.855   4.838   7.753 -1.0091  0.8635 -0.0051
 1411TIP3   OH225867   6.588   2.376   7.251 -0.0219 -0.3482  0.0230
 1411TIP3    H125868   6.494   2.383   7.237 -0.0449 -1.0986 -0.2177
 1411TIP3    H225869   6.602   2.416   7.337 -0.6858 -1.0326  0.4615
 1412TIP3   OH225870   3.031   2.507   2.042  0.0907  0.5134 -0.0241
 1412TIP3    H125871   3.072   2.494   2.127 -0.5123  3.1564  0.7863
 1412TIP3    H225872   2.940   2.480   2.055 -0.0884  1.2449  0.3153
 1413TIP3   OH225873   1.894   6.757   1.100 -0.3914 -0.2641  0.4887
 1413TIP3    H125874   1.985   6.781   1.116 -0.3407 -1.9166  3.5443
 1413TIP3    H225875   1.892   6.662   1.113 -2.2876 -0.5339 -1.2255
 1414TIP3   OH225876   5.473   6.809   0.438 -0.1236  0.3666 -0.3661
 1414TIP3    H125877   5.489   6.734   0.495 -1.3530 -0.4488 -1.0476
 1414TIP3    H225878   5.393   6.849   0.472 -0.9050 -0.1621 -1.5193
 1415TIP3   OH225879   2.798   0.557   7.030 -0.5369  0.1981  0.3821
 1415TIP3    H125880   2.709   0.539   7.001 -1.6679 -0.5857  3.8730
 1415TIP3    H225881   2.827   0.476   7.073  1.5040  0.7706  0.2294
 1416TIP3   OH225882   0.888   6.668   7.247 -0.3748 -0.0740  0.9122
 1416TIP3    H125883   0.930   6.750   7.219 -1.3432 -0.1646 -0.9987
 1416TIP3    H225884   0.955   6.623   7.299  0.9502  0.9605  0.1617
 1417TIP3   OH225885   0.652   5.799   1.583 -0.2799  0.1650  0.5816
 1417TIP3    H125886   0.696   5.811   1.499  0.5986  0.8077  1.1195
 1417TIP3    H225887   0.604   5.716   1.573 -2.4112  1.5194 -1.4738
 1418TIP3   OH225888   1.714   3.195   1.927  0.3381  0.1354 -0.2459
 1418TIP3    H125889   1.756   3.281   1.922 -2.0721  1.3545 -1.5526
 1418TIP3    H225890   1.633   3.211   1.975 -0.0942 -1.4459 -0.3916
 1419TIP3   OH225891   1.614   1.716   6.046 -0.1406 -1.0124 -0.3086
 1419TIP3    H125892   1.689   1.688   6.099  0.8721 -1.1781 -1.7523
 1419TIP3    H225893   1.597   1.641   5.989 -0.5763 -0.4936 -0.8669
 1420TIP3   OH225894   0.796   4.646   0.923 -0.4493  0.4116  0.1485
 1420TIP3    H125895   0.855   4.631   0.849  0.2772  2.8224  0.1371
 1420TIP3    H225896   0.758   4.560   0.941  1.6906 -0.8913 -1.0207
 1421TIP3   OH225897   0.616   6.920   7.049 -0.2195 -0.0115  0.0013
 1421TIP3    H125898   0.655   6.985   7.107  1.0684  0.7893 -1.6835
 1421TIP3    H225899   0.522   6.930   7.062 -0.0067  1.3881  0.6224
 1422TIP3   OH225900   4.940   1.783   7.861 -0.1017 -0.4549  0.0581
 1422TIP3    H125901   4.921   1.876   7.854  0.5885 -0.3263 -0.1858
 1422TIP3    H225902   4.855   1.742   7.879 -0.3879  0.2275  0.2721
 1423TIP3   OH225903   5.942   0.910   1.396  0.3143  0.2872 -0.3064
 1423TIP3    H125904   5.936   0.862   1.479  2.0477 -1.5799 -1.1776
 1423TIP3    H225905   5.856   0.898   1.356  0.2733 -1.0116  0.1120
 1424TIP3   OH225906   3.633   1.910   7.180 -0.0409  0.3542 -0.0617
 1424TIP3    H125907   3.682   1.911   7.262 -1.8968  0.3153  1.1152
 1424TIP3    H225908   3.693   1.870   7.116  1.8982  1.5395  0.9305
 1425TIP3   OH225909   1.330   1.894   6.113  0.8615 -0.4152 -0.2529
 1425TIP3    H125910   1.385   1.852   6.179  0.7801  0.5060  0.4255
 1425TIP3    H225911   1.246   1.850   6.119  0.8449 -0.3164  0.2958
 1426TIP3   OH225912   1.408   0.473   1.508 -0.6797  0.0586 -0.0583
 1426TIP3    H125913   1.502   0.470   1.491 -0.5754 -0.9306  0.6041
 1426TIP3    H225914   1.401   0.492   1.601 -1.1240 -0.3042 -0.0140
 1427TIP3   OH225915   6.898   4.159   7.385  0.6222 -0.2104  0.3448
 1427TIP3    H125916   6.957   4.095   7.426  0.8547  0.3884  0.9572
 1427TIP3    H225917   6.908   4.144   7.291  1.8600 -0.0318  0.4309
 1428TIP3   OH225918   1.486   0.240   8.505 -0.2934 -0.0719  0.0177
 1428TIP3    H125919   1.396   0.214   8.484 -0.9250  2.1311 -0.2378
 1428TIP3    H225920   1.496   0.218   8.598 -1.9598  1.7458  0.6978
 1429TIP3   OH225921   1.017   5.757   0.436  0.0540  0.1748 -0.1669
 1429TIP3    H125922   0.952   5.722   0.375 -1.0000  0.2538  0.8816
 1429TIP3    H225923   1.087   5.691   0.435 -0.4466 -0.3695 -0.6255
 1430TIP3   OH225924   0.728   2.866   0.059 -0.0599  0.1074  0.2724
 1430TIP3    H125925   0.793   2.919   0.011  1.7557 -0.9751  1.4253
 1430TIP3    H225926   0.659   2.928   0.082  0.3116  1.2126 -1.3863
 1431TIP3   OH225927   3.445   3.171   7.694 -0.0532 -0.1626 -0.5609
 1431TIP3    H125928   3.369   3.115   7.675 -0.7732  0.8089 -0.6116
 1431TIP3    H225929   3.486   3.186   7.609 -1.8227  2.1166 -1.1350
 1432TIP3   OH225930   3.498   6.482   7.758  0.0407 -0.0084  0.2897
 1432TIP3    H125931   3.541   6.567   7.756 -0.4696  0.2387 -0.6071
 1432TIP3    H225932   3.472   6.466   7.668 -1.2788 -0.3812  0.7121
 1433TIP3   OH225933   1.437   2.025   1.207  0.4432 -0.2705 -0.0502
 1433TIP3    H125934   1.476   2.064   1.128  1.7923 -1.5879 -0.0882
 1433TIP3    H225935   1.377   2.091   1.239 -1.4383 -0.3024 -3.1071
 1434TIP3   OH225936   2.396   1.999   6.562 -0.2977  0.1467  0.1759
 1434TIP3    H125937   2.475   1.993   6.509 -1.4972 -0.4748 -1.6418
 1434TIP3    H225938   2.379   2.093   6.570  0.2197  0.2597 -0.0510
 1435TIP3   OH225939   0.946   2.513   1.021 -0.2018 -0.2525  0.5860
 1435TIP3    H125940   0.897   2.433   1.004 -1.4750  0.4365  0.8494
 1435TIP3    H225941   0.879   2.577   1.044  0.8481  0.7188  1.0250
 1436TIP3   OH225942   6.590   3.388   7.850  0.1054  0.1426  0.0721
 1436TIP3    H125943   6.588   3.476   7.812 -2.2775  0.7792  1.4882
 1436TIP3    H225944   6.682   3.362   7.844  0.2251  0.5990 -5.0020
 1437TIP3   OH225945   2.493   3.226   8.580  0.4088  0.3555  0.0887
 1437TIP3    H125946   2.532   3.173   8.510 -0.2666  0.9011 -0.7221
 1437TIP3    H225947   2.400   3.229   8.558 -0.1016 -0.7584  1.8722
 1438TIP3   OH225948   4.511   6.239   1.357 -0.4367 -0.1031 -0.3481
 1438TIP3    H125949   4.426   6.283   1.362 -1.3215 -1.4466 -2.2793
 1438TIP3    H225950   4.549   6.271   1.276  0.7482  0.1689  0.2967
 1439TIP3   OH225951   6.602   0.757   0.141  0.0376 -0.3942 -0.5045
 1439TIP3    H125952   6.599   0.850   0.119 -0.1176 -0.4263 -0.6189
 1439TIP3    H225953   6.549   0.715   0.073  0.2512 -0.5852 -0.5527
 1440TIP3   OH225954   2.678   4.546   6.518  0.0370  0.2351 -0.4529
 1440TIP3    H125955   2.620   4.584   6.452  0.7665  1.2630 -0.5357
 1440TIP3    H225956   2.757   4.521   6.470 -0.3050 -1.1451 -0.3432
 1441TIP3   OH225957   5.681   1.496   6.580 -0.1807  0.2963  0.1937
 1441TIP3    H125958   5.646   1.411   6.606 -0.1255  0.3182  0.3390
 1441TIP3    H225959   5.710   1.536   6.662  1.7293 -0.4144 -0.0737
 1442TIP3   OH225960   2.426   6.830   0.705  0.1230  0.8198  0.5663
 1442TIP3    H125961   2.477   6.753   0.677 -0.7713  0.6883 -0.8080
 1442TIP3    H225962   2.380   6.858   0.626 -0.6623  1.9330  1.3896
 1443TIP3   OH225963   3.508   4.666   0.326 -0.7319 -0.0583  0.7419
 1443TIP3    H125964   3.504   4.755   0.359  2.3527  0.8205 -0.8309
 1443TIP3    H225965   3.520   4.612   0.404 -2.7981  0.7838  1.7336
 1444TIP3   OH225966   4.200   0.421   1.507  0.1485 -0.0929 -0.0948
 1444TIP3    H125967   4.158   0.378   1.581 -1.7938  1.1099 -0.4298
 1444TIP3    H225968   4.292   0.427   1.532 -0.3263 -0.3467  1.8977
 1445TIP3   OH225969   6.536   1.132   0.956  0.0084  0.2536  0.3652
 1445TIP3    H125970   6.554   1.218   0.917 -0.5942 -0.1598 -0.8544
 1445TIP3    H225971   6.455   1.144   1.005 -1.4556 -0.1751 -1.8087
 1446TIP3   OH225972   3.153   5.613   7.444 -0.0940 -0.6957 -0.2470
 1446TIP3    H125973   3.062   5.598   7.418 -0.2738 -1.9956  1.0697
 1446TIP3    H225974   3.189   5.665   7.372 -2.3419  1.4220  0.0151
 1447TIP3   OH225975   2.431   3.774   8.622 -0.4421 -0.5630  0.4251
 1447TIP3    H125976   2.501   3.803   8.680  0.1876 -1.0336 -0.0839
 1447TIP3    H225977   2.413   3.684   8.649 -0.1694 -0.7720 -0.0809
 1448TIP3   OH225978   1.881   0.287   7.021 -0.4305 -0.8440 -0.3062
 1448TIP3    H125979   1.950   0.289   6.955 -1.1441 -1.2435 -1.0704
 1448TIP3    H225980   1.925   0.256   7.100  0.0322 -2.2280 -1.0744
 1449TIP3   OH225981   4.584   0.383   2.199  0.2259  0.0003 -0.1885
 1449TIP3    H125982   4.563   0.472   2.227  0.0818 -0.5049  1.3718
 1449TIP3    H225983   4.680   0.380   2.196  0.2306  0.1848 -0.1894
 1450TIP3   OH225984   4.510   4.241   8.203 -0.5476 -0.0693  0.8363
 1450TIP3    H125985   4.462   4.177   8.149 -0.9967  0.9233  0.0141
 1450TIP3    H225986   4.449   4.314   8.213  0.4676  0.8568  0.5071
 1451TIP3   OH225987   3.674   3.393   0.099  0.3193 -0.3309  0.2585
 1451TIP3    H125988   3.662   3.487   0.109 -1.4066 -0.6463  1.6904
 1451TIP3    H225989   3.741   3.384   0.031  1.3471  1.9172  0.8982
 1452TIP3   OH225990   5.245   4.950   1.901  0.6258 -0.5228 -0.3216
 1452TIP3    H125991   5.269   4.923   1.812 -0.2742 -1.0809 -0.4013
 1452TIP3    H225992   5.288   4.886   1.957 -1.5173 -2.2331 -0.5100
 1453TIP3   OH225993   4.529   4.405   8.558 -0.2010  0.3255 -0.3256
 1453TIP3    H125994   4.610   4.365   8.527  1.0180  1.3706  1.3279
 1453TIP3    H225995   4.460   4.345   8.530  1.3915 -2.1544  0.7399
 1454TIP3   OH225996   0.983   3.061   0.462  0.2329 -0.0845  0.4944
 1454TIP3    H125997   1.072   3.044   0.493 -0.2853 -1.3001  1.4307
 1454TIP3    H225998   0.969   2.996   0.393  0.1904  0.3311  0.1122
 1455TIP3   OH225999   4.780   3.469   8.606  0.2880 -0.4071  0.2811
 1455TIP3    H126000   4.691   3.481   8.572  0.6548  0.2616 -0.4909
 1455TIP3    H226001   4.792   3.374   8.608  0.7101 -0.5506 -2.8483
 1456TIP3   OH226002   2.281   3.256   2.720 -0.0716 -0.0060 -0.1161
 1456TIP3    H126003   2.225   3.193   2.673  0.8999  0.3574 -1.8709
 1456TIP3    H226004   2.369   3.219   2.713  0.0440 -0.2934  2.1304
 1457TIP3   OH226005   1.566   2.101   0.761  0.3261 -0.0997 -0.3820
 1457TIP3    H126006   1.605   2.189   0.761  1.4637 -0.5190  2.0463
 1457TIP3    H226007   1.472   2.117   0.769  0.4637  0.9001 -0.5828
 1458TIP3   OH226008   4.368   4.516   0.820 -0.7139 -0.3636 -0.7666
 1458TIP3    H126009   4.419   4.439   0.795 -1.3230 -0.9342 -0.2769
 1458TIP3    H226010   4.340   4.554   0.736 -0.3345 -0.6163 -1.0123
 1459TIP3   OH226011   2.603   1.845   6.792  0.6255  0.5954 -0.0714
 1459TIP3    H126012   2.613   1.937   6.817 -2.3530  0.3755  2.4431
 1459TIP3    H226013   2.517   1.839   6.751  0.8587 -1.0572 -0.4273
 1460TIP3   OH226014   1.239   6.075   6.902  0.1180  0.3108  0.9949
 1460TIP3    H126015   1.188   6.037   6.830  1.7528  0.4789 -0.3248
 1460TIP3    H226016   1.179   6.138   6.943 -1.2203 -0.5994  0.5217
 1461TIP3   OH226017   5.517   5.208   0.159 -0.3693  0.3917  0.0749
 1461TIP3    H126018   5.474   5.238   0.078  0.3073 -0.3808 -0.5946
 1461TIP3    H226019   5.464   5.244   0.229 -1.7187  0.0383 -0.7215
 1462TIP3   OH226020   0.514   2.672   1.248  0.0206  0.1852 -0.2610
 1462TIP3    H126021   0.559   2.624   1.178  0.2160  1.6537 -1.1923
 1462TIP3    H226022   0.432   2.700   1.208  0.4203  1.5999 -0.1357
 1463TIP3   OH226023   0.141   3.430   1.815  0.6605 -0.5564  0.0582
 1463TIP3    H126024   0.138   3.387   1.901 -1.4622  0.0512  0.3450
 1463TIP3    H226025   0.051   3.459   1.800  1.5173  1.7198 -1.1630
 1464TIP3   OH226026   6.512   0.434   7.940 -0.0005 -0.0292  0.4330
 1464TIP3    H126027   6.580   0.431   8.007  0.6759  2.2258 -0.0605
 1464TIP3    H226028   6.558   0.419   7.857 -0.2748  0.4014  0.1971
 1465TIP3   OH226029   3.017   0.699   7.835 -0.1065 -0.0783  0.4153
 1465TIP3    H126030   3.101   0.719   7.876 -1.7747  3.3490  2.6753
 1465TIP3    H226031   3.029   0.722   7.743  1.4085  0.4521  0.7158
 1466TIP3   OH226032   0.165   6.259   0.621  0.0810  0.7010  0.8629
 1466TIP3    H126033   0.094   6.247   0.559  0.7951  1.1710 -0.0772
 1466TIP3    H226034   0.161   6.182   0.678  1.2103 -1.3262 -1.5885
 1467TIP3   OH226035   5.442   3.760   6.366 -0.2477 -0.2410  0.6501
 1467TIP3    H126036   5.395   3.825   6.418  2.2337  0.6129  1.9839
 1467TIP3    H226037   5.488   3.811   6.299  0.3530 -0.8076  0.6186
 1468TIP3   OH226038   5.473   4.074   7.401 -0.6508 -0.0623  0.3813
 1468TIP3    H126039   5.509   4.118   7.325 -1.6348 -1.5542 -1.0236
 1468TIP3    H226040   5.508   4.122   7.476  2.1197  0.1356 -0.9314
 1469TIP3   OH226041   3.897   3.727   7.946 -0.1370  0.0722  0.1902
 1469TIP3    H126042   3.841   3.714   8.023  0.3088 -2.7872  0.1612
 1469TIP3    H226043   3.836   3.729   7.872 -0.3752 -0.5799  0.3607
 1470TIP3   OH226044   2.735   3.232   1.214 -0.1783 -0.1597  0.5448
 1470TIP3    H126045   2.769   3.247   1.126 -2.2746  0.1969 -0.2863
 1470TIP3    H226046   2.736   3.318   1.256 -0.7761  0.0128  0.2209
 1471TIP3   OH226047   2.177   1.167   1.566 -0.5783 -0.3990  0.0165
 1471TIP3    H126048   2.187   1.246   1.618 -1.9953  0.1014 -0.4341
 1471TIP3    H226049   2.120   1.111   1.618  0.2537 -1.0550  0.2407
 1472TIP3   OH226050   2.446   3.112   0.921  0.5816 -0.7043 -0.3230
 1472TIP3    H126051   2.433   3.203   0.893  1.4261 -0.5367 -0.1944
 1472TIP3    H226052   2.522   3.083   0.872 -0.7543 -1.9638 -1.7733
 1473TIP3   OH226053   6.930   2.964   8.616 -0.1862 -0.3553 -0.0460
 1473TIP3    H126054   7.001   2.924   8.666 -0.3915  1.7871  2.1350
 1473TIP3    H226055   6.940   3.058   8.630 -3.4869  0.0583  0.5230
 1474TIP3   OH226056   3.440   3.794   7.184  0.0338 -0.3007  0.1419
 1474TIP3    H126057   3.527   3.787   7.223  0.5426  0.4090 -0.8138
 1474TIP3    H226058   3.389   3.844   7.248  0.4155 -0.4442  0.5661
 1475TIP3   OH226059   4.643   1.050   8.219 -0.1453  0.1602  0.8813
 1475TIP3    H126060   4.548   1.055   8.232 -0.2042 -1.3809  1.2761
 1475TIP3    H226061   4.679   1.043   8.307  0.2665 -0.0621  0.6972
 1476TIP3   OH226062   5.899   2.553   7.682  0.2125 -0.1664  0.5827
 1476TIP3    H126063   5.905   2.516   7.770 -1.5678 -1.6165  0.1724
 1476TIP3    H226064   5.805   2.568   7.669  0.4282  0.0322 -1.0408
 1477TIP3   OH226065   5.317   6.355   6.925 -0.1138  0.1667 -0.0399
 1477TIP3    H126066   5.262   6.365   7.003 -0.7788 -2.5904 -0.0469
 1477TIP3    H226067   5.255   6.345   6.853  0.2724 -2.9567 -0.0558
 1478TIP3   OH226068   0.541   1.249   7.937 -0.0043  0.1662  0.5195
 1478TIP3    H126069   0.544   1.315   8.006  2.2917  1.0511 -0.3269
 1478TIP3    H226070   0.508   1.295   7.860  2.1283  0.5647 -0.2225
 1479TIP3   OH226071   3.256   6.735   0.560 -0.0795  0.1293 -0.4441
 1479TIP3    H126072   3.252   6.831   0.561  0.3180  0.1895 -1.8508
 1479TIP3    H226073   3.338   6.714   0.605 -0.3534  0.4281  0.2041
 1480TIP3   OH226074   5.888   3.865   8.007 -0.1818  0.5858 -0.2090
 1480TIP3    H126075   5.817   3.924   7.979 -0.9325  0.8216  2.0103
 1480TIP3    H226076   5.903   3.887   8.098  1.9842 -0.2897 -0.3003
 1481TIP3   OH226077   6.154   0.085   1.246  0.6509  0.1424  0.0032
 1481TIP3    H126078   6.060   0.070   1.240  0.5859  0.8025 -0.6685
 1481TIP3    H226079   6.194   0.008   1.204  0.4188 -0.1453  0.3033
 1482TIP3   OH226080   5.960   0.127   8.578  0.1366  0.2554  0.2074
 1482TIP3    H126081   5.934   0.035   8.580  1.5577 -0.1588  2.2648
 1482TIP3    H226082   5.924   0.163   8.659 -0.6553  1.6320 -0.7132
 1483TIP3   OH226083   2.237   3.548   7.979 -0.1970 -0.1256  0.3217
 1483TIP3    H126084   2.208   3.472   8.030 -1.3125  0.7682  1.0763
 1483TIP3    H226085   2.324   3.569   8.015 -0.4606 -0.2394  1.0464
 1484TIP3   OH226086   3.867   6.083   0.012  0.1894  0.0153 -0.8154
 1484TIP3    H126087   3.886   6.072  -0.081 -0.0423  1.1623 -1.0094
 1484TIP3    H226088   3.842   6.175   0.021 -2.3971 -0.6616 -0.0982
 1485TIP3   OH226089   4.374   4.889   0.300 -0.2545  0.4077  0.5222
 1485TIP3    H126090   4.381   4.811   0.354 -0.1987  0.4506  0.5764
 1485TIP3    H226091   4.439   4.876   0.231  1.1289  1.2833  1.6127
 1486TIP3   OH226092   3.300   3.974   1.024  0.2847 -0.3452 -0.3612
 1486TIP3    H126093   3.365   3.954   1.091 -0.3338  0.7179  0.6000
 1486TIP3    H226094   3.216   3.963   1.069 -0.1904 -0.8517 -1.3375
 1487TIP3   OH226095   2.947   0.795   7.213 -0.2855 -0.6638  0.0760
 1487TIP3    H126096   2.906   0.882   7.221 -0.2989 -0.4586 -1.8707
 1487TIP3    H226097   2.895   0.739   7.271 -1.5419  0.2023 -0.1629
 1488TIP3   OH226098   1.738   2.543   0.622  0.4268 -0.0389 -0.0211
 1488TIP3    H126099   1.759   2.498   0.540 -1.0280  0.6060 -0.7781
 1488TIP3    H226100   1.676   2.612   0.597  0.3019  0.4668  1.5569
 1489TIP3   OH226101   6.622   4.216   1.137  0.0817 -0.0183  0.5016
 1489TIP3    H126102   6.621   4.295   1.083  1.3296 -0.9384 -0.9505
 1489TIP3    H226103   6.578   4.242   1.218 -2.7128  1.1930 -1.2540
 1490TIP3   OH226104   6.425   6.900   8.295 -0.2423 -0.4146  0.4159
 1490TIP3    H126105   6.451   6.984   8.332 -1.5482 -0.0436  0.5352
 1490TIP3    H226106   6.336   6.887   8.326 -1.0138 -0.6069 -1.7455
 1491TIP3   OH226107   0.617   3.136   7.935 -0.8165  0.2185 -0.1136
 1491TIP3    H126108   0.710   3.146   7.953  0.1927 -4.7542 -1.2120
 1491TIP3    H226109   0.581   3.099   8.016 -2.0448  2.2727  0.3759
 1492TIP3   OH226110   3.611   4.892   2.236 -0.3075  0.3316 -0.1117
 1492TIP3    H126111   3.622   4.929   2.148 -2.5353  0.2864 -0.4754
 1492TIP3    H226112   3.534   4.836   2.228  0.6223 -1.2580  1.4149
 1493TIP3   OH226113   1.159   0.900   8.083  0.2701  0.0607 -0.2051
 1493TIP3    H126114   1.077   0.915   8.038 -0.3362  1.8506  1.3890
 1493TIP3    H226115   1.194   0.987   8.101  2.0477 -0.6443  0.0053
 1494TIP3   OH226116   3.011   5.109   0.573  0.1666  0.4348 -0.0300
 1494TIP3    H126117   2.948   5.177   0.595 -1.1722 -0.7340 -0.1001
 1494TIP3    H226118   3.069   5.149   0.508  1.0539  2.3145  1.8044
 1495TIP3   OH226119   5.397   0.870   0.131 -0.2064 -0.0757  0.0707
 1495TIP3    H126120   5.432   0.885   0.219 -1.7014  2.0654  0.3858
 1495TIP3    H226121   5.305   0.896   0.138 -0.3461  0.1945 -2.1337
 1496TIP3   OH226122   2.394   4.339   2.106 -0.4702 -0.1087  0.0351
 1496TIP3    H126123   2.479   4.317   2.069 -0.3647  0.1114  0.1419
 1496TIP3    H226124   2.406   4.329   2.200 -0.4380  0.3372  0.0800
 1497TIP3   OH226125   5.113   1.091   2.309  0.4632  0.0578  0.4658
 1497TIP3    H126126   5.068   1.176   2.306  1.2904  0.6434  2.5249
 1497TIP3    H226127   5.107   1.065   2.401  3.7971 -0.1045  0.7313
 1498TIP3   OH226128   4.969   4.267   0.352 -0.1673 -0.0532  0.3492
 1498TIP3    H126129   4.923   4.252   0.269 -1.1863  0.4547  0.8014
 1498TIP3    H226130   4.946   4.192   0.406 -0.5480  0.2394  0.6031
 1499TIP3   OH226131   0.162   6.906   0.632 -0.9189 -0.3719  0.5824
 1499TIP3    H126132   0.186   6.824   0.675 -0.9600 -0.3222  0.7000
 1499TIP3    H226133   0.190   6.894   0.541 -0.7658 -0.4475  0.6401
 1500TIP3   OH226134   3.299   5.702   8.259  0.7151  0.2380 -0.4398
 1500TIP3    H126135   3.321   5.615   8.225  0.8364  0.4858 -1.0123
 1500TIP3    H226136   3.305   5.760   8.183 -2.7624  0.2160 -0.9047
 1501TIP3   OH226137   4.911   3.036   0.283 -0.1315  0.0727 -0.2798
 1501TIP3    H126138   4.853   3.052   0.357  0.8134 -1.8368  0.9668
 1501TIP3    H226139   4.861   2.980   0.224 -0.3949  0.4514 -0.4211
 1502TIP3   OH226140   6.579   6.347   1.479  0.1074  0.0832 -0.3228
 1502TIP3    H126141   6.599   6.440   1.466  0.1748  0.1107 -0.0371
 1502TIP3    H226142   6.533   6.344   1.563 -0.9115 -0.0088 -0.8806
 1503TIP3   OH226143   6.620   5.280   0.206  0.1550  0.0131  0.1581
 1503TIP3    H126144   6.590   5.250   0.292 -0.9315 -0.3273 -0.3199
 1503TIP3    H226145   6.548   5.335   0.174  0.1180 -0.6455 -0.9307
 1504TIP3   OH226146   2.808   4.674   1.183 -0.9300 -0.9239 -0.0536
 1504TIP3    H126147   2.828   4.580   1.186 -0.1671 -0.8826 -2.2941
 1504TIP3    H226148   2.841   4.703   1.098 -1.0926  1.4091  0.6126
 1505TIP3   OH226149   0.829   0.237   7.013  0.3256  0.3932 -0.1874
 1505TIP3    H126150   0.853   0.190   6.933  0.1426 -0.5056  0.2824
 1505TIP3    H226151   0.913   0.255   7.056  0.3246 -0.7440  0.3223
 1506TIP3   OH226152   4.532   3.928   2.536 -0.0908 -0.3651 -0.1687
 1506TIP3    H126153   4.605   3.868   2.521 -1.0052 -1.0977 -1.9272
 1506TIP3    H226154   4.461   3.871   2.567 -0.5227  0.0152 -0.4508
 1507TIP3   OH226155   5.183   3.851   7.868  0.0661 -0.1097  0.4450
 1507TIP3    H126156   5.207   3.760   7.852 -0.4051 -0.1167 -0.2567
 1507TIP3    H226157   5.116   3.846   7.936  0.8995 -0.1902  1.2917
 1508TIP3   OH226158   6.035   4.715   2.078 -0.1805  0.2558  0.5007
 1508TIP3    H126159   6.099   4.760   2.133 -0.1899  0.4018  0.3920
 1508TIP3    H226160   6.075   4.713   1.991 -0.4368  0.5878  0.3696
 1509TIP3   OH226161   4.007   0.030   2.174 -0.7862 -0.8267  0.4583
 1509TIP3    H126162   4.015  -0.058   2.211  0.6814 -1.1705 -0.5715
 1509TIP3    H226163   4.075   0.081   2.218 -1.2232 -0.3673  0.6076
 1510TIP3   OH226164   5.548   3.480   1.201 -0.3764 -0.2192 -0.4713
 1510TIP3    H126165   5.591   3.394   1.209  1.0501  0.4934 -0.0246
 1510TIP3    H226166   5.500   3.475   1.119 -1.5447 -1.9517  0.2559
 1511TIP3   OH226167   2.467   2.778   0.049  0.0030  0.1788 -0.0677
 1511TIP3    H126168   2.375   2.793   0.026 -0.1160 -0.7991 -0.2648
 1511TIP3    H226169   2.491   2.854   0.102 -0.7874  0.6636 -0.3912
 1512TIP3   OH226170   2.365   3.188   7.710 -0.2798 -0.1814 -0.0938
 1512TIP3    H126171   2.325   3.269   7.679  0.9839  0.1485 -0.9443
 1512TIP3    H226172   2.458   3.209   7.719  0.0106 -1.4302  0.0468
 1513TIP3   OH226173   3.272   6.461   8.310 -0.5358 -0.4391  0.3524
 1513TIP3    H126174   3.256   6.483   8.218  0.1125  0.3915  0.4282
 1513TIP3    H226175   3.185   6.442   8.345 -0.8506 -0.2735 -0.3099
 1514TIP3   OH226176   5.153   3.386   1.888 -0.1558 -0.2061 -0.0397
 1514TIP3    H126177   5.086   3.441   1.848 -0.9282  0.1476  1.6568
 1514TIP3    H226178   5.125   3.376   1.979  1.5872 -0.8721  0.4653
 1515TIP3   OH226179   1.434   1.249   8.331 -0.1656 -0.1665 -0.0733
 1515TIP3    H126180   1.439   1.328   8.384  0.1378 -0.7851  0.8594
 1515TIP3    H226181   1.500   1.190   8.370  0.7278 -0.3192 -1.6997
 1516TIP3   OH226182   3.254   3.279   2.004 -0.0902  0.4147 -0.1786
 1516TIP3    H126183   3.252   3.317   2.091  1.0742 -0.8721  0.4564
 1516TIP3    H226184   3.339   3.305   1.968 -0.5557  0.9339 -0.9586
 1517TIP3   OH226185   5.671   4.254   0.378  0.1755  0.0323  0.5434
 1517TIP3    H126186   5.651   4.270   0.286  0.6272  0.0346  0.4459
 1517TIP3    H226187   5.611   4.184   0.404  1.9622 -1.9908 -0.5242
 1518TIP3   OH226188   0.136   3.684   6.465 -0.1221 -0.5144  0.2626
 1518TIP3    H126189   0.053   3.692   6.512  0.7442  1.0875  1.6022
 1518TIP3    H226190   0.155   3.590   6.466 -1.8409 -0.8978  0.0205
 1519TIP3   OH226191   5.492   1.392   1.073  0.2998  0.1167 -0.3704
 1519TIP3    H126192   5.416   1.366   1.126 -0.3211  3.0148  0.3433
 1519TIP3    H226193   5.566   1.386   1.133  0.1810 -0.0893 -0.2434
 1520TIP3   OH226194   0.573   0.402   1.590 -0.1345 -0.2450 -0.0181
 1520TIP3    H126195   0.613   0.370   1.508  0.5622 -0.4320  0.3860
 1520TIP3    H226196   0.570   0.497   1.579 -0.4785 -0.3023 -0.4540
 1521TIP3   OH226197   6.617   2.156   1.345  0.1578  0.0082  0.0402
 1521TIP3    H126198   6.547   2.097   1.372 -0.4981  0.2152 -1.1057
 1521TIP3    H226199   6.579   2.206   1.272  1.4826  0.1363 -0.6014
 1522TIP3   OH226200   5.479   6.130   6.885 -0.8255 -0.4750 -0.6590
 1522TIP3    H126201   5.442   6.060   6.831 -0.4944  0.4287 -2.1160
 1522TIP3    H226202   5.441   6.211   6.849  0.0519  0.2183 -0.0731
 1523TIP3   OH226203   6.113   0.507   7.209  0.1112  0.5076 -0.5356
 1523TIP3    H126204   6.057   0.540   7.138 -1.2768  1.4805  0.9543
 1523TIP3    H226205   6.051   0.477   7.276  1.3909 -0.7438  0.1421
 1524TIP3   OH226206   5.422   3.865   0.067  0.5332  0.1446 -0.1834
 1524TIP3    H126207   5.497   3.920   0.040  0.9923  0.8235  2.2412
 1524TIP3    H226208   5.421   3.794   0.003  1.9387  1.2407 -1.5273
 1525TIP3   OH226209   3.533   3.874   1.127  0.0322 -0.0825  0.2477
 1525TIP3    H126210   3.580   3.956   1.113 -0.9101  0.7851  1.8689
 1525TIP3    H226211   3.596   3.817   1.171  0.2507  0.3063  0.4433
 1526TIP3   OH226212   2.949   3.318   8.483  0.8185 -0.7878 -0.5796
 1526TIP3    H126213   2.869   3.361   8.515  1.5202 -0.1171  0.3215
 1526TIP3    H226214   3.019   3.378   8.505  1.4407 -0.6285 -2.7939
 1527TIP3   OH226215   0.071   6.340   1.718  0.2921 -0.1749 -0.0541
 1527TIP3    H126216   0.052   6.421   1.669  1.8184  1.3533  1.7274
 1527TIP3    H226217  -0.008   6.324   1.768 -0.8823 -1.1423 -2.0854
 1528TIP3   OH226218   5.605   3.543   6.414 -0.2488  0.1414 -0.3093
 1528TIP3    H126219   5.541   3.492   6.464 -0.7835  2.5522  1.6403
 1528TIP3    H226220   5.553   3.609   6.368  0.5142 -0.3690 -1.9823
 1529TIP3   OH226221   0.358   6.614   1.661 -0.5787 -0.5123 -0.4871
 1529TIP3    H126222   0.340   6.530   1.619 -2.4642  0.1382 -1.0819
 1529TIP3    H226223   0.367   6.676   1.589 -0.7758  0.0716 -0.0222
 1530TIP3   OH226224   0.727   1.361   0.618  0.5156  0.6570  1.0952
 1530TIP3    H126225   0.817   1.337   0.594  0.6100  2.0697 -0.0971
 1530TIP3    H226226   0.673   1.318   0.552  0.3863  0.5266  1.2870
 1531TIP3   OH226227   6.654   6.315   7.441  0.1012  0.7522 -0.2700
 1531TIP3    H126228   6.739   6.359   7.435 -0.2143  1.4189 -0.0190
 1531TIP3    H226229   6.599   6.378   7.488 -0.1803 -0.1954  0.7151
 1532TIP3   OH226230   6.674   5.096   7.282  0.6104 -0.1065 -0.2031
 1532TIP3    H126231   6.659   5.040   7.358 -0.1947 -0.2282 -0.4436
 1532TIP3    H226232   6.586   5.123   7.254  0.9558  0.7575 -0.4799
 1533TIP3   OH226233   5.705   4.542   0.368  0.0787  0.4812 -0.2493
 1533TIP3    H126234   5.660   4.468   0.409 -0.7617  1.4260  0.5956
 1533TIP3    H226235   5.670   4.619   0.412  1.3376  1.3660 -0.7298
 1534TIP3   OH226236   2.084   6.758   6.470  0.2230  0.3301  0.0160
 1534TIP3    H126237   2.008   6.709   6.437  0.8160 -0.7158  0.1359
 1534TIP3    H226238   2.047   6.824   6.527 -0.5540 -1.3354  1.5409
 1535TIP3   OH226239   2.274   6.074   1.407 -0.6966 -0.1458 -0.4894
 1535TIP3    H126240   2.301   6.135   1.338 -0.4452  0.5317  0.2009
 1535TIP3    H226241   2.348   6.072   1.468 -1.9058  1.2600  1.1065
 1536TIP3   OH226242   0.065   4.332   8.379  0.1358 -0.1876  0.3168
 1536TIP3    H126243   0.009   4.268   8.336  0.4151 -1.3622  1.6223
 1536TIP3    H226244   0.139   4.344   8.318 -0.1126 -0.8116 -0.1177
 1537TIP3   OH226245   0.381   0.681   2.048 -0.0736 -0.5008 -0.0757
 1537TIP3    H126246   0.316   0.697   2.117  0.6566  2.7436  0.0282
 1537TIP3    H226247   0.458   0.648   2.095  0.8486  2.8352  1.0201
 1538TIP3   OH226248   3.482   3.575   7.470  0.3487 -0.0704 -0.0329
 1538TIP3    H126249   3.422   3.604   7.538  0.6700 -0.3649  0.3868
 1538TIP3    H226250   3.426   3.536   7.404  0.1827 -3.5240  1.8947
 1539TIP3   OH226251   3.399   3.953   2.758  0.1443 -0.6476 -0.0469
 1539TIP3    H126252   3.366   3.916   2.677 -0.1668 -1.5045  0.4644
 1539TIP3    H226253   3.491   3.971   2.741  0.0058 -0.5396 -0.6835
 1540TIP3   OH226254   6.711   6.105   0.256  0.4254 -0.3791  0.4833
 1540TIP3    H126255   6.626   6.103   0.301  0.9724 -3.0689  1.5906
 1540TIP3    H226256   6.767   6.048   0.309  2.1105 -0.9382 -1.7741
 1541TIP3   OH226257   1.728   5.692   6.574 -0.1963 -0.4752  0.1769
 1541TIP3    H126258   1.805   5.654   6.616  1.0073  0.9599 -0.6713
 1541TIP3    H226259   1.664   5.621   6.574  0.8886 -1.4990  1.4814
 1542TIP3   OH226260   2.089   5.787   1.998  0.4936 -0.1297 -0.3389
 1542TIP3    H126261   2.117   5.701   1.965 -1.5583 -0.1823 -2.1268
 1542TIP3    H226262   1.996   5.777   2.016 -0.2454  2.1359 -2.3175
 1543TIP3   OH226263   4.147   1.606   0.307 -0.1422  0.2280  0.1059
 1543TIP3    H126264   4.094   1.597   0.385 -0.2026  2.7956  0.4646
 1543TIP3    H226265   4.102   1.674   0.255  0.3987 -0.7392 -1.7129
 1544TIP3   OH226266   1.387   1.470   0.230 -0.1917 -0.0530  0.7428
 1544TIP3    H126267   1.418   1.487   0.319  0.9925  0.1097  0.3166
 1544TIP3    H226268   1.427   1.387   0.205  0.4697  0.4784 -0.0565
 1545TIP3   OH226269   5.442   6.711   1.527 -0.1717 -0.1478 -0.0343
 1545TIP3    H126270   5.474   6.655   1.457 -2.8827  0.0868 -1.6168
 1545TIP3    H226271   5.406   6.649   1.592  2.0788 -0.3535  1.0962
 1546TIP3   OH226272   3.435   5.697   2.193  0.1531 -0.0638 -0.0785
 1546TIP3    H126273   3.479   5.781   2.183  2.4460 -1.2317 -0.5423
 1546TIP3    H226274   3.350   5.709   2.151  0.8233  1.7411 -1.0087
 1547TIP3   OH226275   2.659   0.183   7.894  0.0468  0.0123  0.1376
 1547TIP3    H126276   2.657   0.258   7.954 -0.1693 -0.1875  0.3815
 1547TIP3    H226277   2.701   0.113   7.944  0.2232 -0.0368 -0.0808
 1548TIP3   OH226278   6.611   4.383   7.134 -0.8088  0.3083 -0.1026
 1548TIP3    H126279   6.549   4.320   7.171 -0.5765  1.2189  1.9846
 1548TIP3    H226280   6.565   4.467   7.141  0.6726  1.0271  1.6528
 1549TIP3   OH226281   6.072   2.883   7.727 -0.2397  0.6275 -0.4858
 1549TIP3    H126282   6.108   2.882   7.638  0.8217  2.7391 -0.1441
 1549TIP3    H226283   6.073   2.791   7.754  0.9968  0.1316 -2.0483
 1550TIP3   OH226284   2.684   4.336   6.148  0.5880  0.3337 -0.5498
 1550TIP3    H126285   2.728   4.297   6.223 -1.6861 -0.3598  0.5338
 1550TIP3    H226286   2.714   4.426   6.146 -0.2779  0.7742  2.1025
 1551TIP3   OH226287   1.704   6.664   0.862 -0.2590 -0.5279 -0.4536
 1551TIP3    H126288   1.649   6.736   0.893  0.3891 -0.3454  0.3021
 1551TIP3    H226289   1.723   6.612   0.940  3.4213  1.2834  0.0879
 1552TIP3   OH226290   3.273   6.646   0.295  0.8151 -0.7057  0.1116
 1552TIP3    H126291   3.369   6.640   0.287  0.7939 -2.2538  0.7157
 1552TIP3    H226292   3.259   6.667   0.387  0.5863  1.4285 -0.3470
 1553TIP3   OH226293   2.447   1.420   0.164  0.2571 -0.0491 -0.2323
 1553TIP3    H126294   2.454   1.327   0.141  1.6644  0.0084 -0.0966
 1553TIP3    H226295   2.416   1.420   0.254  0.9653 -0.4079  0.0164
 1554TIP3   OH226296   0.579   1.659   7.716 -0.2279 -0.8101  0.3903
 1554TIP3    H126297   0.619   1.694   7.636 -2.1594  0.2231 -0.1838
 1554TIP3    H226298   0.605   1.721   7.785  0.9923 -1.4028  0.4848
 1555TIP3   OH226299   5.074   3.061   7.325 -0.2910  1.1924  0.0086
 1555TIP3    H126300   5.068   3.009   7.245 -3.5809  4.4562 -2.2641
 1555TIP3    H226301   5.145   3.123   7.308 -1.4673  2.3702 -0.8782
 1556TIP3   OH226302   0.598   0.280   8.412 -0.0389  0.5159 -0.3583
 1556TIP3    H126303   0.670   0.342   8.407 -1.2621  2.2147  1.5002
 1556TIP3    H226304   0.537   0.308   8.344  0.3009  0.0697 -0.8578
 1557TIP3   OH226305   1.439   3.521   6.979  0.4154 -0.4312  0.8228
 1557TIP3    H126306   1.499   3.563   6.917 -2.3701  1.6714 -0.6873
 1557TIP3    H226307   1.422   3.435   6.941  0.4975 -0.0516 -0.1005
 1558TIP3   OH226308   1.349   3.624   0.406 -0.0740  0.6095 -0.5905
 1558TIP3    H126309   1.422   3.663   0.453 -0.0007 -1.0168  0.7227
 1558TIP3    H226310   1.272   3.670   0.439  0.1514  0.7389 -0.2394
 1559TIP3   OH226311   3.554   3.058   0.605  0.2306  0.2642  0.5586
 1559TIP3    H126312   3.632   3.065   0.660  1.0836 -0.0843 -0.5663
 1559TIP3    H226313   3.588   3.044   0.516 -1.0794  1.9586 -0.2660
 1560TIP3   OH226314   2.034   4.958   8.163 -0.1206  0.0836 -0.0262
 1560TIP3    H126315   1.954   4.954   8.215 -0.6684  0.7710 -0.7876
 1560TIP3    H226316   2.032   4.878   8.110 -1.4110  1.0822 -1.5751
 1561TIP3   OH226317   0.327   2.239   1.665 -0.2162  0.5968 -0.1634
 1561TIP3    H126318   0.380   2.204   1.593 -1.2591 -0.0188 -0.6426
 1561TIP3    H226319   0.360   2.329   1.676 -1.5211  1.5510 -2.9525
 1562TIP3   OH226320   1.933   3.292   7.127  0.1785 -0.0007 -0.7499
 1562TIP3    H126321   1.853   3.344   7.127  0.2251  0.3515  2.9617
 1562TIP3    H226322   2.002   3.354   7.102 -0.0812  1.1852  1.2787
 1563TIP3   OH226323   2.716   6.263   0.340  0.0098  0.2334  0.3485
 1563TIP3    H126324   2.668   6.320   0.400 -1.0979 -0.5903  0.2924
 1563TIP3    H226325   2.692   6.293   0.253  1.2539  1.1322  0.2864
 1564TIP3   OH226326   4.428   4.749   7.432 -0.2652  0.4881  0.2013
 1564TIP3    H126327   4.491   4.739   7.361  0.0245 -1.3613  0.6741
 1564TIP3    H226328   4.342   4.747   7.389 -0.0615  1.2713 -0.2625
 1565TIP3   OH226329   4.757   2.969   7.355 -0.1404 -0.6103 -0.0142
 1565TIP3    H126330   4.825   3.032   7.333  0.1333 -0.1041  2.0206
 1565TIP3    H226331   4.725   2.936   7.271  0.8550  1.0168 -1.0690
 1566TIP3   OH226332   5.904   6.204   6.872  0.0530 -0.0571  0.5696
 1566TIP3    H126333   5.904   6.135   6.806  1.6196  0.6746 -0.2669
 1566TIP3    H226334   5.830   6.184   6.928  1.0325 -3.0195  0.9929
 1567TIP3   OH226335   2.242   1.352   7.176  0.4199  0.9879  0.2081
 1567TIP3    H126336   2.287   1.319   7.254 -0.9030 -3.4658 -0.6054
 1567TIP3    H226337   2.297   1.324   7.103 -0.2413  1.6998 -0.5773
 1568TIP3   OH226338   4.534   1.377   6.661  0.1080  0.3252  0.1642
 1568TIP3    H126339   4.614   1.335   6.692  0.5209  0.3231 -0.8444
 1568TIP3    H226340   4.479   1.305   6.630  0.4437  0.4357 -0.7324
 1569TIP3   OH226341   4.822   1.975   0.610 -0.1267  0.0114 -0.1329
 1569TIP3    H126342   4.733   2.012   0.605 -0.8768 -1.5987  0.6543
 1569TIP3    H226343   4.871   2.040   0.660 -1.5328 -0.1905  1.6369
 1570TIP3   OH226344   3.406   4.116   0.102  0.0222 -0.2268 -0.2688
 1570TIP3    H126345   3.433   4.205   0.076 -0.0228 -0.4361 -1.0620
 1570TIP3    H226346   3.468   4.058   0.059 -1.1316 -0.6709 -1.4104
 1571TIP3   OH226347   6.446   3.143   6.790  0.0549  0.2336  0.5752
 1571TIP3    H126348   6.506   3.190   6.731 -1.0548 -0.6063 -1.2945
 1571TIP3    H226349   6.389   3.211   6.825  1.4989  0.9217  1.7199
 1572TIP3   OH226350   0.844   6.262   7.140 -0.1046  0.0046  0.4476
 1572TIP3    H126351   0.902   6.336   7.156 -0.7391  0.4856  0.5574
 1572TIP3    H226352   0.773   6.273   7.202 -1.8410  1.0804 -1.6084
 1573TIP3   OH226353   0.745   3.877   7.427  0.2991  0.1233  0.3969
 1573TIP3    H126354   0.762   3.845   7.515  0.5509  0.0247  0.3133
 1573TIP3    H226355   0.700   3.960   7.440 -1.1688 -0.6690  0.6206
 1574TIP3   OH226356   1.471   0.272   7.830 -0.1104 -0.0183  0.1549
 1574TIP3    H126357   1.532   0.273   7.904 -1.2745 -1.3116  1.1861
 1574TIP3    H226358   1.385   0.277   7.870 -0.8790 -2.7649 -0.9318
 1575TIP3   OH226359   1.641   0.275   6.874 -0.4374 -0.3650 -0.3842
 1575TIP3    H126360   1.674   0.191   6.842 -1.1437 -0.3033 -1.3139
 1575TIP3    H226361   1.699   0.298   6.946 -0.7541 -2.0775  0.4649
 1576TIP3   OH226362   4.047   5.673   8.227 -0.0980 -0.1816  0.3213
 1576TIP3    H126363   4.008   5.619   8.159 -0.9167 -1.7801  1.9631
 1576TIP3    H226364   3.999   5.756   8.223 -0.9239 -0.6771 -0.2942
 1577TIP3   OH226365   4.856   6.029   6.172  0.2845 -0.0481 -0.3311
 1577TIP3    H126366   4.898   6.087   6.108 -1.4554 -0.4751 -1.9423
 1577TIP3    H226367   4.883   5.941   6.146  2.1213 -0.1094  1.5171
 1578TIP3   OH226368   1.245   4.687   0.945 -0.6535 -0.6661 -0.0215
 1578TIP3    H126369   1.323   4.743   0.947 -1.2996  0.3889 -1.7299
 1578TIP3    H226370   1.244   4.644   1.030  1.7478 -0.6647  0.0773
 1579TIP3   OH226371   5.454   4.026   6.994  0.2279  0.1310 -0.0693
 1579TIP3    H126372   5.500   3.947   7.023 -0.2818  0.0953  0.6758
 1579TIP3    H226373   5.470   4.029   6.900  1.0425 -0.3404  0.0364
 1580TIP3   OH226374   4.537   2.396   7.261 -0.0086 -0.1286  0.1141
 1580TIP3    H126375   4.525   2.373   7.169 -1.9239 -1.2079  0.5907
 1580TIP3    H226376   4.561   2.489   7.259 -0.4321 -0.0217 -1.4470
 1581TIP3   OH226377   6.635   5.260   0.928 -0.1756  0.3223 -0.1369
 1581TIP3    H126378   6.627   5.342   0.881 -0.1902  0.4746  0.1299
 1581TIP3    H226379   6.677   5.200   0.866 -2.4036 -0.2113 -1.2292
 1582TIP3   OH226380   0.937   0.544   0.227 -0.5432  0.2823  0.5094
 1582TIP3    H126381   0.987   0.596   0.164  1.2621  0.2239  1.8079
 1582TIP3    H226382   0.966   0.576   0.313 -4.8169  2.2082  1.5084
 1583TIP3   OH226383   1.471   3.906   7.317  0.0381 -0.1576  0.3637
 1583TIP3    H126384   1.555   3.951   7.304 -0.7305  1.1917 -0.1687
 1583TIP3    H226385   1.474   3.875   7.408  1.2019 -0.3567  0.2716
 1584TIP3   OH226386   6.679   3.775   1.691 -0.1806  0.1693  0.4126
 1584TIP3    H126387   6.606   3.809   1.638 -0.5979  0.2730  1.0321
 1584TIP3    H226388   6.640   3.704   1.742 -0.5123  1.8073  2.5814
 1585TIP3   OH226389   0.364   0.478   1.748 -0.0289  0.4069  0.4269
 1585TIP3    H126390   0.308   0.402   1.765  0.4083 -0.6407 -2.3403
 1585TIP3    H226391   0.440   0.443   1.702  2.1390  2.0432  2.5351
 1586TIP3   OH226392   1.906   1.377   0.176  0.5561 -0.3151 -0.9502
 1586TIP3    H126393   1.976   1.312   0.173 -0.3100 -1.2673 -1.6423
 1586TIP3    H226394   1.879   1.387   0.085 -1.5444 -1.5446 -0.5375
 1587TIP3   OH226395   3.601   5.226   6.855 -0.2538 -0.2520 -0.6516
 1587TIP3    H126396   3.571   5.218   6.945  2.3500 -0.0958  0.3214
 1587TIP3    H226397   3.657   5.149   6.842  0.3837  0.3653 -1.7062
 1588TIP3   OH226398   5.097   6.755   6.334  0.0292  0.0408  0.1245
 1588TIP3    H126399   5.064   6.665   6.328  0.2600 -0.0099 -0.4636
 1588TIP3    H226400   5.018   6.809   6.328 -0.1324 -0.1257  0.7107
 1589TIP3   OH226401   1.082   2.983   1.744 -0.0241 -0.1271 -0.0572
 1589TIP3    H126402   1.104   2.905   1.795 -2.4665 -0.2538  0.9433
 1589TIP3    H226403   1.063   3.050   1.810 -0.4854  0.5426 -0.8453
 1590TIP3   OH226404   5.738   1.934   8.520 -0.0442  0.0795 -0.2367
 1590TIP3    H126405   5.760   2.027   8.506 -0.7405  0.5037  1.3405
 1590TIP3    H226406   5.656   1.936   8.569  0.2470 -1.3765  0.3482
 1591TIP3   OH226407   3.238   3.714   1.629  0.0511  0.5760 -0.0939
 1591TIP3    H126408   3.261   3.648   1.694 -0.0846 -1.1767 -1.7572
 1591TIP3    H226409   3.294   3.694   1.554 -2.3938  0.1530 -1.9065
 1592TIP3   OH226410   6.151   3.525   6.492 -0.2525 -0.2855 -0.3309
 1592TIP3    H126411   6.057   3.528   6.477 -0.3881 -1.5315  0.1667
 1592TIP3    H226412   6.168   3.436   6.523  0.8636  0.3516  1.0386
 1593TIP3   OH226413   4.339   2.735   2.535  0.0973  0.2948 -0.1765
 1593TIP3    H126414   4.366   2.826   2.546  0.2545  0.3157 -0.6934
 1593TIP3    H226415   4.267   2.723   2.596 -0.2655  0.9186 -0.4749
 1594TIP3   OH226416   0.703   4.400   7.463 -0.0379 -0.0036 -0.1603
 1594TIP3    H126417   0.643   4.474   7.461 -1.5484 -0.8481  4.0080
 1594TIP3    H226418   0.777   4.430   7.516 -0.4003 -1.2264  1.0985
 1595TIP3   OH226419   0.690   1.265   8.453  0.1977 -0.0545 -0.3081
 1595TIP3    H126420   0.608   1.279   8.501 -0.6680 -1.8553 -1.1536
 1595TIP3    H226421   0.756   1.313   8.503 -1.2232  0.7964  0.8361
 1596TIP3   OH226422   6.257   0.726   2.114 -0.1109  0.5496 -0.0892
 1596TIP3    H126423   6.178   0.749   2.162 -1.4782  2.0481 -2.8179
 1596TIP3    H226424   6.298   0.810   2.093  0.6203 -0.0613 -1.2098
 1597TIP3   OH226425   3.011   4.411   7.032 -0.0480 -0.2041 -0.0421
 1597TIP3    H126426   2.998   4.340   6.969 -2.7545  0.1447  0.0046
 1597TIP3    H226427   3.009   4.491   6.978  2.2658 -0.0438 -0.0057
 1598TIP3   OH226428   1.272   6.561   8.430 -0.1255  0.3116 -0.3772
 1598TIP3    H126429   1.187   6.523   8.406 -0.2999  0.0661  0.5857
 1598TIP3    H226430   1.334   6.519   8.371 -0.6962  0.6539 -1.2408
 1599TIP3   OH226431   5.924   6.809   1.675  0.5641 -0.1693  0.0763
 1599TIP3    H126432   5.841   6.766   1.654  0.7534  0.3435 -1.9612
 1599TIP3    H226433   5.902   6.871   1.745 -1.3264  1.5611 -1.9155
 1600TIP3   OH226434   1.265   0.866   7.758  0.1883  0.2029 -0.6653
 1600TIP3    H126435   1.291   0.775   7.745  1.3659  0.2455  1.1320
 1600TIP3    H226436   1.290   0.886   7.848 -0.1774  2.2720 -0.9711
 1601TIP3   OH226437   6.296   2.616   6.933  0.0978 -0.2370  0.7109
 1601TIP3    H126438   6.243   2.620   7.013 -1.6192 -2.3213 -0.2007
 1601TIP3    H226439   6.346   2.535   6.942  1.0965  0.3270  0.3484
 1602TIP3   OH226440   2.166   4.207   8.152 -0.0783  0.2089 -0.1545
 1602TIP3    H126441   2.147   4.292   8.112  1.7820  0.8141  0.1298
 1602TIP3    H226442   2.207   4.228   8.236 -0.6669 -1.0042  0.4709
 1603TIP3   OH226443   2.457   5.433   1.337 -0.0603 -0.3380  0.7744
 1603TIP3    H126444   2.531   5.473   1.291  1.0119  0.5689  3.1431
 1603TIP3    H226445   2.387   5.498   1.328  0.4709  0.3261  1.2874
 1604TIP3   OH226446   6.319   3.637   1.099  0.6269 -0.5152 -0.1024
 1604TIP3    H126447   6.393   3.613   1.043  0.3642  0.2172 -0.7790
 1604TIP3    H226448   6.303   3.559   1.152  0.4898 -1.4368 -1.4671
 1605TIP3   OH226449   3.904   1.716   8.285 -1.1732  0.1408  0.1213
 1605TIP3    H126450   3.901   1.623   8.262  0.0708 -0.2397  1.3836
 1605TIP3    H226451   3.985   1.748   8.246 -1.1839  0.5072  0.3983
 1606TIP3   OH226452   3.562   5.945   7.031 -0.4696  0.5149  0.1822
 1606TIP3    H126453   3.546   6.037   7.010  0.1485  0.1679 -2.0404
 1606TIP3    H226454   3.657   5.934   7.021 -0.2344  0.0373  2.3714
 1607TIP3   OH226455   3.528   3.116   7.196 -0.1567  0.2491 -0.3389
 1607TIP3    H126456   3.467   3.043   7.181 -0.3103  0.3451 -0.1909
 1607TIP3    H226457   3.542   3.154   7.110  1.5266 -1.2111 -0.7552
 1608TIP3   OH226458   6.374   6.819   8.003 -0.6565 -0.0063 -0.2663
 1608TIP3    H126459   6.467   6.816   7.981 -0.8224  2.4159 -1.6419
 1608TIP3    H226460   6.373   6.828   8.098  0.6015  1.1821 -0.3260
 1609TIP3   OH226461   6.004   4.918   8.186  0.8883 -0.1193 -0.2395
 1609TIP3    H126462   5.934   4.962   8.138  0.6536  0.1899  0.3845
 1609TIP3    H226463   5.969   4.831   8.205  1.7853 -1.0759 -2.5127
 1610TIP3   OH226464   0.135   2.794   0.140 -1.0156  0.2001  0.4671
 1610TIP3    H126465   0.230   2.801   0.134 -0.7797 -1.0147  2.2019
 1610TIP3    H226466   0.114   2.808   0.232 -2.3265 -1.3318  0.4512
 1611TIP3   OH226467   6.907   5.011   0.485 -0.0477  0.1158  0.1757
 1611TIP3    H126468   6.954   4.974   0.410 -0.0439  0.0921  0.1896
 1611TIP3    H226469   6.924   5.105   0.481  0.0271  0.1028  0.1994
 1612TIP3   OH226470   6.492   0.871   7.747 -0.3179 -0.7862 -0.3508
 1612TIP3    H126471   6.439   0.798   7.779 -1.1259  0.2117  0.7108
 1612TIP3    H226472   6.448   0.949   7.782  1.1953  0.1465 -0.4419
 1613TIP3   OH226473   5.806   0.473   7.982 -0.0173 -0.4463 -0.6388
 1613TIP3    H126474   5.771   0.405   7.924  0.3212 -0.1444 -1.2068
 1613TIP3    H226475   5.806   0.433   8.069 -1.7141 -0.4767 -0.6163
 1614TIP3   OH226476   6.259   4.499   7.304 -0.3677 -0.5010  0.6822
 1614TIP3    H126477   6.177   4.544   7.325 -0.9637 -1.6850  1.0195
 1614TIP3    H226478   6.322   4.569   7.287 -1.2598  0.4389  1.1485
 1615TIP3   OH226479   2.084   2.527   0.855 -0.7092  0.2500  0.2838
 1615TIP3    H126480   2.100   2.621   0.860 -0.3886  0.2268 -0.2142
 1615TIP3    H226481   2.020   2.510   0.924 -1.7365  1.0379 -0.4469
 1616TIP3   OH226482   0.389   1.007   8.524  0.4405 -0.0811 -0.7237
 1616TIP3    H126483   0.437   1.024   8.605 -0.9214 -2.5596  0.7403
 1616TIP3    H226484   0.357   0.917   8.533 -2.0833  0.4759 -2.8028
 1617TIP3   OH226485   5.626   0.463   2.149  0.2961  0.0707  0.1068
 1617TIP3    H126486   5.713   0.448   2.114 -0.2817 -0.5837 -1.0901
 1617TIP3    H226487   5.605   0.384   2.199  1.5344  1.3982  2.9884
 1618TIP3   OH226488   2.366   3.831   7.948 -0.2476  0.1910  0.2029
 1618TIP3    H126489   2.384   3.925   7.943  0.4556  0.0244 -0.5691
 1618TIP3    H226490   2.301   3.815   7.880  2.0547 -0.4055 -2.0091
 1619TIP3   OH226491   5.334   5.405   0.285  0.0562  0.4079 -0.0483
 1619TIP3    H126492   5.327   5.492   0.246  1.2749  0.7981  0.5362
 1619TIP3    H226493   5.249   5.389   0.325 -0.3522  1.0958 -0.6296
 1620TIP3   OH226494   2.619   4.558   0.153  0.2557 -0.6690  0.0902
 1620TIP3    H126495   2.582   4.599   0.231 -0.9048  0.2342 -0.8983
 1620TIP3    H226496   2.699   4.608   0.135  0.2319 -0.5235  0.3798
 1621TIP3   OH226497   2.551   0.629   7.359 -0.0888  0.1842 -0.0307
 1621TIP3    H126498   2.641   0.618   7.327  0.1630 -2.7036  1.3039
 1621TIP3    H226499   2.554   0.597   7.449 -2.6402 -1.0183 -0.2929
 1622TIP3   OH226500   5.566   4.614   1.177 -0.1913  0.2375 -0.4622
 1622TIP3    H126501   5.526   4.639   1.093 -0.0822 -2.3893 -1.3940
 1622TIP3    H226502   5.497   4.566   1.222 -0.2640  1.6789  1.0335
 1623TIP3   OH226503   2.741   2.233   0.510 -0.2156  0.3085  0.1398
 1623TIP3    H126504   2.694   2.195   0.584  1.2387  0.3045  1.1103
 1623TIP3    H226505   2.743   2.327   0.529 -1.4753  0.5735 -0.8908
 1624TIP3   OH226506   6.775   3.310   2.053  0.3818  1.0902  0.1035
 1624TIP3    H126507   6.792   3.379   1.988  0.9857 -0.4961 -1.5227
 1624TIP3    H226508   6.680   3.302   2.055  0.0758  3.8030  2.4310
 1625TIP3   OH226509   0.378   0.705   8.232  0.3387 -0.1656 -0.4626
 1625TIP3    H126510   0.401   0.620   8.270  1.5412  0.2980 -0.0911
 1625TIP3    H226511   0.457   0.731   8.184 -0.4592  0.1794 -1.6282
 1626TIP3   OH226512   3.309   5.597   7.837  0.5462  0.2136 -0.3850
 1626TIP3    H126513   3.217   5.576   7.820  0.9494 -1.7677 -0.3027
 1626TIP3    H226514   3.321   5.684   7.798 -1.1241  0.1358 -1.1647
 1627TIP3   OH226515   4.216   6.407   0.226  0.2135  0.3893 -0.0210
 1627TIP3    H126516   4.178   6.459   0.155 -1.1712 -1.2167 -0.5197
 1627TIP3    H226517   4.198   6.316   0.202 -1.8822 -0.2116  3.1952
 1628TIP3   OH226518   1.211   2.211   6.782 -0.3514 -0.2702  0.2509
 1628TIP3    H126519   1.180   2.191   6.694 -0.0982 -0.1237  0.1289
 1628TIP3    H226520   1.233   2.125   6.819 -2.9189 -0.6583  1.1250
 1629TIP3   OH226521   3.087   6.278   7.755 -0.4678 -0.1357  0.5834
 1629TIP3    H126522   3.169   6.234   7.730 -0.8365 -0.3687 -0.2586
 1629TIP3    H226523   3.035   6.278   7.675 -1.4760 -0.3978  1.2161
 1630TIP3   OH226524   3.445   1.217   2.395  0.0108  0.2780 -0.4391
 1630TIP3    H126525   3.409   1.306   2.385 -1.4000 -0.1944  0.2163
 1630TIP3    H226526   3.444   1.202   2.490  2.5325  0.4405 -0.3184
 1631TIP3   OH226527   1.284   6.722   7.045 -0.4931  0.5506  0.0755
 1631TIP3    H126528   1.250   6.633   7.041 -0.5892  0.6240 -1.0270
 1631TIP3    H226529   1.220   6.775   6.999 -0.5416  1.2396  0.8988
 1632TIP3   OH226530   4.399   4.792   1.758 -0.5147 -0.4801 -0.3435
 1632TIP3    H126531   4.368   4.745   1.836  0.5018 -1.5151 -0.5357
 1632TIP3    H226532   4.347   4.754   1.686 -1.5028  0.5241 -0.1956
 1633TIP3   OH226533   4.971   5.612   0.143  0.0115 -0.0605 -0.0453
 1633TIP3    H126534   4.889   5.662   0.136 -0.5295 -0.5341  2.1598
 1633TIP3    H226535   5.037   5.677   0.167 -0.5580 -0.2148  2.1416
 1634TIP3   OH226536   1.296   0.416   8.154  0.2560 -0.2588  1.0060
 1634TIP3    H126537   1.237   0.489   8.138 -1.0567 -1.2090  1.2951
 1634TIP3    H226538   1.286   0.361   8.076  0.7875 -0.4141  1.0452
 1635TIP3   OH226539   2.671   3.856   1.450 -0.4915 -0.4208  0.4789
 1635TIP3    H126540   2.584   3.897   1.452  0.1163  0.9067  1.0352
 1635TIP3    H226541   2.666   3.786   1.515 -0.8385  0.3203  1.2700
 1636TIP3   OH226542   0.600   5.139   8.484 -0.4585 -0.6007  0.1307
 1636TIP3    H126543   0.668   5.072   8.482  0.1812  0.0627 -1.6695
 1636TIP3    H226544   0.539   5.113   8.414 -0.6035  0.2713 -0.0768
 1637TIP3   OH226545   4.226   2.830   7.337  0.0412  0.3266 -0.1563
 1637TIP3    H126546   4.245   2.768   7.267 -0.3560 -0.1655  0.1602
 1637TIP3    H226547   4.132   2.822   7.351  0.0597  0.6795  0.1914
 1638TIP3   OH226548   2.440   6.100   0.706  0.5737 -0.3230  0.1337
 1638TIP3    H126549   2.353   6.109   0.747  1.4489  0.7932  1.8699
 1638TIP3    H226550   2.486   6.037   0.762  1.2058 -0.1865 -0.2207
 1639TIP3   OH226551   2.922   6.289   8.206 -0.1819 -0.2020 -0.2448
 1639TIP3    H126552   2.965   6.349   8.145 -0.2536  0.5894  0.4773
 1639TIP3    H226553   2.856   6.341   8.250  1.1487 -0.2201  1.9130
 1640TIP3   OH226554   3.107   5.950   7.986 -0.7513  0.5252  0.1800
 1640TIP3    H126555   3.198   5.942   8.016 -1.0049 -0.2090  0.7848
 1640TIP3    H226556   3.107   6.029   7.931 -0.3359  2.2355  2.4553
 1641TIP3   OH226557   6.609   2.542   0.091  0.8004 -0.2525 -0.0820
 1641TIP3    H126558   6.531   2.581   0.131  0.7954 -0.5524  0.2060
 1641TIP3    H226559   6.664   2.616   0.067  1.3832 -0.0896  1.6387
 1642TIP3   OH226560   3.233   6.736   7.975 -0.4707 -0.9300  0.0789
 1642TIP3    H126561   3.257   6.648   8.003  0.4721 -0.9926 -0.8668
 1642TIP3    H226562   3.163   6.722   7.910 -0.3595 -0.9810 -0.0307
 1643TIP3   OH226563   2.540   1.433   8.405  0.1182 -0.4446  0.5588
 1643TIP3    H126564   2.568   1.399   8.489  1.3117 -3.3692 -0.8927
 1643TIP3    H226565   2.621   1.460   8.361 -0.2292 -0.9590 -0.4376
 1644TIP3   OH226566   6.553   3.449   7.407 -0.1822 -0.3995 -0.0511
 1644TIP3    H126567   6.537   3.472   7.499 -2.3922  0.4115 -0.5716
 1644TIP3    H226568   6.640   3.484   7.388 -0.0812  0.2492  1.4706
 1645TIP3   OH226569   3.525   2.707   1.904  0.6033 -0.8522  0.5998
 1645TIP3    H126570   3.537   2.613   1.893  2.4037 -0.4658 -1.5036
 1645TIP3    H226571   3.610   2.739   1.936  0.7135  0.2651 -0.6992
 1646TIP3   OH226572   5.054   3.820   0.013  0.0971 -0.3529  0.2114
 1646TIP3    H126573   5.057   3.725   0.028 -0.1254 -0.2738  0.7570
 1646TIP3    H226574   5.085   3.858   0.095  3.0959  0.0001 -0.9567
 1647TIP3   OH226575   5.068   4.582   1.447  0.5414 -0.2317 -0.1633
 1647TIP3    H126576   5.050   4.514   1.382 -0.8500  0.7615 -0.8707
 1647TIP3    H226577   5.160   4.603   1.435  0.5833 -0.8720 -1.0328
 1648TIP3   OH226578   1.528   3.091   1.553  0.0868  0.3224 -0.1759
 1648TIP3    H126579   1.474   3.165   1.524  0.5723  0.5800 -0.4250
 1648TIP3    H226580   1.485   3.060   1.633 -2.3773 -1.5657 -2.0738
 1649TIP3   OH226581   6.405   2.557   1.077  0.0387 -0.4980 -0.1148
 1649TIP3    H126582   6.319   2.563   1.119 -0.3790  1.6538 -1.1865
 1649TIP3    H226583   6.451   2.637   1.104  1.0815 -0.8072 -0.9172
 1650TIP3   OH226584   6.623   2.915   0.222 -0.0619  0.4934 -0.2389
 1650TIP3    H126585   6.535   2.921   0.185 -0.4407  0.7534  0.6799
 1650TIP3    H226586   6.674   2.872   0.154 -1.2122 -0.9321 -0.2624
 1651TIP3   OH226587   0.212   1.405   0.754 -0.3704 -1.1136  0.2200
 1651TIP3    H126588   0.211   1.496   0.727  0.6488 -1.7982 -2.4661
 1651TIP3    H226589   0.304   1.379   0.749 -0.5086 -2.0864  1.8325
 1652TIP3   OH226590   2.127   0.245   1.167  0.1079  0.3584 -0.0655
 1652TIP3    H126591   2.199   0.193   1.202  1.2779  1.1334 -1.2266
 1652TIP3    H226592   2.130   0.326   1.218  0.5680  0.7017 -0.6270
 1653TIP3   OH226593   2.417   6.296   1.729  0.8744  0.0916  0.6064
 1653TIP3    H126594   2.383   6.361   1.668 -0.6351  0.7716  2.0781
 1653TIP3    H226595   2.411   6.213   1.681 -3.5512  0.0410  0.8306
 1654TIP3   OH226596   4.031   0.672   1.420 -0.2200  0.1102  0.1336
 1654TIP3    H126597   4.080   0.592   1.435 -0.4242  0.3238  2.2635
 1654TIP3    H226598   4.064   0.733   1.486 -1.6567  1.0194  0.0499
 1655TIP3   OH226599   1.332   1.578   7.211 -0.3190 -0.2595  0.2152
 1655TIP3    H126600   1.289   1.607   7.291 -1.5061 -1.7325  0.1484
 1655TIP3    H226601   1.421   1.611   7.219 -0.8985  1.1533  1.2936
 1656TIP3   OH226602   0.640   4.701   0.314  0.3429 -0.0160 -0.4969
 1656TIP3    H126603   0.736   4.710   0.317  0.2564  0.7059  0.7773
 1656TIP3    H226604   0.616   4.677   0.404 -0.8809  2.4195 -0.0818
 1657TIP3   OH226605   0.412   3.233   2.054  0.0264  0.0727  0.0811
 1657TIP3    H126606   0.389   3.240   2.147  2.9032  1.4415  0.8229
 1657TIP3    H226607   0.395   3.320   2.019  3.3247  1.0787  0.6143
 1658TIP3   OH226608   3.786   2.913   2.419  0.7525 -0.3095 -0.0009
 1658TIP3    H126609   3.755   2.998   2.387 -1.7632 -1.9175 -2.2657
 1658TIP3    H226610   3.748   2.905   2.506 -1.5350 -0.2793 -0.9373
 1659TIP3   OH226611   6.590   4.436   0.976  0.0691 -0.1467  0.5188
 1659TIP3    H126612   6.560   4.514   1.023 -1.6046 -0.8792  0.7427
 1659TIP3    H226613   6.550   4.443   0.889  0.0073 -0.6779  0.4970
 1660TIP3   OH226614   3.335   6.641   6.452 -0.1014 -0.3499  0.2020
 1660TIP3    H126615   3.303   6.705   6.387 -0.6669 -1.3920 -0.5694
 1660TIP3    H226616   3.428   6.662   6.462  0.0932 -0.4223 -1.2675
 1661TIP3   OH226617   0.370   1.701   6.577 -0.4173 -0.5709 -0.6048
 1661TIP3    H126618   0.392   1.627   6.633 -2.1342 -0.8755 -0.2667
 1661TIP3    H226619   0.392   1.778   6.630 -0.8536 -0.8606  0.0125
 1662TIP3   OH226620   4.762   1.513   0.804 -0.1581 -0.2453  0.1552
 1662TIP3    H126621   4.791   1.556   0.723  1.3591 -1.1398  0.1748
 1662TIP3    H226622   4.828   1.445   0.819 -1.1747 -0.9879  1.4153
 1663TIP3   OH226623   6.406   0.825   8.386 -0.1880 -0.0773  0.2967
 1663TIP3    H126624   6.379   0.882   8.458 -0.5562 -0.0689  0.1554
 1663TIP3    H226625   6.354   0.854   8.312  1.3171  0.9445 -0.3973
 1664TIP3   OH226626   2.819   6.824   7.919  0.1770  0.2034  0.1280
 1664TIP3    H126627   2.771   6.848   7.840 -0.3063 -0.3369  0.2439
 1664TIP3    H226628   2.906   6.801   7.888  0.0706  0.2488 -0.2155
 1665TIP3   OH226629   4.759   3.745   1.371 -0.4153  0.1265  0.2127
 1665TIP3    H126630   4.842   3.790   1.354 -0.1738 -0.7096 -0.9665
 1665TIP3    H226631   4.705   3.765   1.294 -0.9106 -0.2223  0.4686
 1666TIP3   OH226632   1.852   3.963   2.463  0.0304 -0.1307 -0.0272
 1666TIP3    H126633   1.809   3.891   2.509 -0.5712  0.6498  0.6534
 1666TIP3    H226634   1.938   3.929   2.440  0.3904 -0.5256  1.7526
 1667TIP3   OH226635   2.774   4.199   6.399 -0.0394 -0.1442  0.2765
 1667TIP3    H126636   2.748   4.169   6.486 -0.6335  3.6461  1.5663
 1667TIP3    H226637   2.869   4.202   6.401 -0.0881  2.4778  1.8687
 1668TIP3   OH226638   3.193   2.226   1.580 -0.5533  0.2829 -0.3546
 1668TIP3    H126639   3.122   2.283   1.608 -0.2277  0.7827 -0.5395
 1668TIP3    H226640   3.246   2.212   1.659 -1.5806 -1.1929  0.1274
 1669TIP3   OH226641   2.096   6.694   6.754  0.9064 -0.0308  0.1459
 1669TIP3    H126642   2.165   6.664   6.695  1.0561  0.8500 -0.1495
 1669TIP3    H226643   2.046   6.757   6.703 -0.9949 -1.6515 -0.0920
 1670TIP3   OH226644   1.284   6.323   7.338 -0.0300  0.1780  0.0742
 1670TIP3    H126645   1.349   6.387   7.309  0.8168 -0.8607 -0.3969
 1670TIP3    H226646   1.335   6.247   7.366 -1.0151 -1.5049 -2.3087
 1671TIP3   OH226647   6.378   4.645   6.462  0.2052  0.3017 -0.1427
 1671TIP3    H126648   6.411   4.727   6.500  0.3902  0.2617 -0.2169
 1671TIP3    H226649   6.286   4.641   6.489 -0.5347  1.7906 -2.2758
 1672TIP3   OH226650   3.483   4.289   2.536 -0.1207 -0.0659  0.2910
 1672TIP3    H126651   3.529   4.268   2.455 -0.3273 -3.1909  0.8420
 1672TIP3    H226652   3.542   4.258   2.606 -1.6884 -1.3450  1.1118
 1673TIP3   OH226653   2.137   4.764   7.981 -0.0260 -0.1466 -0.0115
 1673TIP3    H126654   2.230   4.758   7.958  0.6750  3.2288  1.4041
 1673TIP3    H226655   2.097   4.809   7.907 -0.2986 -0.4636 -0.0598
 1674TIP3   OH226656   5.479   4.272   8.064  0.6506  0.9834  0.6197
 1674TIP3    H126657   5.400   4.315   8.032  0.7831  0.7672 -0.0220
 1674TIP3    H226658   5.522   4.338   8.119  0.2418  1.2488  0.6212
 1675TIP3   OH226659   6.795   2.113   0.744 -0.2678  0.0129 -0.0555
 1675TIP3    H126660   6.854   2.164   0.689  0.3672 -0.5520  0.0971
 1675TIP3    H226661   6.757   2.177   0.804 -1.7043  0.8262 -1.7301
 1676TIP3   OH226662   2.861   5.630   8.553  0.1644  0.1535  0.1801
 1676TIP3    H126663   2.774   5.662   8.577  0.1021 -0.5834  0.9818
 1676TIP3    H226664   2.919   5.705   8.568 -0.6239  1.5065 -2.7835
 1677TIP3   OH226665   1.760   0.591   7.990  0.0433 -0.0676 -0.8001
 1677TIP3    H126666   1.793   0.518   7.937 -0.9255 -0.0812 -1.4143
 1677TIP3    H226667   1.765   0.667   7.933 -0.1995  0.0881 -0.6178
 1678TIP3   OH226668   4.428   5.969   0.160  0.4239  0.2846 -0.0318
 1678TIP3    H126669   4.457   5.937   0.246 -1.0451  1.5513  0.9920
 1678TIP3    H226670   4.481   6.046   0.145  2.1124 -1.0487 -1.2692
 1679TIP3   OH226671   4.534   3.368   1.953  1.0546  0.0947  0.2975
 1679TIP3    H126672   4.554   3.353   1.861  1.7463 -0.7285  0.5683
 1679TIP3    H226673   4.608   3.420   1.986 -0.1197  2.0632 -0.0426
 1680TIP3   OH226674   4.546   2.450   2.636 -0.3724 -0.6189 -0.2947
 1680TIP3    H126675   4.584   2.509   2.701 -0.8607 -1.0183  0.3652
 1680TIP3    H226676   4.621   2.414   2.589 -0.0533  0.2641 -0.4734
 1681TIP3   OH226677   5.335   6.844   1.128 -0.0314 -0.2041  0.0609
 1681TIP3    H126678   5.245   6.814   1.140  0.2363 -1.1237 -0.1696
 1681TIP3    H226679   5.351   6.836   1.034  0.3282 -0.1486  0.1144
 1682TIP3   OH226680   4.002   4.853   2.277 -0.1463  0.5021  0.2484
 1682TIP3    H126681   4.092   4.841   2.246 -0.4949 -1.3162 -0.2016
 1682TIP3    H226682   3.957   4.773   2.250 -1.9612  1.4663  0.2812
 1683TIP3   OH226683   2.252   3.432   8.283 -0.8903 -0.5776 -0.3902
 1683TIP3    H126684   2.253   3.476   8.367  0.4786  0.5230 -0.9387
 1683TIP3    H226685   2.182   3.475   8.233 -0.8023 -0.3042 -0.2773
 1684TIP3   OH226686   6.475   6.560   0.979  0.2575 -0.4290 -0.2721
 1684TIP3    H126687   6.480   6.651   0.952  1.4215 -1.0481 -2.4038
 1684TIP3    H226688   6.402   6.524   0.929 -0.4615 -0.6065  0.8663
 1685TIP3   OH226689   1.800   5.963   7.452  0.6942  0.2064  0.7551
 1685TIP3    H126690   1.740   5.950   7.525  1.7394 -0.3281  1.5513
 1685TIP3    H226691   1.860   6.031   7.481  1.6999 -0.6640  0.8092
 1686TIP3   OH226692   4.128   4.995   1.655 -0.2559 -0.4827 -0.2701
 1686TIP3    H126693   4.105   5.008   1.747  2.1714 -0.4893  0.4268
 1686TIP3    H226694   4.116   4.901   1.640  1.3040 -0.8806  0.7126
 1687TIP3   OH226695   2.594   5.982   0.156  0.3027  0.2453  0.1959
 1687TIP3    H126696   2.542   6.052   0.116  0.6750  0.0966 -0.5726
 1687TIP3    H226697   2.602   6.008   0.248 -1.1415  0.2424  0.3385
 1688TIP3   OH226698   2.375   4.109   7.992 -0.3242 -0.6809 -0.3865
 1688TIP3    H126699   2.319   4.127   8.067 -1.3651  2.6416 -1.7631
 1688TIP3    H226700   2.462   4.098   8.029 -1.1993 -1.8497  1.4719
 1689TIP3   OH226701   6.811   6.906   8.250  0.0082 -0.1145  0.2628
 1689TIP3    H126702   6.808   6.995   8.214 -1.1193 -0.6243 -1.0079
 1689TIP3    H226703   6.840   6.917   8.341 -2.1114  1.7719  0.7865
 1690TIP3   OH226704   6.569   3.157   7.248  0.1573  0.0597 -0.4311
 1690TIP3    H126705   6.609   3.214   7.314 -1.0007  2.2196 -1.4618
 1690TIP3    H226706   6.610   3.185   7.166  1.0525 -2.0874 -0.7708
 1691TIP3   OH226707   2.152   2.785   0.897  0.3057 -0.5820  0.2790
 1691TIP3    H126708   2.243   2.802   0.873  0.1665  1.0720  0.8126
 1691TIP3    H226709   2.102   2.856   0.856 -0.2842  0.6452  2.8915
 1692TIP3   OH226710   1.438   6.136   7.407  0.1617 -0.0083  0.4629
 1692TIP3    H126711   1.515   6.191   7.424  0.5563 -0.9081  1.7942
 1692TIP3    H226712   1.475   6.049   7.387 -0.4837 -0.7294  2.1964
 1693TIP3   OH226713   1.336   5.203   0.597  0.1249 -0.5729 -0.0095
 1693TIP3    H126714   1.324   5.115   0.633 -1.1259 -1.6862 -2.8628
 1693TIP3    H226715   1.283   5.204   0.518  2.2246  1.8497 -1.5498
 1694TIP3   OH226716   1.845   0.180   2.343  0.0853 -0.3715 -0.4107
 1694TIP3    H126717   1.868   0.267   2.310 -2.6636  0.0198 -1.4910
 1694TIP3    H226718   1.907   0.121   2.299  1.0955  0.8776 -0.7150
 1695TIP3   OH226719   4.483   0.325   1.849 -0.2450 -0.1618  0.0488
 1695TIP3    H126720   4.561   0.380   1.842 -1.1973  1.1567 -0.5900
 1695TIP3    H226721   4.428   0.368   1.915 -1.6952  0.6059 -1.5701
 1696TIP3   OH226722   2.101   0.631   0.397  0.0063 -0.6179  0.1678
 1696TIP3    H126723   2.011   0.606   0.374  0.0906 -0.0066 -0.9251
 1696TIP3    H226724   2.136   0.669   0.316  0.8228  0.3403  0.9462
 1697TIP3   OH226725   0.024   4.949   0.971  0.3170  0.1540 -0.0487
 1697TIP3    H126726  -0.011   4.872   0.926  0.0185  1.1638 -1.6089
 1697TIP3    H226727  -0.041   4.969   1.038  0.4032 -0.9448  0.3788
 1698TIP3   OH226728   0.365   2.078   0.250 -0.0197 -0.1846  0.0736
 1698TIP3    H126729   0.363   2.142   0.179  2.6065 -1.4707 -1.3138
 1698TIP3    H226730   0.408   2.124   0.322  0.3251  0.1219 -0.3250
 1699TIP3   OH226731   4.197   1.478   0.813 -0.1234  0.6137  0.1031
 1699TIP3    H126732   4.108   1.510   0.799  1.1732  3.5891 -2.7348
 1699TIP3    H226733   4.216   1.499   0.905 -1.4987  2.3726  0.0342
 1700TIP3   OH226734   6.755   1.656   6.580 -0.4058 -0.2387 -0.1319
 1700TIP3    H126735   6.729   1.742   6.612 -2.3858 -1.0515  0.6429
 1700TIP3    H226736   6.706   1.646   6.498 -1.3088 -1.1402  0.4878
 1701TIP3   OH226737   2.417   4.058   0.252 -0.7485 -0.0279  0.1117
 1701TIP3    H126738   2.334   4.013   0.272  0.9398 -3.0301  1.0447
 1701TIP3    H226739   2.459   4.069   0.337 -0.1270  1.4805 -0.3490
 1702TIP3   OH226740   2.015   6.039   7.847 -0.0303  0.3628 -0.3340
 1702TIP3    H126741   1.936   6.095   7.846  0.3604  0.9159 -0.9007
 1702TIP3    H226742   2.040   6.036   7.939 -1.1818 -0.4993 -0.0195
 1703TIP3   OH226743   0.901   4.989   7.568 -0.2902 -0.0495 -0.0183
 1703TIP3    H126744   0.869   4.903   7.542 -1.7882  0.2327  0.7818
 1703TIP3    H226745   0.923   5.032   7.485 -0.7807 -0.7314 -0.5105
 1704TIP3   OH226746   5.482   1.648   7.568  0.2499  0.1498 -0.4290
 1704TIP3    H126747   5.534   1.601   7.503 -0.3832  0.3410 -1.0887
 1704TIP3    H226748   5.531   1.639   7.649  1.1122  0.0022 -0.9564
 1705TIP3   OH226749   3.625   1.213   0.628 -0.1736 -0.4633 -0.1496
 1705TIP3    H126750   3.666   1.292   0.665  1.5731 -1.1574 -0.4679
 1705TIP3    H226751   3.699   1.161   0.598 -1.3802 -1.4458 -1.5394
 1706TIP3   OH226752   6.106   2.921   0.130  0.0461 -0.3034 -0.3971
 1706TIP3    H126753   6.018   2.956   0.132  0.4077  0.7127  2.3297
 1706TIP3    H226754   6.095   2.826   0.142 -0.6775 -0.1497  0.2071
 1707TIP3   OH226755   3.929   1.792   0.688 -0.0305 -0.3045 -0.0591
 1707TIP3    H126756   3.899   1.882   0.676 -0.4373 -0.5757 -1.2339
 1707TIP3    H226757   4.023   1.800   0.707  0.1366  0.3391 -1.0748
 1708TIP3   OH226758   2.970   1.373   2.032 -0.1058  0.2236 -0.0518
 1708TIP3    H126759   3.031   1.422   1.977  0.4465 -0.4308 -0.0333
 1708TIP3    H226760   2.997   1.392   2.121  0.0574 -0.0408 -0.0429
 1709TIP3   OH226761   4.024   2.078   7.350  0.4940 -0.2488 -0.4836
 1709TIP3    H126762   3.994   2.164   7.322  0.6890 -0.4590 -1.3773
 1709TIP3    H226763   4.119   2.080   7.335  0.8097  0.0761  1.3905
 1710TIP3   OH226764   2.876   6.785   8.178 -0.0592 -0.0065  0.6343
 1710TIP3    H126765   2.840   6.797   8.090 -0.2880 -1.4023  0.5011
 1710TIP3    H226766   2.799   6.770   8.233  0.1962 -1.5791  0.6088
 1711TIP3   OH226767   1.733   1.639   1.093 -0.2598 -0.2184 -0.0701
 1711TIP3    H126768   1.794   1.565   1.091 -1.2475 -1.1093  1.0257
 1711TIP3    H226769   1.778   1.705   1.145  0.1819 -0.4852 -0.1051
 1712TIP3   OH226770   3.129   2.322   8.586  0.2847  0.0380 -0.3524
 1712TIP3    H126771   3.194   2.380   8.628  0.4476 -0.3517 -0.0535
 1712TIP3    H226772   3.112   2.363   8.502  0.5690  0.4024 -0.2405
 1713TIP3   OH226773   2.549   3.161   7.238 -0.6617 -0.3071  0.1580
 1713TIP3    H126774   2.503   3.243   7.224  0.7583  0.3287 -1.0265
 1713TIP3    H226775   2.579   3.165   7.329 -1.9166 -0.2245  0.5790
 1714TIP3   OH226776   1.943   5.295   1.107 -0.3620  0.3720  0.0725
 1714TIP3    H126777   1.848   5.298   1.106 -0.4322 -1.0524  0.7861
 1714TIP3    H226778   1.965   5.208   1.075  0.5351 -0.7946  3.4328
 1715TIP3   OH226779   2.257   0.181   1.467 -0.6947 -0.4852  0.1629
 1715TIP3    H126780   2.309   0.101   1.452 -1.1614 -0.5644 -1.1841
 1715TIP3    H226781   2.201   0.159   1.541 -1.5170 -1.7887 -0.7983
 1716TIP3   OH226782   4.761   4.889   7.521  0.7468  0.1436  0.2231
 1716TIP3    H126783   4.769   4.897   7.616  2.1640  0.6917  0.0823
 1716TIP3    H226784   4.846   4.919   7.487 -0.0734  0.8742 -1.2686
 1717TIP3   OH226785   5.094   4.503   7.759 -0.3141  0.2644 -0.5140
 1717TIP3    H126786   5.056   4.447   7.827 -0.7136  0.6965 -0.3772
 1717TIP3    H226787   5.159   4.447   7.716 -0.0122  0.0023  0.2551
 1718TIP3   OH226788   5.530   2.166   8.003  0.1982 -0.0243 -0.3397
 1718TIP3    H126789   5.536   2.202   8.092  3.6706  0.9570 -0.8041
 1718TIP3    H226790   5.514   2.073   8.016 -2.8189  0.5606  1.1012
 1719TIP3   OH226791   6.373   0.026   2.202 -0.0987  0.1081  1.0929
 1719TIP3    H126792   6.443   0.091   2.199 -0.9229  1.0373 -1.7523
 1719TIP3    H226793   6.406  -0.047   2.149 -0.9292  0.2116  0.4091
 1720TIP3   OH226794   3.854   3.024   7.675  0.7072 -0.8042 -0.1685
 1720TIP3    H126795   3.765   2.989   7.676  0.3454  0.0756 -0.2456
 1720TIP3    H226796   3.847   3.105   7.624  1.7878 -1.3146 -1.1892
 1721TIP3   OH226797   3.420   3.880   0.520 -0.4434 -0.3764 -0.2935
 1721TIP3    H126798   3.432   3.865   0.613  0.0959  0.5907 -0.1929
 1721TIP3    H226799   3.343   3.937   0.515  0.7675  1.3664 -0.2494
 1722TIP3   OH226800   6.071   5.579   0.491  0.9264  0.1336  0.3158
 1722TIP3    H126801   6.006   5.535   0.545 -1.6250  1.2863 -1.5729
 1722TIP3    H226802   6.109   5.646   0.548  0.3396 -0.4635  1.4422
 1723TIP3   OH226803   3.447   2.204   8.020 -0.3608 -0.6329  0.6860
 1723TIP3    H126804   3.458   2.175   7.929 -0.3625 -0.8137  0.7442
 1723TIP3    H226805   3.430   2.124   8.069 -1.3497 -0.4350  0.6954
 1724TIP3   OH226806   3.527   0.043   1.686 -0.0803 -0.0864  0.1436
 1724TIP3    H126807   3.575  -0.039   1.689 -0.8957 -0.6925 -1.6172
 1724TIP3    H226808   3.451   0.029   1.742 -0.2027 -0.5380 -0.1313
 1725TIP3   OH226809   0.756   4.678   1.220 -0.6897  0.1272  0.0580
 1725TIP3    H126810   0.845   4.707   1.243 -0.6232  0.6562 -0.8254
 1725TIP3    H226811   0.766   4.636   1.135 -1.3156  0.3350 -0.1172
 1726TIP3   OH226812   3.980   6.714   2.268 -0.7616 -0.3082 -0.4612
 1726TIP3    H126813   3.900   6.694   2.317 -0.1432 -2.1264 -0.1058
 1726TIP3    H226814   4.001   6.633   2.222  0.1823  0.5378 -1.6009
 1727TIP3   OH226815   2.203   6.680   8.603  0.2736  0.5063  0.3356
 1727TIP3    H126816   2.122   6.703   8.559 -1.0206  0.2108  2.4235
 1727TIP3    H226817   2.237   6.764   8.636 -2.1467  0.2371  4.1411
 1728TIP3   OH226818   0.256   4.251   7.655  0.4294  0.4258  0.0492
 1728TIP3    H126819   0.308   4.331   7.658  0.3943  0.7169 -3.2541
 1728TIP3    H226820   0.273   4.215   7.568 -2.9054 -0.8576 -0.2078
 1729TIP3   OH226821   2.468   0.262   0.941  0.0683 -0.2011  0.7342
 1729TIP3    H126822   2.561   0.263   0.962  0.9236  2.8299 -2.2290
 1729TIP3    H226823   2.439   0.351   0.959 -1.7039 -0.5023 -0.3811
 1730TIP3   OH226824   0.407   3.500   6.631  0.0057  0.1777 -0.3496
 1730TIP3    H126825   0.321   3.496   6.673 -0.1275 -0.8781 -0.7065
 1730TIP3    H226826   0.390   3.481   6.539  0.5723  0.3264 -0.4875
 1731TIP3   OH226827   6.288   3.364   6.891 -0.4174  0.2812 -1.0133
 1731TIP3    H126828   6.199   3.395   6.907 -1.7685 -3.5708 -0.0269
 1731TIP3    H226829   6.337   3.389   6.969 -1.7585 -1.0298  0.2992
 1732TIP3   OH226830   4.718   0.129   7.597 -0.7354  0.0752 -0.0164
 1732TIP3    H126831   4.682   0.147   7.684  0.4444 -0.2049  0.5522
 1732TIP3    H226832   4.811   0.150   7.605 -0.6271  0.1428 -1.2489
 1733TIP3   OH226833   2.473   4.775   1.628  0.4522 -0.0630 -0.4489
 1733TIP3    H126834   2.528   4.800   1.554 -0.3982  0.7068 -0.8348
 1733TIP3    H226835   2.388   4.753   1.589  0.0870  0.0419  0.2675
 1734TIP3   OH226836   1.366   3.868   7.655  0.0211 -0.4615 -0.1870
 1734TIP3    H126837   1.442   3.810   7.657  0.1111 -0.3552  1.7292
 1734TIP3    H226838   1.302   3.826   7.712 -0.8525  0.1326 -0.6933
 1735TIP3   OH226839   0.223   0.487   6.950 -0.2042  0.5043  0.0276
 1735TIP3    H126840   0.128   0.486   6.950 -0.2470  1.8727 -0.6567
 1735TIP3    H226841   0.247   0.502   6.859  0.6246  1.3068  0.3587
 1736TIP3   OH226842   6.369   2.549   6.691  0.2816 -1.1414 -0.2294
 1736TIP3    H126843   6.316   2.604   6.633  1.0620  2.1683  1.8700
 1736TIP3    H226844   6.309   2.526   6.763  0.7757 -0.1220  0.5400
 1737TIP3   OH226845   2.174   1.096   8.161 -0.7901  0.4984  0.2338
 1737TIP3    H126846   2.209   1.170   8.210 -0.6976 -0.8430  2.2838
 1737TIP3    H226847   2.096   1.131   8.118  0.7346  2.4745 -1.1372
 1738TIP3   OH226848   3.288   5.559   0.675  0.8240 -0.3345 -0.1342
 1738TIP3    H126849   3.258   5.614   0.747 -1.2038 -0.3141 -0.9219
 1738TIP3    H226850   3.291   5.471   0.712 -0.9236 -0.4417 -0.1619
 1739TIP3   OH226851   4.422   1.541   1.475  0.0256 -0.1230 -0.0475
 1739TIP3    H126852   4.449   1.456   1.508  2.5452  0.0788 -1.4061
 1739TIP3    H226853   4.455   1.545   1.386  0.2247  2.3854  0.0667
 1740TIP3   OH226854   6.609   1.613   7.470  0.0270 -0.4291  0.3028
 1740TIP3    H126855   6.626   1.581   7.381  1.8831 -2.7433  1.3625
 1740TIP3    H226856   6.648   1.546   7.527  0.7462  1.9863  2.8506
 1741TIP3   OH226857   3.292   6.410   1.391 -0.4614  0.5654  0.0548
 1741TIP3    H126858   3.357   6.370   1.449 -0.5962 -0.1082 -0.2492
 1741TIP3    H226859   3.239   6.337   1.360  0.5234  0.6813 -2.0618
 1742TIP3   OH226860   3.290   5.815   1.674  0.3631 -0.2791  0.1408
 1742TIP3    H126861   3.246   5.756   1.614  0.3312 -1.0801  0.9335
 1742TIP3    H226862   3.338   5.758   1.734  1.9804  0.5640 -0.3132
 1743TIP3   OH226863   0.163   2.502   8.214 -0.1221  0.0621 -0.1056
 1743TIP3    H126864   0.190   2.463   8.131 -1.1534 -0.0127 -0.4194
 1743TIP3    H226865   0.244   2.534   8.253  0.5669 -1.1410 -0.4889
 1744TIP3   OH226866   3.996   2.723   0.869 -0.2411  0.4977 -0.1542
 1744TIP3    H126867   4.004   2.711   0.964  0.0249 -0.8170 -0.3179
 1744TIP3    H226868   4.001   2.634   0.833  0.2825  1.0157 -1.4435
 1745TIP3   OH226869   5.013   6.915   2.457  0.3157  0.7218  0.3759
 1745TIP3    H126870   5.032   6.961   2.376 -0.4703  0.2438 -0.0871
 1745TIP3    H226871   5.062   6.833   2.450 -3.3071 -1.5162 -1.7859
 1746TIP3   OH226872   3.659   4.671   1.074  0.1039 -0.0955 -0.3474
 1746TIP3    H126873   3.731   4.733   1.065  0.0649 -0.1733 -1.3657
 1746TIP3    H226874   3.683   4.617   1.149 -0.9119  2.4739  1.9650
 1747TIP3   OH226875   2.561   3.268   7.491 -0.2687  0.6408 -0.0022
 1747TIP3    H126876   2.626   3.251   7.559  0.4911 -0.2754 -0.9117
 1747TIP3    H226877   2.548   3.363   7.494  0.8336  0.7975  0.4615
 1748TIP3   OH226878   1.129   2.006   0.749 -0.2940  0.1056  0.9294
 1748TIP3    H126879   1.185   2.070   0.706 -0.7891  0.0521  0.1870
 1748TIP3    H226880   1.084   2.055   0.817 -3.0600  1.3791 -1.6112
 1749TIP3   OH226881   2.723   1.903   8.551 -0.0118 -0.0931  0.3073
 1749TIP3    H126882   2.806   1.945   8.530  0.3364 -0.3135  1.1754
 1749TIP3    H226883   2.710   1.921   8.644 -0.0425 -1.5542  0.6178
 1750TIP3   OH226884   1.911   0.025   8.359  0.1995  0.2514 -0.0308
 1750TIP3    H126885   1.865  -0.045   8.406  1.6395 -1.4876 -1.0966
 1750TIP3    H226886   1.869   0.029   8.273  1.0464 -0.3149 -0.4801
 1751TIP3   OH226887   3.324   2.816   2.651 -0.0715  0.3009  0.1259
 1751TIP3    H126888   3.328   2.911   2.641 -1.0319  0.2721 -0.5977
 1751TIP3    H226889   3.407   2.793   2.694 -0.4233  1.6203  1.6009
 1752TIP3   OH226890   4.609   5.369   7.029 -0.0302  0.1426  0.0828
 1752TIP3    H126891   4.679   5.415   6.983 -1.2272  1.2893 -0.6542
 1752TIP3    H226892   4.582   5.429   7.098  0.2423 -0.6455  0.9022
 1753TIP3   OH226893   4.277   6.089   6.387  0.2597 -0.1672  0.5231
 1753TIP3    H126894   4.319   6.005   6.368  0.2510 -0.6487  2.4798
 1753TIP3    H226895   4.201   6.067   6.440 -0.1223  1.0382  0.5051
 1754TIP3   OH226896   2.222   4.430   2.650  0.5063 -0.4349 -0.3123
 1754TIP3    H126897   2.168   4.472   2.716  1.5582  0.3465  0.0858
 1754TIP3    H226898   2.237   4.342   2.683 -0.6677 -0.7238 -0.5275
 1755TIP3   OH226899   3.121   4.576   0.830  0.1030  0.2926 -0.7844
 1755TIP3    H126900   3.050   4.531   0.785  0.1030  0.3725 -0.8644
 1755TIP3    H226901   3.196   4.517   0.823 -0.3897 -0.5696  0.7678
 1756TIP3   OH226902   1.059   5.975   6.709  0.2685 -0.1784 -0.6759
 1756TIP3    H126903   1.021   5.898   6.751  1.0478 -0.9911 -1.4088
 1756TIP3    H226904   1.000   6.047   6.730  0.3016 -0.6784  1.2693
 1757TIP3   OH226905   6.561   2.313   0.342  0.1762 -0.4835  0.2759
 1757TIP3    H126906   6.537   2.400   0.374  0.6324  0.2297 -1.2390
 1757TIP3    H226907   6.565   2.259   0.420  1.5736  1.2521  1.4704
 1758TIP3   OH226908   3.809   4.696   1.438  0.2071 -0.1650 -0.2247
 1758TIP3    H126909   3.763   4.680   1.521 -1.4041 -0.6597 -1.1625
 1758TIP3    H226910   3.778   4.627   1.380  1.1870  0.2623 -1.2981
 1759TIP3   OH226911   4.637   5.588   1.194  0.2289 -0.2617  0.4745
 1759TIP3    H126912   4.638   5.517   1.130 -0.0127 -1.4115  1.6953
 1759TIP3    H226913   4.688   5.658   1.153 -0.4953 -0.6741 -1.2455
 1760TIP3   OH226914   5.776   0.484   1.554  0.2072  0.0269  0.2856
 1760TIP3    H126915   5.684   0.460   1.565  0.3187 -0.5320  0.0669
 1760TIP3    H226916   5.812   0.414   1.499  1.1839 -0.7216  1.8012
 1761TIP3   OH226917   2.437   0.318   6.658 -0.0371  0.3732  0.0829
 1761TIP3    H126918   2.445   0.410   6.636 -0.2590  0.6374  1.0467
 1761TIP3    H226919   2.366   0.315   6.722 -0.2260 -0.5025 -0.1495
 1762TIP3   OH226920   6.583   6.654   1.425  0.5083 -0.4498 -0.5913
 1762TIP3    H126921   6.541   6.676   1.508  0.8589 -1.8555 -0.0141
 1762TIP3    H226922   6.662   6.708   1.423 -0.3978  0.9242 -0.8792
 1763TIP3   OH226923   6.023   5.949   8.153 -0.7923  0.5741  0.1261
 1763TIP3    H126924   6.050   5.879   8.094 -0.2115  1.5188 -0.7855
 1763TIP3    H226925   5.990   5.905   8.231 -1.7006 -0.7175 -0.9494
 1764TIP3   OH226926   1.468   6.380   0.323 -0.2346  0.1088 -0.6691
 1764TIP3    H126927   1.490   6.385   0.416 -0.4965  0.4046 -0.6209
 1764TIP3    H226928   1.378   6.346   0.322  0.1648 -1.0106 -0.8565
 1765TIP3   OH226929   6.756   5.007   1.815  0.1048 -0.7212  0.3199
 1765TIP3    H126930   6.852   5.004   1.821  0.0093 -2.8054  1.5127
 1765TIP3    H226931   6.733   4.938   1.753 -0.5909  1.2166 -1.7387
 1766TIP3   OH226932   4.459   3.094   8.052  0.4593  0.3329 -0.1838
 1766TIP3    H126933   4.400   3.067   7.982 -1.5265  0.0651  1.5042
 1766TIP3    H226934   4.539   3.121   8.007  0.6924 -3.3033 -2.3868
 1767TIP3   OH226935   1.533   0.886   2.256 -0.1917 -0.5259 -0.0826
 1767TIP3    H126936   1.539   0.982   2.251 -2.2254 -0.0262  3.3580
 1767TIP3    H226937   1.624   0.857   2.265  0.3562  1.4032  1.3575
 1768TIP3   OH226938   1.091   2.897   1.300 -0.3165 -0.0138  0.0767
 1768TIP3    H126939   1.011   2.845   1.303 -1.2898  1.3817 -0.3214
 1768TIP3    H226940   1.158   2.842   1.341 -1.1646 -1.7371 -0.7363
 1769TIP3   OH226941   1.654   6.246   0.045 -0.5687  0.2422  0.4731
 1769TIP3    H126942   1.677   6.316   0.106 -0.6658  0.3949  0.3374
 1769TIP3    H226943   1.683   6.279  -0.040 -1.4343  0.5173  0.2674
 1770TIP3   OH226944   4.169   5.099   7.592  0.2907  0.0452 -0.4668
 1770TIP3    H126945   4.140   5.144   7.513  1.5464  0.3230 -0.7829
 1770TIP3    H226946   4.119   5.017   7.592 -0.6330  0.5932 -0.8693
 1771TIP3   OH226947   5.738   6.324   1.352 -0.5984 -0.5770  0.0023
 1771TIP3    H126948   5.758   6.404   1.303 -0.8198 -0.4791  0.0721
 1771TIP3    H226949   5.789   6.256   1.307  0.6460 -0.1683  0.7585
 1772TIP3   OH226950   5.249   1.577   8.223 -0.2228  0.1998  0.2763
 1772TIP3    H126951   5.200   1.545   8.147  0.2820  0.7899 -0.3132
 1772TIP3    H226952   5.243   1.673   8.216  3.6688  0.5108 -1.7015
 1773TIP3   OH226953   5.693   4.095   8.014  0.1287  0.0285  0.4410
 1773TIP3    H126954   5.651   4.071   7.932  1.1568 -3.1995  0.7326
 1773TIP3    H226955   5.621   4.112   8.074 -0.6348  2.1361 -0.9541
 1774TIP3   OH226956   6.922   0.717   7.166  0.2370 -0.4123 -0.4299
 1774TIP3    H126957   6.911   0.663   7.087 -0.7751 -0.2446 -0.4218
 1774TIP3    H226958   6.906   0.806   7.136 -0.0910 -0.3417 -0.0494
 1775TIP3   OH226959   5.376   0.951   1.800 -0.2943  0.0759 -0.5157
 1775TIP3    H126960   5.319   0.890   1.847 -1.2910  1.4400  0.1384
 1775TIP3    H226961   5.428   0.993   1.868 -0.7828  1.1010 -0.7526
 1776TIP3   OH226962   0.476   4.560   8.157  0.0424  0.0253  0.1749
 1776TIP3    H126963   0.473   4.564   8.252  1.0599 -0.4064  0.2388
 1776TIP3    H226964   0.544   4.623   8.133 -0.8574  0.8351 -0.3413
 1777TIP3   OH226965   0.969   5.368   0.267 -0.4958 -0.5290 -0.2426
 1777TIP3    H126966   0.921   5.349   0.187 -1.9305 -1.1060  0.6986
 1777TIP3    H226967   0.940   5.455   0.294 -0.9355 -0.8201  0.2545
 1778TIP3   OH226968   1.901   3.243   8.266 -0.5378 -0.0257  0.2772
 1778TIP3    H126969   1.848   3.320   8.285  0.1209  0.3489  0.6236
 1778TIP3    H226970   1.889   3.228   8.172  2.7554  3.1767 -0.8911
 1779TIP3   OH226971   2.952   5.662   6.566 -0.1457  0.3033  0.1992
 1779TIP3    H126972   2.951   5.610   6.485  1.5052  0.8111 -0.1950
 1779TIP3    H226973   2.974   5.751   6.537  3.3290 -0.0219  1.3795
 1780TIP3   OH226974   3.396   2.712   0.366  0.1932 -0.4687  0.2749
 1780TIP3    H126975   3.357   2.788   0.324  0.5174  0.3157  1.3513
 1780TIP3    H226976   3.324   2.650   0.376 -1.0415  1.2359  2.8911
 1781TIP3   OH226977   2.289   4.442   1.486  0.1825  0.4173 -0.3592
 1781TIP3    H126978   2.246   4.520   1.521 -1.1050 -0.7683  0.8602
 1781TIP3    H226979   2.292   4.455   1.392 -0.4417  1.7229 -0.2121
 1782TIP3   OH226980   5.960   1.267   8.162 -0.4344 -0.5356 -0.1573
 1782TIP3    H126981   5.934   1.331   8.229  3.5960  0.9038  0.2784
 1782TIP3    H226982   5.985   1.320   8.087 -0.1154 -1.8341 -0.9898
 1783TIP3   OH226983   4.781   6.152   0.641  0.2402  0.4082 -0.2452
 1783TIP3    H126984   4.710   6.157   0.705 -0.0290 -1.0730 -0.3779
 1783TIP3    H226985   4.861   6.149   0.694  0.0242 -0.7232  0.0602
 1784TIP3   OH226986   3.134   3.221   2.725 -0.0715  0.3513  0.1287
 1784TIP3    H126987   3.061   3.166   2.751  0.3183 -1.0820 -1.6226
 1784TIP3    H226988   3.101   3.311   2.734 -2.6384 -0.2597 -2.0566
 1785TIP3   OH226989   1.370   3.964   1.792 -0.1121  0.2710 -0.2493
 1785TIP3    H126990   1.417   4.000   1.868 -1.6490  0.5720  0.6014
 1785TIP3    H226991   1.435   3.911   1.747  1.6501  2.3632 -0.3232
 1786TIP3   OH226992   1.407   1.356   7.617 -0.3717 -0.0749  0.2106
 1786TIP3    H126993   1.328   1.324   7.661 -0.7622  0.1324 -0.3168
 1786TIP3    H226994   1.379   1.439   7.577 -0.7192 -1.3296 -2.3653
 1787TIP3   OH226995   3.982   5.671   7.101 -0.3880 -0.2752 -0.2618
 1787TIP3    H126996   3.931   5.670   7.020 -1.1308 -0.6018  0.2035
 1787TIP3    H226997   3.942   5.604   7.156  0.9824 -1.0246 -0.1356
 1788TIP3   OH226998   6.873   6.060   1.675 -0.6406  0.1139  0.6589
 1788TIP3    H126999   6.845   6.151   1.679  0.6835  0.5296  0.9706
 1788TIP3    H227000   6.902   6.039   1.764  1.5619  0.2630  0.0460
 1789TIP3   OH227001   3.984   6.240   0.767  0.2187 -0.2697 -0.2789
 1789TIP3    H127002   4.010   6.249   0.675  1.4573 -3.7340 -0.4189
 1789TIP3    H227003   3.899   6.197   0.763  0.0308  0.0608  0.1927
 1790TIP3   OH227004   3.075   4.854   7.711 -0.7722  0.2183 -0.3556
 1790TIP3    H127005   3.047   4.928   7.657 -2.5733  0.1600  0.4442
 1790TIP3    H227006   3.003   4.791   7.704  0.6659 -1.4327 -0.9127
 1791TIP3   OH227007   2.770   6.133   7.997 -0.1700 -0.3258 -0.1121
 1791TIP3    H127008   2.851   6.164   8.037 -0.0931  1.8070 -1.7611
 1791TIP3    H227009   2.798   6.081   7.922 -0.2807  0.6858 -0.8776
 1792TIP3   OH227010   1.513   3.807   1.560 -0.3431  0.4303  0.2336
 1792TIP3    H127011   1.573   3.760   1.618 -0.4886  0.3567  0.3233
 1792TIP3    H227012   1.444   3.744   1.541  0.1496  0.1597 -0.7222
 1793TIP3   OH227013   6.109   2.480   2.027  0.2531 -0.0316 -0.1474
 1793TIP3    H127014   6.107   2.555   1.968 -0.2976 -0.2647 -0.4350
 1793TIP3    H227015   6.190   2.490   2.077  0.5191  0.3839 -0.6597
 1794TIP3   OH227016   0.487   5.110   1.518 -0.0933  0.3196 -0.7720
 1794TIP3    H127017   0.522   5.031   1.478 -0.1630 -0.6273  0.9585
 1794TIP3    H227018   0.564   5.158   1.550 -0.1786 -0.8175  1.3062
 1795TIP3   OH227019   1.667   4.526   0.329  0.2859 -0.1121  0.3116
 1795TIP3    H127020   1.587   4.478   0.306  0.3237 -0.4710  0.9308
 1795TIP3    H227021   1.662   4.605   0.275 -0.9931  0.3542  1.0566
 1796TIP3   OH227022   1.928   5.514   6.654  0.5362 -0.4721 -0.4450
 1796TIP3    H127023   1.998   5.509   6.590  1.4282 -1.3913  0.5578
 1796TIP3    H227024   1.963   5.470   6.732 -0.5914  0.3764  0.5988
 1797TIP3   OH227025   0.380   1.966   0.800  0.2254 -0.1389  0.5042
 1797TIP3    H127026   0.462   1.921   0.781  0.5611  0.3855  0.6899
 1797TIP3    H227027   0.403   2.059   0.802 -0.7757  0.2084 -1.6210
 1798TIP3   OH227028   1.121   6.272   1.161 -0.5275 -0.0321  0.5877
 1798TIP3    H127029   1.141   6.366   1.162 -1.3894  0.1620  0.9793
 1798TIP3    H227030   1.041   6.264   1.213 -0.3914 -1.0062  0.6692
 1799TIP3   OH227031   4.319   1.113   2.481  0.2029  0.3119 -0.1597
 1799TIP3    H127032   4.361   1.034   2.515 -1.2615  0.3120  1.8533
 1799TIP3    H227033   4.249   1.131   2.543 -0.8562  2.0023 -1.7415
 1800TIP3   OH227034   0.426   4.593   6.345  0.4986  0.0548  0.6823
 1800TIP3    H127035   0.374   4.573   6.422  0.0502 -0.7026  0.1973
 1800TIP3    H227036   0.420   4.514   6.291  1.5994  0.2074  0.3106
 1801TIP3   OH227037   5.189   3.716   2.564 -0.0127  0.0851  0.3999
 1801TIP3    H127038   5.228   3.804   2.564 -1.3828  0.7982 -1.9739
 1801TIP3    H227039   5.118   3.722   2.628  0.0706  0.6559  0.4518
 1802TIP3   OH227040   1.874   3.865   0.567  0.3733  0.0979 -0.3329
 1802TIP3    H127041   1.957   3.822   0.542  0.6095  0.0700  0.4871
 1802TIP3    H227042   1.826   3.873   0.484  0.6898 -0.9690 -0.6379
 1803TIP3   OH227043   0.432   0.090   1.260 -0.0670  0.2612 -0.1280
 1803TIP3    H127044   0.357   0.039   1.290 -1.6803  2.1425 -0.8343
 1803TIP3    H227045   0.470   0.037   1.189 -1.6282 -0.0427 -0.7690
 1804TIP3   OH227046   6.743   0.284   7.410 -0.2718  0.7567 -0.3053
 1804TIP3    H127047   6.758   0.372   7.376  0.5823  0.7578  0.0577
 1804TIP3    H227048   6.826   0.259   7.451 -0.1736 -0.6192 -1.2912
 1805TIP3   OH227049   5.449   5.325   1.525 -0.3898 -0.5345 -0.3323
 1805TIP3    H127050   5.516   5.386   1.557 -0.9573  0.9357 -1.7874
 1805TIP3    H227051   5.467   5.244   1.571  0.1739  0.8077  1.9944
 1806TIP3   OH227052   5.535   6.469   7.081  0.3017 -0.2468  0.2617
 1806TIP3    H127053   5.461   6.455   7.021 -0.5963  1.1381  0.9946
 1806TIP3    H227054   5.563   6.559   7.064  0.0456  0.1650  1.8833
 1807TIP3   OH227055   5.094   2.924   7.615 -0.3916  0.1781 -0.0980
 1807TIP3    H127056   5.102   2.966   7.529  1.6268 -1.5573 -0.8488
 1807TIP3    H227057   5.004   2.891   7.617 -0.3801 -0.0208 -1.6851
 1808TIP3   OH227058   2.502   6.135   7.885  0.4321 -0.6947 -0.2565
 1808TIP3    H127059   2.577   6.167   7.935  1.4827 -1.4083 -1.3310
 1808TIP3    H227060   2.521   6.159   7.795 -0.2820 -1.5286 -0.6427
 1809TIP3   OH227061   5.737   3.161   6.491  0.4550  0.4584  0.0592
 1809TIP3    H127062   5.750   3.173   6.397  0.9414 -0.8634 -0.0539
 1809TIP3    H227063   5.647   3.131   6.500  1.0693 -1.5578 -0.2053
 1810TIP3   OH227064   0.151   2.878   2.159 -0.0021  0.1121  0.1850
 1810TIP3    H127065   0.184   2.910   2.075 -1.4835  1.0481 -0.0780
 1810TIP3    H227066   0.062   2.911   2.164  0.6554  1.8184  3.0277
 1811TIP3   OH227067   1.497   4.650   0.534  0.1765 -0.1704 -0.2439
 1811TIP3    H127068   1.577   4.628   0.486  0.3085  2.3601 -1.3586
 1811TIP3    H227069   1.501   4.745   0.545 -3.1967  0.2236 -1.3585
 1812TIP3   OH227070   4.768   3.104   0.510 -0.2439 -0.2356  0.0096
 1812TIP3    H127071   4.707   3.033   0.527 -0.9201  0.3397  0.0296
 1812TIP3    H227072   4.793   3.136   0.597 -2.3936  1.5968  0.0430
 1813TIP3   OH227073   0.841   6.099   7.698 -0.0609 -0.1812  0.2133
 1813TIP3    H127074   0.915   6.145   7.738  0.5234 -0.7537 -0.1718
 1813TIP3    H227075   0.770   6.107   7.761  0.5544 -0.2612  0.9365
 1814TIP3   OH227076   5.128   1.583   0.972 -0.2128  0.7227  0.2743
 1814TIP3    H127077   5.213   1.616   1.001 -0.4706  1.4349  0.2253
 1814TIP3    H227078   5.066   1.652   0.994 -1.0154 -0.3649  1.5902
 1815TIP3   OH227079   6.027   4.679   0.949  0.3017  0.2469 -0.0240
 1815TIP3    H127080   5.967   4.662   1.022 -0.5408  0.6527 -0.6019
 1815TIP3    H227081   6.113   4.659   0.984 -0.1030  0.2760  1.0358
 1816TIP3   OH227082   3.497   3.409   8.047  0.0125 -0.0771  0.2686
 1816TIP3    H127083   3.494   3.315   8.066 -1.2093  0.3923  2.7504
 1816TIP3    H227084   3.449   3.418   7.965 -2.9102 -1.3242  1.6921
 1817TIP3   OH227085   1.999   3.908   1.525 -0.0547 -0.0356 -0.4045
 1817TIP3    H127086   2.054   3.942   1.455 -0.8116  0.2665 -0.8643
 1817TIP3    H227087   1.910   3.937   1.502 -0.5319 -1.2244 -0.1288
 1818TIP3   OH227088   1.691   2.009   6.054 -0.7840 -0.2206 -0.2211
 1818TIP3    H127089   1.660   1.926   6.017 -0.7740 -0.1191 -0.4572
 1818TIP3    H227090   1.736   1.984   6.134  1.3000 -0.7143 -1.4714
 1819TIP3   OH227091   3.637   1.005   2.412 -0.2179 -0.1045 -0.3240
 1819TIP3    H127092   3.578   1.062   2.363  0.2740 -0.9872 -2.0086
 1819TIP3    H227093   3.712   1.060   2.433 -0.3596  0.2455 -0.7259
 1820TIP3   OH227094   3.018   5.098   7.552 -0.0183 -0.7888 -0.4009
 1820TIP3    H127095   2.993   5.122   7.463  0.0469  2.1795  0.2851
 1820TIP3    H227096   3.103   5.140   7.566  0.0425 -1.3283  1.0078
 1821TIP3   OH227097   0.443   3.351   0.421  0.2374 -0.4387  0.5408
 1821TIP3    H127098   0.409   3.391   0.341  4.3960  0.9820 -0.7845
 1821TIP3    H227099   0.427   3.416   0.489  1.9914  1.1644 -0.4843
 1822TIP3   OH227100   3.018   3.551   1.577  0.9063  0.2926 -0.0794
 1822TIP3    H127101   3.097   3.592   1.611  0.2564 -1.0729  3.5401
 1822TIP3    H227102   3.038   3.457   1.577 -0.1333  0.0475 -0.8571
 1823TIP3   OH227103   5.084   1.959   1.126  0.7858 -0.1346  0.1161
 1823TIP3    H127104   5.122   1.888   1.178  0.8437 -0.9197 -0.9716
 1823TIP3    H227105   5.152   2.026   1.122  1.6885 -1.0962 -0.9658
 1824TIP3   OH227106   3.707   4.001   7.772 -0.2193  0.3805  0.4179
 1824TIP3    H127107   3.674   3.950   7.699  0.3747  0.2260  0.2568
 1824TIP3    H227108   3.771   4.061   7.733 -0.1384  0.5186  0.7594
 1825TIP3   OH227109   6.911   2.318   6.534 -0.0800 -0.3039  0.1082
 1825TIP3    H127110   6.859   2.238   6.523  1.0526 -1.0997  0.3060
 1825TIP3    H227111   6.998   2.286   6.558  0.1448  1.0297  1.1729
 1826TIP3   OH227112   4.219   5.760   7.266  0.0258 -0.1530 -0.6975
 1826TIP3    H127113   4.207   5.670   7.234  1.8913 -0.6132 -0.2533
 1826TIP3    H227114   4.166   5.764   7.346 -0.8261 -0.5440 -1.2277
 1827TIP3   OH227115   4.595   2.968   6.649 -0.5704  0.0959 -0.1889
 1827TIP3    H127116   4.645   3.042   6.616 -0.0990 -0.2171 -0.1860
 1827TIP3    H227117   4.530   3.006   6.708  0.5822  0.3891  0.9181
 1828TIP3   OH227118   0.618   4.663   7.340 -0.1980  0.1169 -0.0810
 1828TIP3    H127119   0.530   4.640   7.370 -0.1897  0.1769 -0.0110
 1828TIP3    H227120   0.608   4.678   7.246 -0.8436  2.8611  0.3251
 1829TIP3   OH227121   0.345   5.373   0.286  0.3365  0.4872  0.1962
 1829TIP3    H127122   0.422   5.423   0.311 -0.4456  0.8721  1.9686
 1829TIP3    H227123   0.286   5.438   0.247  0.7817  0.2340 -0.9468
 1830TIP3   OH227124   4.665   2.166   7.022 -0.1566 -0.3526  0.4096
 1830TIP3    H127125   4.617   2.131   7.096  0.1532 -0.2430  0.6625
 1830TIP3    H227126   4.713   2.091   6.986  0.2312 -0.2662  0.7379
 1831TIP3   OH227127   5.760   1.287   2.640  0.0765  0.5388 -0.0857
 1831TIP3    H127128   5.709   1.319   2.715  1.9817  0.9097  1.1160
 1831TIP3    H227129   5.836   1.344   2.636  1.1387 -0.8539 -0.9277
 1832TIP3   OH227130   2.409   5.457   0.329  0.4002  0.4716  0.1121
 1832TIP3    H127131   2.462   5.508   0.268 -1.7443  1.5287 -0.9756
 1832TIP3    H227132   2.413   5.507   0.411 -0.8595  1.9424 -0.6619
 1833TIP3   OH227133   0.827   3.715   0.513 -0.0399 -0.0083 -0.0075
 1833TIP3    H127134   0.912   3.756   0.497  0.2559 -0.7483 -0.3928
 1833TIP3    H227135   0.826   3.638   0.456  0.4787 -2.0149  2.5176
 1834TIP3   OH227136   5.565   6.080   0.828  0.2048  0.1300 -0.0379
 1834TIP3    H127137   5.575   6.131   0.909 -0.5128  1.7700 -0.9468
 1834TIP3    H227138   5.557   6.146   0.759 -1.6138 -1.2092 -1.1665
 1835TIP3   OH227139   6.560   1.162   7.522 -0.0998  0.4995 -0.5642
 1835TIP3    H127140   6.626   1.132   7.584 -0.4835  0.7003 -0.0510
 1835TIP3    H227141   6.483   1.183   7.576 -0.9302 -0.6767 -1.2344
 1836TIP3   OH227142   3.075   5.959   6.652 -0.4646  0.0954 -0.1080
 1836TIP3    H127143   3.126   5.881   6.674 -0.2527  0.4076  0.5143
 1836TIP3    H227144   3.052   5.947   6.560  0.5084 -0.1802 -0.3295
 1837TIP3   OH227145   6.819   3.105   8.018  0.7739  0.0143 -0.5080
 1837TIP3    H127146   6.908   3.088   8.049  0.2567  1.1189  1.7844
 1837TIP3    H227147   6.825   3.189   7.972  0.9920 -0.1319 -0.7487
 1838TIP3   OH227148   0.967   0.060   2.065  0.3255 -0.1827  0.0804
 1838TIP3    H127149   0.891   0.003   2.072  1.5251 -1.9605 -0.5744
 1838TIP3    H227150   0.993   0.078   2.155  0.1373 -0.9906  0.3012
 1839TIP3   OH227151   2.185   0.082   8.412 -0.1274 -0.5626 -0.1510
 1839TIP3    H127152   2.091   0.093   8.404 -0.3840 -0.3532  2.3438
 1839TIP3    H227153   2.212   0.146   8.478  2.0963  0.6007 -2.0237
 1840TIP3   OH227154   0.929   5.530   0.806 -0.2742 -0.0500  0.0158
 1840TIP3    H127155   0.880   5.448   0.802 -1.1709  0.3828  1.3105
 1840TIP3    H227156   1.020   5.503   0.819 -0.4947 -0.8359 -0.0217
 1841TIP3   OH227157   0.203   2.983   2.619 -0.2428 -0.2064 -0.3274
 1841TIP3    H127158   0.120   2.957   2.659 -1.8023  1.8102 -2.0078
 1841TIP3    H227159   0.200   3.079   2.616  1.9518 -0.0853 -0.8911
 1842TIP3   OH227160   3.260   0.579   1.070 -0.2070 -0.6617 -1.0583
 1842TIP3    H127161   3.351   0.611   1.071 -0.1478 -0.8033 -1.6592
 1842TIP3    H227162   3.222   0.614   1.151 -0.4863  1.9564 -2.2295
 1843TIP3   OH227163   4.959   1.650   0.179  0.5129 -0.3740 -0.1618
 1843TIP3    H127164   4.940   1.729   0.228  1.2519 -1.1582  1.4906
 1843TIP3    H227165   4.874   1.610   0.162  0.2723 -0.5548  1.3580
 1844TIP3   OH227166   0.088   0.636   2.051 -0.7806  0.4366 -0.0429
 1844TIP3    H127167   0.042   0.663   2.130  0.0059  1.6200  0.0324
 1844TIP3    H227168   0.054   0.694   1.982  0.3528  1.1491 -0.0413
 1845TIP3   OH227169   6.390   2.019   6.301  0.3235 -0.0935 -0.0878
 1845TIP3    H127170   6.297   2.036   6.287  0.1102 -1.0589  0.1125
 1845TIP3    H227171   6.394   1.926   6.324  1.4430 -0.3149 -1.1154
 1846TIP3   OH227172   3.583   6.289   7.970 -0.0569 -0.2464 -0.3865
 1846TIP3    H127173   3.666   6.320   8.006  0.1714 -1.1275 -0.1115
 1846TIP3    H227174   3.576   6.331   7.884  0.7516 -0.2720 -0.4714
 1847TIP3   OH227175   6.542   3.655   7.599 -0.4906  0.2428  0.1904
 1847TIP3    H127176   6.470   3.700   7.642 -0.0458  1.3474 -0.1939
 1847TIP3    H227177   6.537   3.683   7.507 -1.8802 -2.6295 -0.7360
 1848TIP3   OH227178   5.169   2.572   1.806  0.0213 -0.5335  0.0958
 1848TIP3    H127179   5.107   2.639   1.834  0.7987  0.1966  0.0907
 1848TIP3    H227180   5.178   2.515   1.883 -1.6675 -1.4588 -0.3276
 1849TIP3   OH227181   5.353   2.572   7.568  0.4664 -0.0150  0.6533
 1849TIP3    H127182   5.276   2.525   7.601 -0.9088  0.9277 -1.0656
 1849TIP3    H227183   5.338   2.579   7.474  2.3537  0.7961  0.3751
 1850TIP3   OH227184   2.517   0.909   8.147  0.3237  0.1263 -0.6097
 1850TIP3    H127185   2.543   0.997   8.120  0.3085 -0.1355 -1.5283
 1850TIP3    H227186   2.593   0.874   8.194  0.6073  0.3644 -0.8871
 1851TIP3   OH227187   5.903   1.640   7.227  0.8655  0.0912  1.0721
 1851TIP3    H127188   5.904   1.637   7.132 -1.4914 -1.3338  1.0282
 1851TIP3    H227189   5.958   1.715   7.249  0.9021  0.8757 -1.4130
 1852TIP3   OH227190   5.388   0.824   7.358 -0.4255  0.4277  0.4906
 1852TIP3    H127191   5.398   0.781   7.273 -0.1122 -0.7945  1.1096
 1852TIP3    H227192   5.300   0.859   7.357 -0.2994  0.7399 -0.4743
 1853TIP3   OH227193   2.722   3.614   8.395  0.0301 -0.1525 -0.1707
 1853TIP3    H127194   2.789   3.682   8.405 -0.5392  0.2682  0.9157
 1853TIP3    H227195   2.747   3.568   8.315  0.6485  1.0917 -0.7231
 1854TIP3   OH227196   4.739   6.736   0.542  0.1971 -0.2758  0.1697
 1854TIP3    H127197   4.784   6.811   0.579  1.6201 -0.1585 -1.6316
 1854TIP3    H227198   4.662   6.772   0.499  0.0762 -0.0429  0.5862
 1855TIP3   OH227199   2.384   4.747   0.485 -0.5963 -0.5794  0.0435
 1855TIP3    H127200   2.328   4.688   0.435 -0.3489 -0.6894 -0.1032
 1855TIP3    H227201   2.449   4.778   0.423  0.3086 -1.4830  0.5226
 1856TIP3   OH227202   4.458   3.031   2.615 -0.0626  0.2624  0.4806
 1856TIP3    H127203   4.380   3.057   2.566  0.7010  3.2145  0.6753
 1856TIP3    H227204   4.442   3.061   2.704  0.5084 -0.8575  0.9747
 1857TIP3   OH227205   6.129   6.424   8.541 -0.1522 -0.4272  0.5585
 1857TIP3    H127206   6.186   6.489   8.582  1.7649 -0.6460 -1.5910
 1857TIP3    H227207   6.054   6.475   8.510  1.3618  0.8860 -1.1770
 1858TIP3   OH227208   1.102   2.925   0.950 -1.0086  0.3852  0.4523
 1858TIP3    H127209   1.047   2.974   0.889 -0.9439  2.6913  2.1265
 1858TIP3    H227210   1.047   2.912   1.027 -0.0758  0.4010  1.1468
 1859TIP3   OH227211   0.408   4.308   7.952  0.0841  0.0418  0.1409
 1859TIP3    H127212   0.340   4.370   7.926  0.7965 -0.7669 -4.5138
 1859TIP3    H227213   0.489   4.357   7.948  0.2805 -0.2527  0.4154
 1860TIP3   OH227214   2.018   0.843   6.645 -0.1554 -0.1921  0.2701
 1860TIP3    H127215   2.076   0.847   6.568  1.2520 -0.7548  1.2557
 1860TIP3    H227216   1.976   0.757   6.638  0.7727 -0.6938  0.6569
 1861TIP3   OH227217   0.145   5.302   7.466  0.5170  0.2815 -0.2872
 1861TIP3    H127218   0.165   5.270   7.553 -1.1368 -1.1855 -0.3941
 1861TIP3    H227219   0.069   5.359   7.479  1.7871  2.1379 -0.4820
 1862TIP3   OH227220   6.928   3.238   6.819 -0.2644 -0.3352 -0.5552
 1862TIP3    H127221   6.964   3.165   6.870  1.6306  1.0501  0.2054
 1862TIP3    H227222   6.913   3.202   6.732  0.3546 -1.7040 -0.1219
 1863TIP3   OH227223   2.487   0.248   8.248  0.3413  0.6995 -0.3770
 1863TIP3    H127224   2.439   0.316   8.295  0.8133  0.9428 -0.2375
 1863TIP3    H227225   2.561   0.295   8.208  2.1970 -0.1355  1.8825
 1864TIP3   OH227226   4.964   3.726   0.310 -0.5085  0.0434 -0.0051
 1864TIP3    H127227   4.972   3.638   0.274 -0.4825 -1.3610  3.1576
 1864TIP3    H227228   5.052   3.764   0.300 -0.1540 -0.7999 -0.1369
 1865TIP3   OH227229   2.329   4.890   0.118  1.1460  0.0564 -0.1733
 1865TIP3    H127230   2.247   4.924   0.155  0.7219 -0.8862 -0.1951
 1865TIP3    H227231   2.319   4.901   0.023  1.1470  0.1783 -0.1583
 1866TIP3   OH227232   2.577   6.457   8.036 -0.4951 -0.2334  0.0139
 1866TIP3    H127233   2.616   6.383   8.084  0.2556  0.2798  0.2073
 1866TIP3    H227234   2.483   6.439   8.037 -0.3523 -0.9995  0.3795
 1867TIP3   OH227235   1.641   1.903   0.955 -0.7491 -0.0772 -1.0212
 1867TIP3    H127236   1.633   1.960   0.879  0.3736 -0.5294 -1.5064
 1867TIP3    H227237   1.640   1.963   1.030  1.2656  0.7271 -1.5611
 1868TIP3   OH227238   4.446   2.323   8.541 -0.0916 -0.0899 -0.4029
 1868TIP3    H127239   4.390   2.245   8.538 -2.1793  1.2731  0.6464
 1868TIP3    H227240   4.392   2.389   8.585  2.7013  1.0550  1.6067
 1869TIP3   OH227241   4.996   3.546   1.731  0.1171  0.2944 -0.7514
 1869TIP3    H127242   5.017   3.597   1.652 -1.7974  0.0100 -1.4879
 1869TIP3    H227243   4.989   3.612   1.800  0.4241  0.7032 -1.0956
 1870TIP3   OH227244   4.019   3.396   0.987  0.0024  0.5558 -0.2457
 1870TIP3    H127245   3.972   3.313   0.977  0.5362 -0.3402  3.3414
 1870TIP3    H227246   3.950   3.460   1.003 -0.3479  0.6820 -2.0619
 1871TIP3   OH227247   2.532   4.373   8.608 -0.3095 -0.1142  0.2724
 1871TIP3    H127248   2.611   4.346   8.560 -1.3020 -2.1482 -0.3288
 1871TIP3    H227249   2.562   4.445   8.664  1.4851  0.6130 -1.4857
 1872TIP3   OH227250   0.556   5.912   1.077 -0.2616  0.3844 -0.2178
 1872TIP3    H127251   0.644   5.881   1.097 -0.5913  0.6813  1.8979
 1872TIP3    H227252   0.569   5.987   1.019  0.7467 -0.7843 -1.5737
 1873TIP3   OH227253   0.556   6.752   8.245 -0.0168  0.0660  0.0425
 1873TIP3    H127254   0.569   6.829   8.190 -0.2447  0.5448  0.6380
 1873TIP3    H227255   0.510   6.786   8.322 -0.2431 -0.6916  0.2510
 1874TIP3   OH227256   1.510   1.278   0.718 -0.4389 -0.4919  0.0145
 1874TIP3    H127257   1.486   1.341   0.651 -1.4692 -0.3883  0.4754
 1874TIP3    H227258   1.429   1.233   0.740  0.1782 -1.6192  0.0743
 1875TIP3   OH227259   1.204   1.222   7.765  0.1495 -0.4058  0.5499
 1875TIP3    H127260   1.120   1.199   7.726  0.6562 -1.8131  0.2446
 1875TIP3    H227261   1.191   1.210   7.859 -0.2456  0.2680  0.5881
 1876TIP3   OH227262   0.196   4.241   1.414  0.2532 -0.7010  0.0616
 1876TIP3    H127263   0.255   4.167   1.430 -0.3189 -0.8721  1.5382
 1876TIP3    H227264   0.123   4.203   1.367  1.0685 -0.5828 -1.3439
 1877TIP3   OH227265   0.757   0.233   1.739  0.6714  0.2539  0.6642
 1877TIP3    H127266   0.764   0.240   1.834  0.4341 -1.4675  0.8356
 1877TIP3    H227267   0.684   0.290   1.716  0.6235  0.5590  1.5319
 1878TIP3   OH227268   0.007   6.574   8.574 -0.1668  0.1999 -0.1748
 1878TIP3    H127269   0.058   6.638   8.525  1.1142 -1.6333 -1.3611
 1878TIP3    H227270  -0.044   6.528   8.508  0.2196 -1.1105  0.4010
 1879TIP3   OH227271   4.060   4.981   8.472 -1.0578 -0.5286  0.1513
 1879TIP3    H127272   3.987   4.920   8.460 -0.6441 -0.6949 -1.7665
 1879TIP3    H227273   4.022   5.068   8.457 -1.1095 -0.5129  0.3675
 1880TIP3   OH227274   4.305   2.333   7.383 -0.3583 -0.0977  0.5389
 1880TIP3    H127275   4.387   2.351   7.337 -0.3328  0.5089  0.8172
 1880TIP3    H227276   4.284   2.243   7.359  0.5500 -0.3643  0.7123
 1881TIP3   OH227277   2.687   6.375   6.962 -0.5607 -0.1614 -0.6948
 1881TIP3    H127278   2.734   6.435   7.020 -0.2022 -0.3975 -0.7382
 1881TIP3    H227279   2.719   6.397   6.874 -0.4729 -0.3742 -0.7169
 1882TIP3   OH227280   1.162   5.924   0.932 -0.0341  0.2396 -0.1497
 1882TIP3    H127281   1.097   5.977   0.979 -0.3283 -0.4411  0.2197
 1882TIP3    H227282   1.144   5.940   0.840 -0.0303  0.8933 -0.0409
 1883TIP3   OH227283   5.423   5.390   1.277 -0.1593 -0.0392  0.0308
 1883TIP3    H127284   5.332   5.422   1.277 -0.8514 -1.9193  0.1709
 1883TIP3    H227285   5.430   5.340   1.358  0.0151 -2.5273 -1.4440
 1884TIP3   OH227286   2.470   0.006   1.590 -0.1373  0.1052 -0.8534
 1884TIP3    H127287   2.426  -0.077   1.606  1.5869 -0.8646 -0.9734
 1884TIP3    H227288   2.457   0.055   1.671  0.1299 -0.8804 -0.1973
 1885TIP3   OH227289   2.022   5.157   7.258  0.6196 -0.3132 -0.2805
 1885TIP3    H127290   2.048   5.170   7.167  1.1010  0.0683 -0.0937
 1885TIP3    H227291   1.952   5.220   7.273  0.9524  0.0451 -0.2169
 1886TIP3   OH227292   3.945   0.519   7.613 -0.1475  0.0739  0.2209
 1886TIP3    H127293   3.890   0.483   7.682  0.0697  1.6536  1.2962
 1886TIP3    H227294   3.889   0.582   7.568  0.7788  1.9458  1.5414
 1887TIP3   OH227295   6.516   3.527   6.352 -0.5347  0.3366 -0.2224
 1887TIP3    H127296   6.524   3.470   6.275 -2.0165 -0.8349  0.4476
 1887TIP3    H227297   6.499   3.614   6.316 -0.3387 -0.0267 -1.2296
 1888TIP3   OH227298   5.416   6.312   0.461 -0.4876 -0.1868 -0.1869
 1888TIP3    H127299   5.388   6.357   0.381 -1.2530  0.0306  0.1911
 1888TIP3    H227300   5.351   6.244   0.475  0.3120 -1.0243 -0.3980
 1889TIP3   OH227301   2.720   0.503   0.903 -0.2415 -0.2325  0.3304
 1889TIP3    H127302   2.794   0.509   0.843 -0.0548 -0.6239  0.5208
 1889TIP3    H227303   2.733   0.420   0.949 -1.0586 -0.5334  0.0272
 1890TIP3   OH227304   6.653   0.493   2.371  0.3698 -0.4548 -0.3071
 1890TIP3    H127305   6.639   0.578   2.330 -1.0292 -0.0584  0.8790
 1890TIP3    H227306   6.739   0.465   2.342  0.9044  1.4235 -0.6209
 1891TIP3   OH227307   3.271   4.383   8.496 -0.6675 -0.4057 -0.5905
 1891TIP3    H127308   3.233   4.296   8.512  1.1579 -1.2849 -0.7676
 1891TIP3    H227309   3.251   4.402   8.405 -1.8239 -0.2266 -0.3150
 1892TIP3   OH227310   4.440   6.312   0.373 -0.2442 -0.2746  0.2066
 1892TIP3    H127311   4.383   6.350   0.306  0.8547 -0.1510 -0.6857
 1892TIP3    H227312   4.497   6.252   0.325 -2.5227 -3.9745  1.6639
 1893TIP3   OH227313   1.281   3.851   6.827  0.0750  0.9714 -0.4075
 1893TIP3    H127314   1.333   3.807   6.760 -1.0394  0.2098 -0.7940
 1893TIP3    H227315   1.230   3.916   6.780  0.6950  1.7566 -0.0195
 1894TIP3   OH227316   6.424   3.248   8.527 -0.2295  0.3879  0.1691
 1894TIP3    H127317   6.445   3.322   8.469  0.6625 -0.7334 -1.0135
 1894TIP3    H227318   6.398   3.178   8.467  1.3627 -1.0306  1.0401
 1895TIP3   OH227319   0.917   6.255   6.819  0.3297  0.4344 -0.3500
 1895TIP3    H127320   0.832   6.251   6.777 -0.2267  2.4687  0.4616
 1895TIP3    H227321   0.898   6.262   6.913  1.5024 -2.4804  0.2208
 1896TIP3   OH227322   4.118   6.909   8.356 -0.1991  0.0465 -0.4480
 1896TIP3    H127323   4.095   6.969   8.286 -1.7724 -0.4668 -0.4069
 1896TIP3    H227324   4.210   6.886   8.339  0.3602  2.1858 -0.6320
 1897TIP3   OH227325   2.481   6.015   6.941 -0.4156  0.1896 -0.2998
 1897TIP3    H127326   2.405   5.992   6.995  1.2259  0.5518  2.3875
 1897TIP3    H227327   2.553   5.963   6.979  0.8556  0.4566 -2.2139
 1898TIP3   OH227328   4.769   4.435   8.314  0.1025 -0.0673  0.4034
 1898TIP3    H127329   4.730   4.356   8.351  1.3231  0.2451  2.5448
 1898TIP3    H227330   4.861   4.413   8.301  0.4840  0.9826  1.1137
 1899TIP3   OH227331   6.092   4.909   0.009  0.0677  0.7476 -0.1401
 1899TIP3    H127332   6.087   4.879   0.100  0.0451 -0.0792 -0.4104
 1899TIP3    H227333   6.021   4.864  -0.036  0.4843  0.6408 -0.7097
 1900TIP3   OH227334   6.666   6.053   7.483  0.3551  0.3285  0.0231
 1900TIP3    H127335   6.605   6.021   7.416  2.2290 -0.4775 -1.4212
 1900TIP3    H227336   6.645   6.146   7.492 -0.6315  0.2229 -0.9403
 1901TIP3   OH227337   1.655   3.421   7.847  0.0376  0.4459  0.1694
 1901TIP3    H127338   1.595   3.394   7.917  1.8655  0.6822  1.9469
 1901TIP3    H227339   1.613   3.391   7.766 -3.1770  1.9322  1.1239
 1902TIP3   OH227340   3.848   3.133   1.342 -0.4142  0.0076  0.1500
 1902TIP3    H127341   3.814   3.065   1.285 -0.0928 -0.4892  0.5458
 1902TIP3    H227342   3.864   3.207   1.284 -1.0508 -0.1471 -0.2305
 1903TIP3   OH227343   1.923   2.385   7.102 -0.0415  0.1329  0.0732
 1903TIP3    H127344   1.847   2.437   7.125  0.0725  0.0112  0.7384
 1903TIP3    H227345   1.908   2.358   7.011 -0.7340  0.2008  0.1694
 1904TIP3   OH227346   6.812   5.036   8.545 -0.3901 -0.1271  0.0440
 1904TIP3    H127347   6.809   4.982   8.466  2.0078 -0.4560  0.0836
 1904TIP3    H227348   6.841   5.122   8.515 -0.0192 -0.0923  0.4853
 1905TIP3   OH227349   0.972   6.384   1.544  0.2214  0.4069  0.2130
 1905TIP3    H127350   1.021   6.325   1.487 -1.4124  1.2952 -2.3006
 1905TIP3    H227351   0.910   6.327   1.589  2.1996 -0.4543  2.0383
 1906TIP3   OH227352   6.549   2.949   1.607 -0.0569  0.1353  0.2131
 1906TIP3    H127353   6.619   2.980   1.549  1.1581 -1.4401  0.7661
 1906TIP3    H227354   6.562   2.999   1.688 -0.9013  1.3410 -0.3666
 1907TIP3   OH227355   2.361   1.264   2.607  0.3015  0.2819 -0.1912
 1907TIP3    H127356   2.453   1.280   2.586  0.7517  0.5131  1.7794
 1907TIP3    H227357   2.362   1.233   2.698 -1.4899 -0.7089 -0.4568
 1908TIP3   OH227358   0.764   3.355   0.396  0.1185  0.3663  0.1765
 1908TIP3    H127359   0.780   3.311   0.480 -0.5196 -0.5877 -0.1805
 1908TIP3    H227360   0.685   3.407   0.411  0.8723  1.4079  0.5990
 1909TIP3   OH227361   2.848   2.352   7.547 -0.6624  0.0754 -0.7791
 1909TIP3    H127362   2.806   2.328   7.464  0.7168 -0.4714 -1.3630
 1909TIP3    H227363   2.900   2.430   7.526  0.6091 -0.7328 -0.7666
 1910TIP3   OH227364   0.813   1.254   7.967 -0.1544  0.0612  0.0418
 1910TIP3    H127365   0.835   1.245   8.060 -0.0812 -1.3514 -0.0890
 1910TIP3    H227366   0.717   1.253   7.966 -0.1534 -0.3423  0.0762
 1911TIP3   OH227367   4.866   0.706   2.551 -0.3428  0.0636  0.1887
 1911TIP3    H127368   4.949   0.701   2.597 -0.4473 -0.8554  0.3029
 1911TIP3    H227369   4.880   0.772   2.483  0.6470 -0.4424 -0.1185
 1912TIP3   OH227370   5.218   4.203   7.371 -0.1834  0.0922  0.2842
 1912TIP3    H127371   5.184   4.163   7.451 -2.9770  0.0959 -0.7902
 1912TIP3    H227372   5.301   4.158   7.355 -0.4796 -1.2320  2.1699
 1913TIP3   OH227373   5.428   6.763   8.459 -0.5449 -0.1153 -0.3097
 1913TIP3    H127374   5.479   6.686   8.484 -0.8360 -0.1294  0.2611
 1913TIP3    H227375   5.390   6.741   8.375  0.7925  0.0916 -0.9879
 1914TIP3   OH227376   5.544   2.163   8.275  0.6701 -0.3691  0.0723
 1914TIP3    H127377   5.638   2.174   8.290  0.5776  2.0349 -0.6298
 1914TIP3    H227378   5.506   2.247   8.301 -1.3201 -1.3204  0.4418
 1915TIP3   OH227379   4.990   5.945   0.458  0.2133  0.7249 -0.3638
 1915TIP3    H127380   4.901   5.956   0.424  0.3163  0.3186 -0.7728
 1915TIP3    H227381   4.982   5.963   0.552 -0.1533  1.4291 -0.5283
 1916TIP3   OH227382   3.759   1.548   7.743  0.1454 -0.6951 -0.3134
 1916TIP3    H127383   3.668   1.525   7.760  0.4399 -0.7431  1.3821
 1916TIP3    H227384   3.796   1.565   7.830  2.3148 -2.7871 -0.7271
 1917TIP3   OH227385   3.121   5.687   7.189 -0.8932  0.4579 -0.1831
 1917TIP3    H127386   3.145   5.709   7.099 -1.9787 -0.5531 -0.7486
 1917TIP3    H227387   3.085   5.598   7.183  0.9707 -0.5087  1.5727
 1918TIP3   OH227388   4.331   0.048   2.315 -0.2818 -0.2973 -0.1701
 1918TIP3    H127389   4.278   0.126   2.326 -0.5131 -0.7194  2.2146
 1918TIP3    H227390   4.313   0.019   2.225 -3.2900  0.1375  0.2006
 1919TIP3   OH227391   5.586   5.098   1.880  0.0794  0.3108  0.0350
 1919TIP3    H127392   5.579   5.022   1.938 -2.1298  0.3377 -0.1066
 1919TIP3    H227393   5.627   5.166   1.933  1.6328 -0.7921  0.3179
 1920TIP3   OH227394   0.394   4.773   6.862  0.4909 -0.2019  0.0880
 1920TIP3    H127395   0.353   4.815   6.786 -0.8276 -1.2188  0.1998
 1920TIP3    H227396   0.334   4.790   6.934  0.3925 -1.4588  0.3287
 1921TIP3   OH227397   0.329   1.797   7.346  0.6787 -0.2054  0.1855
 1921TIP3    H127398   0.329   1.749   7.263  0.6366  0.3271 -0.1233
 1921TIP3    H227399   0.250   1.850   7.342  0.1314 -0.9311  1.0096
 1922TIP3   OH227400   2.046   1.174   0.516 -0.2069 -0.3318 -0.2793
 1922TIP3    H127401   2.065   1.158   0.608 -0.5796 -1.0740 -0.3225
 1922TIP3    H227402   2.096   1.253   0.494  0.7183 -0.7481  0.2761
 1923TIP3   OH227403   6.477   4.941   0.511 -0.8288 -0.5053  0.4957
 1923TIP3    H127404   6.423   4.889   0.571 -1.2430 -2.2819 -1.2799
 1923TIP3    H227405   6.474   4.892   0.429  3.9345 -1.0311  0.3838
 1924TIP3   OH227406   4.919   0.821   1.357  0.3579  0.3203  0.0034
 1924TIP3    H127407   4.874   0.759   1.300 -0.4466  0.4754  0.4474
 1924TIP3    H227408   4.995   0.849   1.306  0.5203 -0.7216 -0.3563
 1925TIP3   OH227409   6.388   5.152   7.227 -0.1969  0.3318  0.0855
 1925TIP3    H127410   6.366   5.157   7.134 -0.7161 -1.7254  0.0427
 1925TIP3    H227411   6.320   5.096   7.264  0.7453  0.0561  1.4567
 1926TIP3   OH227412   0.481   0.260   0.960  0.3296  0.2206 -0.1503
 1926TIP3    H127413   0.529   0.268   1.042  1.5828  0.2091 -0.8557
 1926TIP3    H227414   0.477   0.349   0.926  0.1536  0.1705 -0.2625
 1927TIP3   OH227415   3.951   6.505   6.803 -0.3132  0.4726 -0.6433
 1927TIP3    H127416   4.025   6.451   6.774 -0.0921  0.4642 -0.0812
 1927TIP3    H227417   3.873   6.459   6.771 -0.0562  1.0132 -2.1383
 1928TIP3   OH227418   4.702   3.291   7.620 -0.1269  0.4812 -0.3933
 1928TIP3    H127419   4.772   3.243   7.575 -0.1602  1.3831 -1.4607
 1928TIP3    H227420   4.652   3.223   7.666  0.3662 -0.4026 -1.1162
 1929TIP3   OH227421   6.288   6.666   7.183 -0.5707 -0.2886  0.0245
 1929TIP3    H127422   6.238   6.586   7.199 -1.8148  0.7760  1.8007
 1929TIP3    H227423   6.315   6.660   7.091 -1.6360 -2.1803 -0.2022
 1930TIP3   OH227424   6.197   3.675   8.427 -0.3487  0.2280  0.2376
 1930TIP3    H127425   6.105   3.677   8.453 -0.0188 -3.3682  2.2911
 1930TIP3    H227426   6.195   3.683   8.332 -2.8830 -0.6695  0.1382
 1931TIP3   OH227427   6.413   2.356   7.686  0.1439 -0.0321 -0.0386
 1931TIP3    H127428   6.322   2.370   7.661  0.6401  0.9319 -1.4379
 1931TIP3    H227429   6.409   2.293   7.757 -1.5663 -0.5405 -0.5441
 1932TIP3   OH227430   3.298   6.471   8.000 -0.0852 -0.1143  0.1340
 1932TIP3    H127431   3.266   6.381   7.998  0.8898 -0.4650 -0.7149
 1932TIP3    H227432   3.358   6.477   7.925  2.0730  0.3988  1.7849
 1933TIP3   OH227433   0.246   0.191   1.056 -0.2717  0.2336  0.0705
 1933TIP3    H127434   0.224   0.104   1.022 -1.0111  0.7073 -0.6941
 1933TIP3    H227435   0.340   0.200   1.039 -0.4048  0.0117 -0.8303
 1934TIP3   OH227436   0.355   2.509   1.730 -0.0242 -0.3204 -0.3148
 1934TIP3    H127437   0.383   2.597   1.703 -0.3986 -1.2264 -4.2179
 1934TIP3    H227438   0.269   2.523   1.769 -0.2000  1.0745 -1.1061
 1935TIP3   OH227439   0.651   6.089   0.276 -0.1593 -0.2511 -0.5691
 1935TIP3    H127440   0.697   6.100   0.359 -0.5621  1.8244 -0.5658
 1935TIP3    H227441   0.601   6.170   0.266 -0.3781 -0.6009 -2.6762
 1936TIP3   OH227442   1.245   0.147   7.222  0.0137  0.0273 -0.4235
 1936TIP3    H127443   1.333   0.181   7.235 -0.3697  1.1423 -0.6825
 1936TIP3    H227444   1.219   0.179   7.136  0.2706 -2.3453 -1.4694
 1937TIP3   OH227445   4.478   5.526   0.841  0.1988  0.4550  0.1219
 1937TIP3    H127446   4.539   5.585   0.798  0.1805  0.7464  0.4881
 1937TIP3    H227447   4.399   5.579   0.856 -0.0120  0.1871 -0.0230
 1938TIP3   OH227448   4.321   6.160   8.072 -0.6409  0.3661 -0.1797
 1938TIP3    H127449   4.279   6.199   7.995 -0.3844  0.2081 -0.4027
 1938TIP3    H227450   4.392   6.219   8.094  1.0627 -0.9584 -1.7676
 1939TIP3   OH227451   5.642   0.558   1.824  0.0789  0.0524  0.1922
 1939TIP3    H127452   5.697   0.480   1.828  0.3133  0.2215  0.2802
 1939TIP3    H227453   5.632   0.574   1.730  0.8436  0.4812  0.1734
 1940TIP3   OH227454   5.907   6.015   7.753  0.1513 -0.2900 -0.4392
 1940TIP3    H127455   5.847   6.083   7.784  0.0479 -0.9624  0.9050
 1940TIP3    H227456   5.856   5.935   7.757  0.8708 -0.7390 -0.1327
 1941TIP3   OH227457   3.642   1.625   0.149  0.0496  0.2350  0.0246
 1941TIP3    H127458   3.572   1.618   0.214 -1.3816  0.0854 -1.4554
 1941TIP3    H227459   3.686   1.540   0.151 -0.2450  0.0942  0.5127
 1942TIP3   OH227460   2.802   4.767   2.399  0.0426  0.2909 -0.0339
 1942TIP3    H127461   2.831   4.742   2.312 -0.3039  0.0689 -0.0863
 1942TIP3    H227462   2.755   4.690   2.433 -0.6678  0.7091 -0.0372
 1943TIP3   OH227463   4.091   6.765   0.051  0.3159  0.3538  0.4234
 1943TIP3    H127464   4.048   6.679   0.046  1.2532 -0.1239  0.4131
 1943TIP3    H227465   4.032   6.824   0.004 -1.1089  0.0356  1.7563
 1944TIP3   OH227466   3.790   0.737   6.793 -0.1364  0.5170 -0.8955
 1944TIP3    H127467   3.863   0.682   6.764  0.3372  0.7256 -0.1082
 1944TIP3    H227468   3.714   0.678   6.794  0.5637 -0.4143  0.9388
 1945TIP3   OH227469   2.905   3.097   0.907  0.2649  0.3556  0.1700
 1945TIP3    H127470   2.833   3.036   0.924  0.3410  0.7391  1.9659
 1945TIP3    H227471   2.973   3.043   0.866 -0.7001 -0.1705 -0.8122
 1946TIP3   OH227472   1.110   4.610   1.686 -0.0810 -0.3575 -0.2281
 1946TIP3    H127473   1.033   4.659   1.715  0.1155  0.0708 -0.4218
 1946TIP3    H227474   1.088   4.518   1.704 -0.0471 -0.1250  1.0784
 1947TIP3   OH227475   2.761   4.245   8.233 -0.5196 -0.5067  0.1161
 1947TIP3    H127476   2.755   4.340   8.232 -1.7805 -0.5541  0.4527
 1947TIP3    H227477   2.854   4.226   8.244 -0.2813  0.6830  0.2569
 1948TIP3   OH227478   0.941   1.178   7.723 -1.1358  0.2204  0.1653
 1948TIP3    H127479   0.921   1.240   7.652 -2.7020 -0.4542 -0.0219
 1948TIP3    H227480   0.895   1.214   7.799 -1.2838 -0.2211  0.2870
 1949TIP3   OH227481   5.567   0.157   7.100  0.2384  0.3772 -0.1235
 1949TIP3    H127482   5.544   0.082   7.044 -1.3356  0.6283  0.1580
 1949TIP3    H227483   5.653   0.184   7.068 -0.1968 -0.0778 -1.8248
 1950TIP3   OH227484   3.900   6.676   6.455 -0.2719  0.1788  0.4086
 1950TIP3    H127485   3.835   6.629   6.403  1.0680  1.7996 -3.0836
 1950TIP3    H227486   3.892   6.767   6.427  1.1127  1.0256  2.5388
 1951TIP3   OH227487   2.877   5.734   1.478  0.2343 -0.1905  0.0413
 1951TIP3    H127488   2.901   5.732   1.571 -0.2231  0.0729  0.1660
 1951TIP3    H227489   2.925   5.809   1.443  0.2041 -0.1343  0.1201
 1952TIP3   OH227490   2.333   3.604   7.561  0.2269 -0.4648  0.2153
 1952TIP3    H127491   2.274   3.529   7.552  1.9274 -2.0976  1.6960
 1952TIP3    H227492   2.281   3.670   7.608 -0.6593 -1.5569  0.8284
 1953TIP3   OH227493   4.325   5.944   8.490 -0.0442  0.0754  0.1692
 1953TIP3    H127494   4.308   6.010   8.423 -0.3998  0.7562  0.9131
 1953TIP3    H227495   4.249   5.885   8.485  0.0699 -0.0381 -0.2194
 1954TIP3   OH227496   6.206   2.324   1.509 -0.2255  0.0870  0.4725
 1954TIP3    H127497   6.249   2.254   1.558 -1.7707 -0.9464  0.3964
 1954TIP3    H227498   6.264   2.400   1.522  0.1038 -0.4779  2.8185
 1955TIP3   OH227499   1.726   0.967   8.238  0.2747 -0.2731 -0.4312
 1955TIP3    H127500   1.743   1.026   8.165 -0.1000 -0.4809 -0.6875
 1955TIP3    H227501   1.808   0.919   8.250  0.4604  0.0338 -0.4595
 1956TIP3   OH227502   2.539   3.959   0.953  0.3699  0.4686 -0.1316
 1956TIP3    H127503   2.586   3.899   1.010  0.4116  0.9846  0.3844
 1956TIP3    H227504   2.606   3.997   0.897  0.2330 -0.5777 -1.0335
 1957TIP3   OH227505   5.482   4.922   6.785  0.7620 -0.2145  0.6483
 1957TIP3    H127506   5.529   4.840   6.771  0.3507 -0.0828 -2.2600
 1957TIP3    H227507   5.551   4.989   6.788  1.0975 -0.5990  3.0320
 1958TIP3   OH227508   2.594   2.335   8.366 -0.0849 -0.1190 -0.0511
 1958TIP3    H127509   2.626   2.261   8.313  1.4702 -0.2513  1.0223
 1958TIP3    H227510   2.505   2.350   8.333 -0.1169 -1.8746 -0.9225
 1959TIP3   OH227511   0.927   3.361   7.797 -0.0518  0.5894  0.0276
 1959TIP3    H127512   1.006   3.318   7.831 -1.0981 -0.9599  0.6132
 1959TIP3    H227513   0.884   3.397   7.875 -0.8721 -0.2503 -0.0119
 1960TIP3   OH227514   4.542   5.136   0.517 -0.2720 -0.1048 -0.2648
 1960TIP3    H127515   4.628   5.177   0.525 -0.3125  0.2467 -1.5210
 1960TIP3    H227516   4.507   5.168   0.434 -0.7870 -1.7670 -0.7371
 1961TIP3   OH227517   0.731   6.714   0.839  0.2459  0.0754  0.0747
 1961TIP3    H127518   0.803   6.667   0.798  0.4750 -1.2238  1.8545
 1961TIP3    H227519   0.746   6.704   0.933 -2.1115 -0.0350  0.5029
 1962TIP3   OH227520   3.492   0.837   1.610 -0.4024 -0.1083 -0.4770
 1962TIP3    H127521   3.565   0.827   1.549 -0.2666  0.4594 -0.4121
 1962TIP3    H227522   3.434   0.764   1.590 -0.0137 -0.3301 -0.8066
 1963TIP3   OH227523   1.498   4.279   0.281  0.2687 -0.1260  0.1248
 1963TIP3    H127524   1.409   4.280   0.246  0.3357  0.3215 -0.0420
 1963TIP3    H227525   1.519   4.186   0.292 -0.4552 -0.2240  0.7690
 1964TIP3   OH227526   6.352   6.374   0.341 -0.3039  0.5006 -0.8340
 1964TIP3    H127527   6.414   6.305   0.361 -0.9265 -0.8145 -3.0374
 1964TIP3    H227528   6.287   6.370   0.411  0.7882  0.2778  0.1875
 1965TIP3   OH227529   4.983   5.656   2.132  0.1223  0.2275 -0.2498
 1965TIP3    H127530   4.904   5.614   2.166  0.5847  1.8233  3.1674
 1965TIP3    H227531   4.951   5.731   2.082 -0.5374  0.1461  0.0460
 1966TIP3   OH227532   5.279   5.127   8.466 -0.6477 -0.4587 -0.5927
 1966TIP3    H127533   5.289   5.108   8.373 -1.6583 -0.3646 -0.7310
 1966TIP3    H227534   5.249   5.045   8.505 -0.8626 -0.3192 -0.4607
 1967TIP3   OH227535   6.200   0.461   0.057 -0.1364  0.5337 -0.4199
 1967TIP3    H127536   6.138   0.480  -0.013  0.2369 -1.7153 -1.4429
 1967TIP3    H227537   6.145   0.453   0.136 -1.1250 -1.0009 -1.2241
 1968TIP3   OH227538   5.253   3.670   0.392 -0.1212  0.1980  0.2045
 1968TIP3    H127539   5.256   3.691   0.486 -1.8352  0.5845  0.2068
 1968TIP3    H227540   5.253   3.756   0.349  0.7720  0.0185 -0.1689
 1969TIP3   OH227541   0.128   4.615   7.522  0.3073  0.4049  0.0612
 1969TIP3    H127542   0.139   4.628   7.427  0.4883 -0.4266 -0.0440
 1969TIP3    H227543   0.064   4.545   7.529  0.7066  0.0808  0.5442
 1970TIP3   OH227544   6.849   1.813   6.323 -0.1355  0.4505  0.1163
 1970TIP3    H127545   6.869   1.856   6.240 -1.2754  2.5628  0.8721
 1970TIP3    H227546   6.757   1.785   6.314 -0.0985  0.2007  0.4779
 1971TIP3   OH227547   6.293   3.753   6.555 -0.3289 -0.3436  0.4939
 1971TIP3    H127548   6.223   3.700   6.516 -0.4934  0.6928 -0.7100
 1971TIP3    H227549   6.346   3.691   6.604 -1.3175 -1.3778  0.3091
 1972TIP3   OH227550   2.288   0.308   0.674  1.1785  0.2474  0.3673
 1972TIP3    H127551   2.210   0.326   0.725 -0.0563 -0.7887 -1.0750
 1972TIP3    H227552   2.345   0.384   0.690  0.2048  0.6991  1.9759
 1973TIP3   OH227553   4.664   4.205   8.430  0.6268  0.0474  0.2130
 1973TIP3    H127554   4.590   4.216   8.371 -0.5760 -1.1796  1.4078
 1973TIP3    H227555   4.720   4.141   8.386  0.7332  0.5966 -0.4644
 1974TIP3   OH227556   4.200   2.909   7.643  0.0072  0.1260  0.2711
 1974TIP3    H127557   4.164   2.821   7.654  1.2417 -0.4139  0.2311
 1974TIP3    H227558   4.208   2.921   7.548 -0.5681  0.4673  0.2601
 1975TIP3   OH227559   0.693   3.100   8.343  0.0227 -0.1892 -0.1579
 1975TIP3    H127560   0.646   3.182   8.331  2.0512  0.9832 -0.5397
 1975TIP3    H227561   0.639   3.035   8.297 -0.5350  1.3282 -1.7578
 1976TIP3   OH227562   0.994   0.376   7.823 -0.2012  0.1448 -0.2214
 1976TIP3    H127563   0.996   0.470   7.807  0.6780 -0.0251 -1.2695
 1976TIP3    H227564   0.948   0.340   7.747  1.7643 -0.4611 -1.2196
 1977TIP3   OH227565   3.616   0.935   0.774  0.2723  0.2507  0.5508
 1977TIP3    H127566   3.607   0.950   0.680  2.0736  2.5246  0.6430
 1977TIP3    H227567   3.553   0.995   0.814  0.5477  0.3817  0.7983
 1978TIP3   OH227568   4.723   0.512   1.875  0.4206  0.3024  0.1148
 1978TIP3    H127569   4.775   0.484   1.950  2.6405  1.7547 -0.7852
 1978TIP3    H227570   4.786   0.551   1.814 -1.2790 -0.6930 -2.4901
 1979TIP3   OH227571   5.519   6.926   6.849 -0.0422 -0.4292 -0.3557
 1979TIP3    H127572   5.565   6.986   6.790  1.1928 -1.5896 -0.6035
 1979TIP3    H227573   5.468   6.870   6.791  1.1899 -1.5858 -0.3568
 1980TIP3   OH227574   6.176   0.534   1.940  0.1228 -0.2356  0.2519
 1980TIP3    H127575   6.227   0.566   1.866  1.1428 -0.7771  0.7029
 1980TIP3    H227576   6.193   0.597   2.010  1.1690 -1.0584  0.7693
 1981TIP3   OH227577   3.280   6.878   8.199 -0.4874 -0.5621 -0.6556
 1981TIP3    H127578   3.272   6.827   8.119  1.8256  0.0797 -1.3534
 1981TIP3    H227579   3.343   6.830   8.253  0.1664  0.4864 -0.4571
 1982TIP3   OH227580   5.943   5.183   0.105 -0.3775  0.8226 -0.1963
 1982TIP3    H127581   5.981   5.240   0.038 -0.5358  0.1772 -0.8636
 1982TIP3    H227582   5.963   5.225   0.188  1.4621  0.7166 -0.5338
 1983TIP3   OH227583   5.632   3.716   6.660 -0.5347 -0.3661 -0.9838
 1983TIP3    H127584   5.659   3.801   6.695  0.4581 -0.9928 -0.1726
 1983TIP3    H227585   5.655   3.721   6.567 -1.0209  0.4524 -1.0736
 1984TIP3   OH227586   4.378   2.963   1.187 -0.0440  0.2871 -0.5633
 1984TIP3    H127587   4.348   2.878   1.219  0.0376  0.8167  1.0126
 1984TIP3    H227588   4.305   2.996   1.136 -0.9399  0.1794  0.5937
 1985TIP3   OH227589   0.302   4.195   0.298 -0.1238 -0.6617 -0.5684
 1985TIP3    H127590   0.293   4.117   0.353  0.9652 -0.6219 -0.3000
 1985TIP3    H227591   0.215   4.234   0.298  0.0703 -0.0118  2.1330
 1986TIP3   OH227592   0.079   0.923   2.250 -0.2341 -0.5691 -0.1259
 1986TIP3    H127593   0.040   0.837   2.240  1.7299 -1.5622  0.2542
 1986TIP3    H227594   0.050   0.954   2.336 -2.3558 -0.0266 -0.9748
 1987TIP3   OH227595   6.098   5.827   1.801  0.0937  0.3573 -0.2124
 1987TIP3    H127596   6.031   5.823   1.868  1.6161 -1.5153  1.3328
 1987TIP3    H227597   6.127   5.918   1.801 -0.0424  0.4342  1.5945
 1988TIP3   OH227598   2.063   4.373   2.880  0.3342 -0.2168 -0.3568
 1988TIP3    H127599   2.141   4.320   2.898  1.0577  1.2413  1.0348
 1988TIP3    H227600   1.992   4.309   2.876  1.2390 -1.3677  0.8849
 1989TIP3   OH227601   2.764   2.815   7.874 -0.2269  0.2028  0.6035
 1989TIP3    H127602   2.772   2.730   7.918 -1.5444 -0.0021  0.4870
 1989TIP3    H227603   2.826   2.811   7.802 -1.8381 -1.5998 -0.7962
 1990TIP3   OH227604   5.025   4.716   7.491 -0.5255  0.3105  0.0749
 1990TIP3    H127605   5.043   4.771   7.415 -0.8530 -0.5264 -0.6241
 1990TIP3    H227606   5.073   4.635   7.474 -1.0294 -0.0909  0.5081
 1991TIP3   OH227607   3.013   0.341   1.650 -0.3197  0.4815  0.0255
 1991TIP3    H127608   3.025   0.247   1.660  2.2145  0.6442 -0.8373
 1991TIP3    H227609   2.993   0.354   1.558 -0.8702  0.7842  0.1828
 1992TIP3   OH227610   1.659   1.714   7.518  0.6164 -0.3013 -1.0427
 1992TIP3    H127611   1.654   1.696   7.424 -0.0421  1.0815 -1.2993
 1992TIP3    H227612   1.573   1.689   7.551  0.5052  0.1413 -0.9914
 1993TIP3   OH227613   6.134   6.180   8.450  0.2069  0.3820  0.4755
 1993TIP3    H127614   6.057   6.188   8.393 -0.3721  0.6532  1.2757
 1993TIP3    H227615   6.158   6.271   8.470  0.2061  0.2836  0.9273
 1994TIP3   OH227616   1.086   0.584   7.640 -0.6435 -0.3143  0.3479
 1994TIP3    H127617   1.047   0.668   7.616 -0.2743  0.3293  1.8181
 1994TIP3    H227618   1.113   0.545   7.557 -1.3677  0.7450 -0.4150
 1995TIP3   OH227619   3.693   3.027   0.281  0.5353 -0.1171 -0.1466
 1995TIP3    H127620   3.692   2.967   0.356 -0.4979  2.8411  2.3970
 1995TIP3    H227621   3.601   3.039   0.258  0.7501  0.3747 -0.7906
 1996TIP3   OH227622   3.717   2.976   1.169 -0.1930  0.5814 -0.0356
 1996TIP3    H127623   3.629   3.000   1.197 -0.6946 -1.0479 -0.0720
 1996TIP3    H227624   3.723   2.882   1.189  1.7722  0.7871  0.5892
 1997TIP3   OH227625   6.390   4.982   7.924  0.3636  0.4574  0.1530
 1997TIP3    H127626   6.362   4.950   7.839  0.1833  0.4455  0.2153
 1997TIP3    H227627   6.481   5.009   7.912  0.8999 -1.1642  0.3787
 1998TIP3   OH227628   5.116   3.983   1.837 -0.3702 -0.1614  0.4915
 1998TIP3    H127629   5.097   3.913   1.899  0.8034  1.1490  2.4604
 1998TIP3    H227630   5.115   4.063   1.891 -2.1839  1.4512 -1.7290
 1999TIP3   OH227631   1.039   3.948   7.503 -0.2124  0.8023 -0.2476
 1999TIP3    H127632   1.078   3.863   7.482 -0.0919  0.7810  0.0567
 1999TIP3    H227633   1.097   4.012   7.462 -1.4651  0.6908 -2.3610
 2000TIP3   OH227634   6.282   2.449   2.524  0.2675 -0.3652 -0.3452
 2000TIP3    H127635   6.293   2.541   2.548 -0.1038 -0.0134 -1.4373
 2000TIP3    H227636   6.368   2.421   2.495  1.1784 -1.3122  2.8807
 2001TIP3   OH227637   6.185   2.267   2.214  0.2164  0.5279 -0.5004
 2001TIP3    H127638   6.249   2.337   2.221  0.2022  0.4799  0.2152
 2001TIP3    H227639   6.225   2.192   2.258  0.5797 -0.1878 -1.9821
 2002TIP3   OH227640   0.187   3.869   7.042  0.6764 -0.5140 -0.3345
 2002TIP3    H127641   0.151   3.946   6.998 -0.1170 -1.2329 -0.9698
 2002TIP3    H227642   0.169   3.796   6.983  0.1663 -1.4116  0.8731
 2003TIP3   OH227643   3.300   3.633   7.672  0.1066 -0.5538 -0.8411
 2003TIP3    H127644   3.305   3.566   7.740  1.8980 -1.1268 -1.4619
 2003TIP3    H227645   3.207   3.641   7.652 -0.9808  1.7183  3.6155
 2004TIP3   OH227646   2.622   3.070   7.989  0.1499 -0.0038  0.4073
 2004TIP3    H127647   2.664   2.988   7.964  2.0106  1.0544 -0.1697
 2004TIP3    H227648   2.610   3.062   8.084  2.8077  0.0447  0.8326
 2005TIP3   OH227649   0.484   0.615   6.398 -0.0294 -0.1623  0.3480
 2005TIP3    H127650   0.392   0.606   6.423  0.0905 -4.4505 -0.1048
 2005TIP3    H227651   0.492   0.564   6.317  2.4860  1.4399 -0.5252
 2006TIP3   OH227652   6.402   6.646   6.936 -0.6959 -0.3858  0.5982
 2006TIP3    H127653   6.495   6.661   6.952 -1.0610  1.2727  1.3308
 2006TIP3    H227654   6.389   6.669   6.844 -0.4601 -0.1936  0.6130
 2007TIP3   OH227655   6.007   6.376   7.516 -0.1459 -0.1438 -0.0711
 2007TIP3    H127656   5.985   6.408   7.429  2.5339 -0.4324 -0.9321
 2007TIP3    H227657   6.009   6.281   7.507 -0.0346 -0.1837  0.3507
 2008TIP3   OH227658   4.159   4.119   0.660  0.3106  0.2147  0.3630
 2008TIP3    H127659   4.248   4.119   0.623 -0.5563  1.2684 -1.9783
 2008TIP3    H227660   4.126   4.207   0.640 -1.1964 -0.0821  1.4025
 2009TIP3   OH227661   0.972   5.027   8.103  0.4298  0.3004 -0.7556
 2009TIP3    H127662   0.950   5.048   8.012 -0.0667  0.2594 -0.6526
 2009TIP3    H227663   1.000   5.111   8.140 -0.3751  0.5404 -0.6699
 2010TIP3   OH227664   2.233   0.631   8.021 -0.1903  0.0192 -0.1500
 2010TIP3    H127665   2.174   0.656   7.950 -1.1889  1.4531  1.1339
 2010TIP3    H227666   2.245   0.711   8.073  1.1667 -0.7809  0.8479
 2011TIP3   OH227667   3.971   1.081   1.624  0.1539 -0.4157 -0.0567
 2011TIP3    H127668   3.914   1.079   1.547 -0.9057 -1.4300  0.7395
 2011TIP3    H227669   3.971   1.173   1.651 -3.7287 -0.7931  1.8006
 2012TIP3   OH227670   3.165   5.245   7.833  0.2754 -0.5321  0.0968
 2012TIP3    H127671   3.103   5.273   7.766 -0.1838 -1.0630  0.2923
 2012TIP3    H227672   3.216   5.323   7.853 -1.5543  0.4226  1.2936
 2013TIP3   OH227673   1.444   6.463   8.234  0.7620  0.6111 -0.5359
 2013TIP3    H127674   1.438   6.499   8.146  4.0800 -1.4198 -1.8010
 2013TIP3    H227675   1.514   6.513   8.276 -0.2499  1.0345  0.7217
 2014TIP3   OH227676   2.598   2.592   0.234  0.1288  0.7542  0.0749
 2014TIP3    H127677   2.667   2.652   0.263 -0.0448  1.1486 -0.3215
 2014TIP3    H227678   2.544   2.644   0.175  1.6218 -0.5014 -2.6208
 2015TIP3   OH227679   1.787   4.946   8.616 -1.0283 -0.1998  0.1167
 2015TIP3    H127680   1.787   5.041   8.600 -0.7671 -0.0638  0.8715
 2015TIP3    H227681   1.697   4.919   8.598 -0.9508  0.0750 -0.7301
 2016TIP3   OH227682   1.184   3.827   0.918  0.3572  0.5101  0.1183
 2016TIP3    H127683   1.146   3.739   0.927 -0.3310  0.9385  1.6978
 2016TIP3    H227684   1.182   3.863   1.006 -0.4641  2.5722 -0.6846
 2017TIP3   OH227685   3.472   4.982   0.269  1.1338  0.0588 -0.8205
 2017TIP3    H127686   3.409   5.013   0.204 -1.7140 -1.4337  1.0522
 2017TIP3    H227687   3.453   5.034   0.347  2.0588 -0.6148 -0.1263
 2018TIP3   OH227688   3.464   3.370   1.394 -0.2225 -0.0649 -0.2840
 2018TIP3    H127689   3.382   3.331   1.424  0.1733 -0.1041  0.7860
 2018TIP3    H227690   3.505   3.403   1.474  0.9028 -0.2423 -0.7753
 2019TIP3   OH227691   1.314   2.518   7.104  0.0097 -0.5199 -0.3812
 2019TIP3    H127692   1.329   2.561   7.020 -0.5995 -1.5051 -1.0213
 2019TIP3    H227693   1.220   2.498   7.104 -0.0265 -0.4119  0.5981
 2020TIP3   OH227694   4.514   1.453   8.581  0.1526  0.4050 -0.5420
 2020TIP3    H127695   4.568   1.473   8.504 -1.4192 -2.2393 -2.5244
 2020TIP3    H227696   4.471   1.536   8.602 -0.1774  1.0034 -3.2243
 2021TIP3   OH227697   4.059   6.450   2.220  0.2663  0.0482  0.0121
 2021TIP3    H127698   4.108   6.462   2.301  0.3222  0.5663 -0.0913
 2021TIP3    H227699   4.125   6.451   2.151  0.0675  1.5243 -0.1929
 2022TIP3   OH227700   5.883   5.307   7.692  0.1121 -0.3965  0.1526
 2022TIP3    H127701   5.892   5.261   7.609  2.1993  2.1421 -1.1912
 2022TIP3    H227702   5.943   5.263   7.752  1.0592 -0.2800 -0.6975
 2023TIP3   OH227703   1.026   4.176   1.169  0.5841 -0.0227 -0.8954
 2023TIP3    H127704   1.108   4.189   1.215  0.3190 -0.2715 -0.3519
 2023TIP3    H227705   1.014   4.081   1.166 -0.1823  0.0379 -0.0827
 2024TIP3   OH227706   4.393   1.019   0.624  0.0118 -0.1663  0.1277
 2024TIP3    H127707   4.390   1.104   0.581 -3.5765 -0.7397 -1.1273
 2024TIP3    H227708   4.359   1.036   0.712 -0.2201 -0.2241  0.0490
 2025TIP3   OH227709   1.160   3.778   7.778 -0.1495 -0.0715  0.1461
 2025TIP3    H127710   1.103   3.854   7.771 -1.2075 -0.9154 -0.8975
 2025TIP3    H227711   1.112   3.708   7.735  2.0882 -0.5884 -1.7652
 2026TIP3   OH227712   2.722   1.632   6.992 -0.1454  0.1496  0.2525
 2026TIP3    H127713   2.732   1.697   7.062 -0.6967  1.0209 -0.4553
 2026TIP3    H227714   2.643   1.659   6.945 -0.0643 -0.7120 -0.4078
 2027TIP3   OH227715   3.153   1.642   2.103 -0.6308 -0.1590  0.0237
 2027TIP3    H127716   3.185   1.602   2.022 -1.1164  0.2536 -0.3845
 2027TIP3    H227717   3.139   1.569   2.163  2.3569 -0.2756  0.7230
 2028TIP3   OH227718   6.248   3.717   7.031 -0.0785 -0.5220 -0.0510
 2028TIP3    H127719   6.317   3.772   6.995  0.2224 -0.5707  0.4439
 2028TIP3    H227720   6.207   3.677   6.955 -0.4243  0.5274 -0.4413
 2029TIP3   OH227721   1.358   6.376   6.357  0.5216  0.3979 -0.2412
 2029TIP3    H127722   1.303   6.302   6.332 -1.1598  1.3487  0.5452
 2029TIP3    H227723   1.378   6.361   6.450 -2.9018  2.6751  1.0416
 2030TIP3   OH227724   1.770   2.870   7.912  0.0173  0.3563 -0.5173
 2030TIP3    H127725   1.812   2.884   7.827  0.7516  1.4991  0.0158
 2030TIP3    H227726   1.835   2.824   7.964  0.5563  1.9109  0.2325
 2031TIP3   OH227727   3.526   0.162   2.687 -0.6914  0.1292  0.0262
 2031TIP3    H127728   3.612   0.124   2.667 -0.4752  0.3476  0.5357
 2031TIP3    H227729   3.541   0.256   2.688 -0.9652  0.1742 -0.0037
 2032TIP3   OH227730   1.498   4.934   0.522 -0.0676 -0.6702 -0.2615
 2032TIP3    H127731   1.421   4.948   0.577  0.1366  0.2788 -0.1860
 2032TIP3    H227732   1.572   4.948   0.582  0.1576  0.1281 -0.7003
 2033TIP3   OH227733   2.545   0.177   1.856  0.6833 -0.0153 -0.1953
 2033TIP3    H127734   2.497   0.249   1.897 -0.2919 -0.0616 -1.1960
 2033TIP3    H227735   2.541   0.105   1.919  0.7213  0.4560  0.3510
 2034TIP3   OH227736   4.526   3.861   0.421  0.4535 -0.5671  0.3135
 2034TIP3    H127737   4.459   3.859   0.353  0.3434  0.5260  0.3794
 2034TIP3    H227738   4.603   3.899   0.377  1.1328 -2.0279  0.1670
 2035TIP3   OH227739   2.091   1.760   0.232  0.0840 -0.4166 -0.2915
 2035TIP3    H127740   1.997   1.768   0.219  0.2379 -1.2155 -2.2536
 2035TIP3    H227741   2.125   1.848   0.220 -0.4166 -0.0915  0.6031
 2036TIP3   OH227742   6.097   3.764   1.192  0.0585  0.2903  1.0538
 2036TIP3    H127743   6.161   3.763   1.120 -2.1913  1.9741 -1.1257
 2036TIP3    H227744   6.043   3.686   1.176 -0.8199  0.9940  0.4967
 2037TIP3   OH227745   5.576   1.172   0.341  0.0267 -0.1106  0.1937
 2037TIP3    H127746   5.652   1.131   0.382  0.0672  0.0771  0.3063
 2037TIP3    H227747   5.581   1.264   0.367 -1.3744 -0.4701  1.9668
 2038TIP3   OH227748   6.693   2.958   8.462 -0.1367 -0.3463  0.4461
 2038TIP3    H127749   6.608   2.961   8.507  0.7502  2.6342  2.1643
 2038TIP3    H227750   6.757   2.971   8.531  1.7966 -2.1953 -0.8672
 2039TIP3   OH227751   2.865   2.895   1.275 -0.0823 -0.2096  0.1501
 2039TIP3    H127752   2.810   2.892   1.196  4.0337 -0.0535 -3.0612
 2039TIP3    H227753   2.902   2.807   1.282  1.1425  0.3227  0.6547
 2040TIP3   OH227754   4.447   3.586   0.322 -0.7942 -0.5185 -0.1115
 2040TIP3    H127755   4.512   3.632   0.269 -0.9440  0.9587  0.9257
 2040TIP3    H227756   4.494   3.510   0.357 -0.5838 -1.2935 -1.9749
 2041TIP3   OH227757   5.867   1.519   2.326  0.5759 -0.2652 -0.3807
 2041TIP3    H127758   5.884   1.538   2.418  0.3545  2.7702 -0.8619
 2041TIP3    H227759   5.808   1.443   2.328 -0.9454  0.8207  2.0964
 2042TIP3   OH227760   2.552   2.210   1.750  0.2013  0.1102 -0.0252
 2042TIP3    H127761   2.624   2.272   1.757 -0.0049  0.4629 -0.8197
 2042TIP3    H227762   2.492   2.251   1.688 -1.0693  0.1972  1.2114
 2043TIP3   OH227763   0.147   4.493   1.645  0.3851 -0.3937  0.1005
 2043TIP3    H127764   0.138   4.491   1.550  0.4749 -0.0622  0.0871
 2043TIP3    H227765   0.067   4.533   1.676 -0.2161 -1.6418  0.2428
 2044TIP3   OH227766   3.664   5.210   2.102  0.1534  0.4002 -0.2426
 2044TIP3    H127767   3.605   5.262   2.155  0.2280 -0.1693  0.4201
 2044TIP3    H227768   3.705   5.272   2.042  0.1847  1.0796  0.4769
 2045TIP3   OH227769   6.108   1.131   1.271  0.3795  1.3105 -0.6454
 2045TIP3    H127770   6.032   1.178   1.237  0.6312  0.6270 -2.2075
 2045TIP3    H227771   6.073   1.047   1.301  0.4222  1.2205 -0.8441
 2046TIP3   OH227772   2.911   2.779   2.026  0.4851 -0.0653 -0.4351
 2046TIP3    H127773   2.946   2.690   2.031  2.3496  0.5655 -1.3734
 2046TIP3    H227774   2.826   2.774   2.070  0.5670 -2.2844 -0.4189
 2047TIP3   OH227775   4.129   5.430   8.376 -0.4047 -0.5787 -0.0207
 2047TIP3    H127776   4.119   5.490   8.303 -1.0927 -0.3578  0.2507
 2047TIP3    H227777   4.197   5.470   8.431 -0.0371 -0.6413 -0.4225
 2048TIP3   OH227778   3.792   2.794   1.847  0.3989  0.0879 -0.2347
 2048TIP3    H127779   3.805   2.869   1.788  1.2581 -0.7656 -1.1584
 2048TIP3    H227780   3.873   2.744   1.840 -0.5540 -1.4732 -0.4257
 2049TIP3   OH227781   1.227   1.747   6.542 -0.4769 -0.1076  0.0764
 2049TIP3    H127782   1.202   1.838   6.528  0.0037  0.1551  0.8657
 2049TIP3    H227783   1.261   1.718   6.457 -0.7069  0.4146 -0.2004
 2050TIP3   OH227784   3.505   4.749   1.489  0.4029 -0.2164  0.1169
 2050TIP3    H127785   3.470   4.826   1.534 -0.9252 -0.9148  0.3172
 2050TIP3    H227786   3.515   4.777   1.398 -1.5247 -0.2183 -0.1386
 2051TIP3   OH227787   2.955   2.827   7.667  0.2900  0.1504 -0.0683
 2051TIP3    H127788   2.932   2.826   7.575 -0.7564 -0.3716  0.1881
 2051TIP3    H227789   3.010   2.749   7.680 -0.2667 -0.2496 -0.0844
 2052TIP3   OH227790   2.520   5.197   8.294 -0.1155 -0.2353  0.5021
 2052TIP3    H127791   2.587   5.129   8.299 -1.1708 -1.3886 -0.3775
 2052TIP3    H227792   2.440   5.154   8.324 -0.7846  0.6493  0.0479
 2053TIP3   OH227793   2.375   2.495   7.767 -0.2971  0.1040 -0.0249
 2053TIP3    H127794   2.321   2.497   7.688 -0.0717  0.7609 -0.1739
 2053TIP3    H227795   2.414   2.582   7.771 -1.2710  0.5252  1.4751
 2054TIP3   OH227796   6.703   2.087   2.568  0.1940  0.2697  0.1626
 2054TIP3    H127797   6.696   2.141   2.646 -0.3356 -1.8959  1.7045
 2054TIP3    H227798   6.716   1.998   2.601  0.7859 -0.6256 -2.2342
 2055TIP3   OH227799   6.212   5.535   6.721  0.1644 -0.0566 -0.4687
 2055TIP3    H127800   6.257   5.469   6.668  1.9555  0.8495 -0.1716
 2055TIP3    H227801   6.269   5.612   6.716 -0.7335  0.7477  0.9983
 2056TIP3   OH227802   1.866   4.999   2.541 -0.4828  0.0374 -0.1697
 2056TIP3    H127803   1.882   4.906   2.556 -1.7907 -0.2412 -0.4155
 2056TIP3    H227804   1.777   5.003   2.506 -0.8081  1.4520  0.7304
 2057TIP3   OH227805   3.594   4.357   1.589  0.4003 -0.3314 -0.2980
 2057TIP3    H127806   3.688   4.363   1.604  0.4197 -2.2447  0.6542
 2057TIP3    H227807   3.565   4.286   1.646 -1.4808 -0.3516 -1.1963
 2058TIP3   OH227808   6.216   0.673   6.658  0.2869 -0.0931  0.1401
 2058TIP3    H127809   6.259   0.750   6.696  0.6751  0.0659 -0.5966
 2058TIP3    H227810   6.137   0.707   6.617  0.7189  0.0160 -0.6382
 2059TIP3   OH227811   0.716   2.001   7.692  0.2383  0.1207  0.0095
 2059TIP3    H127812   0.658   1.979   7.765 -0.6788  0.7503 -0.5116
 2059TIP3    H227813   0.706   1.929   7.630 -0.0500  0.2643 -0.1120
 2060TIP3   OH227814   3.220   0.693   0.481 -0.2372  0.0194  0.4537
 2060TIP3    H127815   3.262   0.778   0.471 -1.0343  0.2814 -0.8844
 2060TIP3    H227816   3.128   0.713   0.497 -0.2052 -0.5774  1.4779
 2061TIP3   OH227817   0.469   3.684   7.817  0.5521  0.5523 -0.2522
 2061TIP3    H127818   0.539   3.680   7.752  0.0969  1.6921 -0.8247
 2061TIP3    H227819   0.448   3.592   7.835  2.2234  0.1966 -0.0269
 2062TIP3   OH227820   2.116   1.136   0.808 -0.2709  0.8819  0.8198
 2062TIP3    H127821   2.078   1.077   0.872  0.5182 -1.4789 -0.7648
 2062TIP3    H227822   2.211   1.129   0.822  0.1695 -2.0552 -2.3382
 2063TIP3   OH227823   1.971   6.280   8.517 -0.0797  0.0297  0.6971
 2063TIP3    H127824   1.912   6.339   8.564 -1.7793 -0.2865 -0.9475
 2063TIP3    H227825   1.913   6.224   8.465  1.6707  0.1772 -1.5613
 2064TIP3   OH227826   4.171   3.155   0.251  0.0531  0.3395 -0.3683
 2064TIP3    H127827   4.195   3.065   0.229  1.4635  0.6993 -0.4263
 2064TIP3    H227828   4.083   3.166   0.216 -0.1948 -1.0477 -0.2455
 2065TIP3   OH227829   3.364   4.164   8.263  0.4372 -0.2547  0.2923
 2065TIP3    H127830   3.318   4.243   8.236 -1.7301 -1.9652 -1.3572
 2065TIP3    H227831   3.451   4.195   8.290 -0.1973  2.6080 -0.6144
 2066TIP3   OH227832   2.488   6.839   8.156 -0.7344 -0.0391 -0.3776
 2066TIP3    H127833   2.446   6.867   8.237 -0.9367 -1.0852 -0.1098
 2066TIP3    H227834   2.484   6.916   8.099 -2.0019  0.2290  0.0428
 2067TIP3   OH227835   6.726   0.579   8.440 -0.3701  0.0445  0.5975
 2067TIP3    H127836   6.740   0.484   8.444  1.8744  0.1574 -1.8145
 2067TIP3    H227837   6.695   0.595   8.351  3.1776  1.8263 -0.5255
 2068TIP3   OH227838   1.000   6.483   8.349 -0.9531  0.1205  0.0836
 2068TIP3    H127839   1.014   6.409   8.408 -0.8189  1.5497  1.9386
 2068TIP3    H227840   1.044   6.458   8.268 -0.1817 -1.4751  0.9545
 2069TIP3   OH227841   3.484   0.388   8.183  0.6606  0.6795  0.9364
 2069TIP3    H127842   3.429   0.397   8.260 -0.4657  1.1704  0.0987
 2069TIP3    H227843   3.548   0.459   8.191 -1.4208  2.8015 -0.1290
 2070TIP3   OH227844   3.767   4.751   0.065  0.0978  0.5571 -0.3301
 2070TIP3    H127845   3.682   4.708   0.054  0.1116  0.1777  0.9117
 2070TIP3    H227846   3.818   4.724  -0.012 -1.2972  1.8234 -1.7618
 2071TIP3   OH227847   3.588   4.856   7.865 -0.3361 -0.5416  0.2396
 2071TIP3    H127848   3.538   4.831   7.787 -0.0732 -0.4044  0.0233
 2071TIP3    H227849   3.666   4.900   7.830 -1.0595  1.1153  0.6178
 2072TIP3   OH227850   3.307   5.492   0.172  0.0594  0.0478  0.2197
 2072TIP3    H127851   3.358   5.419   0.207  1.0401  0.3670 -0.5122
 2072TIP3    H227852   3.372   5.557   0.145 -0.8031  1.2930  1.0450
 2073TIP3   OH227853   2.462   4.643   6.303 -0.3561  0.1328 -0.2327
 2073TIP3    H127854   2.469   4.582   6.230  2.0268 -0.1520  0.1343
 2073TIP3    H227855   2.450   4.729   6.262 -0.0116 -0.1384 -0.9169
 2074TIP3   OH227856   6.335   3.179   7.615 -0.4254 -0.5019  0.0662
 2074TIP3    H127857   6.256   3.230   7.632 -0.4938 -1.0974  1.7166
 2074TIP3    H227858   6.319   3.095   7.658  1.0709 -0.6524  0.3812
 2075TIP3   OH227859   2.351   5.269   0.575 -0.2725  0.9637 -0.2421
 2075TIP3    H127860   2.373   5.276   0.482  0.3393  0.8247 -0.1155
 2075TIP3    H227861   2.427   5.307   0.620 -0.4134  0.7207  0.2049
 2076TIP3   OH227862   6.040   0.021   0.753 -0.1148  0.6755  0.2996
 2076TIP3    H127863   5.995   0.014   0.838 -0.6478 -0.6163 -0.0666
 2076TIP3    H227864   6.060   0.114   0.745 -1.1235  1.0139  1.3029
 2077TIP3   OH227865   6.769   6.917   0.756  0.3846  0.1527 -0.1616
 2077TIP3    H127866   6.820   6.836   0.753  0.0838 -0.0173 -0.7452
 2077TIP3    H227867   6.682   6.891   0.726 -0.3442  0.2310  1.7300
 2078TIP3   OH227868   2.354   6.731   7.347  0.2003  0.0428  0.3227
 2078TIP3    H127869   2.435   6.681   7.345 -0.9619 -1.9393 -0.5965
 2078TIP3    H227870   2.306   6.696   7.422 -1.2235 -1.3457 -1.1442
 2079TIP3   OH227871   0.879   1.330   0.236  0.4315  0.7460 -0.0313
 2079TIP3    H127872   0.907   1.339   0.145  1.3718 -0.3402  0.1185
 2079TIP3    H227873   0.923   1.401   0.282 -0.6731  1.7853 -0.5315
 2080TIP3   OH227874   2.810   5.304   0.457 -0.1547  0.0609  0.5583
 2080TIP3    H127875   2.725   5.298   0.413  0.2992  0.6966 -0.4356
 2080TIP3    H227876   2.865   5.353   0.396  0.4879  1.0117  1.8510
 2081TIP3   OH227877   4.440   4.243   6.467 -0.0498 -0.2314 -0.1704
 2081TIP3    H127878   4.413   4.245   6.559  1.4503 -0.0151  0.2871
 2081TIP3    H227879   4.509   4.309   6.461  0.4822 -0.8673 -1.2391
 2082TIP3   OH227880   0.116   2.130   1.224  0.1042  0.1367  0.6323
 2082TIP3    H127881   0.090   2.104   1.312  0.8658 -1.9142  0.3124
 2082TIP3    H227882   0.200   2.175   1.236 -0.5461  1.2735  1.0699
 2083TIP3   OH227883   0.403   2.654   0.830  0.2866 -0.2153  0.1914
 2083TIP3    H127884   0.494   2.644   0.802  0.5929  1.4319  0.5071
 2083TIP3    H227885   0.352   2.624   0.754  1.0929  0.0280 -0.4663
 2084TIP3   OH227886   2.909   4.888   1.714 -0.0599  0.4679 -0.3110
 2084TIP3    H127887   2.905   4.877   1.809 -0.5486 -1.1799 -0.4875
 2084TIP3    H227888   2.994   4.851   1.690  0.6060  1.9937 -0.4167
 2085TIP3   OH227889   1.738   3.727   8.423 -0.1716 -0.2069 -0.0486
 2085TIP3    H127890   1.725   3.794   8.356 -1.4969 -0.0025  0.3760
 2085TIP3    H227891   1.760   3.776   8.502  0.3279 -0.3798 -0.0771
 2086TIP3   OH227892   1.509   5.905   0.721  0.0622 -0.2696  0.2365
 2086TIP3    H127893   1.437   5.957   0.685 -1.9311 -2.6954  0.5033
 2086TIP3    H227894   1.525   5.943   0.807 -1.3943 -0.1090  0.4598
 2087TIP3   OH227895   6.835   4.013   0.481 -0.0307 -0.2227  0.0495
 2087TIP3    H127896   6.800   4.058   0.404  0.7297  0.0688 -0.1291
 2087TIP3    H227897   6.829   4.078   0.551 -2.2570 -0.9897  0.6789
 2088TIP3   OH227898   3.793   4.786   0.560 -0.5682  0.1684  0.1727
 2088TIP3    H127899   3.700   4.807   0.551 -0.4254  1.1583  0.9124
 2088TIP3    H227900   3.828   4.852   0.620  1.0664  1.1679 -1.7203
 2089TIP3   OH227901   4.279   4.689   0.077 -1.0086  0.0351  0.1917
 2089TIP3    H127902   4.280   4.595   0.097 -1.2991 -0.0767 -0.2932
 2089TIP3    H227903   4.238   4.729   0.154 -0.7272 -0.2150  0.4744
 2090TIP3   OH227904   2.674   6.893   8.621  0.0967 -0.0493  0.2506
 2090TIP3    H127905   2.614   6.944   8.567 -0.7772 -0.0770  1.1493
 2090TIP3    H227906   2.761   6.919   8.593 -0.3275  1.7666  0.5301
 2091TIP3   OH227907   5.088   3.353   0.607  0.4880 -0.8096  0.0330
 2091TIP3    H127908   5.184   3.361   0.608  0.5124 -1.1689  0.5151
 2091TIP3    H227909   5.060   3.399   0.686  0.1575  0.5782 -0.8607
 2092TIP3   OH227910   3.493   4.633   8.611 -0.4798 -0.1760 -0.1740
 2092TIP3    H127911   3.431   4.687   8.660 -1.2614 -0.3564 -0.9260
 2092TIP3    H227912   3.469   4.647   8.520  1.9314  1.3404 -0.6470
 2093TIP3   OH227913   6.558   2.178   7.060 -0.3914 -0.0952 -0.1189
 2093TIP3    H127914   6.562   2.245   7.128 -0.4304 -0.0491 -0.1618
 2093TIP3    H227915   6.513   2.104   7.102 -1.7499  0.4641 -0.5282
 2094TIP3   OH227916   5.104   5.017   1.405 -0.2067  0.3638  0.6683
 2094TIP3    H127917   5.051   4.947   1.444 -1.2411  2.4287  3.2374
 2094TIP3    H227918   5.195   4.989   1.421 -0.5931  0.2264  3.0569
 2095TIP3   OH227919   6.219   0.301   6.456  0.3671 -0.1879  0.3559
 2095TIP3    H127920   6.176   0.217   6.474  1.1804 -0.3163  1.8718
 2095TIP3    H227921   6.154   0.351   6.407 -0.2227 -1.6042 -0.3749
 2096TIP3   OH227922   5.685   4.201   2.070  0.3208  0.2095  0.0979
 2096TIP3    H127923   5.756   4.255   2.105  0.9392 -1.1154  0.9434
 2096TIP3    H227924   5.729   4.137   2.015 -0.4419  0.7310 -1.1682
 2097TIP3   OH227925   2.218   6.458   7.781  0.3551  0.1331 -0.2420
 2097TIP3    H127926   2.245   6.394   7.846 -0.3571 -1.7428 -1.6889
 2097TIP3    H227927   2.212   6.541   7.829  0.0984 -1.1020  1.9735
 2098TIP3   OH227928   5.317   3.395   1.337 -0.4580 -0.2155 -0.2390
 2098TIP3    H127929   5.230   3.371   1.368 -0.8068  0.2708 -0.8096
 2098TIP3    H227930   5.301   3.441   1.255  0.2572  0.9639  0.2613
 2099TIP3   OH227931   4.227   0.615   0.715 -0.0760 -0.1031  0.1203
 2099TIP3    H127932   4.174   0.674   0.768  0.6811  1.6763 -1.0184
 2099TIP3    H227933   4.314   0.618   0.756  0.4666  1.1434 -1.0588
 2100TIP3   OH227934   3.010   6.766   0.360 -0.2805  0.2852  0.2292
 2100TIP3    H127935   3.039   6.838   0.415 -2.6215  2.2498 -0.9012
 2100TIP3    H227936   3.082   6.751   0.299  0.9359  0.4358  1.5916
 2101TIP3   OH227937   4.566   0.639   2.246  0.0097 -0.6292  0.3565
 2101TIP3    H127938   4.549   0.716   2.299 -1.2997 -0.2935 -0.4906
 2101TIP3    H227939   4.592   0.674   2.161 -0.5153 -1.1100 -0.0112
 2102TIP3   OH227940   1.076   3.894   1.628 -0.2538 -0.4125  0.2193
 2102TIP3    H127941   1.159   3.938   1.644 -0.0389 -1.0108  0.7753
 2102TIP3    H227942   1.092   3.839   1.551 -0.6530  0.7850 -0.7644
 2103TIP3   OH227943   0.574   5.330   0.465 -0.7462  0.1752 -0.3757
 2103TIP3    H127944   0.660   5.295   0.441 -0.2099  1.7204 -0.7861
 2103TIP3    H227945   0.573   5.328   0.561 -0.3876 -0.1495 -0.3768
 2104TIP3   OH227946   1.843   6.332   0.239 -0.0525 -0.1351 -0.1886
 2104TIP3    H127947   1.911   6.395   0.219  0.3457 -0.3204  0.5615
 2104TIP3    H227948   1.848   6.320   0.333 -3.1395  2.1711  0.4390
 2105TIP3   OH227949   3.578   6.717   0.941  0.2240  0.4328  0.3951
 2105TIP3    H127950   3.663   6.672   0.941 -0.7135 -1.5382 -1.3875
 2105TIP3    H227951   3.538   6.691   1.024  1.3880  1.5058  1.3257
 2106TIP3   OH227952   0.477   6.215   8.126 -0.2732  0.0936 -0.0397
 2106TIP3    H127953   0.497   6.157   8.200 -1.7772  1.8300  1.8495
 2106TIP3    H227954   0.399   6.262   8.154 -0.2757  1.5814 -2.3426
 2107TIP3   OH227955   5.443   4.265   1.174  0.2379  0.1039  0.1229
 2107TIP3    H127956   5.507   4.204   1.211 -0.3257 -0.6258 -0.0748
 2107TIP3    H227957   5.492   4.315   1.109  0.8229  0.2043  0.6343
 2108TIP3   OH227958   6.791   2.035   7.052 -0.2303 -0.3620 -0.4770
 2108TIP3    H127959   6.712   2.086   7.069  0.7952  1.0540  0.2366
 2108TIP3    H227960   6.815   1.999   7.138 -0.0975 -0.8083 -0.6960
 2109TIP3   OH227961   2.086   0.786   0.756 -0.5416 -0.5104  0.4023
 2109TIP3    H127962   2.055   0.719   0.816 -0.0331  0.5978  1.9680
 2109TIP3    H227963   2.132   0.849   0.812 -2.2838  1.9512 -0.7222
 2110TIP3   OH227964   6.423   1.695   1.500 -0.0994  0.6481  0.5229
 2110TIP3    H127965   6.497   1.646   1.536 -1.1759 -0.5998  1.1526
 2110TIP3    H227966   6.381   1.735   1.576  0.9668  2.9333 -0.0159
 2111TIP3   OH227967   6.565   2.295   0.809 -0.0310  0.4239  0.1184
 2111TIP3    H127968   6.511   2.370   0.785 -1.5027 -0.5510  0.2474
 2111TIP3    H227969   6.628   2.330   0.872 -0.4738  1.6026 -0.0644
 2112TIP3   OH227970   3.598   5.503   0.717  0.6407  0.4951  0.9096
 2112TIP3    H127971   3.598   5.584   0.666  0.7151 -0.0123  0.0817
 2112TIP3    H227972   3.611   5.434   0.652  0.2605 -0.2066  1.5657
 2113TIP3   OH227973   5.443   3.950   1.537  0.1240 -0.0607  1.0091
 2113TIP3    H127974   5.504   3.878   1.520  1.3806  1.4968 -1.7341
 2113TIP3    H227975   5.363   3.926   1.491  1.4627  1.3490 -2.4077
 2114TIP3   OH227976   2.113   1.507   1.144 -0.3103  0.2200 -0.0661
 2114TIP3    H127977   2.046   1.463   1.092 -1.1599  2.1243 -0.6633
 2114TIP3    H227978   2.076   1.510   1.233 -0.5947  0.4480 -0.1933
 2115TIP3   OH227979   6.051   4.241   6.603  0.1807 -0.3435  0.8495
 2115TIP3    H127980   5.961   4.220   6.630 -0.4401 -0.1345 -0.9437
 2115TIP3    H227981   6.075   4.171   6.542  0.5749  0.5165 -0.0097
 2116TIP3   OH227982   2.145   6.857   1.069  0.2007 -0.5117 -0.8450
 2116TIP3    H127983   2.148   6.813   0.984  0.6098  1.2873 -1.8038
 2116TIP3    H227984   2.145   6.950   1.048 -0.6069 -0.0170  1.1116
 2117TIP3   OH227985   6.398   0.223   1.260  0.0861 -0.6165  0.2196
 2117TIP3    H127986   6.309   0.192   1.273 -0.0604 -0.4609 -0.3810
 2117TIP3    H227987   6.430   0.241   1.349  0.6277 -3.6312  0.7271
 2118TIP3   OH227988   2.300   5.706   0.484  0.3684 -0.0643 -0.1392
 2118TIP3    H127989   2.253   5.759   0.549  0.4667 -0.9234  0.6559
 2118TIP3    H227990   2.303   5.761   0.406 -0.7737  0.5428  0.2181
 2119TIP3   OH227991   6.043   3.120   2.676 -1.0663 -0.1327  0.5176
 2119TIP3    H127992   6.007   3.047   2.726 -1.2127 -0.4804 -0.0896
 2119TIP3    H227993   6.099   3.079   2.611 -1.9252  0.2302 -0.4712
 2120TIP3   OH227994   0.744   4.708   7.826  0.0295 -0.3427 -0.3842
 2120TIP3    H127995   0.693   4.737   7.750  0.0535  1.9154  0.3784
 2120TIP3    H227996   0.825   4.758   7.820 -0.4026  0.7010  1.6456
 2121TIP3   OH227997   4.972   4.882   1.981 -0.3230  0.5623 -0.4422
 2121TIP3    H127998   4.954   4.837   1.899  0.2704  1.1656 -0.9090
 2121TIP3    H227999   5.060   4.918   1.970  0.6412 -1.1050  1.2341
 2122TIP3   OH228000   3.285   1.860   0.602 -0.6616  0.5879 -0.0489
 2122TIP3    H128001   3.344   1.906   0.660 -1.5325  0.0466  1.3095
 2122TIP3    H228002   3.198   1.889   0.627 -1.0755  0.1820 -0.9473
 2123TIP3   OH228003   2.862   4.551   7.956 -0.5077 -0.6197 -0.1315
 2123TIP3    H128004   2.817   4.616   7.902  0.5317  0.9014  0.7589
 2123TIP3    H228005   2.816   4.552   8.039  0.4281  0.1154  0.3968
 2124TIP3   OH228006   2.464   2.091   7.978 -0.4145  0.3342 -0.4007
 2124TIP3    H128007   2.494   2.177   8.007  0.7332 -0.6291  1.4784
 2124TIP3    H228008   2.511   2.029   8.034 -0.0957 -1.6009 -2.6593
 2125TIP3   OH228009   2.926   1.737   7.410  0.5521 -0.9668  0.1858
 2125TIP3    H128010   2.876   1.807   7.454  1.6973  0.9866 -1.4190
 2125TIP3    H228011   3.004   1.726   7.464  0.4924 -0.8091  0.3053
 2126TIP3   OH228012   3.217   5.594   1.524  0.1154  0.3124  0.6471
 2126TIP3    H128013   3.280   5.596   1.452  0.9326  2.0892  1.3763
 2126TIP3    H228014   3.176   5.507   1.517 -1.2957  1.1113 -3.1773
 2127TIP3   OH228015   3.503   1.462   7.509  0.1110  0.1198 -0.2944
 2127TIP3    H128016   3.553   1.544   7.504 -0.6479  0.6074 -0.1174
 2127TIP3    H228017   3.540   1.415   7.584  2.5514 -1.0892 -2.1269
 2128TIP3   OH228018   4.777   1.455   8.425  0.2631  0.2392 -0.0120
 2128TIP3    H128019   4.779   1.478   8.332 -3.2302  0.4039 -0.1761
 2128TIP3    H228020   4.766   1.539   8.470 -1.7629 -0.0987  0.2050
 2129TIP3   OH228021   5.306   4.836   1.639 -0.1221  0.0314  0.3589
 2129TIP3    H128022   5.336   4.802   1.555  2.2777 -2.6602  2.1172
 2129TIP3    H228023   5.244   4.770   1.671  1.3712 -0.6666  1.9910
 2130TIP3   OH228024   0.929   4.971   1.145 -0.4428  0.1406  0.1223
 2130TIP3    H128025   1.018   4.941   1.125 -1.0187 -0.9419 -0.9922
 2130TIP3    H228026   0.885   4.972   1.060 -1.9365 -0.8926  0.8431
 2131TIP3   OH228027   5.844   2.301   0.784 -0.0906 -0.1505  0.2857
 2131TIP3    H128028   5.770   2.353   0.752 -0.9049 -1.0557  0.6499
 2131TIP3    H228029   5.816   2.210   0.774  1.5478 -0.5637 -0.9178
 2132TIP3   OH228030   6.445   6.519   0.681 -0.3598  0.0455  0.1924
 2132TIP3    H128031   6.526   6.506   0.631 -0.3688 -1.1065  0.4414
 2132TIP3    H228032   6.405   6.598   0.643  0.2324 -0.1161 -0.8035
 2133TIP3   OH228033   2.939   3.426   2.774  0.2315  0.3008  0.4472
 2133TIP3    H128034   3.027   3.462   2.783  0.6041  0.2316 -2.2857
 2133TIP3    H228035   2.888   3.494   2.731 -0.6072 -0.2973  0.4537
 2134TIP3   OH228036   1.259   0.194   8.351  0.2835 -0.2002  0.3244
 2134TIP3    H128037   1.289   0.236   8.271 -1.9207  1.4765  0.2719
 2134TIP3    H228038   1.244   0.103   8.326  0.7182  0.0406 -0.8627
 2135TIP3   OH228039   4.256   5.028   0.062 -0.0537 -0.2129 -0.4405
 2135TIP3    H128040   4.194   4.983   0.005 -0.5212  0.0394 -0.1333
 2135TIP3    H228041   4.267   4.969   0.137 -0.3075 -0.0292 -0.2586
 2136TIP3   OH228042   5.435   4.334   0.709 -0.2270  0.3363  0.0156
 2136TIP3    H128043   5.434   4.405   0.645  0.9341 -0.1505 -0.5633
 2136TIP3    H228044   5.386   4.369   0.784  0.3584  1.7645 -0.2361
 2137TIP3   OH228045   1.735   0.477   0.065  0.1129  0.3651  0.0665
 2137TIP3    H128046   1.657   0.486   0.118 -0.6586  0.4733 -1.0498
 2137TIP3    H228047   1.807   0.503   0.123 -0.6906  0.4675  1.0383
 2138TIP3   OH228048   3.704   5.645   0.200  0.3970 -0.7121  0.0558
 2138TIP3    H128049   3.724   5.626   0.108 -1.2071 -0.6718 -0.3316
 2138TIP3    H228050   3.614   5.679   0.198  0.4133 -0.5226  1.6260
 2139TIP3   OH228051   0.641   0.731   0.372 -0.3156 -0.0548  0.5883
 2139TIP3    H128052   0.715   0.772   0.327 -1.7150  1.7055 -0.2394
 2139TIP3    H228053   0.657   0.748   0.465  0.6874 -0.3643  0.4811
 2140TIP3   OH228054   4.398   6.894   0.965  0.0934 -0.9140  0.0070
 2140TIP3    H128055   4.327   6.870   0.905  0.4503 -1.4947 -0.2006
 2140TIP3    H228056   4.371   6.859   1.050 -1.8086  2.4347  0.9386
 2141TIP3   OH228057   6.315   1.653   7.477  0.5053  0.5869 -0.3162
 2141TIP3    H128058   6.409   1.663   7.459  0.6207  0.2382  0.0752
 2141TIP3    H228059   6.312   1.604   7.559 -0.0172  0.8693 -0.1648
 2142TIP3   OH228060   3.401   3.673   1.403  0.1735 -0.5564 -0.5012
 2142TIP3    H128061   3.415   3.578   1.405  0.5863 -0.4976 -0.4944
 2142TIP3    H228062   3.486   3.710   1.426  0.0520 -0.1805 -0.6516
 2143TIP3   OH228063   6.497   2.027   8.081  0.5669 -0.2306  0.5489
 2143TIP3    H128064   6.580   2.074   8.091  0.2475  0.0778  2.0472
 2143TIP3    H228065   6.499   1.960   8.150 -0.0955 -0.7182  0.1033
 2144TIP3   OH228066   0.908   1.805   0.337  0.0426 -0.1179  0.7090
 2144TIP3    H128067   0.882   1.856   0.413  2.2382  0.4624  1.1477
 2144TIP3    H228068   1.004   1.804   0.340  0.2601  0.5083 -2.4224
 2145TIP3   OH228069   0.414   5.652   0.479  0.0642 -0.1910  0.4067
 2145TIP3    H128070   0.401   5.747   0.476  2.4355  0.2325  1.4682
 2145TIP3    H228071   0.468   5.632   0.403  1.1309 -0.3600  1.1798
 2146TIP3   OH228072   4.110   5.940   1.135  0.3813  0.0566  0.0239
 2146TIP3    H128073   4.065   5.860   1.106 -1.0135  1.4002 -1.7429
 2146TIP3    H228074   4.039   5.998   1.165  1.1888  1.2874 -0.3929
 2147TIP3   OH228075   5.432   3.211   2.556 -0.3615 -0.2143  0.0725
 2147TIP3    H128076   5.424   3.117   2.568  0.1992 -0.7274 -2.8124
 2147TIP3    H228077   5.487   3.221   2.479  0.7739  2.5395  1.0791
 2148TIP3   OH228078   4.900   0.883   8.275 -0.3240 -0.1262  0.6768
 2148TIP3    H128079   4.924   0.795   8.305 -0.1662 -0.1212  0.5669
 2148TIP3    H228080   4.847   0.919   8.347  1.2052  0.4104  1.5801
 2149TIP3   OH228081   3.360   0.891   8.547  0.3911  0.0141  0.7810
 2149TIP3    H128082   3.391   0.856   8.631  0.9505 -0.5798  0.3374
 2149TIP3    H228083   3.437   0.934   8.509  1.1888 -2.7293 -0.9947
 2150TIP3   OH228084   5.509   1.972   0.757  0.3549 -0.4052 -0.6862
 2150TIP3    H128085   5.469   2.045   0.803 -0.9325 -1.2612 -0.3827
 2150TIP3    H228086   5.462   1.967   0.674 -0.0874 -1.3032 -0.4061
 2151TIP3   OH228087   5.992   5.355   0.791 -0.3362  0.3874 -0.0815
 2151TIP3    H128088   5.939   5.352   0.871 -1.4311 -3.8582 -0.7325
 2151TIP3    H228089   6.081   5.369   0.823 -0.8046 -0.8133  1.9524
 2152TIP3   OH228090   2.707   5.048   7.302 -0.2752  0.0561 -0.4745
 2152TIP3    H128091   2.761   4.970   7.310  1.1426  1.0913  0.4912
 2152TIP3    H228092   2.691   5.076   7.392 -0.8705  0.8185 -0.8030
 2153TIP3   OH228093   4.275   5.307   1.328 -0.4088 -0.5745  0.0884
 2153TIP3    H128094   4.263   5.260   1.245 -1.2788  0.3591 -0.3407
 2153TIP3    H228095   4.370   5.315   1.337 -0.2708 -1.6186 -0.2687
 2154TIP3   OH228096   1.965   4.671   6.992 -0.1078 -0.2021  0.3572
 2154TIP3    H128097   2.010   4.683   7.076  2.4589 -0.1252 -0.9153
 2154TIP3    H228098   1.982   4.580   6.968  1.3363  0.4074 -1.1534
 2155TIP3   OH228099   4.141   5.382   0.754 -0.3191 -0.0504  0.2730
 2155TIP3    H128100   4.131   5.423   0.840 -1.4121 -0.2406  0.2523
 2155TIP3    H228101   4.155   5.289   0.773 -0.3497 -0.0601  0.2486
 2156TIP3   OH228102   2.557   5.187   7.944  0.0850  0.4248 -0.1218
 2156TIP3    H128103   2.474   5.166   7.901 -1.1540  0.1213  2.2171
 2156TIP3    H228104   2.620   5.196   7.873 -2.1401  1.5869 -2.0784
 2157TIP3   OH228105   5.746   2.826   7.394  0.2228  0.0444 -0.6456
 2157TIP3    H128106   5.728   2.795   7.305  1.4482 -0.7302 -0.6451
 2157TIP3    H228107   5.840   2.846   7.395 -0.1814  2.2107 -0.1429
 2158TIP3   OH228108   6.662   6.144   8.277 -0.6265 -0.3124  0.6068
 2158TIP3    H128109   6.594   6.208   8.256 -0.1990  0.3261  1.1022
 2158TIP3    H228110   6.670   6.090   8.199 -0.9990  0.2481  0.1746
 2159TIP3   OH228111   2.602   5.830   8.392  0.3198  0.3480 -0.8148
 2159TIP3    H128112   2.507   5.824   8.408  0.1993  0.3364 -1.5321
 2159TIP3    H228113   2.610   5.859   8.302  0.9916  2.3667 -0.1494
 2160TIP3   OH228114   3.857   6.891   1.053 -0.5261  0.0367 -0.1353
 2160TIP3    H128115   3.803   6.886   1.131 -0.4351 -1.9386 -0.1433
 2160TIP3    H228116   3.841   6.808   1.007  0.8466  0.3346 -1.2370
 2161TIP3   OH228117   3.172   4.927   7.941 -0.3049 -0.6830 -0.1738
 2161TIP3    H128118   3.214   5.005   7.903 -1.7655  0.9429  1.3535
 2161TIP3    H228119   3.147   4.874   7.866  1.4539 -0.1138 -1.2371
 2162TIP3   OH228120   4.133   4.974   0.410  0.2939 -0.1099 -0.1816
 2162TIP3    H128121   4.064   4.908   0.404  1.0280 -1.6435  4.3931
 2162TIP3    H228122   4.204   4.941   0.355 -0.7171 -1.1774 -0.8804
 2163TIP3   OH228123   2.184   4.695   1.583 -0.4793 -0.2466 -0.3512
 2163TIP3    H128124   2.142   4.756   1.645 -0.7515 -0.0758 -0.6996
 2163TIP3    H228125   2.164   4.732   1.497  0.8247  0.1177 -0.5108
 2164TIP3   OH228126   4.621   1.515   6.960  0.7986 -0.5201 -0.2137
 2164TIP3    H128127   4.655   1.583   7.019 -2.6168  0.0907  1.3253
 2164TIP3    H228128   4.695   1.494   6.903  3.3616  1.2477  2.1280
 2165TIP3   OH228129   3.699   5.682   0.935 -0.6591 -0.7052  0.0283
 2165TIP3    H128130   3.684   5.758   0.879 -1.0136  0.2541  1.3642
 2165TIP3    H228131   3.620   5.628   0.924 -0.3287 -0.9786 -1.0621
 2166TIP3   OH228132   3.628   2.228   2.156 -0.0291 -0.2994  0.0322
 2166TIP3    H128133   3.595   2.293   2.218  0.3931 -0.9692  0.9900
 2166TIP3    H228134   3.664   2.158   2.211 -0.5722 -1.4076 -0.9546
 2167TIP3   OH228135   1.837   6.929   0.898 -0.0949  0.1094 -0.7109
 2167TIP3    H128136   1.877   6.906   0.814  1.1189  2.1557 -0.7690
 2167TIP3    H228137   1.856   6.854   0.954  1.0360 -0.3567 -1.6547
 2168TIP3   OH228138   3.055   6.845   7.211  0.6828  0.0828  0.3691
 2168TIP3    H128139   2.997   6.909   7.252 -0.0980 -0.4530  0.1333
 2168TIP3    H228140   3.069   6.879   7.122  0.8624  0.2970  0.4795
 2169TIP3   OH228141   4.065   6.668   7.767 -0.6238  0.4283  0.4962
 2169TIP3    H128142   3.985   6.716   7.748  0.0334  1.6436  0.7270
 2169TIP3    H228143   4.075   6.609   7.692 -2.6361 -1.0257  1.2753
 2170TIP3   OH228144   4.827   5.200   0.574  0.4184 -0.2412 -0.3111
 2170TIP3    H128145   4.885   5.124   0.577 -1.3279 -1.6102  0.8861
 2170TIP3    H228146   4.818   5.220   0.481 -0.0934 -2.3439 -0.7675
 2171TIP3   OH228147   1.378   2.410   6.488  0.1215 -0.2122 -0.8136
 2171TIP3    H128148   1.308   2.444   6.544 -0.4003  0.6968 -1.9636
 2171TIP3    H228149   1.456   2.412   6.542 -0.2969  0.9793 -0.2260
 2172TIP3   OH228150   5.723   0.297   1.794  0.5171 -0.4425 -0.1170
 2172TIP3    H128151   5.694   0.250   1.716  0.6742 -0.6688 -0.0414
 2172TIP3    H228152   5.802   0.250   1.822  0.1346 -0.7235  0.5146
 2173TIP3   OH228153   2.025   3.690   0.971 -0.2949 -0.3222  0.1910
 2173TIP3    H128154   2.006   3.708   1.063 -1.5654 -2.3258  0.3928
 2173TIP3    H228155   2.056   3.773   0.936 -0.8896  0.7912  2.1421
 2174TIP3   OH228156   2.567   2.944   7.543  0.3232  0.3843 -0.1147
 2174TIP3    H128157   2.518   2.995   7.607 -0.6593 -2.0499  1.1846
 2174TIP3    H228158   2.656   2.980   7.547  0.2764  0.3974  2.5604
 2175TIP3   OH228159   4.282   4.958   6.922  0.3384  0.2055 -0.2166
 2175TIP3    H128160   4.363   5.007   6.937  1.4800 -1.5040 -0.4891
 2175TIP3    H228161   4.308   4.886   6.863 -1.5443  0.0422 -0.9204
 2176TIP3   OH228162   5.011   2.614   0.033 -0.5165  0.1074 -0.1234
 2176TIP3    H128163   5.027   2.530  -0.010  0.6683  1.0705 -1.7017
 2176TIP3    H228164   4.956   2.663  -0.029  0.0701  1.0240  0.0592
 2177TIP3   OH228165   2.267   3.045   1.095 -0.4978 -0.0239 -0.3247
 2177TIP3    H128166   2.273   2.969   1.153 -3.1380  0.0174  0.1178
 2177TIP3    H228167   2.348   3.043   1.045  0.9224 -1.3019  1.8563
 2178TIP3   OH228168   3.970   6.620   8.104 -0.3223 -0.4980  0.3904
 2178TIP3    H128169   4.060   6.621   8.136 -0.5467 -2.3031  1.2057
 2178TIP3    H228170   3.949   6.712   8.089  1.1999  0.0737  1.4881
 2179TIP3   OH228171   4.188   0.494   7.499 -0.1999  0.4020  0.5419
 2179TIP3    H128172   4.256   0.540   7.548  0.3043  0.0313  0.2071
 2179TIP3    H228173   4.107   0.516   7.544  0.3304 -0.5816  2.0669
 2180TIP3   OH228174   4.308   2.179   2.559  0.2865 -0.0584  0.2983
 2180TIP3    H128175   4.273   2.125   2.629 -0.9376  1.9604  1.3557
 2180TIP3    H228176   4.373   2.124   2.515 -0.1454 -1.9619  1.9251
 2181TIP3   OH228177   2.532   3.928   8.419 -0.4171 -0.3644  0.0864
 2181TIP3    H128178   2.494   3.994   8.477  1.7401 -0.1828  1.3862
 2181TIP3    H228179   2.520   3.845   8.466  0.6343 -0.3179  0.4629
 2182TIP3   OH228180   4.752   3.204   2.208 -0.2031  0.1830 -0.2941
 2182TIP3    H128181   4.703   3.129   2.244 -2.2274  0.3881 -2.3788
 2182TIP3    H228182   4.840   3.194   2.244 -0.4050 -3.1727 -0.3899
 2183TIP3   OH228183   0.547   4.059   0.828 -0.3441  0.3065 -0.8871
 2183TIP3    H128184   0.461   4.102   0.833 -2.5998 -3.5061 -2.5800
 2183TIP3    H228185   0.556   4.014   0.912  0.7690  1.7323 -0.1796
 2184TIP3   OH228186   0.190   3.276   1.599 -0.6019  0.4813  0.5284
 2184TIP3    H128187   0.277   3.245   1.624 -0.9707 -1.7308 -0.6358
 2184TIP3    H228188   0.154   3.314   1.680  0.6859 -0.3923  1.5646
 2185TIP3   OH228189   1.295   0.250   7.521  0.5419 -0.0109 -0.1439
 2185TIP3    H128190   1.361   0.311   7.554 -0.8286  1.4032  0.0670
 2185TIP3    H228191   1.295   0.178   7.585  0.5409  0.9033  0.9192
 2186TIP3   OH228192   0.954   0.975   7.936 -0.5202 -0.3210 -0.4572
 2186TIP3    H128193   0.984   1.007   7.851 -0.7131 -0.5818 -0.6244
 2186TIP3    H228194   0.868   1.015   7.948 -0.4343 -0.1765 -0.3235
 2187TIP3   OH228195   3.332   3.505   0.581 -0.2039  0.2649 -0.2289
 2187TIP3    H128196   3.349   3.560   0.657 -2.6132  2.0806 -0.8658
 2187TIP3    H228197   3.408   3.447   0.575  0.2805  0.3521  3.2314
 2188TIP3   OH228198   6.863   5.670   0.891  0.4700  0.6671  0.6936
 2188TIP3    H128199   6.815   5.595   0.926 -1.9445  2.5824  1.7958
 2188TIP3    H228200   6.857   5.660   0.796 -0.5783 -0.0839  0.8235
 2189TIP3   OH228201   6.588   5.111   6.878 -0.4708  0.1607  0.3062
 2189TIP3    H128202   6.652   5.126   6.809  0.0066  1.6605  1.0122
 2189TIP3    H228203   6.528   5.185   6.871 -2.7945 -1.7362 -0.9846
 2190TIP3   OH228204   6.517   4.347   1.338 -0.7271 -0.3638  0.3959
 2190TIP3    H128205   6.513   4.442   1.322 -0.6133 -0.2751  0.8565
 2190TIP3    H228206   6.571   4.339   1.416 -0.9550 -0.7932  0.5128
 2191TIP3   OH228207   4.662   4.986   1.219 -0.0430 -0.9085  0.2043
 2191TIP3    H128208   4.614   4.984   1.302  2.4956  1.0669  1.8802
 2191TIP3    H228209   4.718   4.909   1.222 -1.2994 -1.8865 -0.6263
 2192TIP3   OH228210   3.700   2.432   1.334  0.4101 -0.0682  0.4891
 2192TIP3    H128211   3.718   2.346   1.297  0.9941  0.2265  0.0760
 2192TIP3    H228212   3.707   2.420   1.429 -3.0756 -1.3132  0.7357
 2193TIP3   OH228213   6.313   2.753   2.050 -0.1562  0.1292  0.0600
 2193TIP3    H128214   6.277   2.754   2.138 -0.1539 -0.7481  0.0835
 2193TIP3    H228215   6.237   2.751   1.992 -0.1636 -0.4492  0.0796
 2194TIP3   OH228216   1.149   1.494   1.329  0.2005 -0.6024 -0.5830
 2194TIP3    H128217   1.145   1.513   1.235  0.7979 -1.1292 -0.7244
 2194TIP3    H228218   1.082   1.428   1.342 -1.1887  0.7959 -0.2735
 2195TIP3   OH228219   5.765   6.655   7.351  0.5926 -0.0749  0.1090
 2195TIP3    H128220   5.828   6.657   7.423 -0.4936 -0.5688  1.1014
 2195TIP3    H228221   5.771   6.566   7.316  1.9241  0.4806 -1.1885
 2196TIP3   OH228222   2.680   4.260   0.585  0.4437 -0.0883  0.2604
 2196TIP3    H128223   2.699   4.286   0.495 -0.4963 -0.7964 -0.1543
 2196TIP3    H228224   2.622   4.328   0.618 -0.2914 -0.5267 -0.1168
 2197TIP3   OH228225   0.117   2.935   1.337 -0.3996 -0.3464  0.3434
 2197TIP3    H128226   0.062   2.886   1.277 -1.6075  0.7180  0.5296
 2197TIP3    H228227   0.096   2.900   1.423 -0.4762 -0.2149  0.3780
 2198TIP3   OH228228   6.811   2.010   0.457 -0.1439 -0.2305 -0.4035
 2198TIP3    H128229   6.884   2.043   0.508 -1.4036  2.1518 -0.0229
 2198TIP3    H228230   6.837   2.024   0.366 -0.0229  0.3820 -0.2765
 2199TIP3   OH228231   6.333   2.018   0.064 -0.1381  0.1381 -0.7438
 2199TIP3    H128232   6.314   1.944   0.006  2.9871  0.8451 -2.9540
 2199TIP3    H228233   6.417   1.995   0.104  0.0188  1.7306 -0.1072
 2200TIP3   OH228234   1.669   5.941   1.200 -0.1347  0.1474  0.0040
 2200TIP3    H128235   1.611   5.885   1.251  0.5816 -0.7456 -0.1268
 2200TIP3    H228236   1.720   5.989   1.266 -0.0509 -0.1124  0.1300
 2201TIP3   OH228237   5.308   5.962   6.758 -0.4556 -0.3232 -0.0290
 2201TIP3    H128238   5.312   5.919   6.672  2.1081 -2.3948  1.0073
 2201TIP3    H228239   5.214   5.971   6.775 -1.0662 -1.9011 -2.0904
 2202TIP3   OH228240   6.030   2.173   6.927 -0.3116 -0.0600 -0.3394
 2202TIP3    H128241   6.082   2.252   6.916  0.2519 -0.6736 -2.4959
 2202TIP3    H228242   5.939   2.203   6.923 -0.1285  0.6244  0.3073
 2203TIP3   OH228243   5.859   0.851   7.344 -0.5264 -0.5707  0.2314
 2203TIP3    H128244   5.864   0.924   7.283 -2.7293  0.5133  1.2232
 2203TIP3    H228245   5.833   0.776   7.290  3.3045 -1.1539 -1.0810
 2204TIP3   OH228246   1.723   0.067   0.383  0.2890  0.4726  0.4302
 2204TIP3    H128247   1.669   0.130   0.430  0.2743 -0.0449  1.1230
 2204TIP3    H228248   1.805   0.113   0.367 -0.9391  1.9565 -2.3006
 2205TIP3   OH228249   2.049   2.636   6.037  0.1095  0.8664  0.4173
 2205TIP3    H128250   2.005   2.552   6.049 -1.5856  1.7442  0.5333
 2205TIP3    H228251   2.142   2.613   6.028 -0.3631 -1.0404  0.0353
 2206TIP3   OH228252   0.452   6.767   7.907  0.0652  0.0967  0.2193
 2206TIP3    H128253   0.405   6.685   7.923  0.4614 -0.2979 -0.5834
 2206TIP3    H228254   0.540   6.750   7.940  0.0088  0.3767  0.5126
 2207TIP3   OH228255   4.795   0.015   2.622  0.1439 -0.0386  0.0148
 2207TIP3    H128256   4.864   0.015   2.555 -0.3057 -2.1173 -0.4956
 2207TIP3    H228257   4.815   0.092   2.675  3.4299 -1.0234  0.4496
 2208TIP3   OH228258   6.396   2.672   0.205  0.0330 -0.1287  0.3617
 2208TIP3    H128259   6.341   2.711   0.273  1.5599  0.2358  1.4750
 2208TIP3    H228260   6.337   2.653   0.133 -1.3608  1.0994  1.1244
 2209TIP3   OH228261   1.158   2.956   2.125  0.1767 -0.2984 -0.2025
 2209TIP3    H128262   1.078   2.909   2.147 -0.1600  1.1482  2.0234
 2209TIP3    H228263   1.224   2.922   2.186  0.7850 -0.1996 -0.7902
 2210TIP3   OH228264   6.143   4.051   8.121 -0.0407  0.4274  0.0523
 2210TIP3    H128265   6.177   4.117   8.181  0.4288  0.6337 -0.4338
 2210TIP3    H228266   6.077   4.097   8.069 -1.3405 -0.0557  1.2247
 2211TIP3   OH228267   3.815   1.437   1.597 -0.3653  0.3820  0.6471
 2211TIP3    H128268   3.844   1.505   1.657 -1.0004  1.3952 -0.1545
 2211TIP3    H228269   3.723   1.423   1.620 -0.3098 -0.0138  0.6301
 2212TIP3   OH228270   1.831   2.436   1.302  0.5647 -0.0012 -0.0160
 2212TIP3    H128271   1.845   2.418   1.395  0.6482 -1.1098 -0.2368
 2212TIP3    H228272   1.754   2.493   1.300 -0.7892 -1.7180  0.6154
 2213TIP3   OH228273   4.131   6.620   1.579 -0.4065  0.4966 -0.1187
 2213TIP3    H128274   4.071   6.609   1.506  0.7829 -0.6798 -0.9644
 2213TIP3    H228275   4.218   6.612   1.541  0.2566 -2.2898  1.6616
 2214TIP3   OH228276   3.702   3.935   2.132  0.3898 -0.1287  0.0473
 2214TIP3    H128277   3.778   3.882   2.158  0.4797  0.4668  1.0230
 2214TIP3    H228278   3.741   4.011   2.089  0.2930 -0.3622 -0.4645
 2215TIP3   OH228279   6.479   1.268   1.838  0.2837  0.3822 -0.4086
 2215TIP3    H128280   6.426   1.188   1.835 -2.2262  1.8469  0.9052
 2215TIP3    H228281   6.424   1.331   1.886  2.3982  2.7145 -0.8399
 2216TIP3   OH228282   1.673   3.813   7.944  0.3199  0.1993  0.5196
 2216TIP3    H128283   1.707   3.824   8.033 -1.2444  1.0628  1.0587
 2216TIP3    H228284   1.578   3.802   7.956  0.0620  0.4577 -1.0436
 2217TIP3   OH228285   3.874   0.651   8.384  0.1085  0.5874  0.7089
 2217TIP3    H128286   3.798   0.673   8.437 -0.2792 -1.4939  1.0741
 2217TIP3    H228287   3.922   0.585   8.434  1.2377  0.6003 -0.2830
 2218TIP3   OH228288   6.875   5.849   7.187 -0.4224 -0.1801 -0.4559
 2218TIP3    H128289   6.901   5.787   7.119 -0.6176  0.4375 -1.1091
 2218TIP3    H228290   6.957   5.889   7.216 -0.5260  1.3947 -2.1509
 2219TIP3   OH228291   5.793   2.160   7.892 -0.1010 -0.8622  0.4157
 2219TIP3    H128292   5.704   2.163   7.927 -0.6082 -0.3078 -0.8761
 2219TIP3    H228293   5.809   2.067   7.877 -0.3680 -0.9868  0.8672
 2220TIP3   OH228294   0.913   6.726   8.429  0.2093 -0.4863  0.4191
 2220TIP3    H128295   0.832   6.691   8.465 -0.1697  0.6276  0.6710
 2220TIP3    H228296   0.952   6.652   8.382 -0.9726 -1.0178  0.2501
 2221TIP3   OH228297   6.697   5.870   0.608 -0.4118  0.0798 -0.2378
 2221TIP3    H128298   6.607   5.886   0.580  0.1204  0.9758 -1.5361
 2221TIP3    H228299   6.719   5.945   0.663 -0.1209  0.4319 -0.8182
 2222TIP3   OH228300   0.547   1.135   6.831 -0.6690 -0.5449  0.2341
 2222TIP3    H128301   0.633   1.106   6.803 -0.5982  1.2337 -1.5934
 2222TIP3    H228302   0.496   1.143   6.751 -1.6289  1.1714  0.9473
 2223TIP3   OH228303   1.898   4.182   8.394 -0.7438 -0.6504  0.1459
 2223TIP3    H128304   1.930   4.232   8.470 -1.7152  1.7754 -0.9134
 2223TIP3    H228305   1.974   4.177   8.335 -0.7764  0.1009  0.0297
 2224TIP3   OH228306   5.183   4.049   1.136 -1.0145  0.2619 -0.4092
 2224TIP3    H128307   5.253   4.105   1.103  0.2526 -1.0892 -0.1154
 2224TIP3    H228308   5.132   4.106   1.193  0.4628  1.0261  0.2111
 2225TIP3   OH228309   0.136   2.832   1.789  0.3125  0.1012  0.4255
 2225TIP3    H128310   0.227   2.855   1.807 -0.0161  0.8621  1.1696
 2225TIP3    H228311   0.085   2.903   1.829 -0.6742 -1.1080  1.3760
 2226TIP3   OH228312   4.499   1.281   1.555 -0.1922 -0.6127  0.4812
 2226TIP3    H128313   4.457   1.221   1.492  0.0798 -1.4118  1.0436
 2226TIP3    H228314   4.571   1.230   1.591 -0.6122 -0.3201  1.7734
 2227TIP3   OH228315   3.380   5.101   0.511 -0.9550  0.2827 -0.2804
 2227TIP3    H128316   3.334   5.047   0.576  2.3343  0.4872  2.5119
 2227TIP3    H228317   3.311   5.151   0.469 -3.5214 -1.3029  1.7000
 2228TIP3   OH228318   4.090   0.681   6.966 -0.2142  0.1631  0.1819
 2228TIP3    H128319   4.168   0.640   7.003 -0.2172 -0.5503 -0.5667
 2228TIP3    H228320   4.096   0.663   6.872 -1.7019 -0.6694  0.2128
 2229TIP3   OH228321   0.885   0.831   0.843  0.3039  0.7773  0.1850
 2229TIP3    H128322   0.865   0.813   0.935 -1.0931 -0.5211 -0.3390
 2229TIP3    H228323   0.977   0.809   0.834  0.3513  0.5177  1.1726
 2230TIP3   OH228324   4.861   3.244   1.756  0.3946 -0.0667  0.2280
 2230TIP3    H128325   4.951   3.212   1.754  0.6425  0.6022 -1.9352
 2230TIP3    H228326   4.810   3.172   1.793  1.8267 -0.3282  1.8049
 2231TIP3   OH228327   4.525   5.245   7.844 -1.0088  0.3806  0.1604
 2231TIP3    H128328   4.616   5.221   7.859 -1.1120 -0.7663 -0.8345
 2231TIP3    H228329   4.525   5.340   7.841  0.2784  0.3826 -0.5133
 2232TIP3   OH228330   5.284   2.754   8.090  0.0990  0.4487  0.4931
 2232TIP3    H128331   5.357   2.772   8.030 -1.0656  0.1280 -1.0881
 2232TIP3    H228332   5.300   2.664   8.121  1.4735  1.1186  1.8534
 2233TIP3   OH228333   3.107   5.403   0.010 -0.6465  0.3953  0.5396
 2233TIP3    H128334   3.184   5.438   0.054 -0.6643  0.1349  0.7844
 2233TIP3    H228335   3.105   5.446  -0.075  0.1430 -0.0905  0.2655
 2234TIP3   OH228336   4.583   2.038   0.462 -0.0999 -0.3226  0.1701
 2234TIP3    H128337   4.641   2.114   0.469  0.6221 -0.6835 -1.4211
 2234TIP3    H228338   4.503   2.072   0.423  0.5407 -0.4737 -1.3695
 2235TIP3   OH228339   4.577   6.249   7.130  0.2979 -0.4685 -0.2233
 2235TIP3    H128340   4.561   6.219   7.041  1.7057 -0.8379 -0.3643
 2235TIP3    H228341   4.653   6.200   7.159  2.2962  2.3753 -0.1924
 2236TIP3   OH228342   6.631   5.817   0.255 -0.5443 -0.2916  0.2050
 2236TIP3    H128343   6.705   5.853   0.206 -0.2987 -0.9016  0.1271
 2236TIP3    H228344   6.556   5.826   0.196 -0.5051  0.1600  0.2166
 2237TIP3   OH228345   0.218   0.767   8.030 -0.4825 -0.7180 -0.0527
 2237TIP3    H128346   0.245   0.715   7.954  0.3339 -0.9964  0.4099
 2237TIP3    H228347   0.272   0.734   8.101  0.2791  0.9478  0.2016
 2238TIP3   OH228348   0.176   3.795   0.901 -0.0451 -0.3941  0.2974
 2238TIP3    H128349   0.120   3.862   0.860 -1.6452 -0.9216  1.5264
 2238TIP3    H228350   0.177   3.723   0.838 -0.4414 -0.2223  0.0909
 2239TIP3   OH228351   1.179   1.436   8.061  0.0746  0.7649 -0.1084
 2239TIP3    H128352   1.156   1.495   8.133  0.0384  0.3950  0.1868
 2239TIP3    H228353   1.218   1.493   7.995  1.1688  0.9767  0.6744
 2240TIP3   OH228354   4.373   2.577   6.878  0.1095  0.6816 -0.0119
 2240TIP3    H128355   4.387   2.483   6.893  2.8334  1.3642  2.7705
 2240TIP3    H228356   4.456   2.608   6.840 -0.7231  2.0093 -0.8317
 2241TIP3   OH228357   0.313   4.942   6.641  0.1748  0.1010  0.6073
 2241TIP3    H128358   0.271   4.912   6.560  0.1808  0.1504  0.5861
 2241TIP3    H228359   0.388   4.994   6.612  0.4150 -0.2182  0.6471
 2242TIP3   OH228360   2.632   0.375   8.510  0.4692  0.1605  0.2987
 2242TIP3    H128361   2.551   0.398   8.465  1.9861  4.1815 -0.8410
 2242TIP3    H228362   2.610   0.384   8.603 -0.3637  1.5994  0.0004
 2243TIP3   OH228363   3.122   3.228   1.774  0.3381  0.3115  0.3063
 2243TIP3    H128364   3.176   3.261   1.846  1.3777 -1.0773  0.1930
 2243TIP3    H228365   3.073   3.155   1.813 -1.0169  1.1302  0.2316
 2244TIP3   OH228366   5.339   4.048   6.612 -0.2967  0.0012  0.1841
 2244TIP3    H128367   5.337   4.088   6.525  1.7704 -1.3254 -0.5416
 2244TIP3    H228368   5.414   4.090   6.655 -0.1175 -0.7364  0.5937
 2245TIP3   OH228369   0.180   1.465   7.726  0.1550  0.2206  0.6230
 2245TIP3    H128370   0.171   1.468   7.821  1.9904  0.5179  0.8359
 2245TIP3    H228371   0.171   1.556   7.698  0.7517  0.2981  0.6630
 2246TIP3   OH228372   5.606   2.391   0.570 -0.0209  0.0746 -0.0562
 2246TIP3    H128373   5.538   2.453   0.597  0.0590  0.2604 -0.2887
 2246TIP3    H228374   5.560   2.326   0.517  0.2068  0.8948 -1.2699
 2247TIP3   OH228375   3.924   3.681   6.487  0.7177 -0.1519 -0.4201
 2247TIP3    H128376   3.931   3.705   6.395  2.1637  0.1471 -0.2577
 2247TIP3    H228377   3.972   3.750   6.534 -1.2270  0.5316  0.7195
 2248TIP3   OH228378   2.863   1.839   6.629 -0.2803  0.5242 -0.4132
 2248TIP3    H128379   2.784   1.852   6.682 -0.4591 -0.2648 -0.4789
 2248TIP3    H228380   2.857   1.749   6.598  0.5956  0.4858 -0.5035
 2249TIP3   OH228381   3.843   6.363   2.096  0.3152  0.2755  0.5447
 2249TIP3    H128382   3.776   6.400   2.154 -0.4170  0.8668 -0.6361
 2249TIP3    H228383   3.923   6.362   2.149 -0.8577 -1.6611  2.4433
 2250TIP3   OH228384   0.508   1.125   2.472 -0.2959 -0.4698 -0.4768
 2250TIP3    H128385   0.450   1.150   2.400 -0.8353 -1.0217 -0.2518
 2250TIP3    H228386   0.507   1.029   2.470 -0.3384 -0.4889  0.2797
 2251TIP3   OH228387   1.673   5.635   6.271  0.3527 -0.0936  0.6178
 2251TIP3    H128388   1.658   5.723   6.236  2.4604  0.0653 -0.0466
 2251TIP3    H228389   1.621   5.631   6.351 -0.2072  1.5606  0.3656
 2252TIP3   OH228390   3.284   0.279   8.000  0.0231 -0.1431 -0.0257
 2252TIP3    H128391   3.377   0.295   8.016 -0.1560  0.7544  0.1458
 2252TIP3    H228392   3.239   0.349   8.046 -0.7279 -0.3402 -0.4406
 2253TIP3   OH228393   0.649   0.988   0.822  0.3070  0.3157  0.1798
 2253TIP3    H128394   0.606   1.009   0.905  0.4879 -1.0317  0.6391
 2253TIP3    H228395   0.728   0.941   0.847 -0.7970 -2.2607 -0.7423
 2254TIP3   OH228396   3.734   6.503   8.127 -0.0391  0.3588 -0.1837
 2254TIP3    H128397   3.720   6.510   8.221 -1.3442  2.5658 -0.4671
 2254TIP3    H228398   3.819   6.544   8.112  0.0527  0.2361  0.0045
 2255TIP3   OH228399   2.203   2.990   0.651 -0.0696  0.2695  0.0358
 2255TIP3    H128400   2.190   3.078   0.686 -2.2830 -0.8724  2.5134
 2255TIP3    H228401   2.166   2.994   0.563 -2.6343  1.2682  1.0555
 2256TIP3   OH228402   0.873   5.582   7.804 -0.1517  0.3500 -0.9947
 2256TIP3    H128403   0.905   5.606   7.891  0.7314 -1.7245 -0.6848
 2256TIP3    H228404   0.934   5.624   7.744 -1.0112  2.1447 -0.6683
 2257TIP3   OH228405   2.491   1.810   1.068  0.2435 -0.2636  0.2084
 2257TIP3    H128406   2.483   1.898   1.031  0.4477 -0.6182 -0.7053
 2257TIP3    H228407   2.518   1.755   0.994 -0.4485 -1.2000  0.6235
 2258TIP3   OH228408   1.860   4.066   0.757  0.4739 -0.4823  0.1870
 2258TIP3    H128409   1.878   4.012   0.680  1.0922 -0.3383  0.2202
 2258TIP3    H228410   1.766   4.058   0.772  0.5691 -1.6112  0.2416
 2259TIP3   OH228411   6.576   0.004   7.680 -0.2263 -0.0843  0.5761
 2259TIP3    H128412   6.494   0.041   7.713 -1.1792 -0.0960 -1.6082
 2259TIP3    H228413   6.617   0.076   7.632  0.5554 -0.3615  0.8164
 2260TIP3   OH228414   1.797   1.736   8.585  0.1110 -0.0643  0.9726
 2260TIP3    H128415   1.801   1.783   8.669  1.1878  0.1328  0.8247
 2260TIP3    H228416   1.752   1.654   8.606 -0.4454  0.3751  1.5493
 2261TIP3   OH228417   2.479   1.254   1.723 -0.1491  0.1491 -0.2283
 2261TIP3    H128418   2.538   1.295   1.786  1.1234 -0.5589 -0.9050
 2261TIP3    H228419   2.416   1.322   1.700 -2.8188 -0.4084  4.2099
 2262TIP3   OH228420   6.141   3.441   8.150  0.0365 -0.2336 -0.0058
 2262TIP3    H128421   6.194   3.406   8.222 -0.6356  1.1206  1.2001
 2262TIP3    H228422   6.157   3.536   8.153  0.2982 -0.1712 -1.9151
 2263TIP3   OH228423   2.755   3.827   6.406  0.4177  0.2100 -0.1484
 2263TIP3    H128424   2.666   3.858   6.387  0.3567  1.1466  1.4920
 2263TIP3    H228425   2.743   3.736   6.432 -0.0669  0.3227  0.0439
 2264TIP3   OH228426   1.225   0.251   7.948 -0.6245 -0.3155 -0.1534
 2264TIP3    H128427   1.194   0.162   7.961 -1.4815 -0.1897 -1.2427
 2264TIP3    H228428   1.156   0.294   7.898 -0.5606  1.1764  0.9718
 2265TIP3   OH228429   5.063   2.380   0.902  0.1248  0.0891 -0.5493
 2265TIP3    H128430   5.049   2.467   0.864  1.6779  0.5449 -0.1479
 2265TIP3    H228431   4.990   2.368   0.962 -1.1896  0.2669 -2.0606
 2266TIP3   OH228432   4.266   6.753   7.401  0.5053  0.1467 -0.4721
 2266TIP3    H128433   4.214   6.748   7.320 -0.6049  1.3418  0.1333
 2266TIP3    H228434   4.219   6.815   7.456  2.1509  0.6361  0.4468
 2267TIP3   OH228435   0.545   2.722   0.211 -0.4372 -0.3609 -0.7105
 2267TIP3    H128436   0.617   2.771   0.173 -0.1445 -1.9064 -2.2610
 2267TIP3    H228437   0.517   2.662   0.142 -0.1702 -3.0156  1.3038
 2268TIP3   OH228438   2.587   5.451   7.091 -0.3932  0.1648 -0.1536
 2268TIP3    H128439   2.604   5.527   7.035 -2.5759 -0.6813 -2.1583
 2268TIP3    H228440   2.613   5.376   7.038  1.5926 -0.5810  1.7310
 2269TIP3   OH228441   3.196   0.210   1.042  0.2560 -0.3497  0.1389
 2269TIP3    H128442   3.175   0.120   1.067 -0.3288 -0.1081  0.5521
 2269TIP3    H228443   3.230   0.249   1.123  0.9942 -0.3388 -0.1703
 2270TIP3   OH228444   3.388   0.714   0.708 -0.2749 -0.7308  0.0108
 2270TIP3    H128445   3.318   0.709   0.644 -0.2587  0.3383 -0.1138
 2270TIP3    H228446   3.359   0.782   0.769  0.0898 -1.1534  0.6645
 2271TIP3   OH228447   2.895   2.692   2.354 -0.7749 -0.2011  0.1516
 2271TIP3    H128448   2.863   2.780   2.372 -1.8595 -0.1168 -1.8464
 2271TIP3    H228449   2.881   2.643   2.435 -0.1628  1.4347  1.2805
 2272TIP3   OH228450   0.578   5.663   1.850 -0.1600  0.2563 -0.0794
 2272TIP3    H128451   0.659   5.643   1.897 -0.1422 -2.4673 -1.1112
 2272TIP3    H228452   0.587   5.618   1.766 -2.9148 -0.4976 -0.0596
 2273TIP3   OH228453   4.926   6.380   0.869 -0.0954 -0.7459  0.0359
 2273TIP3    H128454   4.871   6.310   0.904 -2.0613  0.2548 -0.9017
 2273TIP3    H228455   5.006   6.335   0.840 -1.2649 -2.6145 -0.4817
 2274TIP3   OH228456   6.739   2.186   7.373 -0.3741  0.2969  0.3646
 2274TIP3    H128457   6.778   2.245   7.438  3.2372  0.4132 -1.6521
 2274TIP3    H228458   6.711   2.245   7.303  2.9462 -0.1023 -1.5099
 2275TIP3   OH228459   3.642   0.419   0.133  0.1871 -0.7364  0.0541
 2275TIP3    H128460   3.592   0.403   0.213 -0.1530 -0.6759 -0.1469
 2275TIP3    H228461   3.709   0.482   0.160 -0.7561  0.3259 -0.0151
 2276TIP3   OH228462   6.430   4.240   2.672 -0.4352  0.2696 -0.6018
 2276TIP3    H128463   6.468   4.292   2.601 -0.0820 -1.2780 -1.5941
 2276TIP3    H228464   6.339   4.227   2.647 -0.8342  1.3630  0.2273
 2277TIP3   OH228465   5.809   0.180   1.489 -0.2597 -0.7849 -1.0717
 2277TIP3    H128466   5.857   0.103   1.518 -0.0731  0.2685  1.8362
 2277TIP3    H228467   5.717   0.156   1.498 -0.2047 -0.6113  0.2322
 2278TIP3   OH228468   4.172   4.880   6.632 -0.1814 -0.2504 -0.3993
 2278TIP3    H128469   4.263   4.853   6.638  0.1206  0.7375 -0.3384
 2278TIP3    H228470   4.124   4.813   6.681  0.8417  0.7881  2.1974
 2279TIP3   OH228471   4.672   5.702   7.720 -0.3178  0.3736 -0.4845
 2279TIP3    H128472   4.751   5.691   7.773 -1.1669  0.9569  0.9671
 2279TIP3    H228473   4.610   5.639   7.755 -0.5885  0.0671 -1.4718
 2280TIP3   OH228474   0.797   2.036   0.516  0.4372 -0.3507 -0.0642
 2280TIP3    H128475   0.714   2.081   0.501  1.3545  1.8014  0.7810
 2280TIP3    H228476   0.820   2.058   0.606  2.8534  0.8691 -0.8751
 2281TIP3   OH228477   5.377   3.143   1.456  0.1550 -0.4477  0.9085
 2281TIP3    H128478   5.395   3.206   1.386  0.3124 -2.7443 -1.2794
 2281TIP3    H228479   5.455   3.146   1.511  1.6602 -1.0388 -1.0638
 2282TIP3   OH228480   5.372   0.687   7.114 -0.0961  0.2103  0.7535
 2282TIP3    H128481   5.397   0.605   7.070 -3.8091 -2.6127  3.3274
 2282TIP3    H228482   5.295   0.717   7.066 -0.9229  0.0957  1.9725
 2283TIP3   OH228483   5.764   2.414   8.327 -0.4241  0.8539  0.4116
 2283TIP3    H128484   5.831   2.353   8.295 -1.2220  0.1815 -0.0471
 2283TIP3    H228485   5.812   2.490   8.357  0.6492 -0.1621  1.3887
 2284TIP3   OH228486   6.432   2.163   6.045  0.4585  0.1396 -0.1488
 2284TIP3    H128487   6.417   2.110   6.123 -0.0864 -0.1395 -0.4372
 2284TIP3    H228488   6.426   2.254   6.076 -0.6743  0.0375 -0.0275
 2285TIP3   OH228489   0.711   5.234   1.581 -0.7218 -0.5732  0.4490
 2285TIP3    H128490   0.748   5.268   1.662  0.2967 -0.1232 -0.1832
 2285TIP3    H228491   0.786   5.207   1.529 -1.0736  1.8729 -1.5420
 2286TIP3   OH228492   6.393   4.177   8.440  0.1677 -0.5377 -0.5597
 2286TIP3    H128493   6.401   4.104   8.502  0.1094 -0.9367 -1.0169
 2286TIP3    H228494   6.299   4.191   8.431  0.1438  1.3859  1.5855
 2287TIP3   OH228495   2.069   4.274   0.018  0.0588 -0.7306  0.3141
 2287TIP3    H128496   2.133   4.301   0.084 -0.7923  0.7386  0.5702
 2287TIP3    H228497   1.987   4.263   0.066 -0.2969 -0.8257 -0.3048
 2288TIP3   OH228498   5.935   4.337   1.357  0.4686 -0.2324  0.2843
 2288TIP3    H128499   5.914   4.371   1.270  1.6312  0.9198  0.4326
 2288TIP3    H228500   5.882   4.390   1.416  0.0715 -0.6715  0.3329
 2289TIP3   OH228501   5.939   5.841   8.375  0.3906 -0.5713  0.4247
 2289TIP3    H128502   5.981   5.756   8.390  0.5165 -0.9938 -1.8405
 2289TIP3    H228503   5.934   5.882   8.461  1.1610 -2.4945  1.4350
 2290TIP3   OH228504   6.228   1.767   7.732 -0.1617 -0.1549 -0.2676
 2290TIP3    H128505   6.234   1.799   7.642  0.3362  1.2590  0.2350
 2290TIP3    H228506   6.275   1.684   7.732  1.7118  0.8534 -0.8727
 2291TIP3   OH228507   5.718   2.797   7.092 -0.2518  0.0691 -0.7261
 2291TIP3    H128508   5.677   2.840   7.017 -1.6639 -0.4412 -0.2892
 2291TIP3    H228509   5.724   2.705   7.067  0.7781  0.1512 -0.8269
 2292TIP3   OH228510   0.166   0.480   0.181 -0.3979  0.4134 -0.9938
 2292TIP3    H128511   0.078   0.516   0.193 -0.1046  0.7902  0.1619
 2292TIP3    H228512   0.225   0.552   0.204  0.2050 -0.3216 -0.1624
 2293TIP3   OH228513   0.629   4.526   0.068  0.0060  0.5659  0.5936
 2293TIP3    H128514   0.535   4.508   0.073  0.0412  0.4729  0.9141
 2293TIP3    H228515   0.649   4.571   0.150  0.4322 -0.3013  0.9819
 2294TIP3   OH228516   6.697   0.681   1.144 -0.6246  0.2472 -0.0726
 2294TIP3    H128517   6.716   0.620   1.072 -1.0666  0.1501 -0.1051
 2294TIP3    H228518   6.780   0.727   1.157 -0.0732 -0.8330  0.4135
 2295TIP3   OH228519   6.363   0.527   7.373 -0.2478 -0.3431  0.5532
 2295TIP3    H128520   6.274   0.531   7.340 -0.2926  1.7923  0.8281
 2295TIP3    H228521   6.397   0.616   7.364  2.3859 -1.3626 -0.9052
 2296TIP3   OH228522   2.140   0.531   8.585 -0.6423 -0.2318  0.3783
 2296TIP3    H128523   2.105   0.453   8.627 -3.2210  0.6464  0.0137
 2296TIP3    H228524   2.109   0.604   8.639 -0.1839  0.6624 -0.5232
 2297TIP3   OH228525   0.375   4.406   0.806 -0.4632  0.4138  0.4321
 2297TIP3    H128526   0.361   4.439   0.717 -3.1282  0.9228  0.9316
 2297TIP3    H228527   0.332   4.320   0.807 -3.7098  1.8484  1.9964
 2298TIP3   OH228528   2.422   4.697   1.990 -0.4196 -0.1562 -0.1343
 2298TIP3    H128529   2.492   4.756   1.962  0.2247 -1.5778 -1.7276
 2298TIP3    H228530   2.410   4.637   1.917 -1.4148 -1.6685  1.1829
 2299TIP3   OH228531   4.727   3.218   6.655 -0.2944 -0.0142 -0.5140
 2299TIP3    H128532   4.797   3.246   6.714 -1.9092  0.7880  1.1006
 2299TIP3    H228533   4.773   3.175   6.582  1.7874 -0.5980  1.0555
 2300TIP3   OH228534   1.955   3.684   2.145 -0.5922  0.3142  0.0486
 2300TIP3    H128535   1.958   3.594   2.177  1.0072 -0.1088 -1.1405
 2300TIP3    H228536   1.997   3.735   2.214 -0.1713 -0.0827  0.0907
 2301TIP3   OH228537   6.422   1.630   0.862 -0.6197  1.1011  0.7515
 2301TIP3    H128538   6.441   1.634   0.768  0.9033  1.7297  1.0613
 2301TIP3    H228539   6.344   1.684   0.873 -0.3135  1.7258 -0.0444
 2302TIP3   OH228540   6.270   3.097   2.243 -0.2200  0.4141 -0.2105
 2302TIP3    H128541   6.233   3.017   2.281 -0.4179  0.4247 -0.3741
 2302TIP3    H228542   6.301   3.148   2.318 -1.8704  1.0687  0.0653
 2303TIP3   OH228543   4.079   2.263   1.379 -0.4900  0.9586  0.3861
 2303TIP3    H128544   4.009   2.202   1.403  0.7416 -0.7244 -0.1194
 2303TIP3    H228545   4.053   2.346   1.419 -1.5013 -0.2332  2.3293
 2304TIP3   OH228546   1.121   4.884   7.156  0.4587  0.2051  0.0492
 2304TIP3    H128547   1.049   4.827   7.181  1.6473 -1.9911 -1.2332
 2304TIP3    H228548   1.106   4.906   7.064  1.6778 -0.7840 -0.4212
 2305TIP3   OH228549   0.340   5.973   0.202  0.5243 -0.1637  0.2601
 2305TIP3    H128550   0.399   5.926   0.260 -1.0761 -2.0391  0.4741
 2305TIP3    H228551   0.388   5.981   0.120  0.4028 -3.5180 -0.2513
 2306TIP3   OH228552   3.308   0.453   7.344  0.2024  0.2580  0.3368
 2306TIP3    H128553   3.264   0.537   7.330 -0.3051  0.0423  0.6374
 2306TIP3    H228554   3.335   0.425   7.256  0.3384  0.7095  0.2294
 2307TIP3   OH228555   3.601   6.738   7.757  0.2435  0.3113 -0.3968
 2307TIP3    H128556   3.595   6.809   7.694  2.9636  1.1875  0.2098
 2307TIP3    H228557   3.651   6.774   7.830  1.1754 -2.0010  0.2223
 2308TIP3   OH228558   5.071   2.761   0.508  0.2025  0.2512  0.1349
 2308TIP3    H128559   5.060   2.805   0.593  0.7538  2.0799 -0.6932
 2308TIP3    H228560   4.992   2.783   0.459 -1.1121 -2.5513  0.8426
 2309TIP3   OH228561   0.237   5.843   0.760  0.2990 -0.9248 -0.5585
 2309TIP3    H128562   0.321   5.814   0.795  1.2097  0.0820 -1.8247
 2309TIP3    H228563   0.255   5.863   0.668 -0.8218  1.3581 -0.3421
 2310TIP3   OH228564   6.902   0.561   0.483  0.4720  0.2059 -0.3734
 2310TIP3    H128565   6.893   0.645   0.529  0.3037  0.8665 -1.5595
 2310TIP3    H228566   6.883   0.582   0.391 -0.2990 -1.2841 -0.5785
 2311TIP3   OH228567   3.943   4.301   6.433  0.0980 -0.2519 -0.6080
 2311TIP3    H128568   3.913   4.361   6.364 -1.4323  0.8299  0.9158
 2311TIP3    H228569   4.026   4.337   6.462 -0.3221  0.5678 -0.3974
 2312TIP3   OH228570   3.402   6.853   2.178 -0.2898  0.2017 -0.2303
 2312TIP3    H128571   3.362   6.853   2.266 -0.9346 -2.9419 -0.3978
 2312TIP3    H228572   3.430   6.762   2.165  1.2060  0.9358 -2.6957
 2313TIP3   OH228573   4.524   4.530   1.702 -0.4514 -0.1864  0.2942
 2313TIP3    H128574   4.443   4.478   1.698 -1.3459  1.0726  1.1980
 2313TIP3    H228575   4.504   4.600   1.764  1.1392  0.5253  0.0464
 2314TIP3   OH228576   6.875   1.837   7.955 -0.1865 -0.3410 -0.3386
 2314TIP3    H128577   6.911   1.881   7.878 -1.4248  0.7813 -0.3197
 2314TIP3    H228578   6.896   1.894   8.028  1.4863 -1.6825  0.2903
 2315TIP3   OH228579   6.240   1.319   1.661  0.6351 -0.7162 -0.4748
 2315TIP3    H128580   6.312   1.375   1.690 -0.3243  1.1505 -1.5620
 2315TIP3    H228581   6.164   1.349   1.711  0.1611 -1.2748 -0.8467
 2316TIP3   OH228582   3.465   5.275   1.459  0.2073 -1.4601  0.0240
 2316TIP3    H128583   3.391   5.241   1.409 -0.6725  1.7431 -1.0854
 2316TIP3    H228584   3.524   5.311   1.392 -0.1414  1.3273  1.0885
 2317TIP3   OH228585   0.829   2.494   6.122 -0.7536 -0.3433 -0.1346
 2317TIP3    H128586   0.917   2.490   6.159 -1.2198 -1.3503  0.9120
 2317TIP3    H228587   0.814   2.587   6.106  0.9066 -0.2510 -1.3802
 2318TIP3   OH228588   1.344   2.375   8.461  0.7813  0.5103 -0.4448
 2318TIP3    H128589   1.317   2.467   8.466  0.6939  0.4984 -0.6843
 2318TIP3    H228590   1.311   2.345   8.376  0.7657  0.2441 -0.3455
 2319TIP3   OH228591   4.767   2.045   2.143  0.1463 -0.1856 -0.4096
 2319TIP3    H128592   4.757   2.017   2.234 -0.6061  1.0977 -0.0621
 2319TIP3    H228593   4.836   1.989   2.108  1.5021  0.2425  1.3862
 2320TIP3   OH228594   1.431   1.923   7.563 -0.4046  0.1115 -0.0661
 2320TIP3    H128595   1.421   1.829   7.571  0.4888  0.0308  0.1969
 2320TIP3    H228596   1.417   1.941   7.469  1.8704 -0.6220 -0.5997
 2321TIP3   OH228597   5.843   4.630   7.979 -0.2541  0.3670  0.3939
 2321TIP3    H128598   5.929   4.648   7.943  0.6406 -2.3201  0.9355
 2321TIP3    H228599   5.844   4.536   7.998 -2.4855  0.6599  2.5689
 2322TIP3   OH228600   6.847   6.356   2.049 -0.5839  0.4425  0.0498
 2322TIP3    H128601   6.938   6.340   2.074 -0.8496 -1.5551 -0.0731
 2322TIP3    H228602   6.810   6.405   2.122  0.0865 -0.4696  1.0255
 2323TIP3   OH228603   4.468   0.964   0.936 -0.1823 -0.3282 -0.3932
 2323TIP3    H128604   4.499   0.918   0.858 -0.2687  1.2005 -1.3680
 2323TIP3    H228605   4.547   1.003   0.974 -0.0771 -1.3901  0.5494
 2324TIP3   OH228606   0.776   0.257   2.013 -0.3587 -0.4922  0.0281
 2324TIP3    H128607   0.774   0.256   2.109  1.9124 -0.5407  0.1367
 2324TIP3    H228608   0.839   0.189   1.990  0.9619  1.1298 -1.3719
 2325TIP3   OH228609   1.837   6.263   7.944 -0.2572  0.2816 -0.3071
 2325TIP3    H128610   1.799   6.219   8.021  0.5378 -0.7679 -0.4880
 2325TIP3    H228611   1.880   6.340   7.980  0.8313 -0.6395  0.4477
 2326TIP3   OH228612   5.824   5.029   0.895 -0.1665 -0.5264  0.3213
 2326TIP3    H128613   5.788   5.066   0.814 -0.5274  0.6241  0.9892
 2326TIP3    H228614   5.900   4.978   0.866  0.3617  0.7562 -0.6574
 2327TIP3   OH228615   3.002   2.035   8.332  0.4921 -0.5231  0.5005
 2327TIP3    H128616   3.080   2.026   8.387  0.7162  0.5805  0.3757
 2327TIP3    H228617   3.032   2.084   8.256 -0.4358  0.3433  0.6819
 2328TIP3   OH228618   5.790   0.954   8.576 -0.1045 -0.1578  0.0458
 2328TIP3    H128619   5.719   0.921   8.520  0.3058 -1.5493  0.2887
 2328TIP3    H228620   5.847   1.002   8.516 -0.2610 -0.6710 -0.5285
 2329TIP3   OH228621   4.194   5.607   7.804  0.5286  0.0433  0.0718
 2329TIP3    H128622   4.122   5.662   7.836  0.4073  0.0306 -0.1828
 2329TIP3    H228623   4.162   5.518   7.813 -0.4313  0.0911 -2.2588
 2330TIP3   OH228624   1.834   2.808   0.438  0.4018 -0.6286  0.2741
 2330TIP3    H128625   1.877   2.759   0.509 -1.0253 -2.9198 -0.3461
 2330TIP3    H228626   1.741   2.801   0.457  0.0776  0.4592 -0.7780
 2331TIP3   OH228627   1.429   1.998   5.846 -0.6010  0.1082  0.2351
 2331TIP3    H128628   1.516   2.025   5.878  0.0344 -0.1507 -1.2010
 2331TIP3    H228629   1.378   1.984   5.926 -0.0793  2.6182  1.1039
 2332TIP3   OH228630   4.261   2.898   0.240 -0.6361  0.0760  0.2931
 2332TIP3    H128631   4.268   2.849   0.158  1.7244  0.9715 -0.1151
 2332TIP3    H228632   4.316   2.850   0.302 -2.9775 -1.0245  1.6933
 2333TIP3   OH228633   5.791   0.905   2.408  0.0669 -0.2327 -0.9130
 2333TIP3    H128634   5.874   0.950   2.425  0.5394 -1.3606 -0.1152
 2333TIP3    H228635   5.744   0.964   2.349  0.6482  1.3170  0.0997
 2334TIP3   OH228636   3.280   6.680   1.329  0.5557  0.5356 -0.3836
 2334TIP3    H128637   3.244   6.715   1.411  2.7738  1.1882  0.3916
 2334TIP3    H228638   3.271   6.585   1.338 -2.9468  0.6614 -1.2606
 2335TIP3   OH228639   3.288   0.373   0.094 -0.1193  0.0628  0.3313
 2335TIP3    H128640   3.212   0.424   0.123 -1.1503 -1.8687  1.2160
 2335TIP3    H228641   3.345   0.371   0.171  1.1718  1.9460 -0.4836
 2336TIP3   OH228642   4.730   6.475   1.838  0.2281 -0.2598 -0.2588
 2336TIP3    H128643   4.806   6.419   1.852  0.6065  0.4226  0.5005
 2336TIP3    H228644   4.676   6.462   1.916 -0.2359 -0.4190 -0.6008
 2337TIP3   OH228645   4.558   1.385   7.641  0.3645  0.5109 -0.5472
 2337TIP3    H128646   4.596   1.297   7.637 -0.1265  0.2450  0.3054
 2337TIP3    H228647   4.472   1.371   7.682 -0.6731  1.0843 -2.4305
 2338TIP3   OH228648   4.933   6.322   8.206 -0.3172 -0.5039  0.7492
 2338TIP3    H128649   4.881   6.268   8.147  0.6303  0.2683 -0.8682
 2338TIP3    H228650   4.947   6.404   8.158 -0.0966  0.4331  2.3450
 2339TIP3   OH228651   6.461   2.891   7.618 -0.0379  0.5119 -0.3732
 2339TIP3    H128652   6.497   2.924   7.701  1.1932 -0.8676 -0.3048
 2339TIP3    H228653   6.428   2.804   7.640 -0.0084  0.2714 -1.2598
 2340TIP3   OH228654   4.926   2.478   2.698  0.4564 -0.4166  0.2176
 2340TIP3    H128655   4.832   2.469   2.686  0.7448 -1.3903 -1.6228
 2340TIP3    H228656   4.939   2.571   2.720 -0.7838  0.0937 -1.0899
 2341TIP3   OH228657   5.236   3.939   8.443  0.2105  0.2093 -0.3023
 2341TIP3    H128658   5.155   3.911   8.487  0.7933 -2.0457 -0.4988
 2341TIP3    H228659   5.305   3.891   8.489  1.4430  2.0068 -0.2235
 2342TIP3   OH228660   2.129   3.763   1.733 -0.0819  0.3770 -0.3048
 2342TIP3    H128661   2.107   3.801   1.648 -0.4500 -0.5451 -0.6330
 2342TIP3    H228662   2.055   3.705   1.753  1.2435 -1.5234 -0.6467
 2343TIP3   OH228663   4.289   6.465   0.887 -0.0697 -0.0621 -0.4975
 2343TIP3    H128664   4.307   6.405   0.814  2.1964 -0.6485  0.4359
 2343TIP3    H228665   4.274   6.408   0.962  2.1683  0.4384  0.4173
 2344TIP3   OH228666   2.178   3.811   7.725 -0.0550 -0.5281  0.1683
 2344TIP3    H128667   2.167   3.883   7.663 -0.2590  0.1172  0.9226
 2344TIP3    H228668   2.091   3.802   7.766  0.1918 -0.6266  0.6815
 2345TIP3   OH228669   0.509   5.615   7.339  1.0533  0.2805  0.2025
 2345TIP3    H128670   0.549   5.642   7.256  0.7265  2.2931  0.6418
 2345TIP3    H228671   0.547   5.529   7.357 -0.0598 -0.9792 -2.7980
 2346TIP3   OH228672   1.454   2.894   1.313 -0.3621  0.1422 -0.1046
 2346TIP3    H128673   1.527   2.883   1.252 -0.3644  0.5776 -0.1946
 2346TIP3    H228674   1.487   2.954   1.380 -0.6901  0.4836 -0.2448
 2347TIP3   OH228675   3.842   5.423   6.435  0.0063 -0.0497 -0.2558
 2347TIP3    H128676   3.752   5.440   6.408 -1.0965 -1.7096  2.0315
 2347TIP3    H228677   3.852   5.328   6.428  0.1879 -0.3961  3.1807
 2348TIP3   OH228678   2.654   5.638   7.265 -0.8970  0.3099 -0.3986
 2348TIP3    H128679   2.672   5.563   7.207  0.6399  0.5822 -0.3050
 2348TIP3    H228680   2.706   5.621   7.344  1.3735  2.5521 -1.2735
 2349TIP3   OH228681   1.371   0.627   7.280 -0.2683 -0.0407  0.3961
 2349TIP3    H128682   1.293   0.599   7.327 -0.2360 -0.0283  0.4581
 2349TIP3    H228683   1.414   0.688   7.340  0.1981 -0.6507  0.6920
 2350TIP3   OH228684   1.814   2.418   0.379 -0.4621  0.0785  0.3461
 2350TIP3    H128685   1.893   2.366   0.364  1.0916  2.3432  0.1941
 2350TIP3    H228686   1.782   2.439   0.292  2.0037  3.6529  0.0724
 2351TIP3   OH228687   5.422   6.318   7.441  0.2556  0.0161 -0.3329
 2351TIP3    H128688   5.389   6.399   7.401 -1.8223 -0.2928  0.5803
 2351TIP3    H228689   5.416   6.252   7.372  2.0239  0.6164 -1.1002
 2352TIP3   OH228690   5.047   1.582   6.958 -0.2793 -0.3088  0.0834
 2352TIP3    H128691   5.058   1.674   6.980  0.7554  0.2500 -2.4502
 2352TIP3    H228692   4.958   1.575   6.925 -0.7329 -0.4874  1.2887
 2353TIP3   OH228693   5.524   2.515   7.907  0.0841 -0.5804 -0.6714
 2353TIP3    H128694   5.452   2.575   7.886 -0.7032 -1.2113  0.1124
 2353TIP3    H228695   5.495   2.431   7.872  0.8047 -0.6850 -1.0272
 2354TIP3   OH228696   3.834   3.872   8.352 -0.0554 -0.1046 -0.0041
 2354TIP3    H128697   3.858   3.910   8.437  1.5661  0.7987 -0.8157
 2354TIP3    H228698   3.824   3.779   8.370  0.9523 -0.0371  1.0457
 2355TIP3   OH228699   0.911   2.902   8.252 -0.0869  0.0749 -0.3970
 2355TIP3    H128700   0.859   2.838   8.302 -0.4620  0.7065  0.0347
 2355TIP3    H228701   0.902   2.984   8.301  1.5555  0.1455 -0.1363
 2356TIP3   OH228702   0.498   2.522   7.598 -0.0663  0.0385 -0.1644
 2356TIP3    H128703   0.564   2.489   7.537  1.7118  1.7344  0.7492
 2356TIP3    H228704   0.419   2.532   7.544  0.6025 -1.3168 -1.4649
 2357TIP3   OH228705   4.011   6.428   7.299  0.6670 -0.2281 -0.1909
 2357TIP3    H128706   3.941   6.475   7.256 -0.0335  1.1884  2.2999
 2357TIP3    H228707   4.082   6.424   7.235 -0.5784  1.0374 -1.6890
 2358TIP3   OH228708   5.168   1.716   7.770  0.2320 -0.3271  0.2699
 2358TIP3    H128709   5.091   1.742   7.821 -0.7161  0.1381 -1.3448
 2358TIP3    H228710   5.233   1.785   7.788 -0.3721  0.2609  0.2443
 2359TIP3   OH228711   6.130   6.329   0.527 -0.1082  0.1913 -0.3278
 2359TIP3    H128712   6.058   6.270   0.547 -0.0027 -0.5074 -1.8617
 2359TIP3    H228713   6.092   6.417   0.534 -0.3065 -0.0034  1.7971
 2360TIP3   OH228714   1.718   5.917   6.988 -0.0775 -0.0668  0.4038
 2360TIP3    H128715   1.694   5.850   6.923  0.5885 -0.3915  0.4801
 2360TIP3    H228716   1.635   5.960   7.010 -0.6128 -1.2278  0.7591
 2361TIP3   OH228717   4.144   4.111   7.133 -0.4033  0.0218 -0.2438
 2361TIP3    H128718   4.195   4.089   7.055 -1.3303  0.2205 -0.9294
 2361TIP3    H228719   4.207   4.152   7.192 -0.3764  3.8259 -2.5507
 2362TIP3   OH228720   0.892   0.849   6.408 -0.4581  0.0844 -0.1926
 2362TIP3    H128721   0.985   0.863   6.391 -0.6993  0.1635 -1.5963
 2362TIP3    H228722   0.872   0.908   6.481  1.3173 -2.4847  2.5708
 2363TIP3   OH228723   5.096   5.841   0.198  0.3806  0.1992  0.1508
 2363TIP3    H128724   5.016   5.893   0.208  1.3273  1.9273 -0.7320
 2363TIP3    H228725   5.155   5.875   0.266  1.3389  1.0122 -1.0264
 2364TIP3   OH228726   6.680   6.637   0.105  0.3191 -0.5092  0.8487
 2364TIP3    H128727   6.616   6.602   0.044  1.1615 -0.2198 -0.2312
 2364TIP3    H228728   6.759   6.586   0.089  0.3014 -1.0618  2.3736
 2365TIP3   OH228729   0.336   2.643   2.951  0.1052 -0.4230 -0.1994
 2365TIP3    H128730   0.248   2.643   2.913  0.3147  1.6496 -0.8097
 2365TIP3    H228731   0.392   2.612   2.880  0.0590 -0.1744 -0.3441
 2366TIP3   OH228732   3.024   2.431   2.565 -0.7563  0.4145  0.9715
 2366TIP3    H128733   3.117   2.434   2.587 -0.3763  0.7262 -0.5737
 2366TIP3    H228734   2.990   2.517   2.591 -0.3940  0.6519  0.6632
 2367TIP3   OH228735   4.968   1.245   1.150  0.2497 -0.3297  0.8526
 2367TIP3    H128736   5.000   1.183   1.215  0.1090 -1.2049  0.1127
 2367TIP3    H228737   5.011   1.219   1.069 -0.2284  0.2038  0.4155
 2368TIP3   OH228738   2.944   0.174   1.252 -0.1669 -0.9223  0.0432
 2368TIP3    H128739   2.987   0.139   1.174  0.3459  0.4729 -0.3500
 2368TIP3    H228740   2.964   0.111   1.321 -0.7659 -2.2634 -0.9673
 2369TIP3   OH228741   6.615   4.124   1.495  0.0407 -0.0915 -0.4376
 2369TIP3    H128742   6.564   4.043   1.496  1.3292 -0.9860 -1.9328
 2369TIP3    H228743   6.692   4.103   1.442  2.2407  1.0493  2.0518
 2370TIP3   OH228744   4.688   1.514   0.163 -0.3281  0.5713  0.0206
 2370TIP3    H128745   4.623   1.558   0.218 -1.5277 -1.8610  0.6955
 2370TIP3    H228746   4.640   1.490   0.084  0.4593  0.9413 -0.5834
 2371TIP3   OH228747   3.544   5.006   8.460  0.3332  0.0835  0.1338
 2371TIP3    H128748   3.463   4.977   8.417 -0.5567  1.6219  0.6666
 2371TIP3    H228749   3.523   5.005   8.553  0.1691  2.4242  0.1977
 2372TIP3   OH228750   3.196   2.207   0.276  0.5018 -0.0214  0.0562
 2372TIP3    H128751   3.166   2.173   0.360  1.4295 -3.7990 -0.9270
 2372TIP3    H228752   3.120   2.251   0.239 -0.6138 -0.2707  1.9196
 2373TIP3   OH228753   5.273   0.040   1.455  0.4849 -0.2353 -0.1744
 2373TIP3    H128754   5.268   0.062   1.548 -0.2167  0.0536 -0.2758
 2373TIP3    H228755   5.311  -0.048   1.453 -0.0468 -0.4860  0.4184
 2374TIP3   OH228756   0.580   2.273   8.053 -0.1276 -0.5835  0.4023
 2374TIP3    H128757   0.526   2.270   7.974 -0.1626  0.6621  0.3644
 2374TIP3    H228758   0.528   2.322   8.116  0.8580  0.4856  0.4163
 2375TIP3   OH228759   4.124   0.859   1.614  0.2445 -0.1934  0.4755
 2375TIP3    H128760   4.206   0.907   1.606  0.0911  0.2313  1.2969
 2375TIP3    H228761   4.062   0.924   1.647 -0.1416 -0.7828  0.9231
 2376TIP3   OH228762   3.411   6.205   8.359  0.3911 -0.2004 -0.1539
 2376TIP3    H128763   3.374   6.290   8.336  1.2954  0.0059 -0.9067
 2376TIP3    H228764   3.340   6.159   8.403 -0.5698  0.4098 -1.0167
 2377TIP3   OH228765   6.844   2.722   7.982 -0.0032 -0.2392  0.7653
 2377TIP3    H128766   6.939   2.731   7.978  0.0419 -0.3508  1.5704
 2377TIP3    H228767   6.826   2.636   7.943  0.3483 -0.8569  1.9286
 2378TIP3   OH228768   4.708   4.387   7.006  0.1540  0.2826 -0.0010
 2378TIP3    H128769   4.728   4.380   6.912  2.6832  0.4539  0.4459
 2378TIP3    H228770   4.701   4.296   7.035 -0.4287  0.2249 -0.3003
 2379TIP3   OH228771   1.434   3.761   6.608  0.4139 -0.1459  0.4082
 2379TIP3    H128772   1.515   3.737   6.653  0.1903 -0.3270  0.7119
 2379TIP3    H228773   1.463   3.786   6.520  0.7367 -0.7795  0.3272
 2380TIP3   OH228774   1.675   6.288   8.345  0.3649  0.1068 -0.4565
 2380TIP3    H128775   1.701   6.368   8.299 -0.3189  0.2371 -0.6217
 2380TIP3    H228776   1.582   6.279   8.327  0.1501 -0.0068  0.6542
 2381TIP3   OH228777   2.203   5.197   1.265  0.4050  0.2461 -0.8075
 2381TIP3    H128778   2.149   5.256   1.318  0.7666  1.9708 -2.2585
 2381TIP3    H228779   2.206   5.238   1.179  1.2599 -1.5770 -1.6994
 2382TIP3   OH228780   3.823   3.464   1.367  0.0993 -0.4890  0.1968
 2382TIP3    H128781   3.793   3.411   1.441  0.9086 -3.1691 -1.2921
 2382TIP3    H228782   3.912   3.491   1.392 -0.4221  0.5153  1.0819
 2383TIP3   OH228783   4.252   3.198   7.426 -0.3408  0.4082  0.4236
 2383TIP3    H128784   4.272   3.290   7.445  0.5658 -0.2337  3.0191
 2383TIP3    H228785   4.335   3.161   7.397 -0.5472  0.2284  0.0487
 2384TIP3   OH228786   6.326   1.522   0.598  0.6233  0.2270  0.3122
 2384TIP3    H128787   6.363   1.443   0.558 -1.0913 -0.0012 -0.9174
 2384TIP3    H228788   6.395   1.588   0.588  1.2045 -0.5096 -0.7228
 2385TIP3   OH228789   3.362   4.801   7.365 -0.2816  0.1711 -0.3872
 2385TIP3    H128790   3.375   4.828   7.274 -0.1020 -1.0372 -0.7363
 2385TIP3    H228791   3.294   4.733   7.360  0.1873 -0.3635  0.2930
 2386TIP3   OH228792   1.293   6.844   8.313 -0.2550  0.2980  0.3307
 2386TIP3    H128793   1.336   6.860   8.229 -3.1071  0.0166 -1.3235
 2386TIP3    H228794   1.212   6.798   8.290 -1.7120  1.2268  3.1222
 2387TIP3   OH228795   5.398   0.028   0.000 -0.0622 -0.1857 -0.1559
 2387TIP3    H128796   5.392  -0.038  -0.069 -1.6102  1.1101 -1.3350
 2387TIP3    H228797   5.408   0.111  -0.047 -1.2305  0.7391  1.1650
 2388TIP3   OH228798   1.276   0.765   6.769  0.2463 -0.2852  0.2760
 2388TIP3    H128799   1.329   0.821   6.711  1.0933 -0.5257  0.8005
 2388TIP3    H228800   1.312   0.677   6.756  1.7287 -0.0815  2.5230
 2389TIP3   OH228801   0.872   4.315   8.047 -0.2785 -0.3172 -0.4745
 2389TIP3    H128802   0.844   4.406   8.043 -1.0774 -0.5137  0.1370
 2389TIP3    H228803   0.912   4.306   8.134  1.0142 -0.2321 -1.0452
 2390TIP3   OH228804   5.069   2.297   7.033  0.1498  0.1920 -0.2594
 2390TIP3    H128805   5.025   2.304   7.118 -2.0616 -1.9386 -1.1115
 2390TIP3    H228806   5.157   2.330   7.049 -0.5812  1.0485  2.5343
 2391TIP3   OH228807   3.513   1.896   1.522  0.1275 -0.5000 -0.1537
 2391TIP3    H128808   3.491   1.871   1.612  2.7956 -0.9645  0.4430
 2391TIP3    H228809   3.441   1.861   1.469 -2.2323  0.9436  1.8537
 2392TIP3   OH228810   5.719   0.771   2.005 -0.1438  0.1346  0.1143
 2392TIP3    H128811   5.733   0.702   1.940 -0.6497  1.1365 -1.1037
 2392TIP3    H228812   5.681   0.726   2.080 -2.4377 -0.6644 -1.4205
 2393TIP3   OH228813   0.297   1.275   1.281 -0.0089  0.6177  0.3310
 2393TIP3    H128814   0.206   1.263   1.254  0.7764  0.0415 -2.2941
 2393TIP3    H228815   0.329   1.186   1.299  0.5605  0.6093 -0.6746
 2394TIP3   OH228816   0.182   2.211   7.526 -0.1323  0.0478 -0.1082
 2394TIP3    H128817   0.260   2.189   7.577  0.2536  1.8028  0.1335
 2394TIP3    H228818   0.205   2.186   7.436  1.0502  1.2516 -0.1789
 2395TIP3   OH228819   1.423   2.043   8.316 -0.4380 -0.2401 -0.0602
 2395TIP3    H128820   1.387   2.020   8.230  1.4312 -1.2748 -0.6245
 2395TIP3    H228821   1.368   2.114   8.347 -1.7092 -0.4389 -1.7186
 2396TIP3   OH228822   3.238   3.184   8.189 -0.5051  0.1196 -0.5419
 2396TIP3    H128823   3.213   3.262   8.139 -0.1494  0.1600 -0.6637
 2396TIP3    H228824   3.207   3.201   8.278 -1.5757 -0.1577 -0.8468
 2397TIP3   OH228825   5.014   4.921   7.298  0.0600  0.0719  0.5727
 2397TIP3    H128826   4.997   5.015   7.290  0.4548  0.0897 -0.1959
 2397TIP3    H228827   5.072   4.901   7.224 -1.1411 -1.0424 -0.1286
 2398TIP3   OH228828   3.639   5.825   0.723 -0.5504  0.0551  0.1902
 2398TIP3    H128829   3.550   5.852   0.701 -0.0369  1.0478 -0.7409
 2398TIP3    H228830   3.687   5.831   0.640  0.2467 -1.0703  0.5415
 2399TIP3   OH228831   3.051   4.945   1.471 -0.0286 -0.5222  0.0847
 2399TIP3    H128832   3.014   4.975   1.388  1.6001  1.2207 -0.0791
 2399TIP3    H228833   3.119   4.882   1.446 -0.3526 -0.9147  0.1795
 2400TIP3   OH228834   1.431   0.402   0.863 -0.2237  0.7290  0.4439
 2400TIP3    H128835   1.392   0.343   0.927 -0.5420  1.3023  0.7871
 2400TIP3    H228836   1.453   0.481   0.913 -0.1854  1.0611 -0.0868
 2401TIP3   OH228837   3.142   4.497   7.999  0.2575  0.5669 -0.6988
 2401TIP3    H128838   3.056   4.515   7.961  0.3969  2.6109 -0.1738
 2401TIP3    H228839   3.202   4.505   7.925  0.1359  0.4797 -0.8090
 2402TIP3   OH228840   0.069   5.264   2.428  0.4893  0.7088  0.3474
 2402TIP3    H128841   0.017   5.231   2.501  0.0379  2.4505  0.8415
 2402TIP3    H228842   0.149   5.299   2.467  1.6176 -0.9897 -0.3116
 2403TIP3   OH228843   0.820   0.750   8.574  0.1784  0.1472  0.1044
 2403TIP3    H128844   0.755   0.692   8.614 -0.2353  0.2201 -0.4472
 2403TIP3    H228845   0.904   0.715   8.604 -0.1230  0.3836  1.2640
 2404TIP3   OH228846   1.703   1.725   8.274 -0.2682  0.6602  1.0004
 2404TIP3    H128847   1.681   1.767   8.191 -1.3162 -0.0387  0.9027
 2404TIP3    H228848   1.618   1.709   8.316  0.2491  1.1884  2.3090
 2405TIP3   OH228849   1.493   3.195   1.273  0.0416  0.3185  0.2287
 2405TIP3    H128850   1.533   3.137   1.209  1.4764  0.2127  1.1890
 2405TIP3    H228851   1.567   3.236   1.319 -0.9390  0.8049  1.4450
 2406TIP3   OH228852   6.090   1.438   2.199 -0.0416  0.4242  0.1116
 2406TIP3    H128853   5.998   1.454   2.222 -0.6762  0.9268 -2.4823
 2406TIP3    H228854   6.100   1.343   2.206 -0.7035  0.3873  0.6309
 2407TIP3   OH228855   6.668   6.693   6.874  0.0851 -0.2033 -0.1673
 2407TIP3    H128856   6.760   6.719   6.883  0.9802 -3.3442  0.9279
 2407TIP3    H228857   6.657   6.675   6.781  0.7388 -0.2637 -0.2396
 2408TIP3   OH228858   6.249   3.060   1.369 -0.6625 -0.0158  0.1055
 2408TIP3    H128859   6.190   3.135   1.363 -0.9961 -0.3159 -0.4652
 2408TIP3    H228860   6.194   2.984   1.349 -0.2880 -0.3939  0.4874
 2409TIP3   OH228861   0.676   6.336   7.994 -0.4370 -0.6881 -0.8913
 2409TIP3    H128862   0.649   6.313   7.905 -2.6112 -1.6784 -0.0674
 2409TIP3    H228863   0.630   6.272   8.049  1.0786 -0.2736  0.9316
 2410TIP3   OH228864   4.442   2.974   6.966  0.2109 -0.1227 -0.1715
 2410TIP3    H128865   4.395   3.004   6.888  0.3746  0.3944 -0.0757
 2410TIP3    H228866   4.380   2.988   7.038  0.6738  1.0770  0.0353
 2411TIP3   OH228867   2.935   5.865   7.293  0.3300 -0.0157 -0.2792
 2411TIP3    H128868   2.944   5.952   7.253  0.1918 -0.8922 -2.3308
 2411TIP3    H228869   3.002   5.812   7.249 -1.4804 -1.6523 -1.2099
 2412TIP3   OH228870   4.729   1.020   1.405 -0.3126 -0.2779 -0.0747
 2412TIP3    H128871   4.792   0.951   1.426 -0.5309 -0.7331 -0.8804
 2412TIP3    H228872   4.685   0.989   1.325  0.7406  1.5462 -1.4326
 2413TIP3   OH228873   3.210   4.285   6.631 -0.4384  0.7439 -0.7237
 2413TIP3    H128874   3.216   4.380   6.634  0.9278  0.6958 -1.2916
 2413TIP3    H228875   3.298   4.256   6.605 -1.0639 -0.6283 -1.4076
 2414TIP3   OH228876   1.601   3.429   0.617 -0.0822  0.8466  0.2915
 2414TIP3    H128877   1.681   3.435   0.565 -0.3119 -1.0923 -0.3684
 2414TIP3    H228878   1.534   3.396   0.557 -0.6492 -0.3145  1.4870
 2415TIP3   OH228879   2.447   1.742   7.434  0.2204  0.3605  0.4423
 2415TIP3    H128880   2.422   1.827   7.397  0.6100  0.0648 -0.5226
 2415TIP3    H228881   2.365   1.707   7.470 -0.3773  0.2460 -0.9863
 2416TIP3   OH228882   4.316   0.924   0.195  0.7959 -0.4219  0.0480
 2416TIP3    H128883   4.246   0.989   0.192  2.7811  1.7765 -1.2990
 2416TIP3    H228884   4.317   0.894   0.286 -2.3505 -1.1698 -0.0528
 2417TIP3   OH228885   5.398   4.642   8.574 -0.4549 -0.7862  0.1770
 2417TIP3    H128886   5.463   4.705   8.603 -1.1457  0.0202 -0.0046
 2417TIP3    H228887   5.448   4.574   8.529  0.1140  0.6039 -1.3541
 2418TIP3   OH228888   5.970   2.347   2.462  0.5190  0.5794 -0.5814
 2418TIP3    H128889   6.059   2.361   2.493  0.5098 -0.4242 -0.0331
 2418TIP3    H228890   5.915   2.385   2.530  0.5190 -0.4758  0.0351
 2419TIP3   OH228891   6.285   5.723   8.382 -0.3196 -0.2434 -0.3562
 2419TIP3    H128892   6.326   5.692   8.301 -0.8444 -3.1259  0.3650
 2419TIP3    H228893   6.291   5.819   8.377  0.5785 -0.3558 -3.2834
 2420TIP3   OH228894   2.190   2.860   8.190 -0.1531  0.2761  0.0374
 2420TIP3    H128895   2.284   2.838   8.191 -0.1543  0.2573 -0.3977
 2420TIP3    H228896   2.188   2.955   8.194 -0.1410  0.2465  1.3817
 2421TIP3   OH228897   4.666   0.275   7.353 -0.6923 -0.4215  0.0892
 2421TIP3    H128898   4.681   0.233   7.438 -0.2435  0.8550  0.6724
 2421TIP3    H228899   4.744   0.254   7.302  0.0621  0.6370  0.7797
 2422TIP3   OH228900   3.369   2.048   8.355  0.0150  0.3977 -0.1676
 2422TIP3    H128901   3.298   2.053   8.418  0.1358  0.1382 -0.0073
 2422TIP3    H228902   3.360   1.961   8.316  0.7995 -0.0086  0.5189
 2423TIP3   OH228903   5.831   3.886   1.492 -0.1523  0.4382 -0.2265
 2423TIP3    H128904   5.840   3.892   1.397 -0.1039 -1.9341 -0.4327
 2423TIP3    H228905   5.862   3.970   1.524 -1.6285  1.9176 -2.3733
 2424TIP3   OH228906   2.692   4.580   7.567  0.2173  0.0230 -0.2897
 2424TIP3    H128907   2.731   4.493   7.578  0.1007 -0.0691 -0.5889
 2424TIP3    H228908   2.597   4.564   7.573  0.1714  0.0423 -0.9077
 2425TIP3   OH228909   1.201   6.130   1.719  0.1972  0.1965 -0.1311
 2425TIP3    H128910   1.190   6.060   1.783  2.6926 -0.3152 -0.1378
 2425TIP3    H228911   1.184   6.211   1.768  0.8356 -0.2521  0.8560
 2426TIP3   OH228912   2.464   0.381   1.475  0.1225  0.0003 -0.4012
 2426TIP3    H128913   2.403   0.322   1.430  1.1032 -1.2646 -0.1147
 2426TIP3    H228914   2.511   0.425   1.404 -2.1056  2.1654 -0.6840
 2427TIP3   OH228915   4.396   1.555   0.605  0.2757 -0.1958  0.7201
 2427TIP3    H128916   4.461   1.504   0.654 -0.3231 -3.4065 -1.5136
 2427TIP3    H228917   4.325   1.570   0.667  1.2957 -0.4104  1.9816
 2428TIP3   OH228918   2.535   5.220   1.484  0.3576  0.0809  0.2806
 2428TIP3    H128919   2.460   5.207   1.542 -0.1976 -0.7234 -0.5988
 2428TIP3    H228920   2.531   5.312   1.459  0.2423  0.2832  1.0179
 2429TIP3   OH228921   3.482   4.066   1.348 -0.8349  0.7862  0.1205
 2429TIP3    H128922   3.509   3.994   1.291 -0.3141  2.2244 -1.5686
 2429TIP3    H228923   3.517   4.043   1.434 -0.4621 -0.8320 -0.4215
 2430TIP3   OH228924   0.919   0.060   1.093  0.0070  0.3453  0.1259
 2430TIP3    H128925   0.984   0.128   1.109 -0.5008  1.1137 -0.9871
 2430TIP3    H228926   0.836   0.106   1.088 -0.3572 -0.3545 -0.5573
 2431TIP3   OH228927   1.711   4.906   0.689  0.4852  0.1918 -0.3233
 2431TIP3    H128928   1.780   4.971   0.681  0.6779 -0.0425 -0.6005
 2431TIP3    H228929   1.755   4.828   0.723 -0.0579  0.7252  1.6937
 2432TIP3   OH228930   3.347   3.092   2.617 -0.0630  0.7632 -0.0051
 2432TIP3    H128931   3.273   3.148   2.642  1.2891  3.0970 -0.8482
 2432TIP3    H228932   3.374   3.126   2.531  0.4287 -1.7040 -0.9068
 2433TIP3   OH228933   2.174   3.839   8.479  0.1332  0.2241 -0.7350
 2433TIP3    H128934   2.249   3.873   8.527 -0.0245  0.1905 -0.4619
 2433TIP3    H228935   2.200   3.843   8.387  0.5913 -0.0862 -0.6241
 2434TIP3   OH228936   2.310   6.893   1.268 -0.1335 -0.0402 -0.0934
 2434TIP3    H128937   2.293   6.868   1.178  1.5178 -0.5863 -0.2840
 2434TIP3    H228938   2.228   6.873   1.314 -1.0115  0.2862 -1.4532
 2435TIP3   OH228939   6.036   3.055   1.756  0.0043 -0.0619 -0.1404
 2435TIP3    H128940   5.965   3.119   1.747  0.0434  0.8097  3.7133
 2435TIP3    H228941   6.006   2.978   1.709 -2.2219  1.1930 -0.9269
 2436TIP3   OH228942   0.713   3.532   1.218 -0.1669  0.2716 -0.1468
 2436TIP3    H128943   0.739   3.492   1.135 -0.8225 -0.8699  0.1654
 2436TIP3    H228944   0.621   3.507   1.227  0.3006 -0.9900  1.6628
 2437TIP3   OH228945   5.244   1.357   1.903 -0.4977 -0.1637  0.6746
 2437TIP3    H128946   5.179   1.339   1.971 -0.9795  0.1944  0.3133
 2437TIP3    H228947   5.204   1.323   1.822 -0.4260  0.4519  0.3779
 2438TIP3   OH228948   4.872   4.781   8.051 -0.3660  0.0386 -0.0516
 2438TIP3    H128949   4.964   4.772   8.024 -0.3560 -1.3334  0.3714
 2438TIP3    H228950   4.848   4.694   8.082 -0.6656  1.2237  3.4847
 2439TIP3   OH228951   5.073   5.776   8.298 -0.2567  0.5499  0.0124
 2439TIP3    H128952   5.016   5.829   8.355 -2.9125 -0.3566 -1.6353
 2439TIP3    H228953   5.068   5.688   8.335 -1.3234  0.1278 -1.0879
 2440TIP3   OH228954   3.860   4.958   6.557 -0.1564  0.0139  0.9911
 2440TIP3    H128955   3.817   4.961   6.643 -1.5885  0.7119  0.2900
 2440TIP3    H228956   3.841   4.870   6.525 -0.7049  0.1630  0.8849
 2441TIP3   OH228957   6.588   2.579   2.320  0.2563 -0.7355  0.1485
 2441TIP3    H128958   6.647   2.577   2.244  1.0189 -3.1065  0.7298
 2441TIP3    H228959   6.643   2.552   2.394 -1.4356 -2.8172  0.7572
 2442TIP3   OH228960   2.163   0.053   7.768 -0.1172  0.3695  0.3545
 2442TIP3    H128961   2.217   0.127   7.738  0.3692 -1.0482 -2.7006
 2442TIP3    H228962   2.074   0.087   7.768  0.1726  1.1775 -0.2810
 2443TIP3   OH228963   3.167   3.645   6.322  0.2916 -0.3126 -0.1384
 2443TIP3    H128964   3.233   3.590   6.281  1.2511  0.7741 -0.1002
 2443TIP3    H228965   3.217   3.708   6.374 -0.7177  1.1353 -0.8514
 2444TIP3   OH228966   0.091   2.555   1.804  0.0948  0.0712 -0.7530
 2444TIP3    H128967   0.114   2.648   1.799  0.9949 -0.1147 -0.0985
 2444TIP3    H228968  -0.005   2.554   1.794 -0.0239  1.1463  0.1005
 2445TIP3   OH228969   1.384   0.157   6.816  0.0421  0.4983 -0.0545
 2445TIP3    H128970   1.464   0.194   6.854  2.1401 -2.0207 -1.6602
 2445TIP3    H228971   1.384   0.188   6.726  0.4280 -1.1554 -0.6660
 2446TIP3   OH228972   1.430   2.401   0.147 -0.0239  0.3670  0.1864
 2446TIP3    H128973   1.401   2.492   0.159 -0.9938  0.2784 -1.2254
 2446TIP3    H228974   1.371   2.366   0.080  1.4198 -0.8012 -0.5263
 2447TIP3   OH228975   0.663   5.331   1.310  0.1050 -0.2107 -0.6057
 2447TIP3    H128976   0.651   5.327   1.405 -1.4082  1.1145 -0.6978
 2447TIP3    H228977   0.736   5.272   1.292  1.3553  0.5926  1.5445
 2448TIP3   OH228978   3.514   4.287   1.223  0.3312  0.0349  0.3234
 2448TIP3    H128979   3.485   4.219   1.284  2.5320 -2.3366 -1.0319
 2448TIP3    H228980   3.434   4.320   1.183 -0.8536 -1.5785  1.2531
 2449TIP3   OH228981   6.196   5.394   7.562  0.3193 -0.1990  0.1422
 2449TIP3    H128982   6.274   5.406   7.508  0.6860 -1.4874  0.3581
 2449TIP3    H228983   6.211   5.312   7.609 -0.0749  0.7828  2.0668
 2450TIP3   OH228984   1.848   6.695   1.433 -0.6276 -0.4539  0.6804
 2450TIP3    H128985   1.904   6.621   1.411 -0.6928 -0.1923 -0.4420
 2450TIP3    H228986   1.854   6.703   1.528  1.1758 -0.4774  0.5997
 2451TIP3   OH228987   6.819   2.921   7.170 -0.4813 -0.3404 -0.2313
 2451TIP3    H128988   6.835   2.883   7.256 -0.9170  0.1868  0.0897
 2451TIP3    H228989   6.801   3.013   7.188 -0.5545 -0.2238 -0.8893
 2452TIP3   OH228990   3.915   6.399   1.658  0.2015 -0.1992 -0.7537
 2452TIP3    H128991   3.846   6.381   1.722  0.1361  2.5106  0.0791
 2452TIP3    H228992   3.997   6.381   1.705  0.1369  1.2655 -0.0111
 2453TIP3   OH228993   1.412   6.783   0.241 -0.1830  0.0279  0.5303
 2453TIP3    H128994   1.353   6.708   0.255  0.4790 -0.2445  2.0812
 2453TIP3    H228995   1.371   6.833   0.170 -1.2429 -1.1825  0.2457
 2454TIP3   OH228996   0.216   2.551   7.449  0.9715 -0.5381 -0.2849
 2454TIP3    H128997   0.231   2.466   7.407  1.6471 -0.7198  0.3036
 2454TIP3    H228998   0.192   2.609   7.377 -0.0523 -1.3526 -0.6195
 2455TIP3   OH228999   2.457   0.444   0.079  0.2929 -0.6019  0.2037
 2455TIP3    H129000   2.468   0.440   0.174  2.3162 -0.3197  0.0285
 2455TIP3    H229001   2.488   0.532   0.055 -1.1475 -0.2920 -0.6354
 2456TIP3   OH229002   5.672   0.650   0.248 -0.3648 -0.1505  0.4259
 2456TIP3    H129003   5.692   0.558   0.268 -0.6647 -0.1006  0.9774
 2456TIP3    H229004   5.647   0.649   0.155 -0.3429 -0.6217  0.4194
 2457TIP3   OH229005   2.856   2.981   6.427  0.4300 -0.2364  0.4029
 2457TIP3    H129006   2.924   3.043   6.401  0.6151 -0.3846  0.5231
 2457TIP3    H229007   2.894   2.934   6.501 -0.2811  0.5307  1.2883
 2458TIP3   OH229008   6.370   5.396   0.135  0.0168 -0.5735  0.5059
 2458TIP3    H129009   6.327   5.476   0.167  0.8256  0.0589  0.0609
 2458TIP3    H229010   6.307   5.326   0.154  0.0005 -0.0995  2.4844
 2459TIP3   OH229011   3.355   5.799   1.163 -0.2675 -0.4471  0.3683
 2459TIP3    H129012   3.287   5.734   1.147  1.0668 -1.3852 -1.8972
 2459TIP3    H229013   3.393   5.774   1.247 -1.2432 -1.2104  0.6012
 2460TIP3   OH229014   6.899   6.079   7.635 -0.7061  0.6848 -0.4536
 2460TIP3    H129015   6.814   6.072   7.593 -0.8244  1.2134 -0.3135
 2460TIP3    H229016   6.963   6.065   7.565 -0.9011  1.3753 -0.7781
 2461TIP3   OH229017   2.382   5.421   6.526 -0.6984 -0.5486 -0.1816
 2461TIP3    H129018   2.291   5.390   6.522 -0.2263 -2.1380  0.5402
 2461TIP3    H229019   2.378   5.501   6.578 -2.0446  1.0541 -2.5456
 2462TIP3   OH229020   4.667   5.239   0.065 -0.4790 -0.5415 -0.3514
 2462TIP3    H129021   4.733   5.177   0.034 -0.5148 -1.0133  0.4702
 2462TIP3    H229022   4.584   5.191   0.057 -0.6240 -0.2488 -0.6142
 2463TIP3   OH229023   3.559   2.141   1.425 -0.0628  0.4159  0.6502
 2463TIP3    H129024   3.505   2.193   1.485 -0.0129 -1.3435  2.3257
 2463TIP3    H229025   3.521   2.053   1.429 -0.3270  0.3152 -2.3170
 2464TIP3   OH229026   2.828   1.258   1.386  0.2568  0.2420 -0.4032
 2464TIP3    H129027   2.848   1.178   1.435  0.5120  1.2484  1.1993
 2464TIP3    H229028   2.803   1.322   1.453 -1.4029  1.1098 -1.7645
 2465TIP3   OH229029   4.178   1.141   8.498  0.0870  0.5251  0.0938
 2465TIP3    H129030   4.267   1.177   8.494 -0.0079  0.6739 -2.9310
 2465TIP3    H229031   4.190   1.046   8.490 -0.0165  0.6569 -2.3135
 2466TIP3   OH229032   3.551   1.278   7.025  0.2533  0.4761  0.0410
 2466TIP3    H129033   3.488   1.209   7.043 -0.2327  0.7077 -0.7248
 2466TIP3    H229034   3.636   1.234   7.024  0.1958  0.2636  1.7088
 2467TIP3   OH229035   1.773   2.376   1.564 -0.8078 -0.0000 -0.6343
 2467TIP3    H129036   1.718   2.328   1.501 -1.6468 -0.9744  0.7734
 2467TIP3    H229037   1.715   2.392   1.639  0.4682  0.0684  0.3795
 2468TIP3   OH229038   6.192   2.486   0.314  0.1741  0.1843 -0.1300
 2468TIP3    H129039   6.123   2.431   0.352  0.6005  1.3229  2.5576
 2468TIP3    H229040   6.257   2.424   0.281  0.9491 -1.1184  3.3618
 2469TIP3   OH229041   4.852   4.196   7.726  0.5532 -0.2164  0.4028
 2469TIP3    H129042   4.895   4.111   7.711  0.1735 -0.2371 -0.6550
 2469TIP3    H229043   4.760   4.181   7.704  0.5462  0.5484 -0.1417
 2470TIP3   OH229044   5.208   4.823   0.897 -0.2418  0.0235  0.4282
 2470TIP3    H129045   5.290   4.827   0.848  0.0343  0.4641  0.9098
 2470TIP3    H229046   5.163   4.904   0.875 -0.8729 -0.5282 -0.3702
 2471TIP3   OH229047   2.998   1.654   1.477 -0.1900  0.2229  0.4414
 2471TIP3    H129048   2.957   1.739   1.491  2.3186  1.9506 -1.7473
 2471TIP3    H229049   2.970   1.628   1.389  1.6576  0.4573 -0.2573
 2472TIP3   OH229050   2.397   3.262   0.453 -0.4004 -0.4916  0.0557
 2472TIP3    H129051   2.454   3.298   0.521 -2.4653  2.9992  0.1761
 2472TIP3    H229052   2.331   3.212   0.501  1.1085 -2.6200  0.0711
 2473TIP3   OH229053   5.725   3.150   7.943  0.0556 -0.4652 -0.0567
 2473TIP3    H129054   5.738   3.212   7.871  0.4327 -0.0897  0.3296
 2473TIP3    H229055   5.640   3.174   7.979 -0.0127 -0.4772 -0.2082
 2474TIP3   OH229056   4.664   6.455   1.193  0.4666 -0.3277 -0.0424
 2474TIP3    H129057   4.747   6.417   1.165  0.9709  0.7421 -0.0647
 2474TIP3    H229058   4.627   6.493   1.113 -0.8427 -2.1714 -0.3699
 2475TIP3   OH229059   0.436   5.063   7.690  0.5517  0.0990  0.3646
 2475TIP3    H129060   0.513   5.073   7.747  1.0208  1.7981 -0.5178
 2475TIP3    H229061   0.472   5.060   7.602 -0.2758 -1.2239  0.0395
 2476TIP3   OH229062   0.436   0.046   7.404 -0.6900  0.0438  0.7728
 2476TIP3    H129063   0.361   0.027   7.348 -0.3026  0.9802 -0.1012
 2476TIP3    H229064   0.444  -0.030   7.462 -1.1695 -0.8984 -0.3753
 2477TIP3   OH229065   4.057   1.771   7.180 -0.2459  0.0602  0.6258
 2477TIP3    H129066   4.004   1.777   7.101 -1.2084 -1.1624  1.1437
 2477TIP3    H229067   4.124   1.839   7.169 -1.0018  0.6323 -0.7294
 2478TIP3   OH229068   2.560   5.410   0.750 -0.1307  0.1283 -0.0379
 2478TIP3    H129069   2.582   5.451   0.834  0.4685 -0.3966  0.0635
 2478TIP3    H229070   2.605   5.465   0.685  1.3943 -0.8357  0.1554
 2479TIP3   OH229071   6.034   3.352   7.037  0.5859  0.0570  0.0445
 2479TIP3    H129072   6.108   3.310   7.082 -0.6288 -1.2292  0.9169
 2479TIP3    H229073   6.005   3.419   7.098 -0.8728 -1.4912  1.1568
 2480TIP3   OH229074   6.239   5.571   6.352 -0.3709 -0.0508 -0.1097
 2480TIP3    H129075   6.304   5.568   6.422 -0.2703 -3.8764 -0.1623
 2480TIP3    H229076   6.203   5.660   6.356  2.3051  1.0771  2.2315
 2481TIP3   OH229077   6.298   6.006   8.286  0.4398  0.2524 -0.1517
 2481TIP3    H129078   6.242   6.049   8.351 -0.3719  0.6746 -1.1027
 2481TIP3    H229079   6.289   6.059   8.208  0.2118 -1.0751 -1.0569
 2482TIP3   OH229080   3.450   3.641   8.469  0.0544  0.4288 -0.2824
 2482TIP3    H129081   3.416   3.703   8.404 -1.1845 -0.6471 -0.6985
 2482TIP3    H229082   3.372   3.610   8.515  0.9049  1.1943  1.8045
 2483TIP3   OH229083   3.988   3.437   7.994 -0.4939 -0.1362  0.5428
 2483TIP3    H129084   4.018   3.350   8.020 -1.1532 -0.5013  0.1200
 2483TIP3    H229085   3.916   3.420   7.933 -1.6443  0.6820  1.6242
 2484TIP3   OH229086   5.510   5.004   7.164 -0.1938  0.1905 -0.2608
 2484TIP3    H129087   5.487   5.080   7.110 -0.3878  0.7905  0.6424
 2484TIP3    H229088   5.438   4.997   7.227  0.3185 -0.1387  0.2966
 2485TIP3   OH229089   2.871   1.865   7.777 -0.2755  0.0986 -0.2068
 2485TIP3    H129090   2.937   1.886   7.712  0.5155  1.6463  1.0338
 2485TIP3    H229091   2.797   1.922   7.757 -0.8650 -0.9127 -0.9822
 2486TIP3   OH229092   3.964   4.513   8.606 -0.7750 -0.1058  0.5047
 2486TIP3    H129093   3.917   4.435   8.577  0.6651 -0.9813  0.4381
 2486TIP3    H229094   3.991   4.493   8.696  0.6726 -0.2312  0.0731
 2487TIP3   OH229095   3.920   2.651   2.145 -0.4431  0.0656 -0.4506
 2487TIP3    H129096   3.992   2.618   2.199  0.3275 -0.2173 -1.6107
 2487TIP3    H229097   3.844   2.602   2.174 -0.2152  0.4664  0.9009
 2488TIP3   OH229098   0.597   0.073   8.131  0.3151 -0.0543 -0.0310
 2488TIP3    H129099   0.657   0.116   8.192 -1.9779  1.9762  0.9559
 2488TIP3    H229100   0.607   0.122   8.050  0.0127  0.2785  0.1300
 2489TIP3   OH229101   4.108   3.924   7.861  0.0942  0.1649 -0.5069
 2489TIP3    H129102   4.194   3.886   7.876  0.2760  0.3236 -1.1183
 2489TIP3    H229103   4.050   3.876   7.920  1.2314  2.8773  3.1893
 2490TIP3   OH229104   4.292   1.857   0.462  0.1979  0.0970  0.1118
 2490TIP3    H129105   4.333   1.940   0.487  0.3501 -0.2058  0.8910
 2490TIP3    H229106   4.199   1.878   0.453  0.1369  0.2130  0.9659
 2491TIP3   OH229107   5.908   3.425   0.000  0.0758  0.4554  0.4355
 2491TIP3    H129108   5.986   3.420  -0.055  0.1565  0.7531  0.5180
 2491TIP3    H229109   5.941   3.457   0.084 -0.5045  3.3831 -0.3462
 2492TIP3   OH229110   6.581   0.477   7.223  0.0043 -0.2820  0.3201
 2492TIP3    H129111   6.499   0.472   7.272  0.0465 -0.1931  0.3993
 2492TIP3    H229112   6.600   0.571   7.218  1.6872 -0.4019  2.8978
 2493TIP3   OH229113   3.368   0.354   7.096  0.4311  0.4073  0.0933
 2493TIP3    H129114   3.339   0.348   7.005 -1.4432 -0.0874  0.6811
 2493TIP3    H229115   3.344   0.270   7.135  1.0461  0.6766  1.0977
 2494TIP3   OH229116   6.232   5.482   8.094 -0.5351  0.5589 -0.0284
 2494TIP3    H129117   6.201   5.567   8.062 -0.4768  0.8446  0.6619
 2494TIP3    H229118   6.289   5.449   8.024 -2.1543  0.1457 -1.2174
 2495TIP3   OH229119   0.653   6.798   1.472  0.3927 -0.1345  0.3998
 2495TIP3    H129120   0.659   6.703   1.466  1.4865 -0.0222 -0.7337
 2495TIP3    H229121   0.735   6.830   1.434 -0.2474  1.2734  0.1145
 2496TIP3   OH229122   5.445   0.953   8.127 -0.1358  0.7873 -0.1803
 2496TIP3    H129123   5.433   0.918   8.215  0.4962  0.6780 -0.1292
 2496TIP3    H229124   5.441   1.048   8.138  3.0553  0.9565  0.5230
 2497TIP3   OH229125   5.960   3.504   7.466 -0.7104 -0.2734  0.6012
 2497TIP3    H129126   6.039   3.451   7.477 -1.4281 -1.5722 -0.2515
 2497TIP3    H229127   5.978   3.557   7.389 -0.2304  0.2800  1.0874
 2498TIP3   OH229128   3.432   6.428   7.509 -0.4464 -0.8173 -0.3071
 2498TIP3    H129129   3.505   6.478   7.471  0.3669 -0.9342  1.0408
 2498TIP3    H229130   3.411   6.363   7.442  0.1229 -0.2413 -1.0697
 2499TIP3   OH229131   1.877   6.642   7.301  0.1223 -0.0278  0.7661
 2499TIP3    H129132   1.900   6.552   7.322  0.5013 -0.2802 -0.5944
 2499TIP3    H229133   1.955   6.678   7.259  0.0178  0.9759  1.4003
 2500TIP3   OH229134   2.276   6.139   1.975  0.1472  0.1830  0.0511
 2500TIP3    H129135   2.237   6.147   1.888  0.0337  0.7820  0.1522
 2500TIP3    H229136   2.361   6.183   1.967  0.7608 -1.0000 -0.1348
 2501TIP3   OH229137   4.170   3.636   6.632 -0.0789 -0.4706  0.1483
 2501TIP3    H129138   4.131   3.719   6.660  0.0874  0.0828 -1.1951
 2501TIP3    H229139   4.114   3.606   6.561  1.3717 -0.1508 -1.1692
 2502TIP3   OH229140   1.552   3.998   0.298 -0.4453 -0.2666  0.6045
 2502TIP3    H129141   1.639   3.957   0.300 -0.1961 -0.1399 -2.3813
 2502TIP3    H229142   1.493   3.927   0.273 -1.0383 -0.1130  1.5505
 2503TIP3   OH229143   1.264   0.606   7.039 -0.6357  0.3571 -0.0242
 2503TIP3    H129144   1.348   0.595   6.995 -1.3282 -1.5161 -0.9740
 2503TIP3    H229145   1.288   0.626   7.130  0.8598 -1.4095  0.0302
 2504TIP3   OH229146   3.448   3.878   1.996  0.2600 -0.5194  0.1649
 2504TIP3    H129147   3.504   3.827   2.055  1.3161  0.6188  0.1843
 2504TIP3    H229148   3.509   3.934   1.947 -0.8519  0.6398  0.0560
 2505TIP3   OH229149   0.192   5.893   1.214  0.0443 -0.6151 -0.2257
 2505TIP3    H129150   0.170   5.872   1.305 -0.7843 -0.9317 -0.4920
 2505TIP3    H229151   0.197   5.809   1.170  0.1097 -0.4460 -0.5445
 2506TIP3   OH229152   3.191   4.388   8.245 -0.4443 -0.0624 -0.1493
 2506TIP3    H129153   3.124   4.436   8.294  1.8361  2.3459  0.8349
 2506TIP3    H229154   3.186   4.424   8.156  0.5488  1.3060  0.3225
 2507TIP3   OH229155   3.181   3.171   0.122  0.6503 -0.2157  0.2784
 2507TIP3    H129156   3.266   3.199   0.155  0.1173  0.3531  1.2225
 2507TIP3    H229157   3.118   3.229   0.165 -0.2697 -1.0729  0.1266
 2508TIP3   OH229158   0.377   0.696   7.031 -0.4528  0.0853  0.2326
 2508TIP3    H129159   0.317   0.627   7.003  1.2473 -1.9340  1.2653
 2508TIP3    H229160   0.325   0.776   7.028 -2.1826 -1.0122 -2.1861
 2509TIP3   OH229161   3.882   1.445   7.491 -0.3604  0.4285 -0.6715
 2509TIP3    H129162   3.818   1.488   7.547 -0.4713 -0.4466 -0.0970
 2509TIP3    H229163   3.874   1.489   7.407 -2.1561 -0.0414 -0.7960
 2510TIP3   OH229164   6.769   5.696   1.251 -0.4033  0.1393  0.2819
 2510TIP3    H129165   6.674   5.700   1.247 -0.5779 -0.2530  2.7709
 2510TIP3    H229166   6.797   5.786   1.265 -0.3885  0.2503 -0.4220
 2511TIP3   OH229167   6.770   0.934   0.350 -0.1958 -0.0793 -0.0043
 2511TIP3    H129168   6.704   0.871   0.379 -1.4868  1.4035  0.3908
 2511TIP3    H229169   6.823   0.951   0.427 -0.3508 -0.0834  0.1036
 2512TIP3   OH229170   1.730   2.719   1.400  0.0463  0.4704 -0.7575
 2512TIP3    H129171   1.771   2.698   1.485  1.8761 -1.7970 -2.0678
 2512TIP3    H229172   1.759   2.808   1.381  2.0981 -0.0381 -0.2770
 2513TIP3   OH229173   0.670   5.095   7.803  0.2118 -0.0360 -0.1121
 2513TIP3    H129174   0.763   5.119   7.804  0.1695  0.1598 -0.6685
 2513TIP3    H229175   0.638   5.118   7.890  0.5011  0.6306 -0.1762
 2514TIP3   OH229176   4.025   6.211   7.859 -0.4547  0.9007  0.6751
 2514TIP3    H129177   4.093   6.254   7.807  0.5305 -0.6157  0.6357
 2514TIP3    H229178   3.954   6.274   7.862  0.2490  1.8303 -0.8243
 2515TIP3   OH229179   1.198   3.878   0.654 -0.4213  0.2626 -0.4088
 2515TIP3    H129180   1.234   3.967   0.647  1.7141 -0.6259 -2.0247
 2515TIP3    H229181   1.213   3.854   0.745 -2.9947  2.2316  0.6632
 2516TIP3   OH229182   0.717   1.115   0.308 -0.6781 -0.1371  0.4319
 2516TIP3    H129183   0.749   1.205   0.307 -0.0317 -0.3743 -0.1665
 2516TIP3    H229184   0.749   1.076   0.227 -0.4955 -1.0728  0.9389
 2517TIP3   OH229185   5.693   5.610   0.959  0.8304 -0.0484 -1.2025
 2517TIP3    H129186   5.694   5.661   1.040  2.3521  0.1566 -1.3113
 2517TIP3    H229187   5.675   5.520   0.987  1.6944 -0.0437 -0.5822
 2518TIP3   OH229188   1.425   0.804   1.889  0.0295 -0.5913 -0.0622
 2518TIP3    H129189   1.473   0.731   1.928  0.0509 -0.8195 -0.5167
 2518TIP3    H229190   1.490   0.851   1.838 -0.0488 -0.4164 -0.0011
 2519TIP3   OH229191   6.478   1.066   8.165  0.1435 -0.4743 -0.0361
 2519TIP3    H129192   6.402   1.053   8.222 -1.1392  0.7993 -1.3612
 2519TIP3    H229193   6.534   1.127   8.213  0.2621 -1.2598  0.8613
 2520TIP3   OH229194   2.131   2.668   0.398  0.1803 -0.2410  0.1044
 2520TIP3    H129195   2.071   2.738   0.373 -3.0762 -2.3189  1.4100
 2520TIP3    H229196   2.139   2.614   0.320  0.4075  0.0679 -0.0874
 2521TIP3   OH229197   1.744   0.624   6.870 -0.2990  0.0658  0.2733
 2521TIP3    H129198   1.752   0.643   6.777 -0.1717  1.4531  0.5570
 2521TIP3    H229199   1.799   0.546   6.883  0.6980  0.6012 -0.5732
 2522TIP3   OH229200   4.826   0.930   1.792  0.0009  0.7257  0.6990
 2522TIP3    H129201   4.893   0.907   1.727 -0.7673 -1.1457  0.4930
 2522TIP3    H229202   4.858   0.891   1.873 -0.8952 -0.3515  0.5565
 2523TIP3   OH229203   2.935   5.436   6.879 -0.1823  0.2157 -0.0851
 2523TIP3    H129204   3.007   5.439   6.815  0.1239 -1.4094  0.1328
 2523TIP3    H229205   2.864   5.390   6.834 -0.2930 -0.1181  0.4134
 2524TIP3   OH229206   3.213   6.118   7.352  0.1787 -0.1645  0.0087
 2524TIP3    H129207   3.276   6.188   7.333  0.2250 -0.2529 -0.1630
 2524TIP3    H229208   3.251   6.040   7.312 -0.4788 -0.0397 -0.9105
 2525TIP3   OH229209   4.461   3.490   0.575  0.1446  0.2267  0.3224
 2525TIP3    H129210   4.481   3.437   0.652 -1.7652 -0.0223  0.6744
 2525TIP3    H229211   4.409   3.433   0.519 -1.6918  1.5710  0.5636
 2526TIP3   OH229212   5.025   1.325   2.076  0.4203  0.3883  0.0841
 2526TIP3    H129213   4.995   1.237   2.097  2.1950 -0.2629  0.0570
 2526TIP3    H229214   4.988   1.380   2.145 -1.0499 -0.3018 -0.1333
 2527TIP3   OH229215   3.567   2.797   6.870  0.0797  0.3247  0.6100
 2527TIP3    H129216   3.503   2.868   6.874 -2.0475 -1.4985  0.9067
 2527TIP3    H229217   3.569   2.760   6.959  1.6716  0.3988  0.6451
 2528TIP3   OH229218   4.851   5.395   6.886 -0.1026 -0.2129  0.0991
 2528TIP3    H129219   4.918   5.351   6.938  1.7813  1.2492 -0.9595
 2528TIP3    H229220   4.866   5.365   6.796 -0.0434  1.0906 -0.3399
 2529TIP3   OH229221   4.282   5.693   1.906 -0.0338 -0.0814  0.1635
 2529TIP3    H129222   4.189   5.714   1.908 -0.5703 -2.1431  2.7265
 2529TIP3    H229223   4.295   5.647   1.823 -0.8292  1.7803 -1.0625
 2530TIP3   OH229224   4.255   2.858   7.983 -0.0822 -0.1654 -0.6261
 2530TIP3    H129225   4.215   2.905   8.057  1.2932 -1.0746  0.7636
 2530TIP3    H229226   4.261   2.924   7.914  0.4224  1.3344  0.7602
 2531TIP3   OH229227   1.209   2.322   8.231 -0.1050  0.1448  0.5181
 2531TIP3    H129228   1.267   2.323   8.155 -2.1657 -0.2896 -1.1628
 2531TIP3    H229229   1.141   2.386   8.210 -1.8775 -1.5037  0.9805
 2532TIP3   OH229230   5.202   5.346   8.221  0.1596 -0.8124  0.5320
 2532TIP3    H129231   5.190   5.256   8.253 -1.0801 -0.5894  0.7536
 2532TIP3    H229232   5.198   5.400   8.300  1.9672 -0.6094  0.5355
 2533TIP3   OH229233   4.567   4.951   8.159 -0.6906 -0.1908  0.4341
 2533TIP3    H129234   4.528   4.894   8.225 -2.7148  0.0274 -0.4823
 2533TIP3    H229235   4.531   4.920   8.076 -0.7760  1.5375 -0.2229
 2534TIP3   OH229236   1.540   3.542   8.212  0.4909 -0.3815  0.1459
 2534TIP3    H129237   1.534   3.463   8.158  0.0047  0.1845 -0.6382
 2534TIP3    H229238   1.606   3.596   8.169  3.1071 -1.6000  2.3393
 2535TIP3   OH229239   1.128   2.358   1.573  0.1050  0.7293 -0.2080
 2535TIP3    H129240   1.060   2.426   1.569 -0.7690 -0.1673 -1.3479
 2535TIP3    H229241   1.117   2.318   1.659 -0.4918  0.9274 -0.1848
 2536TIP3   OH229242   0.882   2.702   0.725 -0.0784  0.0722  0.3538
 2536TIP3    H129243   0.809   2.646   0.699  0.1483  0.4869 -1.3096
 2536TIP3    H229244   0.841   2.784   0.752 -0.3893 -0.7227  2.4671
 2537TIP3   OH229245   2.263   3.566   0.997 -0.0414 -0.3329 -0.7565
 2537TIP3    H129246   2.310   3.629   0.943  1.3500  0.3188  1.1021
 2537TIP3    H229247   2.171   3.590   0.988  0.2289  0.2516 -2.1635
 2538TIP3   OH229248   6.834   6.285   0.453  0.3351  0.0107 -0.2937
 2538TIP3    H129249   6.783   6.218   0.409  0.2031  0.3851 -0.7234
 2538TIP3    H229250   6.879   6.332   0.381 -2.0476  2.4551 -0.3438
 2539TIP3   OH229251   3.508   1.389   0.948 -0.0390 -0.4713  0.2133
 2539TIP3    H129252   3.555   1.407   1.029  0.3187  0.2565 -0.1450
 2539TIP3    H229253   3.417   1.379   0.975  0.1074 -0.4406  0.7296
 2540TIP3   OH229254   3.764   0.713   1.814 -0.3960 -0.2847 -0.0431
 2540TIP3    H129255   3.763   0.767   1.735  1.4518  0.0102  0.1138
 2540TIP3    H229256   3.671   0.703   1.837 -0.8622  1.2707 -1.1135
 2541TIP3   OH229257   5.660   1.972   7.513 -0.4340  0.0041  0.0768
 2541TIP3    H129258   5.640   1.916   7.438  0.1608 -0.0723 -0.0301
 2541TIP3    H229259   5.696   1.912   7.579 -1.1136  0.0426  0.4931
 2542TIP3   OH229260   5.316   5.166   7.607  0.6512 -0.3637  0.7177
 2542TIP3    H129261   5.235   5.209   7.635  0.8580 -0.3405  1.2746
 2542TIP3    H229262   5.385   5.231   7.621  0.6637 -0.0538 -0.6039
 2543TIP3   OH229263   6.811   5.412   6.777 -0.1162 -0.2802  0.2075
 2543TIP3    H129264   6.742   5.396   6.712  1.1071 -0.7664 -0.9998
 2543TIP3    H229265   6.797   5.503   6.804 -2.7370 -1.0365  1.8769
 2544TIP3   OH229266   5.306   5.991   0.344  0.4976 -0.2219 -0.4487
 2544TIP3    H129267   5.372   6.036   0.292  0.7269 -0.8846 -0.7405
 2544TIP3    H229268   5.353   5.918   0.384  0.1507 -0.1626  0.0835
 2545TIP3   OH229269   0.946   5.092   7.815  0.2860  0.3637  0.3152
 2545TIP3    H129270   0.916   5.062   7.729 -1.7327  1.2034  0.6577
 2545TIP3    H229271   1.041   5.091   7.810  0.2427  1.6459 -2.3863
 2546TIP3   OH229272   1.572   1.977   6.974  0.2907 -0.2928 -0.2750
 2546TIP3    H129273   1.586   1.967   7.068 -1.4259 -0.8865 -0.0529
 2546TIP3    H229274   1.598   2.067   6.956 -0.6719  0.2883  1.0521
 2547TIP3   OH229275   6.215   5.743   1.549 -0.1281 -0.0342 -0.7815
 2547TIP3    H129276   6.259   5.826   1.529  2.2685 -0.4925  1.9244
 2547TIP3    H229277   6.188   5.752   1.641  1.7851 -2.7914  0.1710
 2548TIP3   OH229278   4.154   5.461   1.531  0.3956 -0.4167  0.0736
 2548TIP3    H129279   4.211   5.405   1.478  1.6559  1.4895 -0.7048
 2548TIP3    H229280   4.169   5.432   1.621  0.5313 -1.7233 -0.3518
 2549TIP3   OH229281   4.936   0.182   1.877  0.3568 -0.0640  0.3716
 2549TIP3    H129282   4.985   0.264   1.870 -0.7253  0.5724  0.0732
 2549TIP3    H229283   4.947   0.140   1.792  0.1224  0.2381  0.1885
 2550TIP3   OH229284   6.411   4.751   2.022 -0.0148 -0.1712 -0.1155
 2550TIP3    H129285   6.357   4.755   2.101 -0.9527 -2.3137 -0.5697
 2550TIP3    H229286   6.407   4.839   1.985 -1.5629  0.2349  0.9413
 2551TIP3   OH229287   2.246   1.116   1.987  0.3060 -0.8110  0.1463
 2551TIP3    H129288   2.270   1.025   2.005 -1.9489 -1.7173 -0.9324
 2551TIP3    H229289   2.152   1.120   2.005  0.6763  1.8478  1.9863
 2552TIP3   OH229290   2.468   4.005   7.572 -0.2126  0.1532 -0.3547
 2552TIP3    H129291   2.530   3.955   7.625  1.5897  1.5238 -1.0401
 2552TIP3    H229292   2.477   3.967   7.484 -1.2410 -0.3940 -0.2379
 2553TIP3   OH229293   2.900   1.554   8.057  0.0518  0.4357  0.5847
 2553TIP3    H129294   2.901   1.636   8.106 -1.6015  1.2081 -0.5580
 2553TIP3    H229295   2.836   1.569   7.987  0.8170 -1.3164 -0.5680
 2554TIP3   OH229296   3.757   4.971   1.420 -0.5824 -0.0520 -0.5952
 2554TIP3    H129297   3.781   4.891   1.466  2.3108  1.6942  1.2578
 2554TIP3    H229298   3.756   4.947   1.328 -1.0196 -2.4355 -0.0377
 2555TIP3   OH229299   6.614   1.385   0.832  0.8597  0.4313 -0.1937
 2555TIP3    H129300   6.649   1.434   0.757  1.7497 -0.5661 -0.4586
 2555TIP3    H229301   6.647   1.431   0.909 -1.4457  2.4937 -0.3008
 2556TIP3   OH229302   1.861   6.257   0.516 -0.2614 -0.0472  0.1928
 2556TIP3    H129303   1.775   6.282   0.550 -0.5178  0.3879 -0.7398
 2556TIP3    H229304   1.852   6.166   0.490 -0.6209  0.1599 -0.4329
 2557TIP3   OH229305   3.948   0.171   6.667 -0.7356 -0.6179  0.3268
 2557TIP3    H129306   4.011   0.241   6.680 -0.3126 -1.0620  0.6784
 2557TIP3    H229307   3.863   0.210   6.689 -0.6225  0.0564 -0.4152
 2558TIP3   OH229308   6.924   3.023   1.600 -0.7299  0.3278  0.2885
 2558TIP3    H129309   7.002   3.078   1.594  0.0817 -0.9122 -1.7688
 2558TIP3    H229310   6.868   3.053   1.528 -1.1111 -0.2615  0.3332
 2559TIP3   OH229311   5.433   1.413   0.515  0.2905 -0.6319  0.0407
 2559TIP3    H129312   5.452   1.402   0.609 -2.0815  2.1563  0.9627
 2559TIP3    H229313   5.518   1.436   0.476  1.0560 -0.3761  1.7645
 2560TIP3   OH229314   3.839   3.991   7.493 -0.3810 -0.5531 -0.8125
 2560TIP3    H129315   3.835   4.080   7.527 -1.8199 -0.2032 -1.7879
 2560TIP3    H229316   3.929   3.963   7.509 -0.2145  0.6500  0.5356
 2561TIP3   OH229317   0.828   2.257   8.137 -0.3830 -0.4548  0.3981
 2561TIP3    H129318   0.741   2.257   8.096 -0.8192 -2.0421  1.2455
 2561TIP3    H229319   0.831   2.339   8.187 -0.8890  0.2094 -0.6308
 2562TIP3   OH229320   0.650   1.582   1.274 -0.2098  0.8072 -0.0980
 2562TIP3    H129321   0.615   1.525   1.342  1.7867  0.1981  0.4888
 2562TIP3    H229322   0.714   1.637   1.318  1.4494  0.1072 -1.4996
 2563TIP3   OH229323   1.585   6.758   8.060  0.4996 -0.2652  0.3406
 2563TIP3    H129324   1.616   6.693   7.997  0.7065 -1.0042  1.1876
 2563TIP3    H229325   1.660   6.815   8.075  0.6745 -0.5296  0.4710
 2564TIP3   OH229326   6.586   2.893   2.296 -0.4612 -0.0934 -0.4519
 2564TIP3    H129327   6.520   2.824   2.290  0.7250 -1.1807 -1.6942
 2564TIP3    H229328   6.634   2.874   2.377  0.6447 -1.5224 -1.3889
 2565TIP3   OH229329   3.103   2.913   0.067 -0.7095  0.2764 -0.1448
 2565TIP3    H129330   3.140   2.994   0.101  0.6912 -0.5124  0.2801
 2565TIP3    H229331   3.091   2.858   0.144 -1.3298 -0.0612 -0.4719
 2566TIP3   OH229332   3.286   4.606   7.782  0.4401 -0.1159  0.0814
 2566TIP3    H129333   3.327   4.521   7.765  0.5352  0.2161 -1.6136
 2566TIP3    H229334   3.330   4.665   7.720 -0.6083  0.8557  0.2408
 2567TIP3   OH229335   6.149   3.390   8.479  0.1947 -0.3666  0.5452
 2567TIP3    H129336   6.206   3.339   8.535  1.4968  0.9418  0.4677
 2567TIP3    H229337   6.177   3.481   8.492  0.3689  0.0080 -1.9969
 2568TIP3   OH229338   2.707   4.821   7.007 -0.3411 -0.1683  0.3291
 2568TIP3    H129339   2.690   4.756   6.939 -2.1041 -0.1847  0.7370
 2568TIP3    H229340   2.791   4.860   6.982  0.9571 -2.7835  0.2357
 2569TIP3   OH229341   4.598   2.363   1.904  0.2098 -0.2112  0.0554
 2569TIP3    H129342   4.692   2.377   1.894 -0.2596  2.8027 -1.4071
 2569TIP3    H229343   4.573   2.314   1.825  0.2908  1.0137 -0.7702
 2570TIP3   OH229344   2.155   5.842   0.259  0.3180 -0.3168  0.0170
 2570TIP3    H129345   2.194   5.794   0.186 -0.3425  0.0728 -0.6047
 2570TIP3    H229346   2.070   5.801   0.272 -0.5405  1.0705 -0.9613
 2571TIP3   OH229347   4.857   2.312   1.577  0.4397 -0.3764 -0.3855
 2571TIP3    H129348   4.856   2.268   1.493  1.2199  0.1792 -0.7011
 2571TIP3    H229349   4.792   2.266   1.630 -1.1468  0.2040 -1.7596
 2572TIP3   OH229350   3.084   1.616   0.481  0.1124 -0.4605 -0.2748
 2572TIP3    H129351   3.111   1.561   0.555 -0.2047 -1.2896 -0.7612
 2572TIP3    H229352   3.061   1.553   0.412 -2.3219  0.2101 -0.1589
 2573TIP3   OH229353   2.165   1.685   8.129  0.5995 -0.0528 -0.0713
 2573TIP3    H129354   2.138   1.730   8.208 -0.0657  0.0712 -0.3676
 2573TIP3    H229355   2.243   1.635   8.156  1.8956  1.9112  0.0518
 2574TIP3   OH229356   3.388   2.840   7.873 -0.0231 -0.5647  0.5075
 2574TIP3    H129357   3.321   2.780   7.908  0.9037 -0.4961  2.5636
 2574TIP3    H229358   3.338   2.910   7.831 -1.2108 -1.2057  0.7977
 2575TIP3   OH229359   4.173   1.295   7.013 -0.2118  0.4290  0.0567
 2575TIP3    H129360   4.084   1.322   7.036 -1.7022 -3.3703 -0.4759
 2575TIP3    H229361   4.198   1.353   6.941 -2.9440  0.6644 -0.8089
 2576TIP3   OH229362   2.657   6.356   7.374  0.2673  0.1633 -0.0751
 2576TIP3    H129363   2.647   6.291   7.304 -1.3509 -1.4758  1.5541
 2576TIP3    H229364   2.742   6.336   7.413 -0.7740 -2.0390  1.2926
 2577TIP3   OH229365   0.363   2.959   1.926  0.1268  1.3073 -0.1451
 2577TIP3    H129366   0.369   3.046   1.966 -0.1371  1.3329 -0.1598
 2577TIP3    H229367   0.454   2.930   1.919  0.2593  1.8315 -0.6837
 2578TIP3   OH229368   2.515   6.600   0.635 -0.2165  0.5913  0.6297
 2578TIP3    H129369   2.483   6.521   0.679 -2.7059  0.5188 -1.0995
 2578TIP3    H229370   2.562   6.567   0.558 -1.3792  0.7328 -0.1712
 2579TIP3   OH229371   3.317   0.153   7.263 -0.2873  0.0331  0.0247
 2579TIP3    H129372   3.390   0.176   7.320 -1.0459 -0.5594  1.2998
 2579TIP3    H229373   3.302   0.060   7.281 -0.1850 -0.3163 -1.5882
 2580TIP3   OH229374   4.570   3.261   2.497  0.1084 -0.1586  0.4348
 2580TIP3    H129375   4.656   3.289   2.530 -0.4630  0.8375  1.1669
 2580TIP3    H229376   4.557   3.174   2.536  1.0721 -0.6217 -0.2470
 2581TIP3   OH229377   0.491   6.319   8.476  0.0328 -0.1995  0.5768
 2581TIP3    H129378   0.417   6.367   8.514 -0.6856 -1.0889  0.3293
 2581TIP3    H229379   0.509   6.365   8.393 -0.1489  0.1011  0.7001
 2582TIP3   OH229380   0.760   0.604   8.202 -0.5353 -0.5474  0.3490
 2582TIP3    H129381   0.751   0.520   8.157 -0.0405 -0.9596  0.9926
 2582TIP3    H229382   0.796   0.581   8.288  0.7613  0.4092  0.1061
 2583TIP3   OH229383   0.284   1.593   8.007  0.0752 -0.1670  0.4193
 2583TIP3    H129384   0.241   1.660   8.061 -1.0782  0.9316 -1.7177
 2583TIP3    H229385   0.312   1.640   7.929  0.5116 -1.9370 -0.5370
 2584TIP3   OH229386   2.440   2.017   0.326  0.0987  0.0886 -0.7308
 2584TIP3    H129387   2.446   2.110   0.304 -0.3301 -0.2473 -2.3736
 2584TIP3    H229388   2.370   2.013   0.392  0.9428  1.0445  0.2782
 2585TIP3   OH229389   0.413   0.845   7.385  0.0752 -0.0273  0.3459
 2585TIP3    H129390   0.462   0.765   7.368 -0.1095 -0.5569  2.1191
 2585TIP3    H229391   0.323   0.815   7.397  0.1584  0.2894  1.9657
 2586TIP3   OH229392   1.088   3.211   1.520 -0.0051 -0.2006 -0.2939
 2586TIP3    H129393   1.084   3.115   1.509 -0.7817 -0.1654 -0.3566
 2586TIP3    H229394   1.030   3.229   1.594 -0.9602  0.3485 -1.1499
 2587TIP3   OH229395   6.510   1.803   8.428  0.5738  0.1025  0.0144
 2587TIP3    H129396   6.586   1.746   8.414  0.5040  0.3508 -1.5797
 2587TIP3    H229397   6.538   1.865   8.496  1.1418 -0.9282  0.7439
 2588TIP3   OH229398   1.603   5.264   1.323  0.4892  0.0217  0.2444
 2588TIP3    H129399   1.594   5.340   1.265 -0.5958  0.5434  1.0526
 2588TIP3    H229400   1.616   5.190   1.264 -1.9790  0.3179 -0.7997
 2589TIP3   OH229401   3.565   6.132   7.349 -0.2651  0.0621 -0.0696
 2589TIP3    H129402   3.650   6.166   7.320  0.0863  0.3272  1.2349
 2589TIP3    H229403   3.503   6.202   7.330 -0.2173 -0.1414 -1.0545
 2590TIP3   OH229404   5.898   3.021   0.913 -0.1184  0.2604 -0.7434
 2590TIP3    H129405   5.880   3.010   0.819  1.3790 -1.8894 -0.8413
 2590TIP3    H229406   5.993   3.020   0.919 -0.2095  0.0506  0.8570
 2591TIP3   OH229407   5.496   0.192   8.053 -0.0050 -0.1542  0.6563
 2591TIP3    H129408   5.454   0.119   8.098  0.9791  0.0446  1.9603
 2591TIP3    H229409   5.489   0.171   7.960 -0.3285 -1.5652  0.9804
 2592TIP3   OH229410   2.809   1.436   8.318 -0.1962 -0.0643  0.3607
 2592TIP3    H129411   2.900   1.449   8.347 -0.0374 -1.1796  0.3799
 2592TIP3    H229412   2.815   1.372   8.248 -0.9279  0.2251  0.0294
 2593TIP3   OH229413   2.005   5.942   8.574  0.1034 -0.0595 -0.0796
 2593TIP3    H129414   1.962   5.955   8.659 -1.2337  0.3835 -0.7978
 2593TIP3    H229415   1.941   5.894   8.522  0.7347  0.0699 -0.9901
 2594TIP3   OH229416   3.243   6.446   0.116  0.6133 -0.3872 -0.4832
 2594TIP3    H129417   3.310   6.391   0.156 -1.3020 -1.5673  1.3227
 2594TIP3    H229418   3.234   6.521   0.175  0.3721 -0.2272 -0.7195
 2595TIP3   OH229419   5.454   2.399   6.889 -0.1180 -0.2688 -0.2776
 2595TIP3    H129420   5.535   2.452   6.890  0.5091 -1.1580 -1.5822
 2595TIP3    H229421   5.396   2.446   6.829 -0.0150 -0.4034 -0.4847
 2596TIP3   OH229422   6.335   3.049   1.986 -0.5655  0.2593  0.5193
 2596TIP3    H129423   6.319   3.063   2.079  1.1820  0.9590  0.7569
 2596TIP3    H229424   6.344   2.954   1.978 -1.1490  0.1600  0.9733
 2597TIP3   OH229425   6.695   1.616   8.362 -0.2543 -0.7384  0.7544
 2597TIP3    H129426   6.777   1.653   8.395 -0.9098  0.3672  1.1955
 2597TIP3    H229427   6.722   1.563   8.287  0.7434  0.7153  0.0299
 2598TIP3   OH229428   4.732   2.847   0.093  0.0082 -0.4041  0.1059
 2598TIP3    H129429   4.781   2.834   0.011 -0.5610  0.7403 -0.4450
 2598TIP3    H229430   4.648   2.884   0.065 -0.3594 -0.3907  1.1862
 2599TIP3   OH229431   5.316   4.054   7.743  0.0209 -0.2533 -0.3594
 2599TIP3    H129432   5.408   4.033   7.761 -0.1955 -0.1955  0.9052
 2599TIP3    H229433   5.267   3.987   7.791 -0.6084 -1.7915 -2.9779
 2600TIP3   OH229434   0.007   3.694   1.971 -0.5261  0.2520 -0.1292
 2600TIP3    H129435   0.093   3.711   2.011 -0.3187 -1.8822  0.4301
 2600TIP3    H229436  -0.053   3.751   2.019  0.1616 -0.2614  1.4119
 2601TIP3   OH229437   4.730   0.400   1.000  0.3992 -0.8045  0.0327
 2601TIP3    H129438   4.720   0.494   0.992  3.1933 -0.2799  1.4532
 2601TIP3    H229439   4.642   0.365   0.986 -0.8271  2.0347  0.0281
 2602TIP3   OH229440   1.205   1.302   0.364  0.4824  0.2741  0.7054
 2602TIP3    H129441   1.257   1.318   0.286 -2.0816  0.7624 -1.0221
 2602TIP3    H229442   1.188   1.389   0.399  0.5756  0.1347  1.1030
 2603TIP3   OH229443   1.769   1.084   7.992 -0.1131  0.2587  0.4350
 2603TIP3    H129444   1.847   1.139   7.979  0.0317 -0.0291  0.0851
 2603TIP3    H229445   1.696   1.145   7.988  0.1225  0.6247  1.3350
 2604TIP3   OH229446   0.019   2.377   7.279 -0.2033  0.3331  0.1426
 2604TIP3    H129447  -0.025   2.369   7.364 -1.5014 -0.0075 -0.5449
 2604TIP3    H229448   0.077   2.301   7.274  0.0208  0.4521  0.7848
 2605TIP3   OH229449   4.524   0.978   2.086 -0.6379 -0.4602 -0.4989
 2605TIP3    H129450   4.545   0.901   2.034 -0.4320 -0.5676 -0.2589
 2605TIP3    H229451   4.538   0.951   2.176 -1.0416 -0.2883 -0.3825
 2606TIP3   OH229452   0.199   3.883   7.737  0.3963  0.0038 -0.1814
 2606TIP3    H129453   0.282   3.835   7.738  0.4300  0.0722  0.3036
 2606TIP3    H229454   0.141   3.832   7.793 -0.4517 -1.0240 -1.8962
 2607TIP3   OH229455   5.085   0.348   1.541  0.0625  0.2506  0.2616
 2607TIP3    H129456   5.127   0.352   1.627  1.2460  0.7314 -0.3082
 2607TIP3    H229457   5.148   0.391   1.482 -0.9839  0.4648 -0.7385
 2608TIP3   OH229458   2.432   1.964   1.689  0.1878  0.9048 -0.0362
 2608TIP3    H129459   2.482   2.044   1.706  1.3866  0.4828 -1.3701
 2608TIP3    H229460   2.499   1.896   1.679 -0.6089  0.3863 -2.3197
 2609TIP3   OH229461   4.847   3.990   0.398 -0.3187  0.3461 -0.9608
 2609TIP3    H129462   4.895   3.980   0.480  1.2359  1.7791 -1.6294
 2609TIP3    H229463   4.882   3.921   0.341 -1.1102 -0.3935 -0.5699
 2610TIP3   OH229464   3.599   3.138   7.999  0.3725  0.3338 -0.0356
 2610TIP3    H129465   3.574   3.093   7.918  0.8007 -0.4520  0.2578
 2610TIP3    H229466   3.673   3.193   7.973  0.5156  0.0769 -0.1796
 2611TIP3   OH229467   5.717   5.011   0.626  0.1037 -0.3555 -0.0567
 2611TIP3    H129468   5.714   4.918   0.647  0.4201  0.0048  1.6948
 2611TIP3    H229469   5.744   5.013   0.534 -0.1471 -1.9858 -0.2039
 2612TIP3   OH229470   3.450   5.847   8.460  0.1325 -0.5552 -0.4810
 2612TIP3    H129471   3.423   5.811   8.375  0.1094 -2.1592  0.1633
 2612TIP3    H229472   3.397   5.926   8.471  2.0101  1.2238 -3.1059
 2613TIP3   OH229473   0.413   3.515   2.043  0.1343  0.1300 -0.5238
 2613TIP3    H129474   0.371   3.579   2.100  0.9983  0.1561  0.0907
 2613TIP3    H229475   0.505   3.515   2.069  0.5810  0.2507 -2.0312
 2614TIP3   OH229476   2.072   3.193   0.946 -0.2829 -0.3687 -0.4873
 2614TIP3    H129477   2.124   3.115   0.964 -0.8988 -1.1922 -2.0788
 2614TIP3    H229478   2.095   3.254   1.017  0.9052 -1.6299  0.2683
 2615TIP3   OH229479   4.505   5.742   6.999  0.1116  0.4588  0.1657
 2615TIP3    H129480   4.591   5.701   7.011  0.6970  1.4403 -0.5417
 2615TIP3    H229481   4.482   5.774   7.086  0.8202  0.8524  0.2162
 2616TIP3   OH229482   0.139   3.886   8.149  0.2317  0.7666 -0.1528
 2616TIP3    H129483   0.178   3.801   8.128 -0.7060  0.2175  0.2660
 2616TIP3    H229484   0.124   3.883   8.243 -0.8129  0.9666 -0.3042
 2617TIP3   OH229485   0.253   6.508   0.756 -0.0337 -0.2041 -1.0245
 2617TIP3    H129486   0.263   6.584   0.699 -0.6329 -0.8036 -1.9505
 2617TIP3    H229487   0.273   6.433   0.701 -2.7218 -0.9531 -1.1080
 2618TIP3   OH229488   3.024   6.055   8.352 -0.8043  0.6471 -0.0863
 2618TIP3    H129489   2.998   6.134   8.304 -0.9089 -0.0573 -1.2073
 2618TIP3    H229490   3.009   5.983   8.291  0.8487 -0.1022  0.3330
 2619TIP3   OH229491   2.963   5.963   0.906 -0.1064 -0.5291 -0.5503
 2619TIP3    H129492   3.051   5.983   0.874  0.6072  0.0276  1.5548
 2619TIP3    H229493   2.931   5.894   0.848  2.6570 -2.4172 -0.0458
 2620TIP3   OH229494   3.407   5.137   2.640 -0.6716  0.1391  0.2075
 2620TIP3    H129495   3.379   5.200   2.574  0.5628 -0.2690 -0.7358
 2620TIP3    H229496   3.439   5.062   2.590  0.8967  0.0745  1.2402
 2621TIP3   OH229497   1.508   3.021   0.103 -0.2882 -0.5317  0.2409
 2621TIP3    H129498   1.558   2.978   0.034  0.4412  1.0056 -0.2067
 2621TIP3    H229499   1.445   3.077   0.057 -1.1630 -1.0068  0.8193
 2622TIP3   OH229500   5.602   2.663   8.441  0.3379 -0.1405 -0.0428
 2622TIP3    H129501   5.523   2.716   8.443  0.4753  0.0763 -0.4387
 2622TIP3    H229502   5.625   2.656   8.349  1.2009  0.4248  0.1229
 2623TIP3   OH229503   2.251   1.666   7.855 -0.6912  0.1012  0.0499
 2623TIP3    H129504   2.229   1.686   7.946  0.5039  0.6822  0.2253
 2623TIP3    H229505   2.341   1.695   7.844 -0.5042 -0.7905 -1.0771
 2624TIP3   OH229506   6.419   0.568   0.957  0.6762  0.3492 -0.2372
 2624TIP3    H129507   6.496   0.510   0.953  0.6833  0.2718  0.7829
 2624TIP3    H229508   6.352   0.515   1.000  0.3528  0.7500 -0.2499
 2625TIP3   OH229509   3.373   0.933   8.193 -0.0050  0.4423  0.3046
 2625TIP3    H129510   3.354   0.915   8.285  1.7752  1.2153  0.8586
 2625TIP3    H229511   3.318   1.009   8.171  0.5536  1.1098  1.1524
 2626TIP3   OH229512   3.013   4.070   7.838  0.4200 -0.2553 -0.0449
 2626TIP3    H129513   2.954   4.135   7.876  1.1280 -0.7869  2.1076
 2626TIP3    H229514   3.080   4.121   7.793  2.2392  0.7551  3.4801
 2627TIP3   OH229515   6.397   2.224   7.924 -0.1739 -0.4292  0.2484
 2627TIP3    H129516   6.464   2.156   7.934 -0.5949 -0.7006  1.3421
 2627TIP3    H229517   6.314   2.180   7.944 -0.6028  0.0832 -0.3656
 2628TIP3   OH229518   3.240   6.534   7.211  0.2506  0.0670  0.2649
 2628TIP3    H129519   3.234   6.547   7.116 -0.1070  0.7017  0.3685
 2628TIP3    H229520   3.275   6.616   7.244 -1.0686  0.4207  0.8403
 2629TIP3   OH229521   6.558   1.910   6.947  0.2559 -0.1630 -0.1574
 2629TIP3    H129522   6.541   1.846   7.016 -0.4982  0.8027  0.5880
 2629TIP3    H229523   6.652   1.924   6.949  0.5681 -1.9197 -0.9683
 2630TIP3   OH229524   6.368   4.465   1.763 -0.0882 -0.0826  0.2957
 2630TIP3    H129525   6.426   4.400   1.803  0.0839 -0.2726 -0.2595
 2630TIP3    H229526   6.280   4.428   1.773  0.1341 -1.1509 -1.3913
 2631TIP3   OH229527   6.252   0.439   6.828 -0.6216  0.0087 -0.0930
 2631TIP3    H129528   6.334   0.463   6.870 -0.4844  0.3834 -0.5671
 2631TIP3    H229529   6.241   0.503   6.757 -1.5406  0.2355  0.2369
 2632TIP3   OH229530   5.605   2.324   7.131 -0.3073  0.4347  0.0526
 2632TIP3    H129531   5.639   2.247   7.176 -1.3565 -0.2188 -0.2210
 2632TIP3    H229532   5.608   2.301   7.038 -1.0704  0.5241 -0.0046
 2633TIP3   OH229533   6.343   1.450   2.022  0.6114 -0.9103 -0.3903
 2633TIP3    H129534   6.388   1.432   2.105  0.9889  0.9612 -0.1626
 2633TIP3    H229535   6.250   1.440   2.043  0.6290  0.6545  0.5903
 2634TIP3   OH229536   5.762   6.016   1.714  0.1046 -0.1563  0.5208
 2634TIP3    H129537   5.832   6.043   1.655 -0.3511 -0.2633 -0.0790
 2634TIP3    H229538   5.806   5.965   1.782  0.4798 -1.1144 -0.4070
 2635TIP3   OH229539   1.707   5.410   1.973  0.2811  0.3123 -0.0492
 2635TIP3    H129540   1.669   5.419   1.885 -0.6424 -0.4973  0.2515
 2635TIP3    H229541   1.687   5.321   1.999  0.8448  0.4406  0.8627
 2636TIP3   OH229542   3.905   0.907   8.298  0.4329  0.2724  0.2567
 2636TIP3    H129543   3.883   0.894   8.206  0.8894 -1.0537  0.3120
 2636TIP3    H229544   3.886   0.823   8.339 -0.2004  0.9815  1.4798
 2637TIP3   OH229545   3.937   3.275   0.591  0.6948 -0.6141  0.4111
 2637TIP3    H129546   4.012   3.218   0.603  3.2183  2.3709  0.0801
 2637TIP3    H229547   3.927   3.282   0.496 -1.0063 -2.0546  0.4230
 2638TIP3   OH229548   3.882   1.334   0.257  0.8887  0.1805  0.0310
 2638TIP3    H129549   3.950   1.383   0.211  0.8067 -0.7409 -1.1202
 2638TIP3    H229550   3.904   1.343   0.350  2.3501  0.2173 -0.2995
 2639TIP3   OH229551   5.514   4.981   7.726 -0.0343 -0.8366  0.2704
 2639TIP3    H129552   5.442   5.043   7.724  0.2818 -0.4817 -0.8356
 2639TIP3    H229553   5.588   5.030   7.761  0.1102 -0.6912 -0.2256
 2640TIP3   OH229554   1.030   4.448   1.334 -0.0854 -0.2186  0.0177
 2640TIP3    H129555   1.006   4.420   1.423 -0.7076 -0.2474 -0.1497
 2640TIP3    H229556   1.021   4.368   1.281  0.8600 -0.3399  0.0284
 2641TIP3   OH229557   2.155   6.087   1.724 -0.0088  0.1977 -0.1504
 2641TIP3    H129558   2.100   6.012   1.744 -1.9563  1.0499 -1.9302
 2641TIP3    H229559   2.194   6.066   1.639  1.0091  0.3869  0.2539
 2642TIP3   OH229560   0.607   3.115   0.317  0.2501  0.5910  0.3397
 2642TIP3    H129561   0.641   3.134   0.404 -1.4420  0.1708  1.1357
 2642TIP3    H229562   0.579   3.200   0.283  0.5368  0.6995  0.3748
 2643TIP3   OH229563   3.043   3.035   7.020  0.1563 -0.0897 -0.2238
 2643TIP3    H129564   3.055   3.019   6.927  1.3271  0.2444 -0.1527
 2643TIP3    H229565   3.089   3.118   7.036  0.8918 -0.6791  0.8405
 2644TIP3   OH229566   3.762   5.087   8.202 -0.3662 -0.2178 -0.5128
 2644TIP3    H129567   3.832   5.145   8.233 -1.6119  1.9624 -1.4901
 2644TIP3    H229568   3.690   5.100   8.264 -1.3401  0.8723 -1.7874
 2645TIP3   OH229569   2.162   3.039   1.800  0.0038  0.3209  0.2657
 2645TIP3    H129570   2.183   2.980   1.728  0.8642 -0.3008  1.0110
 2645TIP3    H229571   2.145   2.981   1.874 -2.2170  0.8718  0.2758
 2646TIP3   OH229572   2.710   1.801   7.198 -0.0564  0.2570 -0.6171
 2646TIP3    H129573   2.776   1.786   7.265  0.0069  0.0810 -0.7176
 2646TIP3    H229574   2.695   1.895   7.200 -1.1802  0.0735  0.6893
 2647TIP3   OH229575   5.789   1.359   6.875  0.2151  0.0000 -0.2897
 2647TIP3    H129576   5.750   1.447   6.875 -2.3469 -1.0226  1.2076
 2647TIP3    H229577   5.738   1.310   6.811 -0.3271 -1.1178  0.9492
 2648TIP3   OH229578   6.571   4.593   2.284 -0.7618  0.0653  0.1400
 2648TIP3    H129579   6.632   4.657   2.321  0.1466 -1.8359  2.1881
 2648TIP3    H229580   6.489   4.641   2.272  0.2909  1.9567  0.0749
 2649TIP3   OH229581   0.579   6.555   7.578 -0.4128 -0.6350 -0.2771
 2649TIP3    H129582   0.608   6.600   7.499  0.6438 -2.0797 -0.7400
 2649TIP3    H229583   0.500   6.603   7.604  0.5938  1.4082 -0.7752
 2650TIP3   OH229584   3.316   6.174   8.001  0.7711  0.1833  0.7488
 2650TIP3    H129585   3.404   6.160   8.037  0.5676  1.8785  2.0191
 2650TIP3    H229586   3.330   6.179   7.906  1.7017 -1.7638  0.7268
 2651TIP3   OH229587   4.069   4.806   7.057  0.3701  0.5295 -0.1912
 2651TIP3    H129588   4.113   4.722   7.043  0.8804  0.4712  1.5141
 2651TIP3    H229589   4.120   4.869   7.008  0.6104  0.0036 -0.6232
 2652TIP3   OH229590   1.890   3.952   8.546 -0.2148  0.8486 -0.1424
 2652TIP3    H129591   1.958   3.885   8.537 -0.5565  0.5133 -0.2703
 2652TIP3    H229592   1.912   4.017   8.479 -0.7636  0.0798 -1.1185
 2653TIP3   OH229593   5.624   5.728   7.010  0.0475 -0.3120  0.1044
 2653TIP3    H129594   5.671   5.736   7.093  1.2323 -0.6690 -0.5025
 2653TIP3    H229595   5.538   5.765   7.027  0.8919  1.3500  0.9838
 2654TIP3   OH229596   5.701   5.038   7.348  0.0673  0.2865  0.1803
 2654TIP3    H129597   5.643   5.018   7.274 -0.4833  1.0388  0.3917
 2654TIP3    H229598   5.678   4.973   7.414  0.8560 -0.6570 -0.4436
 2655TIP3   OH229599   4.044   5.667   1.392  0.0451  0.1739 -0.5278
 2655TIP3    H129600   4.074   5.588   1.438 -2.7786 -0.1872  0.9154
 2655TIP3    H229601   4.103   5.675   1.317  2.6545 -1.2395  1.2327
 2656TIP3   OH229602   1.588   5.001   6.959  0.3303 -0.2393  0.0718
 2656TIP3    H129603   1.517   4.971   7.016 -0.4891 -1.1582 -1.3646
 2656TIP3    H229604   1.560   4.976   6.871  1.7696  0.7135 -0.6995
 2657TIP3   OH229605   1.322   2.709   7.746  0.1278  0.3886  0.3939
 2657TIP3    H129606   1.403   2.726   7.795  2.7048 -1.3730 -2.8733
 2657TIP3    H229607   1.289   2.628   7.783  1.6826 -0.5826 -0.2427
 2658TIP3   OH229608   1.596   0.114   7.642 -0.0161  0.0111 -0.1843
 2658TIP3    H129609   1.671   0.094   7.699 -0.4734 -0.9343  0.1136
 2658TIP3    H229610   1.538   0.167   7.697 -0.3409 -0.6892  0.1661
 2659TIP3   OH229611   4.567   3.447   7.419 -0.1718 -0.4474 -0.0340
 2659TIP3    H129612   4.634   3.512   7.399 -0.0960 -0.3630  0.4754
 2659TIP3    H229613   4.609   3.388   7.482 -0.1703 -1.1088 -0.6503
 2660TIP3   OH229614   2.077   2.556   7.841 -0.3161 -0.2221  0.6527
 2660TIP3    H129615   2.143   2.492   7.815 -0.1789  0.1191  0.1506
 2660TIP3    H229616   1.994   2.512   7.826 -0.2149 -0.9010  1.9101
 2661TIP3   OH229617   3.149   1.999   1.178 -0.3931 -0.7579  0.8727
 2661TIP3    H129618   3.098   1.963   1.105 -1.3005  0.9261  0.6210
 2661TIP3    H229619   3.083   2.020   1.244  0.3509 -1.5781  1.8870
 2662TIP3   OH229620   4.563   0.087   8.423 -0.1771 -0.2263  0.2565
 2662TIP3    H129621   4.517   0.134   8.354  1.1709  0.1369 -0.4414
 2662TIP3    H229622   4.590   0.156   8.484 -0.1163 -0.3653  0.3874
 2663TIP3   OH229623   2.008   0.914   7.750 -0.4691  0.2920 -0.6942
 2663TIP3    H129624   1.979   0.991   7.702 -1.6142  0.0118 -0.4947
 2663TIP3    H229625   2.095   0.936   7.782  0.5848  0.3018 -3.2878
 2664TIP3   OH229626   3.728   2.664   7.619  0.5990 -0.4334  0.3612
 2664TIP3    H129627   3.703   2.755   7.635  1.9015 -0.1078  0.5833
 2664TIP3    H229628   3.806   2.650   7.673  1.7280 -1.0151 -1.3441
 2665TIP3   OH229629   0.748   2.705   8.403 -0.6005  0.0378  0.0206
 2665TIP3    H129630   0.663   2.686   8.362 -0.9261 -2.7505  1.7430
 2665TIP3    H229631   0.726   2.744   8.487 -0.0925  0.8606 -0.2175
 2666TIP3   OH229632   3.232   4.114   0.473  0.0464  0.8144 -0.2633
 2666TIP3    H129633   3.185   4.050   0.526  1.3055 -0.2746 -0.4173
 2666TIP3    H229634   3.171   4.138   0.404 -1.2778  1.5486  1.1084
 2667TIP3   OH229635   5.926   3.590   7.169 -1.1674 -0.1104 -0.0016
 2667TIP3    H129636   5.862   3.616   7.103 -0.6467  3.3677  0.6571
 2667TIP3    H229637   5.943   3.670   7.219  1.7096 -1.5188  1.5498
 2668TIP3   OH229638   6.456   2.742   7.952  0.2576 -0.2009  0.0939
 2668TIP3    H129639   6.408   2.722   7.871 -0.0397 -2.3200  0.7508
 2668TIP3    H229640   6.441   2.667   8.008  1.1866  0.8447  1.8226
 2669TIP3   OH229641   4.514   5.442   1.488 -0.0885 -0.2036 -0.5128
 2669TIP3    H129642   4.557   5.436   1.403  0.6826  1.2395 -0.2637
 2669TIP3    H229643   4.527   5.356   1.528  0.1683 -0.6605 -1.5668
 2670TIP3   OH229644   3.295   2.853   1.790 -0.2630  0.0131 -0.1725
 2670TIP3    H129645   3.311   2.947   1.800  0.9666 -0.3461  1.7425
 2670TIP3    H229646   3.370   2.812   1.833 -1.7083 -1.8560  0.6855
 2671TIP3   OH229647   4.245   4.866   8.249  0.0556  0.4090  0.0791
 2671TIP3    H129648   4.160   4.881   8.292  0.2178  1.0478  0.1949
 2671TIP3    H229649   4.294   4.946   8.266  0.3887  0.3705 -0.6763
 2672TIP3   OH229650   0.662   5.100   6.768 -0.0031  0.2153  0.0944
 2672TIP3    H129651   0.745   5.137   6.797  0.0356 -0.3589  0.7436
 2672TIP3    H229652   0.668   5.007   6.790  0.0684 -0.2876 -1.8679
 2673TIP3   OH229653   4.728   0.830   7.228 -0.1342 -0.2077  0.5111
 2673TIP3    H129654   4.673   0.757   7.196  1.3487 -0.7276 -0.9840
 2673TIP3    H229655   4.790   0.788   7.288 -0.5160  0.1815  1.1990
 2674TIP3   OH229656   5.186   4.842   7.089  0.1114  0.0722  0.2520
 2674TIP3    H129657   5.186   4.847   6.993  2.3679 -2.1799  0.0143
 2674TIP3    H229658   5.275   4.814   7.111 -1.0091 -1.8702  2.8421
 2675TIP3   OH229659   0.187   5.648   1.077 -0.2360 -0.3379  0.7043
 2675TIP3    H129660   0.257   5.659   1.013 -0.5618  0.4783  0.4702
 2675TIP3    H229661   0.109   5.683   1.033 -0.4216  0.4514  1.6265
 2676TIP3   OH229662   6.869   3.351   7.871  0.2094  0.2704  0.0844
 2676TIP3    H129663   6.946   3.386   7.915 -0.2056  1.6361 -0.2316
 2676TIP3    H229664   6.870   3.391   7.784 -1.3195  1.0297  0.3803
 2677TIP3   OH229665   5.598   1.640   1.750  0.1215  0.1585 -0.2844
 2677TIP3    H129666   5.624   1.715   1.804 -0.5674  0.5001 -0.4136
 2677TIP3    H229667   5.680   1.594   1.732  0.8199  1.8534 -1.6643
 2678TIP3   OH229668   5.752   6.262   2.524  0.3481  0.4470  0.2350
 2678TIP3    H129669   5.787   6.228   2.441 -1.5085 -0.8021 -0.1153
 2678TIP3    H229670   5.827   6.266   2.582  1.0382 -2.7813 -0.2393
 2679TIP3   OH229671   0.047   6.132   2.322 -0.5377  0.2595  0.2547
 2679TIP3    H129672   0.074   6.224   2.323  0.4195 -0.0065  1.4596
 2679TIP3    H229673   0.129   6.083   2.323 -1.0437 -0.6111  0.5815
 2680TIP3   OH229674   0.627   2.753   7.091 -0.3336 -0.1634 -0.8855
 2680TIP3    H129675   0.548   2.805   7.073  0.0969  0.5199 -0.8102
 2680TIP3    H229676   0.595   2.679   7.144 -0.6899  0.9887  0.5884
 2681TIP3   OH229677   5.046   5.276   8.477 -0.3560  0.6247  0.1327
 2681TIP3    H129678   5.133   5.239   8.461 -0.1294  0.7237  1.0750
 2681TIP3    H229679   5.014   5.228   8.553 -0.3844  1.7905  0.8896
 2682TIP3   OH229680   6.606   4.184   8.246 -0.3050  0.0023  0.2854
 2682TIP3    H129681   6.612   4.267   8.200 -0.0973 -0.1327  0.0630
 2682TIP3    H229682   6.524   4.189   8.295 -0.2647  0.3572  0.3162
 2683TIP3   OH229683   2.403   5.003   7.658  0.1106 -0.1571  0.1156
 2683TIP3    H129684   2.359   5.087   7.674 -0.0318 -0.4893  1.6835
 2683TIP3    H229685   2.343   4.956   7.600 -0.3532  0.3879  0.1377
 2684TIP3   OH229686   3.019   1.297   8.510  0.3092 -0.5803  0.0011
 2684TIP3    H129687   2.964   1.235   8.461  0.6909 -0.6196 -0.3866
 2684TIP3    H229688   3.067   1.243   8.572 -1.4719 -0.3271  1.6669
 2685TIP3   OH229689   1.398   1.490   0.588  0.5614  0.2977  0.0276
 2685TIP3    H129690   1.308   1.479   0.620  0.7918  0.1621  0.6516
 2685TIP3    H229691   1.402   1.581   0.559  0.4951  0.6006  0.9191
 2686TIP3   OH229692   1.981   4.707   0.350 -0.0762  0.1693  0.0974
 2686TIP3    H129693   1.975   4.634   0.412 -0.5812  0.5994  0.5735
 2686TIP3    H229694   1.896   4.751   0.357 -0.5540 -0.4062 -1.7176
 2687TIP3   OH229695   3.349   6.416   0.822  0.1928  0.6237 -0.3977
 2687TIP3    H129696   3.346   6.434   0.916  0.5497 -0.8543 -0.0747
 2687TIP3    H229697   3.431   6.456   0.792 -0.4262  1.9937 -0.2983
 2688TIP3   OH229698   5.803   6.883   7.923 -0.7621 -0.2354 -0.5268
 2688TIP3    H129699   5.864   6.811   7.908 -1.5518 -0.8175 -1.0123
 2688TIP3    H229700   5.728   6.842   7.966 -0.0353  0.7963  1.8632
 2689TIP3   OH229701   4.131   5.726   8.532 -0.4143 -0.3941  0.4238
 2689TIP3    H129702   4.039   5.709   8.511 -0.0822 -0.7127 -0.8765
 2689TIP3    H229703   4.180   5.664   8.477  0.6663  1.3767 -0.6829
 2690TIP3   OH229704   5.796   5.409   1.437 -0.1959 -0.3430  0.7210
 2690TIP3    H129705   5.738   5.462   1.382 -0.6221 -2.0277 -0.5293
 2690TIP3    H229706   5.779   5.319   1.410  1.7201 -1.0163  1.5759
 2691TIP3   OH229707   1.133   0.636   8.154 -0.2444 -0.1569  0.4731
 2691TIP3    H129708   1.151   0.730   8.156 -0.6983 -0.0469 -0.2244
 2691TIP3    H229709   1.083   0.623   8.073 -0.6092 -0.9174  0.8095
 2692TIP3   OH229710   1.260   4.885   7.484  0.2026 -0.1639 -0.0557
 2692TIP3    H129711   1.353   4.880   7.462 -0.2295  1.5232 -2.7899
 2692TIP3    H229712   1.243   4.979   7.493 -0.9804 -0.5206  1.9448
 2693TIP3   OH229713   6.667   3.263   6.655  0.4241 -0.2916  0.0162
 2693TIP3    H129714   6.739   3.222   6.608 -0.7273 -2.0896 -0.2810
 2693TIP3    H229715   6.613   3.302   6.586  1.6115  1.9944  0.3082
 2694TIP3   OH229716   0.812   6.857   7.475 -0.1152  0.3475 -0.5901
 2694TIP3    H129717   0.822   6.766   7.449 -2.0024 -0.0915  0.0631
 2694TIP3    H229718   0.900   6.893   7.471  0.8038 -1.7223 -0.0276
 2695TIP3   OH229719   2.825   0.230   7.068  0.0937  0.0990  0.0343
 2695TIP3    H129720   2.758   0.221   7.135 -0.6917 -1.3367 -0.8739
 2695TIP3    H229721   2.896   0.173   7.097  1.9375  3.0918  2.0116
 2696TIP3   OH229722   6.868   5.789   7.633  0.3880 -0.2375 -0.3184
 2696TIP3    H129723   6.809   5.786   7.557  0.1364  1.4669 -0.2316
 2696TIP3    H229724   6.933   5.855   7.610 -0.8117  1.7883  1.6607
 2697TIP3   OH229725   0.752   2.134   1.399  0.5673  0.6974  0.4147
 2697TIP3    H129726   0.812   2.146   1.473  0.5165  0.8373  0.4346
 2697TIP3    H229727   0.772   2.047   1.365  2.3620  1.6047 -0.9946
 2698TIP3   OH229728   3.465   5.606   1.351  0.3640 -0.3796  0.2479
 2698TIP3    H129729   3.516   5.575   1.276 -2.0500 -1.6554 -0.9907
 2698TIP3    H229730   3.496   5.554   1.424  1.3011 -0.6212 -0.3048
 2699TIP3   OH229731   2.069   1.267   1.337  0.3014 -0.3888  0.3346
 2699TIP3    H129732   1.980   1.293   1.362  0.4537  0.6822 -0.1734
 2699TIP3    H229733   2.110   1.238   1.419  0.2432  1.3968  1.0383
 2700TIP3   OH229734   5.721   3.036   1.091  0.4126 -0.0595 -0.4236
 2700TIP3    H129735   5.786   3.041   1.021  1.1491 -1.0522  0.1757
 2700TIP3    H229736   5.751   2.966   1.148  1.0381  2.1206  2.1433
 2701TIP3   OH229737   4.802   2.655   6.965  0.1137  0.3129  0.2771
 2701TIP3    H129738   4.777   2.562   6.958  0.0395  0.2598  1.1429
 2701TIP3    H229739   4.732   2.702   6.921  0.2938 -0.0560 -0.4240
 2702TIP3   OH229740   3.868   3.124   8.310  0.5713  0.1727 -0.4970
 2702TIP3    H129741   3.859   3.042   8.358  0.4751  1.2071  1.3680
 2702TIP3    H229742   3.925   3.102   8.236  2.5302 -1.1013  1.2421
 2703TIP3   OH229743   0.651   5.041   0.263  0.0656  0.4198  0.1660
 2703TIP3    H129744   0.593   5.009   0.193  0.1330  0.5104  0.0693
 2703TIP3    H229745   0.594   5.047   0.340  0.1793 -0.4907  0.3353
 2704TIP3   OH229746   4.169   2.202   8.281  0.1642 -0.0894  0.1820
 2704TIP3    H129747   4.205   2.263   8.216 -1.4173  0.7508  0.0384
 2704TIP3    H229748   4.142   2.258   8.354 -0.3811 -0.7308  0.4848
 2705TIP3   OH229749   3.891   0.329   0.869 -0.3699 -0.0354 -0.2468
 2705TIP3    H129750   3.892   0.324   0.773 -1.4158 -0.3571 -0.2572
 2705TIP3    H229751   3.805   0.294   0.894 -0.0213 -0.1722  0.8235
 2706TIP3   OH229752   5.154   5.521   1.349 -0.3900  0.2899 -0.2327
 2706TIP3    H129753   5.128   5.435   1.383  0.7171 -0.3001 -0.8476
 2706TIP3    H229754   5.086   5.541   1.284  0.9199 -1.5554 -2.3292
 2707TIP3   OH229755   4.033   1.480   2.049  0.2067 -0.4135 -0.3305
 2707TIP3    H129756   4.072   1.415   2.108 -1.2987 -1.7151 -0.7233
 2707TIP3    H229757   3.995   1.545   2.108  0.4930 -0.6230  0.0935
 2708TIP3   OH229758   3.574   5.484   8.247  0.4536 -0.7521  0.2092
 2708TIP3    H129759   3.592   5.574   8.220 -0.9618 -0.0072  1.5845
 2708TIP3    H229760   3.573   5.434   8.165  2.0586  0.2911 -0.5032
 2709TIP3   OH229761   5.989   5.655   6.836  0.1278 -0.2090 -0.7970
 2709TIP3    H129762   6.072   5.607   6.832 -0.4568 -1.1710 -3.1959
 2709TIP3    H229763   5.959   5.646   6.926  2.1184 -0.7037 -0.1492
 2710TIP3   OH229764   5.663   1.800   7.740  0.9465 -0.4187  0.3098
 2710TIP3    H129765   5.676   1.733   7.808 -0.3140 -0.5755  0.4083
 2710TIP3    H229766   5.720   1.771   7.668  1.4719 -0.8407  0.8821
 2711TIP3   OH229767   1.683   1.855   8.017  0.0474  0.3854  0.4700
 2711TIP3    H129768   1.591   1.870   8.039 -0.2385  0.0654 -0.4681
 2711TIP3    H229769   1.713   1.939   7.983  0.0966  0.4818  0.7489
 2712TIP3   OH229770   2.069   5.476   6.391  0.2925 -0.2973  0.6506
 2712TIP3    H129771   2.147   5.518   6.354 -0.4393  1.3486  0.8657
 2712TIP3    H229772   2.104   5.403   6.443  1.5346 -0.7363 -0.7392
 2713TIP3   OH229773   3.831   5.628   6.624  0.2352  0.5632 -0.1699
 2713TIP3    H129774   3.812   5.693   6.556 -0.4507 -0.4809 -1.0189
 2713TIP3    H229775   3.857   5.549   6.575  3.7797  0.9369  0.8602
 2714TIP3   OH229776   1.579   2.764   0.542 -1.0881 -0.3070 -0.3136
 2714TIP3    H129777   1.550   2.737   0.629  0.9715 -1.3460  0.0950
 2714TIP3    H229778   1.498   2.767   0.490 -2.2392 -0.5315  1.3770
 2715TIP3   OH229779   1.271   2.697   2.100 -0.1451  0.6247  0.1002
 2715TIP3    H129780   1.334   2.767   2.112 -0.1290  0.4886  0.8868
 2715TIP3    H229781   1.309   2.622   2.146  0.3721 -0.2512 -1.6460
 2716TIP3   OH229782   5.011   3.786   0.686  0.8306  0.0053  0.8793
 2716TIP3    H129783   5.104   3.764   0.695  0.6778 -0.7265  0.7915
 2716TIP3    H229784   5.003   3.875   0.718  1.6963  0.3389  0.2012
 2717TIP3   OH229785   1.136   2.317   0.340 -0.2402  0.0440 -0.2543
 2717TIP3    H129786   1.042   2.319   0.324 -0.1994  0.1705 -0.4759
 2717TIP3    H229787   1.155   2.225   0.357 -0.8062  0.3054  2.2167
 2718TIP3   OH229788   5.837   1.518   1.677  0.6089 -0.7763  0.0989
 2718TIP3    H129789   5.816   1.438   1.629 -0.1771 -0.7965  0.4648
 2718TIP3    H229790   5.808   1.589   1.620  2.3717 -0.6750 -0.7587
 2719TIP3   OH229791   5.843   5.519   0.642 -0.8371 -0.0948 -0.0542
 2719TIP3    H129792   5.890   5.449   0.686  1.0699  0.0102 -1.7646
 2719TIP3    H229793   5.777   5.474   0.589  0.8169 -0.7626 -1.6772
 2720TIP3   OH229794   0.341   3.604   7.452 -0.6166  0.2234 -0.4464
 2720TIP3    H129795   0.434   3.596   7.475 -0.8921 -0.0235  0.6272
 2720TIP3    H229796   0.294   3.563   7.525 -1.5670  0.1550 -1.0766
 2721TIP3   OH229797   3.193   5.193   0.351  0.2646 -0.2600  0.0617
 2721TIP3    H129798   3.150   5.279   0.352 -1.0254 -0.8771  0.4405
 2721TIP3    H229799   3.189   5.165   0.260  0.1906 -0.1493  0.0301
 2722TIP3   OH229800   1.476   6.298   2.011  0.0816 -0.0736 -0.3339
 2722TIP3    H129801   1.565   6.299   1.978 -0.6278 -0.9648 -2.4105
 2722TIP3    H229802   1.439   6.382   1.985  0.1205  0.0383 -0.0316
 2723TIP3   OH229803   0.007   2.606   8.433  0.7261 -0.4965 -0.8661
 2723TIP3    H129804  -0.078   2.581   8.396  0.7345 -1.3637 -0.3275
 2723TIP3    H229805   0.068   2.594   8.360  0.5972 -1.2803 -0.8610
 2724TIP3   OH229806   0.806   6.430   0.159  0.2207  0.6442  0.3846
 2724TIP3    H129807   0.798   6.362   0.092  1.0531  1.1284 -0.2238
 2724TIP3    H229808   0.894   6.465   0.148 -1.3882  4.5703 -2.0175
 2725TIP3   OH229809   0.414   5.698   7.839  0.4795 -0.2819  0.1573
 2725TIP3    H129810   0.363   5.640   7.783  0.5894 -0.6042  0.3862
 2725TIP3    H229811   0.489   5.723   7.786  0.7111 -0.7839  0.2431
 2726TIP3   OH229812   3.212   4.333   1.062  0.3873 -0.3824 -0.2997
 2726TIP3    H129813   3.237   4.413   1.110  2.8003 -0.6924 -0.8699
 2726TIP3    H229814   3.197   4.268   1.131  0.3374  0.0837  0.1351
 2727TIP3   OH229815   6.389   6.738   1.617  0.2635 -0.4427  0.2925
 2727TIP3    H129816   6.399   6.791   1.696 -0.8919 -1.8911  1.4690
 2727TIP3    H229817   6.294   6.724   1.608  0.3618 -0.3314 -1.3584
 2728TIP3   OH229818   2.092   6.835   1.460  0.3192  0.1830  0.1880
 2728TIP3    H129819   2.071   6.745   1.436 -0.2248  0.1385  0.7979
 2728TIP3    H229820   2.009   6.882   1.454  0.2360  0.2524  1.5726
 2729TIP3   OH229821   4.331   3.626   8.385  0.3471 -0.0878 -0.4224
 2729TIP3    H129822   4.300   3.692   8.322 -0.5808 -0.0200  0.0884
 2729TIP3    H229823   4.256   3.610   8.442  1.1576 -0.1692  0.6577
 2730TIP3   OH229824   4.133   5.007   6.402  0.2817 -0.6473  0.4742
 2730TIP3    H129825   4.040   5.007   6.376  0.0379 -0.8522  1.3180
 2730TIP3    H229826   4.134   4.962   6.487  0.9523  0.7026  1.2036
 2731TIP3   OH229827   2.041   2.243   0.861 -0.3205 -0.3074 -0.2313
 2731TIP3    H129828   1.997   2.172   0.907 -1.5349  0.3217 -0.3885
 2731TIP3    H229829   2.003   2.323   0.897  1.6441  0.3377  0.5753
 2732TIP3   OH229830   4.651   1.244   0.585  0.1759  0.5255  0.0362
 2732TIP3    H129831   4.705   1.169   0.612 -1.0266 -0.6405 -0.6353
 2732TIP3    H229832   4.634   1.292   0.666  1.8670  0.7188  0.3183
 2733TIP3   OH229833   6.710   6.914   6.199  0.4875 -0.5799  0.6434
 2733TIP3    H129834   6.671   6.989   6.243  0.8954 -0.3862  0.6812
 2733TIP3    H229835   6.675   6.837   6.245 -0.8046 -0.4673 -0.1054
 2734TIP3   OH229836   4.874   0.535   2.316  0.4759  0.2939 -0.5910
 2734TIP3    H129837   4.962   0.535   2.355  0.1274  1.3519  0.2222
 2734TIP3    H229838   4.829   0.608   2.357 -1.5383 -1.5340  0.6964
 2735TIP3   OH229839   4.201   1.512   8.104  0.1838 -0.8010 -0.1490
 2735TIP3    H129840   4.259   1.543   8.034  1.1648 -0.6253  0.7090
 2735TIP3    H229841   4.139   1.454   8.061  1.4343 -1.5436 -1.0123
 2736TIP3   OH229842   5.664   3.146   8.291  0.2175 -0.2871 -0.4607
 2736TIP3    H129843   5.741   3.173   8.240  0.0516  0.1942 -0.4634
 2736TIP3    H229844   5.690   3.160   8.382  0.9951 -2.3969 -0.3119
 2737TIP3   OH229845   2.152   4.134   0.418  0.1400  0.2500  0.0511
 2737TIP3    H129846   2.080   4.189   0.385  0.1164 -0.1088 -0.5111
 2737TIP3    H229847   2.229   4.191   0.416  0.1566  0.2121 -0.7208
 2738TIP3   OH229848   2.215   5.514   8.439  0.5871 -0.6319  0.2502
 2738TIP3    H129849   2.297   5.464   8.436  0.5855 -0.6894  1.0209
 2738TIP3    H229850   2.147   5.447   8.450  0.4182 -0.5967 -0.5478
 2739TIP3   OH229851   3.860   3.785   0.528  0.0628  0.3871 -0.0002
 2739TIP3    H129852   3.838   3.702   0.571 -1.0946  1.1718  1.0001
 2739TIP3    H229853   3.926   3.824   0.584 -0.4784  0.8018  0.3640
 2740TIP3   OH229854   2.132   1.819   1.119 -0.5699 -0.2162  0.5604
 2740TIP3    H129855   2.149   1.728   1.141  1.4333  0.3625  1.6877
 2740TIP3    H229856   2.212   1.865   1.144 -1.1251  1.7095 -0.9604
 2741TIP3   OH229857   1.141   6.554   1.074  0.1518  0.2787  0.0120
 2741TIP3    H129858   1.230   6.552   1.037  0.3184  0.1075  0.4229
 2741TIP3    H229859   1.108   6.641   1.051  0.7197  0.6454  0.5495
 2742TIP3   OH229860   1.266   6.152   6.554 -0.1356 -0.0727 -0.9289
 2742TIP3    H129861   1.232   6.066   6.579 -0.4912  0.6850  1.5433
 2742TIP3    H229862   1.192   6.211   6.570  0.1798  0.7471 -2.3593
 2743TIP3   OH229863   3.238   2.853   7.464 -0.0952 -0.1301  0.3030
 2743TIP3    H129864   3.312   2.821   7.413 -0.6595  0.1546 -0.7379
 2743TIP3    H229865   3.166   2.859   7.400 -0.7767  0.4121  1.0978
 2744TIP3   OH229866   2.308   1.312   8.299 -0.5056  0.1507 -0.1760
 2744TIP3    H129867   2.278   1.305   8.390 -0.0324 -1.8701 -0.1391
 2744TIP3    H229868   2.400   1.337   8.305 -0.2904 -0.6561 -0.0696
 2745TIP3   OH229869   5.763   4.168   8.278  0.4057  0.0483 -0.2669
 2745TIP3    H129870   5.834   4.207   8.227  0.1510  0.2136 -0.4998
 2745TIP3    H229871   5.713   4.243   8.311  0.3759 -0.0660 -0.0510
 2746TIP3   OH229872   3.274   5.911   0.457  0.4939  0.4293 -0.1090
 2746TIP3    H129873   3.183   5.915   0.486  0.6852  1.7931  0.3870
 2746TIP3    H229874   3.270   5.885   0.365 -0.3835  0.4622 -0.0813
 2747TIP3   OH229875   0.321   5.448   8.361  0.2476  0.3927  0.5804
 2747TIP3    H129876   0.339   5.492   8.444  2.1728  2.1766 -0.6857
 2747TIP3    H229877   0.255   5.503   8.318  0.9480  0.7841 -0.0191
 2748TIP3   OH229878   2.035   5.213   8.026 -0.0765 -0.0659  0.0107
 2748TIP3    H129879   2.034   5.125   8.062 -1.0309 -0.3294 -0.6169
 2748TIP3    H229880   2.019   5.201   7.932  1.0990  0.6870 -0.3191
 2749TIP3   OH229881   4.073   2.899   1.653 -0.7534 -0.9842 -0.2044
 2749TIP3    H129882   4.137   2.961   1.618 -1.4095  0.8199  1.6120
 2749TIP3    H229883   3.988   2.934   1.627 -1.1101 -1.7577 -0.1244
 2750TIP3   OH229884   2.761   4.069   0.827  0.1524  0.6932 -0.0609
 2750TIP3    H129885   2.796   4.133   0.889 -2.2699  1.6629  0.3965
 2750TIP3    H229886   2.723   4.122   0.757  1.5058 -0.3662 -1.6847
 2751TIP3   OH229887   5.590   2.070   1.631 -0.1736  0.1661 -0.2172
 2751TIP3    H129888   5.533   2.050   1.704  1.1639  1.2486  1.1996
 2751TIP3    H229889   5.654   2.133   1.666  2.0127 -1.1103 -1.6282
 2752TIP3   OH229890   5.497   0.828   0.419  0.2962 -0.1860 -0.3030
 2752TIP3    H129891   5.462   0.763   0.480  1.2797 -0.1639  0.2962
 2752TIP3    H229892   5.538   0.777   0.350 -1.2025 -0.2209 -1.2236
 2753TIP3   OH229893   2.605   2.163   2.177 -0.1154 -0.1866 -0.5864
 2753TIP3    H129894   2.544   2.236   2.174  1.0787  0.8305 -3.1640
 2753TIP3    H229895   2.668   2.181   2.107  3.1005 -1.2192  1.7747
 2754TIP3   OH229896   1.463   4.042   2.055 -0.2259 -0.2335  0.0468
 2754TIP3    H129897   1.530   4.051   2.123 -0.7817  1.8474  0.3907
 2754TIP3    H229898   1.380   4.051   2.102 -0.6632 -0.1031 -0.7341
 2755TIP3   OH229899   1.276   0.045   6.401 -0.1156 -0.1920  0.5042
 2755TIP3    H129900   1.237   0.006   6.323 -2.4306 -0.8585  1.9096
 2755TIP3    H229901   1.274  -0.024   6.467 -0.0633  0.9218  1.7291
 2756TIP3   OH229902   6.335   4.244   0.965  0.0927 -0.0912 -1.0002
 2756TIP3    H129903   6.283   4.179   1.012 -0.2323  0.8536 -0.0258
 2756TIP3    H229904   6.410   4.262   1.021 -0.0169  0.6534 -1.0755
 2757TIP3   OH229905   4.641   0.770   7.796  0.8524 -0.0859  0.5041
 2757TIP3    H129906   4.558   0.812   7.774  0.5123 -0.3249  1.2862
 2757TIP3    H229907   4.670   0.816   7.875  1.0729 -0.5269  0.6833
 2758TIP3   OH229908   2.262   0.527   7.290  0.1419 -0.3183  0.4990
 2758TIP3    H129909   2.351   0.523   7.327  0.7522 -0.7084 -0.9328
 2758TIP3    H229910   2.267   0.597   7.225 -0.0072 -1.6690 -1.0176
 2759TIP3   OH229911   0.127   1.645   0.184 -0.1618 -0.4778  0.3674
 2759TIP3    H129912   0.216   1.608   0.184 -0.2231 -0.6378 -0.1679
 2759TIP3    H229913   0.074   1.580   0.230  0.1327 -0.0265  1.3711
 2760TIP3   OH229914   1.122   1.550   1.618 -0.1509 -0.5170 -0.2425
 2760TIP3    H129915   1.184   1.562   1.546  0.8170  0.8224  0.7442
 2760TIP3    H229916   1.089   1.639   1.636  1.1746 -0.4241  2.2335
 2761TIP3   OH229917   2.529   3.826   1.720 -0.1809  0.0036 -0.5592
 2761TIP3    H129918   2.618   3.794   1.733  0.3510  0.4579 -2.6353
 2761TIP3    H229919   2.479   3.748   1.694  0.6632  0.3274 -3.6338
 2762TIP3   OH229920   6.711   0.707   7.642 -0.5078 -0.2207 -0.5002
 2762TIP3    H129921   6.780   0.728   7.705 -0.9062 -0.0119 -0.1280
 2762TIP3    H229922   6.634   0.753   7.675 -1.1059 -1.3194 -0.2914
 2763TIP3   OH229923   0.901   4.484   7.102  0.2589  0.1939 -0.0137
 2763TIP3    H129924   0.875   4.412   7.159  0.8292 -1.2991 -1.5790
 2763TIP3    H229925   0.824   4.540   7.098  0.7692  1.4640  3.7332
 2764TIP3   OH229926   4.594   5.497   1.905  0.0197 -0.0055 -0.1378
 2764TIP3    H129927   4.662   5.511   1.838  0.8283 -0.3204  0.5957
 2764TIP3    H229928   4.639   5.448   1.974 -0.5836  0.9831  0.9880
 2765TIP3   OH229929   3.256   2.093   7.772 -0.0532  0.5066  0.0028
 2765TIP3    H129930   3.352   2.089   7.764 -0.1784 -0.2072 -1.5833
 2765TIP3    H229931   3.236   2.186   7.777  0.6150  0.7777 -1.7598
 2766TIP3   OH229932   1.893   0.274   8.043 -0.1992  0.5697  0.1883
 2766TIP3    H129933   1.980   0.247   8.074 -0.1551  0.3159 -0.1533
 2766TIP3    H229934   1.907   0.302   7.953 -0.7570 -1.1513 -0.4830
 2767TIP3   OH229935   2.250   0.070   0.558 -0.4562 -0.3141  0.2453
 2767TIP3    H129936   2.169   0.075   0.609 -0.3028  1.4840  0.3677
 2767TIP3    H229937   2.300   0.148   0.584 -0.1025  0.3613 -2.1966
 2768TIP3   OH229938   0.492   5.153   1.158 -0.3424 -0.4085  0.3033
 2768TIP3    H129939   0.511   5.060   1.156  2.7843  0.1104 -1.6098
 2768TIP3    H229940   0.571   5.193   1.193 -0.4687  1.6591 -1.5292
 2769TIP3   OH229941   3.865   4.749   0.883  0.2892  0.5563  0.1315
 2769TIP3    H129942   3.797   4.694   0.845  0.1199  0.6293  0.3234
 2769TIP3    H229943   3.872   4.824   0.823  1.2957 -0.1904 -0.7320
 2770TIP3   OH229944   3.466   4.221   0.395  0.1589  0.6589 -0.2457
 2770TIP3    H129945   3.402   4.178   0.452  0.5873 -0.9740 -0.9186
 2770TIP3    H229946   3.415   4.287   0.348 -0.7145  0.3814  0.2738
 2771TIP3   OH229947   2.888   5.701   6.955 -0.0106  0.2062  0.3559
 2771TIP3    H129948   2.973   5.740   6.934  1.1214 -0.9480  2.4465
 2771TIP3    H229949   2.898   5.608   6.932 -0.1323 -0.2474  2.0505
 2772TIP3   OH229950   6.180   6.668   8.271 -0.5960  0.3287  0.1403
 2772TIP3    H129951   6.171   6.737   8.337  0.8185  0.5320  0.1497
 2772TIP3    H229952   6.259   6.620   8.298 -0.1476  0.2496 -1.2490
 2773TIP3   OH229953   2.922   6.527   7.087  0.1069 -0.0616  0.5790
 2773TIP3    H129954   2.962   6.442   7.072  1.4534  0.6998 -0.3863
 2773TIP3    H229955   2.943   6.577   7.009 -2.9436  0.3560 -0.0816
 2774TIP3   OH229956   4.516   5.780   2.443 -0.6794  0.2223  0.2270
 2774TIP3    H129957   4.424   5.803   2.432 -0.9933 -0.3325  1.5534
 2774TIP3    H229958   4.563   5.862   2.426 -1.4716  0.7315  0.4334
 2775TIP3   OH229959   1.205   1.800   0.274  0.0079 -0.0057 -0.2254
 2775TIP3    H129960   1.215   1.893   0.292 -2.3392 -0.0701  2.0453
 2775TIP3    H229961   1.235   1.756   0.353  0.3227 -1.1477 -0.9475
 2776TIP3   OH229962   2.356   4.308   7.230 -0.1384 -0.0032  0.2973
 2776TIP3    H129963   2.296   4.382   7.217 -0.4667 -0.0927  1.2108
 2776TIP3    H229964   2.441   4.348   7.245 -0.6438  0.3215  2.7166
 2777TIP3   OH229965   3.049   5.917   1.369  0.0506 -0.0981  0.1304
 2777TIP3    H129966   3.140   5.889   1.362 -0.5804 -2.0297 -0.9902
 2777TIP3    H229967   3.041   5.991   1.308  0.0459 -2.3202 -2.7739
 2778TIP3   OH229968   6.246   5.689   2.374  0.1756  0.4005 -0.2986
 2778TIP3    H129969   6.301   5.735   2.310  1.9935 -1.4253 -0.1387
 2778TIP3    H229970   6.305   5.627   2.416 -1.4237  0.2690  1.8780
 2779TIP3   OH229971   5.045   6.933   0.784 -0.5221 -0.2069  0.7444
 2779TIP3    H129972   5.125   6.977   0.755 -1.5748  0.3611 -1.4738
 2779TIP3    H229973   5.076   6.851   0.824  1.1270 -0.6475 -1.2666
 2780TIP3   OH229974   4.489   4.284   7.834  0.2455  0.3757  0.1453
 2780TIP3    H129975   4.446   4.219   7.889  0.0869  1.1636  0.9630
 2780TIP3    H229976   4.490   4.364   7.887  3.4684  0.1997  0.5490
 2781TIP3   OH229977   1.135   5.799   7.332 -0.9375  0.1130  0.2649
 2781TIP3    H129978   1.092   5.879   7.363 -1.0461 -0.8467  2.7775
 2781TIP3    H229979   1.091   5.728   7.379  2.5080 -1.0170  2.0857
 2782TIP3   OH229980   0.123   5.729   7.885 -0.5195 -0.0756  0.4028
 2782TIP3    H129981   0.099   5.819   7.863  1.6377  0.5210  0.2388
 2782TIP3    H229982   0.218   5.732   7.897 -0.4754 -2.2253  0.9668
 2783TIP3   OH229983   4.427   3.704   0.038 -0.7084 -0.1502  0.4182
 2783TIP3    H129984   4.361   3.706   0.107 -1.4724  0.0644 -0.3021
 2783TIP3    H229985   4.430   3.613   0.009 -0.9675 -0.0885  0.1937
 2784TIP3   OH229986   6.752   4.779   7.429  0.5054  0.3944 -0.1652
 2784TIP3    H129987   6.689   4.707   7.435 -0.5262  1.3162  0.3620
 2784TIP3    H229988   6.835   4.736   7.407  0.1579 -1.0710  1.1881
 2785TIP3   OH229989   4.417   4.063   0.563  0.0794  0.2596 -0.1867
 2785TIP3    H129990   4.448   3.979   0.531  1.3362  0.7430 -0.2978
 2785TIP3    H229991   4.439   4.125   0.494 -1.7022  0.5591 -0.5346
 2786TIP3   OH229992   6.424   4.999   1.905 -0.4703 -0.1817 -0.2299
 2786TIP3    H129993   6.394   5.047   1.828  0.0227  0.5992  0.0479
 2786TIP3    H229994   6.455   5.067   1.965  1.9726 -0.9108 -0.5521
 2787TIP3   OH229995   5.141   2.972   8.005  0.2117 -0.3845  0.1428
 2787TIP3    H129996   5.196   2.904   8.044 -1.7413 -2.0298  0.1759
 2787TIP3    H229997   5.102   3.017   8.080  3.5537  2.7433  0.2451
 2788TIP3   OH229998   5.394   3.437   0.357  0.0086  0.9581 -0.3332
 2788TIP3    H129999   5.462   3.454   0.292 -0.8693  1.6174 -1.1140
 2788TIP3    H230000   5.333   3.510   0.347 -0.2505  0.9657  1.1128
 2789TIP3   OH230001   2.936   0.029   8.582 -0.2719 -0.7505  0.4508
 2789TIP3    H130002   3.019   0.077   8.576 -0.9127  0.3682  0.0976
 2789TIP3    H230003   2.959  -0.054   8.624  0.9693 -0.3354  0.6471
 2790TIP3   OH230004   2.860   3.100   8.617 -0.9878 -0.5552  0.0623
 2790TIP3    H130005   2.905   3.175   8.579 -0.1027 -1.5536 -0.9189
 2790TIP3    H230006   2.928   3.052   8.665 -0.9203 -2.1300 -1.5036
 2791TIP3   OH230007   1.454   0.661   7.790  0.6903 -0.0009 -0.4163
 2791TIP3    H130008   1.480   0.650   7.882  2.2631 -1.6128 -0.9953
 2791TIP3    H230009   1.448   0.572   7.757 -0.9455  0.5214 -1.6290
 2792TIP3   OH230010   2.001   2.743   8.027 -0.3130  0.3115  0.8323
 2792TIP3    H130011   2.035   2.670   7.976 -0.5577  0.4925  0.4085
 2792TIP3    H230012   2.073   2.767   8.085  0.3415  0.7521 -0.1257
 2793TIP3   OH230013   2.980   3.351   0.242  0.0781 -0.7084 -0.3066
 2793TIP3    H130014   2.984   3.429   0.186  1.5176 -1.4642 -1.2965
 2793TIP3    H230015   2.893   3.314   0.225 -0.2931  0.2128 -0.4606
 2794TIP3   OH230016   3.297   2.695   8.556 -0.1968 -0.7986  0.1327
 2794TIP3    H130017   3.226   2.744   8.598 -0.4903  0.2653 -1.4972
 2794TIP3    H230018   3.324   2.631   8.621 -1.6905 -0.2777  1.3229
 2795TIP3   OH230019   4.065   1.316   7.916 -0.3781  0.5683 -0.3316
 2795TIP3    H130020   4.080   1.240   7.860 -1.1386 -1.2017  1.7103
 2795TIP3    H230021   3.974   1.340   7.899 -0.4902  0.2756 -0.1596
 2796TIP3   OH230022   2.265   2.145   1.894 -0.2264  0.2915 -0.8588
 2796TIP3    H130023   2.294   2.236   1.892  0.6048  0.0285 -0.9205
 2796TIP3    H230024   2.281   2.113   1.805 -0.6507  0.1257 -0.8780
 2797TIP3   OH230025   1.057   2.969   7.655  0.1231  0.1526  0.0377
 2797TIP3    H130026   1.028   3.004   7.739 -1.0019 -1.1273  0.2205
 2797TIP3    H230027   0.979   2.928   7.619  0.9275 -0.4672 -1.0369
 2798TIP3   OH230028   1.032   3.678   8.246  0.3505  0.3903 -0.4566
 2798TIP3    H130029   1.069   3.764   8.267 -0.4910  0.9089 -1.0455
 2798TIP3    H230030   0.984   3.652   8.324 -0.7724  1.2294 -0.8301
 2799TIP3   OH230031   0.308   4.822   7.563  0.3616  0.3318  0.0821
 2799TIP3    H130032   0.235   4.764   7.542  0.6777 -0.1381  0.2675
 2799TIP3    H230033   0.321   4.812   7.657 -2.6157  4.2547  1.1563
 2800TIP3   OH230034   6.649   4.241   2.860  0.2091  0.2533 -0.1780
 2800TIP3    H130035   6.635   4.335   2.848  0.1006  0.2448 -0.1196
 2800TIP3    H230036   6.567   4.200   2.833  0.2287  0.1806 -0.1307
 2801TIP3   OH230037   2.357   0.082   2.387 -0.2156  0.1399  0.5616
 2801TIP3    H130038   2.380   0.075   2.480  0.8117 -0.9971  0.2375
 2801TIP3    H230039   2.398   0.164   2.359 -0.8443  0.6834  1.1815
 2802TIP3   OH230040   3.140   0.149   6.433  0.2527  0.0353  0.1928
 2802TIP3    H130041   3.166   0.087   6.501  0.4981 -0.5988 -0.4648
 2802TIP3    H230042   3.176   0.233   6.462 -0.9211  0.1043  1.5935
 2803TIP3   OH230043   4.206   3.185   0.680 -0.5646 -0.0366 -0.0627
 2803TIP3    H130044   4.300   3.176   0.695 -0.4586 -1.2314 -1.2491
 2803TIP3    H230045   4.168   3.109   0.724 -0.8878 -0.0332 -0.3325
 2804TIP3   OH230046   6.818   5.818   6.428 -0.5202  0.5155  0.0815
 2804TIP3    H130047   6.732   5.840   6.462  0.3645  0.3888  2.5654
 2804TIP3    H230048   6.869   5.899   6.434 -0.0265  0.2116  0.1019
 2805TIP3   OH230049   6.058   4.010   8.550  0.3060  0.0069  0.0169
 2805TIP3    H130050   6.129   4.006   8.614 -1.4710  0.2454  2.1578
 2805TIP3    H230051   6.027   3.920   8.543  2.2006 -0.5248 -2.7006
 2806TIP3   OH230052   0.922   3.084   8.582 -0.1557 -0.5758  0.9811
 2806TIP3    H130053   0.899   3.149   8.515  1.1465 -0.6932  0.3735
 2806TIP3    H230054   0.919   3.132   8.664  0.6316  0.2516  0.5556
 2807TIP3   OH230055   0.775   3.394   0.950 -0.1261  0.1587  0.0416
 2807TIP3    H130056   0.732   3.309   0.961 -1.4092  0.5490 -1.5463
 2807TIP3    H230057   0.775   3.408   0.855  2.7152  0.6296  0.0274
 2808TIP3   OH230058   2.513   0.967   1.818 -0.1273 -0.0071 -0.0604
 2808TIP3    H130059   2.486   1.051   1.780 -1.7934 -0.9386 -1.0536
 2808TIP3    H230060   2.605   0.980   1.842 -0.3647  2.1165 -0.1018
 2809TIP3   OH230061   2.586   2.840   1.910 -0.1891 -0.5859  0.7105
 2809TIP3    H130062   2.497   2.854   1.940 -0.7970 -2.3535 -0.1169
 2809TIP3    H230063   2.635   2.816   1.988 -0.5997 -0.3004  1.0571
 2810TIP3   OH230064   5.344   5.222   2.067  0.5241 -0.2598  0.1045
 2810TIP3    H130065   5.324   5.146   2.122  1.2020  0.4415  1.3753
 2810TIP3    H230066   5.332   5.191   1.977 -0.9324 -1.3572  0.6424
 2811TIP3   OH230067   1.198   6.869   1.938  0.4333  0.1824  0.1469
 2811TIP3    H130068   1.222   6.947   1.888  1.0994 -0.2234 -0.1724
 2811TIP3    H230069   1.139   6.902   2.006  0.6122  0.9438 -0.0547
 2812TIP3   OH230070   2.846   5.008   0.254 -0.1284  0.6003 -0.0109
 2812TIP3    H130071   2.771   5.025   0.196 -0.1866  4.2725  0.8643
 2812TIP3    H230072   2.818   5.041   0.339  1.4582 -0.7761  1.1035
 2813TIP3   OH230073   5.236   2.292   1.296 -0.2515 -0.5288 -0.5331
 2813TIP3    H130074   5.270   2.379   1.315 -1.5950  0.0623 -0.7584
 2813TIP3    H230075   5.147   2.293   1.329 -0.4974 -1.6068 -1.1215
 2814TIP3   OH230076   2.468   3.557   8.427  0.0713  0.6377  0.4687
 2814TIP3    H130077   2.435   3.626   8.369  0.0699 -0.1773 -0.5281
 2814TIP3    H230078   2.563   3.571   8.429  0.1315  0.3587 -0.1601
 2815TIP3   OH230079   3.501   3.033   8.247  0.3465 -0.2132  0.0064
 2815TIP3    H130080   3.556   3.032   8.169  1.1562  0.6125  0.5419
 2815TIP3    H230081   3.420   3.077   8.220  0.6588  0.1517 -0.3402
 2816TIP3   OH230082   5.332   1.946   2.101 -0.5229 -0.2655  0.1408
 2816TIP3    H130083   5.345   1.946   2.196 -0.2474  2.5744  0.2117
 2816TIP3    H230084   5.309   2.037   2.081  0.6286 -0.5099 -2.6639
 2817TIP3   OH230085   4.984   6.866   7.265 -0.2000  0.7791 -0.2902
 2817TIP3    H130086   5.054   6.825   7.215  0.1261  0.1813  0.6394
 2817TIP3    H230087   4.930   6.793   7.294 -0.6665  1.1626 -0.1798
 2818TIP3   OH230088   4.692   6.902   0.915 -0.2565 -0.2396  0.2510
 2818TIP3    H130089   4.695   6.933   0.825 -2.9530 -2.0418 -0.5951
 2818TIP3    H230090   4.622   6.953   0.956  0.1592 -0.2347  0.9668
 2819TIP3   OH230091   2.482   0.634   2.270 -0.1192  0.3170  0.1587
 2819TIP3    H130092   2.471   0.634   2.175  1.6017  0.4255 -0.0676
 2819TIP3    H230093   2.394   0.653   2.304 -0.4228  2.1186 -1.4511
 2820TIP3   OH230094   5.231   1.022   1.557  0.4793  0.2869  0.3481
 2820TIP3    H130095   5.294   1.009   1.486  1.0820  0.6779  0.8055
 2820TIP3    H230096   5.283   1.016   1.637 -0.1443  0.1511  0.7506
 2821TIP3   OH230097   6.739   2.993   1.083  0.2079  0.3482  0.2641
 2821TIP3    H130098   6.699   3.056   1.022  0.5245  0.4868  0.1971
 2821TIP3    H230099   6.833   3.007   1.073  0.2686  0.1705  0.5765
 2822TIP3   OH230100   1.858   6.067   0.137 -0.7868  0.0029 -0.6763
 2822TIP3    H130101   1.775   6.107   0.108 -1.0229 -0.9109 -1.3144
 2822TIP3    H230102   1.909   6.141   0.171 -1.7749  0.6190 -0.4665
 2823TIP3   OH230103   5.253   5.836   8.565  0.2021 -0.7150  0.1449
 2823TIP3    H130104   5.191   5.843   8.638  1.0172 -1.3332  0.9220
 2823TIP3    H230105   5.197   5.827   8.488 -0.7075 -1.9675  0.8957
 2824TIP3   OH230106   1.864   0.550   0.302 -0.5381 -0.2973 -0.1237
 2824TIP3    H130107   1.821   0.635   0.304  0.3763  0.2640 -2.1624
 2824TIP3    H230108   1.794   0.487   0.321 -1.4270  0.8163  0.4061
 2825TIP3   OH230109   3.718   0.421   7.759 -0.3932  0.4588  0.6916
 2825TIP3    H130110   3.726   0.440   7.853 -0.8951 -1.8749  1.2714
 2825TIP3    H230111   3.628   0.447   7.738 -0.2058  1.2131  0.7679
 2826TIP3   OH230112   4.091   1.722   7.719  0.6486  0.3326 -0.4457
 2826TIP3    H130113   3.998   1.705   7.703  0.3464  1.7377 -0.2832
 2826TIP3    H230114   4.112   1.797   7.663  1.7590 -0.1072 -0.6546
 2827TIP3   OH230115   2.002   5.502   1.376  0.1688 -0.8319 -0.2121
 2827TIP3    H130116   1.932   5.536   1.321  1.0665  0.2325 -0.7527
 2827TIP3    H230117   1.968   5.421   1.412 -0.9012 -0.9245 -1.3748
 2828TIP3   OH230118   5.429   1.663   7.904  0.0345  0.1780  0.4323
 2828TIP3    H130119   5.335   1.646   7.904 -0.4921  2.0206 -3.4768
 2828TIP3    H230120   5.439   1.741   7.960 -0.8036  0.1128  0.6791
 2829TIP3   OH230121   5.873   3.034   7.571  0.0329  0.7108 -1.0616
 2829TIP3    H130122   5.780   3.009   7.564  0.2028  0.5386 -3.6852
 2829TIP3    H230123   5.912   2.963   7.623 -0.7860 -0.9143 -2.5382
 2830TIP3   OH230124   1.534   3.690   2.013  0.2614  0.7000  0.1820
 2830TIP3    H130125   1.551   3.638   2.091  1.3422  1.4112  0.4497
 2830TIP3    H230126   1.452   3.737   2.032 -1.6062 -1.9698 -0.6842
 2831TIP3   OH230127   2.155   6.660   7.982  0.1858  0.2205  0.0639
 2831TIP3    H130128   2.189   6.737   7.937  1.2142  1.0051  2.0586
 2831TIP3    H230129   2.126   6.693   8.067 -1.5394 -1.2158  0.0852
 2832TIP3   OH230130   0.065   5.932   8.155  0.5516  0.5656  0.5743
 2832TIP3    H130131   0.105   5.981   8.227  0.9842  1.9014 -0.5064
 2832TIP3    H230132   0.019   5.999   8.104 -2.1251 -0.7500  1.1209
 2833TIP3   OH230133   1.217   3.108   1.174 -0.2835  0.0061  0.0910
 2833TIP3    H130134   1.311   3.089   1.178  0.0167  1.6181  1.3661
 2833TIP3    H230135   1.176   3.026   1.202  0.7151 -0.6997 -0.4045
 2834TIP3   OH230136   3.170   6.536   7.645 -0.2901  0.1861 -0.2873
 2834TIP3    H130137   3.164   6.444   7.670 -0.5084 -0.0461 -1.1663
 2834TIP3    H230138   3.256   6.544   7.605 -1.0472 -0.1308 -2.0845
 2835TIP3   OH230139   6.727   3.802   1.068 -0.4512  0.0149  0.3700
 2835TIP3    H130140   6.713   3.791   1.162 -1.4886  1.8190  0.4743
 2835TIP3    H230141   6.792   3.736   1.045  0.3945  0.0471  2.5031
 2836TIP3   OH230142   2.863   3.851   7.546  0.1251 -0.4345  0.1486
 2836TIP3    H130143   2.773   3.881   7.559  0.2040 -0.2878  0.3695
 2836TIP3    H230144   2.855   3.766   7.502 -0.1242 -0.5194  0.3613
 2837TIP3   OH230145   3.790   0.814   1.526  0.2501 -0.0872 -0.0464
 2837TIP3    H130146   3.762   0.775   1.443  1.2064 -0.4858 -0.1967
 2837TIP3    H230147   3.876   0.775   1.543  1.1549  1.7699 -0.0947
 2838TIP3   OH230148   4.840   0.003   2.057 -0.0914  0.2472 -0.0485
 2838TIP3    H130149   4.875   0.062   1.990  1.4753 -1.2028 -0.5792
 2838TIP3    H230150   4.910  -0.059   2.073 -1.4602 -1.1180  0.9442
 2839TIP3   OH230151   3.044   5.183   1.239  0.1308  0.3360  0.3874
 2839TIP3    H130152   2.977   5.123   1.205  0.4632  0.8957 -1.3545
 2839TIP3    H230153   3.125   5.133   1.235  0.6073  1.2101 -2.1693
 2840TIP3   OH230154   3.923   2.338   7.283 -0.0418 -0.0562  0.0514
 2840TIP3    H130155   3.828   2.345   7.291 -0.1474 -1.4139  0.2048
 2840TIP3    H230156   3.946   2.404   7.218 -0.9545  0.9715  0.7173
 2841TIP3   OH230157   5.945   4.685   7.672  0.2086 -0.0127 -0.0182
 2841TIP3    H130158   6.026   4.639   7.695 -0.2864 -0.3092  1.2150
 2841TIP3    H230159   5.885   4.616   7.643  0.4305  0.2204 -1.0419
 2842TIP3   OH230160   0.205   5.981   7.194  0.7793  0.3308  0.0654
 2842TIP3    H130161   0.301   5.982   7.186  1.0577  4.6842  1.1163
 2842TIP3    H230162   0.173   5.984   7.104  1.7675  1.4055 -0.2700
 2843TIP3   OH230163   2.703   4.848   8.447  0.1918 -0.4848  0.0128
 2843TIP3    H130164   2.636   4.803   8.396  0.4541 -1.9895  0.9029
 2843TIP3    H230165   2.724   4.927   8.397 -0.7671 -1.0366 -1.3074
 2844TIP3   OH230166   0.767   2.599   0.399 -0.3079 -0.0597 -0.1143
 2844TIP3    H130167   0.705   2.614   0.470 -0.2406  0.6019 -0.1935
 2844TIP3    H230168   0.713   2.591   0.321 -0.5241 -2.4292  0.2089
 2845TIP3   OH230169   3.457   0.936   1.305 -0.0042 -0.3391  0.3861
 2845TIP3    H130170   3.530   0.877   1.284  0.8830  1.2325 -1.3007
 2845TIP3    H230171   3.470   1.011   1.246 -1.3771  1.2939  2.0336
 2846TIP3   OH230172   1.968   1.989   8.255  0.5273 -0.3497 -0.2227
 2846TIP3    H130173   2.007   2.071   8.287 -1.4785  0.4769  0.2752
 2846TIP3    H230174   2.018   1.968   8.177  0.3956  2.0150 -1.0266
 2847TIP3   OH230175   6.123   6.886   7.219 -0.0360 -0.0523 -0.2521
 2847TIP3    H130176   6.144   6.916   7.131  0.8278 -1.6697 -0.6381
 2847TIP3    H230177   6.196   6.829   7.243 -0.2905  0.3083  1.4950
 2848TIP3   OH230178   6.155   4.441   1.190 -0.2105 -0.2403 -0.2371
 2848TIP3    H130179   6.144   4.454   1.284 -2.5336 -0.9765 -0.3311
 2848TIP3    H230180   6.156   4.346   1.179 -1.1629 -0.1838 -1.0155
 2849TIP3   OH230181   2.789   6.033   7.486 -0.2650 -0.3648 -0.1944
 2849TIP3    H130182   2.714   5.978   7.466  0.0453 -0.7166 -0.4225
 2849TIP3    H230183   2.811   6.074   7.402 -1.8673  1.8886  0.4083
 2850TIP3   OH230184   6.811   2.011   0.141  0.2457  0.2373 -0.5606
 2850TIP3    H130185   6.797   2.104   0.123 -0.2484 -0.1340 -2.2532
 2850TIP3    H230186   6.898   1.993   0.105  0.2618 -0.0021 -0.4007
 2851TIP3   OH230187   2.512   3.290   8.257  0.1134  0.1227 -0.3726
 2851TIP3    H130188   2.459   3.229   8.204  1.5011 -0.4150 -1.1860
 2851TIP3    H230189   2.447   3.347   8.299 -1.1528 -1.0306 -0.6828
 2852TIP3   OH230190   6.282   3.885   0.891 -0.0408  0.0424 -0.6196
 2852TIP3    H130191   6.343   3.925   0.829 -0.4320  0.6177 -0.6431
 2852TIP3    H230192   6.330   3.810   0.926  1.0567  1.0206  0.0653
 2853TIP3   OH230193   0.318   6.309   1.610 -0.2024 -0.3777 -0.3948
 2853TIP3    H130194   0.236   6.320   1.658 -0.8637  1.4100 -1.8032
 2853TIP3    H230195   0.295   6.252   1.536  0.0886 -0.7428 -0.2054
 2854TIP3   OH230196   1.085   4.641   7.416  0.0450 -0.1057  0.1420
 2854TIP3    H130197   1.140   4.716   7.394  1.6718 -1.1582  0.4133
 2854TIP3    H230198   0.998   4.664   7.384  1.0257  0.8613 -2.0342
 2855TIP3   OH230199   0.443   3.907   7.511 -0.2669  0.3039  0.2488
 2855TIP3    H130200   0.396   3.854   7.446 -0.2744  0.1368  0.3884
 2855TIP3    H230201   0.456   3.992   7.468  0.0719  0.0709 -0.1214
 2856TIP3   OH230202   3.455   6.053   1.203 -0.6258  0.0856 -0.6082
 2856TIP3    H130203   3.417   5.970   1.174 -1.6043  0.3206 -0.0439
 2856TIP3    H230204   3.523   6.027   1.265 -1.5620 -0.2945  0.2968
 2857TIP3   OH230205   3.986   5.475   0.068 -0.1199  0.6105 -0.7571
 2857TIP3    H130206   3.947   5.549   0.022 -1.8109  0.7108  0.7113
 2857TIP3    H230207   3.928   5.402   0.050 -1.1014  0.7611  1.4893
 2858TIP3   OH230208   3.508   6.260   7.007  0.0504  0.6369 -0.0641
 2858TIP3    H130209   3.602   6.278   7.006  0.1889 -0.0780 -0.8906
 2858TIP3    H230210   3.486   6.241   6.916  0.0844 -3.9396  0.6238
 2859TIP3   OH230211   3.461   2.227   1.040 -0.4453 -0.3942  0.0382
 2859TIP3    H130212   3.460   2.311   1.086  0.5897 -0.4325  0.1351
 2859TIP3    H230213   3.400   2.240   0.967  0.5042  0.8144 -0.5840
 2860TIP3   OH230214   6.063   3.040   7.333 -0.2773 -0.7024  0.0310
 2860TIP3    H130215   5.984   3.073   7.377  0.4568 -0.2189  1.0235
 2860TIP3    H230216   6.101   2.978   7.395 -0.0625 -1.2263 -0.6053
 2861TIP3   OH230217   3.545   6.302   2.638  0.2179  0.3712 -0.1634
 2861TIP3    H130218   3.603   6.316   2.713 -0.9808  0.4340  0.7932
 2861TIP3    H230219   3.602   6.309   2.562  1.5055  0.1471  0.7453
 2862TIP3   OH230220   6.436   5.784   0.488  0.4323  0.1469  0.0742
 2862TIP3    H130221   6.522   5.755   0.459  0.6986  1.2118 -0.2348
 2862TIP3    H230222   6.383   5.786   0.408 -0.0737 -1.1187  0.3586
 2863TIP3   OH230223   6.000   0.745   2.612 -0.8129  0.2788  0.4987
 2863TIP3    H130224   6.069   0.712   2.555 -1.5724 -0.2907 -0.1238
 2863TIP3    H230225   6.017   0.839   2.619  0.1692  0.1071  0.5819
 2864TIP3   OH230226   4.514   1.502   8.274 -0.3005  0.6517  0.2884
 2864TIP3    H130227   4.508   1.413   8.239 -0.2308  1.2499 -1.3599
 2864TIP3    H230228   4.580   1.545   8.218  0.5295  1.4148  1.7861
 2865TIP3   OH230229   2.031   4.537   1.767 -1.1795  0.7506 -0.1713
 2865TIP3    H130230   2.082   4.606   1.726 -1.1112  0.9754  0.2854
 2865TIP3    H230231   2.085   4.507   1.840 -1.0986  0.0422 -0.5120
 2866TIP3   OH230232   0.104   2.006   8.586 -0.3718 -0.2402 -0.3006
 2866TIP3    H130233   0.169   1.935   8.591 -0.5700 -0.7607 -3.2965
 2866TIP3    H230234   0.136   2.063   8.516 -0.5769  2.3532  1.5768
 2867TIP3   OH230235   6.835   0.090   0.519  0.0431  0.3582 -0.2439
 2867TIP3    H130236   6.828   0.090   0.615 -2.3693  2.5893 -0.3115
 2867TIP3    H230237   6.926   0.069   0.502  0.9553  1.4824  2.6172
 2868TIP3   OH230238   1.811   6.868   7.754  0.2158  0.0430  0.3610
 2868TIP3    H130239   1.791   6.805   7.824 -2.1019  0.0104 -0.2343
 2868TIP3    H230240   1.762   6.836   7.678  3.0888 -0.2178 -1.5232
 2869TIP3   OH230241   4.812   4.970   0.991 -0.6352 -0.5130  0.0741
 2869TIP3    H130242   4.742   4.950   1.054 -0.5730  0.1333  0.3574
 2869TIP3    H230243   4.882   5.007   1.044 -0.1139 -1.0709 -0.2238
 2870TIP3   OH230244   5.156   0.680   7.589 -0.5870  0.5356  0.1117
 2870TIP3    H130245   5.169   0.771   7.564  0.6166  0.0903 -1.0068
 2870TIP3    H230246   5.077   0.680   7.643 -1.3684  2.0467 -0.9726
 2871TIP3   OH230247   2.793   4.927   6.158  0.3079  0.0881 -0.3446
 2871TIP3    H130248   2.814   5.013   6.195  1.1463 -1.1243  2.1924
 2871TIP3    H230249   2.698   4.917   6.172  0.1916  0.6297 -0.7346
 2872TIP3   OH230250   2.404   5.378   6.866  0.3434 -0.1018 -0.1154
 2872TIP3    H130251   2.373   5.440   6.799 -0.2468  0.0535  0.2914
 2872TIP3    H230252   2.459   5.431   6.923  2.6622 -0.6706 -1.6561
 2873TIP3   OH230253   0.893   2.339   7.885  0.2398 -0.4111  0.1187
 2873TIP3    H130254   0.882   2.432   7.866  0.8803 -0.1484  0.9507
 2873TIP3    H230255   0.863   2.329   7.975 -0.4684 -1.1525 -0.1846
 2874TIP3   OH230256   3.231   3.284   7.067  0.1816 -0.4862 -0.0485
 2874TIP3    H130257   3.317   3.251   7.040  1.1828  0.1355  2.1303
 2874TIP3    H230258   3.203   3.340   6.994  0.5233 -2.4659 -1.7895
 2875TIP3   OH230259   1.692   6.794   8.476 -0.2219  0.1331  0.0739
 2875TIP3    H130260   1.709   6.841   8.557 -2.3855 -0.3246  0.8668
 2875TIP3    H230261   1.597   6.795   8.467 -0.0831 -0.5103 -2.0685
 2876TIP3   OH230262   1.097   6.130   7.827  0.1031 -0.2305  0.3148
 2876TIP3    H130263   1.047   6.143   7.907 -0.0019  0.7233  0.1108
 2876TIP3    H230264   1.187   6.115   7.857  0.5641  2.5692  0.5914
 2877TIP3   OH230265   6.626   6.465   7.943  0.5379 -0.8762  0.0553
 2877TIP3    H130266   6.704   6.465   7.998 -0.4679 -1.2548  1.5146
 2877TIP3    H230267   6.608   6.557   7.926  0.7584 -0.7472  0.5164
 2878TIP3   OH230268   1.673   2.654   2.294 -0.5086 -0.1564  0.4145
 2878TIP3    H130269   1.732   2.625   2.363 -1.3733  1.4945  1.9578
 2878TIP3    H230270   1.687   2.593   2.222  0.1361 -2.2304  2.1876
 2879TIP3   OH230271   0.164   3.583   2.211 -0.5450 -0.3722 -0.0740
 2879TIP3    H130272   0.176   3.532   2.291 -2.3004 -0.1787  0.3652
 2879TIP3    H230273   0.142   3.519   2.144  1.0013 -0.5420 -0.4336
 2880TIP3   OH230274   2.052   4.535   8.180  0.0949  0.4833 -0.2812
 2880TIP3    H130275   2.078   4.608   8.124  0.4610  1.3181  0.9538
 2880TIP3    H230276   2.032   4.575   8.264  1.5230 -0.9777  0.7984
 2881TIP3   OH230277   1.739   1.809   1.558 -0.5202 -0.6082 -0.5984
 2881TIP3    H130278   1.685   1.887   1.545 -1.1063 -0.8406  0.3464
 2881TIP3    H230279   1.815   1.842   1.608 -1.0706 -0.7430  0.3425
 2882TIP3   OH230280   1.151   3.911   0.179  0.0679 -0.2722  0.5647
 2882TIP3    H130281   1.217   3.845   0.160 -0.5427 -0.6258 -0.3646
 2882TIP3    H230282   1.169   3.982   0.117 -0.3357 -0.3083  0.4033
 2883TIP3   OH230283   0.111   5.762   0.317  0.7316 -0.2257  0.5325
 2883TIP3    H130284   0.119   5.675   0.278  2.6761  0.2323 -0.2133
 2883TIP3    H230285   0.098   5.821   0.243 -1.3609  0.1038  1.0865
 2884TIP3   OH230286   1.881   0.802   1.342 -0.1396  0.1819 -0.6023
 2884TIP3    H130287   1.867   0.712   1.311  0.2558 -0.2867  0.5035
 2884TIP3    H230288   1.864   0.797   1.436 -1.0137  1.4800 -0.6637
 2885TIP3   OH230289   2.119   1.112   6.979  0.0645  0.0927 -0.6877
 2885TIP3    H130290   2.094   1.181   7.041 -2.2380 -0.3017 -1.1015
 2885TIP3    H230291   2.172   1.158   6.913  1.2496  0.8085  0.6808
 2886TIP3   OH230292   5.670   5.685   8.487  0.5273 -0.5127  0.3896
 2886TIP3    H130293   5.744   5.629   8.467  3.7397  2.9461  1.4799
 2886TIP3    H230294   5.654   5.672   8.581  1.5933  0.6217  0.7523
 2887TIP3   OH230295   5.536   5.707   7.807  0.1807 -0.3183 -0.2377
 2887TIP3    H130296   5.571   5.706   7.896  1.0473  2.1275 -0.4709
 2887TIP3    H230297   5.445   5.678   7.816  0.2395 -0.0596  1.4366
 2888TIP3   OH230298   5.323   0.480   7.527  0.8326 -0.1029 -0.3979
 2888TIP3    H130299   5.272   0.554   7.559 -0.7335 -0.8802 -0.9940
 2888TIP3    H230300   5.338   0.499   7.434  0.7778 -0.3346 -0.4560
 2889TIP3   OH230301   4.899   2.790   8.461  0.4695  0.2259 -0.5271
 2889TIP3    H130302   4.968   2.855   8.450 -0.5145  1.1610 -1.3809
 2889TIP3    H230303   4.819   2.833   8.430 -0.4275 -0.9860 -0.0123
 2890TIP3   OH230304   1.739   3.451   8.396 -0.0259  0.0868  0.2268
 2890TIP3    H130305   1.770   3.540   8.407 -2.2125  1.0930 -1.0344
 2890TIP3    H230306   1.660   3.459   8.342 -0.5733 -2.5621  0.4640
 2891TIP3   OH230307   0.938   6.494   6.360  0.1248 -0.4812  0.0557
 2891TIP3    H130308   0.899   6.578   6.332  0.3247 -1.0927 -2.3232
 2891TIP3    H230309   0.899   6.476   6.445 -0.9577  1.3724  0.0038
 2892TIP3   OH230310   5.274   5.675   7.848 -0.3290  0.2432 -0.6395
 2892TIP3    H130311   5.216   5.733   7.799  0.7785 -0.6164 -3.1308
 2892TIP3    H230312   5.248   5.587   7.822  2.1236 -0.1703 -2.0046
 2893TIP3   OH230313   0.992   2.876   0.222 -0.5878  0.0891 -0.3396
 2893TIP3    H130314   1.015   2.786   0.244  1.7178  0.8375  0.5146
 2893TIP3    H230315   0.897   2.874   0.208 -0.3983 -2.7527 -1.8363
 2894TIP3   OH230316   1.982   6.295   1.289  0.3662 -0.1009 -0.0262
 2894TIP3    H130317   1.900   6.247   1.300  0.7126 -0.3321  1.7927
 2894TIP3    H230318   2.048   6.241   1.331  0.8294  1.7396  1.8195
 2895TIP3   OH230319   0.258   6.234   0.131 -0.2559  0.3936 -0.1136
 2895TIP3    H130320   0.283   6.145   0.157  0.7795  1.0760  1.3812
 2895TIP3    H230321   0.339   6.285   0.141 -1.1084  1.7271  0.1617
 2896TIP3   OH230322   1.894   3.482   6.786 -0.1646  0.1317 -1.0562
 2896TIP3    H130323   1.875   3.572   6.761  2.0765  0.9837  0.0165
 2896TIP3    H230324   1.973   3.460   6.735  2.5587  0.7732  2.4980
 2897TIP3   OH230325   1.663   0.208   1.740  0.0078 -0.2067  0.2269
 2897TIP3    H130326   1.741   0.155   1.754  0.2214  0.1384  0.3742
 2897TIP3    H230327   1.638   0.237   1.828  0.8651  1.2933  0.0186
 2898TIP3   OH230328   0.327   1.975   7.605 -0.3300  0.2337  0.1356
 2898TIP3    H130329   0.320   1.915   7.530  0.1315 -3.1614  2.6093
 2898TIP3    H230330   0.397   2.036   7.580  3.7459 -4.0568 -0.3055
 2899TIP3   OH230331   1.646   1.126   7.464 -0.4443  0.1954 -0.2028
 2899TIP3    H130332   1.638   1.220   7.478 -3.3044  0.4090 -2.4822
 2899TIP3    H230333   1.618   1.088   7.547  2.2454  1.1999  1.3182
 2900TIP3   OH230334   2.496   3.486   1.192 -0.3403  0.0999 -0.8298
 2900TIP3    H130335   2.456   3.406   1.225 -0.3099 -0.3335 -1.8100
 2900TIP3    H230336   2.425   3.550   1.189 -0.4448  0.0050 -0.3930
 2901TIP3   OH230337   0.707   4.334   1.907  0.1128 -0.0002  0.2882
 2901TIP3    H130338   0.762   4.395   1.957 -0.8625  1.2440 -0.0943
 2901TIP3    H230339   0.751   4.326   1.823  0.0344  0.5027  0.1974
 2902TIP3   OH230340   1.535   3.784   0.516 -0.6725  0.0170  0.0839
 2902TIP3    H130341   1.519   3.865   0.566  0.1846  0.8042 -0.8728
 2902TIP3    H230342   1.613   3.747   0.557  0.8103  1.3343 -1.3959
 2903TIP3   OH230343   3.879   4.984   0.757  0.0599  0.0808 -0.9113
 2903TIP3    H130344   3.825   5.058   0.784  0.6718  0.3017 -0.2466
 2903TIP3    H230345   3.967   5.022   0.747  0.4296 -0.6043 -0.3064
 2904TIP3   OH230346   5.001   0.114   1.293  0.8601  0.3464 -0.6587
 2904TIP3    H130347   5.043   0.135   1.376 -1.2660 -0.0149  0.5697
 2904TIP3    H230348   5.016   0.191   1.238 -0.0351  1.7723  1.0228
 2905TIP3   OH230349   1.619   5.317   1.588 -0.0934 -0.0073 -0.4368
 2905TIP3    H130350   1.609   5.279   1.501  0.8392 -1.2876 -0.0284
 2905TIP3    H230351   1.713   5.338   1.594 -0.2590  0.6220  0.0495
 2906TIP3   OH230352   6.747   1.816   1.632 -0.1283  0.9076 -0.6874
 2906TIP3    H130353   6.721   1.803   1.540 -1.1770  2.6540 -0.6821
 2906TIP3    H230354   6.822   1.758   1.644  0.6927  1.3892 -2.9671
 2907TIP3   OH230355   2.929   5.631   8.254  0.3870  0.6308  0.4256
 2907TIP3    H130356   2.990   5.589   8.192 -0.4733 -0.7750  0.5027
 2907TIP3    H230357   2.975   5.628   8.338  0.5955  0.4349  0.3078
 2908TIP3   OH230358   6.180   2.768   8.121  0.5073 -0.5362  0.0690
 2908TIP3    H130359   6.116   2.803   8.183  0.4516 -0.1077 -0.2286
 2908TIP3    H230360   6.210   2.844   8.071 -0.2900 -1.0413 -1.2190
 2909TIP3   OH230361   1.487   0.008   0.620  0.4896  0.1997 -0.5308
 2909TIP3    H130362   1.513   0.094   0.587  1.3927 -0.9781 -3.0451
 2909TIP3    H230363   1.531  -0.055   0.564  1.6403 -2.0300  2.5630
 2910TIP3   OH230364   6.467   0.996   2.157 -0.5111  0.1696  0.1916
 2910TIP3    H130365   6.401   1.026   2.219  0.1575  0.2875  0.8627
 2910TIP3    H230366   6.526   1.070   2.147 -0.0655 -0.1807  0.1848
 2911TIP3   OH230367   4.605   3.364   1.676  0.2267  0.2789 -0.5477
 2911TIP3    H130368   4.689   3.321   1.688  0.2950  0.1027 -1.5544
 2911TIP3    H230369   4.625   3.440   1.620  0.0993  1.5945  1.1060
 2912TIP3   OH230370   6.056   3.380   0.823 -0.1880  0.4054  0.4127
 2912TIP3    H130371   5.963   3.357   0.830 -0.0531  0.1904  1.7557
 2912TIP3    H230372   6.094   3.350   0.906  0.8037  1.7949  0.4853
 2913TIP3   OH230373   3.920   4.525   7.230  0.3188 -0.1562 -0.2135
 2913TIP3    H130374   4.010   4.544   7.205  0.0544  0.4770 -0.7219
 2913TIP3    H230375   3.888   4.467   7.161  0.2376 -0.1431 -0.1866
 2914TIP3   OH230376   4.541   3.754   0.687 -1.0542 -0.3460 -0.1805
 2914TIP3    H130377   4.543   3.658   0.692 -0.3067 -0.3494 -0.3845
 2914TIP3    H230378   4.533   3.772   0.593  0.9960 -0.2119 -0.3730
 2915TIP3   OH230379   2.775   0.262   1.001 -0.0314 -0.1192  0.4170
 2915TIP3    H130380   2.841   0.225   0.943  0.8038  0.7759  0.7558
 2915TIP3    H230381   2.747   0.188   1.055  1.8908 -0.2420  1.3564
 2916TIP3   OH230382   2.157   1.517   0.746 -0.3784 -0.1632  0.6085
 2916TIP3    H130383   2.228   1.485   0.691 -0.6497  0.3086 -0.0211
 2916TIP3    H230384   2.141   1.446   0.809 -0.3020 -0.8416 -0.1315
 2917TIP3   OH230385   1.348   3.307   1.476 -0.5139  0.1056 -0.3736
 2917TIP3    H130386   1.371   3.293   1.384 -1.9765  1.8771 -1.0617
 2917TIP3    H230387   1.268   3.256   1.489 -0.0617 -0.5087  0.0721
 2918TIP3   OH230388   2.592   5.410   2.466 -0.0407  0.1315  0.3285
 2918TIP3    H130389   2.621   5.494   2.501 -1.0510  1.1138 -1.0582
 2918TIP3    H230390   2.672   5.362   2.447  0.5703 -0.3117  3.4748
 2919TIP3   OH230391   5.841   0.348   0.311  0.2367  0.2092 -0.0133
 2919TIP3    H130392   5.874   0.262   0.338  0.9311  0.4146 -0.1804
 2919TIP3    H230393   5.807   0.334   0.223 -1.6932 -0.3798  0.7734
 2920TIP3   OH230394   6.920   1.841   1.358  0.0828  0.4432 -0.2376
 2920TIP3    H130395   6.825   1.851   1.353  0.0491  0.2206 -0.0622
 2920TIP3    H230396   6.945   1.882   1.440  0.3103  1.7203 -0.9153
 2921TIP3   OH230397   2.199   0.269   0.318  0.3583  0.4306 -0.2667
 2921TIP3    H130398   2.247   0.345   0.350 -0.4472  1.3735 -1.2183
 2921TIP3    H230399   2.190   0.212   0.395 -0.6279  2.1384  0.9533
 2922TIP3   OH230400   5.536   2.832   1.333  0.2357 -0.5205 -0.0970
 2922TIP3    H130401   5.441   2.830   1.343  0.0176  0.5382 -1.5122
 2922TIP3    H230402   5.559   2.744   1.302 -0.4480 -0.4369 -0.8629
 2923TIP3   OH230403   0.542   6.511   1.092  0.1547 -0.7153 -0.1022
 2923TIP3    H130404   0.542   6.439   1.154 -0.3215  0.5421  1.4308
 2923TIP3    H230405   0.601   6.576   1.130 -0.3311  0.1962 -0.8460
 2924TIP3   OH230406   6.751   1.009   7.698 -0.1763  0.8087 -0.2608
 2924TIP3    H130407   6.678   0.966   7.743 -0.1898 -0.4507 -1.4449
 2924TIP3    H230408   6.786   1.071   7.763 -0.4526 -0.6476  1.3499
 2925TIP3   OH230409   0.170   1.905   0.331 -0.0649 -0.2696 -0.8045
 2925TIP3    H130410   0.220   1.935   0.255  3.3856 -1.4219  0.7944
 2925TIP3    H230411   0.141   1.817   0.308  1.1711 -0.7083 -0.7245
 2926TIP3   OH230412   3.886   4.850   6.273  0.6002 -0.0525  0.1573
 2926TIP3    H130413   3.884   4.789   6.348  0.7721 -0.3975 -0.1129
 2926TIP3    H230414   3.820   4.816   6.213 -0.8821  1.3045  0.9543
 2927TIP3   OH230415   0.224   3.923   6.594  0.2144 -0.3921 -0.2801
 2927TIP3    H130416   0.145   3.965   6.629  0.6738  1.6136 -1.4985
 2927TIP3    H230417   0.190   3.847   6.546 -1.0887  0.6937 -1.1864
 2928TIP3   OH230418   2.687   4.156   2.454  0.1530 -0.5054  0.3962
 2928TIP3    H130419   2.606   4.141   2.405  0.3645  0.0634 -0.1274
 2928TIP3    H230420   2.753   4.176   2.388  0.0705  1.9806  0.9743
 2929TIP3   OH230421   2.941   2.684   7.012  0.1595  0.3562 -0.4339
 2929TIP3    H130422   2.898   2.615   7.061 -0.4186  1.0439  0.0464
 2929TIP3    H230423   2.924   2.663   6.920  1.6200 -1.1858 -0.4071
 2930TIP3   OH230424   3.658   4.550   0.836  0.0821 -1.1527 -0.2011
 2930TIP3    H130425   3.645   4.591   0.921 -0.5786  1.3755 -1.4185
 2930TIP3    H230426   3.730   4.488   0.849  1.9292  1.1869  1.5885
 2931TIP3   OH230427   2.233   0.720   2.418  0.1101 -0.1936 -0.3473
 2931TIP3    H130428   2.201   0.641   2.461 -1.0135  1.4717  2.1205
 2931TIP3    H230429   2.281   0.767   2.487  1.3533  0.9683 -1.9235
 2932TIP3   OH230430   3.499   5.415   2.151  0.7148  0.0524  0.4551
 2932TIP3    H130431   3.489   5.509   2.159  0.3747  0.1988 -1.4182
 2932TIP3    H230432   3.448   5.380   2.224 -1.0083  1.2656 -0.1109
 2933TIP3   OH230433   0.412   1.003   0.671  0.2987  0.1515  0.4443
 2933TIP3    H130434   0.419   0.976   0.762 -0.5133 -0.7500  0.2568
 2933TIP3    H230435   0.447   1.092   0.670  1.6858 -0.3537  1.3520
 2934TIP3   OH230436   4.744   4.380   0.861 -0.0710  0.4341  0.1828
 2934TIP3    H130437   4.788   4.458   0.826  2.0579 -1.0951 -0.7690
 2934TIP3    H230438   4.681   4.356   0.793  2.9821 -1.6308 -2.2033
 2935TIP3   OH230439   0.077   2.379   0.866 -0.2198 -0.4557 -0.3033
 2935TIP3    H130440   0.064   2.364   0.772  1.9194 -1.4327 -0.4855
 2935TIP3    H230441   0.070   2.292   0.905  2.8938 -0.7439 -0.1391
 2936TIP3   OH230442   2.944   3.882   1.412  0.0077 -0.4313 -0.7584
 2936TIP3    H130443   2.849   3.889   1.397 -0.1711  0.5511  0.7192
 2936TIP3    H230444   2.964   3.791   1.390 -1.1083 -0.4379 -1.9157
 2937TIP3   OH230445   0.975   1.993   7.286 -0.3702 -0.1545  0.0942
 2937TIP3    H130446   0.905   1.928   7.296  2.0828 -2.6481  3.0872
 2937TIP3    H230447   1.018   1.969   7.204 -1.3809 -0.2857 -0.4146
 2938TIP3   OH230448   3.595   0.386   6.523 -0.1839  0.3086  0.3214
 2938TIP3    H130449   3.660   0.429   6.468  2.2696  0.7308  3.2775
 2938TIP3    H230450   3.529   0.454   6.541  0.6549  1.1180  0.3928
 2939TIP3   OH230451   0.560   3.533   2.821 -0.7487  0.3093 -0.2695
 2939TIP3    H130452   0.509   3.455   2.843  2.1555 -1.3626  1.0804
 2939TIP3    H230453   0.523   3.602   2.876 -1.3575 -0.8998  0.9136
 2940TIP3   OH230454   4.461   6.167   1.063 -0.1998 -0.0181 -0.0931
 2940TIP3    H130455   4.455   6.079   1.099 -1.3833 -0.5481 -1.5079
 2940TIP3    H230456   4.370   6.196   1.054  0.1481  1.0757 -0.3168
 2941TIP3   OH230457   6.702   1.400   0.266 -0.3095  0.3162 -0.4070
 2941TIP3    H130458   6.780   1.437   0.308  0.5902 -0.0171 -1.7063
 2941TIP3    H230459   6.734   1.370   0.180 -2.1928  1.5363 -1.5925
 2942TIP3   OH230460   6.434   2.689   6.394 -0.3781  0.5029 -0.2577
 2942TIP3    H130461   6.347   2.709   6.428 -0.9681  0.3737 -1.6537
 2942TIP3    H230462   6.492   2.701   6.470 -2.0055 -3.1990  1.8287
 2943TIP3   OH230463   3.739   4.767   1.701 -0.3420 -0.6397 -0.5785
 2943TIP3    H130464   3.696   4.850   1.721 -1.1985 -1.1521 -0.2373
 2943TIP3    H230465   3.720   4.712   1.777  3.0550 -0.1247  0.8223
 2944TIP3   OH230466   1.622   5.568   2.180  0.0757 -0.8832 -0.2300
 2944TIP3    H130467   1.710   5.598   2.205 -0.1909 -0.0099 -0.3061
 2944TIP3    H230468   1.635   5.524   2.096  0.3399 -0.1541 -0.5739
 2945TIP3   OH230469   4.679   2.485   0.099  0.6065 -0.5156  0.5262
 2945TIP3    H130470   4.718   2.495   0.013 -0.2995 -0.2534  0.1269
 2945TIP3    H230471   4.688   2.572   0.140 -1.3399  0.1883 -0.3727
 2946TIP3   OH230472   1.854   2.030   8.561  0.9246  0.3292  0.3156
 2946TIP3    H130473   1.837   2.040   8.654  0.1622  0.6451  0.1453
 2946TIP3    H230474   1.865   2.119   8.528  0.1313  0.2858 -0.0910
 2947TIP3   OH230475   4.552   2.193   1.374 -0.1636  0.2570 -0.3754
 2947TIP3    H130476   4.550   2.278   1.330  2.5036  0.2938 -0.6044
 2947TIP3    H230477   4.466   2.155   1.357 -0.7665  2.1213 -1.8488
 2948TIP3   OH230478   2.376   2.305   1.142 -0.1937 -0.4839 -0.0752
 2948TIP3    H130479   2.426   2.336   1.218 -1.2346 -1.4902  1.0731
 2948TIP3    H230480   2.285   2.325   1.163 -0.8679 -3.5170  0.4402
 2949TIP3   OH230481   2.493   5.110   0.877  0.9770 -0.8631  0.0334
 2949TIP3    H130482   2.485   5.158   0.959 -0.3500 -1.8254  0.5026
 2949TIP3    H230483   2.441   5.161   0.815  2.0512 -0.0882 -0.2635
 2950TIP3   OH230484   6.336   0.169   0.042 -0.0169 -0.5190  0.2948
 2950TIP3    H130485   6.283   0.090   0.042 -0.1091 -0.4580  0.4491
 2950TIP3    H230486   6.272   0.241   0.036 -0.0519 -0.3813  1.9356
 2951TIP3   OH230487   3.473   5.293   0.229  0.2179  0.1778  0.2270
 2951TIP3    H130488   3.551   5.342   0.254 -0.0803  0.9559 -0.3062
 2951TIP3    H230489   3.506   5.209   0.196  1.0206  1.2952 -2.0125
 2952TIP3   OH230490   4.774   1.185   6.454 -0.4390 -0.1429  0.3470
 2952TIP3    H130491   4.838   1.115   6.444  1.5766  1.4923  1.1560
 2952TIP3    H230492   4.759   1.191   6.549 -0.2040  0.8358  0.3297
 2953TIP3   OH230493   4.465   6.846   0.386  0.6788 -0.3910  0.4037
 2953TIP3    H130494   4.483   6.938   0.406 -1.1729 -0.2912  1.9609
 2953TIP3    H230495   4.484   6.837   0.293  3.7800  0.7642  0.8318
 2954TIP3   OH230496   4.530   6.339   7.585 -0.5485 -0.5613  0.1121
 2954TIP3    H130497   4.549   6.407   7.649  0.1958  0.0879 -0.7753
 2954TIP3    H230498   4.468   6.378   7.525 -0.2042 -0.6983 -0.3395
 2955TIP3   OH230499   3.075   2.538   1.626 -0.1753 -0.0327 -0.1356
 2955TIP3    H130500   3.155   2.506   1.585  1.1467 -0.0319  2.2374
 2955TIP3    H230501   3.061   2.625   1.589  1.4422  0.3200  0.0326
 2956TIP3   OH230502   3.032   4.829   0.224  0.1481 -0.3841  0.5811
 2956TIP3    H130503   3.052   4.801   0.313  0.6602 -0.5217  0.4244
 2956TIP3    H230504   2.968   4.900   0.235 -0.5509 -1.0580  1.0186
 2957TIP3   OH230505   3.971   2.699   1.143 -0.0373 -0.1085  0.3340
 2957TIP3    H130506   3.885   2.711   1.183 -0.4598 -2.4486  0.3174
 2957TIP3    H230507   4.027   2.765   1.183 -1.0556 -0.6904  2.8624
 2958TIP3   OH230508   4.043   0.630   0.504 -0.2556  0.1170  0.4616
 2958TIP3    H130509   4.089   0.622   0.587 -1.6830 -0.7039  1.2169
 2958TIP3    H230510   3.954   0.657   0.528 -0.8346 -0.6396 -0.7378
 2959TIP3   OH230511   2.782   4.614   6.169  0.1633 -0.0026  0.4393
 2959TIP3    H130512   2.813   4.705   6.162 -2.8851  1.4375  3.0417
 2959TIP3    H230513   2.827   4.580   6.246  0.3855 -0.2890  0.1832
 2960TIP3   OH230514   0.115   3.166   7.670 -0.1059  0.0328  0.7233
 2960TIP3    H130515   0.029   3.137   7.640 -0.8776  1.3285  1.6266
 2960TIP3    H230516   0.176   3.106   7.626 -1.3940 -0.4134 -0.5485
 2961TIP3   OH230517   4.602   0.255   0.532  0.2159  0.2779 -0.5083
 2961TIP3    H130518   4.650   0.294   0.459  1.4457  2.5330  1.3889
 2961TIP3    H230519   4.661   0.188   0.566 -0.6585 -1.2885 -1.9409
 2962TIP3   OH230520   2.308   5.594   6.716  0.1736  0.0103 -0.6189
 2962TIP3    H130521   2.251   5.606   6.792  0.6092 -1.9795  0.0875
 2962TIP3    H230522   2.340   5.682   6.695  0.4845  0.5597  1.8646
 2963TIP3   OH230523   0.880   0.548   1.485  0.0013 -0.2144  0.1132
 2963TIP3    H130524   0.830   0.630   1.485  0.9874  0.4081 -0.9815
 2963TIP3    H230525   0.817   0.483   1.454 -0.4105  0.3878 -0.3504
 2964TIP3   OH230526   5.491   5.306   0.849 -0.4195 -0.2045  0.0546
 2964TIP3    H130527   5.474   5.230   0.794  1.0259  0.2170 -1.0371
 2964TIP3    H230528   5.427   5.372   0.820 -2.9404 -1.4829  2.2520
 2965TIP3   OH230529   3.930   1.254   0.766 -0.5961 -0.2485  0.4591
 2965TIP3    H130530   3.920   1.348   0.750  0.7202 -0.1755 -0.0357
 2965TIP3    H230531   4.004   1.248   0.826 -0.2433 -1.0046 -0.0389
 2966TIP3   OH230532   6.800   1.583   1.320 -0.5962  0.0069  0.1013
 2966TIP3    H130533   6.870   1.523   1.347 -0.8177  0.0789  0.8724
 2966TIP3    H230534   6.838   1.670   1.328 -0.2959 -0.0180 -0.9569
 2967TIP3   OH230535   0.836   4.198   0.864  0.5154 -0.0508  0.3532
 2967TIP3    H130536   0.809   4.111   0.895  1.3005  0.0572  1.4068
 2967TIP3    H230537   0.880   4.182   0.781 -2.1876 -0.2900 -1.1727
 2968TIP3   OH230538   4.582   0.745   1.262  0.2755 -0.1607 -0.1308
 2968TIP3    H130539   4.500   0.697   1.274  0.2204 -0.1308 -0.3911
 2968TIP3    H230540   4.651   0.679   1.269  0.2384 -0.1600  0.2529
 2969TIP3   OH230541   6.381   3.042   1.101  0.0339  0.0730 -0.3983
 2969TIP3    H130542   6.473   3.055   1.076  0.1283  0.6333  0.2029
 2969TIP3    H230543   6.386   2.990   1.181 -0.2058 -0.4440 -0.7125
 2970TIP3   OH230544   3.952   6.696   8.452 -0.2587 -0.2731  0.5165
 2970TIP3    H130545   4.014   6.763   8.423  0.7838 -1.0169  0.9910
 2970TIP3    H230546   3.867   6.726   8.418 -0.2409  2.4735  2.5487
 2971TIP3   OH230547   4.850   2.972   2.566  0.3532  0.2677 -0.3837
 2971TIP3    H130548   4.845   3.068   2.573 -0.1351  0.3516 -1.7400
 2971TIP3    H230549   4.805   2.951   2.485 -0.3187 -1.2013  0.3255
 2972TIP3   OH230550   5.826   2.096   7.325 -0.0696  0.1927  0.0290
 2972TIP3    H130551   5.773   2.026   7.363 -1.0039  1.0604  0.3387
 2972TIP3    H230552   5.832   2.162   7.394 -0.0983  0.9012 -0.6371
 2973TIP3   OH230553   1.838   1.521   2.115 -0.4694  0.1088  0.1209
 2973TIP3    H130554   1.750   1.485   2.131 -1.0291  0.4437 -1.8569
 2973TIP3    H230555   1.825   1.615   2.110  0.6604  0.5493  3.2745
 2974TIP3   OH230556   2.933   6.918   1.043 -0.3288 -0.6490 -0.6258
 2974TIP3    H130557   2.936   6.936   0.948  0.0489  0.2698 -0.4557
 2974TIP3    H230558   2.840   6.907   1.063 -0.5867  0.9680 -0.8027
 2975TIP3   OH230559   4.870   2.236   0.281 -0.3913 -0.0008 -0.1625
 2975TIP3    H130560   4.853   2.327   0.306 -1.2436 -0.5116  1.1863
 2975TIP3    H230561   4.931   2.204   0.347 -0.2004 -0.4506 -0.5522
 2976TIP3   OH230562   0.838   5.490   6.449  0.4081 -0.1310 -0.4078
 2976TIP3    H130563   0.784   5.440   6.387 -0.5137  1.3426 -0.8287
 2976TIP3    H230564   0.787   5.569   6.468  1.3046  0.1013  1.1745
 2977TIP3   OH230565   5.046   1.531   0.608  0.1016  0.4923 -0.4106
 2977TIP3    H130566   5.134   1.553   0.641  0.4776 -1.1454 -0.2381
 2977TIP3    H230567   5.016   1.462   0.667  0.3575 -1.8021 -2.8382
 2978TIP3   OH230568   6.380   6.162   6.639 -0.0413 -0.1039  0.1774
 2978TIP3    H130569   6.456   6.182   6.585  0.5494 -1.1798  0.5657
 2978TIP3    H230570   6.306   6.166   6.578  0.6325 -1.5402 -0.8086
 2979TIP3   OH230571   5.618   3.229   1.268 -0.2934  0.2394  0.0739
 2979TIP3    H130572   5.637   3.152   1.213  0.3345  0.3164  0.1663
 2979TIP3    H230573   5.657   3.206   1.353 -0.1894  0.6205  0.1284
 2980TIP3   OH230574   0.443   0.434   8.222 -0.1347  0.0351 -0.0459
 2980TIP3    H130575   0.519   0.443   8.164  0.1514 -0.9610  0.1522
 2980TIP3    H230576   0.381   0.380   8.174 -0.7429  0.8541 -0.2113
 2981TIP3   OH230577   1.942   5.803   1.644 -0.1152 -0.0648  0.4501
 2981TIP3    H130578   1.873   5.805   1.578  0.5301  1.3060 -0.2050
 2981TIP3    H230579   1.901   5.840   1.722  0.1397  1.7665 -0.2404
 2982TIP3   OH230580   5.830   0.814   8.112  0.1489  0.0439  0.2243
 2982TIP3    H130581   5.855   0.764   8.034 -1.3537 -3.1848  1.6394
 2982TIP3    H230582   5.907   0.807   8.170  0.0353 -0.4645  0.3195
 2983TIP3   OH230583   4.666   4.746   1.904 -0.0355  0.0176 -0.3458
 2983TIP3    H130584   4.713   4.714   1.982 -1.6260 -0.4352  0.4793
 2983TIP3    H230585   4.732   4.748   1.835  1.0622 -1.1291  0.6211
 2984TIP3   OH230586   3.067   4.888   8.186  0.0197  0.0711 -0.1551
 2984TIP3    H130587   2.986   4.892   8.135 -0.5103 -2.1495  0.4108
 2984TIP3    H230588   3.136   4.909   8.122 -0.9202  1.4841 -0.7643
 2985TIP3   OH230589   1.828   0.063   2.038 -0.0797  0.1332  0.0827
 2985TIP3    H130590   1.739   0.029   2.044  0.2144 -0.6994 -0.0470
 2985TIP3    H230591   1.883  -0.016   2.033  0.4897  0.5852 -2.5591
 2986TIP3   OH230592   0.453   0.323   6.506 -0.1470  0.4136  0.2844
 2986TIP3    H130593   0.393   0.338   6.433  1.1291  0.0842 -0.8750
 2986TIP3    H230594   0.406   0.261   6.563 -0.8650  0.0894 -0.6332
 2987TIP3   OH230595   0.083   5.003   1.953  0.1490  0.1700  0.0435
 2987TIP3    H130596   0.117   4.921   1.988  1.2735  0.5717 -0.0380
 2987TIP3    H230597   0.058   5.054   2.030  0.2717  0.0910  0.1362
 2988TIP3   OH230598   6.146   2.384   7.636  0.2723  0.0272  0.5413
 2988TIP3    H130599   6.111   2.453   7.579  0.5997  0.9410  1.4099
 2988TIP3    H230600   6.088   2.386   7.712  0.5770 -0.3310  0.7817
 2989TIP3   OH230601   0.256   1.854   8.125  0.1479 -0.2942 -0.5337
 2989TIP3    H130602   0.252   1.926   8.062  0.7430 -0.4562 -0.7616
 2989TIP3    H230603   0.183   1.871   8.185  2.8016  3.1357  2.1927
 2990TIP3   OH230604   4.090   5.498   1.025  0.0928  0.4131  0.7737
 2990TIP3    H130605   4.047   5.551   1.092 -0.2918  0.5228  0.4447
 2990TIP3    H230606   4.122   5.561   0.960 -1.8076  0.1950 -0.4643
 2991TIP3   OH230607   2.622   4.093   8.048  0.0548  0.5943 -0.2632
 2991TIP3    H130608   2.644   4.000   8.046 -1.4850  0.1980 -2.0689
 2991TIP3    H230609   2.682   4.131   8.112  1.2699 -1.4909 -0.0829
 2992TIP3   OH230610   1.267   2.147   1.454 -0.7428 -0.9862  0.0539
 2992TIP3    H130611   1.278   2.089   1.529 -0.7886 -2.3034 -0.9302
 2992TIP3    H230612   1.182   2.189   1.469 -1.1938 -1.9536  0.2750
 2993TIP3   OH230613   3.361   3.692   0.767 -0.1049 -0.3762 -0.1063
 2993TIP3    H130614   3.421   3.754   0.810 -1.5114  1.0117 -0.0191
 2993TIP3    H230615   3.278   3.704   0.814 -0.4913 -2.1469 -0.3017
 2994TIP3   OH230616   2.385   2.775   0.737 -0.3570  0.4919  0.6379
 2994TIP3    H130617   2.432   2.733   0.665 -1.1391  1.9562 -0.8099
 2994TIP3    H230618   2.328   2.839   0.694 -2.7833 -0.3288  2.3728
 2995TIP3   OH230619   6.257   4.139   6.759  0.0119  0.0412  0.3497
 2995TIP3    H130620   6.220   4.165   6.675 -1.1545  1.0794  1.1442
 2995TIP3    H230621   6.210   4.059   6.782  0.4984 -0.3769 -0.0718
 2996TIP3   OH230622   0.527   0.813   6.726 -0.2843 -0.6346  0.0128
 2996TIP3    H130623   0.495   0.875   6.660 -0.8459 -0.8002  0.1212
 2996TIP3    H230624   0.455   0.807   6.789  0.1309 -0.7094  0.4778
 2997TIP3   OH230625   6.150   4.385   2.228 -0.5968 -0.2686 -0.0173
 2997TIP3    H130626   6.094   4.458   2.254 -1.1702 -0.4061 -0.8585
 2997TIP3    H230627   6.213   4.424   2.167 -0.4729 -0.3390  0.0658
 2998TIP3   OH230628   2.483   0.056   8.459 -0.0117 -0.1846 -0.0054
 2998TIP3    H130629   2.392   0.032   8.441  0.5760 -2.1602 -0.5797
 2998TIP3    H230630   2.506   0.118   8.390 -1.1223  0.8949  0.5713
 2999TIP3   OH230631   3.357   1.737   2.672 -0.3044  0.0283 -0.2608
 2999TIP3    H130632   3.394   1.734   2.584 -2.3154 -0.5020 -1.1542
 2999TIP3    H230633   3.392   1.818   2.710  1.2554 -0.1581 -1.2180
 3000TIP3   OH230634   1.092   1.687   1.083 -0.0723 -0.6082  0.3836
 3000TIP3    H130635   1.015   1.636   1.060 -1.0372  0.7702  0.4243
 3000TIP3    H230636   1.097   1.755   1.015  0.3671  0.0613  1.0697
 3001TIP3   OH230637   5.339   2.574   7.308 -0.2550  0.1890 -0.3103
 3001TIP3    H130638   5.337   2.507   7.240 -2.1860 -0.5000  0.3533
 3001TIP3    H230639   5.319   2.655   7.261  2.1613  0.4058 -1.1284
 3002TIP3   OH230640   2.193   5.249   7.469  0.1567  0.3764  0.3097
 3002TIP3    H130641   2.125   5.262   7.403 -0.9061  1.3458  1.5583
 3002TIP3    H230642   2.275   5.266   7.423 -0.3563 -1.3330 -1.3600
 3003TIP3   OH230643   4.531   0.607   8.133  0.2520 -0.7295  0.8807
 3003TIP3    H130644   4.606   0.574   8.083 -0.9805 -0.8780 -0.9701
 3003TIP3    H230645   4.531   0.554   8.213  1.8179 -1.0554  0.7071
 3004TIP3   OH230646   1.192   5.159   1.222 -0.0249 -0.0996 -0.0695
 3004TIP3    H130647   1.166   5.250   1.231  0.9405  0.3376 -1.3677
 3004TIP3    H230648   1.196   5.126   1.311 -1.3081  0.8509  0.3661
 3005TIP3   OH230649   1.528   4.905   6.664  0.7796  0.2287  0.0269
 3005TIP3    H130650   1.475   4.939   6.592 -0.5916 -0.9572  0.4093
 3005TIP3    H230651   1.568   4.826   6.629 -1.0561 -1.1812  0.8989
 3006TIP3   OH230652   0.592   4.217   0.278  0.9617 -0.3115 -0.1023
 3006TIP3    H130653   0.566   4.172   0.358 -1.0667 -0.1699 -0.6132
 3006TIP3    H230654   0.514   4.268   0.253  1.8667  0.3981 -1.6379
 3007TIP3   OH230655   1.500   3.581   1.751 -0.1876 -0.5784  0.3676
 3007TIP3    H130656   1.458   3.590   1.836 -1.8664 -0.6058 -0.4119
 3007TIP3    H230657   1.429   3.589   1.688  1.0010 -0.6006 -1.0460
 3008TIP3   OH230658   2.759   1.886   2.497  0.7834  0.1225  0.6622
 3008TIP3    H130659   2.825   1.840   2.446 -0.5093  0.0157 -1.0040
 3008TIP3    H230660   2.764   1.977   2.466 -1.3542 -0.3182 -1.2588
 3009TIP3   OH230661   0.199   0.907   7.725 -0.4878  0.1493  0.3987
 3009TIP3    H130662   0.231   0.819   7.745  0.3473  0.2378 -0.4670
 3009TIP3    H230663   0.113   0.893   7.686 -0.5563 -0.2583  0.6915
 3010TIP3   OH230664   2.148   3.354   2.503  0.2884  0.7640  0.6279
 3010TIP3    H130665   2.208   3.359   2.577 -1.6759  0.5423  2.3213
 3010TIP3    H230666   2.155   3.439   2.460  1.3547  0.9413  1.1408
 3011TIP3   OH230667   2.802   1.435   1.599  0.5932 -0.1253  0.2204
 3011TIP3    H130668   2.898   1.440   1.604  0.6516 -0.3873 -0.4753
 3011TIP3    H230669   2.775   1.412   1.688  1.1343  0.4939  0.5547
 3012TIP3   OH230670   0.036   3.778   0.476  0.2602  0.1276 -0.6883
 3012TIP3    H130671   0.102   3.792   0.408  1.5350  1.5531  0.7624
 3012TIP3    H230672  -0.025   3.852   0.466  0.5438  0.4322 -0.1928
 3013TIP3   OH230673   5.118   5.865   7.731 -0.0064  0.0676  0.0053
 3013TIP3    H130674   5.193   5.894   7.679 -1.1945  0.8530 -1.3476
 3013TIP3    H230675   5.072   5.946   7.754  0.1773 -0.3075  1.8458
 3014TIP3   OH230676   2.100   2.472   0.569 -0.0697 -0.0320  0.4395
 3014TIP3    H130677   2.094   2.545   0.508  0.1266 -0.9848 -0.7786
 3014TIP3    H230678   2.071   2.507   0.653 -1.0361  1.1453 -0.3600
 3015TIP3   OH230679   6.799   1.736   0.447  0.2438 -0.0800  0.2225
 3015TIP3    H130680   6.883   1.710   0.484  1.4705 -0.1743 -2.3807
 3015TIP3    H230681   6.804   1.831   0.438  0.1090 -0.0963 -0.0332
 3016TIP3   OH230682   3.669   0.427   2.330  0.1946 -0.2387  0.1137
 3016TIP3    H130683   3.693   0.349   2.279 -1.8015 -1.6922  1.2364
 3016TIP3    H230684   3.621   0.482   2.268  0.9922 -0.2187 -0.5064
 3017TIP3   OH230685   5.305   4.446   2.601 -0.5768 -0.1745  0.0097
 3017TIP3    H130686   5.237   4.450   2.534 -0.5371  0.1871 -0.0124
 3017TIP3    H230687   5.315   4.537   2.630 -0.6385 -0.3405  0.5508
 3018TIP3   OH230688   5.227   1.492   0.330  0.3627  0.0054 -0.6870
 3018TIP3    H130689   5.270   1.461   0.409 -2.0317 -2.4405 -0.1858
 3018TIP3    H230690   5.143   1.526   0.360  0.3065  1.0604 -1.9649
 3019TIP3   OH230691   0.391   3.995   6.835 -0.0935 -0.8784 -0.2197
 3019TIP3    H130692   0.418   3.909   6.805 -0.4747 -1.1779  0.2857
 3019TIP3    H230693   0.301   4.005   6.802  0.5106  0.0127 -1.6893
 3020TIP3   OH230694   3.130   2.140   8.117  0.0582 -0.3867 -0.0655
 3020TIP3    H130695   3.189   2.215   8.118  0.9624 -1.0765  1.7359
 3020TIP3    H230696   3.059   2.166   8.057 -0.2468  2.3537  1.3500
 3021TIP3   OH230697   5.367   2.303   1.708  0.4598  0.6879  0.0252
 3021TIP3    H130698   5.407   2.363   1.771 -0.9393  1.3924  0.2880
 3021TIP3    H230699   5.377   2.216   1.748  1.1896  0.9095  0.3459
 3022TIP3   OH230700   4.863   5.147   1.931 -0.7947 -0.4730  0.1761
 3022TIP3    H130701   4.865   5.161   1.837 -1.0622  0.8276  0.3462
 3022TIP3    H230702   4.887   5.055   1.943  0.8820 -0.2135 -1.0389
 3023TIP3   OH230703   5.409   4.710   2.661 -0.1529  0.4512  0.5203
 3023TIP3    H130704   5.357   4.776   2.707  1.8971  0.9794  2.3022
 3023TIP3    H230705   5.487   4.758   2.632 -0.0263 -0.5653 -0.8816
 3024TIP3   OH230706   3.822   0.545   7.986 -0.1223  0.2819 -0.1907
 3024TIP3    H130707   3.901   0.545   8.039 -0.6146  3.1003  0.6872
 3024TIP3    H230708   3.751   0.563   8.048 -0.8862  2.1581 -1.5102
 3025TIP3   OH230709   5.604   0.293   1.108  0.0420  0.1703 -0.2220
 3025TIP3    H130710   5.548   0.358   1.066  1.0786  0.0599 -1.9038
 3025TIP3    H230711   5.548   0.249   1.171 -1.5111  0.6336 -1.2269
 3026TIP3   OH230712   6.609   0.843   1.831 -0.1121  0.1400 -0.2951
 3026TIP3    H130713   6.657   0.807   1.906 -0.6081  0.5123  0.2048
 3026TIP3    H230714   6.648   0.799   1.755  1.6476  1.1054  0.0059
 3027TIP3   OH230715   1.156   6.879   7.941  0.3341  0.2884 -0.2090
 3027TIP3    H130716   1.079   6.831   7.970 -0.1708 -0.5643 -2.7381
 3027TIP3    H230717   1.217   6.873   8.014 -1.9555  1.0727  1.9208
 3028TIP3   OH230718   6.221   2.756   0.414 -0.8018  0.7641 -0.7982
 3028TIP3    H130719   6.179   2.773   0.498 -3.4552  0.2521 -1.8948
 3028TIP3    H230720   6.216   2.661   0.402 -1.9461  0.9538 -2.1652
 3029TIP3   OH230721   6.928   6.197   2.592 -0.7139 -0.1505 -0.0868
 3029TIP3    H130722   6.943   6.155   2.507  4.1016  0.5772  0.1444
 3029TIP3    H230723   6.893   6.284   2.570  1.6628  0.5351 -1.5811
 3030TIP3   OH230724   3.718   6.417   6.453  0.5314 -0.1724  0.2597
 3030TIP3    H130725   3.639   6.391   6.499  0.6332 -1.7676 -0.3832
 3030TIP3    H230726   3.789   6.398   6.515  0.3968  3.5003  1.8078
 3031TIP3   OH230727   4.142   5.053   0.681  0.4659  0.6691  0.0326
 3031TIP3    H130728   4.129   5.009   0.597 -2.4921 -1.0126  1.2028
 3031TIP3    H230729   4.229   5.025   0.710  0.4505 -0.8631 -1.2649
 3032TIP3   OH230730   3.095   2.782   7.234 -0.1167  0.2300  0.2331
 3032TIP3    H130731   3.045   2.769   7.154  0.4474 -1.3994  0.1056
 3032TIP3    H230732   3.090   2.698   7.279  0.0687  0.9428  1.6279
 3033TIP3   OH230733   6.143   5.097   2.621  0.2213 -0.6103 -0.5643
 3033TIP3    H130734   6.167   5.068   2.533  0.4770  1.7436 -1.3461
 3033TIP3    H230735   6.222   5.083   2.673  1.1356  0.8050 -1.4936
 3034TIP3   OH230736   6.566   2.147   0.567 -0.7618 -0.3292 -0.0102
 3034TIP3    H130737   6.656   2.114   0.570 -0.2716  0.6782 -1.9399
 3034TIP3    H230738   6.545   2.168   0.658  1.5247  0.8690  0.3186
 3035TIP3   OH230739   1.240   4.516   0.111 -0.2713  0.0805 -0.3432
 3035TIP3    H130740   1.180   4.504   0.037  0.0188 -0.3108 -0.5185
 3035TIP3    H230741   1.324   4.538   0.070 -0.1571  0.0573 -0.1233
 3036TIP3   OH230742   3.552   5.941   1.877  0.0774  0.0138 -0.3810
 3036TIP3    H130743   3.529   5.924   1.968  0.8440  1.6371  0.1378
 3036TIP3    H230744   3.589   5.858   1.846 -0.4061 -0.6214  0.6937
 3037TIP3   OH230745   0.459   6.239   7.114 -0.6185 -0.0937 -0.1350
 3037TIP3    H130746   0.509   6.164   7.148  1.3577  1.2975  0.2355
 3037TIP3    H230747   0.389   6.200   7.062 -1.0809 -2.2327  1.9134
 3038TIP3   OH230748   3.277   4.417   0.209  0.1455 -0.5637  0.0630
 3038TIP3    H130749   3.275   4.395   0.116  0.1656  1.3175 -0.4205
 3038TIP3    H230750   3.352   4.476   0.218 -0.1193 -0.3770  1.1958
 3039TIP3   OH230751   2.362   2.452   0.898  0.2915  0.6742 -0.0881
 3039TIP3    H130752   2.377   2.395   0.974 -0.3055 -0.5165 -0.8242
 3039TIP3    H230753   2.271   2.435   0.874 -0.0830  2.4158  0.0226
 3040TIP3   OH230754   5.304   4.124   0.389  0.2733  0.1463  0.6360
 3040TIP3    H130755   5.324   4.093   0.477  0.4416 -0.2711  0.4531
 3040TIP3    H230756   5.286   4.217   0.400  0.0233  0.0433  1.1550
 3041TIP3   OH230757   0.303   5.593   7.152 -0.3736  0.3349  0.0372
 3041TIP3    H130758   0.381   5.607   7.099 -1.4517 -2.2124 -2.4994
 3041TIP3    H230759   0.335   5.594   7.243  2.1198  1.7422 -0.7701
 3042TIP3   OH230760   0.388   2.310   0.907  0.5379 -0.4316 -0.2334
 3042TIP3    H130761   0.299   2.340   0.888  1.5144  1.1958 -2.8441
 3042TIP3    H230762   0.378   2.242   0.973 -2.6373 -0.3952 -0.5667
 3043TIP3   OH230763   1.378   2.039   0.533  0.0987  0.2868 -0.1624
 3043TIP3    H130764   1.455   2.081   0.494  0.1817 -2.0436 -2.7153
 3043TIP3    H230765   1.303   2.083   0.493  0.0677  1.1968  0.8336
 3044TIP3   OH230766   2.717   4.982   7.640  0.0906  0.1643 -0.0579
 3044TIP3    H130767   2.714   5.074   7.615  0.0195 -0.0094 -0.6966
 3044TIP3    H230768   2.633   4.946   7.610  0.0531 -0.0770  0.3236
 3045TIP3   OH230769   2.961   5.235   1.830 -0.7417 -0.4763 -0.6355
 3045TIP3    H130770   2.914   5.204   1.753 -1.6849  0.6514 -0.5322
 3045TIP3    H230771   2.951   5.165   1.894 -2.7386 -0.0566 -0.4387
 3046TIP3   OH230772   6.635   5.466   0.760 -0.0929 -0.1376  0.6584
 3046TIP3    H130773   6.702   5.515   0.713 -0.2723  0.2373  0.7868
 3046TIP3    H230774   6.560   5.466   0.700  0.6363 -2.2808 -0.3562
 3047TIP3   OH230775   5.618   2.353   0.130  0.3317 -0.5826 -0.3601
 3047TIP3    H130776   5.630   2.323   0.220 -0.4152 -0.2048 -0.1258
 3047TIP3    H230777   5.561   2.430   0.137  0.9635 -0.0328 -1.0830
 3048TIP3   OH230778   3.271   3.908   6.959  0.0503  0.3157  0.2120
 3048TIP3    H130779   3.327   3.944   6.890  0.0438  1.8804  0.9821
 3048TIP3    H230780   3.332   3.864   7.019  0.2755  0.6655  0.2396
 3049TIP3   OH230781   0.114   4.082   6.876  0.2391 -0.4314 -0.6165
 3049TIP3    H130782   0.058   4.023   6.825  2.3031 -1.0385 -2.3509
 3049TIP3    H230783   0.121   4.160   6.822  0.2314  0.0559  0.0777
 3050TIP3   OH230784   2.390   4.490   7.532 -0.0607  0.0233  0.0923
 3050TIP3    H130785   2.301   4.456   7.522 -1.2893  2.9401  0.0238
 3050TIP3    H230786   2.403   4.544   7.454  2.4882 -1.6408 -0.7388
 3051TIP3   OH230787   0.127   5.168   1.107  0.0215 -0.0865 -0.0577
 3051TIP3    H130788   0.123   5.074   1.089 -0.5453  0.2738 -2.0239
 3051TIP3    H230789   0.069   5.180   1.183 -0.8213 -1.1748 -0.4973
 3052TIP3   OH230790   4.028   1.402   0.036  0.2420  0.7336  0.5483
 3052TIP3    H130791   4.077   1.477   0.002 -1.3449  1.3224 -0.5580
 3052TIP3    H230792   3.964   1.382  -0.032  1.3760 -2.4315  0.2614
 3053TIP3   OH230793   3.816   4.860   8.426 -0.1010  0.3567 -0.1853
 3053TIP3    H130794   3.753   4.799   8.387 -0.3676  1.0843 -0.9362
 3053TIP3    H230795   3.764   4.937   8.451  0.6345  1.5833 -2.1444
 3054TIP3   OH230796   6.599   6.307   0.054 -0.2778  0.2595 -0.1804
 3054TIP3    H130797   6.526   6.251   0.027 -1.4949  1.7779 -0.2264
 3054TIP3    H230798   6.644   6.257   0.122 -0.5083 -1.3056 -1.1435
 3055TIP3   OH230799   2.901   2.281   7.997  0.5727  0.0509 -0.2814
 3055TIP3    H130800   2.938   2.367   7.977  0.4354 -0.2814 -2.1398
 3055TIP3    H230801   2.901   2.235   7.913 -3.4404 -0.2149 -0.3139
 3056TIP3   OH230802   2.991   4.643   6.845 -0.2696 -0.2912  0.3205
 3056TIP3    H130803   2.960   4.703   6.913 -0.1484 -0.2479  0.3372
 3056TIP3    H230804   2.985   4.693   6.764  1.8483  0.4870  0.5959
 3057TIP3   OH230805   4.018   5.058   6.801  0.0500  0.1236 -0.8843
 3057TIP3    H130806   3.930   5.022   6.794  0.4209 -0.5316 -3.0170
 3057TIP3    H230807   4.070   5.005   6.741  1.6053  1.3896 -0.7251
 3058TIP3   OH230808   1.046   4.981   1.793  0.3390 -0.3751 -1.3104
 3058TIP3    H130809   1.007   5.056   1.748 -0.1361  0.5313  0.5355
 3058TIP3    H230810   0.977   4.914   1.794 -0.2291  0.2162 -0.4659
 3059TIP3   OH230811   4.715   4.858   0.498  0.1563  0.0095  0.1114
 3059TIP3    H130812   4.735   4.871   0.590 -0.3912  0.8334  0.1239
 3059TIP3    H230813   4.632   4.903   0.484  0.0820 -0.3462 -0.7236
 3060TIP3   OH230814   4.522   4.746   0.894 -0.7531  0.2933 -0.3121
 3060TIP3    H130815   4.472   4.668   0.918  0.0556 -0.2008 -0.1923
 3060TIP3    H230816   4.502   4.809   0.964 -1.1291  0.0697 -0.2138
 3061TIP3   OH230817   1.448   5.158   1.074  0.1430 -0.5352  0.0747
 3061TIP3    H130818   1.404   5.095   1.017 -0.3472 -0.7137  0.6406
 3061TIP3    H230819   1.379   5.190   1.132  0.6510 -0.4256  0.6306
 3062TIP3   OH230820   4.465   6.836   0.059  0.0131 -0.2243  0.3341
 3062TIP3    H130821   4.476   6.907  -0.004 -0.2616 -0.3014  0.2004
 3062TIP3    H230822   4.507   6.761   0.017 -2.9385 -1.1383 -1.2196
 3063TIP3   OH230823   5.841   4.155   8.553  0.2497  0.4929 -0.3032
 3063TIP3    H130824   5.923   4.105   8.552  1.7503  2.7170  1.5000
 3063TIP3    H230825   5.839   4.199   8.467  1.2363  0.7878 -0.1897
 3064TIP3   OH230826   3.298   6.006   1.470  0.0351 -0.3496  0.0529
 3064TIP3    H130827   3.211   6.016   1.510  0.0700  0.3002 -0.0239
 3064TIP3    H230828   3.347   5.951   1.532  0.5586  1.8152  1.6732
 3065TIP3   OH230829   4.985   0.329   1.107  0.8660  1.1550 -0.5193
 3065TIP3    H130830   5.026   0.409   1.074  0.7035  0.3034 -2.9310
 3065TIP3    H230831   4.896   0.331   1.070  0.2987  0.6289  0.7399
 3066TIP3   OH230832   5.053   6.120   7.414 -0.6117 -0.3401  0.0419
 3066TIP3    H130833   5.064   6.148   7.505  0.4985  0.1997 -0.2349
 3066TIP3    H230834   5.113   6.045   7.405 -1.7489 -1.2872  0.1145
 3067TIP3   OH230835   5.924   4.004   1.234 -0.2501 -0.3033 -0.2606
 3067TIP3    H130836   5.986   3.935   1.257 -1.1267 -1.4862 -1.2998
 3067TIP3    H230837   5.934   4.015   1.139  0.6390  1.7980  0.0287
 3068TIP3   OH230838   5.676   2.604   1.654 -0.1253  0.2361  0.7918
 3068TIP3    H130839   5.628   2.651   1.722 -0.1248  0.6994  0.4756
 3068TIP3    H230840   5.610   2.550   1.611 -0.4635  1.1582  0.1057
 3069TIP3   OH230841   2.686   5.197   7.014 -0.4616  0.3599  0.8087
 3069TIP3    H130842   2.709   5.231   6.927 -0.5736  1.5313  1.2161
 3069TIP3    H230843   2.654   5.108   6.997 -1.4072  0.9059 -0.4797
 3070TIP3   OH230844   1.509   0.736   7.512  0.1766 -0.7235  0.3876
 3070TIP3    H130845   1.497   0.714   7.604 -0.0206  2.5077  1.2327
 3070TIP3    H230846   1.599   0.769   7.507 -0.3010  0.5461 -0.2269
 3071TIP3   OH230847   0.170   2.731   6.704  0.8110 -0.2031  0.3586
 3071TIP3    H130848   0.194   2.814   6.663  0.1080 -0.7773 -1.3386
 3071TIP3    H230849   0.252   2.683   6.712  0.8912 -0.3509 -1.0964
 3072TIP3   OH230850   1.715   5.717   0.766 -0.4130  0.1301  0.7492
 3072TIP3    H130851   1.653   5.781   0.730  1.1167  1.2484 -0.0019
 3072TIP3    H230852   1.748   5.758   0.846 -0.0114 -0.0706  0.6876
 3073TIP3   OH230853   1.978   1.277   7.155  0.2774 -0.1023 -0.3324
 3073TIP3    H130854   1.954   1.194   7.196  1.9965 -0.7449 -0.5317
 3073TIP3    H230855   2.056   1.306   7.203  0.0462  1.1247 -0.6465
 3074TIP3   OH230856   0.082   0.907   8.599 -0.3249  0.1009 -0.5004
 3074TIP3    H130857   0.099   0.974   8.665  0.2812 -0.7831  0.2598
 3074TIP3    H230858   0.137   0.833   8.625 -1.2864 -0.8471 -1.0937
 3075TIP3   OH230859   1.288   3.976   1.412  0.6401 -0.2750 -0.0906
 3075TIP3    H130860   1.232   3.961   1.336  0.0090 -0.6690  0.4418
 3075TIP3    H230861   1.363   3.918   1.400  0.0913 -1.0204  0.0415
 3076TIP3   OH230862   3.735   6.819   8.365  0.0550 -0.2424  0.1213
 3076TIP3    H130863   3.718   6.897   8.417  0.3352 -0.6140  0.7980
 3076TIP3    H230864   3.648   6.784   8.344 -0.0900  0.7573 -1.0002
 3077TIP3   OH230865   6.153   4.288   8.337  0.4247  0.1467 -0.1947
 3077TIP3    H130866   6.226   4.343   8.308  0.4569 -0.2991 -0.9890
 3077TIP3    H230867   6.075   4.336   8.309  0.4446 -0.0442 -0.5754
 3078TIP3   OH230868   6.499   4.146   7.684  0.0278 -0.0751  0.2300
 3078TIP3    H130869   6.589   4.113   7.672  0.6673  2.0416 -1.2321
 3078TIP3    H230870   6.509   4.221   7.743 -0.8266  0.0668  0.2016
 3079TIP3   OH230871   3.543   1.692   1.984 -0.0280 -0.1846  0.1014
 3079TIP3    H130872   3.519   1.644   2.063  0.2636  1.4396  1.2374
 3079TIP3    H230873   3.638   1.702   1.991  0.0119 -0.1087 -0.5099
 3080TIP3   OH230874   6.195   6.299   8.112 -0.3599  0.1263 -0.0148
 3080TIP3    H130875   6.175   6.377   8.060 -0.8884 -1.4514 -2.3284
 3080TIP3    H230876   6.280   6.319   8.152  0.0612  1.4760 -1.4481
 3081TIP3   OH230877   1.534   3.909   6.961  0.8621  0.2509 -0.7314
 3081TIP3    H130878   1.463   3.849   6.937  0.8784  0.2076 -0.6729
 3081TIP3    H230879   1.518   3.988   6.909  2.9084 -1.1089 -3.7046
 3082TIP3   OH230880   2.976   1.445   7.721  0.1538  0.2199  0.4598
 3082TIP3    H130881   3.065   1.423   7.746  0.1271 -0.7956 -0.2631
 3082TIP3    H230882   2.953   1.521   7.776  2.2113  1.9167 -0.8821
 3083TIP3   OH230883   2.649   2.984   0.777 -0.0937 -0.3871 -0.3342
 3083TIP3    H130884   2.713   3.021   0.716  0.1211 -1.5292 -0.8329
 3083TIP3    H230885   2.611   2.910   0.730 -1.0285 -0.3650  0.3586
 3084TIP3   OH230886   3.173   3.538   2.789  0.2166 -0.0419 -0.6123
 3084TIP3    H130887   3.196   3.626   2.817  0.9466 -0.7331  1.1165
 3084TIP3    H230888   3.249   3.506   2.741  0.5585 -0.2362  0.0428
 3085TIP3   OH230889   6.543   6.214   1.226  0.0618  0.4637 -0.5812
 3085TIP3    H130890   6.590   6.298   1.221  0.7334  0.0841 -0.7736
 3085TIP3    H230891   6.547   6.190   1.319 -0.5187  0.8541 -0.4483
 3086TIP3   OH230892   1.217   4.264   0.211 -0.4040 -0.1336 -0.2271
 3086TIP3    H130893   1.145   4.223   0.164 -2.3293  1.7849  0.8965
 3086TIP3    H230894   1.234   4.346   0.164  0.9684 -0.4626 -0.3681
 3087TIP3   OH230895   6.639   4.940   0.840 -0.5689  0.2004 -0.6769
 3087TIP3    H130896   6.711   4.876   0.834  0.2302  0.4404  3.4344
 3087TIP3    H230897   6.673   5.018   0.797 -0.1463 -0.9505 -2.5712
 3088TIP3   OH230898   0.243   4.655   0.860  0.6219 -0.5312  0.1844
 3088TIP3    H130899   0.174   4.666   0.794 -0.4278 -1.1500  1.1469
 3088TIP3    H230900   0.256   4.561   0.867  0.6466 -0.4822  0.9314
 3089TIP3   OH230901   5.059   4.795   6.427 -0.3614 -0.4113 -1.0009
 3089TIP3    H130902   5.024   4.800   6.338  0.5508  0.9673 -1.3182
 3089TIP3    H230903   5.133   4.855   6.426 -0.8446  0.2662  0.9326
 3090TIP3   OH230904   2.400   4.363   8.230  0.0235 -0.1450  0.3667
 3090TIP3    H130905   2.475   4.306   8.249  0.0522 -0.3278 -0.2761
 3090TIP3    H230906   2.378   4.401   8.315  1.3633  0.5474  0.4425
 3091TIP3   OH230907   3.741   4.987   1.141  0.7995  0.5571 -0.3682
 3091TIP3    H130908   3.835   5.008   1.141  1.1710 -0.8878 -1.6348
 3091TIP3    H230909   3.720   4.972   1.048 -0.5881  0.4472 -0.0580
 3092TIP3   OH230910   5.926   0.100   7.340 -0.3338  0.3089 -0.1265
 3092TIP3    H130911   5.991   0.037   7.310 -0.9989 -0.7310  0.5399
 3092TIP3    H230912   5.937   0.101   7.435 -0.6666  0.8305 -0.0921
 3093TIP3   OH230913   1.534   2.828   6.395  0.2801  0.3109  0.0780
 3093TIP3    H130914   1.558   2.741   6.361  0.1155  0.3961 -0.2566
 3093TIP3    H230915   1.604   2.885   6.363 -0.6024  0.6572 -1.3333
 3094TIP3   OH230916   2.318   3.388   7.178  0.0953 -0.7385 -0.5870
 3094TIP3    H130917   2.332   3.482   7.166 -0.2495 -0.9000 -2.7025
 3094TIP3    H230918   2.279   3.360   7.095  0.4382 -2.7903 -0.0897
 3095TIP3   OH230919   1.359   5.631   7.333 -0.0298 -0.1345 -0.0344
 3095TIP3    H130920   1.425   5.699   7.317  0.7415 -0.6296  0.9397
 3095TIP3    H230921   1.275   5.675   7.321  0.4420  0.3547 -1.9903
 3096TIP3   OH230922   4.701   2.945   2.318 -0.1594  0.0522  0.0019
 3096TIP3    H130923   4.763   2.909   2.255 -1.2792 -0.3952 -0.9003
 3096TIP3    H230924   4.624   2.887   2.310 -0.2163 -0.2130  2.0136
 3097TIP3   OH230925   2.919   3.233   8.158 -0.0901 -0.1293 -0.7069
 3097TIP3    H130926   2.910   3.223   8.253  1.4717  0.0231 -0.5115
 3097TIP3    H230927   2.970   3.156   8.130  0.1875  0.2590 -1.2939
 3098TIP3   OH230928   1.494   0.889   1.452 -0.3592 -0.0091  0.4296
 3098TIP3    H130929   1.530   0.812   1.409  0.1710  0.9317 -0.8906
 3098TIP3    H230930   1.546   0.899   1.532 -1.5856 -1.9794  1.5607
 3099TIP3   OH230931   4.137   0.800   7.907  0.2665 -0.3999  0.6366
 3099TIP3    H130932   4.060   0.747   7.888  0.5001 -0.5349  0.0555
 3099TIP3    H230933   4.141   0.864   7.836 -0.2276  0.6504  1.5264
 3100TIP3   OH230934   0.421   4.104   1.451  0.4326  0.1054  0.1239
 3100TIP3    H130935   0.423   4.038   1.520 -1.0515 -1.5376 -1.2859
 3100TIP3    H230936   0.513   4.112   1.423  1.0176  0.6413  2.0606
 3101TIP3   OH230937   6.764   2.118   1.604 -0.1851 -0.2509 -0.5699
 3101TIP3    H130938   6.716   2.142   1.525 -0.3310  0.1012 -0.3775
 3101TIP3    H230939   6.750   2.024   1.614  0.9312 -0.5693 -1.7043
 3102TIP3   OH230940   6.699   3.451   0.166  0.3942 -0.4619  0.3764
 3102TIP3    H130941   6.754   3.503   0.225 -0.3762  0.9086 -0.0596
 3102TIP3    H230942   6.636   3.408   0.223 -1.5341  2.3121  0.5053
 3103TIP3   OH230943   6.767   1.204   8.289 -0.0733 -0.2804  0.2904
 3103TIP3    H130944   6.790   1.120   8.252  0.6100 -0.0227  0.1238
 3103TIP3    H230945   6.732   1.184   8.376 -0.9286 -0.8155 -0.1661
 3104TIP3   OH230946   3.109   2.914   0.865 -0.1844 -0.2827 -0.8247
 3104TIP3    H130947   3.113   2.890   0.958 -1.2880 -1.2792 -1.0158
 3104TIP3    H230948   3.198   2.944   0.845  0.0260  0.1248  0.5918
 3105TIP3   OH230949   6.836   0.426   1.445 -0.0501 -0.2428 -0.2304
 3105TIP3    H130950   6.928   0.455   1.440  0.0205 -0.6152 -4.8121
 3105TIP3    H230951   6.824   0.372   1.367 -4.2817 -0.0319  0.0939
 3106TIP3   OH230952   4.163   0.951   0.769  0.0504 -0.6206  0.4401
 3106TIP3    H130953   4.200   1.035   0.795  0.0906 -1.0418  1.8319
 3106TIP3    H230954   4.105   0.971   0.696 -0.1481  0.6507  0.9324
 3107TIP3   OH230955   4.433   1.714   0.015 -0.0017  0.5045  0.1077
 3107TIP3    H130956   4.477   1.782   0.067  2.0766 -0.9737  0.4305
 3107TIP3    H230957   4.342   1.743   0.009  0.5654  2.7355  1.1598
 3108TIP3   OH230958   4.471   2.026   2.414  0.3715 -0.0975  0.3075
 3108TIP3    H130959   4.455   2.080   2.336  0.8341 -2.6444 -1.6627
 3108TIP3    H230960   4.567   2.021   2.420  0.4917 -3.5843 -1.8515
 3109TIP3   OH230961   5.711   3.615   2.087 -0.1253  0.1488  0.0383
 3109TIP3    H130962   5.718   3.618   2.182  0.7842  1.1205 -0.0388
 3109TIP3    H230963   5.764   3.689   2.057 -0.8491  0.1896 -1.2037
 3110TIP3   OH230964   2.288   0.296   7.738  1.1308  0.0609 -0.1710
 3110TIP3    H130965   2.373   0.339   7.744  0.4082  1.8595 -1.9366
 3110TIP3    H230966   2.230   0.349   7.793  0.9410 -0.6511  0.3336
 3111TIP3   OH230967   1.236   5.311   0.344  0.2506  0.3124  0.0154
 3111TIP3    H130968   1.271   5.306   0.255 -0.9608  0.6378 -0.5055
 3111TIP3    H230969   1.145   5.338   0.332 -0.2823 -0.8108  1.2876
 3112TIP3   OH230970   1.528   5.811   1.807 -0.0379 -0.3004  0.2725
 3112TIP3    H130971   1.615   5.790   1.771 -0.1895 -2.6803  1.1822
 3112TIP3    H230972   1.545   5.884   1.867  0.7592  1.4318 -1.8788
 3113TIP3   OH230973   3.001   1.092   1.965  0.0146 -0.2995 -0.1007
 3113TIP3    H130974   2.928   1.139   1.924  1.6194  1.9219 -0.6249
 3113TIP3    H230975   3.078   1.123   1.918  1.3790 -2.0912  0.8438
 3114TIP3   OH230976   0.315   5.925   0.504  0.0416  0.2881  0.1839
 3114TIP3    H130977   0.281   5.876   0.429 -0.0319  1.3545 -0.4946
 3114TIP3    H230978   0.308   6.017   0.478  2.4590  0.6093  0.4273
 3115TIP3   OH230979   4.584   1.879   0.142 -0.2764  0.1464 -0.1164
 3115TIP3    H130980   4.636   1.852   0.218  0.5059  0.3854 -0.5491
 3115TIP3    H230981   4.574   1.974   0.152  0.1511  0.2379 -0.4917
 3116TIP3   OH230982   6.150   5.855   2.127 -0.1614  0.1814 -0.5624
 3116TIP3    H130983   6.196   5.818   2.202  1.2945  1.5524 -0.7420
 3116TIP3    H230984   6.093   5.922   2.164 -1.7104 -1.1498 -0.4024
 3117TIP3   OH230985   0.263   0.831   0.534 -0.3705  0.1540 -0.3293
 3117TIP3    H130986   0.322   0.898   0.569 -1.1481  0.8135 -0.2436
 3117TIP3    H230987   0.260   0.764   0.602  0.6046 -0.1009 -0.5187
 3118TIP3   OH230988   6.765   4.905   7.106  0.1060  0.2667  0.2415
 3118TIP3    H130989   6.748   4.934   7.196  0.8741  0.5555  0.2979
 3118TIP3    H230990   6.829   4.967   7.072 -0.2286  0.2061 -0.5398
 3119TIP3   OH230991   6.769   4.023   7.656  0.6710 -0.3491  0.0246
 3119TIP3    H130992   6.808   3.953   7.602 -2.0770 -0.5165 -1.9273
 3119TIP3    H230993   6.844   4.078   7.680  2.4230 -1.8516 -1.5874
 3120TIP3   OH230994   1.416   3.785   0.209  0.4800  0.0125  0.2226
 3120TIP3    H130995   1.391   3.719   0.273  0.3512  1.2740  1.5238
 3120TIP3    H230996   1.426   3.737   0.127  0.1451 -1.5598  1.0739
 3121TIP3   OH230997   0.725   5.290   1.879  0.4035 -0.5750  0.6368
 3121TIP3    H130998   0.695   5.216   1.932 -1.0068 -0.5007 -0.0077
 3121TIP3    H230999   0.710   5.367   1.934 -0.5559 -0.5495  0.3640
 3122TIP3   OH231000   0.643   6.885   1.725 -0.1524  0.0810  0.0488
 3122TIP3    H131001   0.646   6.859   1.633 -0.0489  0.0138  0.0707
 3122TIP3    H231002   0.694   6.966   1.729  1.4500 -0.9063  0.3690
 3123TIP3   OH231003   0.488   2.232   7.787 -0.3253  0.6286  0.1898
 3123TIP3    H131004   0.552   2.303   7.788 -0.3154  0.6348 -0.7410
 3123TIP3    H231005   0.477   2.210   7.695  1.2740 -2.0534  0.5536
 3124TIP3   OH231006   5.796   6.451   0.794 -0.6721  0.1621 -0.2372
 3124TIP3    H131007   5.821   6.401   0.716 -2.7200 -3.5483  1.2350
 3124TIP3    H231008   5.733   6.516   0.762 -0.6170 -0.5208 -1.8222
 3125TIP3   OH231009   4.705   2.663   2.535 -0.2807 -0.3438 -0.2248
 3125TIP3    H131010   4.693   2.725   2.607  0.7641 -1.9627  1.4423
 3125TIP3    H231011   4.797   2.670   2.512 -0.3684 -0.6039 -0.6653
 3126TIP3   OH231012   0.457   1.300   1.664 -0.4103 -0.3762 -0.2342
 3126TIP3    H131013   0.423   1.213   1.685  0.1601 -0.7387 -0.7535
 3126TIP3    H231014   0.412   1.359   1.724  0.1690 -1.1911  1.0364
 3127TIP3   OH231015   3.076   1.101   0.926  0.4954  0.0077 -0.2032
 3127TIP3    H131016   3.006   1.148   0.972 -0.9126 -0.6077 -1.6459
 3127TIP3    H231017   3.123   1.055   0.996  1.0644  2.3664  1.0963
 3128TIP3   OH231018   0.906   1.534   2.029  0.0297 -0.1927  0.3952
 3128TIP3    H131019   0.957   1.615   2.032 -0.1958 -0.0165 -0.3031
 3128TIP3    H231020   0.915   1.497   2.117  0.2141  0.5428  0.6977
 3129TIP3   OH231021   2.947   3.637   0.022  0.5450 -0.0348  0.1728
 3129TIP3    H131022   2.896   3.679  -0.047 -1.4290 -0.3075  1.4080
 3129TIP3    H231023   3.037   3.669   0.009  0.3018 -0.2796 -2.6540
 3130TIP3   OH231024   6.268   4.525   0.812 -0.3355 -0.4444  0.1186
 3130TIP3    H131025   6.348   4.484   0.777  0.1590  1.7781 -1.5903
 3130TIP3    H231026   6.299   4.574   0.888 -0.1645 -0.0544 -0.1977
 3131TIP3   OH231027   3.691   6.205   8.380 -0.1104 -0.2838  0.4907
 3131TIP3    H131028   3.703   6.290   8.422 -1.5932  0.4416 -0.4809
 3131TIP3    H231029   3.597   6.196   8.371  0.0824 -1.4166 -0.6566
 3132TIP3   OH231030   4.858   2.807   7.577  0.1638 -0.0312 -0.1064
 3132TIP3    H131031   4.821   2.859   7.506  2.2850  0.3008 -1.0408
 3132TIP3    H231032   4.850   2.717   7.547  1.9306  0.1519 -1.2953
 3133TIP3   OH231033   1.380   6.230   8.100  0.1717 -0.0834 -0.1883
 3133TIP3    H131034   1.345   6.203   8.184 -0.3203 -0.2387 -0.4426
 3133TIP3    H231035   1.417   6.317   8.116  0.1251 -0.1356  0.1967
 3134TIP3   OH231036   3.690   0.676   8.574  0.5095 -0.2334 -0.0836
 3134TIP3    H131037   3.741   0.696   8.653  0.3256  0.4471 -0.1301
 3134TIP3    H231038   3.600   0.674   8.604  0.4482 -0.0674 -0.2533
 3135TIP3   OH231039   4.748   3.728   7.876  0.5241 -0.1572  0.5280
 3135TIP3    H131040   4.720   3.740   7.967  0.9127  0.2433  0.5970
 3135TIP3    H231041   4.691   3.786   7.826  1.9186  1.4842  0.7840
 3136TIP3   OH231042   3.076   5.591   7.975  0.1702  0.1555  0.4443
 3136TIP3    H131043   3.004   5.600   7.912 -1.4701 -0.0175  2.2002
 3136TIP3    H231044   3.121   5.675   7.971 -0.9703  0.7831  0.2876
 3137TIP3   OH231045   3.555   2.468   7.755 -0.2595  0.1260  0.3065
 3137TIP3    H131046   3.594   2.509   7.678 -0.5276 -0.2936 -0.0562
 3137TIP3    H231047   3.567   2.532   7.825 -1.4669  1.2072 -0.4473
 3138TIP3   OH231048   5.172   2.452   0.228 -0.3510 -0.2361  0.2679
 3138TIP3    H131049   5.105   2.513   0.196  0.2611  0.5259  0.4273
 3138TIP3    H231050   5.185   2.392   0.156 -0.2480  0.4180 -0.2680
 3139TIP3   OH231051   4.461   5.926   2.178  0.6757  0.2191 -0.4323
 3139TIP3    H131052   4.488   6.009   2.219  1.4744 -0.2499  0.0307
 3139TIP3    H231053   4.410   5.882   2.246  0.2080  0.3492 -0.6970
 3140TIP3   OH231054   6.637   0.031   2.091 -0.2368  0.1859 -0.7900
 3140TIP3    H131055   6.600   0.106   2.044  0.5863  0.9610 -0.2228
 3140TIP3    H231056   6.693  -0.013   2.026  0.8930  1.2504 -0.5721
 3141TIP3   OH231057   1.336   2.642   0.150 -0.2608 -0.5287 -0.3826
 3141TIP3    H131058   1.358   2.706   0.218 -0.3401 -1.7375  0.8343
 3141TIP3    H231059   1.259   2.678   0.106 -0.4166  0.1248  0.4042
 3142TIP3   OH231060   0.189   5.193   6.295 -0.1093  0.1924 -0.4706
 3142TIP3    H131061   0.202   5.106   6.335  2.5154  0.5204 -0.4570
 3142TIP3    H231062   0.270   5.210   6.249 -1.0153  2.2073 -1.4070
 3143TIP3   OH231063   0.685   1.946   0.130  0.4792  0.1078 -0.0593
 3143TIP3    H131064   0.630   1.886   0.080 -0.7076  1.4535 -0.4481
 3143TIP3    H231065   0.724   1.891   0.198 -0.6135 -1.0942 -0.3452
 3144TIP3   OH231066   0.507   5.368   7.165  0.7576 -0.3428 -0.5520
 3144TIP3    H131067   0.503   5.309   7.241  1.2625 -3.2199 -2.5730
 3144TIP3    H231068   0.418   5.370   7.131  0.8392 -0.3225 -0.7667
 3145TIP3   OH231069   6.855   5.279   1.840  0.7872 -0.5444  0.0274
 3145TIP3    H131070   6.811   5.285   1.925  3.9863  0.7991  1.7308
 3145TIP3    H231071   6.842   5.188   1.813  0.1804 -1.1813  2.2542
 3146TIP3   OH231072   3.852   1.623   8.564  0.1475 -0.6895 -0.2874
 3146TIP3    H131073   3.889   1.662   8.643  2.1148 -2.8227 -0.0439
 3146TIP3    H231074   3.875   1.685   8.494 -0.2545  0.4617  0.5759
 3147TIP3   OH231075   3.018   0.229   7.889  0.3985 -0.0925  0.1366
 3147TIP3    H131076   2.957   0.213   7.961  2.7763 -1.2105  2.0486
 3147TIP3    H231077   3.095   0.269   7.931  1.5837 -0.1051 -1.8983
 3148TIP3   OH231078   4.275   2.656   7.122  0.4061 -0.1122  0.2439
 3148TIP3    H131079   4.315   2.575   7.091  0.2316  0.1804 -0.7709
 3148TIP3    H231080   4.201   2.671   7.063 -2.1086 -1.3409  2.8103
 3149TIP3   OH231081   4.200   0.965   7.692 -0.6499  0.1884  0.3085
 3149TIP3    H131082   4.189   0.966   7.597  1.0673  0.6638  0.0820
 3149TIP3    H231083   4.294   0.968   7.706 -0.8628  0.1699  2.0429
 3150TIP3   OH231084   2.780   3.355   0.802  0.1832  0.7751 -0.4297
 3150TIP3    H131085   2.823   3.275   0.832 -3.5729 -0.8270  1.3048
 3150TIP3    H231086   2.735   3.389   0.879  0.3071  3.7256 -1.5175
 3151TIP3   OH231087   6.603   1.551   1.786 -0.0346 -0.0383  0.4656
 3151TIP3    H131088   6.650   1.591   1.860  0.0858  2.2259 -0.7433
 3151TIP3    H231089   6.672   1.523   1.726  0.0023  3.3204 -1.3278
 3152TIP3   OH231090   2.452   4.359   2.381  0.0329  0.4456  0.2918
 3152TIP3    H131091   2.526   4.407   2.420 -1.9430  2.1610  2.1770
 3152TIP3    H231092   2.462   4.270   2.413  2.1794  0.1951 -0.8864
 3153TIP3   OH231093   2.106   2.604   1.368  0.2345 -0.0162 -0.7786
 3153TIP3    H131094   2.100   2.526   1.313  1.1342 -0.4959 -0.2276
 3153TIP3    H231095   2.176   2.584   1.430 -0.5659  0.6253  0.3699
 3154TIP3   OH231096   6.567   6.418   6.643  0.1487  0.1976  0.0788
 3154TIP3    H131097   6.641   6.363   6.618  1.4691  0.9690  2.0629
 3154TIP3    H231098   6.594   6.507   6.619 -0.8815  0.3138 -0.7351
 3155TIP3   OH231099   6.663   3.849   1.350  0.2854  0.2648  0.4010
 3155TIP3    H131100   6.589   3.907   1.332  0.0383 -0.6399 -1.8475
 3155TIP3    H231101   6.624   3.771   1.390 -0.1564 -0.4796 -1.3521
 3156TIP3   OH231102   6.519   3.086   7.898  0.3919 -0.1529 -0.5252
 3156TIP3    H131103   6.432   3.095   7.936 -0.4905  0.2139 -2.5433
 3156TIP3    H231104   6.536   3.171   7.857  1.8140 -0.1427  0.0145
 3157TIP3   OH231105   0.419   5.510   7.614  0.1581 -0.2739 -0.5287
 3157TIP3    H131106   0.436   5.515   7.520  0.1489 -0.0740 -0.5202
 3157TIP3    H231107   0.503   5.488   7.653  0.5002  1.1143 -0.4471
 3158TIP3   OH231108   6.568   0.986   0.718  0.1924  0.3466 -0.4479
 3158TIP3    H131109   6.620   1.046   0.664  2.2356 -0.9699 -0.0424
 3158TIP3    H231110   6.572   1.023   0.806 -0.5333  0.8516 -0.6238
 3159TIP3   OH231111   1.885   1.415   0.687  0.0603  0.4196  0.4814
 3159TIP3    H131112   1.814   1.384   0.630  2.0828  0.9230 -2.5215
 3159TIP3    H231113   1.933   1.336   0.711 -1.0275  0.1593  1.9419
 3160TIP3   OH231114   2.443   0.525   0.730  0.1133  0.0465 -0.1328
 3160TIP3    H131115   2.502   0.572   0.789  0.6064  1.7005 -1.8409
 3160TIP3    H231116   2.500   0.473   0.674 -0.0784  0.8496 -1.1126
 3161TIP3   OH231117   6.687   5.660   6.804  0.0826  0.1209  0.2950
 3161TIP3    H131118   6.615   5.693   6.749  0.9987  0.2139 -0.8883
 3161TIP3    H231119   6.750   5.731   6.806  0.5030 -0.2560  0.6669
 3162TIP3   OH231120   6.020   2.202   8.241  0.0671  0.0412 -0.0723
 3162TIP3    H131121   5.945   2.153   8.208  0.6062 -1.2166  0.5147
 3162TIP3    H231122   6.073   2.137   8.288  0.6288  1.2449  1.0353
 3163TIP3   OH231123   0.154   4.672   6.437  0.3192 -0.2007  0.2148
 3163TIP3    H131124   0.181   4.600   6.496 -1.1407  0.2156  1.4525
 3163TIP3    H231125   0.077   4.638   6.391 -0.1438  0.4173  0.5174
 3164TIP3   OH231126   0.812   6.222   1.743 -0.2785  0.1236  0.0527
 3164TIP3    H131127   0.849   6.290   1.800 -1.7314 -0.4687  1.8073
 3164TIP3    H231128   0.717   6.238   1.746 -0.5632 -1.3982 -0.2774
 3165TIP3   OH231129   0.367   4.039   7.166 -0.7953  0.0963  0.1899
 3165TIP3    H131130   0.426   4.086   7.107 -0.5531  0.6912  0.8762
 3165TIP3    H231131   0.319   3.979   7.110 -0.2972  0.3669 -0.5466
 3166TIP3   OH231132   2.936   0.484   0.708  0.5157  0.0179 -0.1696
 3166TIP3    H131133   2.912   0.392   0.717  1.6405 -0.3021 -0.3033
 3166TIP3    H231134   3.025   0.489   0.742  0.8917  0.8401 -1.2312
 3167TIP3   OH231135   1.076   6.919   8.557 -0.1942  0.4294 -0.4507
 3167TIP3    H131136   1.052   6.854   8.490 -0.9186  0.3676 -0.1370
 3167TIP3    H231137   1.164   6.893   8.585  1.3459  2.0434 -3.3267
 3168TIP3   OH231138   0.093   2.548   7.075 -0.2486 -0.3053 -0.3529
 3168TIP3    H131139   0.060   2.493   7.147 -1.9985  0.6616 -0.3680
 3168TIP3    H231140   0.111   2.486   7.005 -0.7920 -1.0224  0.1177
 3169TIP3   OH231141   1.428   3.586   0.013 -0.7870  0.3270 -0.0782
 3169TIP3    H131142   1.359   3.531   0.050  1.1921 -1.0880  1.7477
 3169TIP3    H231143   1.452   3.543  -0.069 -0.7612 -0.2577  0.2353
 3170TIP3   OH231144   5.160   3.093   0.184  0.1839  0.3170 -0.3031
 3170TIP3    H131145   5.069   3.088   0.211  0.6589  1.0995  1.6693
 3170TIP3    H231146   5.207   3.038   0.247  1.1548  0.6904 -0.6730
 3171TIP3   OH231147   1.847   0.558   8.273  0.1363 -0.2042 -0.0562
 3171TIP3    H131148   1.820   0.470   8.300 -0.0724 -0.5722 -1.3715
 3171TIP3    H231149   1.831   0.559   8.178  0.5133  1.1175 -0.1166
 3172TIP3   OH231150   4.870   2.442   1.851  0.4574  0.2733  0.2288
 3172TIP3    H131151   4.868   2.536   1.866 -1.3553 -0.0735  2.7823
 3172TIP3    H231152   4.891   2.433   1.758 -1.6372  3.2467 -0.6872
 3173TIP3   OH231153   1.895   6.757   1.697  0.3563 -0.2537 -0.4821
 3173TIP3    H131154   1.896   6.853   1.702  1.8440 -0.2378 -0.4116
 3173TIP3    H231155   1.983   6.731   1.727  0.7646 -1.5133 -2.5494
 3174TIP3   OH231156   6.592   4.653   8.379 -0.2472 -0.5419  0.3319
 3174TIP3    H131157   6.618   4.566   8.409 -0.3923 -0.9836 -0.7723
 3174TIP3    H231158   6.667   4.686   8.331  0.5207  0.7550  2.3023
 3175TIP3   OH231159   4.460   1.071   7.867  0.2120  0.2616 -0.8886
 3175TIP3    H131160   4.436   0.989   7.909 -0.2089 -0.0441 -1.7093
 3175TIP3    H231161   4.555   1.078   7.880  0.0488  0.3422  0.3837
 3176TIP3   OH231162   6.447   3.353   0.867 -0.1577  0.2721  0.0039
 3176TIP3    H131163   6.419   3.360   0.776 -2.5872 -0.3817  0.6077
 3176TIP3    H231164   6.368   3.371   0.917  0.8277 -0.5634  1.9558
 3177TIP3   OH231165   1.930   5.410   8.184 -0.7034 -0.2634  0.5092
 3177TIP3    H131166   1.994   5.479   8.164 -0.9814  0.3450  1.6223
 3177TIP3    H231167   1.960   5.334   8.134  1.1588 -0.1262  1.3432
 3178TIP3   OH231168   0.677   5.839   7.453  0.3260  0.2017  0.7260
 3178TIP3    H131169   0.688   5.756   7.407  0.9727  0.6480  0.0274
 3178TIP3    H231170   0.760   5.885   7.439 -0.4177  1.4227  0.1224
 3179TIP3   OH231171   5.208   2.129   0.305 -0.9355  0.4188 -0.4551
 3179TIP3    H131172   5.167   2.049   0.272 -2.4134  0.7026  0.6438
 3179TIP3    H231173   5.267   2.156   0.234 -3.2391  0.4408 -2.4714
 3180TIP3   OH231174   1.274   0.525   0.339 -0.2151 -0.0793  0.0117
 3180TIP3    H131175   1.289   0.490   0.252  0.1499 -0.6176  0.2846
 3180TIP3    H231176   1.277   0.449   0.397 -0.8415  0.2205  0.4508
 3181TIP3   OH231177   0.671   3.758   1.449 -0.2137 -0.2660  0.4085
 3181TIP3    H131178   0.660   3.676   1.497 -0.8682 -0.7856 -0.5954
 3181TIP3    H231179   0.600   3.814   1.479 -0.2247 -0.3428  0.5276
 3182TIP3   OH231180   3.876   1.797   0.159 -0.7055 -0.3036  0.0325
 3182TIP3    H131181   3.783   1.776   0.164 -0.9964  1.1515  1.8151
 3182TIP3    H231182   3.909   1.782   0.247  0.0123  2.2565  0.2674
 3183TIP3   OH231183   3.149   1.243   1.364  0.1523  0.0041  0.3713
 3183TIP3    H131184   3.181   1.153   1.376 -1.0291 -0.5379 -0.3533
 3183TIP3    H231185   3.086   1.255   1.436  0.7916  0.5036  0.8605
 3184TIP3   OH231186   5.775   6.411   8.271  0.1405 -0.1929  0.7084
 3184TIP3    H131187   5.834   6.473   8.229 -0.8613 -1.1331 -2.3036
 3184TIP3    H231188   5.820   6.327   8.264 -0.7379 -0.6162  0.0424
 3185TIP3   OH231189   5.540   3.741   1.284  0.0986  0.3391  0.2433
 3185TIP3    H131190   5.549   3.649   1.257  1.5600  0.1468  1.2889
 3185TIP3    H231191   5.568   3.742   1.375 -1.6113  1.5486  0.8004
 3186TIP3   OH231192   4.174   6.739   7.144 -0.5455  0.4853 -0.2137
 3186TIP3    H131193   4.121   6.810   7.107 -1.1771 -0.3877 -1.0406
 3186TIP3    H231194   4.129   6.659   7.116 -0.1259 -0.2442  1.1134
 3187TIP3   OH231195   5.660   0.414   8.376  0.9018  0.4918 -0.0160
 3187TIP3    H131196   5.592   0.348   8.386  1.0845  0.5819  2.4018
 3187TIP3    H231197   5.618   0.485   8.328 -1.1534  1.0507  2.3890
 3188TIP3   OH231198   4.295   0.421   8.567 -0.3184  0.0920  0.4951
 3188TIP3    H131199   4.304   0.365   8.645 -0.3906  1.2634  1.3753
 3188TIP3    H231200   4.309   0.510   8.600  1.8344  0.4580 -1.2418
 3189TIP3   OH231201   6.218   1.781   0.989  0.2814 -0.6143 -0.7280
 3189TIP3    H131202   6.127   1.751   0.986  0.0157 -0.0132  0.4129
 3189TIP3    H231203   6.242   1.771   1.081  1.7693 -1.8569 -1.2090
 3190TIP3   OH231204   1.503   6.003   0.976  0.5467  0.0028 -0.4029
 3190TIP3    H131205   1.570   6.003   1.044  0.1303 -0.6260  0.0163
 3190TIP3    H231206   1.461   5.918   0.984 -1.9028  1.2478  0.9243
 3191TIP3   OH231207   3.287   0.068   1.814 -0.1318  0.0692 -0.3056
 3191TIP3    H131208   3.299   0.163   1.815 -1.1592  0.2084 -0.4515
 3191TIP3    H231209   3.285   0.044   1.907 -1.3688  0.4048 -0.2266
 3192TIP3   OH231210   6.379   0.819   2.469 -0.2526 -0.0482  0.0060
 3192TIP3    H131211   6.308   0.755   2.470 -2.1075  1.9029  1.3381
 3192TIP3    H231212   6.339   0.900   2.437  1.9932  0.5491 -1.5359
 3193TIP3   OH231213   6.145   1.991   2.067  0.1656  0.2457 -0.4705
 3193TIP3    H131214   6.149   1.915   2.125 -1.8586 -1.3537 -2.2518
 3193TIP3    H231215   6.074   2.045   2.104  2.7051  2.3403  1.7984
 3194TIP3   OH231216   3.944   2.429   0.765  0.3598  0.2714 -0.2362
 3194TIP3    H131217   3.859   2.467   0.742  1.2138  2.3444 -0.1599
 3194TIP3    H231218   3.973   2.385   0.685 -0.8077 -0.5403 -0.2341
 3195TIP3   OH231219   2.725   5.272   1.131  0.1987 -0.2121  0.3239
 3195TIP3    H131220   2.651   5.275   1.070  1.1880 -1.1075 -0.9601
 3195TIP3    H231221   2.715   5.352   1.184 -1.2756  0.0467 -0.2938
 3196TIP3   OH231222   4.938   2.581   1.532 -0.4861 -0.2549  0.1827
 3196TIP3    H131223   4.956   2.591   1.626  0.2917 -1.1482  0.1447
 3196TIP3    H231224   4.855   2.627   1.519 -0.2901  0.4284  1.1819
 3197TIP3   OH231225   2.318   0.261   6.905 -0.4073  0.4799 -0.3080
 3197TIP3    H131226   2.332   0.170   6.881  0.5389  1.0030 -1.8851
 3197TIP3    H231227   2.322   0.262   7.001  0.4012 -1.0006 -0.3091
 3198TIP3   OH231228   4.140   4.446   7.997 -0.0460  0.9838  0.2758
 3198TIP3    H131229   4.142   4.517   7.933  0.6612  1.2648  0.5960
 3198TIP3    H231230   4.133   4.366   7.945  1.1409  1.1660 -0.2038
 3199TIP3   OH231231   0.869   1.606   7.005  0.0760 -0.4273 -0.0114
 3199TIP3    H131232   0.929   1.569   6.939  1.4552  0.0615  0.9158
 3199TIP3    H231233   0.801   1.649   6.953  0.7100 -0.6989 -1.1224
 3200TIP3   OH231234   4.380   1.146   1.369  0.6978 -0.1465 -0.1884
 3200TIP3    H131235   4.381   1.051   1.357 -1.6462 -0.3977  0.9564
 3200TIP3    H231236   4.289   1.171   1.354  1.4905  2.1404 -1.6681
 3201TIP3   OH231237   3.079   0.855   6.295  0.0580 -0.6158 -0.3721
 3201TIP3    H131238   3.131   0.780   6.267  0.1515 -1.4880  1.9352
 3201TIP3    H231239   3.010   0.818   6.350 -0.9149  0.8576 -0.5287
 3202TIP3   OH231240   4.046   4.782   1.315  0.0147  0.2369  0.4291
 3202TIP3    H131241   3.964   4.761   1.360 -0.1092 -1.3084 -0.4654
 3202TIP3    H231242   4.020   4.840   1.244 -0.8370 -2.4883 -1.6571
 3203TIP3   OH231243   0.354   4.511   0.057 -0.2807  0.1953 -0.0843
 3203TIP3    H131244   0.274   4.461   0.075 -1.4395  2.5179  1.7954
 3203TIP3    H231245   0.363   4.509  -0.038 -1.7753 -1.2896 -0.2331
 3204TIP3   OH231246   0.849   3.930   0.916  0.6997  0.0818  0.0845
 3204TIP3    H131247   0.808   3.844   0.927  1.2044 -0.2001 -0.1781
 3204TIP3    H231248   0.926   3.913   0.861  1.7611  0.4196  1.3875
 3205TIP3   OH231249   3.975   2.323   0.518 -0.4877  0.1102 -0.6379
 3205TIP3    H131250   4.016   2.236   0.515 -1.2449 -0.4344  1.8782
 3205TIP3    H231251   3.884   2.308   0.495 -0.7173  0.1289  0.2179
 3206TIP3   OH231252   0.354   0.687   0.277  0.0394  0.1203  0.0465
 3206TIP3    H131253   0.306   0.735   0.344  1.8075  2.9961 -0.5572
 3206TIP3    H231254   0.446   0.702   0.298  0.6525 -0.9107 -1.6732
 3207TIP3   OH231255   4.837   4.597   7.729 -0.0080 -0.2773  0.3425
 3207TIP3    H131256   4.929   4.570   7.725  0.2848  0.6483  0.6919
 3207TIP3    H231257   4.796   4.534   7.788 -0.1522 -2.1938 -1.6522
 3208TIP3   OH231258   0.784   1.803   7.239  0.6353 -0.4753 -0.3530
 3208TIP3    H131259   0.730   1.728   7.263  0.4242 -0.3452 -0.4187
 3208TIP3    H231260   0.813   1.783   7.150 -1.6579  0.7626 -1.4559
 3209TIP3   OH231261   3.234   3.731   6.717 -0.3923 -1.1402 -0.4894
 3209TIP3    H131262   3.259   3.788   6.789  1.1739 -3.4888  0.9656
 3209TIP3    H231263   3.145   3.759   6.694 -0.1666  0.9919  0.9550
 3210TIP3   OH231264   4.952   0.409   6.849 -0.1114  0.6134 -0.1297
 3210TIP3    H131265   4.864   0.419   6.813  0.3268  0.6068 -1.2627
 3210TIP3    H231266   5.003   0.369   6.778  0.5051 -0.6185  0.9550
 3211TIP3   OH231267   0.816   1.748   8.027 -0.2105 -0.5680 -0.2997
 3211TIP3    H131268   0.814   1.682   8.097  0.9531 -0.4414 -0.1314
 3211TIP3    H231269   0.863   1.707   7.956  2.2633  0.6916  0.4998
 3212TIP3   OH231270   3.245   1.481   0.074 -0.1498 -0.4165  0.2012
 3212TIP3    H131271   3.298   1.526   0.140  1.0794  0.2343 -1.1699
 3212TIP3    H231272   3.306   1.419   0.034 -0.0921  0.9679 -2.0272
 3213TIP3   OH231273   4.054   0.076   0.399  0.5266 -0.0698  0.0873
 3213TIP3    H131274   4.010   0.147   0.352  0.0057  0.4658  1.3295
 3213TIP3    H231275   4.113   0.038   0.335 -1.5543 -0.6724 -1.6030
 3214TIP3   OH231276   1.688   6.535   8.227  0.4089  0.2898 -0.0231
 3214TIP3    H131277   1.741   6.596   8.278 -0.4608  0.5355  0.6019
 3214TIP3    H231278   1.647   6.590   8.160 -0.0014  0.3162  0.2460
 3215TIP3   OH231279   5.294   2.827   1.873 -0.0570 -0.2403  0.1773
 3215TIP3    H131280   5.227   2.871   1.821  1.3720 -0.4250 -1.9420
 3215TIP3    H231281   5.272   2.734   1.866 -0.5331 -0.1961  0.9380
 3216TIP3   OH231282   2.073   3.039   1.437  0.1403 -0.7393 -0.2462
 3216TIP3    H131283   2.004   3.044   1.503 -0.1494 -1.1753 -0.5042
 3216TIP3    H231284   2.144   2.992   1.480  1.4822  2.2010  1.0056
 3217TIP3   OH231285   1.062   2.487   1.268 -0.2099  0.3426 -0.3098
 3217TIP3    H131286   0.970   2.483   1.293 -0.4509 -1.4193 -1.3493
 3217TIP3    H231287   1.061   2.527   1.181  0.1780  1.6579  0.2514
 3218TIP3   OH231288   1.381   5.951   0.214  0.2881  0.1564 -0.1460
 3218TIP3    H131289   1.324   5.971   0.289  0.4730  0.1241  0.0049
 3218TIP3    H231290   1.418   5.865   0.235  2.0942  1.0908  0.8291
 3219TIP3   OH231291   0.586   6.046   8.334  0.4594  0.3976 -0.5406
 3219TIP3    H131292   0.665   5.992   8.322  0.6442  0.7130 -0.7488
 3219TIP3    H231293   0.515   5.982   8.341  0.4779  0.1340 -2.2490
 3220TIP3   OH231294   5.203   5.798   0.784 -0.4343  0.0235 -0.6405
 3220TIP3    H131295   5.179   5.745   0.860 -2.4887  0.6701 -0.7894
 3220TIP3    H231296   5.296   5.817   0.798 -0.7454  0.1605  1.7446
 3221TIP3   OH231297   5.305   0.458   0.537 -0.0008 -0.2502  0.0608
 3221TIP3    H131298   5.360   0.408   0.476  0.9995 -0.9155  1.4643
 3221TIP3    H231299   5.225   0.476   0.487  0.6287 -1.0825 -1.3227
 3222TIP3   OH231300   3.268   2.861   6.513 -0.2807  0.3342 -0.4561
 3222TIP3    H131301   3.254   2.931   6.577 -1.6817  0.1776 -0.5759
 3222TIP3    H231302   3.249   2.781   6.561  3.6527 -0.2799  0.4224
 3223TIP3   OH231303   3.550   1.346   1.609 -0.0857 -0.0261 -1.0990
 3223TIP3    H131304   3.473   1.396   1.580 -0.6169  0.2795  0.7224
 3223TIP3    H231305   3.517   1.259   1.630 -0.1212  0.3374  0.4579
 3224TIP3   OH231306   2.134   5.667   0.732  0.1083  0.8142 -0.0449
 3224TIP3    H131307   2.145   5.595   0.670 -1.8392  0.6834 -0.3074
 3224TIP3    H231308   2.085   5.733   0.683 -1.8162  0.5529  1.3954
 3225TIP3   OH231309   2.086   2.182   1.475 -0.0482 -0.4411 -0.3851
 3225TIP3    H131310   2.177   2.202   1.500 -0.4423 -0.6049  1.2775
 3225TIP3    H231311   2.088   2.090   1.449  0.6061  0.0548 -2.2375
 3226TIP3   OH231312   0.981   6.041   1.482  0.0752  0.0587 -0.2771
 3226TIP3    H131313   0.899   5.993   1.472  0.4976 -0.3321 -2.3926
 3226TIP3    H231314   1.013   6.016   1.569 -1.5508 -0.5490  0.1760
 3227TIP3   OH231315   5.912   4.427   7.549 -0.9138 -0.2159  0.0937
 3227TIP3    H131316   5.926   4.342   7.507  0.1207  0.2877 -0.6181
 3227TIP3    H231317   6.000   4.460   7.565 -1.2905  1.2065 -0.6170
 3228TIP3   OH231318   1.960   5.679   6.164  0.5720 -0.3782  0.2898
 3228TIP3    H131319   2.024   5.749   6.171 -0.7586  0.8731  0.3646
 3228TIP3    H231320   1.902   5.705   6.093 -0.9947 -0.4922  1.4612
 3229TIP3   OH231321   5.204   3.583   7.858  0.6117 -0.0515  0.1615
 3229TIP3    H131322   5.143   3.510   7.872 -0.4704  0.7237 -0.4354
 3229TIP3    H231323   5.290   3.542   7.863  0.0272 -1.4024 -0.2792
 3230TIP3   OH231324   3.278   6.729   2.439 -0.0379  0.0055 -0.2345
 3230TIP3    H131325   3.359   6.679   2.430  1.1538  1.9328 -0.7004
 3230TIP3    H231326   3.275   6.754   2.531  0.5264  0.9371 -0.4649
 3231TIP3   OH231327   4.423   6.533   8.302 -0.0267  0.2893  0.6160
 3231TIP3    H131328   4.374   6.580   8.235  0.5089 -0.0752 -0.0432
 3231TIP3    H231329   4.368   6.458   8.324 -0.0643  0.2410  0.3592
 3232TIP3   OH231330   1.077   3.509   0.333 -0.3194 -0.4682 -0.2596
 3232TIP3    H131331   1.089   3.458   0.412 -0.3274  1.4343  1.0499
 3232TIP3    H231332   1.070   3.600   0.364 -1.8757  0.1988 -2.2885
 3233TIP3   OH231333   0.671   1.229   1.394 -0.3649 -0.7563 -0.0377
 3233TIP3    H131334   0.676   1.299   1.459  2.1530 -1.3726  0.5126
 3233TIP3    H231335   0.734   1.252   1.327 -0.1495 -2.0402 -0.3149
 3234TIP3   OH231336   6.073   5.818   0.656  0.1438  0.2085  0.4021
 3234TIP3    H131337   5.998   5.803   0.714 -0.9609 -0.5827 -1.1462
 3234TIP3    H231338   6.041   5.880   0.591  1.8627  2.3521  1.4525
 3235TIP3   OH231339   1.377   1.168   7.258 -0.1234  0.1132  0.1654
 3235TIP3    H131340   1.282   1.174   7.267 -0.1722 -0.4665  0.0939
 3235TIP3    H231341   1.398   1.079   7.286  0.2637 -0.1418 -0.8759
 3236TIP3   OH231342   0.257   6.287   7.540 -0.8702 -0.0473 -0.0666
 3236TIP3    H131343   0.278   6.223   7.608  2.2342  0.9880  0.0980
 3236TIP3    H231344   0.335   6.291   7.485 -2.6568  0.3752 -2.7737
 3237TIP3   OH231345   1.837   0.997   2.444 -0.2087 -0.1035  0.3176
 3237TIP3    H131346   1.818   1.089   2.425 -3.5861 -0.9512 -1.1938
 3237TIP3    H231347   1.804   0.983   2.533 -0.4504  0.0042  0.2475
 3238TIP3   OH231348   2.086   2.338   1.236  0.1112  0.1094  0.2574
 3238TIP3    H131349   2.007   2.350   1.183 -0.6429 -1.8138  0.8458
 3238TIP3    H231350   2.057   2.285   1.311  1.5739  1.0084  1.5176
 3239TIP3   OH231351   4.195   4.542   8.426  0.3966  0.5370 -0.0854
 3239TIP3    H131352   4.105   4.526   8.453  0.4944 -2.6741 -1.1929
 3239TIP3    H231353   4.227   4.609   8.487 -1.8004 -0.4729  2.3588
 3240TIP3   OH231354   4.148   4.545   7.024 -0.5056 -0.3349  0.0347
 3240TIP3    H131355   4.216   4.506   7.080 -0.8593  0.1216  0.7892
 3240TIP3    H231356   4.103   4.470   6.986 -1.0234 -0.6896  1.2928
 3241TIP3   OH231357   2.645   2.601   7.256 -0.3466  0.4067  0.1920
 3241TIP3    H131358   2.738   2.590   7.237 -0.1487  1.1179  0.6991
 3241TIP3    H231359   2.609   2.643   7.178 -0.2111  0.2904  0.0655
 3242TIP3   OH231360   0.573   5.748   2.640  0.2093  0.2379  0.0924
 3242TIP3    H131361   0.498   5.689   2.634 -1.6961  2.3993  1.2791
 3242TIP3    H231362   0.538   5.834   2.616  2.1756  1.4019  1.1430
 3243TIP3   OH231363   3.746   5.697   1.983 -0.2980 -0.5073  0.0822
 3243TIP3    H131364   3.787   5.777   2.015 -0.5437 -0.5286  0.4518
 3243TIP3    H231365   3.794   5.626   2.027 -1.2422 -0.5160  1.1531
 3244TIP3   OH231366   2.768   0.479   0.210 -0.3626  0.4222 -0.0937
 3244TIP3    H131367   2.715   0.401   0.192 -0.8782  0.6353  0.5024
 3244TIP3    H231368   2.840   0.446   0.264  0.9901 -0.1531 -2.1272
 3245TIP3   OH231369   6.476   5.994   7.306  0.7260 -0.1503 -0.3905
 3245TIP3    H131370   6.392   6.006   7.262  0.3744 -3.4002 -0.8672
 3245TIP3    H231371   6.537   5.970   7.235  1.5159 -0.0390  0.2371
 3246TIP3   OH231372   6.238   0.764   0.828  0.3713  0.2165 -0.2320
 3246TIP3    H131373   6.275   0.687   0.870  1.6846  0.1733 -1.3716
 3246TIP3    H231374   6.147   0.740   0.809  0.4235 -0.5999  0.4919
 3247TIP3   OH231375   3.004   5.929   0.436  0.2392  0.4037  0.2606
 3247TIP3    H131376   2.968   5.962   0.354  1.0354  1.6758  0.4055
 3247TIP3    H231377   2.945   5.963   0.504  1.1956  1.7982  0.4298
 3248TIP3   OH231378   3.284   0.744   7.630 -0.2410 -0.4061  0.0540
 3248TIP3    H131379   3.194   0.735   7.598 -0.7809 -0.7500  1.5859
 3248TIP3    H231380   3.312   0.655   7.651  0.8541 -0.4296 -1.3591
 3249TIP3   OH231381   2.152   2.180   7.485  0.0118  0.3491 -0.3269
 3249TIP3    H131382   2.122   2.226   7.564 -2.9205 -0.4934 -0.8200
 3249TIP3    H231383   2.135   2.241   7.414 -0.7625 -0.2306 -0.6489
 3250TIP3   OH231384   0.051   4.948   8.317  0.0452 -0.3044  0.1980
 3250TIP3    H131385   0.139   4.965   8.350  0.6485 -0.5345 -1.2365
 3250TIP3    H231386   0.036   5.016   8.251 -1.0582  0.0236  0.7521
 3251TIP3   OH231387   0.211   4.658   1.390 -0.4111  0.3531  0.2054
 3251TIP3    H131388   0.229   4.712   1.313 -0.0394  0.4853  0.3844
 3251TIP3    H231389   0.132   4.695   1.428  0.0004  0.9530  0.4899
 3252TIP3   OH231390   3.449   6.598   8.506  0.6315  0.4526 -0.3180
 3252TIP3    H131391   3.417   6.554   8.427  0.9550 -0.2184 -0.0787
 3252TIP3    H231392   3.439   6.691   8.486 -0.4347  0.2785 -0.6770
 3253TIP3   OH231393   2.357   1.665   6.974  0.3299  0.2608  0.4673
 3253TIP3    H131394   2.391   1.748   7.007  1.3849 -0.7269  1.9946
 3253TIP3    H231395   2.301   1.632   7.044  0.4991 -0.6541  0.1831
 3254TIP3   OH231396   0.257   3.694   1.779 -0.0616  0.0974  0.1028
 3254TIP3    H131397   0.169   3.730   1.791  0.0407  0.2037  0.5296
 3254TIP3    H231398   0.244   3.599   1.778 -0.4193  0.1294 -1.6935
 3255TIP3   OH231399   1.391   4.151   2.640  0.1069 -0.0608  0.0581
 3255TIP3    H131400   1.347   4.066   2.647 -0.1085 -0.3581 -3.2214
 3255TIP3    H231401   1.480   4.130   2.613  0.2914  0.7149  0.0428
 3256TIP3   OH231402   6.261   1.340   0.859 -0.1620  0.1556 -0.2767
 3256TIP3    H131403   6.281   1.311   0.948 -0.6395 -4.4205 -1.3950
 3256TIP3    H231404   6.342   1.381   0.829  0.7167 -0.0589  1.6111
 3257TIP3   OH231405   0.856   0.629   2.022  0.0269 -0.8992  0.1338
 3257TIP3    H131406   0.906   0.615   1.941  0.9129  0.6530  0.3589
 3257TIP3    H231407   0.911   0.592   2.091  0.2155 -0.4562  0.2265
 3258TIP3   OH231408   1.167   3.985   2.580 -0.0150 -0.5820 -0.5566
 3258TIP3    H131409   1.132   3.896   2.590  0.4914 -0.5436  2.2719
 3258TIP3    H231410   1.091   4.042   2.587  0.1162 -0.6407  2.6288
 3259TIP3   OH231411   6.716   3.895   8.532 -0.4318 -0.0918 -0.0797
 3259TIP3    H131412   6.698   3.881   8.439 -0.8669  0.2698 -0.0511
 3259TIP3    H231413   6.634   3.872   8.576 -0.7759  1.3510  0.0650
 3260TIP3   OH231414   1.815   1.730   7.091 -0.4899 -0.0251 -0.2337
 3260TIP3    H131415   1.888   1.747   7.031 -0.8478 -2.7545 -1.5643
 3260TIP3    H231416   1.857   1.724   7.177  0.2875  2.0071 -0.4016
 3261TIP3   OH231417   3.185   1.125   0.686  0.2993  0.2860  0.7833
 3261TIP3    H131418   3.266   1.166   0.715 -0.5933  2.7482  0.0265
 3261TIP3    H231419   3.133   1.115   0.766  0.0086  1.9523  0.8385
 3262TIP3   OH231420   4.259   1.762   1.533  0.4594 -0.0473 -0.1777
 3262TIP3    H131421   4.310   1.832   1.493  1.8003 -1.5579 -1.2821
 3262TIP3    H231422   4.309   1.682   1.513 -2.6746 -1.7359 -1.9766
 3263TIP3   OH231423   0.520   2.798   2.097  0.3641 -0.1958 -0.0299
 3263TIP3    H131424   0.438   2.777   2.052  0.9627  0.4148 -1.4505
 3263TIP3    H231425   0.492   2.827   2.184 -1.0643  1.2616 -0.9053
 3264TIP3   OH231426   3.076   1.953   7.587  0.1370 -0.4896  0.2199
 3264TIP3    H131427   3.038   2.015   7.525  1.4542  0.6404  0.4910
 3264TIP3    H231428   3.124   2.008   7.649  0.8433 -1.7454  0.8273
 3265TIP3   OH231429   4.917   0.656   7.003  0.5242 -0.5268  0.6697
 3265TIP3    H131430   4.836   0.668   7.052  1.0723  0.1542  1.4419
 3265TIP3    H231431   4.926   0.561   6.993 -0.3151 -0.6075  0.6494
 3266TIP3   OH231432   0.101   3.467   6.717 -0.0997 -0.3943  0.5349
 3266TIP3    H131433   0.101   3.450   6.623 -0.6924 -2.2942  0.8385
 3266TIP3    H231434   0.061   3.389   6.756  1.5133 -0.3399  2.4772
 3267TIP3   OH231435   1.833   0.539   1.320 -0.1656 -0.0510 -0.6982
 3267TIP3    H131436   1.827   0.470   1.387  1.0025 -0.6497 -1.1938
 3267TIP3    H231437   1.768   0.513   1.254 -0.9638  0.2709 -0.0612
 3268TIP3   OH231438   3.608   1.694   7.406  0.3639  0.1836  0.5394
 3268TIP3    H131439   3.686   1.748   7.401  0.4992  0.1164  1.6048
 3268TIP3    H231440   3.575   1.691   7.316  1.8748 -0.2389 -0.0278
 3269TIP3   OH231441   2.085   5.923   6.871  0.2808  0.5226 -0.6892
 3269TIP3    H131442   2.151   5.940   6.939 -1.0324  2.2080  0.2578
 3269TIP3    H231443   2.066   5.830   6.879 -0.5224  0.8299  1.9979
 3270TIP3   OH231444   0.565   5.806   0.244 -0.3591 -0.0370 -0.4355
 3270TIP3    H131445   0.640   5.862   0.265  0.4651 -1.6259  1.1729
 3270TIP3    H231446   0.600   5.741   0.184 -0.3998 -0.7948  0.3357
 3271TIP3   OH231447   1.205   6.364   1.861 -0.2110  0.4383  0.2832
 3271TIP3    H131448   1.173   6.451   1.837 -2.2178 -0.1533  0.5896
 3271TIP3    H231449   1.237   6.374   1.951  2.9323  1.5909 -0.8197
 3272TIP3   OH231450   2.243   3.483   2.048  0.4677  0.7028 -0.8724
 3272TIP3    H131451   2.219   3.576   2.051  0.1869  0.7135 -2.4596
 3272TIP3    H231452   2.310   3.478   1.980  0.5951 -0.2343 -0.6864
 3273TIP3   OH231453   6.819   0.895   1.411  0.0541 -0.0867 -0.0207
 3273TIP3    H131454   6.786   0.938   1.332 -0.2228 -0.4329 -0.0962
 3273TIP3    H231455   6.753   0.914   1.478  0.2675  0.1712  0.1187
 3274TIP3   OH231456   3.262   3.158   1.237  0.2977  0.2784 -0.0190
 3274TIP3    H131457   3.198   3.092   1.211  0.7505  0.4245 -1.5637
 3274TIP3    H231458   3.225   3.240   1.205  0.6634  0.5256  0.1881
 3275TIP3   OH231459   2.886   0.496   8.587  0.2286 -0.5042 -0.0315
 3275TIP3    H131460   2.822   0.443   8.540 -0.9947  0.6635  0.2677
 3275TIP3    H231461   2.866   0.481   8.680  0.6643 -0.4578  0.0706
 3276TIP3   OH231462   3.693   6.386   6.775  0.0917 -0.1855 -0.3695
 3276TIP3    H131463   3.673   6.342   6.692  0.1422  1.9694 -1.5796
 3276TIP3    H231464   3.611   6.384   6.823 -1.1828  2.0506 -2.2136
 3277TIP3   OH231465   5.541   1.296   1.929 -0.1562 -0.1557 -0.5093
 3277TIP3    H131466   5.495   1.221   1.967  0.6935  0.1439  1.2180
 3277TIP3    H231467   5.571   1.265   1.843 -0.7950 -1.3965 -0.3084
 3278TIP3   OH231468   0.574   2.383   1.931 -0.0452  0.2992 -0.3164
 3278TIP3    H131469   0.506   2.403   1.866 -1.0036  0.5236  0.7413
 3278TIP3    H231470   0.652   2.426   1.896 -0.7203  1.0418 -0.9679
 3279TIP3   OH231471   5.195   5.098   7.113  0.3217  0.3100 -0.0332
 3279TIP3    H131472   5.191   5.003   7.100  1.5346 -0.0292  1.7895
 3279TIP3    H231473   5.265   5.127   7.055  0.3713  0.0070 -0.1280
 3280TIP3   OH231474   1.984   1.836   6.666  0.5761 -0.0655 -0.0903
 3280TIP3    H131475   1.946   1.771   6.606 -2.3432 -0.2523  1.7313
 3280TIP3    H231476   1.910   1.864   6.720  2.6535  1.5385  2.1249
 3281TIP3   OH231477   0.416   0.778   1.057 -0.3122  1.0789  0.0412
 3281TIP3    H131478   0.510   0.779   1.077 -0.6302  0.2947  1.7507
 3281TIP3    H231479   0.398   0.688   1.033 -0.9989  0.6713  1.8980
 3282TIP3   OH231480   1.192   1.695   6.815 -0.1023  0.1350  0.5544
 3282TIP3    H131481   1.199   1.709   6.720  1.7529 -1.3681  0.3973
 3282TIP3    H231482   1.144   1.612   6.823  2.2702 -1.3274  0.7155
 3283TIP3   OH231483   5.531   5.772   1.544  0.2303 -0.5843 -0.4095
 3283TIP3    H131484   5.570   5.858   1.556 -0.4260 -0.2484 -0.6286
 3283TIP3    H231485   5.471   5.783   1.470 -0.8143 -0.8938  0.3718
 3284TIP3   OH231486   5.898   6.571   8.515 -0.2327  0.5552 -0.0612
 3284TIP3    H131487   5.825   6.531   8.468  0.1043  0.3849 -0.4413
 3284TIP3    H231488   5.882   6.665   8.506  0.4949  0.5596 -1.5995
 3285TIP3   OH231489   1.313   0.910   1.062  0.6406 -0.4228  0.3905
 3285TIP3    H131490   1.289   0.817   1.059 -0.4951 -0.1298 -0.2848
 3285TIP3    H231491   1.363   0.924   0.981  0.7552 -0.4373  0.4595
 3286TIP3   OH231492   3.940   3.372   1.814 -1.3767 -0.0320 -0.0516
 3286TIP3    H131493   3.933   3.290   1.863  0.8499 -1.6735 -2.2345
 3286TIP3    H231494   3.945   3.345   1.723  1.3661  2.3506 -0.7426
 3287TIP3   OH231495   5.427   2.856   7.440 -0.3366 -0.0854 -0.3321
 3287TIP3    H131496   5.515   2.846   7.476 -0.2911 -0.5748 -0.5665
 3287TIP3    H231497   5.376   2.786   7.481 -0.8666  0.7817  0.5351
 3288TIP3   OH231498   4.752   5.549   2.261 -0.5578  0.8276 -0.4807
 3288TIP3    H131499   4.742   5.465   2.215 -0.2903  0.1309  0.6862
 3288TIP3    H231500   4.666   5.567   2.298 -0.5664  0.9801 -0.5723
 3289TIP3   OH231501   3.410   0.812   0.178  0.0985 -0.1278  0.0255
 3289TIP3    H131502   3.362   0.752   0.235 -0.7281  0.7564  0.2924
 3289TIP3    H231503   3.415   0.893   0.228 -0.5235  0.6246 -1.1032
 3290TIP3   OH231504   3.809   1.539   1.325  0.4967  0.4250 -0.5219
 3290TIP3    H131505   3.797   1.488   1.405  0.9767 -0.3052 -0.8961
 3290TIP3    H231506   3.904   1.554   1.321  0.9328 -2.1600 -2.4619
 3291TIP3   OH231507   1.531   5.873   8.425 -0.0410  0.1693 -0.5302
 3291TIP3    H131508   1.502   5.864   8.334  1.7130 -1.2927 -1.0165
 3291TIP3    H231509   1.457   5.911   8.471 -0.7808  1.5021 -2.6860
 3292TIP3   OH231510   0.323   1.090   2.260  0.0108  0.5282 -0.3537
 3292TIP3    H131511   0.390   1.026   2.234  0.5872  0.5727  0.9554
 3292TIP3    H231512   0.242   1.039   2.266  0.0317  0.3565 -1.3816
 3293TIP3   OH231513   4.141   4.709   0.923 -0.2366  0.3501 -0.3131
 3293TIP3    H131514   4.125   4.618   0.948  0.2334  0.8194  1.9000
 3293TIP3    H231515   4.054   4.749   0.923 -0.4709 -0.1229 -1.5115
 3294TIP3   OH231516   1.749   2.278   6.120 -0.3563  0.0281 -0.0693
 3294TIP3    H131517   1.666   2.313   6.152 -0.8136 -0.7726 -0.3515
 3294TIP3    H231518   1.726   2.194   6.081  0.2986  0.5775 -1.7320
 3295TIP3   OH231519   5.803   1.044   8.283 -0.3444 -0.1831 -0.2227
 3295TIP3    H131520   5.866   1.094   8.232 -0.8167 -0.2618 -0.8893
 3295TIP3    H231521   5.780   0.970   8.228 -0.7828 -0.3253  0.1455
 3296TIP3   OH231522   5.309   4.416   1.365  0.2925 -0.1697  0.1614
 3296TIP3    H131523   5.367   4.361   1.312  0.1122 -0.5375  0.3423
 3296TIP3    H231524   5.222   4.405   1.326  0.5031  1.2538 -0.8098
 3297TIP3   OH231525   6.655   4.931   7.831  0.5579  0.5560  0.1904
 3297TIP3    H131526   6.681   4.922   7.923 -1.3552  0.7867  0.8019
 3297TIP3    H231527   6.660   4.842   7.797 -0.0510  0.2231  0.9283
 3298TIP3   OH231528   5.568   2.709   0.623  0.3290 -0.2056  0.9881
 3298TIP3    H131529   5.507   2.783   0.624  1.0595  0.4115  1.1462
 3298TIP3    H231530   5.544   2.659   0.545  1.2095  1.3815 -0.3648
 3299TIP3   OH231531   3.458   1.687   1.095 -0.2049  0.2478  0.1430
 3299TIP3    H131532   3.403   1.660   1.022  0.5436  1.3629 -0.8747
 3299TIP3    H231533   3.442   1.781   1.105  0.8785  0.4275  0.3614
 3300TIP3   OH231534   4.606   6.932   2.364  0.0521  0.1268 -0.3955
 3300TIP3    H131535   4.622   6.901   2.453  1.9444 -1.4328 -1.1973
 3300TIP3    H231536   4.513   6.919   2.350 -0.2933  0.4723  1.3670
 3301TIP3   OH231537   5.278   3.821   1.286  0.2350  0.0079 -0.6925
 3301TIP3    H131538   5.269   3.900   1.233  0.2163  0.7637  0.4009
 3301TIP3    H231539   5.370   3.797   1.279  0.7376  1.3887  0.6670
 3302TIP3   OH231540   5.239   4.159   1.480 -0.0522  0.5541  0.6216
 3302TIP3    H131541   5.176   4.184   1.412  0.1265 -0.1239  0.1988
 3302TIP3    H231542   5.305   4.229   1.479 -0.2707  0.7564  0.3851
 3303TIP3   OH231543   6.908   6.505   6.569 -0.1918  0.7705 -0.6158
 3303TIP3    H131544   6.837   6.563   6.597 -0.1417  0.6042 -0.1245
 3303TIP3    H231545   6.868   6.418   6.566  0.0192  0.6553 -0.2057
 3304TIP3   OH231546   5.998   1.157   1.585  0.3471  0.3422 -0.1120
 3304TIP3    H131547   6.023   1.070   1.615 -0.2885 -0.3186 -1.3784
 3304TIP3    H231548   6.040   1.166   1.499  1.3174  1.7557  0.4709
 3305TIP3   OH231549   4.812   4.536   8.070  0.6066  0.4835  0.6734
 3305TIP3    H131550   4.785   4.514   8.160  0.0169 -0.7470  0.2165
 3305TIP3    H231551   4.843   4.453   8.033 -1.1251  0.4867 -0.9254
 3306TIP3   OH231552   6.689   1.259   7.270  0.3294 -0.4605  0.0315
 3306TIP3    H131553   6.640   1.207   7.334  0.2344 -0.7109 -0.2406
 3306TIP3    H231554   6.640   1.248   7.188 -0.0005  0.5068  0.0912
 3307TIP3   OH231555   4.941   4.500   0.480 -0.0014  0.2767 -1.0616
 3307TIP3    H131556   4.934   4.427   0.418  0.3418 -0.7628  0.0678
 3307TIP3    H231557   4.851   4.519   0.505 -0.0263 -0.8826 -0.1579
 3308TIP3   OH231558   5.997   5.638   2.473 -0.2736  0.5394 -0.1455
 3308TIP3    H131559   6.031   5.596   2.552  1.3041  2.4924  0.3289
 3308TIP3    H231560   6.076   5.667   2.426 -1.1930 -0.1048 -2.2022
 3309TIP3   OH231561   1.532   6.526   2.170 -0.4311  0.5206 -0.2169
 3309TIP3    H131562   1.531   6.544   2.264  1.7549  1.8064 -0.3839
 3309TIP3    H231563   1.512   6.611   2.130 -0.9771  0.0615 -0.9517
 3310TIP3   OH231564   4.468   0.938   7.583  0.5637  0.1813  0.4306
 3310TIP3    H131565   4.466   0.859   7.528 -0.5373 -1.0944  2.2123
 3310TIP3    H231566   4.446   1.009   7.523  1.0898 -0.9100 -1.1256
 3311TIP3   OH231567   3.249   3.172   8.456  0.8736  0.3611 -0.0139
 3311TIP3    H131568   3.208   3.202   8.537 -0.2901  0.5530 -0.6409
 3311TIP3    H231569   3.342   3.189   8.468  0.7295  0.3800  1.2790
 3312TIP3   OH231570   1.984   2.104   1.936  0.3716 -0.2135  0.0632
 3312TIP3    H131571   1.982   2.074   2.027 -1.4692  1.0210  0.4812
 3312TIP3    H231572   2.070   2.145   1.927  0.8991 -1.0601  0.9877
 3313TIP3   OH231573   3.251   6.125   1.767  0.9974 -0.1411 -0.1728
 3313TIP3    H131574   3.297   6.185   1.826 -1.1988  1.4169  0.0770
 3313TIP3    H231575   3.293   6.040   1.782  1.7341  0.5637  2.2804
 3314TIP3   OH231576   2.812   5.361   8.491  0.3498  0.3113 -0.1855
 3314TIP3    H131577   2.797   5.318   8.575 -0.3601 -1.1398 -1.0191
 3314TIP3    H231578   2.842   5.449   8.514 -1.1155  0.4037  1.5900
 3315TIP3   OH231579   0.563   1.231   1.931  0.6304 -0.2212 -0.3280
 3315TIP3    H131580   0.535   1.300   1.991 -2.1445 -1.1657 -0.4046
 3315TIP3    H231581   0.591   1.277   1.852  0.7510  0.8804  0.3409
 3316TIP3   OH231582   0.728   1.717   8.382 -0.5455  0.3701  0.4381
 3316TIP3    H131583   0.789   1.660   8.334 -0.7120  1.0490 -0.5981
 3316TIP3    H231584   0.743   1.804   8.345 -0.6707  0.9140  1.6428
 3317TIP3   OH231585   6.237   3.242   1.751  0.2511 -0.3533  0.6257
 3317TIP3    H131586   6.264   3.255   1.842  0.3546 -0.0212  0.5497
 3317TIP3    H231587   6.172   3.172   1.755  1.0568 -1.1108  0.8264
 3318TIP3   OH231588   2.698   5.616   6.677  0.0962 -0.2791 -0.1254
 3318TIP3    H131589   2.657   5.547   6.624  0.5483 -0.0568 -0.7707
 3318TIP3    H231590   2.787   5.623   6.643  0.7435 -0.8635  1.3576
 3319TIP3   OH231591   3.519   3.247   7.446 -0.0676  0.3591  0.3685
 3319TIP3    H131592   3.535   3.199   7.364  0.6097  1.5848 -0.2424
 3319TIP3    H231593   3.460   3.318   7.421 -0.3902  0.3578  1.0950
 3320TIP3   OH231594   6.568   3.635   0.920 -0.4097  0.0239  0.4102
 3320TIP3    H131595   6.587   3.688   0.842 -0.4124 -1.3488 -0.5557
 3320TIP3    H231596   6.596   3.690   0.993  0.7577  0.8581 -0.6206
 3321TIP3   OH231597   6.244   5.541   1.369  0.0236  0.2480 -0.4694
 3321TIP3    H131598   6.222   5.629   1.399  0.4044  0.8464 -1.8876
 3321TIP3    H231599   6.173   5.486   1.404 -0.4835  1.1787  0.0147
 3322TIP3   OH231600   2.094   6.386   8.291 -0.7620  0.3172  0.0132
 3322TIP3    H131601   2.075   6.343   8.374 -0.3019  0.1172  0.0150
 3322TIP3    H231602   2.176   6.347   8.261 -1.3168 -0.1703 -0.9175
 3323TIP3   OH231603   0.503   1.346   8.235  0.0301  0.7170  0.5499
 3323TIP3    H131604   0.560   1.316   8.306  1.0876  0.7674 -0.2447
 3323TIP3    H231605   0.428   1.287   8.238  1.2493 -0.9481  0.1200
 3324TIP3   OH231606   4.522   5.016   7.506  0.4574  0.1549 -0.9628
 3324TIP3    H131607   4.607   4.974   7.522 -0.4541 -0.9797  1.3661
 3324TIP3    H231608   4.463   4.944   7.484 -0.5435  0.4808  0.4923
 3325TIP3   OH231609   4.265   1.539   7.596  0.3451  0.3035 -0.2655
 3325TIP3    H131610   4.200   1.584   7.650 -0.4051  2.0379 -2.4285
 3325TIP3    H231611   4.227   1.452   7.579 -0.4412  0.5488  0.1913
 3326TIP3   OH231612   5.111   0.971   0.127  0.2976  0.1416 -0.3453
 3326TIP3    H131613   5.016   0.966   0.138  0.4904 -0.1237  1.4832
 3326TIP3    H231614   5.132   1.063   0.142  0.0757  0.9118 -3.7924
 3327TIP3   OH231615   2.698   4.483   0.798 -0.5475  0.4471 -0.6300
 3327TIP3    H131616   2.605   4.503   0.788 -0.9810 -0.7645  0.7381
 3327TIP3    H231617   2.739   4.569   0.812 -1.7970  0.7957  1.1899
 3328TIP3   OH231618   4.341   4.461   7.665  0.5659 -0.3627 -0.2073
 3328TIP3    H131619   4.379   4.399   7.727 -0.2086  0.7907  1.5258
 3328TIP3    H231620   4.338   4.544   7.714 -1.1680  0.3272 -1.3844
 3329TIP3   OH231621   4.610   0.717   2.673  0.6186  0.5338  0.6119
 3329TIP3    H131622   4.591   0.627   2.698 -1.8106  0.7967 -0.0445
 3329TIP3    H231623   4.696   0.712   2.631  0.3806 -1.5407  0.2593
 3330TIP3   OH231624   5.622   4.718   6.626  0.4942  0.1550  0.4300
 3330TIP3    H131625   5.597   4.770   6.549 -1.0972  0.0493  0.8231
 3330TIP3    H231626   5.715   4.702   6.615  0.0726 -1.0335 -2.1937
 3331TIP3   OH231627   3.083   0.697   8.282 -0.1787 -0.1763 -0.4311
 3331TIP3    H131628   3.068   0.777   8.333 -2.1116 -1.2086  0.7334
 3331TIP3    H231629   3.079   0.626   8.346 -1.3932 -1.4351 -1.8105
 3332TIP3   OH231630   0.178   4.378   7.292  0.8795  0.3955  0.0415
 3332TIP3    H131631   0.170   4.466   7.254  0.6020  0.7894  0.9814
 3332TIP3    H231632   0.088   4.351   7.308  0.9316 -0.3330 -0.8105
 3333TIP3   OH231633   5.685   0.056   0.509  0.0568 -0.1599  0.1423
 3333TIP3    H131634   5.608   0.095   0.551 -0.9777 -0.9070 -0.9819
 3333TIP3    H231635   5.664  -0.037   0.502  1.4115 -0.5154  0.5077
 3334TIP3   OH231636   4.458   6.780   8.017 -0.2066  0.0455 -0.1388
 3334TIP3    H131637   4.531   6.837   7.993  0.5600 -1.2785 -1.0938
 3334TIP3    H231638   4.462   6.774   8.112  2.6452 -2.1126 -0.2907
 3335TIP3   OH231639   4.931   5.738   7.417 -0.4026  0.1963  0.2816
 3335TIP3    H131640   4.912   5.824   7.453  1.1240  0.6626  0.0570
 3335TIP3    H231641   4.965   5.755   7.329 -3.0859 -0.8572 -1.0714
 3336TIP3   OH231642   6.676   5.552   0.337  0.0145 -0.3111  0.2289
 3336TIP3    H131643   6.678   5.641   0.304  2.7904 -0.1757  0.5390
 3336TIP3    H231644   6.690   5.497   0.259  0.9392 -0.3008  0.3766
 3337TIP3   OH231645   2.204   6.125   8.509 -0.0387 -0.0183 -0.3527
 3337TIP3    H131646   2.137   6.063   8.541  1.0291  0.6573  3.8797
 3337TIP3    H231647   2.169   6.211   8.530  1.2863  0.4391  0.0997
 3338TIP3   OH231648   2.666   0.408   8.070  0.2296 -0.1020 -0.3885
 3338TIP3    H131649   2.730   0.463   8.025  3.8742 -1.0289  3.0001
 3338TIP3    H231650   2.635   0.462   8.142 -0.7410 -0.5719 -0.4445
 3339TIP3   OH231651   6.274   0.255   8.311  0.5571  0.4173  0.7592
 3339TIP3    H131652   6.197   0.310   8.323  1.7344  2.0838  1.0239
 3339TIP3    H231653   6.296   0.264   8.219 -1.2382 -2.4780 -0.0924
 3340TIP3   OH231654   1.145   3.526   8.468  0.2540 -0.6968  0.3147
 3340TIP3    H131655   1.169   3.496   8.556 -0.4866 -1.9812  0.1039
 3340TIP3    H231656   1.206   3.481   8.410  0.7480  0.1572  0.1523
 3341TIP3   OH231657   4.813   2.376   6.943 -0.2857 -0.1533 -0.1363
 3341TIP3    H131658   4.899   2.349   6.975 -0.5548 -0.1123  0.6423
 3341TIP3    H231659   4.752   2.311   6.978 -0.5067 -0.5707 -1.2401
 3342TIP3   OH231660   5.614   4.725   1.526 -0.3568  0.2319 -0.3690
 3342TIP3    H131661   5.616   4.781   1.449  0.3532 -1.9759 -2.0579
 3342TIP3    H231662   5.690   4.752   1.578  0.5855  0.1815 -1.6745
 3343TIP3   OH231663   5.926   6.586   8.138 -0.3414 -0.0350  0.5200
 3343TIP3    H131664   5.997   6.617   8.194 -0.5960 -0.0565  0.8608
 3343TIP3    H231665   5.948   6.619   8.051  1.2318 -1.8708  0.1598
 3344TIP3   OH231666   0.509   3.037   8.614  0.2584 -0.1152  0.0986
 3344TIP3    H131667   0.489   3.001   8.528  0.2695 -0.5277  0.2651
 3344TIP3    H231668   0.423   3.053   8.654  0.2334 -1.5492  0.6752
 3345TIP3   OH231669   6.371   1.515   7.730 -0.0343  0.2259  0.2298
 3345TIP3    H131670   6.467   1.521   7.725  0.0983 -2.0247 -1.6438
 3345TIP3    H231671   6.354   1.423   7.749 -1.8196  0.3356 -0.6641
 3346TIP3   OH231672   0.977   1.957   7.818  0.1308 -0.6800  0.1344
 3346TIP3    H131673   1.012   1.942   7.730 -0.3051 -2.5756  0.2596
 3346TIP3    H231674   0.887   1.985   7.804  0.5500  0.6879 -0.0446
 3347TIP3   OH231675   5.070   4.493   6.868 -0.3859 -0.2243  0.0584
 3347TIP3    H131676   5.104   4.548   6.797  1.6483 -0.5798  0.7026
 3347TIP3    H231677   5.036   4.415   6.823 -0.9796  0.4193 -0.6545
 3348TIP3   OH231678   3.749   5.697   1.323 -0.1139 -0.0980  0.3251
 3348TIP3    H131679   3.688   5.719   1.392 -2.8578 -3.2382 -0.8305
 3348TIP3    H231680   3.782   5.610   1.347  0.7856 -0.1794 -1.0841
 3349TIP3   OH231681   1.906   3.488   7.715  0.0316  0.4976  0.2733
 3349TIP3    H131682   1.863   3.472   7.799 -0.4833  0.8624  0.0823
 3349TIP3    H231683   1.892   3.581   7.698 -0.5386  0.2652 -0.5921
 3350TIP3   OH231684   5.403   2.021   1.839  0.7311 -0.2789  0.2440
 3350TIP3    H131685   5.312   2.000   1.815  0.2514  1.9668 -0.0774
 3350TIP3    H231686   5.413   1.983   1.926 -0.3349 -1.0405  0.0621
 3351TIP3   OH231687   3.640   1.325   2.162  0.3720  0.1066 -0.4952
 3351TIP3    H131688   3.590   1.298   2.239  0.4789 -0.2589 -0.5489
 3351TIP3    H231689   3.622   1.418   2.153 -0.6664 -0.1086 -0.7800
 3352TIP3   OH231690   2.724   2.472   1.452  1.0771 -0.2166  0.1411
 3352TIP3    H131691   2.795   2.467   1.387  0.5008  0.3809 -0.5476
 3352TIP3    H231692   2.736   2.558   1.493  0.2293  0.2651 -0.5984
 3353TIP3   OH231693   3.564   2.654   1.615  0.1060  0.2047 -0.3104
 3353TIP3    H131694   3.569   2.729   1.674  2.8228  0.6571 -1.0023
 3353TIP3    H231695   3.547   2.692   1.529 -2.2594 -0.3413 -0.1666
 3354TIP3   OH231696   0.778   4.233   1.641 -0.2167 -0.4523 -0.0555
 3354TIP3    H131697   0.729   4.298   1.591 -2.0079 -1.8598 -0.2260
 3354TIP3    H231698   0.775   4.154   1.588  2.8249 -0.4824 -0.3506
 3355TIP3   OH231699   3.758   0.250   2.145  0.5516 -0.0376  0.7676
 3355TIP3    H131700   3.822   0.317   2.122 -0.3315  0.0208 -1.8482
 3355TIP3    H231701   3.803   0.167   2.126  0.4769 -0.0660  0.7157
 3356TIP3   OH231702   4.728   2.896   7.792 -0.6652 -1.0736 -0.3855
 3356TIP3    H131703   4.777   2.866   7.715 -0.4615 -0.7082 -0.4019
 3356TIP3    H231704   4.795   2.906   7.860 -0.6952 -0.4797 -0.4345
 3357TIP3   OH231705   4.585   0.995   0.117  0.5093 -0.2547  0.4770
 3357TIP3    H131706   4.497   0.969   0.143  0.1722 -0.2462 -0.6026
 3357TIP3    H231707   4.631   1.009   0.200 -0.6947  0.4006  1.0721
 3358TIP3   OH231708   0.563   6.364   0.313 -0.2917  0.1228 -0.1339
 3358TIP3    H131709   0.653   6.386   0.287 -0.0197  0.2057  0.8548
 3358TIP3    H231710   0.529   6.445   0.351 -1.4190  0.6419 -2.1171
 3359TIP3   OH231711   5.948   0.154   7.807  0.0737 -1.0107  0.0998
 3359TIP3    H131712   5.893   0.229   7.785  0.6376 -0.5795  0.1294
 3359TIP3    H231713   5.895   0.102   7.866 -0.4355 -0.7843 -0.1527
 3360TIP3   OH231714   0.915   0.877   8.354 -0.5009 -0.3959  0.7967
 3360TIP3    H131715   0.859   0.829   8.292 -0.1917  0.5363 -0.2417
 3360TIP3    H231716   0.882   0.852   8.440 -0.8149 -1.8897  0.2751
 3361TIP3   OH231717   4.068   3.422   8.348  0.3054  0.1662  0.3560
 3361TIP3    H131718   4.080   3.477   8.425  0.5360 -0.8981  1.1043
 3361TIP3    H231719   4.090   3.478   8.274  1.1824  0.8709  1.1401
 3362TIP3   OH231720   4.430   4.674   8.205  0.3594 -0.3125 -1.4251
 3362TIP3    H131721   4.425   4.617   8.282 -0.3918 -0.7177 -1.7705
 3362TIP3    H231722   4.352   4.729   8.210  0.8999  0.4742 -1.2825
 3363TIP3   OH231723   3.441   2.989   0.173  0.5274  0.6272  0.2460
 3363TIP3    H131724   3.375   3.004   0.241  1.0645 -0.1967  0.9862
 3363TIP3    H231725   3.429   3.060   0.111 -1.6939 -0.0289 -0.1555
 3364TIP3   OH231726   6.334   3.546   2.479  0.0906  0.4680  0.8386
 3364TIP3    H131727   6.394   3.611   2.515  2.0478  0.2848 -1.7682
 3364TIP3    H231728   6.305   3.585   2.396 -1.5530 -0.5104  0.9100
 3365TIP3   OH231729   1.206   6.342   7.642  0.3760  0.7344  0.5151
 3365TIP3    H131730   1.206   6.291   7.723 -1.0560 -0.5824 -0.2741
 3365TIP3    H231731   1.265   6.294   7.584  0.2860  0.8879  0.2987
 3366TIP3   OH231732   5.109   6.178   0.852  0.1119 -0.0080  0.0537
 3366TIP3    H131733   5.193   6.161   0.894 -0.9422 -1.8431  1.6136
 3366TIP3    H231734   5.088   6.097   0.806 -0.2197  0.8954 -1.4476
 3367TIP3   OH231735   1.200   3.300   7.845  0.3164 -0.2999 -0.8091
 3367TIP3    H131736   1.232   3.221   7.886 -0.8200  0.0675  0.8868
 3367TIP3    H231737   1.264   3.367   7.867 -0.9961  0.2164  1.7163
 3368TIP3   OH231738   2.665   4.310   7.612  0.3301 -0.0406  0.2986
 3368TIP3    H131739   2.613   4.334   7.688 -2.3590 -1.7220 -0.8557
 3368TIP3    H231740   2.689   4.219   7.627 -0.2506 -0.3955 -0.8514
 3369TIP3   OH231741   5.191   0.413   0.836 -0.1473  0.4495 -0.3342
 3369TIP3    H131742   5.212   0.441   0.747  2.0578  2.7442  0.7975
 3369TIP3    H231743   5.118   0.468   0.862  1.5568  2.4626  0.4561
 3370TIP3   OH231744   1.634   4.058   2.250  0.2767  0.1645  0.3643
 3370TIP3    H131745   1.674   3.976   2.280  1.2405 -0.7001 -2.8634
 3370TIP3    H231746   1.700   4.125   2.270  2.6655 -0.9381 -2.9266
 3371TIP3   OH231747   2.920   3.209   7.372  0.0835 -0.2341  0.0903
 3371TIP3    H131748   2.904   3.275   7.304 -1.9144  0.0371  0.7759
 3371TIP3    H231749   3.014   3.193   7.367  0.2589  1.0034 -1.6095
 3372TIP3   OH231750   4.082   6.272   0.526 -0.2942 -0.7676  0.0055
 3372TIP3    H131751   4.172   6.241   0.514  0.5303  1.1482  0.7854
 3372TIP3    H231752   4.071   6.339   0.459 -1.0312 -0.7647  0.1258
 3373TIP3   OH231753   4.548   0.723   1.957  0.4255  0.7187  0.3295
 3373TIP3    H131754   4.592   0.640   1.973  0.7157  0.8505  0.2130
 3373TIP3    H231755   4.541   0.728   1.861 -2.2637 -0.5812  0.3697
 3374TIP3   OH231756   3.939   1.327   7.176  0.1046  0.0171  0.8401
 3374TIP3    H131757   3.909   1.418   7.181  2.6836  1.0957 -1.0252
 3374TIP3    H231758   3.877   1.284   7.117 -1.3032  0.4251  1.9565
 3375TIP3   OH231759   1.786   0.423   6.675 -0.2611 -0.2814 -0.1580
 3375TIP3    H131760   1.750   0.356   6.733 -0.6905 -0.4315 -0.5947
 3375TIP3    H231761   1.842   0.374   6.614 -1.1771 -0.3629 -0.9686
 3376TIP3   OH231762   3.683   0.579   2.092 -0.2567  0.6814  0.5296
 3376TIP3    H131763   3.684   0.674   2.083  1.3394  0.5942 -0.6209
 3376TIP3    H231764   3.775   0.554   2.099 -0.6568 -0.7710  0.9514
 3377TIP3   OH231765   0.573   1.359   0.251  0.0463 -0.1831 -0.5842
 3377TIP3    H131766   0.614   1.359   0.165  2.3680  1.5063  0.4092
 3377TIP3    H231767   0.598   1.443   0.289 -0.5948 -1.0187  1.8801
 3378TIP3   OH231768   6.905   1.250   7.863  0.2123 -0.0049  0.1929
 3378TIP3    H131769   6.888   1.341   7.838 -0.7169 -0.8756 -2.7676
 3378TIP3    H231770   6.999   1.239   7.850 -0.0296 -0.0513 -2.0609
 3379TIP3   OH231771   6.571   4.537   0.719  0.3405 -0.2799  0.5877
 3379TIP3    H131772   6.555   4.496   0.633 -0.0551  1.1691 -0.0616
 3379TIP3    H231773   6.642   4.599   0.703 -0.2082  0.5043  1.1257
 3380TIP3   OH231774   2.612   0.239   7.240  0.4933  0.3500 -0.3447
 3380TIP3    H131775   2.557   0.162   7.227 -0.5910  1.0335  0.1111
 3380TIP3    H231776   2.551   0.312   7.247  1.3271  0.9157  1.9933
 3381TIP3   OH231777   6.595   3.226   1.105 -0.0695  0.3043  0.2849
 3381TIP3    H131778   6.563   3.253   1.019  0.5502 -1.4143 -0.5336
 3381TIP3    H231779   6.634   3.305   1.142  1.1219  0.7347 -1.7269
 3382TIP3   OH231780   0.063   1.964   7.698 -0.0928  0.3488 -0.4057
 3382TIP3    H131781  -0.017   2.002   7.661 -0.8183 -1.9869 -1.4354
 3382TIP3    H231782   0.134   2.007   7.651 -0.9054 -0.1784 -2.2141
 3383TIP3   OH231783   4.307   3.678   0.925  0.1474  0.2756 -0.0985
 3383TIP3    H131784   4.221   3.695   0.886  0.2104 -1.3068 -0.9673
 3383TIP3    H231785   4.334   3.594   0.889  1.1239 -0.2771  1.8206
 3384TIP3   OH231786   6.873   4.101   8.294  0.2961  0.6348  0.4503
 3384TIP3    H131787   6.933   4.053   8.350  0.6750 -0.2560 -0.6879
 3384TIP3    H231788   6.787   4.091   8.336  0.3958 -0.9219  0.3369
 3385TIP3   OH231789   3.352   6.874   2.672 -0.2889 -0.0114  0.9594
 3385TIP3    H131790   3.301   6.893   2.751  0.7282 -2.3600  2.2751
 3385TIP3    H231791   3.419   6.942   2.669 -2.0101  1.7416  0.5016
 3386TIP3   OH231792   4.839   1.327   1.548 -0.4682  0.2362 -0.2346
 3386TIP3    H131793   4.859   1.251   1.493  0.1852 -0.1473  0.5148
 3386TIP3    H231794   4.809   1.394   1.486 -0.8165 -0.5431 -0.9315
 3387TIP3   OH231795   6.681   4.176   8.584 -0.3831 -0.4651 -0.2147
 3387TIP3    H131796   6.688   4.200   8.492 -0.3085  0.7019  0.0798
 3387TIP3    H231797   6.690   4.081   8.585  2.2490 -0.2891 -1.1540
 3388TIP3   OH231798   4.694   1.651   7.845  0.8413  0.2694 -0.0181
 3388TIP3    H131799   4.647   1.661   7.762  2.3404  1.2462 -0.8087
 3388TIP3    H231800   4.765   1.590   7.825 -0.8162 -2.4126  1.5425
 3389TIP3   OH231801   4.168   1.135   7.265 -0.0647  0.6388 -0.0393
 3389TIP3    H131802   4.090   1.081   7.276 -1.2952  2.3604 -0.0112
 3389TIP3    H231803   4.143   1.200   7.200  1.2935  1.3444  0.1169
 3390TIP3   OH231804   3.890   6.878   8.074  0.0550  0.2952  0.5632
 3390TIP3    H131805   3.862   6.904   8.162 -1.0676 -1.3602  0.7459
 3390TIP3    H231806   3.816   6.902   8.017 -1.6380 -3.3385  0.9219
 3391TIP3   OH231807   6.412   3.785   0.419  0.0005 -0.3192 -0.3168
 3391TIP3    H131808   6.323   3.757   0.394  0.0110 -2.3439  1.6269
 3391TIP3    H231809   6.469   3.715   0.387  0.5671 -0.3989  0.8329
 3392TIP3   OH231810   5.705   1.157   7.876 -0.4963  0.5301 -0.2264
 3392TIP3    H131811   5.699   1.211   7.954 -0.8928  0.4924 -0.2301
 3392TIP3    H231812   5.784   1.103   7.890 -1.1955 -0.2972  0.6659
 3393TIP3   OH231813   1.894   5.823   7.209 -0.2182 -0.0835 -0.2457
 3393TIP3    H131814   1.819   5.841   7.152 -0.8567  2.9947  1.3484
 3393TIP3    H231815   1.913   5.907   7.252  2.2952 -1.4506  1.6378
 3394TIP3   OH231816   6.556   2.789   1.136  0.3395  0.4469  0.1375
 3394TIP3    H131817   6.630   2.847   1.116  0.9209 -0.4356 -0.3600
 3394TIP3    H231818   6.580   2.748   1.219 -0.4875  1.5643  0.9497
 3395TIP3   OH231819   0.726   2.628   7.940 -0.1512  0.5872 -0.0916
 3395TIP3    H131820   0.774   2.605   7.861  1.1627 -1.2106  1.1451
 3395TIP3    H231821   0.639   2.589   7.928  0.5832 -1.1639  0.0304
 3396TIP3   OH231822   6.512   5.382   8.451 -0.0024 -0.5047  0.2339
 3396TIP3    H131823   6.502   5.322   8.524  2.3262  0.2260  1.2622
 3396TIP3    H231824   6.423   5.404   8.425 -0.9211 -3.3211  0.6606
 3397TIP3   OH231825   3.576   0.595   1.078  0.1505  1.0777 -0.5888
 3397TIP3    H131826   3.559   0.557   0.991 -0.7958 -0.3964  0.2020
 3397TIP3    H231827   3.602   0.520   1.132  2.3020  2.2046  0.0535
 3398TIP3   OH231828   2.421   4.841   0.930 -0.0266  0.0866  0.7535
 3398TIP3    H131829   2.416   4.923   0.882 -0.5283 -0.1347  0.4104
 3398TIP3    H231830   2.338   4.796   0.909 -0.2302 -0.0371  1.7865
 3399TIP3   OH231831   2.167   4.233   7.838 -0.6220 -0.0085 -0.8069
 3399TIP3    H131832   2.237   4.231   7.903 -1.1956  0.7006 -0.1461
 3399TIP3    H231833   2.098   4.287   7.878 -0.8467  0.7400 -2.1438
 3400TIP3   OH231834   3.920   5.741   0.665 -0.2167 -0.6321  0.1302
 3400TIP3    H131835   3.930   5.830   0.634 -2.5538 -0.6596 -0.9512
 3400TIP3    H231836   3.845   5.745   0.725  0.9604 -1.5322  1.7408
 3401TIP3   OH231837   0.653   0.502   0.080  0.1722 -0.1400 -0.2784
 3401TIP3    H131838   0.680   0.429   0.136 -1.0759 -2.4594 -2.5003
 3401TIP3    H231839   0.573   0.472   0.037  0.6393  1.7585 -2.7462
 3402TIP3   OH231840   1.380   4.253   7.194  0.5403  0.1591 -0.4158
 3402TIP3    H131841   1.315   4.307   7.148  0.4766 -0.3759 -0.9703
 3402TIP3    H231842   1.456   4.251   7.135  0.7506  0.0996 -0.1476
 3403TIP3   OH231843   5.583   1.554   0.069  0.6036 -0.1213 -0.1671
 3403TIP3    H131844   5.523   1.488   0.033 -0.2403  0.7620 -0.4372
 3403TIP3    H231845   5.637   1.580  -0.006  1.6453 -1.2313  0.1756
 3404TIP3   OH231846   5.673   3.498   1.841 -0.2646 -0.9076  0.3474
 3404TIP3    H131847   5.588   3.526   1.805  1.1000  0.0886 -2.3585
 3404TIP3    H231848   5.685   3.553   1.919 -0.6162  1.5143 -1.1835
 3405TIP3   OH231849   5.699   2.313   1.278 -0.3649 -0.2312 -0.1033
 3405TIP3    H131850   5.646   2.326   1.200  2.9460  4.2224 -2.0302
 3405TIP3    H231851   5.666   2.378   1.340 -0.4609 -1.0551  0.7312
 3406TIP3   OH231852   6.265   1.333   2.404 -0.2079 -0.4969 -0.5259
 3406TIP3    H131853   6.339   1.353   2.347 -2.1264  1.0534 -2.6799
 3406TIP3    H231854   6.226   1.255   2.364 -0.3659 -0.6579 -0.0569
 3407TIP3   OH231855   0.958   1.472   7.601  0.1460 -0.3003 -0.0398
 3407TIP3    H131856   0.945   1.499   7.692 -4.3115  2.1363 -1.1014
 3407TIP3    H231857   0.981   1.552   7.555  0.4395 -1.1229 -1.3645
 3408TIP3   OH231858   4.030   4.726   1.688 -0.3651 -0.0152  0.5781
 3408TIP3    H131859   4.044   4.650   1.745  0.0749  0.3981  1.0370
 3408TIP3    H231860   3.935   4.734   1.681 -0.4607 -2.0839 -1.4924
 3409TIP3   OH231861   3.040   3.617   7.468 -0.1245  0.1185  0.4520
 3409TIP3    H131862   3.097   3.648   7.398  0.3473 -1.0213  0.3197
 3409TIP3    H231863   2.951   3.627   7.433  0.0758  0.2337 -0.0285
 3410TIP3   OH231864   3.622   4.263   2.292 -0.5792  0.1983 -0.3170
 3410TIP3    H131865   3.599   4.319   2.218 -0.2104  1.8465  0.7613
 3410TIP3    H231866   3.695   4.209   2.260 -0.1084  1.2212 -1.0060
 3411TIP3   OH231867   6.125   5.655   0.236 -0.7734 -0.3120  0.0709
 3411TIP3    H131868   6.042   5.701   0.230 -0.3881  0.6922  1.7968
 3411TIP3    H231869   6.127   5.619   0.325 -0.2726 -2.1805 -0.6394
 3412TIP3   OH231870   6.880   3.682   6.871 -0.0949  0.0386  0.2678
 3412TIP3    H131871   6.939   3.627   6.820 -2.2513 -1.5969 -0.5646
 3412TIP3    H231872   6.819   3.719   6.807 -1.4294 -0.2026  1.3577
 3413TIP3   OH231873   3.662   3.261   0.798 -0.9898 -0.0451 -0.2858
 3413TIP3    H131874   3.576   3.278   0.836 -1.5594  1.7993 -2.2191
 3413TIP3    H231875   3.713   3.340   0.816  0.4688 -1.2279  1.0979
 3414TIP3   OH231876   2.643   4.807   1.886  0.0691  0.2353  0.2148
 3414TIP3    H131877   2.635   4.824   1.792 -1.0375 -0.9218  0.0732
 3414TIP3    H231878   2.703   4.733   1.892  0.3889  0.5126  0.4441
 3415TIP3   OH231879   1.588   2.267   1.386  0.0705  0.1570  0.1567
 3415TIP3    H131880   1.513   2.211   1.405  0.1167  0.0945  0.1536
 3415TIP3    H231881   1.551   2.341   1.337 -0.1657  0.6689  1.0742
 3416TIP3   OH231882   0.316   5.209   0.531  0.4495  0.1920 -0.0072
 3416TIP3    H131883   0.348   5.123   0.504  0.8184  0.1688  0.4800
 3416TIP3    H231884   0.365   5.271   0.477 -0.5110  0.0729 -1.0444
 3417TIP3   OH231885   0.374   6.804   7.639 -0.4985  0.0511  0.0838
 3417TIP3    H131886   0.301   6.854   7.677 -0.1172  0.2660  0.5376
 3417TIP3    H231887   0.430   6.784   7.713  0.1957  0.3672 -0.3497
 3418TIP3   OH231888   5.643   3.207   1.553  0.4711 -0.2383 -0.5556
 3418TIP3    H131889   5.601   3.293   1.545 -0.5699 -0.8493 -2.1514
 3418TIP3    H231890   5.726   3.225   1.597 -0.2357  1.4083  0.2011
 3419TIP3   OH231891   1.879   2.590   7.395  0.2917 -0.1808 -0.4329
 3419TIP3    H131892   1.938   2.597   7.320 -0.1449 -0.0413 -0.7677
 3419TIP3    H231893   1.847   2.680   7.408  0.8077 -0.0917  0.2842
 3420TIP3   OH231894   2.556   0.083   2.573  0.0558 -0.0683 -0.3112
 3420TIP3    H131895   2.639   0.101   2.528 -0.3609  0.8540 -0.7209
 3420TIP3    H231896   2.578   0.014   2.636  1.2126  0.3892 -0.1880
 3421TIP3   OH231897   0.145   3.313   7.062  0.0612  0.1327  0.2230
 3421TIP3    H131898   0.126   3.248   6.995  1.6903 -1.6180  1.3598
 3421TIP3    H231899   0.233   3.343   7.042  0.5352 -0.3476  1.4720
 3422TIP3   OH231900   5.666   5.888   8.264 -0.1078 -0.2575 -0.0586
 3422TIP3    H131901   5.615   5.904   8.344  2.1790  2.6045  1.0569
 3422TIP3    H231902   5.749   5.851   8.296  0.8275  0.9067 -1.0294
 3423TIP3   OH231903   3.534   6.152   0.922 -0.1729 -0.1743  0.1155
 3423TIP3    H131904   3.534   6.114   1.010 -0.6083 -0.0938  0.1539
 3423TIP3    H231905   3.475   6.094   0.872  0.7573 -0.7400 -0.3517
 3424TIP3   OH231906   1.812   3.152   7.720  0.3633 -0.2428  0.2107
 3424TIP3    H131907   1.781   3.226   7.668  1.7635  0.9614  1.0154
 3424TIP3    H231908   1.899   3.132   7.683  0.4868 -0.7188  0.7455
 3425TIP3   OH231909   2.193   5.750   8.291  0.1185  0.2707 -0.1248
 3425TIP3    H131910   2.236   5.799   8.361 -0.5917  0.4961  0.1677
 3425TIP3    H231911   2.167   5.668   8.332 -0.4527  0.4747 -0.0715
 3426TIP3   OH231912   0.894   6.448   0.921 -0.1011 -0.1011  0.5550
 3426TIP3    H131913   0.846   6.481   0.996  1.2201  0.1233  1.3432
 3426TIP3    H231914   0.986   6.465   0.943  0.5652 -3.0090  0.3814
 3427TIP3   OH231915   4.842   4.771   1.202 -0.2337 -0.7458 -0.5655
 3427TIP3    H131916   4.807   4.685   1.222 -0.2780 -0.6248 -0.1049
 3427TIP3    H231917   4.934   4.767   1.227 -0.2804 -0.6013 -0.3686
 3428TIP3   OH231918   0.116   3.341   2.103  0.2722  0.1724 -0.5149
 3428TIP3    H131919   0.175   3.303   2.169  0.0768  0.6920 -0.0268
 3428TIP3    H231920   0.028   3.314   2.132  0.1948  0.3027 -0.6311
 3429TIP3   OH231921   3.625   6.721   7.062 -0.2481 -0.1970  0.0024
 3429TIP3    H131922   3.689   6.778   7.019 -1.0000  0.4462 -0.3046
 3429TIP3    H231923   3.547   6.776   7.070 -1.1067 -1.2881 -0.6092
 3430TIP3   OH231924   0.493   3.685   0.899 -0.3289 -0.1167  0.1913
 3430TIP3    H131925   0.488   3.732   0.981  2.0346 -0.6417  0.7201
 3430TIP3    H231926   0.587   3.681   0.879 -0.5362 -3.0494 -0.6987
 3431TIP3   OH231927   3.415   5.693   7.018  0.0315 -0.1710  0.8536
 3431TIP3    H131928   3.459   5.775   6.997 -0.2888  0.0876  1.1785
 3431TIP3    H231929   3.472   5.625   6.982  1.1905  0.1024  2.0878
 3432TIP3   OH231930   0.829   4.336   0.372 -0.3749  0.3487 -0.6589
 3432TIP3    H131931   0.741   4.309   0.345 -0.6517  1.2621 -0.7231
 3432TIP3    H231932   0.823   4.348   0.467 -0.6324  1.4517 -0.7965
 3433TIP3   OH231933   1.053   1.582   7.216 -0.2333  0.1403  0.1376
 3433TIP3    H131934   1.137   1.561   7.176  0.5051  1.3686  1.0065
 3433TIP3    H231935   0.991   1.579   7.143  0.4441 -1.2901 -0.4211
 3434TIP3   OH231936   6.605   5.264   7.571  0.7895  0.2142 -0.1329
 3434TIP3    H131937   6.537   5.286   7.508  1.6303 -0.1259 -1.1767
 3434TIP3    H231938   6.622   5.171   7.558  1.5866  0.3361 -0.0182
 3435TIP3   OH231939   0.715   5.648   8.376 -0.3198 -0.0492  0.6389
 3435TIP3    H131940   0.804   5.631   8.408  0.8887  1.2018 -1.8137
 3435TIP3    H231941   0.690   5.568   8.331  0.7256  0.5093 -1.0163
 3436TIP3   OH231942   3.219   0.637   2.077  0.1662 -0.8962 -0.2559
 3436TIP3    H131943   3.223   0.726   2.041 -2.5151 -1.0092 -1.0906
 3436TIP3    H231944   3.160   0.645   2.152  0.1296 -1.9117 -0.1678
 3437TIP3   OH231945   3.130   1.733   1.724  0.1066  0.3584 -0.6095
 3437TIP3    H131946   3.100   1.823   1.740 -1.0119  0.1552 -1.3926
 3437TIP3    H231947   3.084   1.707   1.644 -1.3344 -1.6805  0.7812
 3438TIP3   OH231948   5.170   1.938   1.767  1.1040  0.0808 -0.3060
 3438TIP3    H131949   5.176   1.903   1.678  2.7246 -0.6457  0.0511
 3438TIP3    H231950   5.096   1.998   1.764 -0.7702 -2.1447 -1.3788
 3439TIP3   OH231951   3.189   3.317   1.526  0.8959 -0.2212  0.3697
 3439TIP3    H131952   3.138   3.265   1.464 -0.6109  1.4561  0.1225
 3439TIP3    H231953   3.188   3.266   1.607  0.1935 -0.9641 -0.0927
 3440TIP3   OH231954   3.568   4.134   7.050  0.2286  0.1237  0.2535
 3440TIP3    H131955   3.618   4.137   7.131 -1.6671  0.8946  1.4324
 3440TIP3    H231956   3.478   4.153   7.075 -0.1632  2.1113 -2.2558
 3441TIP3   OH231957   2.526   5.595   7.669  0.0553  0.3345 -0.1423
 3441TIP3    H131958   2.577   5.639   7.601 -0.8101  1.7934  0.1081
 3441TIP3    H231959   2.535   5.652   7.746  0.6691 -1.0665  0.8608
 3442TIP3   OH231960   1.429   6.108   8.618 -0.1954 -0.3199 -0.0051
 3442TIP3    H131961   1.403   6.051   8.690 -1.4751 -0.3302 -0.4440
 3442TIP3    H231962   1.519   6.133   8.638 -0.3122 -0.8361  1.2533
 3443TIP3   OH231963   3.841   6.177   7.276  0.2579 -0.3262 -0.3378
 3443TIP3    H131964   3.862   6.119   7.349  2.1001 -0.1272 -0.6594
 3443TIP3    H231965   3.892   6.256   7.293 -2.2582  1.3217  0.1376
 3444TIP3   OH231966   1.882   2.351   1.917 -0.2983 -0.0954  0.3407
 3444TIP3    H131967   1.841   2.384   1.997 -1.2011 -0.8566  0.2114
 3444TIP3    H231968   1.887   2.256   1.930  0.1518 -0.1553 -0.2333
 3445TIP3   OH231969   4.059   5.814   6.734 -0.0112  0.1909 -0.4953
 3445TIP3    H131970   3.986   5.752   6.732 -2.3954  2.5752  2.6506
 3445TIP3    H231971   4.038   5.879   6.668  0.7123 -0.4520 -1.3934
 3446TIP3   OH231972   3.855   5.299   1.823 -0.8129  0.3400  0.5208
 3446TIP3    H131973   3.918   5.361   1.859 -1.2067  0.5034  0.9456
 3446TIP3    H231974   3.888   5.278   1.736 -0.7711  1.2893  0.2942
 3447TIP3   OH231975   5.229   0.299   8.618 -0.7143  0.3976  0.5270
 3447TIP3    H131976   5.178   0.287   8.538 -0.9513  1.6349  0.4839
 3447TIP3    H231977   5.166   0.331   8.682 -0.5926 -0.8841  1.3215
 3448TIP3   OH231978   2.403   4.825   6.515 -0.1005  0.2528  0.0500
 3448TIP3    H131979   2.376   4.746   6.469 -1.4977  0.2098  0.8875
 3448TIP3    H231980   2.331   4.886   6.502 -0.7795  0.0882  2.4933
 3449TIP3   OH231981   4.979   0.335   8.208 -0.1447 -0.4081 -0.8130
 3449TIP3    H131982   5.066   0.371   8.188 -0.1531  0.1234  0.0554
 3449TIP3    H231983   4.958   0.279   8.133  2.6139 -3.6573  0.5529
 3450TIP3   OH231984   3.566   2.721   2.705 -0.2997 -0.1179  0.3090
 3450TIP3    H131985   3.607   2.673   2.633 -2.0801  0.0859 -0.9157
 3450TIP3    H231986   3.602   2.809   2.698 -0.5463 -0.0654 -0.4370
 3451TIP3   OH231987   5.011   2.440   8.149 -0.0514  0.0602 -0.1332
 3451TIP3    H131988   4.978   2.516   8.101 -0.2422 -0.7976 -1.4113
 3451TIP3    H231989   4.954   2.368   8.122  0.6621 -0.7194  0.3875
 3452TIP3   OH231990   6.083   4.803   7.926  0.5058 -0.2741  0.0260
 3452TIP3    H131991   6.038   4.860   7.864  1.3505 -0.6570 -0.9620
 3452TIP3    H231992   6.106   4.860   7.999  1.6289  0.7670 -1.0884
 3453TIP3   OH231993   2.908   1.782   2.303 -0.2101 -0.2040  0.0821
 3453TIP3    H131994   2.956   1.833   2.237  2.0729 -0.2266  1.5795
 3453TIP3    H231995   2.977   1.736   2.352 -1.9113 -1.3559  1.5187
 3454TIP3   OH231996   4.251   6.928   0.215 -0.1436 -0.3564 -0.0790
 3454TIP3    H131997   4.331   6.883   0.188 -0.6651 -0.5909 -1.2831
 3454TIP3    H231998   4.181   6.884   0.167 -0.8347  0.7834 -0.1530
 3455TIP3   OH231999   0.391   4.584   8.409  0.6224 -0.0596 -0.0512
 3455TIP3    H132000   0.314   4.636   8.384  0.1032  1.0668  3.3304
 3455TIP3    H232001   0.440   4.642   8.467  3.1120 -1.4366 -0.6402
 3456TIP3   OH232002   6.544   6.882   0.568  0.0948 -0.0227 -0.8043
 3456TIP3    H132003   6.573   6.806   0.519 -0.1032  0.3583 -1.5256
 3456TIP3    H232004   6.544   6.953   0.504 -0.2328  0.4661 -0.2680
 3457TIP3   OH232005   1.737   1.451   8.322  0.0871 -0.4364  0.3425
 3457TIP3    H132006   1.720   1.545   8.324 -2.2836 -0.8161  1.4553
 3457TIP3    H232007   1.807   1.441   8.258 -1.1751  1.8719 -1.5781
 3458TIP3   OH232008   6.267   5.386   8.353  0.0388 -0.2256  0.2101
 3458TIP3    H132009   6.257   5.294   8.328 -0.6368  0.3430 -1.7991
 3458TIP3    H232010   6.247   5.435   8.273 -1.3017  1.7356  1.6473
 3459TIP3   OH232011   3.402   3.089   1.868  0.1135  0.4128 -0.3568
 3459TIP3    H132012   3.337   3.095   1.938  0.8966 -0.8018  0.5187
 3459TIP3    H232013   3.473   3.147   1.895  0.8336 -0.7649  0.3627
 3460TIP3   OH232014   4.837   5.775   6.056 -0.1854 -0.6098  0.0391
 3460TIP3    H132015   4.844   5.684   6.084 -1.6231 -1.2154 -1.3935
 3460TIP3    H232016   4.781   5.772   5.978 -0.6942  1.5555  0.2446
 3461TIP3   OH232017   5.986   6.903   2.312 -0.1221  0.2836  0.5914
 3461TIP3    H132018   5.966   6.849   2.235 -0.0539  0.8958  0.1346
 3461TIP3    H232019   5.905   6.952   2.328  0.1968  0.9332  0.2581
 3462TIP3   OH232020   2.093   5.033   8.551  0.3349  0.1739  0.3952
 3462TIP3    H132021   2.040   4.961   8.583  2.3441 -2.1311 -1.1043
 3462TIP3    H232022   2.108   5.088   8.628 -1.4371 -0.8354  1.5386
 3463TIP3   OH232023   4.608   6.061   6.275  0.5346  0.0243  0.1244
 3463TIP3    H132024   4.692   6.044   6.232  0.0646 -1.8638 -0.1216
 3463TIP3    H232025   4.563   5.977   6.275 -1.9172  1.2381 -0.8927
 3464TIP3   OH232026   2.689   2.883   1.047 -0.3332 -0.3245  0.7479
 3464TIP3    H132027   2.641   2.957   1.009  2.3372  0.6908 -0.9909
 3464TIP3    H232028   2.672   2.810   0.988 -0.2524 -0.1123  0.4538
 3465TIP3   OH232029   5.771   6.521   2.223  0.2618 -0.0801  0.0584
 3465TIP3    H132030   5.799   6.431   2.204  1.9537  0.6115 -0.8842
 3465TIP3    H232031   5.715   6.512   2.301 -1.0342 -2.1297 -1.0167
 3466TIP3   OH232032   4.518   6.600   0.969 -0.3126 -0.2175 -0.6177
 3466TIP3    H132033   4.526   6.676   0.912  1.5558  0.1276  0.0426
 3466TIP3    H232034   4.455   6.543   0.925 -2.4900  2.0731 -0.6894
 3467TIP3   OH232035   1.675   2.512   7.050  0.1279 -0.0313 -0.0227
 3467TIP3    H132036   1.630   2.492   7.132  0.9078 -0.8623  0.2211
 3467TIP3    H232037   1.607   2.550   6.994 -0.7125 -0.6084  0.5746
 3468TIP3   OH232038   4.512   3.663   1.145  0.4634  0.1915 -0.4631
 3468TIP3    H132039   4.520   3.752   1.110  1.5845  0.2633 -0.0688
 3468TIP3    H232040   4.506   3.608   1.067 -3.2749  0.7892 -0.7524
 3469TIP3   OH232041   3.170   4.357   7.460 -0.1100  0.5491 -0.1129
 3469TIP3    H132042   3.088   4.361   7.411  0.6579 -1.0205 -1.6526
 3469TIP3    H232043   3.212   4.442   7.444 -1.1456  1.1409  0.2228
 3470TIP3   OH232044   4.154   2.944   0.824 -0.1842 -0.2190 -0.1105
 3470TIP3    H132045   4.107   2.862   0.837  1.7995 -1.3058  0.5951
 3470TIP3    H232046   4.172   2.976   0.912  0.6576  0.0018 -0.3527
 3471TIP3   OH232047   0.321   5.302   1.589  0.7513 -0.6320  0.9578
 3471TIP3    H132048   0.303   5.335   1.501  0.7970  0.2245  1.2623
 3471TIP3    H232049   0.377   5.226   1.575  1.8376  0.2691  0.3043
 3472TIP3   OH232050   5.680   0.500   7.392 -0.1616  0.1190  0.5260
 3472TIP3    H132051   5.707   0.534   7.477 -1.5626 -0.6109  1.3047
 3472TIP3    H232052   5.668   0.577   7.337  2.5621  0.5271  0.3635
 3473TIP3   OH232053   4.524   6.920   7.320  0.2125 -0.0977 -0.2634
 3473TIP3    H132054   4.566   6.972   7.388 -1.0775  2.4515 -1.2927
 3473TIP3    H232055   4.464   6.863   7.367  2.2741 -1.3700  0.9621
 3474TIP3   OH232056   6.341   5.142   0.673  0.3542 -0.1054 -0.3194
 3474TIP3    H132057   6.423   5.098   0.697  1.4416  1.5915 -0.7553
 3474TIP3    H232058   6.304   5.172   0.756  0.6056 -0.1687 -0.1851
 3475TIP3   OH232059   6.912   5.246   0.162  0.1119  0.2863  0.3551
 3475TIP3    H132060   6.908   5.325   0.107  0.3976 -0.4613 -0.7855
 3475TIP3    H232061   6.821   5.229   0.187 -0.2522 -0.1572 -1.1155
 3476TIP3   OH232062   1.897   1.735   0.807  0.2078 -0.8080  0.3127
 3476TIP3    H132063   1.827   1.797   0.784  1.2568 -0.3728 -1.9297
 3476TIP3    H232064   1.854   1.671   0.864 -1.3878  0.8389  1.0630
 3477TIP3   OH232065   3.134   0.486   8.467 -0.4614  0.2113  0.1927
 3477TIP3    H132066   3.049   0.450   8.493  0.0931 -0.9508  0.4543
 3477TIP3    H232067   3.179   0.413   8.424 -0.6712  1.5921 -2.5323
 3478TIP3   OH232068   2.684   6.821   7.667 -0.8008  0.0439  0.1983
 3478TIP3    H132069   2.733   6.748   7.627 -1.5759 -0.1904 -0.3487
 3478TIP3    H232070   2.593   6.799   7.651 -1.1403 -0.0288  2.0929
 3479TIP3   OH232071   6.237   6.082   7.002  0.5724 -0.3685 -0.0092
 3479TIP3    H132072   6.306   6.021   6.975  0.8401 -0.1438  0.1591
 3479TIP3    H232073   6.226   6.066   7.095  0.5892 -0.2187  0.0195
 3480TIP3   OH232074   0.337   5.427   1.357  0.3842 -0.5182 -0.0538
 3480TIP3    H132075   0.250   5.455   1.330  1.7133  0.9438 -3.5381
 3480TIP3    H232076   0.373   5.384   1.279  3.3724  0.5199  0.6191
 3481TIP3   OH232077   2.053   3.965   0.910  0.0236 -0.2160  0.1704
 3481TIP3    H132078   1.967   3.995   0.880 -0.9624 -2.5951  0.4169
 3481TIP3    H232079   2.068   4.013   0.992 -0.1108  1.6907 -0.8644
 3482TIP3   OH232080   6.464   4.909   6.968  0.4302 -0.0250 -0.0821
 3482TIP3    H132081   6.537   4.963   6.938 -1.1066  1.4179 -1.4290
 3482TIP3    H232082   6.407   4.902   6.892 -1.1950 -0.5049  1.1293
 3483TIP3   OH232083   1.217   6.681   7.677  0.4892  0.3565 -0.0133
 3483TIP3    H132084   1.128   6.671   7.709  0.5051  0.0341 -0.0620
 3483TIP3    H232085   1.234   6.599   7.630  0.4173  0.8664 -0.9494
 3484TIP3   OH232086   3.393   3.857   7.826  0.2264  0.4407 -0.2767
 3484TIP3    H132087   3.339   3.781   7.804 -2.2250  2.3992 -1.5515
 3484TIP3    H232088   3.436   3.880   7.744  0.0100  1.0963 -0.2136
 3485TIP3   OH232089   4.363   0.101   7.947 -0.0981  0.6744 -0.0308
 3485TIP3    H132090   4.374   0.013   7.982  0.2765  0.7514  0.0531
 3485TIP3    H232091   4.268   0.112   7.937 -0.2791  0.8952  1.6169
 3486TIP3   OH232092   2.360   1.479   2.281 -0.2287 -0.3555  0.3277
 3486TIP3    H132093   2.299   1.445   2.216  0.2462 -1.2676  0.3314
 3486TIP3    H232094   2.308   1.484   2.362 -1.1453  1.8971 -0.3188
 3487TIP3   OH232095   4.994   5.582   7.676 -0.4147  0.2817 -0.4177
 3487TIP3    H132096   5.078   5.552   7.640 -0.7061  0.0528 -0.9171
 3487TIP3    H232097   4.964   5.649   7.614  0.4135  1.9259  0.8785
 3488TIP3   OH232098   2.362   1.187   1.315  0.2418  0.1322 -0.0002
 3488TIP3    H132099   2.281   1.153   1.275  1.4213 -0.1447 -2.3087
 3488TIP3    H232100   2.360   1.153   1.404 -1.7497 -0.6244 -0.2634
 3489TIP3   OH232101   6.236   6.219   6.397  0.4912 -0.5387 -0.0044
 3489TIP3    H132102   6.169   6.153   6.417  0.4637 -0.3677  0.4781
 3489TIP3    H232103   6.206   6.260   6.316 -0.1808 -0.2173  0.3978
 3490TIP3   OH232104   3.626   4.666   7.562 -0.4032 -0.0179 -0.0966
 3490TIP3    H132105   3.569   4.738   7.589 -2.0064 -0.5018 -1.8929
 3490TIP3    H232106   3.617   4.664   7.467  2.2926 -0.4698 -0.4007
 3491TIP3   OH232107   4.333   6.349   7.288  0.1085  0.1274  0.2142
 3491TIP3    H132108   4.392   6.314   7.222  0.8371  0.9010  0.4404
 3491TIP3    H232109   4.263   6.284   7.295  1.8452 -1.7130  1.2696
 3492TIP3   OH232110   2.523   2.025   8.442 -0.2914 -0.4269  1.0251
 3492TIP3    H132111   2.580   2.045   8.368 -0.7607 -1.6261  0.3150
 3492TIP3    H232112   2.573   1.964   8.497  0.0878  0.5200  1.7644
 3493TIP3   OH232113   1.240   4.411   7.422 -0.1275 -0.1891  0.4654
 3493TIP3    H132114   1.172   4.478   7.428 -0.2962 -0.2967 -0.2362
 3493TIP3    H232115   1.316   4.452   7.464 -0.6317 -0.0997  1.3177
 3494TIP3   OH232116   0.249   2.722   1.189  0.0330  0.2587 -0.2806
 3494TIP3    H132117   0.183   2.672   1.141  0.9018 -0.9744 -0.2493
 3494TIP3    H232118   0.206   2.744   1.272  0.1189 -1.8350  0.3739
 3495TIP3   OH232119   3.406   6.708   6.804 -0.5713 -1.0618  0.1538
 3495TIP3    H132120   3.365   6.621   6.803  0.5069 -1.5957  0.6398
 3495TIP3    H232121   3.440   6.718   6.715  3.1779 -3.1050  1.1612
 3496TIP3   OH232122   2.312   0.517   2.090  0.0446 -0.1887  1.0251
 3496TIP3    H132123   2.248   0.450   2.116 -0.9281 -0.0700 -0.8939
 3496TIP3    H232124   2.259   0.587   2.052  1.1926  0.8978  1.3769
 3497TIP3   OH232125   2.936   5.536   0.734 -0.0616 -0.5458 -0.3736
 3497TIP3    H132126   2.984   5.554   0.654  0.9978  3.1962  0.9315
 3497TIP3    H232127   2.986   5.466   0.777  1.6005  0.1284 -1.1461
 3498TIP3   OH232128   3.283   5.691   0.907  0.9096 -0.0875  0.0533
 3498TIP3    H132129   3.317   5.770   0.950  1.0907 -0.4034  0.5034
 3498TIP3    H232130   3.189   5.692   0.929  0.6054  0.7810 -1.1852
 3499TIP3   OH232131   4.100   2.030   8.021 -0.0769  0.4613 -0.3638
 3499TIP3    H132132   4.193   2.043   8.036  0.0263  1.2651 -1.5765
 3499TIP3    H232133   4.093   1.942   7.985  0.1118  0.1189  0.3984
 3500TIP3   OH232134   3.436   1.774   8.273  0.1693 -0.6810  0.1251
 3500TIP3    H132135   3.404   1.685   8.262  0.5213 -0.7723 -0.1392
 3500TIP3    H232136   3.480   1.774   8.358  0.8521 -0.9551 -0.2286
 3501TIP3   OH232137   1.823   2.029   0.460  0.4767  0.6474 -0.1929
 3501TIP3    H132138   1.900   2.078   0.491  0.1512 -0.0181  1.8417
 3501TIP3    H232139   1.803   1.969   0.532 -3.2564  2.2818  0.3608
 3502TIP3   OH232140   1.605   0.391   1.148  0.2354 -0.2059 -0.0829
 3502TIP3    H132141   1.674   0.338   1.110  0.7534 -0.2926  0.9558
 3502TIP3    H232142   1.587   0.458   1.081 -0.6171 -1.7825 -1.5316
 3503TIP3   OH232143   2.734   6.480   1.299 -0.0799  0.4124  0.0727
 3503TIP3    H132144   2.734   6.399   1.248  2.0063 -0.5582  1.4914
 3503TIP3    H232145   2.676   6.538   1.250 -1.7291 -1.9139 -0.9701
 3504TIP3   OH232146   3.958   1.038   7.522  0.1455 -0.4295 -0.0184
 3504TIP3    H132147   3.896   1.014   7.453  0.0399 -0.7552  0.1908
 3504TIP3    H232148   3.940   0.978   7.594  1.0211 -0.8586 -0.1386
 3505TIP3   OH232149   3.109   0.446   8.120 -0.2808 -0.5399 -0.4621
 3505TIP3    H132150   3.091   0.538   8.105  1.8226 -0.0756 -0.3923
 3505TIP3    H232151   3.083   0.431   8.211  0.3513  0.2536 -0.1455
 3506TIP3   OH232152   3.686   0.228   1.543 -0.8808 -0.6410 -0.3209
 3506TIP3    H132153   3.654   0.149   1.585  1.6623 -0.9251  1.2936
 3506TIP3    H232154   3.756   0.198   1.485 -1.0377  0.2715 -1.0191
 3507TIP3   OH232155   1.297   1.873   2.141 -0.0374  0.3815  0.0813
 3507TIP3    H132156   1.247   1.792   2.149  1.4639 -0.5271  0.7210
 3507TIP3    H232157   1.298   1.910   2.230 -2.9419  2.5850 -0.6370
 3508TIP3   OH232158   6.625   2.252   6.296  0.6579 -0.3259 -0.2306
 3508TIP3    H132159   6.584   2.179   6.251  0.7832 -0.0799 -0.7594
 3508TIP3    H232160   6.668   2.213   6.372  0.7098 -0.7980 -0.5005
 3509TIP3   OH232161   2.674   5.897   7.153 -0.2312  0.8063 -0.8160
 3509TIP3    H132162   2.646   5.809   7.127 -1.7655  1.1477 -0.4383
 3509TIP3    H232163   2.740   5.881   7.221 -1.3268 -0.0760  0.0868
 3510TIP3   OH232164   3.335   3.804   6.469  0.1332  0.7462  0.4495
 3510TIP3    H132165   3.406   3.865   6.490 -1.1683  2.5144 -0.1574
 3510TIP3    H232166   3.266   3.825   6.531 -0.6225  0.4011 -0.2662
 3511TIP3   OH232167   5.337   0.904   8.370  0.0249  0.0053  0.2007
 3511TIP3    H132168   5.270   0.972   8.380  0.5349  0.3274  1.7210
 3511TIP3    H232169   5.289   0.822   8.383 -0.3542  0.1430 -0.3068
 3512TIP3   OH232170   5.415   2.156   0.120  0.6891 -0.3248 -0.2177
 3512TIP3    H132171   5.415   2.081   0.061  1.9799  0.5742 -1.4474
 3512TIP3    H232172   5.496   2.204   0.098 -0.4291  1.7983 -0.0019
 3513TIP3   OH232173   2.017   0.559   6.985 -0.5954  0.0239  0.2305
 3513TIP3    H132174   2.024   0.648   6.951 -0.9413  0.5218  1.4173
 3513TIP3    H232175   2.065   0.505   6.922 -0.7803  0.9810 -0.7452
 3514TIP3   OH232176   5.645   4.823   7.026 -0.2404 -0.7621  1.0421
 3514TIP3    H132177   5.594   4.883   7.081  0.0366 -0.4834  0.9988
 3514TIP3    H232178   5.736   4.836   7.054 -0.1479 -0.9519  0.8320
 3515TIP3   OH232179   3.555   4.288   7.959 -0.1976 -0.0771  0.0144
 3515TIP3    H132180   3.636   4.244   7.985  0.0751  1.0914  1.2392
 3515TIP3    H232181   3.487   4.223   7.974  0.2876 -0.3754  0.9818
 3516TIP3   OH232182   6.309   3.230   7.999 -0.2758  0.5221  0.0117
 3516TIP3    H132183   6.387   3.268   8.040 -0.5611  0.9302  0.1845
 3516TIP3    H232184   6.242   3.299   8.007 -0.8227 -0.0457  0.3914
 3517TIP3   OH232185   6.336   2.614   7.392  0.6384  0.3477  0.3579
 3517TIP3    H132186   6.259   2.588   7.443  0.1472  1.0155 -0.0255
 3517TIP3    H232187   6.410   2.590   7.447  0.3069 -2.9582 -0.4634
 3518TIP3   OH232188   1.539   4.870   8.072  0.4708 -0.2193 -0.4381
 3518TIP3    H132189   1.470   4.813   8.038  0.6696 -0.5005 -0.3810
 3518TIP3    H232190   1.589   4.895   7.994  0.5706 -0.3791 -0.4258
 3519TIP3   OH232191   4.260   3.053   1.502  0.2011  0.0158 -0.2622
 3519TIP3    H132192   4.242   3.145   1.480  0.3419  0.1957  0.3637
 3519TIP3    H232193   4.341   3.032   1.455  1.2929  0.8286  1.1670
 3520TIP3   OH232194   5.887   5.015   1.186 -0.3379  0.8535  0.3414
 3520TIP3    H132195   5.976   4.979   1.185 -0.6954 -0.0589 -0.7424
 3520TIP3    H232196   5.870   5.040   1.095 -0.8084  2.0283  0.7366
 3521TIP3   OH232197   3.698   0.784   1.266  0.2244  0.0455 -0.7783
 3521TIP3    H132198   3.753   0.857   1.237  0.5438  0.8101  1.4895
 3521TIP3    H232199   3.675   0.738   1.186  2.6496  0.7697 -2.0129
 3522TIP3   OH232200   3.985   0.820   1.188  0.3367 -0.0262  0.4434
 3522TIP3    H132201   3.985   0.889   1.254  0.6072 -0.2856  0.7202
 3522TIP3    H232202   4.001   0.740   1.238 -2.1162 -0.5921  0.4141
 3523TIP3   OH232203   5.222   3.899   0.228  0.2028 -0.1465  0.4708
 3523TIP3    H132204   5.298   3.881   0.173 -0.1260  0.2926 -0.1426
 3523TIP3    H232205   5.249   3.972   0.284  0.1552  0.1901  0.0654
 3524TIP3   OH232206   5.904   2.718   0.406 -0.2864 -0.1367  0.5457
 3524TIP3    H132207   5.864   2.631   0.412 -0.3385 -0.0881  0.8881
 3524TIP3    H232208   5.963   2.712   0.331 -1.1015 -0.1401 -0.1063
 3525TIP3   OH232209   0.179   0.044   7.755 -0.3143 -0.2300 -0.5841
 3525TIP3    H132210   0.124   0.115   7.788  1.6108  1.2473 -0.3490
 3525TIP3    H232211   0.243   0.029   7.824  0.9676 -0.2830 -1.7234
 3526TIP3   OH232212   6.263   2.093   1.059  0.3586 -0.2818 -0.2521
 3526TIP3    H132213   6.207   2.085   1.135  0.5473 -3.6327 -0.3302
 3526TIP3    H232214   6.205   2.081   0.984  0.7743 -1.1950 -0.4382
 3527TIP3   OH232215   4.254   5.148   1.088 -0.6922 -0.4627  0.2459
 3527TIP3    H132216   4.294   5.174   1.005 -0.2143  0.6716  0.8142
 3527TIP3    H232217   4.288   5.059   1.104 -0.9143 -0.7556 -0.8368
 3528TIP3   OH232218   6.744   4.841   2.316 -0.1089  0.3580 -0.0335
 3528TIP3    H132219   6.700   4.892   2.248 -0.3171 -0.2768 -0.3892
 3528TIP3    H232220   6.818   4.799   2.271  0.4053  0.8108  0.3879
 3529TIP3   OH232221   2.283   1.023   0.214 -0.1290 -0.5143  0.3529
 3529TIP3    H132222   2.333   1.010   0.295 -0.1498  0.2780  0.5023
 3529TIP3    H232223   2.334   0.979   0.147  0.2250 -0.6234  0.6905
 3530TIP3   OH232224   1.313   1.968   6.865 -0.5220 -0.9058 -0.1224
 3530TIP3    H132225   1.388   1.957   6.924 -0.0541  1.6511 -0.1224
 3530TIP3    H232226   1.307   1.885   6.818  0.3122 -2.3103  2.1085
 3531TIP3   OH232227   4.489   3.198   0.729  0.2341 -0.3202 -0.5111
 3531TIP3    H132228   4.535   3.120   0.698 -2.2429 -2.1778  0.1505
 3531TIP3    H232229   4.496   3.194   0.824  2.1137  1.6612 -0.5020
 3532TIP3   OH232230   2.729   4.729   7.276 -0.5850  0.4052 -0.3663
 3532TIP3    H132231   2.717   4.760   7.186 -0.5568  2.0359  0.1654
 3532TIP3    H232232   2.645   4.747   7.319  0.0292  1.4541  0.4282
 3533TIP3   OH232233   5.399   4.636   6.778  0.1756  0.5598 -0.0924
 3533TIP3    H132234   5.390   4.545   6.806  0.9870  0.5817  0.2934
 3533TIP3    H232235   5.481   4.638   6.728 -0.5196  0.8222 -1.2345
 3534TIP3   OH232236   2.983   0.398   1.392 -0.2464 -0.1391 -0.0722
 3534TIP3    H132237   3.074   0.419   1.374  0.0688  0.7187  2.2297
 3534TIP3    H232238   2.963   0.325   1.333  1.6224  0.2706 -1.2802
 3535TIP3   OH232239   5.462   6.261   7.705 -0.3220  0.1688  0.0226
 3535TIP3    H132240   5.448   6.294   7.617 -1.3719 -1.0425 -0.2942
 3535TIP3    H232241   5.377   6.270   7.749  0.1688  0.6996  0.8991
 3536TIP3   OH232242   1.791   4.188   7.347 -0.4400  0.4743 -0.0200
 3536TIP3    H132243   1.853   4.256   7.321 -0.4690 -0.6519 -3.5531
 3536TIP3    H232244   1.714   4.236   7.378  0.5298  1.9552  0.2230
 3537TIP3   OH232245   0.029   5.683   1.518 -0.0853 -0.6091 -0.0303
 3537TIP3    H132246   0.039   5.631   1.439  0.3189 -0.5566 -0.0156
 3537TIP3    H232247   0.021   5.619   1.588  1.6451 -0.6774  0.1462
 3538TIP3   OH232248   0.053   6.371   0.246 -0.3924 -0.1284  0.1298
 3538TIP3    H132249   0.094   6.457   0.252  1.7072 -1.1568  1.6424
 3538TIP3    H232250   0.120   6.314   0.209 -0.9014 -1.6036  1.3731
 3539TIP3   OH232251   2.250   0.187   7.430 -0.0514  0.0203 -0.1564
 3539TIP3    H132252   2.175   0.224   7.478 -0.1367  0.0647 -0.3236
 3539TIP3    H232253   2.265   0.102   7.471  1.0502  0.8302  1.1929
 3540TIP3   OH232254   2.814   2.085   1.434 -0.0128  0.0976  0.3484
 3540TIP3    H132255   2.735   2.094   1.487 -0.9133  1.4203 -1.1210
 3540TIP3    H232256   2.783   2.050   1.350  0.5641  2.5236 -0.9757
 3541TIP3   OH232257   1.289   5.153   7.496 -0.0875  0.0557  0.1130
 3541TIP3    H132258   1.248   5.228   7.540 -1.6719 -0.2286 -0.8102
 3541TIP3    H232259   1.345   5.193   7.429 -0.5723  0.4437 -0.0746
 3542TIP3   OH232260   4.683   0.552   0.157  0.5516  0.2773  0.3405
 3542TIP3    H132261   4.722   0.615   0.097 -0.5883  1.5515  0.8913
 3542TIP3    H232262   4.609   0.598   0.197  0.1644 -1.1381  1.3659
 3543TIP3   OH232263   1.741   3.860   1.913  0.0536 -0.1831  0.0983
 3543TIP3    H132264   1.653   3.827   1.929  0.0413  0.0189  0.4520
 3543TIP3    H232265   1.798   3.784   1.925 -0.3649 -1.4625 -4.2843
 3544TIP3   OH232266   2.290   5.929   7.429 -0.0020  0.1921 -0.8305
 3544TIP3    H132267   2.226   5.919   7.500  0.0181  0.5482 -0.7639
 3544TIP3    H232268   2.248   5.989   7.367 -0.7080 -1.3178 -1.9135
 3545TIP3   OH232269   3.835   2.625   1.579 -0.2833  0.3425  0.3113
 3545TIP3    H132270   3.879   2.688   1.637 -0.8619  1.8911 -0.8654
 3545TIP3    H232271   3.748   2.615   1.617 -0.5313  1.0570 -0.0466
 3546TIP3   OH232272   6.141   4.846   1.719 -0.0430  0.1045  0.2090
 3546TIP3    H132273   6.086   4.911   1.675  0.1768 -0.6392 -1.2290
 3546TIP3    H232274   6.229   4.883   1.715 -0.3317  1.1538  2.2419
 3547TIP3   OH232275   2.389   2.338   2.211 -0.3920 -0.0821 -0.2692
 3547TIP3    H132276   2.304   2.346   2.253 -0.1249  2.2831 -0.0524
 3547TIP3    H232277   2.369   2.334   2.117 -0.7599 -0.5762 -0.1756
 3548TIP3   OH232278   6.229   2.841   8.477  0.2151 -0.7818 -0.3274
 3548TIP3    H132279   6.244   2.759   8.523  1.4422 -0.3051  0.1799
 3548TIP3    H232280   6.134   2.848   8.470  0.0410 -1.5049  0.9838
 3549TIP3   OH232281   4.698   3.854   7.381 -0.0297 -0.2355 -0.4007
 3549TIP3    H132282   4.645   3.846   7.301 -0.7073  1.7531 -0.2047
 3549TIP3    H232283   4.736   3.767   7.393 -0.5291 -0.8038 -2.4524
 3550TIP3   OH232284   3.180   4.842   1.780  0.0105 -0.4405 -0.2055
 3550TIP3    H132285   3.201   4.845   1.874  0.2902 -0.1926 -0.2756
 3550TIP3    H232286   3.214   4.757   1.752 -0.4038 -0.6731 -0.0040
 3551TIP3   OH232287   1.775   2.608   8.475  0.6623  0.1707  0.0815
 3551TIP3    H132288   1.847   2.560   8.515 -2.5420 -3.1074  2.6764
 3551TIP3    H232289   1.760   2.682   8.533  0.0637 -0.9375  1.3950
 3552TIP3   OH232290   1.201   5.338   0.859  0.0368 -0.1717 -0.7968
 3552TIP3    H132291   1.228   5.329   0.768  1.3738 -0.3376 -0.3974
 3552TIP3    H232292   1.201   5.248   0.893 -1.3707 -0.2178 -0.8676
 3553TIP3   OH232293   5.991   3.498   0.238 -0.2768  0.4557 -0.3828
 3553TIP3    H132294   5.963   3.418   0.282 -0.1375  0.5762 -0.0790
 3553TIP3    H232295   6.060   3.534   0.293  2.1255 -1.0042 -2.2488
 3554TIP3   OH232296   6.793   6.488   2.266 -0.1084  0.0294  0.4645
 3554TIP3    H132297   6.823   6.496   2.356  2.8850  0.0623 -0.4078
 3554TIP3    H232298   6.699   6.503   2.270  0.2663  2.7242  3.2451
 3555TIP3   OH232299   4.638   3.736   8.124 -0.1706 -0.5350 -0.1512
 3555TIP3    H132300   4.566   3.674   8.113 -0.6159 -0.1163  0.3492
 3555TIP3    H232301   4.653   3.739   8.219 -1.2180  1.3001  0.0054
 3556TIP3   OH232302   3.560   3.365   0.569  0.0237 -0.1192 -0.3792
 3556TIP3    H132303   3.557   3.287   0.623  1.9361 -0.6891 -1.0396
 3556TIP3    H232304   3.653   3.386   0.560 -0.3626  1.4014 -1.3992
 3557TIP3   OH232305   2.425   0.413   7.942 -0.8359  0.6463 -0.1857
 3557TIP3    H132306   2.509   0.405   7.988 -1.5252 -2.1239  0.7925
 3557TIP3    H232307   2.391   0.498   7.970  1.3336  1.5962 -0.1709
 3558TIP3   OH232308   5.872   2.176   1.735  0.6022 -0.1908 -0.6431
 3558TIP3    H132309   5.822   2.222   1.802  0.1577 -2.6692  0.8727
 3558TIP3    H232310   5.960   2.169   1.772  0.7047 -0.4257 -0.9269
 3559TIP3   OH232311   2.005   6.795   1.992  1.3055  0.1884  0.0530
 3559TIP3    H132312   1.981   6.712   1.950  0.3741 -0.4067  1.6879
 3559TIP3    H232313   2.101   6.791   1.999  1.4627  0.1550 -1.6294
 3560TIP3   OH232314   0.804   0.373   8.033  0.1102 -0.0948  0.2844
 3560TIP3    H132315   0.871   0.363   7.965 -0.4167  1.1019 -0.4591
 3560TIP3    H232316   0.727   0.331   7.995  0.3267 -1.1561  0.9888
 3561TIP3   OH232317   2.497   4.505   1.814  0.1103  0.0943 -0.1372
 3561TIP3    H132318   2.554   4.530   1.741 -1.2406 -0.2657 -1.3532
 3561TIP3    H232319   2.557   4.467   1.879  1.7762  3.2345  0.3407
 3562TIP3   OH232320   4.446   3.651   7.657  0.3688  0.0281  0.0470
 3562TIP3    H132321   4.484   3.572   7.694 -1.1656 -0.4504  0.6967
 3562TIP3    H232322   4.473   3.721   7.717  1.0286 -0.1343 -0.0554
 3563TIP3   OH232323   1.263   5.610   8.303  0.5802 -0.6049  0.3175
 3563TIP3    H132324   1.265   5.696   8.345  1.1506 -0.4540 -0.0008
 3563TIP3    H232325   1.312   5.623   8.221 -0.9325 -0.7563 -0.6522
 3564TIP3   OH232326   1.990   5.733   7.948  0.4759  0.7803 -0.2173
 3564TIP3    H132327   2.055   5.802   7.935 -1.5964  2.7367 -0.8446
 3564TIP3    H232328   2.001   5.675   7.873 -0.2847  2.6678 -1.8884
 3565TIP3   OH232329   4.839   6.616   7.298  0.0396  0.4991 -0.4103
 3565TIP3    H132330   4.746   6.594   7.288 -0.0663  1.2768 -1.2503
 3565TIP3    H232331   4.860   6.590   7.388 -1.3571  1.6061  0.2830
 3566TIP3   OH232332   4.485   4.347   0.447  0.1874 -0.0765  0.1035
 3566TIP3    H132333   4.562   4.392   0.414 -0.1055 -0.1198 -0.6520
 3566TIP3    H232334   4.461   4.285   0.377 -0.5900  0.0157  0.2839
 3567TIP3   OH232335   6.425   5.536   7.217 -0.0609 -0.1004  0.2137
 3567TIP3    H132336   6.457   5.603   7.278  0.8588 -0.5255  0.2163
 3567TIP3    H232337   6.497   5.525   7.154  0.8880 -2.8106  1.5978
 3568TIP3   OH232338   6.122   4.634   0.133 -0.1502 -0.3706  0.7753
 3568TIP3    H132339   6.141   4.541   0.147 -0.5554 -0.6820 -0.5893
 3568TIP3    H232340   6.201   4.679   0.163  1.1001 -1.3405 -0.8523
 3569TIP3   OH232341   2.118   6.780   8.222  0.1087  0.1429  0.5457
 3569TIP3    H132342   2.038   6.736   8.251 -0.5961  1.2741  0.3937
 3569TIP3    H232343   2.134   6.846   8.290 -0.7242  1.8247 -0.8108
 3570TIP3   OH232344   4.865   6.308   1.652  0.0001 -0.1287 -0.3862
 3570TIP3    H132345   4.959   6.321   1.645 -0.2804  2.2773 -0.5037
 3570TIP3    H232346   4.855   6.213   1.664  2.2797 -0.7741 -2.5360
 3571TIP3   OH232347   2.379   6.479   8.519  0.2711 -0.4381  1.1545
 3571TIP3    H132348   2.392   6.521   8.434  1.3486 -1.2900  0.8648
 3571TIP3    H232349   2.333   6.544   8.572 -0.8090 -0.0493 -0.2070
 3572TIP3   OH232350   5.728   6.731   6.219  0.5235  0.4455  0.2226
 3572TIP3    H132351   5.709   6.782   6.140  1.6994 -2.6170 -2.2629
 3572TIP3    H232352   5.814   6.764   6.247  0.8539  0.5092 -0.7921
 3573TIP3   OH232353   2.125   3.867   0.290 -0.2726  0.1447  0.0227
 3573TIP3    H132354   2.163   3.816   0.362  1.3070 -0.7859 -1.3998
 3573TIP3    H232355   2.118   3.956   0.325 -1.9657 -0.7398  2.1597
 3574TIP3   OH232356   5.334   3.501   1.673 -0.0200  0.0187  0.1890
 3574TIP3    H132357   5.276   3.552   1.616  0.6309  1.4529  0.7629
 3574TIP3    H232358   5.276   3.444   1.723 -0.6872 -0.4910 -1.1287
 3575TIP3   OH232359   2.213   3.288   8.548 -0.3065 -0.4118  0.1397
 3575TIP3    H132360   2.154   3.236   8.602 -1.2975  1.1318  0.6099
 3575TIP3    H232361   2.163   3.366   8.525  0.7530 -0.1338 -1.4314
 3576TIP3   OH232362   4.400   0.948   1.696  0.3489  0.5107  0.1106
 3576TIP3    H132363   4.474   0.996   1.733  1.2858  0.4564 -1.5837
 3576TIP3    H232364   4.441   0.878   1.645 -0.9083 -0.0673 -0.1311
 3577TIP3   OH232365   3.066   3.581   7.966 -0.7651  0.2956  0.0716
 3577TIP3    H132366   3.051   3.629   7.885  1.1297  0.0056 -0.4901
 3577TIP3    H232367   3.078   3.490   7.938 -0.5711  0.1126  0.7346
 3578TIP3   OH232368   0.618   5.544   0.160  0.1985  0.3237 -0.5489
 3578TIP3    H132369   0.586   5.556   0.070 -0.7964 -0.8941 -0.3769
 3578TIP3    H232370   0.678   5.469   0.154  0.1553  0.2613 -0.2049
 3579TIP3   OH232371   6.396   5.415   0.625  0.7444 -0.0504 -0.0770
 3579TIP3    H132372   6.337   5.484   0.657  0.6990  0.1583 -0.5948
 3579TIP3    H232373   6.346   5.334   0.634  1.2705 -0.2078  1.7674
 3580TIP3   OH232374   0.926   2.506   6.546  0.2842  0.1591  0.0324
 3580TIP3    H132375   0.997   2.480   6.605  0.2971 -0.3844 -0.2147
 3580TIP3    H232376   0.961   2.580   6.497  0.5571  0.1084  0.1492
 3581TIP3   OH232377   0.699   0.789   1.844  0.1408  0.0028  0.5462
 3581TIP3    H132378   0.739   0.721   1.899  0.3606 -1.2510 -1.0982
 3581TIP3    H232379   0.610   0.758   1.829  0.2240  0.1050 -0.1673
 3582TIP3   OH232380   1.737   6.316   6.406  0.0668 -0.2664  0.3900
 3582TIP3    H132381   1.676   6.250   6.438 -0.0167  0.5707  2.1000
 3582TIP3    H232382   1.682   6.392   6.386  0.4483  0.2888  1.3691
 3583TIP3   OH232383   2.391   1.847   0.124  0.0237 -0.3244 -0.0099
 3583TIP3    H132384   2.398   1.906   0.199  0.3913  0.6415 -0.7859
 3583TIP3    H232385   2.383   1.905   0.048  1.7111 -1.2267 -0.9327
 3584TIP3   OH232386   0.048   6.647   0.202  0.1004 -0.2686 -0.2163
 3584TIP3    H132387   0.026   6.628   0.110  2.4689 -0.8049 -0.7311
 3584TIP3    H232388   0.058   6.742   0.205  2.4827 -0.4190 -1.1916
 3585TIP3   OH232389   6.159   1.759   0.679  0.1002  0.3367  0.0518
 3585TIP3    H132390   6.199   1.681   0.641 -0.3941 -0.5452  1.2814
 3585TIP3    H232391   6.200   1.768   0.765 -3.1349 -1.3871  1.9545
 3586TIP3   OH232392   3.698   1.207   7.402 -0.1962 -0.1463 -0.3336
 3586TIP3    H132393   3.730   1.135   7.348 -0.7960 -0.1556 -0.6803
 3586TIP3    H232394   3.777   1.254   7.429  0.3723 -1.8398  1.2149
 3587TIP3   OH232395   3.006   5.877   8.576 -0.5701 -0.2633  0.7252
 3587TIP3    H132396   2.949   5.908   8.646 -0.0837 -0.6730  1.3119
 3587TIP3    H232397   2.998   5.944   8.507 -1.8456 -0.3808  0.7387
 3588TIP3   OH232398   4.385   4.308   6.924  0.0469 -0.1553  0.2361
 3588TIP3    H132399   4.460   4.287   6.979 -0.7947 -0.6363  1.2399
 3588TIP3    H232400   4.417   4.375   6.863  0.6977  1.3855  2.1594
 3589TIP3   OH232401   5.427   3.819   7.449 -0.2122  0.4132  0.4710
 3589TIP3    H132402   5.338   3.818   7.485 -0.0919  1.6034  0.8425
 3589TIP3    H232403   5.442   3.910   7.423  0.7405  0.1403  0.0161
 3590TIP3   OH232404   6.882   4.218   1.240  0.0781  0.5146  0.5752
 3590TIP3    H132405   6.791   4.215   1.213  0.2515 -1.7170  0.0693
 3590TIP3    H232406   6.903   4.312   1.243 -2.3948  1.1302  1.4051
 3591TIP3   OH232407   6.894   4.412   7.030  0.0070  0.4901  0.4026
 3591TIP3    H132408   6.814   4.428   7.080  0.0986 -1.5865  1.3529
 3591TIP3    H232409   6.935   4.337   7.074  1.7371  0.5747 -0.9316
 3592TIP3   OH232410   4.760   6.193   7.727  0.3342 -0.1669 -0.5965
 3592TIP3    H132411   4.738   6.152   7.811  2.2795  2.2066  1.2595
 3592TIP3    H232412   4.691   6.258   7.713 -0.7439 -1.4704 -1.6396
 3593TIP3   OH232413   0.928   6.250   0.704  0.4589  0.0610 -0.3687
 3593TIP3    H132414   0.873   6.183   0.746  0.6748 -0.1883 -0.4861
 3593TIP3    H232415   0.888   6.333   0.732 -0.6194 -0.1190 -1.2998
 3594TIP3   OH232416   1.496   0.442   7.603 -0.4760 -0.2532 -0.4548
 3594TIP3    H132417   1.590   0.431   7.619 -0.5105 -1.2863 -0.8744
 3594TIP3    H232418   1.491   0.471   7.512 -0.4896  1.7064  0.1137
 3595TIP3   OH232419   2.090   3.345   8.017  0.1161 -0.2197  0.4436
 3595TIP3    H132420   2.150   3.271   8.012  0.6054  0.1232  1.0708
 3595TIP3    H232421   2.006   3.310   7.985  1.2631  0.0580 -3.2788
 3596TIP3   OH232422   5.352   1.650   6.717 -0.4257 -0.1882  0.4331
 3596TIP3    H132423   5.318   1.739   6.728  1.0235  0.2518  1.7770
 3596TIP3    H232424   5.387   1.648   6.628  0.1890  0.8464  0.6336
 3597TIP3   OH232425   3.024   0.788   7.564  0.0944 -0.0294  0.1959
 3597TIP3    H132426   2.959   0.839   7.613  0.2270 -1.0834  1.5267
 3597TIP3    H232427   2.977   0.756   7.487 -0.5044  0.5244  0.3236
 3598TIP3   OH232428   0.146   6.852   2.390 -0.0939 -0.0374  0.2762
 3598TIP3    H132429   0.141   6.824   2.299 -0.0300  1.0441 -0.0681
 3598TIP3    H232430   0.099   6.935   2.392  0.0304  0.0179  1.2047
 3599TIP3   OH232431   1.254   5.161   8.483 -0.4116  0.5870 -0.2474
 3599TIP3    H132432   1.225   5.073   8.504  0.4911  0.3742  0.1574
 3599TIP3    H232433   1.274   5.159   8.390  1.7993 -0.3038  0.1907
 3600TIP3   OH232434   4.348   1.171   7.454 -0.5351  0.4559  0.0741
 3600TIP3    H132435   4.291   1.142   7.383 -0.3527 -0.9378  0.4628
 3600TIP3    H232436   4.340   1.266   7.454 -2.3448  0.3395 -0.2911
 3601TIP3   OH232437   1.061   2.617   0.219  0.0389 -0.0023  0.0979
 3601TIP3    H132438   0.975   2.592   0.254  0.2110 -0.7056  0.0246
 3601TIP3    H232439   1.120   2.547   0.247  0.5231  0.3151 -0.1255
 3602TIP3   OH232440   0.099   0.608   8.486  0.0119  0.6385  0.0001
 3602TIP3    H132441   0.177   0.557   8.511  0.4697  0.7279 -1.2054
 3602TIP3    H232442   0.033   0.542   8.465  0.7024  0.4983 -1.8662
 3603TIP3   OH232443   3.317   0.316   1.297  0.1639 -0.4323  0.6195
 3603TIP3    H132444   3.406   0.283   1.284  0.0615 -0.0405 -1.5370
 3603TIP3    H232445   3.327   0.410   1.311  0.0815 -0.2322 -0.5331
 3604TIP3   OH232446   5.840   4.916   2.152  0.4065 -0.2975  0.0181
 3604TIP3    H132447   5.762   4.917   2.096  1.1940 -0.3486 -1.1226
 3604TIP3    H232448   5.889   4.840   2.123  1.1690  0.0739  0.3081
 3605TIP3   OH232449   1.845   1.395   1.104  0.0766 -0.2308  0.1676
 3605TIP3    H132450   1.836   1.370   1.196  0.5029 -0.3551  0.1771
 3605TIP3    H232451   1.791   1.332   1.057  0.1838 -0.4217  0.2976
 3606TIP3   OH232452   3.487   3.851   2.284 -0.0519 -0.7364  0.0217
 3606TIP3    H132453   3.555   3.896   2.235  0.2497 -0.7864  0.3835
 3606TIP3    H232454   3.422   3.918   2.304 -0.6583 -0.9161 -1.2658
 3607TIP3   OH232455   6.231   5.181   0.193 -0.0025  0.0113 -0.2308
 3607TIP3    H132456   6.221   5.161   0.286 -0.8679  0.3596 -0.2444
 3607TIP3    H232457   6.147   5.158   0.154  0.2572  0.1354 -0.8814
 3608TIP3   OH232458   5.669   2.662   0.868  0.3503  0.3036 -0.1796
 3608TIP3    H132459   5.614   2.654   0.791 -0.3111  0.9242  0.2190
 3608TIP3    H232460   5.757   2.677   0.833  0.0490  0.6272 -0.8156
 3609TIP3   OH232461   1.996   3.091   8.618 -0.1062  0.6114  0.1824
 3609TIP3    H132462   1.936   3.104   8.691  0.1544  0.3299  0.4513
 3609TIP3    H232463   1.948   3.036   8.556  0.7160 -1.7158  1.4986
 3610TIP3   OH232464   6.144   0.543   7.740 -0.1453  0.3716  0.2723
 3610TIP3    H132465   6.176   0.454   7.751 -0.5258 -0.2548 -2.7333
 3610TIP3    H232466   6.219   0.599   7.758  1.0516 -0.7687 -0.9896
 3611TIP3   OH232467   1.273   2.110   2.742 -0.4825 -0.3034 -0.1058
 3611TIP3    H132468   1.195   2.166   2.735 -0.3669 -0.2076 -0.7521
 3611TIP3    H232469   1.245   2.026   2.706  0.1179  0.1748 -1.7881
 3612TIP3   OH232470   5.053   5.380   0.628  0.5295  0.3149  0.0592
 3612TIP3    H132471   5.055   5.403   0.535 -0.3156  0.3132  0.0402
 3612TIP3    H232472   4.974   5.329   0.639 -0.6817  2.3161  1.2403
 3613TIP3   OH232473   1.979   1.584   1.351  0.2268  0.6697 -0.0951
 3613TIP3    H132474   1.975   1.607   1.444 -0.9619  1.1354 -0.2458
 3613TIP3    H232475   1.940   1.659   1.306  0.5801  0.3458 -0.9538
 3614TIP3   OH232476   5.321   3.678   8.269  0.3149 -0.3408  0.2247
 3614TIP3    H132477   5.277   3.762   8.274  0.3948 -0.2497 -0.4376
 3614TIP3    H232478   5.357   3.664   8.356  0.7837  0.5763  0.1905
 3615TIP3   OH232479   5.384   2.117   6.937 -0.1045 -0.4828  0.0709
 3615TIP3    H132480   5.473   2.095   6.963  0.7487  0.3750 -1.9105
 3615TIP3    H232481   5.389   2.209   6.910 -1.4445 -0.6071 -0.6982
 3616TIP3   OH232482   6.229   4.165   1.860 -0.5600  1.1118  0.1982
 3616TIP3    H132483   6.165   4.102   1.894  0.2356  0.1947  0.0466
 3616TIP3    H232484   6.183   4.248   1.859 -0.9441  0.9986  2.5808
 3617TIP3   OH232485   1.396   6.779   8.555  0.1976  0.1668  0.6066
 3617TIP3    H132486   1.366   6.689   8.541  0.1153  0.2349  0.3192
 3617TIP3    H232487   1.356   6.828   8.482 -0.8522  0.6805  1.4913
 3618TIP3   OH232488   1.541   5.477   0.325 -0.6009  0.6248  0.0319
 3618TIP3    H132489   1.626   5.454   0.289 -0.2801  0.3423  0.9249
 3618TIP3    H232490   1.536   5.428   0.407 -1.3626  1.1095  0.2857
 3619TIP3   OH232491   3.523   0.733   2.402  0.0351 -0.4426 -0.6681
 3619TIP3    H132492   3.607   0.705   2.366  0.4512 -0.9776  0.6843
 3619TIP3    H232493   3.528   0.829   2.403  1.8260 -0.4553  2.0271
 3620TIP3   OH232494   4.099   4.099   6.635 -0.1722  0.2817 -0.0030
 3620TIP3    H132495   4.054   4.017   6.658 -0.8462  0.7933  0.5543
 3620TIP3    H232496   4.110   4.144   6.719  0.6546  0.5401 -0.2439
 3621TIP3   OH232497   3.324   2.587   1.277 -0.1513 -0.1193 -0.2228
 3621TIP3    H132498   3.294   2.519   1.337 -1.4582  0.7818  0.1753
 3621TIP3    H232499   3.263   2.584   1.204  0.6610 -0.3329 -0.9152
 3622TIP3   OH232500   0.995   4.779   8.233 -0.0642 -0.1258  0.2681
 3622TIP3    H132501   0.982   4.860   8.185 -2.1187 -1.3137 -1.3471
 3622TIP3    H232502   0.928   4.781   8.301 -0.1375 -0.4804  0.2066
 3623TIP3   OH232503   4.790   4.942   8.561  0.0961 -0.0617 -0.6631
 3623TIP3    H132504   4.839   4.912   8.484 -0.6387 -2.4811 -0.2670
 3623TIP3    H232505   4.831   4.896   8.635 -0.3581  0.8469  0.1813
 3624TIP3   OH232506   0.747   4.218   8.457  0.0447 -0.0770 -0.1607
 3624TIP3    H132507   0.663   4.179   8.431  0.3319  0.1060 -1.4199
 3624TIP3    H232508   0.729   4.312   8.463 -0.0470 -0.1290  0.4446
 3625TIP3   OH232509   3.456   0.256   0.289 -0.4019 -0.0585 -0.5474
 3625TIP3    H132510   3.475   0.255   0.383 -1.2292  1.2519 -0.3346
 3625TIP3    H232511   3.491   0.174   0.256  2.1073  0.5153  0.4592
 3626TIP3   OH232512   5.692   1.927   0.406  0.1898  0.1843 -0.5470
 3626TIP3    H132513   5.606   1.944   0.444  0.9658  0.3152  1.2133
 3626TIP3    H232514   5.680   1.848   0.353 -1.5997  1.6333 -2.4736
 3627TIP3   OH232515   1.678   4.909   7.832  0.5391  0.0343  0.0598
 3627TIP3    H132516   1.700   4.816   7.838  1.8129  0.3505  0.5423
 3627TIP3    H232517   1.683   4.929   7.738  1.5774 -0.0961  0.0730
 3628TIP3   OH232518   1.604   6.750   0.441  0.8420  0.6217 -0.0026
 3628TIP3    H132519   1.529   6.766   0.384  0.5400 -0.2450  0.1375
 3628TIP3    H232520   1.652   6.833   0.441 -0.3355  1.3424  0.2352
 3629TIP3   OH232521   0.105   6.910   1.374  0.0182 -0.4852  0.0930
 3629TIP3    H132522   0.145   6.831   1.412  1.5470  0.0988 -0.2274
 3629TIP3    H232523   0.150   6.982   1.418  0.4778  0.1966 -1.4526
 3630TIP3   OH232524   3.626   1.764   0.451 -0.2641  0.2044 -0.0306
 3630TIP3    H132525   3.566   1.720   0.511 -1.7864 -0.9938 -2.2896
 3630TIP3    H232526   3.581   1.845   0.427  0.6081  0.9749  0.8191
 3631TIP3   OH232527   5.074   1.080   7.084  0.0759 -0.5191  0.2812
 3631TIP3    H132528   4.983   1.076   7.054  0.0450  0.5760  0.1761
 3631TIP3    H232529   5.100   1.170   7.067  0.7044 -0.4096  1.7342
 3632TIP3   OH232530   1.831   2.435   7.882  0.0222 -0.3411 -0.1554
 3632TIP3    H132531   1.791   2.404   7.964 -0.4507  0.3340 -0.1308
 3632TIP3    H232532   1.760   2.435   7.819 -0.0965  1.1147 -0.0455
 3633TIP3   OH232533   3.332   2.303   8.248 -1.2181  0.0373  0.2329
 3633TIP3    H132534   3.365   2.295   8.158 -1.0769  0.0184  0.2872
 3633TIP3    H232535   3.356   2.220   8.290 -1.5086 -0.0577  0.2153
 3634TIP3   OH232536   3.596   3.818   7.560  0.3989  0.3108 -0.1294
 3634TIP3    H132537   3.507   3.853   7.550 -0.3790 -1.0295  1.6068
 3634TIP3    H232538   3.594   3.734   7.516  0.9926  0.5453 -0.6080
 3635TIP3   OH232539   1.590   0.248   2.382 -0.1857 -0.0052 -0.4380
 3635TIP3    H132540   1.547   0.210   2.306  0.5880 -1.2925 -0.2629
 3635TIP3    H232541   1.683   0.225   2.372  0.2881  1.6176 -0.1699
 3636TIP3   OH232542   5.410   1.990   2.350  0.4484 -0.4344 -0.2649
 3636TIP3    H132543   5.451   1.964   2.433 -0.2248  0.8863  0.5174
 3636TIP3    H232544   5.425   2.085   2.345 -1.0408 -0.1996 -0.7770
 3637TIP3   OH232545   4.239   4.631   0.601 -0.0427 -0.0256  0.2622
 3637TIP3    H132546   4.187   4.643   0.680  0.9583 -0.6370  1.0433
 3637TIP3    H232547   4.278   4.717   0.585 -0.3390  0.1292  0.3605
 3638TIP3   OH232548   1.558   0.283   0.535  0.1732 -0.0924  0.0718
 3638TIP3    H132549   1.627   0.312   0.595 -1.6838  0.2912  2.1425
 3638TIP3    H232550   1.481   0.333   0.561 -1.7360 -2.7965  0.0039
 3639TIP3   OH232551   2.836   0.175   1.850  0.1961 -0.2969 -0.4330
 3639TIP3    H132552   2.753   0.138   1.881 -0.6209  1.9541  0.3359
 3639TIP3    H232553   2.811   0.259   1.811  2.1203  0.6045  0.1407
 3640TIP3   OH232554   4.597   6.541   7.244 -0.2610  0.9267 -0.3441
 3640TIP3    H132555   4.523   6.570   7.298  0.8325  0.2196  1.6400
 3640TIP3    H232556   4.576   6.449   7.224 -0.1628  0.8751 -0.2109
 3641TIP3   OH232557   1.387   1.829   2.569  0.7695  0.1467  0.3478
 3641TIP3    H132558   1.392   1.734   2.566 -1.6851 -0.0460  0.5826
 3641TIP3    H232559   1.450   1.854   2.637  1.3523 -1.3018  0.3839
 3642TIP3   OH232560   3.217   3.285   0.464  0.5064  0.3901 -0.5639
 3642TIP3    H132561   3.134   3.318   0.500  1.0692 -0.0242  1.1939
 3642TIP3    H232562   3.284   3.338   0.506  1.2308 -0.6596 -0.3652
 3643TIP3   OH232563   6.437   1.460   1.092 -0.4481 -0.0128 -0.4395
 3643TIP3    H132564   6.528   1.453   1.120 -1.1048 -1.5951  1.5184
 3643TIP3    H232565   6.440   1.521   1.018  2.0760  0.5770  0.0358
 3644TIP3   OH232566   4.501   3.088   7.389  0.4657  0.0298 -0.1815
 3644TIP3    H132567   4.516   3.092   7.483  0.2028 -1.1562 -0.0732
 3644TIP3    H232568   4.581   3.051   7.353  0.4575  0.2161 -0.3967
 3645TIP3   OH232569   6.496   0.279   2.004  0.0366 -0.6976  0.0231
 3645TIP3    H132570   6.459   0.351   2.055 -2.1428 -0.4740 -1.7306
 3645TIP3    H232571   6.576   0.315   1.966  0.4182 -0.1199  1.3044
 3646TIP3   OH232572   4.612   2.844   1.080 -0.1492 -0.0308  0.1472
 3646TIP3    H132573   4.562   2.916   1.117  2.2022  1.9333 -0.2611
 3646TIP3    H232574   4.639   2.792   1.156 -0.4788  0.4682  0.6121
 3647TIP3   OH232575   5.905   0.406   8.275  0.0005  0.1221 -0.4674
 3647TIP3    H132576   5.886   0.317   8.246 -0.7789 -0.6764  2.2579
 3647TIP3    H232577   5.824   0.436   8.316  0.8044  1.4274  0.2316
 3648TIP3   OH232578   1.082   0.687   0.433 -0.0501  0.6327  0.0189
 3648TIP3    H132579   1.154   0.638   0.394  2.7358  1.1119  3.9838
 3648TIP3    H232580   1.109   0.779   0.425 -1.2127  0.9716 -0.1369
 3649TIP3   OH232581   3.117   3.051   6.752  0.7955  0.2865 -0.2485
 3649TIP3    H132582   3.078   3.111   6.688 -0.8070 -0.5991 -0.1519
 3649TIP3    H232583   3.073   2.968   6.737  0.5954 -0.0274  1.8092
 3650TIP3   OH232584   4.433   1.251   1.046 -0.0698 -0.0878 -0.7663
 3650TIP3    H132585   4.511   1.208   1.012  0.3699  1.0977 -1.3139
 3650TIP3    H232586   4.465   1.301   1.122 -0.2329  0.6311 -1.1668
 3651TIP3   OH232587   5.306   6.347   8.098 -0.3569  0.0632  0.2056
 3651TIP3    H132588   5.293   6.302   8.015  0.4653  1.2818 -0.6266
 3651TIP3    H232589   5.279   6.284   8.164 -0.2143 -1.2583 -0.9416
 3652TIP3   OH232590   6.716   2.739   0.771 -0.1857  0.1744 -0.1340
 3652TIP3    H132591   6.634   2.697   0.746  0.4754 -1.5455  0.4340
 3652TIP3    H232592   6.747   2.781   0.690 -1.7056  1.0477 -0.2911
 3653TIP3   OH232593   6.503   0.492   0.500 -0.0997 -0.0833 -0.8141
 3653TIP3    H132594   6.501   0.451   0.587  2.1400  0.2363 -0.5600
 3653TIP3    H232595   6.506   0.419   0.439 -0.4748 -0.2993 -0.5825
 3654TIP3   OH232596   5.704   4.152   1.307  0.3972  0.1842  0.6456
 3654TIP3    H132597   5.778   4.091   1.299 -0.2495 -0.5768  0.3897
 3654TIP3    H232598   5.738   4.235   1.271  1.7759  0.4258  2.3752
 3655TIP3   OH232599   0.833   1.545   8.210  0.1191  0.4799 -0.0273
 3655TIP3    H132600   0.896   1.475   8.227 -0.3985 -0.3098 -1.2136
 3655TIP3    H232601   0.751   1.499   8.190 -0.7317  1.4801  1.0080
 3656TIP3   OH232602   1.691   2.130   8.315 -0.0255  0.0472  0.3312
 3656TIP3    H132603   1.660   2.210   8.357  1.3510  0.0982  1.2973
 3656TIP3    H232604   1.611   2.087   8.284 -0.8714  1.2165  0.8380
 3657TIP3   OH232605   0.919   3.699   6.821  0.0683  0.0950 -0.3570
 3657TIP3    H132606   0.909   3.697   6.726 -0.2852 -1.1856 -0.3019
 3657TIP3    H232607   1.012   3.719   6.835  0.3240 -0.6103 -0.9866
 3658TIP3   OH232608   6.013   3.382   7.896 -0.0793  0.1058 -0.3473
 3658TIP3    H132609   6.052   3.370   7.982 -0.9608 -0.3270  0.0112
 3658TIP3    H232610   6.070   3.444   7.851  1.4420 -1.0765 -0.1340
 3659TIP3   OH232611   6.615   4.764   1.080 -0.1178  0.1203  0.0739
 3659TIP3    H132612   6.533   4.814   1.086  0.5267  1.8485 -3.0532
 3659TIP3    H232613   6.683   4.826   1.106  0.4214 -0.2904 -0.3227
 3660TIP3   OH232614   3.261   3.013   1.478 -0.2922  0.0951  0.4593
 3660TIP3    H132615   3.235   3.084   1.419  0.3936 -1.0474 -1.3165
 3660TIP3    H232616   3.346   3.040   1.511  0.9785 -0.7430 -1.8717
 3661TIP3   OH232617   3.429   4.577   1.929  0.2695  0.7403 -0.0193
 3661TIP3    H132618   3.495   4.646   1.922  2.3122 -1.2668 -2.5073
 3661TIP3    H232619   3.372   4.590   1.853  0.3887  0.0234 -0.2456
 3662TIP3   OH232620   1.565   1.361   8.098 -0.7548  0.5594 -0.0228
 3662TIP3    H132621   1.635   1.415   8.136  1.6488 -2.0837 -0.3668
 3662TIP3    H232622   1.534   1.307   8.170 -1.6277  0.8795 -0.1505
 3663TIP3   OH232623   0.560   0.613   7.387  0.1205  0.2694 -0.5284
 3663TIP3    H132624   0.508   0.536   7.365  1.8901 -0.8000 -1.1625
 3663TIP3    H232625   0.614   0.628   7.310  2.0968  0.1881  0.7741
 3664TIP3   OH232626   0.783   4.642   1.881 -0.4769  0.2594  0.0527
 3664TIP3    H132627   0.802   4.724   1.928 -0.0332  0.0652  0.2182
 3664TIP3    H232628   0.851   4.582   1.909 -0.6494 -0.0922 -0.2696
 3665TIP3   OH232629   2.440   0.075   0.337 -0.3962  0.0584  0.4812
 3665TIP3    H132630   2.387   0.058   0.414  0.7429  0.0151  1.2716
 3665TIP3    H232631   2.465   0.167   0.344 -0.2495  0.0438  0.1929
 3666TIP3   OH232632   6.854   4.449   7.437  0.2810 -0.0231  0.2308
 3666TIP3    H132633   6.761   4.471   7.442  0.0934 -0.5819 -0.5292
 3666TIP3    H232634   6.857   4.354   7.440  0.7417 -0.0575 -0.7082
 3667TIP3   OH232635   4.697   2.211   7.362 -0.3628 -0.2285 -0.5713
 3667TIP3    H132636   4.630   2.278   7.347 -0.6214 -0.5794 -1.0145
 3667TIP3    H232637   4.656   2.149   7.422 -0.3467 -0.3165 -0.6514
 3668TIP3   OH232638   2.951   3.710   8.200 -0.1067 -0.1162 -0.1779
 3668TIP3    H132639   2.953   3.641   8.134 -1.6133 -0.3383 -0.0297
 3668TIP3    H232640   2.987   3.787   8.155  1.1498 -0.8505 -0.4834
 3669TIP3   OH232641   1.998   0.972   0.282  0.1391 -0.7633  0.4710
 3669TIP3    H132642   2.061   1.033   0.243 -1.1923  0.0561 -0.4704
 3669TIP3    H232643   2.032   0.886   0.259 -0.5699 -0.3438 -2.6718
 3670TIP3   OH232644   5.906   1.328   1.123 -0.3243  0.5802 -0.2699
 3670TIP3    H132645   5.832   1.376   1.161 -0.3541  0.3060  0.0173
 3670TIP3    H232646   5.869   1.245   1.095 -0.0644  0.3199  0.1490
 3671TIP3   OH232647   5.536   4.202   1.512  0.0598  0.4140 -0.6964
 3671TIP3    H132648   5.488   4.122   1.536  0.4480  0.1957 -0.6293
 3671TIP3    H232649   5.590   4.176   1.437  0.0792  0.6527 -0.7656
 3672TIP3   OH232650   3.349   2.488   1.549  0.1446 -0.0587  0.1045
 3672TIP3    H132651   3.398   2.569   1.564 -0.9392  0.9043 -1.1885
 3672TIP3    H232652   3.398   2.420   1.595  1.3880  1.2422  0.7669
 3673TIP3   OH232653   2.883   1.699   0.155 -0.1013 -0.3314  0.1406
 3673TIP3    H132654   2.792   1.677   0.139 -0.5350 -0.5546  2.5728
 3673TIP3    H232655   2.917   1.625   0.206  1.0072  0.4643  0.5981
 3674TIP3   OH232656   3.900   5.222   2.264  0.6674  0.1687 -0.1818
 3674TIP3    H132657   3.946   5.197   2.344 -0.1406  1.8629  0.8654
 3674TIP3    H232658   3.820   5.170   2.266  0.7483  0.0486  0.0085
 3675TIP3   OH232659   3.201   5.860   0.136 -0.2898  0.3842  1.0181
 3675TIP3    H132660   3.139   5.847   0.064  2.2198 -0.3396 -1.1419
 3675TIP3    H232661   3.196   5.954   0.156  0.1130  0.9395 -1.2732
 3676TIP3   OH232662   1.258   4.245   1.303  0.0700 -0.3955 -0.6047
 3676TIP3    H132663   1.286   4.302   1.374 -1.1959 -0.8383  0.2949
 3676TIP3    H232664   1.328   4.180   1.296  0.8420  0.4266 -0.6802
 3677TIP3   OH232665   5.543   3.860   2.480 -0.0077  0.1808  0.1972
 3677TIP3    H132666   5.554   3.941   2.430  2.2503 -0.2820 -0.1496
 3677TIP3    H232667   5.491   3.886   2.556 -0.6020  1.6229 -0.6612
 3678TIP3   OH232668   3.815   0.782   2.547 -0.0717 -0.2082  0.0431
 3678TIP3    H132669   3.838   0.718   2.480  0.6423 -1.9749  1.8764
 3678TIP3    H232670   3.723   0.763   2.568  0.1388 -0.6669  0.5839
 3679TIP3   OH232671   4.207   5.263   6.880 -0.7555  0.2920  0.1329
 3679TIP3    H132672   4.238   5.237   6.967 -1.3273  0.8207  0.5007
 3679TIP3    H232673   4.142   5.197   6.857 -2.0465  1.2303  0.9715
 3680TIP3   OH232674   6.262   4.799   6.773  0.4216  0.2704 -0.0195
 3680TIP3    H132675   6.183   4.785   6.719 -0.6258  2.9542  0.6572
 3680TIP3    H232676   6.332   4.812   6.709 -0.2590  0.6670 -0.7075
 3681TIP3   OH232677   4.105   2.547   2.309 -0.4542  0.0461 -0.1288
 3681TIP3    H132678   4.199   2.548   2.325 -0.4260  0.5917 -0.3228
 3681TIP3    H232679   4.066   2.541   2.397 -0.2457  0.1864 -0.0252
 3682TIP3   OH232680   4.808   0.411   1.522 -0.1478 -0.2371  0.3052
 3682TIP3    H132681   4.893   0.367   1.515 -0.7600 -1.5434  0.6738
 3682TIP3    H232682   4.827   0.495   1.561  1.1170 -0.0335 -0.6868
 3683TIP3   OH232683   3.742   1.098   1.093  0.2583 -0.2360 -0.7596
 3683TIP3    H132684   3.755   1.160   1.022  0.5206 -0.0403 -0.5432
 3683TIP3    H232685   3.648   1.105   1.113  0.1086 -0.5650 -1.3282
 3684TIP3   OH232686   3.301   0.910   0.887 -0.1653  0.3596 -0.3444
 3684TIP3    H132687   3.270   0.900   0.977  1.5337  0.2752  0.2785
 3684TIP3    H232688   3.349   0.993   0.887  0.6626 -0.0997 -0.9087
 3685TIP3   OH232689   0.563   3.997   8.392  0.2208  0.2434 -0.3636
 3685TIP3    H132690   0.637   3.936   8.402  0.9690  0.9066 -1.5778
 3685TIP3    H232691   0.546   4.028   8.480  0.4223 -1.0364  0.1473
 3686TIP3   OH232692   5.476   4.177   1.828 -0.3248  0.0082  0.2096
 3686TIP3    H132693   5.418   4.123   1.775  1.5629 -0.8893 -1.0373
 3686TIP3    H232694   5.511   4.118   1.894  2.2739 -0.5883 -1.5737
 3687TIP3   OH232695   1.658   1.441   0.339 -0.6856 -0.0514 -0.5933
 3687TIP3    H132696   1.723   1.454   0.270 -1.6626 -1.3416 -1.8014
 3687TIP3    H232697   1.681   1.357   0.379 -1.6148 -0.5342 -1.0512
 3688TIP3   OH232698   2.442   3.972   1.906 -0.1043  0.2675 -0.3708
 3688TIP3    H132699   2.470   3.937   1.822  0.5647 -0.0374 -0.0308
 3688TIP3    H232700   2.524   3.984   1.955 -0.5999 -3.5294  1.7894
 3689TIP3   OH232701   2.791   0.622   7.965 -0.0864  0.0266  0.3187
 3689TIP3    H132702   2.721   0.663   7.916  1.3516  0.4571 -1.4918
 3689TIP3    H232703   2.871   0.643   7.916  1.2045 -1.3174  1.7040
 3690TIP3   OH232704   2.265   1.950   7.391 -0.1802 -0.0839  0.1502
 3690TIP3    H132705   2.183   1.901   7.401 -0.4011 -0.1620 -1.6936
 3690TIP3    H232706   2.242   2.039   7.417 -0.5173 -0.3530  0.8088
 3691TIP3   OH232707   6.150   5.034   1.024 -0.0736 -0.0883  0.2293
 3691TIP3    H132708   6.232   5.000   0.987 -0.7061 -1.0501 -0.3252
 3691TIP3    H232709   6.150   5.127   1.001 -0.1093 -0.4990 -1.5966
 3692TIP3   OH232710   2.467   2.224   7.074  0.1364  0.1974  0.0029
 3692TIP3    H132711   2.533   2.177   7.125  0.4961 -0.3264 -0.9305
 3692TIP3    H232712   2.504   2.312   7.063 -0.8588  0.9880  2.3706
 3693TIP3   OH232713   5.585   5.674   8.100 -0.5239  0.5235  0.1785
 3693TIP3    H132714   5.629   5.736   8.159 -2.1701  0.9488  1.0409
 3693TIP3    H232715   5.530   5.621   8.158 -0.1033 -0.9236 -0.6975
 3694TIP3   OH232716   4.482   1.869   0.730  0.5452 -0.1667  0.3014
 3694TIP3    H132717   4.485   1.827   0.644 -0.4786 -1.6091  0.9429
 3694TIP3    H232718   4.537   1.814   0.786 -0.4065 -0.4029  1.0344
 3695TIP3   OH232719   0.931   5.339   7.170 -0.1215 -0.2511 -0.4660
 3695TIP3    H132720   0.894   5.395   7.102  0.8566  0.6856 -0.2455
 3695TIP3    H232721   0.998   5.288   7.125  0.3923  0.2299 -0.2582
 3696TIP3   OH232722   3.935   2.486   7.826  0.3480  0.4959 -0.0172
 3696TIP3    H132723   3.997   2.438   7.881  0.1256  1.4762  1.1449
 3696TIP3    H232724   3.896   2.420   7.769  0.5408 -0.5752  1.0621
 3697TIP3   OH232725   5.106   4.784   7.750  0.0661 -0.0942 -0.5181
 3697TIP3    H132726   5.125   4.699   7.790  1.1623  0.4066  0.0821
 3697TIP3    H232727   5.084   4.764   7.659 -0.6136 -1.0961 -0.1547
 3698TIP3   OH232728   4.090   3.972   0.423 -0.5310  0.2486  0.8280
 3698TIP3    H132729   4.160   3.908   0.409 -0.0644  1.2051 -1.6912
 3698TIP3    H232730   4.116   4.019   0.502 -0.4124 -1.9957  2.1964
 3699TIP3   OH232731   1.508   2.331   6.723 -0.2905 -0.3287 -0.2748
 3699TIP3    H132732   1.560   2.262   6.763  0.4287 -0.0674 -0.7393
 3699TIP3    H232733   1.425   2.329   6.771  0.0711 -0.8780  0.3509
 3700TIP3   OH232734   6.347   1.743   2.052 -0.2577 -0.2427  0.2693
 3700TIP3    H132735   6.368   1.651   2.041  0.7561 -0.2687  2.0595
 3700TIP3    H232736   6.251   1.746   2.055 -0.4375 -0.8439 -2.4208
 3701TIP3   OH232737   6.334   1.059   1.911  0.5125 -0.0446 -0.4590
 3701TIP3    H132738   6.358   1.021   1.996 -0.8821 -1.5647 -0.7072
 3701TIP3    H232739   6.316   0.983   1.855  0.8378  0.9456 -1.9605
 3702TIP3   OH232740   3.872   1.829   1.323 -0.1886  0.6501 -0.1126
 3702TIP3    H132741   3.850   1.903   1.265  0.1958  1.8362  1.2109
 3702TIP3    H232742   3.814   1.758   1.294  0.6912  0.8612 -2.6121
 3703TIP3   OH232743   1.540   0.168   7.168 -0.4371  0.8362 -0.0138
 3703TIP3    H132744   1.613   0.151   7.227 -0.3262 -2.1676 -0.8237
 3703TIP3    H232745   1.554   0.258   7.137  3.5011  0.1174 -0.8609
 3704TIP3   OH232746   3.177   1.857   8.107 -0.3979 -0.1110 -0.0290
 3704TIP3    H132747   3.260   1.832   8.148  0.0590  0.3550 -0.6305
 3704TIP3    H232748   3.196   1.942   8.067  0.0140 -1.6480 -3.4616
 3705TIP3   OH232749   5.595   5.503   1.663  0.1786  0.1855 -0.0697
 3705TIP3    H132750   5.566   5.584   1.622 -0.2269 -0.1542 -0.4673
 3705TIP3    H232751   5.563   5.508   1.754  1.2854  1.0469  0.2902
 3706TIP3   OH232752   2.181   1.580   1.878  0.1894  0.0122  0.5685
 3706TIP3    H132753   2.154   1.551   1.965  0.6744 -0.0701  0.6934
 3706TIP3    H232754   2.107   1.631   1.846  0.7370  1.6947  1.8184
 3707TIP3   OH232755   6.881   5.487   7.649  0.3333 -0.1893  0.1255
 3707TIP3    H132756   6.967   5.461   7.684  0.9661 -0.5399 -1.5864
 3707TIP3    H232757   6.882   5.582   7.651  1.4295 -0.1345 -1.2956
 3708TIP3   OH232758   2.030   3.290   1.767  0.0052 -0.1500  0.5006
 3708TIP3    H132759   2.013   3.303   1.860  1.1366 -1.8926  0.9982
 3708TIP3    H232760   2.086   3.212   1.763 -0.1531 -0.2243 -1.6504
 3709TIP3   OH232761   2.117   4.356   7.443  0.4018  0.3685  0.8900
 3709TIP3    H132762   2.169   4.297   7.497 -0.2972 -0.4951  0.6460
 3709TIP3    H232763   2.163   4.360   7.360 -0.0070 -0.5478  0.6094
 3710TIP3   OH232764   3.956   0.507   1.877 -0.3115 -0.4665  0.7984
 3710TIP3    H132765   3.954   0.505   1.973 -0.3760 -0.7669  0.7903
 3710TIP3    H232766   3.881   0.562   1.853  1.2319  1.8606  0.9898
 3711TIP3   OH232767   1.687   5.358   6.707  0.0607  0.2370 -0.2255
 3711TIP3    H132768   1.631   5.394   6.639 -1.7626  2.0343  2.0240
 3711TIP3    H232769   1.772   5.400   6.694 -0.5773  1.3979 -0.7280
 3712TIP3   OH232770   5.781   1.299   1.530 -0.0702  0.3413 -0.9408
 3712TIP3    H132771   5.863   1.259   1.558  0.4485  1.9438 -0.0031
 3712TIP3    H232772   5.713   1.242   1.565  0.6207  0.8739  1.4435
 3713TIP3   OH232773   6.721   3.278   7.044  0.1902  0.2428  0.0729
 3713TIP3    H132774   6.792   3.258   6.983 -0.3334  0.4192 -0.6117
 3713TIP3    H232775   6.677   3.354   7.005 -0.3774  0.1259  0.4767
 3714TIP3   OH232776   3.751   4.473   1.263  0.0129 -0.3541 -0.3254
 3714TIP3    H132777   3.835   4.429   1.250 -0.3488 -1.2596  0.3215
 3714TIP3    H232778   3.686   4.404   1.255 -0.6817  0.3305 -0.7535
 3715TIP3   OH232779   1.441   1.612   8.213  0.1059 -0.1699 -0.0823
 3715TIP3    H132780   1.347   1.615   8.227  0.2186 -0.7059  0.9677
 3715TIP3    H232781   1.454   1.545   8.146 -0.2313 -0.4450  0.1268
 3716TIP3   OH232782   4.610   5.388   1.022 -0.6076  0.0251  0.5061
 3716TIP3    H132783   4.656   5.316   0.978  0.1808  0.3607  0.7695
 3716TIP3    H232784   4.563   5.433   0.952 -2.0681 -1.4232  0.4870
 3717TIP3   OH232785   2.416   3.760   8.233  0.5333 -0.4342 -0.1899
 3717TIP3    H132786   2.405   3.789   8.143 -2.4558  0.1142  0.2510
 3717TIP3    H232787   2.456   3.834   8.278  0.2907  0.0092 -0.6967
 3718TIP3   OH232788   4.550   3.233   1.338  0.0714 -0.3954 -0.2263
 3718TIP3    H132789   4.499   3.302   1.380  2.2523  0.7900  0.6495
 3718TIP3    H232790   4.532   3.154   1.389  0.7815  0.4953  1.4630
 3719TIP3   OH232791   6.206   4.046   1.096 -0.4366 -0.0359 -0.1967
 3719TIP3    H132792   6.209   3.988   1.020  0.4838  0.2552 -0.4053
 3719TIP3    H232793   6.121   4.089   1.091 -0.8817 -0.9289 -0.3688
 3720TIP3   OH232794   6.886   6.680   7.044 -0.0042 -0.4756  0.2117
 3720TIP3    H132795   6.965   6.671   7.098  1.6452  0.9365 -1.7830
 3720TIP3    H232796   6.832   6.744   7.089  0.7971 -0.1924  0.7888
 3721TIP3   OH232797   2.015   0.985   1.713 -0.6073 -0.3918 -0.0685
 3721TIP3    H132798   2.095   0.934   1.704 -0.2236 -0.3736  2.5708
 3721TIP3    H232799   1.973   0.951   1.792 -1.1578  2.2276  0.8751
 3722TIP3   OH232800   1.454   5.772   1.309  0.1212 -0.0705 -0.4945
 3722TIP3    H132801   1.424   5.766   1.219  1.0032  0.8966 -0.8785
 3722TIP3    H232802   1.389   5.724   1.360 -0.3181 -0.7368 -1.6567
 3723TIP3   OH232803   1.553   1.213   1.632  0.1332  0.0402 -0.4651
 3723TIP3    H132804   1.544   1.268   1.555 -1.3814 -0.5233 -0.7137
 3723TIP3    H232805   1.642   1.231   1.664  2.8298 -3.2010 -5.0476
 3724TIP3   OH232806   3.106   5.974   7.598 -0.2600 -0.1483  0.2102
 3724TIP3    H132807   3.034   5.914   7.579  0.4072 -0.7685 -0.4225
 3724TIP3    H232808   3.132   6.007   7.512 -1.3267  1.9274  0.6105
 3725TIP3   OH232809   5.944   5.460   1.929  0.6758  0.3405 -0.1332
 3725TIP3    H132810   5.952   5.482   1.836 -2.9122 -3.0048 -1.5269
 3725TIP3    H232811   5.904   5.537   1.969  0.2638  1.0675 -1.8646
 3726TIP3   OH232812   4.835   5.401   1.725 -0.1785  0.3915  0.1276
 3726TIP3    H132813   4.901   5.392   1.794  0.8906  0.0925 -0.9075
 3726TIP3    H232814   4.870   5.469   1.667 -0.1206 -0.6774 -1.1449
 3727TIP3   OH232815   5.233   0.072   8.278 -0.4593  0.0111 -0.2545
 3727TIP3    H132816   5.179   0.013   8.330  0.0322 -0.5166 -0.3366
 3727TIP3    H232817   5.210   0.052   8.187 -0.4499  0.1055 -0.2783
 3728TIP3   OH232818   4.487   4.264   1.944  0.1004  0.6169  0.0408
 3728TIP3    H132819   4.537   4.298   2.019  2.2541  0.9597 -1.4662
 3728TIP3    H232820   4.422   4.331   1.927 -0.4533  0.5199  1.6045
 3729TIP3   OH232821   0.661   3.792   0.172  0.3410 -0.4963  0.3061
 3729TIP3    H132822   0.732   3.857   0.166 -0.0160 -0.1592 -0.5446
 3729TIP3    H232823   0.706   3.708   0.182  0.7954 -0.0583  2.2477
 3730TIP3   OH232824   0.540   3.699   2.271 -0.0313 -0.7853  0.1854
 3730TIP3    H132825   0.529   3.663   2.359  0.9121  0.1037  0.6914
 3730TIP3    H232826   0.499   3.785   2.275  0.9561 -0.2934  0.0873
 3731TIP3   OH232827   6.347   3.058   8.363  0.0963 -0.5401 -0.1642
 3731TIP3    H132828   6.264   3.099   8.337 -0.5107 -1.1993  0.6934
 3731TIP3    H232829   6.322   2.981   8.414  1.1588 -2.8950 -2.8911
 3732TIP3   OH232830   2.114   0.485   1.362  0.1901  0.2087  0.8333
 3732TIP3    H132831   2.162   0.565   1.386 -0.4332  0.3967  1.4984
 3732TIP3    H232832   2.030   0.494   1.407 -0.2591 -0.3683  0.1147
 3733TIP3   OH232833   2.681   2.789   2.161 -0.1333  0.4316  0.3312
 3733TIP3    H132834   2.648   2.719   2.217 -0.0387 -0.0718 -0.2321
 3733TIP3    H232835   2.716   2.854   2.221 -1.9918  0.9123  0.9729
 3734TIP3   OH232836   6.215   5.088   0.446  0.6902  0.1614 -0.3409
 3734TIP3    H132837   6.133   5.134   0.465 -0.0173 -1.1665 -0.0509
 3734TIP3    H232838   6.271   5.107   0.521 -0.1158 -0.5882  0.4771
 3735TIP3   OH232839   2.555   5.885   0.901 -0.1902 -0.3580  0.3758
 3735TIP3    H132840   2.551   5.841   0.986 -2.0691 -0.2026  0.4159
 3735TIP3    H232841   2.528   5.818   0.838 -3.5080  0.6970  0.4821
 3736TIP3   OH232842   2.267   4.639   0.233 -0.4648  0.8957 -0.1184
 3736TIP3    H132843   2.312   4.704   0.180 -1.4689  1.5808 -0.1768
 3736TIP3    H232844   2.176   4.670   0.237 -0.7473  0.0398  0.7097
 3737TIP3   OH232845   6.270   3.681   1.444  0.2741 -0.1490  0.3579
 3737TIP3    H132846   6.204   3.694   1.376  0.8334  1.1922  0.0229
 3737TIP3    H232847   6.314   3.599   1.420 -0.2078 -0.2121 -0.3246
 3738TIP3   OH232848   2.411   2.942   7.294 -0.2811  0.1767 -0.2933
 3738TIP3    H132849   2.445   3.028   7.271  0.3069 -0.0448 -0.2701
 3738TIP3    H232850   2.448   2.924   7.381  0.3732 -0.5063 -0.7035
 3739TIP3   OH232851   5.824   1.258   7.637 -0.2155  0.0440  0.0844
 3739TIP3    H132852   5.752   1.220   7.687 -1.5129  0.0374 -1.7006
 3739TIP3    H232853   5.815   1.220   7.549  1.0072  1.2740 -0.6086
 3740TIP3   OH232854   4.927   4.237   7.438 -0.1507 -0.1901 -0.1180
 3740TIP3    H132855   4.923   4.232   7.533  0.0451  0.5288 -0.0669
 3740TIP3    H232856   4.835   4.237   7.410 -0.1985 -1.0395  0.0300
 3741TIP3   OH232857   6.499   2.874   7.289 -0.8184 -0.3698  0.1684
 3741TIP3    H132858   6.531   2.961   7.263 -0.5104 -0.4780  0.1760
 3741TIP3    H232859   6.489   2.881   7.384 -0.1529 -0.5420  0.2586
 3742TIP3   OH232860   1.021   0.515   1.040  0.4583  0.0225  0.1970
 3742TIP3    H132861   1.034   0.423   1.062 -1.0638 -1.1979 -3.2371
 3742TIP3    H232862   0.928   0.522   1.018  0.7308  2.1355 -0.5550
 3743TIP3   OH232863   6.249   2.269   0.567 -0.6575 -0.6386  0.2345
 3743TIP3    H132864   6.296   2.320   0.633 -0.6155 -0.4583  0.0691
 3743TIP3    H232865   6.301   2.189   0.557 -0.6229 -0.6329  0.3654
 3744TIP3   OH232866   4.546   3.076   7.665 -0.2427  0.0702  0.3425
 3744TIP3    H132867   4.614   3.023   7.707  1.0475  1.9144  0.6929
 3744TIP3    H232868   4.465   3.048   7.707  0.0927 -2.7233 -0.6003
 3745TIP3   OH232869   5.915   1.042   7.158 -0.1960 -0.1339 -0.0920
 3745TIP3    H132870   5.947   1.106   7.220 -1.8934  1.0554 -0.3828
 3745TIP3    H232871   5.918   1.087   7.073 -1.6298 -0.3295 -0.2653
 3746TIP3   OH232872   1.930   6.475   6.229  0.2390  0.5273  0.1189
 3746TIP3    H132873   1.879   6.541   6.275 -0.7332  0.8796 -1.3995
 3746TIP3    H232874   1.888   6.392   6.251 -0.2030  0.6933 -0.0957
 3747TIP3   OH232875   0.554   3.666   1.808  0.5678  0.1365  0.2706
 3747TIP3    H132876   0.468   3.676   1.767  1.4360  0.7723 -1.4951
 3747TIP3    H232877   0.537   3.612   1.885 -1.5441  0.9843  0.4834
 3748TIP3   OH232878   4.948   6.633   8.348 -0.3019 -0.2765  0.1543
 3748TIP3    H132879   5.019   6.645   8.284  0.0528 -1.0283  0.3995
 3748TIP3    H232880   4.870   6.620   8.294  0.0829 -1.4408 -0.1581
 3749TIP3   OH232881   2.993   2.474   0.388  0.3603 -0.7380  0.1831
 3749TIP3    H132882   2.915   2.508   0.432  1.3574  1.0992  0.6341
 3749TIP3    H232883   2.972   2.477   0.295 -0.2447 -0.6127  0.3226
 3750TIP3   OH232884   3.831   2.467   8.149 -0.2263  0.1783 -0.2220
 3750TIP3    H132885   3.901   2.402   8.155  0.8664  1.5072  2.7232
 3750TIP3    H232886   3.758   2.428   8.197  0.1616  0.7549  0.8600
 3751TIP3   OH232887   2.180   5.632   1.694 -0.4845  0.0180  0.3559
 3751TIP3    H132888   2.160   5.543   1.722  1.5591 -0.2542  1.0936
 3751TIP3    H232889   2.095   5.669   1.671 -1.4769 -1.8440  0.8138
 3752TIP3   OH232890   4.889   6.348   7.422  0.2236 -0.1984  0.3376
 3752TIP3    H132891   4.829   6.355   7.348 -0.0702 -1.4214  0.4456
 3752TIP3    H232892   4.945   6.274   7.401  1.0521  0.3099  0.7077
 3753TIP3   OH232893   5.804   5.930   0.977  0.8598  0.0574 -0.0679
 3753TIP3    H132894   5.750   5.987   1.032  1.3426 -0.8586  1.4219
 3753TIP3    H232895   5.768   5.939   0.889 -0.9376  0.4062  0.6697
 3754TIP3   OH232896   5.433   3.748   1.771 -0.5260  0.0736 -0.0233
 3754TIP3    H132897   5.499   3.734   1.704  0.3825 -1.6815  1.1500
 3754TIP3    H232898   5.371   3.675   1.761 -0.6966  0.1090  0.6618
 3755TIP3   OH232899   4.715   3.468   1.454 -0.3104 -0.1965  0.5060
 3755TIP3    H132900   4.770   3.542   1.428 -1.3231  1.4306  2.6307
 3755TIP3    H232901   4.658   3.452   1.379 -1.7319  2.8920  0.7718
 3756TIP3   OH232902   3.180   6.312   6.500 -0.4667 -0.0034 -0.2312
 3756TIP3    H132903   3.212   6.369   6.570  1.6384 -0.9314 -0.3507
 3756TIP3    H232904   3.255   6.301   6.441 -2.2981  1.1725 -2.9895
 3757TIP3   OH232905   3.215   6.168   1.283  0.6961 -0.8942 -0.4847
 3757TIP3    H132906   3.281   6.158   1.215  1.6333  0.9772  0.0867
 3757TIP3    H232907   3.247   6.116   1.356  2.7880  1.7053  0.5940
 3758TIP3   OH232908   2.192   5.359   2.364  0.4492 -0.3052 -0.8183
 3758TIP3    H132909   2.171   5.280   2.413 -0.4335  0.0384 -0.6147
 3758TIP3    H232910   2.109   5.386   2.324  0.8066  0.3243 -1.1663
 3759TIP3   OH232911   5.505   5.372   7.654  0.2795 -0.0634  0.0282
 3759TIP3    H132912   5.578   5.433   7.640 -0.1126  0.5562  0.6053
 3759TIP3    H232913   5.541   5.305   7.711  1.0114 -0.9575 -1.4058
 3760TIP3   OH232914   5.344   6.448   0.239  0.2651 -0.2795  0.3165
 3760TIP3    H132915   5.420   6.442   0.180  0.9724 -0.3136  1.2008
 3760TIP3    H232916   5.323   6.542   0.242  0.2450 -0.2763  0.0285
 3761TIP3   OH232917   1.857   2.140   7.965 -0.4009  0.3205  0.1286
 3761TIP3    H132918   1.788   2.181   8.018 -0.1922  0.4902  0.2717
 3761TIP3    H232919   1.833   2.161   7.875 -0.6636  0.1797  0.1645
 3762TIP3   OH232920   3.612   0.015   7.593  0.6324  0.0626  0.4551
 3762TIP3    H132921   3.558   0.092   7.613 -1.0565 -1.0365  0.2927
 3762TIP3    H232922   3.594  -0.003   7.501  0.6872 -0.7764  0.6065
 3763TIP3   OH232923   6.637   2.291   2.227  0.2125  0.1124  0.6562
 3763TIP3    H132924   6.723   2.275   2.266  0.0470 -1.3000  0.5061
 3763TIP3    H232925   6.585   2.327   2.298  1.5121  3.1955  0.1817
 3764TIP3   OH232926   5.458   5.744   1.094  0.1888  0.0460  0.4386
 3764TIP3    H132927   5.366   5.718   1.106 -0.8667  3.5797  1.2309
 3764TIP3    H232928   5.464   5.769   1.002  0.8119 -1.4949  0.0308
 3765TIP3   OH232929   6.290   0.205   0.947 -0.3882  0.2821  0.1692
 3765TIP3    H132930   6.212   0.252   0.977 -0.9274 -1.3455  1.5204
 3765TIP3    H232931   6.325   0.164   1.026  0.5244 -0.8576 -0.7866
 3766TIP3   OH232932   2.058   6.829   0.298  0.0933  0.4690 -0.7115
 3766TIP3    H132933   2.150   6.853   0.290 -0.1622  1.1400 -2.0130
 3766TIP3    H232934   2.010   6.905   0.265 -0.9057 -0.1293 -0.7077
 3767TIP3   OH232935   4.413   0.235   8.215  0.2045 -0.0834 -0.2971
 3767TIP3    H132936   4.380   0.201   8.132  0.3248 -0.6665 -0.1179
 3767TIP3    H232937   4.504   0.258   8.198  0.6333 -1.4646 -0.0060
 3768TIP3   OH232938   5.981   6.031   0.476 -0.5841 -0.3963  0.1909
 3768TIP3    H132939   5.907   6.014   0.533 -0.3716 -1.1730  0.2447
 3768TIP3    H232940   5.945   6.083   0.404 -0.5775  1.9311  1.7315
 3769TIP3   OH232941   4.363   5.574   8.429  0.5270 -0.2637 -0.6528
 3769TIP3    H132942   4.420   5.497   8.425  0.6353 -0.1867 -0.5961
 3769TIP3    H232943   4.389   5.620   8.509 -2.1885 -2.2111  1.5398
 3770TIP3   OH232944   1.762   4.553   1.709  0.2367  0.3009  0.8275
 3770TIP3    H132945   1.846   4.506   1.713 -0.7565 -1.6037  0.4456
 3770TIP3    H232946   1.740   4.569   1.801 -0.3559 -1.8505  1.1144
 3771TIP3   OH232947   5.158   6.841   2.042 -0.2615  0.0827 -0.4174
 3771TIP3    H132948   5.167   6.746   2.040 -2.3470 -0.1660  0.1203
 3771TIP3    H232949   5.205   6.872   1.965 -0.5065 -1.4719 -1.2121
 3772TIP3   OH232950   0.302   0.560   6.695  0.4810  0.1753  0.1982
 3772TIP3    H132951   0.263   0.644   6.720 -0.2882 -0.1739  0.2020
 3772TIP3    H232952   0.258   0.537   6.613 -1.2252 -1.4348  1.4692
 3773TIP3   OH232953   6.169   0.986   0.999  0.0586 -0.2060 -0.0227
 3773TIP3    H132954   6.189   0.954   0.912 -0.6865 -2.5290  0.6017
 3773TIP3    H232955   6.222   1.066   1.008 -0.7072  0.7327 -2.9518
 3774TIP3   OH232956   2.553   1.490   2.109 -0.6089 -0.1745 -0.7021
 3774TIP3    H132957   2.619   1.542   2.156  0.4915 -1.3503 -0.8955
 3774TIP3    H232958   2.484   1.476   2.174 -0.2411  0.2948 -0.1948
 3775TIP3   OH232959   2.543   5.719   0.674 -0.4206  0.4945  0.1548
 3775TIP3    H132960   2.458   5.710   0.630 -0.0606  0.1702 -0.5020
 3775TIP3    H232961   2.601   5.661   0.625  0.3079  1.1140  0.2638
 3776TIP3   OH232962   1.454   4.571   8.585 -0.4615  0.1786 -0.1820
 3776TIP3    H132963   1.501   4.524   8.516  2.5863 -0.1719  1.9013
 3776TIP3    H232964   1.485   4.661   8.578  0.8654 -0.1156  1.4111
 3777TIP3   OH232965   4.153   5.908   6.985 -0.2691  0.2154  0.0466
 3777TIP3    H132966   4.105   5.842   6.936 -0.8506  0.5688  0.1375
 3777TIP3    H232967   4.157   5.874   7.074 -1.2823  0.6798  0.2753
 3778TIP3   OH232968   1.847   4.182   1.501  0.8542  0.0614 -0.6923
 3778TIP3    H132969   1.783   4.136   1.447  2.1791 -1.5955 -0.9563
 3778TIP3    H232970   1.832   4.147   1.589 -0.2428  1.5606 -0.2579
 3779TIP3   OH232971   5.647   6.668   1.986  0.1953 -0.3613 -0.2691
 3779TIP3    H132972   5.557   6.648   2.012  0.3948 -0.0046  0.7713
 3779TIP3    H232973   5.700   6.603   2.031  0.6769  1.1730  1.5299
 3780TIP3   OH232974   0.312   0.018   1.743  0.0098  0.0872 -0.2308
 3780TIP3    H132975   0.318   0.097   1.796  0.6319 -0.2803  0.2548
 3780TIP3    H232976   0.351  -0.050   1.797 -1.7354 -0.8570 -0.0730
 3781TIP3   OH232977   2.405   0.365   2.332 -0.4177  0.2209  0.4943
 3781TIP3    H132978   2.385   0.449   2.291  0.9758  0.9213  1.1526
 3781TIP3    H232979   2.418   0.386   2.425  3.1821 -0.0718  0.1876
 3782TIP3   OH232980   3.849   6.417   7.827  0.0852  0.2166 -0.6146
 3782TIP3    H132981   3.812   6.433   7.740 -0.1554 -1.6425 -0.9025
 3782TIP3    H232982   3.903   6.494   7.845 -1.0690  1.3390 -1.7349
 3783TIP3   OH232983   4.759   4.692   8.385 -0.2274 -0.4129 -0.1719
 3783TIP3    H132984   4.767   4.597   8.378 -0.2596 -0.4258 -0.0330
 3783TIP3    H232985   4.674   4.706   8.427 -0.3647 -0.3134 -0.4799
 3784TIP3   OH232986   0.975   6.101   0.994  0.0155  0.3372  0.1119
 3784TIP3    H132987   0.886   6.135   1.002  0.4704  1.3490  1.3408
 3784TIP3    H232988   1.031   6.175   1.021  1.1989 -0.3884 -0.2921
 3785TIP3   OH232989   4.591   6.654   8.540 -0.1055  0.1785 -0.2887
 3785TIP3    H132990   4.570   6.578   8.486  0.7488  0.9123 -1.7030
 3785TIP3    H232991   4.687   6.654   8.545 -0.1000  1.1235 -0.2711
 3786TIP3   OH232992   3.638   0.781   7.742  0.4139  0.0635  0.1058
 3786TIP3    H132993   3.560   0.739   7.778  0.8241  1.4058  2.7899
 3786TIP3    H232994   3.605   0.854   7.691 -0.1413  0.4040  0.9304
 3787TIP3   OH232995   1.583   4.574   7.100  0.1282  0.2662  0.1820
 3787TIP3    H132996   1.577   4.584   7.005 -0.2562 -1.1184  0.0405
 3787TIP3    H232997   1.496   4.597   7.131  1.0499  3.7807  0.5669
 3788TIP3   OH232998   6.375   4.458   8.263 -0.2058 -0.7524  0.6575
 3788TIP3    H132999   6.401   4.511   8.339 -0.0966 -1.3665  1.0632
 3788TIP3    H233000   6.452   4.456   8.207 -0.7819  1.0001 -0.2473
 3789TIP3   OH233001   6.366   1.260   0.026  0.4025  0.0473  0.0535
 3789TIP3    H133002   6.281   1.256  -0.017  1.3668  0.2010 -1.9786
 3789TIP3    H233003   6.394   1.351   0.017  1.0724 -0.1471  0.0862
 3790TIP3   OH233004   5.530   5.571   1.921  0.7788  0.5848  0.0484
 3790TIP3    H133005   5.588   5.625   1.975  1.2602  0.2472 -0.1253
 3790TIP3    H233006   5.467   5.535   1.983  0.2296  1.6146  0.1198
 3791TIP3   OH233007   1.631   3.502   1.124  0.1438 -0.6205  0.5042
 3791TIP3    H133008   1.540   3.493   1.096 -0.1426  0.4521  1.0064
 3791TIP3    H233009   1.683   3.477   1.048 -0.5868  0.0432 -0.2251
 3792TIP3   OH233010   3.478   0.964   7.587  0.3002  0.1127 -0.5515
 3792TIP3    H133011   3.477   0.949   7.492  1.8482 -1.3814 -0.3806
 3792TIP3    H233012   3.420   0.897   7.622  1.1059 -0.4970 -0.3453
 3793TIP3   OH233013   6.323   4.913   8.209 -0.1208  0.4456  0.1033
 3793TIP3    H133014   6.241   4.866   8.193  0.5087  0.0380 -2.2842
 3793TIP3    H233015   6.344   4.953   8.125  1.7667  1.1421  0.8643
 3794TIP3   OH233016   3.677   2.094   0.218  0.0249 -0.6510 -0.0295
 3794TIP3    H133017   3.661   2.084   0.312  1.6457  2.0762  0.6244
 3794TIP3    H233018   3.592   2.115   0.181 -0.3951 -0.3444  1.0704
 3795TIP3   OH233019   1.179   0.782   0.784  0.1966 -0.0299  0.8104
 3795TIP3    H133020   1.219   0.752   0.865  0.4401 -2.1012 -0.0058
 3795TIP3    H233021   1.252   0.789   0.722 -0.1324  0.4818  0.4641
 3796TIP3   OH233022   2.711   3.380   0.199  0.1933  0.1711  0.0458
 3796TIP3    H133023   2.732   3.472   0.209 -1.3682  0.4868  0.8352
 3796TIP3    H233024   2.712   3.365   0.104  3.3291  0.2121 -0.0326
 3797TIP3   OH233025   3.282   0.058   1.494 -0.7003 -0.0172  0.0930
 3797TIP3    H133026   3.274   0.116   1.418 -1.1593 -1.2689 -0.8587
 3797TIP3    H233027   3.191   0.045   1.523 -0.5331  0.3744  0.8111
 3798TIP3   OH233028   0.623   4.131   7.424  0.2602 -0.0532 -0.0388
 3798TIP3    H133029   0.639   4.219   7.459 -0.4166 -0.0866  0.3741
 3798TIP3    H233030   0.628   4.140   7.329  1.6154  0.1473  0.0386
 3799TIP3   OH233031   6.629   6.811   7.184 -0.5702 -0.2089  0.1018
 3799TIP3    H133032   6.621   6.726   7.142  3.3101 -1.1308  0.8428
 3799TIP3    H233033   6.596   6.797   7.273  2.3736 -1.8283  1.0592
 3800TIP3   OH233034   5.811   1.805   8.051 -0.1265 -0.0505 -0.0842
 3800TIP3    H133035   5.792   1.712   8.063 -0.7633 -0.2567 -2.2374
 3800TIP3    H233036   5.882   1.807   7.987  1.4078  0.9427  1.5572
 3801TIP3   OH233037   4.100   2.016   1.087 -0.0783  0.3669  0.5912
 3801TIP3    H133038   4.172   1.962   1.053 -0.8324 -0.8013  0.8092
 3801TIP3    H233039   4.099   1.997   1.181 -0.0796  1.1088  0.7491
 3802TIP3   OH233040   1.387   0.895   7.069 -0.0541  0.4255  0.1774
 3802TIP3    H133041   1.363   0.913   7.161  1.6001  2.1740  0.3242
 3802TIP3    H233042   1.479   0.871   7.073 -0.4532 -1.4022 -0.8672
 3803TIP3   OH233043   4.314   2.373   7.867  0.6340  0.1842  0.0601
 3803TIP3    H133044   4.353   2.447   7.820  2.6183  0.7561  2.4088
 3803TIP3    H233045   4.373   2.357   7.940 -1.3870 -1.7473  1.4093
 3804TIP3   OH233046   0.632   2.804   1.469 -0.3525 -0.7580  0.1879
 3804TIP3    H133047   0.593   2.801   1.381  0.9777 -0.8848 -0.4235
 3804TIP3    H233048   0.668   2.892   1.476 -1.5283 -0.3397  1.1041
 3805TIP3   OH233049   1.036   6.631   1.306 -0.4378  0.0433  0.1593
 3805TIP3    H133050   1.088   6.616   1.385 -0.1468  0.5000  0.0547
 3805TIP3    H233051   1.089   6.598   1.235 -0.6611 -0.2816  0.1424
 3806TIP3   OH233052   2.139   6.697   0.808 -0.2229  0.1227  0.1423
 3806TIP3    H133053   2.218   6.702   0.754 -0.0704 -0.3164  0.3195
 3806TIP3    H233054   2.091   6.622   0.773 -0.7652  0.6303 -0.2274
 3807TIP3   OH233055   4.667   6.312   8.410 -0.3223  0.4308  0.3338
 3807TIP3    H133056   4.595   6.276   8.462 -1.8005  0.2232 -1.7681
 3807TIP3    H233057   4.695   6.240   8.354  0.1792  1.0966 -0.2838
 3808TIP3   OH233058   5.562   2.207   0.378 -0.0882  0.2280 -0.9352
 3808TIP3    H133059   5.488   2.176   0.326 -0.2239 -1.5146  0.1942
 3808TIP3    H233060   5.602   2.127   0.412  2.3143  1.1127 -1.4601
 3809TIP3   OH233061   5.871   4.184   0.559  0.0443  0.9578  0.0532
 3809TIP3    H133062   5.831   4.233   0.488 -1.0550  1.3178  0.8962
 3809TIP3    H233063   5.943   4.240   0.589 -0.2934  1.3906  0.0596
 3810TIP3   OH233064   0.160   0.244   0.695 -0.4021 -0.1951  0.1343
 3810TIP3    H133065   0.256   0.246   0.701 -0.4333 -1.3373  1.5056
 3810TIP3    H233066   0.139   0.151   0.685 -1.3985  0.0021  0.3376
 3811TIP3   OH233067   3.136   0.586   0.142  0.0588  0.1357  0.6172
 3811TIP3    H133068   3.099   0.667   0.178 -2.5373 -0.8223  0.2984
 3811TIP3    H233069   3.104   0.584   0.051  0.0415 -1.2542  0.6334
 3812TIP3   OH233070   3.085   2.222   0.523  0.2214 -0.2014  0.4354
 3812TIP3    H133071   3.056   2.310   0.499  0.3543 -0.6855 -1.6544
 3812TIP3    H233072   3.046   2.208   0.609 -0.9572  1.3743  0.2255
 3813TIP3   OH233073   0.371   4.487   7.719 -0.7575 -0.6579 -0.0029
 3813TIP3    H133074   0.348   4.568   7.764 -0.0715 -0.9092  0.8428
 3813TIP3    H233075   0.451   4.457   7.763 -0.2317 -1.0815 -1.2008
 3814TIP3   OH233076   5.569   1.707   0.677 -0.0430 -0.0335  0.2587
 3814TIP3    H133077   5.486   1.661   0.686 -0.0910  0.4512  3.8206
 3814TIP3    H233078   5.549   1.798   0.700  1.1784  0.4800 -0.5886
 3815TIP3   OH233079   2.961   4.424   1.178  0.2618  0.0322  0.0339
 3815TIP3    H133080   2.962   4.370   1.099 -1.8566  0.6114 -0.4728
 3815TIP3    H233081   2.940   4.363   1.248 -0.6166 -0.0767 -0.3050
 3816TIP3   OH233082   0.472   1.607   8.326 -0.0410  0.0328 -0.3150
 3816TIP3    H133083   0.561   1.642   8.330 -0.1773  0.5079 -1.1493
 3816TIP3    H233084   0.477   1.535   8.263 -0.7932  1.8904 -2.6413
 3817TIP3   OH233085   1.688   0.466   7.370 -0.7100 -0.1431 -0.0880
 3817TIP3    H133086   1.773   0.458   7.327 -0.4285 -0.8825  0.5872
 3817TIP3    H233087   1.624   0.453   7.300 -0.2747  0.6051 -0.6361
 3818TIP3   OH233088   2.097   5.447   0.539 -0.0241 -0.1434 -0.1690
 3818TIP3    H133089   2.156   5.511   0.499 -1.3564  0.9689 -0.4234
 3818TIP3    H233090   2.155   5.379   0.574  1.5762  2.1019  1.7873
 3819TIP3   OH233091   5.388   2.484   0.779 -0.3716 -0.2870 -0.6881
 3819TIP3    H133092   5.378   2.514   0.870 -2.0508 -0.9608 -0.6198
 3819TIP3    H233093   5.298   2.475   0.747  0.1756 -1.3371 -2.0026
 3820TIP3   OH233094   5.437   2.921   0.736  0.2085  0.1834 -0.5166
 3820TIP3    H133095   5.443   2.897   0.828 -1.6055 -2.5018 -1.0119
 3820TIP3    H233096   5.414   3.014   0.738 -2.4461 -0.3808  1.8676
 3821TIP3   OH233097   2.423   0.455   7.528 -0.1045 -0.1290 -0.0443
 3821TIP3    H133098   2.493   0.404   7.569 -0.5160  0.6037  1.6541
 3821TIP3    H233099   2.343   0.407   7.550 -0.5541  1.4390  2.0552
 3822TIP3   OH233100   1.020   2.320   1.837 -0.0610  0.6941 -0.6055
 3822TIP3    H133101   1.101   2.271   1.846 -0.6363 -0.6331 -2.2293
 3822TIP3    H233102   0.973   2.302   1.919  1.2126  1.4289  0.3234
 3823TIP3   OH233103   1.403   5.240   8.047 -0.3695 -0.8900 -0.5623
 3823TIP3    H133104   1.348   5.306   8.004  0.2920 -0.3708 -0.6326
 3823TIP3    H233105   1.487   5.284   8.058 -0.0458 -1.5927 -0.2312
 3824TIP3   OH233106   1.609   3.771   1.284 -0.6506 -0.0017 -0.6592
 3824TIP3    H133107   1.607   3.769   1.380 -0.7464  1.3170 -0.6168
 3824TIP3    H233108   1.626   3.680   1.258 -2.7500 -0.7847  0.5437
 3825TIP3   OH233109   5.641   6.483   6.781  0.0573  0.1142  0.1350
 3825TIP3    H133110   5.568   6.430   6.750 -0.6231  1.4621 -0.6380
 3825TIP3    H233111   5.654   6.455   6.872 -0.1024 -1.5235 -0.3170
 3826TIP3   OH233112   5.173   2.769   2.456 -0.1937 -0.0510 -0.1403
 3826TIP3    H133113   5.175   2.847   2.401  2.1750  0.3694  0.4317
 3826TIP3    H233114   5.167   2.696   2.395  2.2522  0.4074 -1.0346
 3827TIP3   OH233115   1.443   0.454   2.202 -0.1002  0.7936 -0.2080
 3827TIP3    H133116   1.448   0.386   2.269 -2.7949  2.5950  2.0402
 3827TIP3    H233117   1.517   0.511   2.219 -0.1081  0.5995  0.4955
 3828TIP3   OH233118   6.543   5.960   1.646 -0.1731  0.0955  0.3391
 3828TIP3    H133119   6.625   5.932   1.606  0.6347  2.6352  0.0697
 3828TIP3    H233120   6.487   5.985   1.572 -0.4301  0.2935  0.5971
 3829TIP3   OH233121   3.502   1.082   0.274  0.1642 -0.1828 -0.0252
 3829TIP3    H133122   3.419   1.125   0.298  1.0772  1.2543  0.6986
 3829TIP3    H233123   3.537   1.135   0.203  1.2876  0.2721  0.8436
 3830TIP3   OH233124   6.472   4.987   0.092  0.2524 -0.6894 -0.3663
 3830TIP3    H133125   6.451   5.011   0.001 -0.2434  1.5741  0.2838
 3830TIP3    H233126   6.406   5.031   0.144  1.1392 -1.1167  1.1646
 3831TIP3   OH233127   5.627   3.932   8.274 -0.2491  0.7091  0.6013
 3831TIP3    H133128   5.684   4.007   8.256 -0.8935  1.3819  1.2991
 3831TIP3    H233129   5.587   3.952   8.358 -0.2279 -0.5555  0.9356
 3832TIP3   OH233130   4.597   2.650   0.497 -0.4807  0.4316  0.0154
 3832TIP3    H133131   4.577   2.613   0.582  0.6706  0.6191  0.3971
 3832TIP3    H233132   4.536   2.609   0.437 -1.5736  0.5923  0.9904
 3833TIP3   OH233133   6.717   0.269   1.160 -0.4497 -0.0433 -0.3366
 3833TIP3    H133134   6.629   0.299   1.181  0.0757 -0.1022  2.2831
 3833TIP3    H233135   6.710   0.173   1.159 -0.9149 -0.0608 -2.9198
 3834TIP3   OH233136   1.420   4.939   7.178  0.7505 -0.0141  0.3086
 3834TIP3    H133137   1.481   4.883   7.227  1.0011 -1.4613 -1.5334
 3834TIP3    H233138   1.337   4.928   7.224  1.2216 -0.3745  1.1199
 3835TIP3   OH233139   4.013   4.389   1.196  0.0513  0.2587 -0.3569
 3835TIP3    H133140   4.066   4.432   1.129  1.6339  1.2104  1.4158
 3835TIP3    H233141   4.076   4.337   1.246 -0.7527  1.0644  1.5595
 3836TIP3   OH233142   0.294   4.008   1.859  0.1614  0.1047  0.4965
 3836TIP3    H133143   0.214   4.032   1.812 -0.2871 -0.6100  0.8850
 3836TIP3    H233144   0.331   4.092   1.887  0.7139  0.5982 -1.5416
 3837TIP3   OH233145   0.321   4.670   7.918 -0.5917 -0.3341 -0.3310
 3837TIP3    H133146   0.405   4.684   7.961  0.3463 -2.4863 -1.3512
 3837TIP3    H233147   0.257   4.711   7.977  0.7078 -2.2431  2.6310
 3838TIP3   OH233148   4.336   1.781   2.469 -0.2906  0.5077 -0.0841
 3838TIP3    H133149   4.383   1.850   2.421 -1.3150  1.1381 -0.1950
 3838TIP3    H233150   4.310   1.822   2.551  0.9700 -0.4111  0.8173
 3839TIP3   OH233151   1.902   6.075   6.071 -0.3444  0.0718  0.3059
 3839TIP3    H133152   1.965   6.141   6.041  0.0358 -0.0642  0.7896
 3839TIP3    H233153   1.902   6.008   6.003 -0.6288  0.4973 -0.1219
 3840TIP3   OH233154   2.466   3.388   0.877  0.6995 -0.6827  0.1491
 3840TIP3    H133155   2.535   3.454   0.874  1.6824 -1.5476  2.1291
 3840TIP3    H233156   2.394   3.429   0.925  0.5771 -0.4501 -0.2248
 3841TIP3   OH233157   5.735   3.577   6.984 -0.0001  0.6255  0.3938
 3841TIP3    H133158   5.738   3.570   6.889 -0.1570  0.3972  0.4055
 3841TIP3    H233159   5.675   3.508   7.012  0.2261  0.5395  0.6746
 3842TIP3   OH233160   4.692   1.124   1.001 -0.2088  0.5311  0.2432
 3842TIP3    H133161   4.752   1.052   0.982 -0.4065  0.7220 -1.2422
 3842TIP3    H233162   4.744   1.186   1.052  0.2687 -0.1946  0.6562
 3843TIP3   OH233163   0.774   3.225   1.412 -0.5639 -0.7116 -0.1782
 3843TIP3    H133164   0.796   3.174   1.490  0.2272 -1.4881 -0.8917
 3843TIP3    H233165   0.858   3.243   1.370 -0.6442  2.3905  0.7490
 3844TIP3   OH233166   6.696   6.478   0.585  0.0342  0.1281  0.1577
 3844TIP3    H133167   6.727   6.402   0.536 -0.6427 -0.6480  0.9001
 3844TIP3    H233168   6.730   6.465   0.673 -1.5136 -0.2267  0.7332
 3845TIP3   OH233169   2.927   2.286   1.563  0.2295  0.8155 -0.0574
 3845TIP3    H133170   2.895   2.241   1.485  1.4742  0.2981 -0.2914
 3845TIP3    H233171   2.854   2.342   1.589 -1.6270 -1.6777  0.5562
 3846TIP3   OH233172   3.464   5.729   0.087  0.9281 -0.0829 -0.3954
 3846TIP3    H133173   3.465   5.753  -0.006 -1.4313 -0.5251 -0.6239
 3846TIP3    H233174   3.408   5.795   0.128  0.0182 -1.1860  0.2246
 3847TIP3   OH233175   6.853   3.067   7.488 -0.4545 -0.2099 -0.0583
 3847TIP3    H133176   6.770   3.100   7.523 -0.2269  0.2071  0.0982
 3847TIP3    H233177   6.885   3.137   7.432  0.2099  0.0004  0.5599
 3848TIP3   OH233178   1.089   2.025   1.165  0.7005  0.4087  0.0229
 3848TIP3    H133179   1.063   1.937   1.193  0.7985 -0.0658 -1.2924
 3848TIP3    H233180   1.153   2.053   1.231  0.3766 -0.3392  0.6779
 3849TIP3   OH233181   5.998   6.596   0.949 -0.6662  0.2351  0.2877
 3849TIP3    H133182   6.060   6.528   0.921 -1.3875 -0.0224 -0.7472
 3849TIP3    H233183   5.919   6.579   0.898 -1.1593  1.3331  0.6494
 3850TIP3   OH233184   2.740   5.122   6.343 -0.7912  0.1274  0.1139
 3850TIP3    H133185   2.788   5.199   6.310 -0.2858  1.1077  2.8695
 3850TIP3    H233186   2.653   5.156   6.365 -0.8453 -0.2812  0.5409
 3851TIP3   OH233187   6.793   2.640   0.415 -0.0228  0.5286 -0.1979
 3851TIP3    H133188   6.701   2.628   0.393 -0.2598  0.3501  0.8342
 3851TIP3    H233189   6.837   2.564   0.376 -0.1444  1.1256 -1.5492
 3852TIP3   OH233190   0.671   2.142   0.815  0.4575 -0.1017 -0.6075
 3852TIP3    H133191   0.657   2.160   0.907  0.4499  0.7980 -0.7809
 3852TIP3    H233192   0.685   2.047   0.811  0.2633 -0.1727  0.2847
 3853TIP3   OH233193   0.771   0.397   0.647 -0.6921  0.1171 -0.1206
 3853TIP3    H133194   0.847   0.430   0.600 -0.0103 -1.0100  0.1653
 3853TIP3    H233195   0.722   0.346   0.581 -0.3921 -0.4223  0.0684
 3854TIP3   OH233196   5.066   3.186   2.387 -0.0320 -0.3827  0.0929
 3854TIP3    H133197   5.067   3.263   2.330  0.1774 -1.5640 -1.5581
 3854TIP3    H233198   5.018   3.215   2.464 -3.6729  0.2722 -2.1624
 3855TIP3   OH233199   4.321   6.575   8.616  0.1086  0.1541  0.2850
 3855TIP3    H133200   4.331   6.669   8.624 -0.9919  0.1366  2.5845
 3855TIP3    H233201   4.227   6.561   8.604  0.3316 -0.6391 -0.7379
 3856TIP3   OH233202   1.347   3.927   2.392  0.3588 -0.2154 -0.1635
 3856TIP3    H133203   1.440   3.909   2.407 -0.0169 -1.8920  0.4422
 3856TIP3    H233204   1.311   3.939   2.480 -0.1275 -0.3531 -0.3399
 3857TIP3   OH233205   0.910   3.127   1.950 -0.1723  0.2484  0.1760
 3857TIP3    H133206   0.834   3.179   1.926  1.0357  0.8745 -2.7319
 3857TIP3    H233207   0.877   3.063   2.013 -2.4167  2.3367  1.2852
 3858TIP3   OH233208   0.393   2.306   0.077  0.0250  0.2315 -0.0431
 3858TIP3    H133209   0.368   2.287  -0.014 -2.7442  0.4746  0.5624
 3858TIP3    H233210   0.424   2.397   0.075 -1.4213  0.7456 -0.5664
 3859TIP3   OH233211   4.765   0.517   7.998  0.2327 -0.4716  0.4922
 3859TIP3    H133212   4.765   0.489   7.906  4.2883 -0.1951  0.2555
 3859TIP3    H233213   4.772   0.612   7.993 -1.7505 -0.2243  1.2270
 3860TIP3   OH233214   5.599   2.072   2.108  0.2736 -0.0771  0.2099
 3860TIP3    H133215   5.689   2.096   2.129  0.8894 -0.8813 -1.3529
 3860TIP3    H233216   5.564   2.037   2.190  1.4960 -0.0625  0.7610
 3861TIP3   OH233217   3.182   6.851   1.090  0.1177  0.2107 -0.1527
 3861TIP3    H133218   3.173   6.779   1.153  0.3744 -0.3211 -0.7207
 3861TIP3    H233219   3.093   6.864   1.056  0.3256 -0.9145 -1.2124
 3862TIP3   OH233220   0.149   0.753   7.360  0.8245 -0.1282 -0.2189
 3862TIP3    H133221   0.100   0.811   7.418  1.2921 -0.7925  0.8770
 3862TIP3    H233222   0.095   0.747   7.281 -0.9033 -0.8746  0.9509
 3863TIP3   OH233223   3.907   6.886   1.589 -0.2470  0.1268  0.1766
 3863TIP3    H133224   3.907   6.803   1.541  1.0823  0.1748  0.0384
 3863TIP3    H233225   3.985   6.932   1.556 -1.0180  1.4779  0.1743
 3864TIP3   OH233226   6.739   3.652   7.802 -0.6184 -0.5692 -0.8912
 3864TIP3    H133227   6.714   3.729   7.853  0.5526 -1.5814  1.3510
 3864TIP3    H233228   6.676   3.650   7.730 -0.9916  2.1715 -0.7498
 3865TIP3   OH233229   1.810   6.622   7.920 -0.2691  0.0862  0.1782
 3865TIP3    H133230   1.861   6.556   7.965  0.1568  0.6452  0.5284
 3865TIP3    H233231   1.841   6.620   7.829 -1.7149 -1.6228 -0.3306
 3866TIP3   OH233232   4.141   0.248   2.296 -0.5050 -0.8360 -0.3751
 3866TIP3    H133233   4.127   0.342   2.302  0.5525 -0.6673 -0.4228
 3866TIP3    H233234   4.121   0.216   2.384  2.8679 -0.0080  0.8575
 3867TIP3   OH233235   2.742   6.861   1.665 -0.1344 -0.2673  1.1005
 3867TIP3    H133236   2.650   6.858   1.639  0.1299  1.4420 -0.2144
 3867TIP3    H233237   2.765   6.954   1.662  1.7932 -0.7068  0.7897
 3868TIP3   OH233238   0.046   0.415   7.870  0.1582 -0.2636  0.4649
 3868TIP3    H133239  -0.023   0.351   7.886 -0.7632  0.4802 -0.3853
 3868TIP3    H233240   0.038   0.438   7.778  1.4964 -0.0831  0.3606
 3869TIP3   OH233241   4.426   3.548   1.375 -0.6938 -0.6669  0.1739
 3869TIP3    H133242   4.453   3.599   1.299  0.5858 -0.4333  0.7567
 3869TIP3    H233243   4.427   3.610   1.447  0.4150 -1.3730  0.8033
 3870TIP3   OH233244   2.814   0.358   7.436  0.2882 -0.6821 -0.1179
 3870TIP3    H133245   2.762   0.307   7.374  0.4062 -0.9984  0.0439
 3870TIP3    H233246   2.875   0.295   7.475 -0.2974 -0.6503  0.8850
 3871TIP3   OH233247   2.617   1.303   0.457  0.1280 -0.2246  0.1678
 3871TIP3    H133248   2.663   1.353   0.524  0.1373 -1.3368  1.0204
 3871TIP3    H233249   2.538   1.354   0.439 -0.5876 -0.5737  2.0578
 3872TIP3   OH233250   1.374   5.761   1.044 -0.1867  0.2900 -0.0534
 3872TIP3    H133251   1.294   5.795   1.002 -0.5632  0.6356  0.9114
 3872TIP3    H233252   1.386   5.674   1.006 -2.2636 -0.6732  1.3087
 3873TIP3   OH233253   1.477   2.333   8.032 -0.0419  0.7291 -0.3220
 3873TIP3    H133254   1.502   2.331   7.940 -0.1847 -0.5218 -0.3442
 3873TIP3    H233255   1.557   2.311   8.079 -0.1294  0.6945 -0.1882
 3874TIP3   OH233256   1.779   4.607   7.291  0.2570  0.2368  0.2083
 3874TIP3    H133257   1.840   4.535   7.273  0.8749  0.3941  1.5563
 3874TIP3    H233258   1.718   4.605   7.217 -0.1721 -2.1061  0.5486
 3875TIP3   OH233259   2.041   6.546   0.220  0.7778  0.0699  0.0606
 3875TIP3    H133260   2.032   6.641   0.232  0.5787  0.0393  0.1451
 3875TIP3    H233261   2.131   6.535   0.189 -0.0402  0.5506 -2.7988
 3876TIP3   OH233262   6.110   3.641   6.810  0.4661  0.0114  0.1729
 3876TIP3    H133263   6.185   3.595   6.771 -0.7047 -0.6210 -1.4358
 3876TIP3    H233264   6.034   3.597   6.773 -0.7204  2.1111 -0.0280
 3877TIP3   OH233265   6.131   4.876   1.251  0.1943 -0.0589  0.1840
 3877TIP3    H133266   6.128   4.904   1.159 -0.3874  0.4169  0.3403
 3877TIP3    H233267   6.225   4.865   1.270  0.3522  0.4437 -0.2862
 3878TIP3   OH233268   4.061   6.349   8.127  0.8297  0.0491 -0.1570
 3878TIP3    H133269   4.114   6.329   8.050  1.4470 -0.6045  0.4246
 3878TIP3    H233270   3.999   6.415   8.097  1.6351  0.4438 -0.9906
 3879TIP3   OH233271   2.947   4.862   0.650  0.1411 -0.3729  0.2687
 3879TIP3    H133272   3.015   4.803   0.619 -0.0045 -0.0445 -0.7155
 3879TIP3    H233273   2.972   4.948   0.614 -1.4162 -0.4628 -1.1454
 3880TIP3   OH233274   2.078   0.054   2.237  0.3284  0.1283 -0.5579
 3880TIP3    H133275   2.064   0.027   2.146  1.6610 -1.2473 -0.3969
 3880TIP3    H233276   2.169   0.032   2.255 -0.3503 -1.2030  1.6292
 3881TIP3   OH233277   2.104   0.581   1.773 -0.1857 -0.2598 -0.2227
 3881TIP3    H133278   2.177   0.572   1.712 -1.4402  0.4977 -1.9066
 3881TIP3    H233279   2.141   0.630   1.847  1.2557 -0.7832 -0.5578
 3882TIP3   OH233280   4.644   2.641   7.935 -0.6076 -0.1923 -0.2050
 3882TIP3    H133281   4.660   2.719   7.882  1.6471 -0.7565 -0.4435
 3882TIP3    H233282   4.730   2.600   7.944 -1.5271 -1.9765  0.9869
 3883TIP3   OH233283   6.732   2.169   8.143 -0.4885 -0.9365  0.4480
 3883TIP3    H133284   6.709   2.257   8.114 -0.4820 -1.0682  0.0347
 3883TIP3    H233285   6.826   2.174   8.160  0.0855 -1.5316 -2.1532
 3884TIP3   OH233286   0.251   6.148   1.421 -0.2611 -0.0828  0.7520
 3884TIP3    H133287   0.196   6.074   1.447 -0.0507 -1.1345 -1.5677
 3884TIP3    H233288   0.199   6.195   1.357  0.5581  0.3803  0.4132
 3885TIP3   OH233289   2.103   2.507   1.843  0.0279  0.0127  0.2639
 3885TIP3    H133290   2.058   2.582   1.805 -0.2174 -0.1621  0.2042
 3885TIP3    H233291   2.032   2.447   1.868  0.2229 -0.2077  0.2899
 3886TIP3   OH233292   6.309   4.807   0.706 -0.3690  0.0053  0.1796
 3886TIP3    H133293   6.250   4.800   0.631 -2.6924  1.1313  1.7804
 3886TIP3    H233294   6.311   4.719   0.744  1.0827 -0.6596 -1.2625
 3887TIP3   OH233295   2.996   3.065   1.418  0.5453  0.3731  0.1966
 3887TIP3    H133296   2.953   2.999   1.364  1.2073 -0.5466  0.7578
 3887TIP3    H233297   2.981   3.035   1.508  1.4634  0.5899  0.4329
 3888TIP3   OH233298   6.144   2.817   1.316  0.7047 -0.2698 -0.1691
 3888TIP3    H133299   6.056   2.803   1.351  1.1153 -1.2942  0.5028
 3888TIP3    H233300   6.192   2.738   1.340  1.5309 -0.1793 -1.4410
 3889TIP3   OH233301   2.659   1.094   0.210 -0.2386  0.1888 -0.1688
 3889TIP3    H133302   2.649   1.156   0.282  1.2946 -0.6937  0.8773
 3889TIP3    H233303   2.670   1.009   0.253  0.4021 -0.4122 -1.4587
 3890TIP3   OH233304   3.618   0.392   8.492 -0.0449 -0.1488 -0.5599
 3890TIP3    H133305   3.563   0.471   8.487 -1.5437 -1.1622 -0.6155
 3890TIP3    H233306   3.614   0.367   8.585 -1.0260 -1.1196 -0.8425
 3891TIP3   OH233307   6.084   2.592   7.467  0.4488 -0.1475  0.2617
 3891TIP3    H133308   6.013   2.593   7.531  0.5496  0.6122  0.3672
 3891TIP3    H233309   6.041   2.587   7.382  0.2341  1.1053  0.2853
 3892TIP3   OH233310   4.535   6.312   8.035 -0.0107  0.2513 -0.2823
 3892TIP3    H133311   4.562   6.344   7.949 -0.9676  0.8558 -0.3693
 3892TIP3    H233312   4.566   6.379   8.097  0.2985  0.0315 -0.1980
 3893TIP3   OH233313   4.051   0.578   8.143  0.2556 -0.6603  0.3299
 3893TIP3    H133314   4.110   0.642   8.103  1.0358 -2.2566 -1.2172
 3893TIP3    H233315   4.098   0.547   8.221 -0.2212  0.7420  1.2129
 3894TIP3   OH233316   0.804   6.657   1.721 -0.0608 -0.6610 -0.2513
 3894TIP3    H133317   0.749   6.584   1.692  0.2870 -0.6588 -0.9420
 3894TIP3    H233318   0.742   6.724   1.750 -0.4271 -0.7475 -0.8091
 3895TIP3   OH233319   1.924   1.728   7.921 -0.3896  0.5108 -0.3505
 3895TIP3    H133320   2.002   1.750   7.974 -0.4126 -1.9126  0.8382
 3895TIP3    H233321   1.852   1.773   7.966 -0.3474 -1.1854  1.5836
 3896TIP3   OH233322   5.214   2.987   2.294  0.5838  0.3624  0.3149
 3896TIP3    H133323   5.168   3.053   2.345  0.3461  0.0106  0.5662
 3896TIP3    H233324   5.207   3.018   2.203 -1.4396 -0.3828  0.1442
 3897TIP3   OH233325   4.840   1.435   7.697  0.4726 -0.5628 -0.1885
 3897TIP3    H133326   4.849   1.491   7.620  0.5528  0.3310  0.4602
 3897TIP3    H233327   4.749   1.406   7.694  0.3035 -0.0340 -0.2917
 3898TIP3   OH233328   5.328   4.783   1.349  0.4304  0.6181 -0.1289
 3898TIP3    H133329   5.258   4.772   1.285  1.5226 -1.7978 -1.0007
 3898TIP3    H233330   5.396   4.831   1.301  0.7882 -0.1850 -0.4369
 3899TIP3   OH233331   2.943   3.781   6.776 -0.3011  0.4421 -0.1284
 3899TIP3    H133332   2.928   3.850   6.711 -0.8554 -0.6026 -1.1556
 3899TIP3    H233333   2.897   3.705   6.741  1.1277 -0.7453  0.4636
 3900TIP3   OH233334   6.785   2.527   6.867 -0.5740  0.3141 -0.4674
 3900TIP3    H133335   6.804   2.488   6.952 -3.6615  2.2523  1.3408
 3900TIP3    H233336   6.852   2.593   6.855  0.7261 -0.9281 -0.2921
 3901TIP3   OH233337   6.288   6.589   0.134 -0.0114 -0.2760  0.1709
 3901TIP3    H133338   6.353   6.563   0.069 -1.0917 -0.8192 -0.7319
 3901TIP3    H233339   6.285   6.517   0.196  0.7498  0.0725  0.6222
 3902TIP3   OH233340   3.561   1.504   6.859 -0.0614 -0.1543  0.1342
 3902TIP3    H133341   3.655   1.505   6.840 -0.2537 -2.5507 -1.3421
 3902TIP3    H233342   3.548   1.427   6.914 -1.5965 -2.6617 -3.3138
 3903TIP3   OH233343   3.672   5.058   1.711 -0.3400 -0.5851  0.0873
 3903TIP3    H133344   3.737   5.121   1.681  0.3703 -1.3796 -0.0751
 3903TIP3    H233345   3.600   5.065   1.648 -0.8053  0.9152  0.7594
 3904TIP3   OH233346   3.124   2.487   2.300 -0.0471 -0.0356  0.3162
 3904TIP3    H133347   3.073   2.425   2.352  1.4464 -1.5168  0.0808
 3904TIP3    H233348   3.183   2.529   2.363 -0.8685  1.0014  0.4280
 3905TIP3   OH233349   5.615   6.268   0.641  0.5015 -0.1326 -0.0806
 3905TIP3    H133350   5.554   6.273   0.568  1.7705  1.5748 -1.1199
 3905TIP3    H233351   5.701   6.279   0.600  1.4630 -1.5148  1.4335
 3906TIP3   OH233352   4.080   4.172   7.398  0.0248 -0.0483 -0.4108
 3906TIP3    H133353   4.006   4.181   7.338 -1.5298 -0.2763  1.4112
 3906TIP3    H233354   4.084   4.078   7.417 -0.5470  0.1965  1.0610
 3907TIP3   OH233355   1.464   0.933   8.144  0.2181  0.4381 -0.5250
 3907TIP3    H133356   1.459   0.843   8.111 -2.0597 -0.3882  1.7541
 3907TIP3    H233357   1.547   0.937   8.192 -0.1964 -0.8365  0.3287
 3908TIP3   OH233358   0.985   4.465   8.503 -0.0633  0.5076 -0.1866
 3908TIP3    H133359   0.939   4.476   8.420  0.3458  1.2704 -0.3196
 3908TIP3    H233360   0.936   4.396   8.548  0.3083 -0.6595 -1.4842
 3909TIP3   OH233361   3.646   6.013   1.640 -0.2953 -0.1083  0.0355
 3909TIP3    H133362   3.729   6.030   1.683 -0.8832  0.7709  0.8606
 3909TIP3    H233363   3.583   6.001   1.711 -0.7779 -1.3742 -0.5619
 3910TIP3   OH233364   1.985   6.470   8.046  0.2159 -0.1791  0.2734
 3910TIP3    H133365   2.063   6.507   8.004  1.6971 -1.7878  1.4383
 3910TIP3    H233366   2.011   6.455   8.137 -1.3832 -0.9818  0.6480
 3911TIP3   OH233367   5.470   0.389   7.727  0.0212  0.0213  0.2266
 3911TIP3    H133368   5.446   0.453   7.795  1.3577  1.2663 -0.4213
 3911TIP3    H233369   5.418   0.416   7.651  0.6358  0.4024 -0.0666
 3912TIP3   OH233370   4.275   4.988   1.419  0.0690 -0.1437  0.0886
 3912TIP3    H133371   4.210   4.934   1.374 -0.9849  2.1604 -1.3397
 3912TIP3    H233372   4.234   5.010   1.503 -0.4763  0.2746 -0.2825
 3913TIP3   OH233373   5.479   6.698   6.719 -0.2568  0.6136 -0.1350
 3913TIP3    H133374   5.551   6.648   6.759 -0.9243  1.1741  1.9286
 3913TIP3    H233375   5.506   6.712   6.629  1.4518 -0.6194  0.1364
 3914TIP3   OH233376   6.145   4.475   6.729  0.6976 -0.6733 -0.4394
 3914TIP3    H133377   6.117   4.405   6.670 -0.2553  0.7696 -1.7446
 3914TIP3    H233378   6.161   4.550   6.672 -0.2858  0.7864  1.1313
 3915TIP3   OH233379   4.766   5.639   6.995 -0.0540  0.0552 -0.1365
 3915TIP3    H133380   4.851   5.680   7.014 -0.9043  2.2159 -0.6992
 3915TIP3    H233381   4.789   5.557   6.952  1.7952  1.0412 -1.1985
 3916TIP3   OH233382   4.571   1.000   0.413  0.4806 -0.0355 -0.2255
 3916TIP3    H133383   4.638   1.062   0.442 -0.1232  1.1601 -1.3051
 3916TIP3    H233384   4.508   0.997   0.485  0.1441  1.1837 -0.4495
 3917TIP3   OH233385   3.885   1.241   6.681  0.0729 -0.9952 -0.1356
 3917TIP3    H133386   3.962   1.201   6.720 -1.0421 -0.6347  2.7117
 3917TIP3    H233387   3.822   1.169   6.672 -0.2388 -0.7837  0.3134
 3918TIP3   OH233388   5.673   5.304   7.416 -0.3758  0.3535 -0.0840
 3918TIP3    H133389   5.689   5.222   7.370  1.1399  2.2757 -3.4092
 3918TIP3    H233390   5.578   5.315   7.414 -0.6822 -1.6265  1.1885
 3919TIP3   OH233391   2.783   4.762   7.780 -0.0103 -0.4687  0.2638
 3919TIP3    H133392   2.755   4.851   7.760 -0.6125 -0.8601 -0.7290
 3919TIP3    H233393   2.745   4.708   7.710 -1.9613 -1.9155  2.3114
 3920TIP3   OH233394   1.268   0.134   0.292 -0.0080  0.2426  0.3098
 3920TIP3    H133395   1.242   0.048   0.325 -0.1025 -0.1716 -0.8022
 3920TIP3    H233396   1.225   0.196   0.351  0.2831 -0.4575  1.2955
 3921TIP3   OH233397   6.454   6.147   1.808 -0.4833  0.0813 -0.0781
 3921TIP3    H133398   6.364   6.115   1.803 -0.4288 -0.6847  2.4864
 3921TIP3    H233399   6.504   6.085   1.755 -1.5605  1.2942 -2.6830
 3922TIP3   OH233400   6.137   0.112   6.731  0.2901 -0.1137  0.2427
 3922TIP3    H133401   6.048   0.149   6.734  1.2276  2.3002  1.7228
 3922TIP3    H233402   6.150   0.089   6.639 -1.5775  0.2185 -0.1603
 3923TIP3   OH233403   6.395   2.117   6.550  0.6673  0.0079  0.4216
 3923TIP3    H133404   6.420   2.097   6.460  0.3189 -0.3283  0.3945
 3923TIP3    H233405   6.350   2.038   6.581 -0.6358  0.6843  0.3530
 3924TIP3   OH233406   3.119   3.716   8.434 -0.0448 -0.6262  0.2516
 3924TIP3    H133407   3.166   3.798   8.451 -0.7150 -0.3260  0.7203
 3924TIP3    H233408   3.064   3.736   8.358 -0.7898 -0.3811  0.8391
 3925TIP3   OH233409   1.610   2.297   7.803 -1.0125 -0.0642  0.6017
 3925TIP3    H133410   1.553   2.327   7.733 -1.3750 -0.0665  0.8918
 3925TIP3    H233411   1.627   2.205   7.783 -0.2246  0.2146 -0.0727
 3926TIP3   OH233412   3.333   3.421   7.281  0.8181  0.4114  0.2918
 3926TIP3    H133413   3.328   3.366   7.203 -1.7895 -3.0519  2.6087
 3926TIP3    H233414   3.275   3.495   7.261  1.4364  0.4595 -1.5605
 3927TIP3   OH233415   6.234   1.225   0.367  0.1565 -0.0094  0.0890
 3927TIP3    H133416   6.321   1.187   0.377  0.3665 -0.1263 -1.7273
 3927TIP3    H233417   6.189   1.206   0.449  1.8347  0.0585  1.0507
 3928TIP3   OH233418   5.078   1.879   0.726 -0.6356  0.2699 -0.0959
 3928TIP3    H133419   5.011   1.926   0.676 -1.9224 -0.7852  0.5494
 3928TIP3    H233420   5.135   1.947   0.761 -2.5167  1.4078  0.9170
 3929TIP3   OH233421   5.966   0.671   6.576  1.0684 -0.0341 -0.3991
 3929TIP3    H133422   5.898   0.714   6.523  1.9220  1.4644 -0.3518
 3929TIP3    H233423   5.923   0.652   6.659  0.9121  1.7634 -0.0220
 3930TIP3   OH233424   6.514   1.210   7.049  0.3266 -0.8099 -0.1399
 3930TIP3    H133425   6.423   1.238   7.060  0.1784 -1.3332  0.0333
 3930TIP3    H233426   6.508   1.134   6.991  0.8812  0.5392 -2.0387
 3931TIP3   OH233427   2.835   2.593   0.996 -0.3198 -0.3092 -0.3998
 3931TIP3    H133428   2.869   2.638   0.919 -0.0651 -0.4469 -0.3682
 3931TIP3    H233429   2.743   2.620   1.000 -0.4033 -0.5047 -0.8983
 3932TIP3   OH233430   6.865   0.396   6.665 -0.2513  0.0316  0.4629
 3932TIP3    H133431   6.915   0.327   6.708 -0.2977  0.6004  1.4630
 3932TIP3    H233432   6.931   0.445   6.615 -0.2352 -0.7804 -0.3363
 3933TIP3   OH233433   4.646   1.294   8.055  0.4819  0.5852  0.7139
 3933TIP3    H133434   4.615   1.236   8.124 -0.7238  2.1715  1.5830
 3933TIP3    H233435   4.566   1.325   8.012  1.2132 -0.8543 -1.8872
 3934TIP3   OH233436   0.559   3.192   7.240  0.4197 -0.2508  0.0853
 3934TIP3    H133437   0.615   3.192   7.162  0.1741 -0.3349 -0.0935
 3934TIP3    H233438   0.525   3.281   7.246  1.4807  0.1137  0.8585
 3935TIP3   OH233439   6.647   5.674   7.762  0.0082 -0.1623  0.4352
 3935TIP3    H133440   6.714   5.721   7.713 -0.5011 -1.2060 -1.3891
 3935TIP3    H233441   6.691   5.597   7.796  0.4417  0.7316  1.9567
 3936TIP3   OH233442   1.406   1.833   0.073 -0.4310  0.0668 -0.1024
 3936TIP3    H133443   1.338   1.823   0.139 -0.8955  1.2770 -0.3741
 3936TIP3    H233444   1.379   1.910   0.022  1.1266  0.5773 -0.2059
 3937TIP3   OH233445   5.967   4.678   1.413  0.1137  0.3952  0.3061
 3937TIP3    H133446   6.048   4.702   1.369 -0.6279 -0.4185 -1.6196
 3937TIP3    H233447   5.933   4.760   1.448  2.0056  0.6636  1.6438
 3938TIP3   OH233448   0.321   5.650   8.548 -0.5954 -0.1655  0.2370
 3938TIP3    H133449   0.390   5.715   8.554  1.1006 -1.7201 -1.1016
 3938TIP3    H233450   0.247   5.697   8.509  0.4079  1.0725 -0.2472
 3939TIP3   OH233451   6.179   6.811   0.524  0.2229 -0.3936 -0.0426
 3939TIP3    H133452   6.147   6.860   0.599  0.3157 -0.6584  0.1713
 3939TIP3    H233453   6.231   6.874   0.474  0.5307 -0.3380  0.3493
 3940TIP3   OH233454   6.490   3.404   0.556  0.4084  0.1113 -0.1064
 3940TIP3    H133455   6.429   3.332   0.571  1.5363 -0.4324  2.5687
 3940TIP3    H233456   6.443   3.482   0.587 -0.3484  0.3666 -1.8223
 3941TIP3   OH233457   3.769   0.843   8.052 -0.8143 -0.3766 -0.1135
 3941TIP3    H133458   3.745   0.784   7.981 -0.7469  1.4028 -1.6868
 3941TIP3    H233459   3.843   0.893   8.018  0.3422 -0.6198  1.8787
 3942TIP3   OH233460   2.487   0.696   0.503  0.1824  0.0158  0.4728
 3942TIP3    H133461   2.408   0.747   0.482 -0.0721 -0.0539  1.2469
 3942TIP3    H233462   2.461   0.642   0.577  1.2208  0.6207  1.2932
 3943TIP3   OH233463   2.295   5.310   8.118 -0.1276 -0.0951  0.5559
 3943TIP3    H133464   2.259   5.399   8.128 -0.2186 -0.2290  1.4814
 3943TIP3    H233465   2.228   5.263   8.068 -1.3218 -0.3644  2.3217
 3944TIP3   OH233466   1.580   4.985   1.468  0.3575  0.2384 -0.1114
 3944TIP3    H133467   1.667   5.024   1.479  0.5909 -0.3889  0.3350
 3944TIP3    H233468   1.522   5.040   1.523  0.4785  0.6069 -0.3467
 3945TIP3   OH233469   3.769   3.272   7.591 -0.3301  0.7805 -0.1955
 3945TIP3    H133470   3.698   3.276   7.528  0.1093  0.7888 -0.7035
 3945TIP3    H233471   3.821   3.351   7.573 -0.4324  1.0010  0.4603
 3946TIP3   OH233472   1.811   1.065   7.259  0.3370 -0.8168  0.3137
 3946TIP3    H133473   1.759   1.099   7.331  0.2191 -1.3598  0.4902
 3946TIP3    H233474   1.779   0.975   7.246  0.9813 -1.0350  0.1875
 3947TIP3   OH233475   4.833   5.862   2.009  1.0502 -0.3272  0.1628
 3947TIP3    H133476   4.864   5.952   2.010  2.3611 -0.7285 -1.0433
 3947TIP3    H233477   4.739   5.868   2.027  0.8518  1.3922 -1.2737
 3948TIP3   OH233478   6.780   6.273   6.541 -0.4635 -0.5491  0.0564
 3948TIP3    H133479   6.757   6.190   6.582 -0.8778 -0.8453 -0.7370
 3948TIP3    H233480   6.834   6.249   6.466  1.3429  0.0641  1.1144
 3949TIP3   OH233481   5.214   6.553   6.706 -0.0341  0.1289  0.3269
 3949TIP3    H133482   5.284   6.578   6.767  0.1546 -3.1991  1.6667
 3949TIP3    H233483   5.214   6.458   6.707 -3.0404 -0.0170 -1.5034
 3950TIP3   OH233484   4.918   5.202   7.433  0.5019 -0.1014  0.1561
 3950TIP3    H133485   4.912   5.180   7.526 -0.3808 -0.0844  0.1043
 3950TIP3    H233486   4.991   5.264   7.428 -0.1920  0.8122  1.0124
 3951TIP3   OH233487   0.130   1.037   0.225  0.2155 -0.2421  0.1788
 3951TIP3    H133488   0.066   1.097   0.186  0.8129 -0.3549 -1.0345
 3951TIP3    H233489   0.087   1.002   0.303 -1.5881 -1.0303 -1.1043
 3952TIP3   OH233490   6.309   0.567   1.666 -0.9469  0.5672 -0.2970
 3952TIP3    H133491   6.319   0.477   1.696  0.1731  1.0205  0.7416
 3952TIP3    H233492   6.306   0.560   1.570  3.1703 -0.2985 -0.5594
 3953TIP3   OH233493   2.967   0.830   2.040  0.2824  0.3132  0.0811
 3953TIP3    H133494   2.991   0.863   2.126 -1.2752  1.2628  0.2033
 3953TIP3    H233495   2.957   0.909   1.986  0.2502 -0.2017 -0.6896
 3954TIP3   OH233496   3.726   3.715   1.262 -0.0888 -0.9690  0.1046
 3954TIP3    H133497   3.782   3.777   1.309 -0.1812 -0.3355 -0.6081
 3954TIP3    H233498   3.746   3.630   1.302  1.4892 -0.7852 -0.2323
 3955TIP3   OH233499   1.667   2.511   6.593  0.0567 -0.4648  1.0089
 3955TIP3    H133500   1.624   2.453   6.655  0.2564 -0.7213  0.9121
 3955TIP3    H233501   1.737   2.553   6.643  0.1411 -0.5799  0.9869
 3956TIP3   OH233502   5.898   3.311   8.203  0.1721  0.2593  0.1844
 3956TIP3    H133503   5.988   3.342   8.200  0.5184 -0.7230 -2.5192
 3956TIP3    H233504   5.852   3.368   8.140  0.0728 -2.2416 -2.1873
 3957TIP3   OH233505   2.231   1.976   6.829 -0.3840  0.6131  0.0052
 3957TIP3    H133506   2.250   2.069   6.824  0.6751  0.4476  0.6362
 3957TIP3    H233507   2.265   1.949   6.914 -0.2807 -0.4329 -0.3504
 3958TIP3   OH233508   1.102   1.142   0.112  0.3962  0.2558 -0.7556
 3958TIP3    H133509   1.118   1.159   0.205  1.1267 -0.7442 -0.6799
 3958TIP3    H233510   1.157   1.205   0.066  2.3389 -1.1613 -0.4863
 3959TIP3   OH233511   2.763   6.531   8.509  0.2045  0.3751 -0.2627
 3959TIP3    H133512   2.765   6.591   8.583 -0.3904  0.3564 -0.2267
 3959TIP3    H233513   2.725   6.582   8.438 -1.8000 -0.4095  0.1992
 3960TIP3   OH233514   2.422   4.872   7.908 -0.3193  0.2464 -0.0614
 3960TIP3    H133515   2.406   4.930   7.982  1.3399  2.3679 -1.2327
 3960TIP3    H233516   2.412   4.929   7.831  4.0548 -0.1735 -1.2031
 3961TIP3   OH233517   3.648   1.226   1.375  0.2452 -0.1150  0.2285
 3961TIP3    H133518   3.599   1.290   1.323  2.6930  1.2643 -0.5567
 3961TIP3    H233519   3.622   1.244   1.465 -1.0402  0.1944 -0.1756
 3962TIP3   OH233520   2.425   4.353   0.708  0.3058 -0.5311 -0.2408
 3962TIP3    H133521   2.374   4.291   0.760  1.0958 -1.3399 -0.4135
 3962TIP3    H233522   2.408   4.438   0.749 -0.5735 -0.8899  0.1665
 3963TIP3   OH233523   5.347   1.909   8.299 -0.5471 -0.0697  0.1470
 3963TIP3    H133524   5.267   1.884   8.254 -0.1349 -0.4740 -0.3777
 3963TIP3    H233525   5.360   2.001   8.277 -1.1739  0.1563  0.7109
 3964TIP3   OH233526   4.515   1.232   2.335  0.0293  0.2188  0.2138
 3964TIP3    H133527   4.438   1.204   2.386 -0.7871  2.0188  0.0251
 3964TIP3    H233528   4.587   1.180   2.371 -1.5602 -3.2473 -1.1088
 3965TIP3   OH233529   4.891   6.556   1.588  0.3341 -0.0909  0.1020
 3965TIP3    H133530   4.851   6.562   1.502  0.2046  0.2276  0.1816
 3965TIP3    H233531   4.873   6.467   1.617  1.0871 -0.4652 -0.5430
 3966TIP3   OH233532   5.712   5.152   2.490 -0.3854  0.0547  0.0912
 3966TIP3    H133533   5.687   5.196   2.409  1.0468  0.2482 -0.2666
 3966TIP3    H233534   5.751   5.069   2.461 -2.8109 -1.4393  0.7381
 3967TIP3   OH233535   2.445   0.483   1.857  0.9815  0.1689 -0.0684
 3967TIP3    H133536   2.403   0.546   1.916  3.0452  1.2434  0.3360
 3967TIP3    H233537   2.412   0.506   1.770  1.7965  1.9692  0.0512
 3968TIP3   OH233538   2.497   3.489   7.877  0.5165  0.3231  0.0281
 3968TIP3    H133539   2.417   3.512   7.830  0.6897  3.1820  0.9222
 3968TIP3    H233540   2.514   3.398   7.854 -1.5079  0.4527 -2.3012
 3969TIP3   OH233541   0.388   3.647   6.304  0.1453 -0.4095 -0.2320
 3969TIP3    H133542   0.404   3.553   6.311  0.0130 -0.3218  1.6419
 3969TIP3    H233543   0.295   3.658   6.324  0.0925  0.1085 -0.7110
 3970TIP3   OH233544   6.279   2.257   6.742  0.0932  0.8396  0.2454
 3970TIP3    H133545   6.289   2.173   6.787  3.1920  0.7703 -0.3517
 3970TIP3    H233546   6.319   2.244   6.657 -0.8261  2.5093 -0.5071
 3971TIP3   OH233547   2.409   5.776   1.747 -0.1414 -0.2427  1.0404
 3971TIP3    H133548   2.322   5.741   1.727 -0.6533  2.2258 -1.7461
 3971TIP3    H233549   2.469   5.720   1.699 -0.6034  0.2944 -0.2120
 3972TIP3   OH233550   3.783   6.414   2.772 -0.7470  0.3548 -0.5770
 3972TIP3    H133551   3.762   6.497   2.728  1.5287  0.4905 -1.5885
 3972TIP3    H233552   3.855   6.378   2.720  0.2372 -0.8487  1.4921
 3973TIP3   OH233553   1.721   4.944   7.537 -0.0440 -0.1539  0.3430
 3973TIP3    H133554   1.708   4.884   7.464 -0.5773 -0.3945  0.6287
 3973TIP3    H233555   1.711   5.031   7.499  2.2360 -0.1487 -0.3898
 3974TIP3   OH233556   1.280   6.069   0.706  0.4763  0.0242  0.4855
 3974TIP3    H133557   1.306   6.123   0.780 -1.1738 -1.2298  2.0539
 3974TIP3    H233558   1.189   6.095   0.688  0.1284 -1.2195  0.3641
 3975TIP3   OH233559   5.793   0.593   0.698 -0.1694 -0.0003  0.2987
 3975TIP3    H133560   5.847   0.581   0.776 -0.9141  1.0068  0.9944
 3975TIP3    H233561   5.843   0.654   0.643 -0.2055  0.2599  0.5537
 3976TIP3   OH233562   4.995   3.866   1.325 -0.2569 -0.0392 -0.5857
 3976TIP3    H133563   5.022   3.889   1.414 -2.4100  0.6025 -0.0237
 3976TIP3    H233564   5.076   3.862   1.275  1.0473 -0.7499  1.4734
 3977TIP3   OH233565   2.889   1.193   0.120  0.3696  0.7801  0.3524
 3977TIP3    H133566   2.798   1.166   0.130  0.7312 -1.8502 -1.9539
 3977TIP3    H233567   2.896   1.223   0.029  2.0257 -0.4982 -0.0117
 3978TIP3   OH233568   2.237   4.778   7.534  0.3542 -0.7278  0.2368
 3978TIP3    H133569   2.222   4.719   7.609  0.5838  0.2729  1.0941
 3978TIP3    H233570   2.154   4.777   7.487 -0.7863  0.7626  2.0725
 3979TIP3   OH233571   5.965   0.038   6.966  0.2245 -0.4397 -0.2951
 3979TIP3    H133572   6.056   0.007   6.968  0.1402 -0.7035 -0.5204
 3979TIP3    H233573   5.913  -0.040   6.987  0.0723 -0.1970  0.2476
 3980TIP3   OH233574   0.709   5.183   7.289  0.2488 -0.4234 -0.0493
 3980TIP3    H133575   0.699   5.221   7.202 -1.1899 -3.5136 -1.3781
 3980TIP3    H233576   0.803   5.184   7.305  0.5436  0.1328 -1.6479
 3981TIP3   OH233577   3.749   2.734   1.298  0.5568 -0.5878 -0.1331
 3981TIP3    H133578   3.713   2.646   1.288 -0.7149 -0.0502 -0.5184
 3981TIP3    H233579   3.773   2.740   1.390 -1.1544 -0.7094  0.3569
 3982TIP3   OH233580   3.448   6.231   1.582  0.2469 -0.0501 -0.2079
 3982TIP3    H133581   3.474   6.198   1.668 -1.0933  0.1587  0.2894
 3982TIP3    H233582   3.399   6.159   1.542  0.0156  0.2102 -0.3955
 3983TIP3   OH233583   1.581   2.992   7.529 -0.3673  0.0089 -0.9976
 3983TIP3    H133584   1.623   3.052   7.591 -1.2039  0.6172 -1.0058
 3983TIP3    H233585   1.494   2.976   7.565 -0.7724  0.1614 -1.8684
 3984TIP3   OH233586   1.993   2.704   7.165 -0.1086  0.0500 -0.6338
 3984TIP3    H133587   2.043   2.781   7.193 -1.5339  0.7688  0.0712
 3984TIP3    H233588   1.983   2.715   7.071 -1.7366  1.6661 -0.3210
 3985TIP3   OH233589   6.124   2.480   8.221 -0.0134  0.2247  0.2561
 3985TIP3    H133590   6.041   2.433   8.231  0.1250  0.0942  0.8701
 3985TIP3    H233591   6.190   2.412   8.231  0.1702  0.1571 -1.2051
 3986TIP3   OH233592   5.309   2.826   7.199 -0.0861  0.1316  0.1595
 3986TIP3    H133593   5.356   2.867   7.127 -0.6633  0.7494  0.1297
 3986TIP3    H233594   5.350   2.863   7.278 -0.2946  0.4198  0.1354
 3987TIP3   OH233595   5.819   2.875   2.060 -0.2558 -0.4085  0.2031
 3987TIP3    H133596   5.782   2.788   2.070 -2.5428  0.4574  0.0349
 3987TIP3    H233597   5.906   2.870   2.099 -0.8668 -2.4001  1.4240
 3988TIP3   OH233598   0.353   6.471   7.201 -0.2801 -0.8720  0.1813
 3988TIP3    H133599   0.385   6.397   7.150  0.9584 -0.1334 -0.1650
 3988TIP3    H233600   0.366   6.444   7.292  0.2597 -1.0424  0.0555
 3989TIP3   OH233601   0.037   5.127   2.191 -0.1842  0.1147 -0.8784
 3989TIP3    H133602  -0.035   5.165   2.140  0.1037  0.8887 -0.7307
 3989TIP3    H233603   0.029   5.168   2.277 -1.1496 -1.7698 -0.0037
 3990TIP3   OH233604   2.626   4.404   7.320  0.2767 -0.0266 -0.3539
 3990TIP3    H133605   2.622   4.344   7.395  1.2724 -0.7739 -0.8843
 3990TIP3    H233606   2.640   4.490   7.360 -1.9516  0.0208  0.4614
 3991TIP3   OH233607   4.798   1.648   7.418 -0.1728 -0.0821  0.3196
 3991TIP3    H133608   4.856   1.723   7.434 -0.4821 -0.0105  1.1449
 3991TIP3    H233609   4.731   1.654   7.486  1.3446 -2.6509  2.2570
 3992TIP3   OH233610   6.049   1.812   1.841  0.3475  0.4441 -0.4787
 3992TIP3    H133611   6.024   1.724   1.869 -0.7082  0.6022 -0.8728
 3992TIP3    H233612   6.079   1.856   1.920  1.4622 -0.4542 -0.3810
 3993TIP3   OH233613   2.936   0.020   1.463 -0.2767  0.4379 -0.9652
 3993TIP3    H133614   2.963   0.039   1.553 -0.6792 -0.0180 -0.7389
 3993TIP3    H233615   2.927  -0.076   1.462 -1.0846  0.5178 -1.2592
 3994TIP3   OH233616   5.871   6.706   7.045 -0.3354 -0.1354  0.3598
 3994TIP3    H133617   5.875   6.611   7.034  1.3659 -0.1195  0.5498
 3994TIP3    H233618   5.870   6.720   7.139  1.0994  0.0407  0.3726
 3995TIP3   OH233619   4.736   3.221   1.141 -0.2843 -0.2765 -0.2411
 3995TIP3    H133620   4.702   3.236   1.229  2.3253 -0.8004  0.9553
 3995TIP3    H233621   4.807   3.157   1.153  0.6669  0.2155 -2.5987
 3996TIP3   OH233622   0.946   0.673   6.905  0.1230  0.4848 -0.1080
 3996TIP3    H133623   0.907   0.722   6.833  1.0039  0.9824 -0.2604
 3996TIP3    H233624   0.966   0.587   6.868  0.0238  0.5403 -0.2912
 3997TIP3   OH233625   2.615   2.090   6.871  0.1017  0.1143  0.0557
 3997TIP3    H133626   2.551   2.070   6.940  0.3446 -0.6670  0.0662
 3997TIP3    H233627   2.692   2.121   6.918  0.1570 -0.1162  0.1184
 3998TIP3   OH233628   6.601   5.199   1.213  0.4436 -0.5124 -0.2910
 3998TIP3    H133629   6.511   5.223   1.237  0.5074 -1.6022  1.1797
 3998TIP3    H233630   6.605   5.210   1.118 -0.6162  1.5685 -0.1399
 3999TIP3   OH233631   0.682   1.492   2.527  0.0769 -0.4304  0.3583
 3999TIP3    H133632   0.752   1.444   2.572  1.2705 -0.8921 -1.8405
 3999TIP3    H233633   0.650   1.554   2.593  2.4588 -0.2910  1.5123
 4000TIP3   OH233634   6.067   0.336   1.035 -0.1251 -0.1243  0.0429
 4000TIP3    H133635   5.986   0.323   0.985 -0.4927 -1.1001  0.8343
 4000TIP3    H233636   6.038   0.335   1.126  0.7812 -0.4754  0.3355
 4001TIP3   OH233637   2.733   5.960   1.612 -0.5212  0.1279  0.4886
 4001TIP3    H133638   2.789   6.033   1.587 -1.1777  0.8242  1.0048
 4001TIP3    H233639   2.793   5.887   1.628  0.0468  0.1143 -1.4497
 4002TIP3   OH233640   3.846   4.479   7.912 -0.5575 -0.7035 -0.1836
 4002TIP3    H133641   3.940   4.467   7.923 -0.1202  0.8364 -1.7347
 4002TIP3    H233642   3.809   4.467   7.999  1.3050  0.5311  0.8293
 4003TIP3   OH233643   0.741   1.445   1.575 -0.3456  0.6657 -0.1017
 4003TIP3    H133644   0.779   1.377   1.632 -0.5672 -0.4920 -1.2906
 4003TIP3    H233645   0.707   1.511   1.636  1.0191  0.3505  1.0595
 4004TIP3   OH233646   1.313   6.246   0.964 -0.8247  0.1235  0.7662
 4004TIP3    H133647   1.245   6.257   1.030 -1.2859 -0.3960  0.3897
 4004TIP3    H233648   1.363   6.171   0.993  0.5140  1.3646  1.8065
 4005TIP3   OH233649   0.205   6.569   1.938  0.7046 -0.0912 -0.0734
 4005TIP3    H133650   0.225   6.543   1.848  0.8492 -0.6328  0.1131
 4005TIP3    H233651   0.258   6.648   1.952  0.4753  0.1506 -0.5481
 4006TIP3   OH233652   0.662   3.328   7.707  0.0192  0.5530 -0.3730
 4006TIP3    H133653   0.595   3.332   7.774  0.5930  0.5328  0.2156
 4006TIP3    H233654   0.745   3.327   7.756  0.4312  0.0017 -1.0534
 4007TIP3   OH233655   0.386   0.750   1.796  0.8003  0.2166  0.4942
 4007TIP3    H133656   0.362   0.665   1.758 -0.2972  1.0250 -0.7289
 4007TIP3    H233657   0.373   0.739   1.890  0.5246 -0.9221  0.3435
 4008TIP3   OH233658   6.176   1.465   0.144  0.5332  0.4471 -0.4365
 4008TIP3    H133659   6.239   1.510   0.201  0.9591 -0.9946  0.2999
 4008TIP3    H233660   6.163   1.380   0.186 -0.6282  0.0688 -1.4954
 4009TIP3   OH233661   1.177   3.339   0.524 -0.3528 -0.0806  0.0262
 4009TIP3    H133662   1.201   3.385   0.605  1.2592 -0.7847 -0.0188
 4009TIP3    H233663   1.153   3.250   0.553 -0.7734 -0.0369 -0.1737
 4010TIP3   OH233664   5.435   6.324   8.360 -0.0133  0.0465 -0.2770
 4010TIP3    H133665   5.470   6.267   8.292  0.9284 -1.1272  1.1137
 4010TIP3    H233666   5.395   6.263   8.423 -0.3798  1.0411  0.4761
 4011TIP3   OH233667   0.819   5.584   0.371  0.0223 -0.4070 -0.8165
 4011TIP3    H133668   0.788   5.544   0.452  1.2349 -0.3603 -0.3058
 4011TIP3    H233669   0.739   5.607   0.323 -1.0136  3.5111  2.2425
 4012TIP3   OH233670   5.847   3.619   1.147 -0.2355 -0.2140  0.2841
 4012TIP3    H133671   5.831   3.662   1.063  1.5316 -0.7980 -0.4137
 4012TIP3    H233672   5.793   3.540   1.144 -1.1570  0.4019  0.2638
 4013TIP3   OH233673   6.514   5.750   6.480  0.3496 -0.3518 -0.2058
 4013TIP3    H133674   6.543   5.661   6.460 -0.4981 -0.5579 -0.5490
 4013TIP3    H233675   6.540   5.802   6.404  2.4798  0.0956  0.7519
 4014TIP3   OH233676   6.242   3.176   7.177 -0.4403  0.2723 -0.0740
 4014TIP3    H133677   6.169   3.145   7.231  1.4966 -0.6608  2.1753
 4014TIP3    H233678   6.276   3.096   7.135  0.7296  0.2819  0.8077
 4015TIP3   OH233679   2.606   5.627   1.619  0.4861 -0.1175 -0.4280
 4015TIP3    H133680   2.578   5.695   1.557  1.4717  1.9368  1.2561
 4015TIP3    H233681   2.666   5.572   1.569  1.0116  1.2859 -1.4110
 4016TIP3   OH233682   0.897   5.902   0.665  0.2584  0.0606 -0.0631
 4016TIP3    H133683   0.945   5.843   0.607  1.1715  1.6933 -1.0458
 4016TIP3    H233684   0.813   5.858   0.680  0.2070 -0.6751 -2.1854
 4017TIP3   OH233685   4.859   4.456   7.232  0.5980  0.1448 -0.2086
 4017TIP3    H133686   4.810   4.435   7.153  0.8148  0.2355 -0.3691
 4017TIP3    H233687   4.795   4.496   7.291  0.3040 -0.4614 -0.1103
 4018TIP3   OH233688   6.688   2.437   8.088 -0.1218  0.4577 -0.1172
 4018TIP3    H133689   6.725   2.488   8.159 -0.0512 -1.0797  1.0055
 4018TIP3    H233690   6.594   2.455   8.091 -0.0739  0.6686  0.1224
 4019TIP3   OH233691   3.589   1.702   8.506  0.4663  0.2630  0.8176
 4019TIP3    H133692   3.586   1.652   8.588 -0.5482 -0.6162  0.2767
 4019TIP3    H233693   3.674   1.683   8.469  1.3009  1.3619  2.0582
 4020TIP3   OH233694   0.169   4.878   7.042 -0.0020 -0.5961  0.1829
 4020TIP3    H133695   0.122   4.962   7.042  0.4823 -0.3202 -0.0419
 4020TIP3    H233696   0.108   4.816   7.082 -0.8233 -0.3883 -0.7079
 4021TIP3   OH233697   0.060   5.440   1.683 -0.2947 -0.1348 -0.0412
 4021TIP3    H133698   0.002   5.388   1.739 -0.7954  0.1749 -0.2628
 4021TIP3    H233699   0.138   5.386   1.672  1.1465  0.9425  3.3973
 4022TIP3   OH233700   6.298   4.335   7.980  0.1532 -0.4137 -0.1234
 4022TIP3    H133701   6.368   4.399   7.967 -0.7844  1.1547  1.9877
 4022TIP3    H233702   6.280   4.336   8.074 -2.7256 -0.6650 -0.5648
 4023TIP3   OH233703   1.822   1.212   1.672  0.0959 -0.4087 -0.3705
 4023TIP3    H133704   1.905   1.194   1.716 -0.2502  0.1628  0.5575
 4023TIP3    H233705   1.846   1.233   1.582  1.0009  0.1071 -0.0228
 4024TIP3   OH233706   5.066   1.057   2.054  0.0900  0.2003 -0.3535
 4024TIP3    H133707   4.983   1.009   2.053  1.1795 -1.8576 -1.7738
 4024TIP3    H233708   5.096   1.052   2.145 -0.8922  0.1584 -0.0224
 4025TIP3   OH233709   5.435   1.554   6.471  0.2142 -0.0325  0.8384
 4025TIP3    H133710   5.520   1.517   6.495  0.0071 -0.8484  0.3455
 4025TIP3    H233711   5.390   1.484   6.425  0.4372  1.3482 -1.6327
 4026TIP3   OH233712   6.756   4.646   2.548  0.1683 -0.8297 -0.3892
 4026TIP3    H133713   6.768   4.728   2.500  0.4397 -0.3351  0.5123
 4026TIP3    H233714   6.831   4.592   2.523 -1.2120 -1.7726 -2.8608
 4027TIP3   OH233715   0.985   1.048   6.567  0.1496 -0.5466 -0.0376
 4027TIP3    H133716   0.986   1.118   6.632 -2.8618  1.5833 -2.0369
 4027TIP3    H233717   1.041   1.079   6.497  1.3032 -1.6490  0.3572
 4028TIP3   OH233718   2.216   5.207   7.016  0.0706  0.4141  0.4205
 4028TIP3    H133719   2.290   5.196   7.075  0.2819 -2.8526 -0.2583
 4028TIP3    H233720   2.255   5.204   6.928 -0.7040  0.3509  0.0726
 4029TIP3   OH233721   3.335   3.901   7.528 -0.4231  0.9015 -0.3626
 4029TIP3    H133722   3.285   3.980   7.548 -0.0166  1.0382  0.1125
 4029TIP3    H233723   3.277   3.829   7.553 -0.3050  1.0614  0.3761
 4030TIP3   OH233724   5.027   4.140   0.606  0.2195 -0.5275 -0.0659
 4030TIP3    H133725   5.077   4.214   0.641 -1.7239 -0.0154  1.8958
 4030TIP3    H233726   5.080   4.064   0.627  1.1001  0.1188  0.1454
 4031TIP3   OH233727   4.909   0.827   2.067  0.6494 -0.1257 -0.0843
 4031TIP3    H133728   4.913   0.835   2.162  1.0942  0.5441 -0.1579
 4031TIP3    H233729   4.902   0.733   2.051 -0.8831 -0.1702  0.6587
 4032TIP3   OH233730   0.815   5.252   0.783  0.2204 -0.0029 -0.6484
 4032TIP3    H133731   0.876   5.185   0.813  0.1126  0.0626 -0.2799
 4032TIP3    H233732   0.826   5.254   0.688 -0.1797 -0.9319 -0.7217
 4033TIP3   OH233733   3.325   4.671   8.149 -0.2348  0.2850  0.0206
 4033TIP3    H133734   3.261   4.640   8.085 -0.7599 -0.8810  1.0679
 4033TIP3    H233735   3.410   4.644   8.113 -0.4833  0.0825 -0.4171
 4034TIP3   OH233736   3.647   2.827   0.443  0.5728 -0.7327 -0.4141
 4034TIP3    H133737   3.552   2.821   0.442  0.4138  1.0847 -0.4607
 4034TIP3    H233738   3.674   2.782   0.523 -0.5877  1.0719  1.0865
 4035TIP3   OH233739   1.025   2.670   1.608  0.6437  0.3597 -0.0334
 4035TIP3    H133740   1.048   2.713   1.690  0.0478  0.6196  0.0011
 4035TIP3    H233741   1.104   2.676   1.554  0.3161  2.2594 -0.3592
 4036TIP3   OH233742   0.349   2.942   6.777 -0.2852 -0.4727 -0.4249
 4036TIP3    H133743   0.417   3.005   6.802 -0.6686  0.1572 -0.9185
 4036TIP3    H233744   0.377   2.910   6.691 -0.9227  0.2841 -0.9358
 4037TIP3   OH233745   6.089   5.204   1.686  0.1704  0.2481 -0.1402
 4037TIP3    H133746   6.179   5.183   1.709  0.2348 -0.0915 -0.6902
 4037TIP3    H233747   6.097   5.267   1.615 -0.0109 -1.0183 -1.3132
 4038TIP3   OH233748   6.057   3.092   0.644  0.4038  0.4192  0.4771
 4038TIP3    H133749   6.144   3.130   0.633  0.0941  1.0126  0.0898
 4038TIP3    H233750   6.003   3.163   0.679 -0.7171  1.0237 -2.2270
 4039TIP3   OH233751   3.588   2.518   0.435  0.2958  0.0138 -0.0267
 4039TIP3    H133752   3.573   2.603   0.394  0.3717  0.6665  1.2442
 4039TIP3    H233753   3.502   2.477   0.438  0.0307  0.5902  0.4988
 4040TIP3   OH233754   1.736   1.403   7.138  0.6524  0.2592 -0.3555
 4040TIP3    H133755   1.823   1.363   7.142  1.0683  1.1286 -0.4416
 4040TIP3    H233756   1.712   1.416   7.230 -0.3762 -1.9873 -0.2245
 4041TIP3   OH233757   3.579   5.399   1.210 -0.8703 -0.5448  0.7640
 4041TIP3    H133758   3.558   5.449   1.131 -0.8221 -2.3606 -0.4804
 4041TIP3    H233759   3.662   5.356   1.189 -1.1589 -1.5377  1.5488
 4042TIP3   OH233760   4.976   5.005   0.471 -0.1696 -0.0507  0.1495
 4042TIP3    H133761   5.041   4.966   0.412  0.3008 -0.1373  0.7095
 4042TIP3    H233762   4.894   4.963   0.447 -1.0954  3.3861 -3.8489
 4043TIP3   OH233763   6.596   5.506   6.398  0.4006  0.0749  0.0014
 4043TIP3    H133764   6.621   5.441   6.464  1.6936 -0.7359 -1.2281
 4043TIP3    H233765   6.545   5.456   6.334  0.6623  0.4554 -0.5079
 4044TIP3   OH233766   6.757   0.376   1.914 -0.0035 -0.4641  0.2511
 4044TIP3    H133767   6.801   0.405   1.834 -0.9278 -1.2700 -0.5720
 4044TIP3    H233768   6.795   0.290   1.933  0.7090  0.0178  1.0887
 4045TIP3   OH233769   0.297   1.719   7.752 -0.2819  0.1416 -0.3051
 4045TIP3    H133770   0.252   1.777   7.691 -1.1233 -1.0970 -0.9281
 4045TIP3    H233771   0.388   1.720   7.724 -0.0023  2.1736  0.5499
 4046TIP3   OH233772   3.154   0.442   7.756 -0.4119  0.8715 -0.3763
 4046TIP3    H133773   3.097   0.517   7.772 -1.2802  0.1222  0.2395
 4046TIP3    H233774   3.103   0.367   7.787  0.9212  0.1633  0.2094
 4047TIP3   OH233775   5.234   4.541   0.156 -0.6550 -0.3675 -0.0990
 4047TIP3    H133776   5.184   4.472   0.111 -4.6124  2.6954 -0.9364
 4047TIP3    H233777   5.283   4.584   0.086 -0.6300 -0.4116 -0.1088
 4048TIP3   OH233778   3.380   1.239   1.963 -0.1681  0.2756 -0.1677
 4048TIP3    H133779   3.381   1.323   2.010  1.4586  0.0798  0.2102
 4048TIP3    H233780   3.469   1.205   1.973  0.2476  0.1311 -3.2675
 4049TIP3   OH233781   3.226   1.419   0.629 -0.0653  0.0777 -0.1063
 4049TIP3    H133782   3.230   1.367   0.709  0.0324 -1.0215 -0.8098
 4049TIP3    H233783   3.296   1.385   0.574 -0.4055  0.5205 -0.8384
 4050TIP3   OH233784   6.213   4.005   6.496  0.2844 -0.1777 -0.3362
 4050TIP3    H133785   6.258   3.925   6.522 -0.5677 -0.8675 -0.9176
 4050TIP3    H233786   6.129   3.975   6.461 -0.7211  1.0730  0.8869
 4051TIP3   OH233787   2.055   4.869   1.744 -0.3344 -0.0670  0.0989
 4051TIP3    H133788   2.129   4.920   1.777  0.0822 -0.5903 -0.0113
 4051TIP3    H233789   1.995   4.862   1.818 -0.1377  0.1079  0.2753
 4052TIP3   OH233790   3.907   1.709   0.437  0.3366 -0.1455 -0.1227
 4052TIP3    H133791   3.812   1.717   0.427  0.4999  0.6005 -1.3207
 4052TIP3    H233792   3.923   1.724   0.530 -0.8290 -1.5725  0.3417
 4053TIP3   OH233793   5.348   4.696   7.874  0.5444 -0.0484  0.4595
 4053TIP3    H133794   5.417   4.748   7.915  0.2026  0.5454  0.2936
 4053TIP3    H233795   5.292   4.761   7.830  0.0081 -0.5377  0.4117
 4054TIP3   OH233796   5.455   5.839   0.848 -0.5194 -1.2486  0.5125
 4054TIP3    H133797   5.508   5.786   0.788  1.5433 -0.8758  1.9026
 4054TIP3    H233798   5.495   5.926   0.844 -3.1725  0.0135 -0.8993
 4055TIP3   OH233799   0.892   4.294   0.117 -0.1288  0.2575  0.1663
 4055TIP3    H133800   0.810   4.285   0.069 -1.5911 -0.8698  2.6610
 4055TIP3    H233801   0.867   4.329   0.203  2.0866  0.5091  0.7885
 4056TIP3   OH233802   4.385   5.957   7.212 -0.2626 -0.5775  0.0073
 4056TIP3    H133803   4.334   5.888   7.257  0.1839 -0.8979  0.0302
 4056TIP3    H233804   4.476   5.938   7.236 -0.0050 -0.8128 -1.1103
 4057TIP3   OH233805   5.722   6.735   6.528  0.3600  0.1488  0.0775
 4057TIP3    H133806   5.806   6.742   6.483 -0.3735  0.7798 -1.2299
 4057TIP3    H233807   5.717   6.815   6.581  1.6978 -1.0785  2.2292
 4058TIP3   OH233808   5.092   2.989   1.783 -0.2523  0.0822  0.2715
 4058TIP3    H133809   5.016   2.940   1.813 -0.2193 -1.0458 -1.3508
 4058TIP3    H233810   5.075   3.005   1.690  0.7828  1.1884  0.2524
 4059TIP3   OH233811   3.604   2.886   7.691 -0.1610 -0.1649  0.2043
 4059TIP3    H133812   3.541   2.894   7.762 -1.3655  0.2279 -0.8712
 4059TIP3    H233813   3.557   2.917   7.613  1.6097  0.9105 -0.5049
 4060TIP3   OH233814   5.579   4.000   7.770  0.1868 -0.0903 -0.2435
 4060TIP3    H133815   5.627   3.919   7.752  1.8396  0.3449  1.7591
 4060TIP3    H233816   5.598   4.056   7.695 -1.4377 -1.6853 -1.9271
 4061TIP3   OH233817   3.470   0.546   1.376  0.4108 -1.0903 -0.2916
 4061TIP3    H133818   3.542   0.524   1.435  2.1183  0.7372 -1.5369
 4061TIP3    H233819   3.508   0.609   1.315 -2.3783  0.3412 -0.7332
 4062TIP3   OH233820   2.815   3.123   0.590 -0.3404  0.8868  0.2496
 4062TIP3    H133821   2.832   3.217   0.598  0.1739  0.7074  1.3790
 4062TIP3    H233822   2.729   3.118   0.548 -0.3848  1.8598  0.2049
 4063TIP3   OH233823   4.520   1.964   1.591 -0.2812 -0.4577  0.5936
 4063TIP3    H133824   4.439   2.014   1.602 -0.7651 -0.9021 -0.7476
 4063TIP3    H233825   4.590   2.027   1.608 -0.8008  1.3575 -2.9376
 4064TIP3   OH233826   5.574   0.777   8.415  0.0169  0.1046  0.1621
 4064TIP3    H133827   5.482   0.805   8.408  0.4012  1.2937 -0.4913
 4064TIP3    H233828   5.593   0.738   8.330 -0.6516 -2.7606  1.2243
 4065TIP3   OH233829   0.396   3.288   6.955 -0.1215  0.2556  0.6253
 4065TIP3    H133830   0.455   3.340   7.011 -0.7067  0.7623  0.7870
 4065TIP3    H233831   0.447   3.211   6.931  0.3675  0.3544  1.3258
 4066TIP3   OH233832   0.706   6.149   0.838  0.0769 -0.1429  0.1974
 4066TIP3    H133833   0.680   6.070   0.791  0.0099  0.4032 -0.7204
 4066TIP3    H233834   0.652   6.218   0.800  1.4752  0.6794 -0.3831
 4067TIP3   OH233835   6.647   4.776   0.031  0.2386 -0.0033 -0.0177
 4067TIP3    H133836   6.632   4.750  -0.060  1.9221  2.3517 -1.0947
 4067TIP3    H233837   6.601   4.860   0.039  2.6963  1.4248  0.2076
 4068TIP3   OH233838   2.624   3.248   7.788  0.2994 -0.3001  0.0146
 4068TIP3    H133839   2.712   3.233   7.753  1.3515  2.1117  1.4442
 4068TIP3    H233840   2.622   3.197   7.869  0.5320 -0.0376  0.1870
 4069TIP3   OH233841   5.519   1.474   7.203 -0.1411  0.0162 -0.7366
 4069TIP3    H133842   5.446   1.439   7.255  1.3057 -2.0897  0.0135
 4069TIP3    H233843   5.580   1.509   7.269  0.9727 -1.2041 -1.0744
 4070TIP3   OH233844   6.409   4.733   7.602 -0.5044  0.8340  0.3181
 4070TIP3    H133845   6.378   4.820   7.626 -0.9581  0.8998 -0.4724
 4070TIP3    H233846   6.428   4.739   7.508  1.6713  0.7187  0.6963
 4071TIP3   OH233847   2.627   0.721   2.503  0.0945  0.1694 -0.3049
 4071TIP3    H133848   2.716   0.740   2.473  0.9708 -2.2184  0.5620
 4071TIP3    H233849   2.587   0.673   2.431  0.4328 -1.0488  0.3022
 4072TIP3   OH233850   5.042   1.650   1.668 -0.2770  0.4633 -0.2400
 4072TIP3    H133851   5.025   1.603   1.750 -0.2174 -2.0268 -1.5724
 4072TIP3    H233852   4.957   1.690   1.646 -0.0834  1.8966  1.4088
 4073TIP3   OH233853   6.300   4.504   2.047 -0.2247  0.6680 -0.1351
 4073TIP3    H133854   6.328   4.593   2.025 -1.4058  0.4299 -2.9422
 4073TIP3    H233855   6.377   4.450   2.031  0.8649  1.2077  2.6858
 4074TIP3   OH233856   0.340   5.267   7.953  0.0566 -0.1693  0.6896
 4074TIP3    H133857   0.345   5.361   7.971 -0.4260 -0.1307  0.6303
 4074TIP3    H233858   0.422   5.233   7.987  0.2904  0.2932  0.6006
 4075TIP3   OH233859   1.489   4.226   8.207 -0.8692 -0.0733  0.2328
 4075TIP3    H133860   1.484   4.213   8.301 -1.5178  0.3021  0.2581
 4075TIP3    H233861   1.467   4.318   8.194  0.7769  0.2871 -0.1678
 4076TIP3   OH233862   5.776   1.663   8.441  0.3077  0.2444 -0.6697
 4076TIP3    H133863   5.770   1.748   8.483  1.3923  0.3414 -0.6795
 4076TIP3    H233864   5.692   1.651   8.397 -0.9715  0.0214  1.7210
 4077TIP3   OH233865   1.606   0.297   8.080 -0.4643 -0.6468 -0.1570
 4077TIP3    H133866   1.699   0.292   8.101 -0.3672 -1.6633 -0.7388
 4077TIP3    H233867   1.562   0.258   8.155 -0.6629  2.2613  1.3781
 4078TIP3   OH233868   1.354   5.544   0.120  0.1848  0.4119  0.0237
 4078TIP3    H133869   1.425   5.547   0.185  1.1478  1.1223 -1.0311
 4078TIP3    H233870   1.348   5.451   0.096  1.3906  0.4541 -0.5276
 4079TIP3   OH233871   2.050   4.876   7.241 -0.0748  0.1714  0.6699
 4079TIP3    H133872   2.008   4.875   7.155  2.1577  0.4040 -0.5218
 4079TIP3    H233873   2.058   4.969   7.263 -0.2261  0.1298  0.9009
 4080TIP3   OH233874   4.593   0.896   2.328  0.4522  1.1058 -0.1918
 4080TIP3    H133875   4.542   0.905   2.408  0.4651  2.5941 -0.3153
 4080TIP3    H233876   4.670   0.951   2.342  0.3693  1.5367 -1.2701
 4081TIP3   OH233877   4.326   0.631   7.726 -0.1589 -0.5403  0.2844
 4081TIP3    H133878   4.280   0.666   7.802 -1.4163  0.6489 -0.9756
 4081TIP3    H233879   4.350   0.707   7.674  0.0252 -1.3703 -0.8910
 4082TIP3   OH233880   2.037   4.120   6.828  0.6656  0.2489 -0.1075
 4082TIP3    H133881   2.108   4.146   6.769 -0.1793 -0.8434 -1.6860
 4082TIP3    H233882   1.986   4.057   6.777 -2.1252  1.8561  0.4985
 4083TIP3   OH233883   3.806   0.464   2.549  0.3624  0.0802 -0.1137
 4083TIP3    H133884   3.865   0.522   2.500  1.2111  0.2900  1.0925
 4083TIP3    H233885   3.747   0.428   2.484  0.9068  1.0115 -1.1459
 4084TIP3   OH233886   2.664   5.221   7.523  0.8187 -0.0533 -0.1132
 4084TIP3    H133887   2.592   5.244   7.581  0.4243  1.2951 -1.0914
 4084TIP3    H233888   2.701   5.305   7.496  2.9033 -0.6973  0.5062
 4085TIP3   OH233889   5.798   5.761   0.749 -0.3542  0.0863 -0.0014
 4085TIP3    H133890   5.761   5.730   0.832 -0.7201  0.7780  0.0937
 4085TIP3    H233891   5.819   5.680   0.702 -1.2419 -0.3215  0.2695
 4086TIP3   OH233892   6.885   6.553   8.027 -0.1767 -0.6507 -0.6491
 4086TIP3    H133893   6.965   6.597   8.057  0.2680 -1.6473 -0.3200
 4086TIP3    H233894   6.855   6.606   7.954 -0.5013  1.0465  0.6459
 4087TIP3   OH233895   5.157   5.737   0.534  0.1107  0.4424  0.5259
 4087TIP3    H133896   5.181   5.766   0.622 -2.7134  0.3440  1.4458
 4087TIP3    H233897   5.104   5.809   0.499 -0.5632 -0.3926 -0.2136
 4088TIP3   OH233898   1.704   2.639   7.621 -0.2497  0.2057 -0.0326
 4088TIP3    H133899   1.747   2.588   7.553  0.1677 -0.4263  0.6842
 4088TIP3    H233900   1.742   2.726   7.614 -1.5637  0.6877 -1.8079
 4089TIP3   OH233901   2.965   2.358   8.318 -0.5583 -0.4482 -0.5334
 4089TIP3    H133902   2.947   2.361   8.224 -1.2431  0.1175 -0.3902
 4089TIP3    H233903   3.060   2.368   8.324 -0.4898 -0.6308 -1.1670
 4090TIP3   OH233904   2.229   0.835   0.525 -1.0330  0.5862 -0.8483
 4090TIP3    H133905   2.175   0.779   0.469 -2.0371  1.2932 -0.6147
 4090TIP3    H233906   2.202   0.813   0.614  2.1824 -2.2543 -0.3497
 4091TIP3   OH233907   5.845   3.579   7.981 -0.6381  0.0135 -0.3833
 4091TIP3    H133908   5.891   3.663   7.984 -1.6618  0.6075 -0.7451
 4091TIP3    H233909   5.900   3.523   7.927  0.3478  0.2576  0.3427
 4092TIP3   OH233910   1.146   6.349   8.606  0.0028  0.0880  0.5999
 4092TIP3    H133911   1.236   6.322   8.619  0.9701  2.1273 -1.2246
 4092TIP3    H233912   1.107   6.279   8.554  0.6556 -0.5808  0.9928
 4093TIP3   OH233913   0.148   3.091   7.270 -0.2522 -0.6669 -0.3202
 4093TIP3    H133914   0.138   3.011   7.219  0.9793 -0.8319 -0.3151
 4093TIP3    H233915   0.166   3.159   7.205  3.2997 -1.2100 -0.0638
 4094TIP3   OH233916   1.484   6.041   7.021  0.0463  0.2316  0.3647
 4094TIP3    H133917   1.398   6.053   6.981  0.8444  2.6900 -0.7840
 4094TIP3    H233918   1.498   6.119   7.074  0.1468 -1.7626  3.5200
 4095TIP3   OH233919   0.902   4.828   2.038 -0.1769  0.1166 -0.1525
 4095TIP3    H133920   0.892   4.921   2.055  0.0015 -0.0851  1.2108
 4095TIP3    H233921   0.973   4.800   2.095  0.4539 -0.6700 -1.2831
 4096TIP3   OH233922   3.536   0.682   0.479  0.7892  0.4019 -0.5613
 4096TIP3    H133923   3.466   0.706   0.539  1.4962  0.7036  0.1596
 4096TIP3    H233924   3.563   0.764   0.438  2.4499  0.7401  1.0804
 4097TIP3   OH233925   6.181   6.335   1.885 -0.2469  0.2872 -0.2531
 4097TIP3    H133926   6.096   6.365   1.917  1.3475  2.0414  2.8180
 4097TIP3    H233927   6.196   6.385   1.805 -1.0938  1.7703  0.4743
 4098TIP3   OH233928   2.216   2.764   1.157 -0.3121 -0.2867 -0.4694
 4098TIP3    H133929   2.153   2.722   1.216 -0.9135  1.3471  0.1061
 4098TIP3    H233930   2.178   2.754   1.070 -0.0566 -1.5650 -0.4670
 4099TIP3   OH233931   2.180   2.351   2.378  0.2401 -0.2822 -0.0103
 4099TIP3    H133932   2.205   2.271   2.424 -0.4747 -0.0606  0.7967
 4099TIP3    H233933   2.222   2.421   2.428  0.6229 -0.1315 -0.5400
 4100TIP3   OH233934   0.578   1.400   2.149 -0.2805 -0.0668 -0.8449
 4100TIP3    H133935   0.633   1.475   2.170 -1.4712  0.4342  0.6519
 4100TIP3    H233936   0.489   1.426   2.175 -0.8255 -1.7707 -0.8160
 4101TIP3   OH233937   3.798   3.198   7.185 -0.7313  0.1840 -0.2124
 4101TIP3    H133938   3.870   3.161   7.236  1.6466 -0.4885 -3.6927
 4101TIP3    H233939   3.725   3.137   7.198  1.1841 -2.4669 -1.0116
 4102TIP3   OH233940   2.211   4.139   2.806 -0.2760 -0.2788  0.1499
 4102TIP3    H133941   2.147   4.111   2.741 -0.0876 -1.1376  0.3146
 4102TIP3    H233942   2.238   4.058   2.849 -0.1103  0.2289  1.0342
 4103TIP3   OH233943   4.389   4.145   0.289  0.5276  0.6279  0.3575
 4103TIP3    H133944   4.467   4.107   0.248  0.0320 -2.6734  2.1201
 4103TIP3    H233945   4.325   4.150   0.218  0.9017 -1.2170 -0.1619
 4104TIP3   OH233946   2.844   6.015   7.764 -0.0660  0.6467 -0.2160
 4104TIP3    H133947   2.831   6.008   7.669  0.7605 -1.5319 -0.2070
 4104TIP3    H233948   2.938   6.029   7.774  0.0879 -0.6956  0.3200
 4105TIP3   OH233949   4.099   6.544   0.426  0.1590 -0.3151 -0.3774
 4105TIP3    H133950   4.160   6.527   0.355  0.4112  1.2664 -0.5730
 4105TIP3    H233951   4.154   6.568   0.500 -0.0785 -2.2891  0.5034
 4106TIP3   OH233952   2.570   0.794   7.879 -0.1547  0.3905  0.0388
 4106TIP3    H133953   2.551   0.799   7.973 -0.1677  0.1133  0.0523
 4106TIP3    H233954   2.490   0.760   7.840  0.5904 -1.6956  0.2195
 4107TIP3   OH233955   2.411   6.477   1.008  0.5276 -0.0596 -0.1580
 4107TIP3    H133956   2.335   6.472   0.951  0.0851 -0.8630  0.4816
 4107TIP3    H233957   2.479   6.427   0.963  0.2540 -0.4889 -0.1014
 4108TIP3   OH233958   6.871   6.311   7.756  0.0576  0.7687 -0.3732
 4108TIP3    H133959   6.870   6.219   7.729 -1.0161  0.7317 -0.2251
 4108TIP3    H233960   6.793   6.349   7.717  0.3343  1.5517 -0.1875
 4109TIP3   OH233961   4.925   6.536   0.537  0.0712  0.3229  0.3282
 4109TIP3    H133962   4.856   6.603   0.544 -0.9721 -0.8649  2.3880
 4109TIP3    H233963   4.992   6.564   0.599  0.9682  0.8943 -0.8674
 4110TIP3   OH233964   2.440   6.864   1.955 -0.5130  0.3043 -0.0833
 4110TIP3    H133965   2.494   6.814   2.016  0.3814  2.1445  0.7223
 4110TIP3    H233966   2.357   6.815   1.950  1.4819 -3.2758 -2.2772
 4111TIP3   OH233967   4.847   0.767   8.049 -0.1540  0.3287  0.0482
 4111TIP3    H133968   4.922   0.795   7.996  0.6843 -0.6424  0.6897
 4111TIP3    H233969   4.847   0.827   8.123 -0.2255  0.5351 -0.1150
 4112TIP3   OH233970   6.208   3.619   7.308 -0.5044  0.0949 -0.0490
 4112TIP3    H133971   6.195   3.529   7.339 -0.0784  0.1556  0.3153
 4112TIP3    H233972   6.194   3.614   7.213 -1.3525 -0.1840  0.0834
 4113TIP3   OH233973   4.151   5.364   7.941  0.7177 -0.3370 -0.5336
 4113TIP3    H133974   4.229   5.393   7.988  0.3050 -0.1595  0.0557
 4113TIP3    H233975   4.149   5.269   7.954 -0.0512 -0.1609  0.8711
 4114TIP3   OH233976   1.774   3.077   0.154 -0.5640  0.0169 -0.2469
 4114TIP3    H133977   1.777   3.128   0.236 -0.6276 -0.5464  0.1086
 4114TIP3    H233978   1.682   3.053   0.144 -0.4159 -0.6408 -0.0344
 4115TIP3   OH233979   4.210   6.168   0.072  0.6855  0.2871  0.5748
 4115TIP3    H133980   4.166   6.148  -0.010  0.7847 -0.1687  0.6297
 4115TIP3    H233981   4.241   6.083   0.104 -1.4741  0.0607  2.3175
 4116TIP3   OH233982   4.487   1.417   0.820  0.5391  0.2283 -0.0339
 4116TIP3    H133983   4.569   1.457   0.852  0.2761 -0.1489  1.1813
 4116TIP3    H233984   4.446   1.382   0.899 -1.3198  1.3355 -0.4566
 4117TIP3   OH233985   2.299   6.912   0.089  0.0039 -0.0975 -0.4930
 4117TIP3    H133986   2.379   6.915   0.142 -0.1914 -0.3039 -0.1773
 4117TIP3    H233987   2.284   7.003   0.063  0.4400 -0.0857 -0.7050
 4118TIP3   OH233988   6.867   0.621   0.928  0.1270 -0.0214  0.0529
 4118TIP3    H133989   6.782   0.633   0.885  0.7181  0.2716 -1.0764
 4118TIP3    H233990   6.907   0.548   0.882  1.5576  1.4837 -1.2031
 4119TIP3   OH233991   5.310   1.925   6.746  0.0653 -0.0488 -0.1994
 4119TIP3    H133992   5.335   1.983   6.817  0.0736  0.9790 -1.0187
 4119TIP3    H233993   5.227   1.961   6.714 -1.0346 -1.7061  0.6034
 4120TIP3   OH233994   0.962   5.262   1.708  0.0462 -0.3101  0.9655
 4120TIP3    H133995   0.906   5.254   1.786  2.6034 -0.5177  2.9067
 4120TIP3    H233996   0.957   5.355   1.685 -1.3674 -0.3914  0.8225
 4121TIP3   OH233997   2.024   3.346   6.453  0.1687  0.0867  0.6014
 4121TIP3    H133998   2.098   3.361   6.511  1.2401 -0.4218 -0.6016
 4121TIP3    H233999   2.022   3.422   6.395 -0.8138  0.5298  1.1944
 4122TIP3   OH234000   4.421   3.798   7.190 -0.0311 -0.2268  0.2227
 4122TIP3    H134001   4.506   3.831   7.162 -0.5942 -0.2563 -1.6676
 4122TIP3    H234002   4.371   3.790   7.109 -1.0092 -2.6067  0.9903
 4123TIP3   OH234003   0.803   5.088   2.099 -0.0887 -0.7623  0.1072
 4123TIP3    H134004   0.709   5.083   2.118  0.0408  0.1975  1.0740
 4123TIP3    H234005   0.844   5.106   2.183  0.5561  3.0026 -0.8133
 4124TIP3   OH234006   1.102   1.876   2.648 -0.3471 -0.5271  0.1422
 4124TIP3    H134007   1.010   1.858   2.667 -0.0873 -3.1656 -0.7912
 4124TIP3    H234008   1.137   1.793   2.616  1.4519  1.2926 -3.0980
 4125TIP3   OH234009   2.075   6.555   1.355 -0.3033  0.5551 -0.1692
 4125TIP3    H134010   2.028   6.482   1.314 -0.9685  0.7070  0.3219
 4125TIP3    H234011   2.165   6.545   1.323 -0.2299 -0.8778  0.4060
 4126TIP3   OH234012   0.922   1.578   0.829  0.5833 -0.0079  0.7941
 4126TIP3    H134013   0.832   1.587   0.798  0.8985 -1.7461 -0.7910
 4126TIP3    H234014   0.918   1.510   0.896  0.5465  0.8567  1.6978
 4127TIP3   OH234015   6.673   4.056   0.903 -0.1062  0.4704  0.1281
 4127TIP3    H134016   6.703   3.976   0.946 -1.3762 -0.6457 -0.9839
 4127TIP3    H234017   6.641   4.110   0.975 -0.6325 -0.6606  0.7746
 4128TIP3   OH234018   5.157   6.385   7.173  0.5838  0.7464  0.5747
 4128TIP3    H134019   5.221   6.428   7.230  0.5900 -1.3647  2.2931
 4128TIP3    H234020   5.119   6.316   7.228 -0.2022 -0.7072 -1.6565
 4129TIP3   OH234021   2.194   6.569   7.028  0.1123 -0.3956  0.2985
 4129TIP3    H134022   2.289   6.583   7.038  0.0149  0.0827  0.5873
 4129TIP3    H234023   2.168   6.633   6.962 -0.5420  1.7003  2.4685
 4130TIP3   OH234024   0.798   1.497   6.703 -0.0446  0.1788 -0.1430
 4130TIP3    H134025   0.714   1.511   6.747 -1.9440 -1.6021 -2.8718
 4130TIP3    H234026   0.795   1.555   6.627  0.8543 -0.4615 -0.6830
 4131TIP3   OH234027   5.037   4.532   1.059 -0.1446  0.0541  0.0479
 4131TIP3    H134028   4.945   4.555   1.068  0.0771  1.9484 -1.8308
 4131TIP3    H234029   5.045   4.449   1.107 -2.8104 -0.2085  0.2202
 4132TIP3   OH234030   3.910   0.789   7.716  0.3864 -0.0888  0.1858
 4132TIP3    H134031   3.815   0.776   7.713  0.4362 -0.5699  0.4998
 4132TIP3    H234032   3.946   0.707   7.681  0.6955 -0.3341  1.0464
 4133TIP3   OH234033   1.839   3.208   7.989  0.2899 -0.0788  0.5911
 4133TIP3    H134034   1.892   3.129   7.987 -0.2728 -0.5071  1.8508
 4133TIP3    H234035   1.785   3.203   7.909 -0.9567 -1.8469  1.4788
 4134TIP3   OH234036   0.465   5.734   1.371  0.5590 -0.4323  0.1841
 4134TIP3    H134037   0.375   5.736   1.340  0.4926  0.4520  0.4011
 4134TIP3    H234038   0.495   5.825   1.364  0.6909 -0.2754  2.2069
 4135TIP3   OH234039   4.549   3.439   7.794  0.7939  0.2173  0.4106
 4135TIP3    H134040   4.605   3.375   7.751  1.0446  0.6630  0.0658
 4135TIP3    H234041   4.588   3.450   7.881 -0.2251 -1.3401  1.0968
 4136TIP3   OH234042   6.064   2.918   2.132 -0.3282 -0.3137  0.2232
 4136TIP3    H134043   6.142   2.889   2.180 -0.0599  1.7839  1.1661
 4136TIP3    H234044   6.099   2.960   2.053 -0.5481  0.0262  0.3081
 4137TIP3   OH234045   1.906   3.649   1.898  0.3927 -0.2074 -0.3820
 4137TIP3    H134046   1.863   3.565   1.916  1.6800 -0.3217  2.8709
 4137TIP3    H234047   1.950   3.671   1.980 -0.2262  3.9016 -0.9656
 4138TIP3   OH234048   3.297   1.237   0.356 -0.1834 -0.1939  0.3224
 4138TIP3    H134049   3.249   1.319   0.368 -0.2712 -0.4363  1.8158
 4138TIP3    H234050   3.229   1.170   0.348 -0.1098 -0.1577 -0.6877
 4139TIP3   OH234051   2.165   3.949   7.487 -0.1537 -0.0087  0.6783
 4139TIP3    H134052   2.252   3.977   7.513  0.5123 -0.5997 -0.7798
 4139TIP3    H234053   2.118   4.031   7.468 -0.4512  0.3921  2.9101
 4140TIP3   OH234054   1.286   2.512   1.439  0.1751  0.3081  0.0144
 4140TIP3    H134055   1.213   2.492   1.380  1.3862  1.7202 -2.1182
 4140TIP3    H234056   1.279   2.447   1.509 -2.8869  0.1965 -0.2756
 4141TIP3   OH234057   2.198   2.515   0.200 -0.1102 -0.0985 -0.1738
 4141TIP3    H134058   2.271   2.500   0.141  0.8562  0.6322  0.7970
 4141TIP3    H234059   2.214   2.456   0.274 -1.2046 -0.8702 -0.5122
 4142TIP3   OH234060   1.318   4.277   7.816 -0.0487 -0.2816 -0.0515
 4142TIP3    H134061   1.368   4.357   7.801 -0.3747 -0.0593  0.0611
 4142TIP3    H234062   1.339   4.222   7.740  0.6190 -0.3204  0.1522
 4143TIP3   OH234063   2.923   5.800   1.739  1.1687 -0.1279 -1.0008
 4143TIP3    H134064   3.000   5.856   1.748  0.9827 -0.1393  1.2806
 4143TIP3    H234065   2.899   5.778   1.829  0.2812 -2.5817 -1.7575
 4144TIP3   OH234066   1.765   1.133   6.973 -0.0196  0.3780 -0.2086
 4144TIP3    H134067   1.781   1.137   7.067 -0.3289 -0.1693 -0.1251
 4144TIP3    H234068   1.776   1.040   6.951 -2.6476 -0.0181 -0.2072
 4145TIP3   OH234069   5.251   4.112   8.261 -0.6336 -0.1186 -0.1125
 4145TIP3    H134070   5.257   4.053   8.337  1.6029  0.4285  0.2100
 4145TIP3    H234071   5.326   4.089   8.207 -0.9441  1.0178 -1.0585
 4146TIP3   OH234072   5.402   2.291   7.795 -0.2875 -0.2672  0.7761
 4146TIP3    H134073   5.459   2.244   7.855 -0.4958  0.6780  1.7496
 4146TIP3    H234074   5.455   2.305   7.717 -0.0875 -1.7146  0.6367
 4147TIP3   OH234075   1.126   5.394   8.413 -0.0657  0.2832 -0.2992
 4147TIP3    H134076   1.183   5.461   8.375 -1.0534  1.1323 -0.3288
 4147TIP3    H234077   1.182   5.347   8.474  0.3361  2.0308  0.7590
 4148TIP3   OH234078   0.476   1.408   7.677  0.7087 -0.2670 -0.6437
 4148TIP3    H134079   0.390   1.435   7.708  0.2050 -0.9988 -1.3601
 4148TIP3    H234080   0.534   1.480   7.701  0.2758 -0.5542  1.5201
 4149TIP3   OH234081   4.111   6.457   7.052 -0.8657  0.1715 -0.2442
 4149TIP3    H134082   4.140   6.368   7.030 -0.0259  0.5188 -0.5870
 4149TIP3    H234083   4.038   6.474   6.993 -0.3266  0.1084 -0.9366
 4150TIP3   OH234084   0.129   3.318   0.763 -0.4075 -0.0077  0.6527
 4150TIP3    H134085   0.212   3.349   0.798  0.0020 -1.7477  1.3402
 4150TIP3    H234086   0.080   3.289   0.840 -1.0881 -0.2941  0.1244
 4151TIP3   OH234087   2.426   1.075   6.466 -0.2003  0.0798 -0.3890
 4151TIP3    H134088   2.484   1.118   6.403 -1.7019  0.1228 -1.8086
 4151TIP3    H234089   2.367   1.144   6.497  1.2207  0.3219  2.0183
 4152TIP3   OH234090   0.673   6.646   8.004  0.1434  0.4426  0.3436
 4152TIP3    H134091   0.694   6.554   7.986  1.4063  0.5669  1.0693
 4152TIP3    H234092   0.648   6.648   8.096 -0.1103  0.7929  0.2693
 4153TIP3   OH234093   6.498   2.438   8.468 -0.5141  0.0222 -0.0224
 4153TIP3    H134094   6.488   2.343   8.477  5.0805 -1.2394 -2.5072
 4153TIP3    H234095   6.564   2.461   8.534  0.2782  1.5273 -1.2713
 4154TIP3   OH234096   3.217   0.382   6.543  0.2257  0.0580 -0.3240
 4154TIP3    H134097   3.242   0.471   6.567 -1.2878  0.2881  0.4800
 4154TIP3    H234098   3.276   0.326   6.593  0.0107  0.5915  0.5351
 4155TIP3   OH234099   4.170   2.938   8.230 -0.0109 -0.1000 -0.0262
 4155TIP3    H134100   4.224   2.938   8.310 -0.3098  0.0267  0.1791
 4155TIP3    H234101   4.160   3.031   8.209  0.7272 -0.1621 -0.6654
 4156TIP3   OH234102   2.190   1.863   0.822 -0.4605  0.3984 -0.5353
 4156TIP3    H134103   2.154   1.774   0.818  0.3871  0.0600 -0.8342
 4156TIP3    H234104   2.114   1.919   0.842 -0.6121 -0.6398  2.2055
 4157TIP3   OH234105   1.843   1.049   6.554 -0.7916  0.1207 -0.3516
 4157TIP3    H134106   1.875   0.976   6.606 -1.9908 -0.4593 -0.3972
 4157TIP3    H234107   1.914   1.066   6.491  0.0628 -0.0943  0.5235
 4158TIP3   OH234108   2.682   0.647   7.635  0.2038  0.0902 -0.3723
 4158TIP3    H134109   2.602   0.690   7.665  1.0569  0.8887  0.8388
 4158TIP3    H234110   2.680   0.560   7.676 -1.0085 -0.6889 -1.9838
 4159TIP3   OH234111   6.087   0.658   0.568 -0.3603  0.3836 -0.1496
 4159TIP3    H134112   6.091   0.565   0.591  0.8443  0.2634 -0.7450
 4159TIP3    H234113   6.103   0.660   0.473  1.5057  1.2952  0.1371
 4160TIP3   OH234114   0.010   0.477   1.701 -0.1306 -0.6432 -0.1034
 4160TIP3    H134115   0.071   0.427   1.755  0.7618 -0.1003 -0.5744
 4160TIP3    H234116   0.066   0.525   1.639 -1.0750 -0.6480 -1.0010
 4161TIP3   OH234117   1.623   3.766   2.360  0.1437 -0.8619  0.0375
 4161TIP3    H134118   1.686   3.761   2.431  0.6083  3.0064  0.0812
 4161TIP3    H234119   1.634   3.683   2.312  3.3137 -1.4543  1.5774
 4162TIP3   OH234120   0.065   1.484   2.215 -0.0975  0.1569 -0.5710
 4162TIP3    H134121  -0.028   1.491   2.196 -0.0321 -0.0340 -0.9522
 4162TIP3    H234122   0.098   1.573   2.202  0.0253 -0.0506 -1.7683
 4163TIP3   OH234123   2.077   1.993   8.010  0.0088 -0.1257  0.1804
 4163TIP3    H134124   2.004   2.054   8.004 -1.0186 -1.1718  1.4323
 4163TIP3    H234125   2.134   2.016   7.936 -0.9220  1.5477 -0.0618
 4164TIP3   OH234126   2.655   4.139   1.421 -0.3540  0.0915  0.6949
 4164TIP3    H134127   2.672   4.056   1.377  1.0865  0.7581 -0.0674
 4164TIP3    H234128   2.601   4.115   1.497  0.4212 -1.6052  0.7673
 4165TIP3   OH234129   3.165   0.997   7.793 -0.5789  0.2954  0.1517
 4165TIP3    H134130   3.157   0.944   7.714  0.7540  1.8634 -1.0813
 4165TIP3    H234131   3.255   0.984   7.823 -0.1026  2.0784 -0.3858
 4166TIP3   OH234132   2.386   3.649   1.571  0.4669  0.2111  0.3651
 4166TIP3    H134133   2.310   3.618   1.620 -0.1485 -0.7943 -1.1719
 4166TIP3    H234134   2.357   3.652   1.480  1.7682  1.4411 -0.0425
 4167TIP3   OH234135   6.463   6.707   7.394  0.4110  0.6452 -0.2996
 4167TIP3    H134136   6.405   6.677   7.324 -2.3882 -1.6538  2.6891
 4167TIP3    H234137   6.412   6.775   7.439  0.4264 -0.5630  1.6630
 4168TIP3   OH234138   4.550   3.088   1.574  0.3275 -0.3270 -0.3586
 4168TIP3    H134139   4.573   3.167   1.624 -0.3557 -0.1468 -0.3177
 4168TIP3    H234140   4.550   3.018   1.639  1.2342 -0.4186 -0.4507
 4169TIP3   OH234141   3.895   5.944   0.255  0.1344 -0.1037 -0.0297
 4169TIP3    H134142   3.866   6.015   0.198 -1.2664  1.0215  1.9621
 4169TIP3    H234143   3.925   5.876   0.195  0.5428  1.7354 -2.0372
 4170TIP3   OH234144   4.418   3.565   8.107 -0.3735 -0.1415  0.2446
 4170TIP3    H134145   4.400   3.482   8.063 -0.1820 -0.0208 -0.0661
 4170TIP3    H234146   4.350   3.573   8.173 -0.9609 -0.0833 -0.3608
 4171TIP3   OH234147   5.437   4.804   8.234 -0.6053  0.5522 -0.0069
 4171TIP3    H134148   5.503   4.809   8.165  0.7842 -1.6528  1.0613
 4171TIP3    H234149   5.435   4.712   8.259 -2.1934  1.0255  1.8300
 4172TIP3   OH234150   3.236   1.541   2.847  0.2543  0.5196 -0.1897
 4172TIP3    H134151   3.324   1.577   2.845  0.3272  0.5299  1.6407
 4172TIP3    H234152   3.178   1.617   2.855 -0.0462  0.5880 -2.2666
 4173TIP3   OH234153   5.941   4.562   0.718  0.3783 -0.0925 -0.2555
 4173TIP3    H134154   5.998   4.488   0.693  0.2062 -0.5023  0.5309
 4173TIP3    H234155   5.972   4.588   0.805 -0.6038 -0.3023  0.1732
 4174TIP3   OH234156   5.303   5.781   1.401 -0.8492  0.1096  0.0703
 4174TIP3    H134157   5.222   5.809   1.358 -0.0852 -0.4643 -1.8523
 4174TIP3    H234158   5.288   5.689   1.422 -1.9507  0.8370  2.9689
 4175TIP3   OH234159   1.973   3.794   7.382 -0.0207 -0.5182  0.1889
 4175TIP3    H134160   2.023   3.856   7.434 -0.5549 -0.0485  0.1635
 4175TIP3    H234161   2.012   3.798   7.294 -0.1735 -0.0684  0.1395
 4176TIP3   OH234162   2.394   4.587   7.854 -0.2214  0.3346  0.3598
 4176TIP3    H134163   2.340   4.600   7.776 -1.1865  0.5219  1.0495
 4176TIP3    H234164   2.448   4.667   7.859  1.0672 -0.3900 -1.0290
 4177TIP3   OH234165   6.312   1.213   1.117  0.5658 -0.3927 -0.0353
 4177TIP3    H134166   6.352   1.289   1.160  0.5332 -2.2568  3.6291
 4177TIP3    H234167   6.247   1.181   1.180 -1.0542 -2.2004 -2.4217
 4178TIP3   OH234168   3.250   4.806   1.343 -0.1490  0.3002 -0.1976
 4178TIP3    H134169   3.345   4.800   1.347 -0.0460  0.5928 -1.5651
 4178TIP3    H234170   3.222   4.722   1.309 -0.4654 -0.0917  0.9868
 4179TIP3   OH234171   0.182   6.492   2.187  0.2176 -0.3337  0.2230
 4179TIP3    H134172   0.111   6.555   2.193 -2.2096 -2.5187 -2.5388
 4179TIP3    H234173   0.218   6.504   2.099  3.4490  0.7010  1.5240
 4180TIP3   OH234174   0.227   3.237   7.914 -0.0236  0.5815 -0.6796
 4180TIP3    H134175   0.179   3.197   7.842 -1.1852 -1.2935  1.0147
 4180TIP3    H234176   0.241   3.166   7.976  0.4003  2.2166  1.2161
 4181TIP3   OH234177   1.298   0.186   1.891 -0.2243  0.4270 -0.1084
 4181TIP3    H134178   1.319   0.193   1.798 -0.6970 -0.5655 -0.3047
 4181TIP3    H234179   1.232   0.253   1.906 -0.9067 -0.0956 -0.7293
 4182TIP3   OH234180   0.179   0.850   1.405  0.4065  0.5844  0.4075
 4182TIP3    H134181   0.185   0.925   1.464 -0.4377  0.4968  0.6190
 4182TIP3    H234182   0.086   0.841   1.387  0.4168 -0.8406  0.9466
 4183TIP3   OH234183   2.061   6.902   6.979  0.2498  0.7784 -0.2327
 4183TIP3    H134184   1.980   6.850   6.975  0.8844 -0.2739  0.1345
 4183TIP3    H234185   2.105   6.883   6.896  0.2017  1.2248 -0.3623
 4184TIP3   OH234186   1.920   3.523   0.770  0.0371  0.0738 -0.1273
 4184TIP3    H134187   1.950   3.600   0.819 -0.6904  0.5848 -0.4574
 4184TIP3    H234188   1.919   3.552   0.678  1.8396 -1.0154 -0.5315
 4185TIP3   OH234189   2.082   4.410   0.817 -0.2045  0.4630  0.2816
 4185TIP3    H134190   2.118   4.334   0.771 -2.2991 -1.6324  1.9616
 4185TIP3    H234191   2.127   4.411   0.901 -0.7353  0.6620  0.5635
 4186TIP3   OH234192   0.347   1.411   2.520  0.2356 -0.0967  0.0290
 4186TIP3    H134193   0.283   1.404   2.590 -2.3155 -1.6456 -2.2554
 4186TIP3    H234194   0.407   1.337   2.535 -1.5813 -1.7667 -0.5255
 4187TIP3   OH234195   1.692   5.283   2.444  0.0511 -0.0688 -0.1391
 4187TIP3    H134196   1.648   5.262   2.526  0.4850  0.2244  0.1731
 4187TIP3    H234197   1.705   5.378   2.447 -2.5837  0.4640 -1.8878
 4188TIP3   OH234198   4.201   4.454   6.678 -0.3621  0.4023  0.0099
 4188TIP3    H134199   4.293   4.463   6.702 -0.0517 -0.4817 -0.7715
 4188TIP3    H234200   4.195   4.493   6.591 -1.0967  1.9665  0.7189
 4189TIP3   OH234201   1.100   5.189   6.980  0.3850 -0.9509 -0.4517
 4189TIP3    H134202   1.165   5.210   6.913  0.8010 -0.2977  0.1437
 4189TIP3    H234203   1.018   5.180   6.932  0.0668  2.4317 -0.7586
 4190TIP3   OH234204   2.543   0.505   6.909  0.5543 -0.4005 -0.2445
 4190TIP3    H134205   2.551   0.516   6.814 -0.1973  1.2054 -0.1541
 4190TIP3    H234206   2.450   0.487   6.923  0.1604  1.8979  0.3649
 4191TIP3   OH234207   0.192   5.547   0.157 -0.1348  0.0130 -0.0874
 4191TIP3    H134208   0.257   5.591   0.101  0.0778  0.2584  0.3529
 4191TIP3    H234209   0.120   5.527   0.097  0.0073  0.4509 -0.4151
 4192TIP3   OH234210   1.014   4.354   1.600  0.6192  0.2495  0.3085
 4192TIP3    H134211   0.927   4.331   1.632  0.3299  0.7157 -0.1224
 4192TIP3    H234212   1.057   4.271   1.585  1.0285 -0.0138  2.5844
 4193TIP3   OH234213   4.209   6.118   7.360 -0.4386 -0.2543 -0.1356
 4193TIP3    H134214   4.246   6.047   7.307  0.2932  1.1936 -1.6623
 4193TIP3    H234215   4.121   6.088   7.382 -0.5458 -1.1757 -1.6931
 4194TIP3   OH234216   1.519   2.673   6.888 -0.2947  0.5400  0.4138
 4194TIP3    H134217   1.423   2.674   6.889 -0.4039 -1.5335 -1.1830
 4194TIP3    H234218   1.543   2.725   6.812 -0.3362 -1.2155 -0.8679
 4195TIP3   OH234219   6.479   1.914   0.398 -0.4460  0.1874 -0.1438
 4195TIP3    H134220   6.528   1.975   0.453  0.2499 -1.5183  1.2047
 4195TIP3    H234221   6.508   1.934   0.309  0.2898  1.3238  0.3285
 4196TIP3   OH234222   0.615   2.678   1.706  0.0728  0.1726  0.0995
 4196TIP3    H134223   0.692   2.622   1.700 -0.5090 -0.4349 -3.3442
 4196TIP3    H234224   0.604   2.714   1.619 -3.0127  1.0081  0.7068
 4197TIP3   OH234225   5.608   1.061   2.274  0.7166  0.7854  0.0991
 4197TIP3    H134226   5.524   1.019   2.291 -0.4312  2.2158 -1.6751
 4197TIP3    H234227   5.610   1.137   2.333  1.0785  0.3932  0.6012
 4198TIP3   OH234228   4.667   5.856   8.499 -0.0123 -0.2659 -0.2259
 4198TIP3    H134229   4.580   5.841   8.537 -0.2540 -0.5873 -0.9028
 4198TIP3    H234230   4.650   5.906   8.419  0.3121 -1.3755 -1.0115
 4199TIP3   OH234231   4.748   1.013   8.489  0.3870 -0.1039  0.0395
 4199TIP3    H134232   4.682   0.982   8.551 -0.3838 -0.6610 -1.0120
 4199TIP3    H234233   4.787   1.089   8.530 -1.7526  0.9661  0.1990
 4200TIP3   OH234234   4.418   3.432   2.367 -0.1155  0.0499 -0.4095
 4200TIP3    H134235   4.475   3.382   2.426 -0.6041  1.7530  1.6526
 4200TIP3    H234236   4.365   3.366   2.323  0.6578 -1.3464  0.6682
 4201TIP3   OH234237   0.476   4.968   0.074 -0.0342 -0.0237 -0.1121
 4201TIP3    H134238   0.418   4.895   0.097  1.2792 -1.8505 -2.2091
 4201TIP3    H234239   0.416   5.041   0.057 -1.5424 -1.1359  0.1637
 4202TIP3   OH234240   2.336   4.947   1.284 -0.1434  0.4548  0.3396
 4202TIP3    H134241   2.280   5.023   1.302  1.0299  1.5503 -0.4695
 4202TIP3    H234242   2.422   4.985   1.264  0.7908 -1.1656  1.1530
 4203TIP3   OH234243   5.918   0.601   1.109  0.3475  0.3392 -0.3736
 4203TIP3    H134244   6.010   0.627   1.108  0.8610 -1.2901  0.0598
 4203TIP3    H234245   5.919   0.516   1.154 -1.2477 -0.1388 -1.1966
 4204TIP3   OH234246   2.004   2.215   0.585 -0.4947 -0.0836 -0.1168
 4204TIP3    H134247   2.017   2.211   0.680 -0.1650 -0.2627 -0.1682
 4204TIP3    H234248   2.019   2.307   0.563 -3.0029  0.5216  0.3386
 4205TIP3   OH234249   1.975   4.014   7.781 -0.3783  0.0293 -0.4939
 4205TIP3    H134250   2.056   4.066   7.788 -0.6078  0.2364  1.1598
 4205TIP3    H234251   1.912   4.062   7.834 -1.0347 -1.1262 -0.1982
 4206TIP3   OH234252   5.948   1.638   0.390  0.3480  0.5920 -0.0120
 4206TIP3    H134253   6.017   1.572   0.398 -0.7190 -0.9171 -2.0770
 4206TIP3    H234254   5.958   1.673   0.301  0.1534  2.4149  0.6337
 4207TIP3   OH234255   4.281   4.370   8.217 -1.0046  0.6906 -0.0341
 4207TIP3    H134256   4.271   4.436   8.285 -3.8350  0.1715  0.1927
 4207TIP3    H234257   4.220   4.397   8.148 -0.5669 -0.4874 -0.9220
 4208TIP3   OH234258   4.644   5.983   8.244 -0.1171  0.2996  0.1054
 4208TIP3    H134259   4.648   6.063   8.191 -0.5652  1.2559  1.4391
 4208TIP3    H234260   4.687   5.916   8.191  0.4499  1.4720 -0.9660
 4209TIP3   OH234261   4.630   6.204   2.095 -0.1195 -0.2118  0.4183
 4209TIP3    H134262   4.718   6.204   2.059  0.2275  0.5285  1.2217
 4209TIP3    H234263   4.591   6.286   2.066 -0.5781 -0.5601  0.0188
 4210TIP3   OH234264   0.747   3.528   0.160  0.0342 -0.1470 -0.3364
 4210TIP3    H134265   0.677   3.462   0.155  0.4151 -0.6007  0.2925
 4210TIP3    H234266   0.826   3.478   0.179  0.6840  0.2719 -1.7587
 4211TIP3   OH234267   0.770   4.653   6.571 -0.0259 -0.3326  0.6633
 4211TIP3    H134268   0.734   4.641   6.659 -2.4168  2.8500  0.2914
 4211TIP3    H234269   0.854   4.698   6.586 -0.5782  0.5043  1.3325
 4212TIP3   OH234270   4.628   2.662   1.301 -0.3279 -0.4477  0.1620
 4212TIP3    H134271   4.624   2.685   1.394  0.2764 -2.8747  0.8830
 4212TIP3    H234272   4.537   2.648   1.276 -0.5163  0.4977  0.2994
 4213TIP3   OH234273   2.321   5.011   8.136  0.4558  0.4682 -0.0950
 4213TIP3    H134274   2.309   5.092   8.185 -1.2695  0.4004 -0.3615
 4213TIP3    H234275   2.245   4.957   8.158  0.5811 -0.2957 -1.4307
 4214TIP3   OH234276   1.969   2.774   1.769  0.5896  0.8215  0.0519
 4214TIP3    H134277   1.876   2.795   1.769  0.5388  0.7137  1.5997
 4214TIP3    H234278   1.980   2.710   1.698 -0.7869 -0.2848  0.7965
 4215TIP3   OH234279   1.066   5.926   0.157  0.1644  0.2101  0.2763
 4215TIP3    H134280   1.063   6.021   0.160  0.3593  0.2015  0.7701
 4215TIP3    H234281   1.159   5.904   0.159  0.1911  0.0544 -1.5882
 4216TIP3   OH234282   1.286   4.930   1.582  0.3193  0.5158 -0.5181
 4216TIP3    H134283   1.264   4.877   1.659 -0.4893 -0.4506 -1.3851
 4216TIP3    H234284   1.351   4.878   1.535  0.6299  0.9923 -0.6161
 4217TIP3   OH234285   3.723   6.146   0.737 -0.3686  0.3231  0.2196
 4217TIP3    H134286   3.706   6.059   0.701  1.8431 -0.3958  0.7552
 4217TIP3    H234287   3.649   6.163   0.796 -0.5540 -1.4465  0.5337
 4218TIP3   OH234288   5.906   3.002   0.441 -0.1697  0.1335  0.7576
 4218TIP3    H134289   5.905   2.911   0.411 -2.2641  0.2237  0.4214
 4218TIP3    H234290   5.947   2.998   0.527  0.2018 -1.0537  0.5503
 4219TIP3   OH234291   5.081   5.294   1.454 -0.3229  0.0540 -0.2960
 4219TIP3    H134292   4.987   5.287   1.438  0.1955 -3.6193 -2.9996
 4219TIP3    H234293   5.112   5.203   1.457  2.9901  1.0734  2.0401
 4220TIP3   OH234294   0.179   3.591   1.469  0.2422  0.4758 -0.3102
 4220TIP3    H134295   0.260   3.569   1.516  0.6082  0.7466 -0.8050
 4220TIP3    H234296   0.127   3.639   1.533  0.4724  0.2973  0.0150
 4221TIP3   OH234297   0.728   4.404   1.378  0.1581 -0.5671  0.1344
 4221TIP3    H134298   0.756   4.495   1.376 -0.7041 -0.2714  0.8792
 4221TIP3    H234299   0.760   4.367   1.295  0.2000  0.5031 -0.3418
 4222TIP3   OH234300   1.583   3.006   2.482  0.2028  0.1218 -0.5580
 4222TIP3    H134301   1.594   3.087   2.531  1.0233  0.1507 -0.7728
 4222TIP3    H234302   1.647   2.946   2.520 -0.7419 -0.6059 -0.0562
 4223TIP3   OH234303   2.301   6.453   1.933 -0.3465 -0.1938  0.6173
 4223TIP3    H134304   2.361   6.418   1.867 -1.7076 -0.8544 -0.3191
 4223TIP3    H234305   2.315   6.398   2.010  0.5867 -0.0231  0.5793
 4224TIP3   OH234306   1.136   4.350   0.960  0.4004  0.1519 -0.2021
 4224TIP3    H134307   1.176   4.411   1.022 -2.6314  0.8534  1.2278
 4224TIP3    H234308   1.119   4.271   1.011  1.5352 -0.8458 -1.2796
 4225TIP3   OH234309   3.183   3.891   2.010  0.1830  0.3788  0.3752
 4225TIP3    H134310   3.165   3.797   2.020  0.9693  0.2999  1.2430
 4225TIP3    H234311   3.278   3.896   2.007  0.2080  1.2440  1.7016
 4226TIP3   OH234312   4.577   2.171   0.145  0.5295  0.1472  0.5113
 4226TIP3    H134313   4.547   2.253   0.106  0.1160 -0.9161 -1.5653
 4226TIP3    H234314   4.667   2.189   0.173 -0.1026  1.7511  1.6574
 4227TIP3   OH234315   0.768   6.837   6.522 -0.3010 -0.4143  0.3788
 4227TIP3    H134316   0.780   6.931   6.541 -1.6173 -0.0578 -0.4729
 4227TIP3    H234317   0.694   6.811   6.577 -0.0815 -0.9085  0.4442
 4228TIP3   OH234318   6.497   1.929   7.371  0.7371  0.1315 -0.2858
 4228TIP3    H134319   6.459   2.017   7.377 -1.6028 -0.8608  0.4750
 4228TIP3    H234320   6.461   1.892   7.290  0.7430 -0.5394  0.0087
 4229TIP3   OH234321   4.875   1.500   7.184  0.6539  0.8717  0.0375
 4229TIP3    H134322   4.861   1.516   7.277  1.6559  1.0002  0.1728
 4229TIP3    H234323   4.839   1.578   7.141 -0.0543  0.6928  0.2857
 4230TIP3   OH234324   0.351   0.078   7.005 -0.5964  1.0277 -0.2627
 4230TIP3    H134325   0.353   0.125   6.922 -0.4055  0.2388 -0.7122
 4230TIP3    H234326   0.267   0.101   7.044 -2.0242 -0.8288 -2.0104
 4231TIP3   OH234327   0.999   3.589   7.661 -0.1946 -0.2566 -0.4978
 4231TIP3    H134328   0.977   3.496   7.666 -4.0235  0.3800 -1.7410
 4231TIP3    H234329   1.000   3.608   7.567  2.7724  0.6466 -0.3843
 4232TIP3   OH234330   0.292   1.833   1.799  0.3370 -0.6486 -0.2838
 4232TIP3    H134331   0.239   1.907   1.831 -0.3132 -0.9905 -0.5532
 4232TIP3    H234332   0.338   1.868   1.723  0.5253 -0.3358 -0.0267
 4233TIP3   OH234333   4.731   2.336   7.688 -0.3425 -0.2477  0.3531
 4233TIP3    H134334   4.673   2.273   7.647 -1.0829  0.2406  0.6239
 4233TIP3    H234335   4.709   2.420   7.647 -0.5209  0.1042  1.1447
 4234TIP3   OH234336   6.852   4.626   8.224  0.3051  0.1138  0.0379
 4234TIP3    H134337   6.924   4.611   8.285  0.2265  0.7991  0.3183
 4234TIP3    H234338   6.848   4.547   8.170  1.7292  0.3561 -0.4624
 4235TIP3   OH234339   1.052   2.482   7.011  0.0156 -0.3079 -0.4862
 4235TIP3    H134340   1.039   2.553   6.948  1.1947 -1.5667 -2.2388
 4235TIP3    H234341   0.966   2.442   7.021 -0.5753  1.0458  0.1959
 4236TIP3   OH234342   5.110   1.564   1.389  0.8882  0.5317  0.0896
 4236TIP3    H134343   5.021   1.536   1.367  0.6679  0.8764  0.5411
 4236TIP3    H234344   5.110   1.573   1.484  2.1365 -1.9579  0.4039
 4237TIP3   OH234345   0.227   2.159   2.136 -0.3313 -0.2906 -0.2344
 4237TIP3    H134346   0.172   2.096   2.183 -0.2641  0.4452  0.8941
 4237TIP3    H234347   0.294   2.184   2.201 -0.6097  1.2349 -0.5035
 4238TIP3   OH234348   5.663   4.329   7.818  0.3199  0.0491 -0.4052
 4238TIP3    H134349   5.582   4.379   7.808  0.6209  0.9428  1.2507
 4238TIP3    H234350   5.660   4.296   7.908  1.3157 -0.7751 -0.6522
 4239TIP3   OH234351   1.371   0.922   7.335  0.4264 -0.0288 -0.1594
 4239TIP3    H134352   1.289   0.940   7.382 -0.5754 -1.4588 -1.2564
 4239TIP3    H234353   1.421   0.867   7.394 -0.7897 -1.7478 -0.6545
 4240TIP3   OH234354   1.191   3.235   0.933  0.2154 -0.0307 -0.5740
 4240TIP3    H134355   1.201   3.201   1.021 -0.0655  1.1351 -0.0775
 4240TIP3    H234356   1.240   3.174   0.878 -0.0685 -1.0817  0.3026
 4241TIP3   OH234357   4.460   0.586   0.491  0.2887 -0.5451 -0.7361
 4241TIP3    H134358   4.474   0.566   0.584 -0.0999 -0.8013 -0.7269
 4241TIP3    H234359   4.412   0.510   0.458 -1.7519  0.5847 -0.5638
 4242TIP3   OH234360   2.700   2.484   7.756  0.5212 -0.4649 -0.4133
 4242TIP3    H134361   2.783   2.456   7.717  1.4733  1.8158 -0.1360
 4242TIP3    H234362   2.664   2.546   7.693  0.2260  0.3987  0.5818
 4243TIP3   OH234363   0.169   4.819   8.094  0.1482  0.4136 -0.0312
 4243TIP3    H134364   0.111   4.853   8.162  0.6177  0.0163  0.5818
 4243TIP3    H234365   0.214   4.896   8.059  0.6092  0.5264  0.7803
 4244TIP3   OH234366   0.064   1.138   0.756  0.0787  0.2778  0.0042
 4244TIP3    H134367   0.110   1.222   0.752  0.3978  0.0621 -1.3829
 4244TIP3    H234368   0.051   1.122   0.849 -0.4779  2.1293  0.2850
 4245TIP3   OH234369   1.107   3.767   0.421  0.0447 -0.4593 -0.4936
 4245TIP3    H134370   1.124   3.816   0.502  2.0740 -0.3241 -0.9690
 4245TIP3    H234371   1.093   3.834   0.355 -1.2075 -0.5716 -0.3680
 4246TIP3   OH234372   2.642   1.757   1.699 -1.0514  0.1886  0.1766
 4246TIP3    H134373   2.635   1.699   1.624  2.6195  1.8563 -1.7400
 4246TIP3    H234374   2.593   1.714   1.768 -2.1945 -2.8961 -2.3314
 4247TIP3   OH234375   0.214   3.660   8.595  0.2151 -0.1500  0.4862
 4247TIP3    H134376   0.309   3.662   8.585  0.1124  0.0490 -0.5012
 4247TIP3    H234377   0.198   3.587   8.655  1.0436  0.4565  1.4843
 4248TIP3   OH234378   3.323   6.629   1.755  0.2347  0.2832 -0.4256
 4248TIP3    H134379   3.318   6.717   1.717  1.1505  0.6867  0.3425
 4248TIP3    H234380   3.375   6.579   1.691  0.7146  0.6247 -0.3123
 4249TIP3   OH234381   3.628   3.743   1.544  0.1989 -0.5308  0.8839
 4249TIP3    H134382   3.650   3.711   1.632  2.5509  1.1695  1.0009
 4249TIP3    H234383   3.643   3.838   1.549 -0.4416 -0.2883 -1.1418
 4250TIP3   OH234384   4.741   5.102   7.134 -0.2698  0.0934  0.1307
 4250TIP3    H134385   4.682   5.153   7.080 -0.5315 -0.4972 -0.1506
 4250TIP3    H234386   4.819   5.156   7.143 -0.8586  0.8997  0.5401
 4251TIP3   OH234387   3.917   5.610   0.395  0.9027  0.5252  0.4514
 4251TIP3    H134388   3.837   5.603   0.342  2.6874 -1.4650 -2.2373
 4251TIP3    H234389   3.891   5.663   0.471 -2.6104  0.9920 -0.8943
 4252TIP3   OH234390   5.229   0.460   6.991 -0.0772  0.0310  0.4740
 4252TIP3    H134391   5.291   0.445   6.920 -0.4552 -0.2222  0.1966
 4252TIP3    H234392   5.144   0.440   6.954 -0.2205 -0.7350  1.1903
 4253TIP3   OH234393   5.961   4.465   8.282 -0.4164 -0.2041 -1.1632
 4253TIP3    H134394   6.006   4.536   8.327 -0.5411 -0.0098 -1.3430
 4253TIP3    H234395   5.870   4.492   8.278 -0.4368 -0.2972 -1.3765
 4254TIP3   OH234396   2.908   0.884   6.711  0.2551 -0.4531 -0.2132
 4254TIP3    H134397   2.857   0.926   6.642 -1.3318 -1.3213  0.3707
 4254TIP3    H234398   2.896   0.790   6.696 -0.3470 -0.6657  1.3445
 4255TIP3   OH234399   5.039   3.476   2.515  0.0567  0.5058  0.1010
 4255TIP3    H134400   5.071   3.562   2.541 -1.1630  0.6790  1.1341
 4255TIP3    H234401   5.083   3.457   2.432  0.6537  1.9309  0.0744
 4256TIP3   OH234402   0.895   4.222   6.667 -0.2636 -0.0445  1.1868
 4256TIP3    H134403   0.840   4.282   6.616  0.1772  0.4783  1.3159
 4256TIP3    H234404   0.836   4.151   6.692 -0.6042 -0.0733  0.3538
 4257TIP3   OH234405   6.768   0.993   7.236  0.0973 -0.0802  0.0360
 4257TIP3    H134406   6.711   1.065   7.208  1.5496  1.5620  1.0214
 4257TIP3    H234407   6.843   0.998   7.176  0.0565 -0.9952 -0.0932
 4258TIP3   OH234408   0.098   4.025   1.105 -0.4789  0.0133 -0.1396
 4258TIP3    H134409   0.055   4.104   1.136 -2.7999 -1.4775  0.6737
 4258TIP3    H234410   0.079   3.959   1.172 -0.1456 -1.6855 -1.6275
 4259TIP3   OH234411   2.140   0.484   8.247  0.1602  0.1366 -0.2920
 4259TIP3    H134412   2.140   0.516   8.157  0.8626  0.2259 -0.2618
 4259TIP3    H234413   2.051   0.501   8.278  0.2952  1.3340 -0.5311
 4260TIP3   OH234414   3.242   1.384   1.018  0.2927  0.1845  0.2276
 4260TIP3    H134415   3.158   1.361   1.058  0.5549  0.0905  0.7310
 4260TIP3    H234416   3.229   1.471   0.982 -0.4272 -0.3391 -0.8592
 4261TIP3   OH234417   0.487   6.319   0.849  0.1453  0.2799 -0.2131
 4261TIP3    H134418   0.425   6.250   0.873  1.4648 -0.7391  0.4095
 4261TIP3    H234419   0.457   6.396   0.898 -0.7119 -0.1397 -0.0587
 4262TIP3   OH234420   5.437   0.169   1.890  0.1225  0.1358  0.2033
 4262TIP3    H134421   5.504   0.103   1.871 -0.1322 -0.3496  0.9774
 4262TIP3    H234422   5.381   0.168   1.812 -0.3489 -1.1518  0.5303
 4263TIP3   OH234423   2.704   1.616   7.813  0.0099  0.0859 -0.0452
 4263TIP3    H134424   2.756   1.676   7.760  1.8374 -1.6253 -0.2731
 4263TIP3    H234425   2.711   1.532   7.769  0.6110 -1.1459  2.2299
 4264TIP3   OH234426   3.825   4.362   0.923  0.2568 -0.0517 -0.6387
 4264TIP3    H134427   3.914   4.337   0.947 -0.4474 -2.9599 -0.6531
 4264TIP3    H234428   3.779   4.370   1.007  0.2674  0.3506 -0.6702
 4265TIP3   OH234429   5.984   4.433   0.311 -0.6369 -0.4451  0.8896
 4265TIP3    H134430   6.052   4.451   0.375 -0.6247  1.3373  0.4203
 4265TIP3    H234431   5.902   4.439   0.360 -0.5264 -2.2322  1.3740
 4266TIP3   OH234432   5.195   5.559   7.030  0.3509 -0.0666  0.8799
 4266TIP3    H134433   5.239   5.532   7.110  0.7010 -0.5942  0.5149
 4266TIP3    H234434   5.136   5.629   7.057  0.7276  0.0016  1.5357
 4267TIP3   OH234435   4.157   0.346   6.685  0.7090 -0.0256  0.0662
 4267TIP3    H134436   4.159   0.352   6.781  1.1246 -1.8705  0.2192
 4267TIP3    H234437   4.237   0.298   6.663 -0.2905 -1.2722 -1.0338
 4268TIP3   OH234438   1.242   3.052   0.542  0.0392  0.1629 -0.6597
 4268TIP3    H134439   1.327   3.043   0.500  0.2325  0.9417 -0.4434
 4268TIP3    H234440   1.260   3.040   0.636  0.0105  0.9273 -0.5536
 4269TIP3   OH234441   6.834   3.438   6.346 -0.4053 -0.3651 -0.5293
 4269TIP3    H134442   6.919   3.433   6.390  0.1296 -0.3059 -1.5401
 4269TIP3    H234443   6.801   3.525   6.369  0.0699 -0.1627 -0.6035
 4270TIP3   OH234444   0.137   6.591   1.377 -0.2436 -0.0754  0.8729
 4270TIP3    H134445   0.097   6.539   1.307 -0.7761  0.4197  0.8016
 4270TIP3    H234446   0.076   6.585   1.450 -0.5334  0.8000  0.7176
 4271TIP3   OH234447   1.541   4.303   7.396  0.3974  0.1727 -0.2260
 4271TIP3    H134448   1.474   4.284   7.330 -0.2328  0.8283  0.2116
 4271TIP3    H234449   1.506   4.377   7.445  1.7754  1.0176 -0.4557
 4272TIP3   OH234450   0.406   1.342   7.067  0.5510  0.0582  0.2714
 4272TIP3    H134451   0.326   1.289   7.069  0.6821 -0.1895 -0.6592
 4272TIP3    H234452   0.381   1.425   7.107  0.4831 -0.8667  2.2659
 4273TIP3   OH234453   4.669   4.586   0.399  0.1890 -0.1715  0.4758
 4273TIP3    H134454   4.614   4.640   0.343 -0.7889 -0.7520  0.8347
 4273TIP3    H234455   4.701   4.645   0.467  0.1595  0.2158  0.1506
 4274TIP3   OH234456   3.214   4.074   1.798 -0.1155  0.1957 -0.4831
 4274TIP3    H134457   3.179   4.155   1.835  0.1739  0.0955  0.0043
 4274TIP3    H234458   3.209   4.011   1.869  2.2144  0.4897  0.0115
 4275TIP3   OH234459   3.643   1.472   0.727 -0.4649  0.2335 -0.6830
 4275TIP3    H134460   3.596   1.554   0.712 -2.9282 -1.2347 -1.7229
 4275TIP3    H234461   3.609   1.441   0.811 -1.7821 -1.0283 -1.6234
 4276TIP3   OH234462   5.734   0.282   0.042 -0.0100  0.1390  0.4680
 4276TIP3    H134463   5.640   0.298   0.052  0.0341 -0.0604  1.2148
 4276TIP3    H234464   5.742   0.240  -0.044 -0.5145  0.8430  0.0647
 4277TIP3   OH234465   5.491   6.095   1.764  0.5266 -0.2404  0.4651
 4277TIP3    H134466   5.585   6.091   1.748  0.5862 -0.1112  0.7650
 4277TIP3    H234467   5.482   6.072   1.857  0.2478 -0.4244  0.3934
 4278TIP3   OH234468   0.735   0.544   1.075  0.0579  0.2925  0.1428
 4278TIP3    H134469   0.740   0.519   1.167  0.5591 -0.6285 -0.1212
 4278TIP3    H234470   0.737   0.461   1.028  0.8136  0.8000 -0.7365
 4279TIP3   OH234471   1.366   3.361   8.445  1.1382 -0.0002  0.0992
 4279TIP3    H134472   1.319   3.320   8.517 -1.2676 -0.7716 -1.7581
 4279TIP3    H234473   1.415   3.290   8.405  1.4479  0.1483  0.2133
 4280TIP3   OH234474   6.494   6.139   0.408  0.1198  0.2679 -0.2192
 4280TIP3    H134475   6.414   6.086   0.412 -1.5683  2.6267 -0.7927
 4280TIP3    H234476   6.507   6.168   0.498  0.3148 -0.0412 -0.1433
 4281TIP3   OH234477   1.052   6.197   7.370 -0.5778 -0.3807 -0.8487
 4281TIP3    H134478   1.130   6.243   7.338 -0.3570  1.4930  2.0902
 4281TIP3    H234479   1.086   6.117   7.411 -0.3903 -0.3569 -0.9551
 4282TIP3   OH234480   1.865   4.439   7.527 -0.4458 -0.0756 -0.3817
 4282TIP3    H134481   1.947   4.426   7.479 -0.1711 -1.4968  0.4142
 4282TIP3    H234482   1.809   4.487   7.466  1.0946  1.2923 -0.7954
 4283TIP3   OH234483   3.350   1.214   7.416 -0.2702 -0.4518  0.0568
 4283TIP3    H134484   3.305   1.250   7.492  0.2589  0.0951  0.1210
 4283TIP3    H234485   3.440   1.246   7.424 -0.7626  1.7724 -2.1112
 4284TIP3   OH234486   2.295   0.769   8.472 -0.2104 -0.6628  0.3636
 4284TIP3    H134487   2.269   0.684   8.508 -0.6439 -0.8513 -0.3697
 4284TIP3    H234488   2.288   0.758   8.378  0.7759 -0.1368  0.2165
 4285TIP3   OH234489   0.597   3.573   7.515  0.0428 -0.5917  0.2012
 4285TIP3    H134490   0.612   3.499   7.575  1.6508 -0.7649 -0.3483
 4285TIP3    H234491   0.662   3.638   7.541 -0.2131 -0.0772 -0.4238
 4286TIP3   OH234492   6.626   4.660   7.781 -0.0425  0.0814  0.5622
 4286TIP3    H134493   6.568   4.645   7.856 -0.1247  0.6797  0.6233
 4286TIP3    H234494   6.567   4.676   7.707  0.0382  0.5765  0.6011
 4287TIP3   OH234495   3.694   5.029   0.101  0.4817 -0.1360  0.2917
 4287TIP3    H134496   3.726   4.940   0.092  2.2823  0.3378  1.3724
 4287TIP3    H234497   3.672   5.038   0.194  0.2385  0.5205  0.1808
 4288TIP3   OH234498   3.878   2.099   0.953 -0.6238  0.3695  0.1920
 4288TIP3    H134499   3.939   2.048   1.006  0.7338  0.6675 -1.0187
 4288TIP3    H234500   3.808   2.124   1.014 -1.0696 -2.4132  0.9765
 4289TIP3   OH234501   2.254   3.326   0.709  0.1530  0.2310  0.2273
 4289TIP3    H134502   2.337   3.339   0.754 -0.2383 -0.5307  1.2204
 4289TIP3    H234503   2.205   3.265   0.766 -0.5249 -0.4414 -1.0211
 4290TIP3   OH234504   5.711   4.732   0.687  0.8260  0.5076  0.5711
 4290TIP3    H134505   5.765   4.653   0.695 -1.4545 -1.2753 -0.3227
 4290TIP3    H234506   5.691   4.738   0.594 -0.6053  0.9944  0.8806
 4291TIP3   OH234507   1.380   2.843   0.334  0.2794  0.4152  0.6614
 4291TIP3    H134508   1.454   2.883   0.288  1.0007  0.7359  2.0469
 4291TIP3    H234509   1.313   2.911   0.335  0.8015  0.9397  1.3289
 4292TIP3   OH234510   2.861   0.868   1.298 -0.0495  0.3957 -0.2931
 4292TIP3    H134511   2.800   0.869   1.224  0.2694  0.2181 -0.5583
 4292TIP3    H234512   2.862   0.777   1.327 -0.5291  0.5467  0.2317
 4293TIP3   OH234513   0.297   4.137   0.708  0.1217  0.0738  0.1366
 4293TIP3    H134514   0.240   4.190   0.652  2.8988  2.6915 -0.4178
 4293TIP3    H234515   0.237   4.103   0.775 -2.3541  1.3686 -1.2425
 4294TIP3   OH234516   5.239   6.220   7.868 -0.1105  0.1003 -0.7557
 4294TIP3    H134517   5.245   6.133   7.908  0.1107 -0.7792 -2.5922
 4294TIP3    H234518   5.150   6.225   7.834  0.1490  0.2264 -1.4279
 4295TIP3   OH234519   5.756   6.004   0.636 -0.0720 -0.1343  0.1358
 4295TIP3    H134520   5.730   5.914   0.657  1.5510 -0.4282  1.0605
 4295TIP3    H234521   5.720   6.056   0.708  0.7639 -0.3620  0.7364
 4296TIP3   OH234522   5.518   3.327   1.987 -1.1001 -0.1425 -0.3914
 4296TIP3    H134523   5.514   3.235   1.958 -1.1910 -0.9381  1.9469
 4296TIP3    H234524   5.581   3.368   1.928  0.6473 -2.2741 -0.1423
 4297TIP3   OH234525   3.114   5.053   0.891  0.2310  0.3996 -0.2135
 4297TIP3    H134526   3.040   5.108   0.864  0.3660  1.0977  0.7836
 4297TIP3    H234527   3.076   4.990   0.953  0.4832  0.8441  0.4023
 4298TIP3   OH234528   1.051   6.525   0.289 -0.0657  0.0520  0.4774
 4298TIP3    H134529   1.094   6.445   0.319  0.3003  0.2157  0.3862
 4298TIP3    H234530   0.998   6.554   0.363 -0.4694 -0.4617  0.3986
 4299TIP3   OH234531   6.097   4.369   1.786 -0.3754  0.1318  0.4373
 4299TIP3    H134532   6.076   4.462   1.791 -0.7168  0.1925 -1.4209
 4299TIP3    H234533   6.016   4.328   1.755 -0.4343 -0.8902  1.8653
 4300TIP3   OH234534   6.053   5.429   1.521  0.3177 -0.1530  0.0681
 4300TIP3    H134535   6.041   5.502   1.581  0.5369  0.2785 -0.4063
 4300TIP3    H234536   5.966   5.415   1.482 -0.1843 -1.3620  1.5009
 4301TIP3   OH234537   5.405   2.213   0.805  0.6569  0.3022 -0.2762
 4301TIP3    H134538   5.405   2.201   0.710  1.9183 -1.3179 -0.1113
 4301TIP3    H234539   5.390   2.307   0.817 -2.8158  0.1167 -1.9372
 4302TIP3   OH234540   2.473   5.081   6.422  0.8155  0.4161  0.0207
 4302TIP3    H134541   2.409   5.152   6.432  1.8644  1.2268  1.2343
 4302TIP3    H234542   2.433   5.007   6.468 -0.6500 -0.1002 -1.9278
 4303TIP3   OH234543   3.064   2.842   1.622  0.0972  0.6183 -0.3345
 4303TIP3    H134544   3.127   2.837   1.693  0.4940 -0.3982 -0.7302
 4303TIP3    H234545   3.107   2.895   1.555  0.1658  0.6698 -0.2493
 4304TIP3   OH234546   0.697   6.155   7.481 -0.0029  0.0749 -0.1363
 4304TIP3    H134547   0.657   6.068   7.482  0.8901 -0.3768  1.8121
 4304TIP3    H234548   0.781   6.143   7.525 -0.0141  1.9819  0.4989
 4305TIP3   OH234549   4.844   1.287   1.819  0.0816 -0.4613 -0.3720
 4305TIP3    H134550   4.849   1.289   1.723 -1.4711  1.2761 -0.4980
 4305TIP3    H234551   4.915   1.230   1.846  1.3917  0.0230 -2.5107
 4306TIP3   OH234552   6.826   0.793   0.607  0.1568 -0.4397 -0.3514
 4306TIP3    H134553   6.838   0.840   0.689 -0.1976  1.5309 -1.3840
 4306TIP3    H234554   6.748   0.739   0.623  0.8550 -1.1092  1.0095
 4307TIP3   OH234555   2.269   1.348   0.467  0.4718 -0.1917  0.0075
 4307TIP3    H134556   2.335   1.376   0.531  1.2366 -0.7628 -0.5096
 4307TIP3    H234557   2.292   1.257   0.447  0.7122  0.1906 -1.6319
 4308TIP3   OH234558   3.861   0.942   0.911  0.1998  0.4129  0.5606
 4308TIP3    H134559   3.790   0.926   0.849  0.4468  0.5145  0.2516
 4308TIP3    H234560   3.823   1.000   0.977  0.0915  0.7251  0.2229
 4309TIP3   OH234561   3.114   0.086   7.678 -0.3188 -0.1195 -0.5594
 4309TIP3    H134562   3.130   0.147   7.605  0.7806  0.4936  0.1620
 4309TIP3    H234563   3.083   0.142   7.749 -0.6662 -0.6046 -0.3282
 4310TIP3   OH234564   1.308   4.081   8.025 -1.3705  0.3510  0.3881
 4310TIP3    H134565   1.373   4.119   8.084 -2.1787  0.9423  0.9341
 4310TIP3    H234566   1.301   4.144   7.953 -0.5126 -0.2838 -0.2686
 4311TIP3   OH234567   0.830   2.531   8.204  0.0512 -0.4358  0.0256
 4311TIP3    H134568   0.779   2.574   8.135 -0.7534 -1.7582 -0.2389
 4311TIP3    H234569   0.829   2.593   8.276 -0.3823  0.3382 -0.6246
 4312TIP3   OH234570   1.154   3.452   8.126  0.1243  0.3131  0.4042
 4312TIP3    H134571   1.218   3.476   8.059 -0.0527  3.8489  1.3004
 4312TIP3    H234572   1.100   3.530   8.137 -2.5163 -1.5452  1.7893
 4313TIP3   OH234573   6.428   6.316   6.857 -0.9755 -0.3227  0.0533
 4313TIP3    H134574   6.393   6.246   6.802 -0.5706 -0.3555 -0.1610
 4313TIP3    H234575   6.470   6.376   6.796 -3.3170  1.3455 -0.0465
 4314TIP3   OH234576   5.345   4.082   0.661  0.0650 -0.0090 -0.6635
 4314TIP3    H134577   5.410   4.151   0.674  0.6630 -0.5131 -0.9236
 4314TIP3    H234578   5.284   4.093   0.734  1.0437 -0.1994  0.2112
 4315TIP3   OH234579   3.613   2.870   0.888 -0.2729 -0.0443  0.4792
 4315TIP3    H134580   3.687   2.876   0.828 -0.6113 -2.5293 -0.2804
 4315TIP3    H234581   3.650   2.891   0.974  1.2483 -0.8345  0.0581
 4316TIP3   OH234582   5.205   2.273   7.975 -0.8493  0.0384 -0.0363
 4316TIP3    H134583   5.159   2.355   7.993  1.3022  1.2021  0.5985
 4316TIP3    H234584   5.271   2.297   7.910  0.3841 -0.9613  0.8050
 4317TIP3   OH234585   0.864   0.598   6.575  0.0927  0.5991 -0.4554
 4317TIP3    H134586   0.896   0.655   6.505  0.2225  0.2556 -0.6844
 4317TIP3    H234587   0.944   0.567   6.618  0.0488  0.1823 -0.6671
 4318TIP3   OH234588   1.727   6.114   8.155 -0.2291  0.4289  1.1355
 4318TIP3    H134589   1.688   6.166   8.225  2.4173  0.4378  2.7388
 4318TIP3    H234590   1.781   6.049   8.200  0.6178 -0.3677 -0.8855
 4319TIP3   OH234591   4.721   2.591   7.510  0.6638  0.0891  0.1783
 4319TIP3    H134592   4.766   2.554   7.434  0.0786 -1.8565  0.7050
 4319TIP3    H234593   4.656   2.651   7.473 -0.1966 -1.4644 -0.9666
 4320TIP3   OH234594   3.057   2.139   2.603 -0.2478 -0.7958  0.0700
 4320TIP3    H134595   3.022   2.222   2.635  1.3534 -0.3724  0.8471
 4320TIP3    H234596   3.008   2.122   2.523 -1.1134  0.5197  0.2803
 4321TIP3   OH234597   4.802   5.817   1.386  0.3244  0.0599 -0.0256
 4321TIP3    H134598   4.793   5.790   1.478 -1.2299 -1.6924 -0.6331
 4321TIP3    H234599   4.721   5.864   1.367  0.8647  0.8745 -0.3999
 4322TIP3   OH234600   4.715   1.974   7.630  0.4365  0.0168  0.1473
 4322TIP3    H134601   4.654   1.951   7.559 -0.0113 -0.5000  0.6917
 4322TIP3    H234602   4.779   1.902   7.630 -0.0135 -0.3916  0.7686
 4323TIP3   OH234603   3.809   4.973   2.428 -0.0537  0.1306 -0.2186
 4323TIP3    H134604   3.867   4.898   2.438  2.0452  1.3816 -2.0177
 4323TIP3    H234605   3.750   4.949   2.356 -0.0460 -0.1918 -0.1145
 4324TIP3   OH234606   3.933   6.757   6.950  0.4331  0.2399 -0.7495
 4324TIP3    H134607   3.930   6.664   6.930  0.6827  0.0811 -0.0577
 4324TIP3    H234608   3.992   6.794   6.883  1.5841 -0.3499 -0.0857
 4325TIP3   OH234609   5.157   2.513   0.582  0.4610  0.1857  0.3785
 4325TIP3    H134610   5.176   2.571   0.509  1.5334 -1.5771 -0.8324
 4325TIP3    H234611   5.120   2.570   0.650 -0.7244  1.8618 -1.5588
 4326TIP3   OH234612   4.323   1.440   6.858 -0.0034  0.4460  0.6390
 4326TIP3    H134613   4.283   1.470   6.777 -0.1377 -2.2806 -0.4167
 4326TIP3    H234614   4.414   1.467   6.852 -0.3385  1.5320  0.2792
 4327TIP3   OH234615   2.668   3.561   0.960 -0.9815  0.0888  0.1870
 4327TIP3    H134616   2.606   3.531   1.027 -0.8412  1.0234  0.7472
 4327TIP3    H234617   2.714   3.634   1.001  1.7417 -1.6493  0.4274
 4328TIP3   OH234618   4.128   3.853   0.772 -0.5304  0.2306 -0.3579
 4328TIP3    H134619   4.145   3.793   0.700 -1.7912  1.0567 -1.3766
 4328TIP3    H234620   4.125   3.939   0.731 -0.0292  0.8654  0.8844
 4329TIP3   OH234621   4.882   2.452   0.450  0.2574  0.0542 -0.4785
 4329TIP3    H134622   4.855   2.530   0.401 -0.8893 -0.3801 -0.5665
 4329TIP3    H234623   4.972   2.471   0.477 -0.5701  2.2585  1.1323
 4330TIP3   OH234624   0.337   4.904   1.309 -0.1480 -0.2340 -0.2923
 4330TIP3    H134625   0.329   5.000   1.310  0.4193 -0.1745 -0.5522
 4330TIP3    H234626   0.299   4.878   1.226 -1.7337 -0.3922  0.4590
 4331TIP3   OH234627   0.043   4.291   0.288 -0.2979  0.3458  0.3966
 4331TIP3    H134628   0.066   4.310   0.197 -0.6578  0.3378  0.3016
 4331TIP3    H234629  -0.035   4.235   0.282  0.3819 -0.6684  0.6834
 4332TIP3   OH234630   5.218   1.129   7.615 -0.5007 -0.3951  0.1389
 4332TIP3    H134631   5.234   1.137   7.709 -0.3334 -0.8370  0.1476
 4332TIP3    H234632   5.143   1.187   7.599  0.8892  1.5168  0.1389
 4333TIP3   OH234633   5.418   5.614   8.316 -0.2906 -0.5856  0.0554
 4333TIP3    H134634   5.465   5.676   8.373 -1.3526 -0.6512  1.0354
 4333TIP3    H234635   5.332   5.654   8.303 -0.8585 -1.6649  0.3853
 4334TIP3   OH234636   3.773   3.992   0.814 -0.3774 -0.4801  0.0827
 4334TIP3    H134637   3.778   4.087   0.805  1.6913 -0.1284  3.2701
 4334TIP3    H234638   3.680   3.972   0.804 -0.6230  1.5092 -2.7652
 4335TIP3   OH234639   1.771   1.248   0.494  0.0751  0.0808 -0.5408
 4335TIP3    H134640   1.864   1.229   0.485  0.1229  0.9175 -2.1060
 4335TIP3    H234641   1.728   1.180   0.441 -0.2329 -0.3847  0.2845
 4336TIP3   OH234642   5.803   3.264   6.923  0.4214  0.5456 -0.7093
 4336TIP3    H134643   5.764   3.200   6.982  0.6938  0.2895 -0.8091
 4336TIP3    H234644   5.892   3.276   6.955  1.3089 -1.2017 -2.3205
 4337TIP3   OH234645   5.383   2.681   2.264 -0.2635  0.0109 -0.4905
 4337TIP3    H134646   5.340   2.596   2.251  0.4311 -0.5941  0.9874
 4337TIP3    H234647   5.467   2.672   2.217 -0.2906 -0.0315 -0.5312
 4338TIP3   OH234648   5.452   0.710   0.939 -0.3200  0.8927 -0.7466
 4338TIP3    H134649   5.531   0.701   0.992  1.0258  0.1240 -2.7692
 4338TIP3    H234650   5.423   0.800   0.955  1.4734  1.4839 -0.6373
 4339TIP3   OH234651   0.451   0.595   0.685 -0.5539  0.7782 -0.5533
 4339TIP3    H134652   0.523   0.658   0.691 -0.6810  0.8324  0.4116
 4339TIP3    H234653   0.479   0.535   0.615  0.7943  0.3433  0.3220
 4340TIP3   OH234654   1.081   4.331   8.253  0.6031 -0.1924 -0.2756
 4340TIP3    H134655   1.100   4.240   8.229 -1.7941 -1.3784  1.9040
 4340TIP3    H234656   1.101   4.335   8.347 -0.2333  1.2602 -0.1453
 4341TIP3   OH234657   0.154   0.063   7.304 -0.1141  0.0510 -0.3462
 4341TIP3    H134658   0.181   0.137   7.250 -2.7631  0.3253 -1.4681
 4341TIP3    H234659   0.138  -0.008   7.242  2.2148 -1.5096  0.7008
 4342TIP3   OH234660   6.898   0.526   6.919  0.3321 -0.2600  0.0282
 4342TIP3    H134661   6.849   0.501   6.841  1.1213 -0.3770 -0.4450
 4342TIP3    H234662   6.845   0.495   6.992 -0.6007  0.1871 -0.4435
 4343TIP3   OH234663   2.049   1.827   0.520  0.5188  0.4608  0.0923
 4343TIP3    H134664   2.066   1.805   0.429 -0.4280  0.1683 -0.0278
 4343TIP3    H234665   2.080   1.917   0.529  0.7339  0.4498 -0.4781
 4344TIP3   OH234666   4.330   0.859   6.673 -0.0362  0.2020  0.1610
 4344TIP3    H134667   4.381   0.833   6.750  0.8805  3.3515  0.7683
 4344TIP3    H234668   4.319   0.778   6.623  0.3152 -1.7526  2.9921
 4345TIP3   OH234669   3.723   2.950   8.464 -1.0325 -0.1786  0.1608
 4345TIP3    H134670   3.664   2.911   8.529 -0.5933  0.3975  0.9263
 4345TIP3    H234671   3.667   2.970   8.390 -1.6042 -0.5716  0.4761
 4346TIP3   OH234672   3.136   4.172   8.615  0.3633  0.2314 -0.1932
 4346TIP3    H134673   3.204   4.128   8.665  0.7952 -0.4167 -1.3103
 4346TIP3    H234674   3.061   4.112   8.619 -0.1152  0.8855  0.9305
 4347TIP3   OH234675   2.204   2.963   6.883 -0.6506  0.4845 -0.8142
 4347TIP3    H134676   2.170   3.012   6.808 -3.6876  0.6876  0.5523
 4347TIP3    H234677   2.144   2.889   6.892  0.7734 -0.5889  0.3467
 4348TIP3   OH234678   3.326   6.487   6.670 -0.3015  0.0680  0.3707
 4348TIP3    H134679   3.389   6.422   6.640 -0.6935  0.6902 -2.0120
 4348TIP3    H234680   3.319   6.549   6.597 -1.9332  1.2814  1.4903
 4349TIP3   OH234681   3.581   2.909   1.502  0.1150 -0.1394 -0.3016
 4349TIP3    H134682   3.538   2.982   1.546 -1.7328 -1.2690 -0.0761
 4349TIP3    H234683   3.535   2.902   1.418  1.4380  0.0020 -1.0630
 4350TIP3   OH234684   4.968   1.026   0.472 -0.0356  0.8342 -0.4944
 4350TIP3    H134685   5.040   0.963   0.482 -0.3198  0.3015 -1.6053
 4350TIP3    H234686   5.012   1.111   0.463  0.3240  0.9283  1.7772
 4351TIP3   OH234687   2.244   6.689   2.038  0.0570  0.3401 -0.0420
 4351TIP3    H134688   2.280   6.691   2.126 -0.7227  0.3972  0.2880
 4351TIP3    H234689   2.255   6.599   2.009  0.7527  0.4313 -0.0823
 4352TIP3   OH234690   5.698   6.652   1.719 -0.1681 -0.1965 -0.1923
 4352TIP3    H134691   5.659   6.654   1.806 -0.9190 -0.8226 -0.5099
 4352TIP3    H234692   5.684   6.563   1.688  3.0260 -1.0292  0.3550
 4353TIP3   OH234693   3.858   6.016   7.685  0.4046 -0.3453 -0.4436
 4353TIP3    H134694   3.777   5.967   7.700 -2.0280  3.2630 -0.4945
 4353TIP3    H234695   3.864   6.074   7.761  2.8962 -0.3637 -0.5678
 4354TIP3   OH234696   0.753   6.240   8.573  0.0380 -0.1717 -0.0390
 4354TIP3    H134697   0.682   6.280   8.522  0.0858  0.7019  0.5520
 4354TIP3    H234698   0.716   6.158   8.605 -0.7840  0.3541  0.4089
 4355TIP3   OH234699   0.759   2.917   2.079 -0.4220 -0.3303  0.0982
 4355TIP3    H134700   0.820   2.882   2.143  0.3511  0.1455 -0.3514
 4355TIP3    H234701   0.680   2.865   2.089 -0.7772  0.5071  2.2806
 4356TIP3   OH234702   3.843   1.411   0.526  0.2556 -0.4377 -0.4366
 4356TIP3    H134703   3.783   1.433   0.597 -1.6960 -0.2105 -2.0511
 4356TIP3    H234704   3.929   1.439   0.556 -0.2808 -1.4188  2.2769
 4357TIP3   OH234705   5.856   1.355   0.170 -0.0708 -0.1541  0.0030
 4357TIP3    H134706   5.792   1.316   0.229 -2.7747 -0.9267 -3.1431
 4357TIP3    H234707   5.917   1.284   0.149 -1.4300 -1.0368 -1.0892
 4358TIP3   OH234708   1.596   1.393   7.380  0.3620 -0.6012  0.5269
 4358TIP3    H134709   1.560   1.481   7.384  0.9452 -0.2496 -1.2669
 4358TIP3    H234710   1.530   1.338   7.422 -0.1595  0.6294  1.3598
 4359TIP3   OH234711   4.845   1.055   7.336 -0.0728  0.3499 -0.1798
 4359TIP3    H134712   4.834   0.964   7.311 -1.5755  0.0237  1.4733
 4359TIP3    H234713   4.804   1.105   7.265  0.4888 -0.2513 -0.9404
 4360TIP3   OH234714   4.232   5.677   0.854 -0.3376  0.6083 -0.5665
 4360TIP3    H134715   4.240   5.652   0.762 -0.5936  0.8830 -0.6649
 4360TIP3    H234716   4.220   5.772   0.852  1.4204  0.8622 -0.1531
 4361TIP3   OH234717   0.387   6.767   1.955 -0.2777  0.1109  0.1500
 4361TIP3    H134718   0.444   6.697   1.923 -1.5686 -0.2206 -1.5473
 4361TIP3    H234719   0.443   6.818   2.015  1.1897 -1.3341  0.0748
 4362TIP3   OH234720   4.290   5.134   8.041 -0.2975  0.1797  0.0148
 4362TIP3    H134721   4.319   5.181   8.120  0.2942  0.2642 -0.2493
 4362TIP3    H234722   4.371   5.115   7.994 -0.6292 -0.1318 -0.4298
 4363TIP3   OH234723   5.518   0.986   2.016 -0.0707 -0.2701  0.4173
 4363TIP3    H134724   5.578   0.913   2.008 -0.0653 -0.2704  0.4635
 4363TIP3    H234725   5.536   1.024   2.102 -0.0804 -0.2205  0.3977
 4364TIP3   OH234726   4.030   3.725   0.288 -0.0880  0.0544 -0.7553
 4364TIP3    H134727   3.977   3.779   0.347  0.2417  1.2111 -1.4920
 4364TIP3    H234728   3.971   3.655   0.260 -0.2311 -0.5850  0.9995
 4365TIP3   OH234729   1.358   5.490   1.238  0.0568  0.0824 -0.1099
 4365TIP3    H134730   1.378   5.518   1.327 -1.2948  1.2197 -0.1446
 4365TIP3    H234731   1.271   5.450   1.244 -0.5223  1.1389 -1.0760
 4366TIP3   OH234732   5.106   4.697   0.362  0.0936 -0.2135 -0.0624
 4366TIP3    H134733   5.147   4.620   0.323 -0.4425 -1.2675  1.3331
 4366TIP3    H234734   5.067   4.664   0.443 -0.7442  1.4018  0.2339
 4367TIP3   OH234735   5.651   5.502   0.417 -0.2143  0.5608  0.3028
 4367TIP3    H134736   5.571   5.516   0.366  0.4307 -1.5118 -1.4315
 4367TIP3    H234737   5.722   5.512   0.354  0.6563 -1.5282  0.8534
 4368TIP3   OH234738   4.484   2.782   2.251 -0.5330  0.0515 -0.0975
 4368TIP3    H134739   4.416   2.849   2.259  0.8057  1.2466  2.2648
 4368TIP3    H234740   4.512   2.787   2.160 -1.3135  1.8684 -0.2716
 4369TIP3   OH234741   4.816   0.376   0.729  0.1946 -0.0576 -0.1985
 4369TIP3    H134742   4.824   0.399   0.821  1.0742 -0.7742 -0.0759
 4369TIP3    H234743   4.815   0.460   0.683 -0.1723  0.3029  0.4501
 4370TIP3   OH234744   3.011   4.028   0.326  0.3457  0.2246 -0.4249
 4370TIP3    H134745   3.048   3.957   0.274 -1.3930 -0.7411 -0.4124
 4370TIP3    H234746   2.944   3.986   0.379  0.9568  1.4687  1.4253
 4371TIP3   OH234747   3.730   5.860   8.509 -0.5391 -0.3801 -0.3813
 4371TIP3    H134748   3.644   5.896   8.486  0.3620  1.3762 -1.1587
 4371TIP3    H234749   3.759   5.913   8.583  0.0089 -0.7725 -0.3147
 4372TIP3   OH234750   2.054   1.884   1.640 -0.0501 -0.1738  0.1108
 4372TIP3    H134751   2.133   1.934   1.659 -0.6143  0.8109 -0.0571
 4372TIP3    H234752   2.052   1.878   1.544 -0.0415 -0.4132  0.1265
 4373TIP3   OH234753   6.924   0.716   8.183 -0.0639  0.3442  0.4853
 4373TIP3    H134754   6.850   0.756   8.137  0.6661 -0.8827 -1.9135
 4373TIP3    H234755   7.000   0.736   8.128  0.7173 -2.0068  0.5786
 4374TIP3   OH234756   4.022   0.433   8.494  0.0946 -0.1749 -0.3878
 4374TIP3    H134757   4.033   0.355   8.547  0.1880  0.0809 -0.0258
 4374TIP3    H234758   4.088   0.425   8.424  2.5163  1.1780  1.5592
 4375TIP3   OH234759   6.925   0.055   2.706  0.4246  0.5116 -0.4212
 4375TIP3    H134760   6.946   0.115   2.634 -0.7786 -0.2368 -1.4470
 4375TIP3    H234761   6.894   0.112   2.776  2.7577  1.3608  0.0088
 4376TIP3   OH234762   1.341   0.483   8.432 -0.9103  0.0888 -0.0090
 4376TIP3    H134763   1.280   0.482   8.359 -0.0765 -1.1813 -0.7249
 4376TIP3    H234764   1.394   0.404   8.421 -0.9230 -0.2807  2.1089
 4377TIP3   OH234765   1.701   2.953   1.188 -0.1705 -0.0395 -0.3636
 4377TIP3    H134766   1.669   3.028   1.138 -0.0945 -1.3259 -2.4767
 4377TIP3    H234767   1.794   2.948   1.165 -0.6789 -2.1906 -2.2928
 4378TIP3   OH234768   4.983   5.275   7.102 -0.7877 -0.0078  0.3380
 4378TIP3    H134769   5.055   5.227   7.144 -1.7438  0.1268  2.2256
 4378TIP3    H234770   4.963   5.346   7.162 -2.6030 -0.1370 -0.0530
 4379TIP3   OH234771   1.294   4.411   2.630  0.0134 -0.6386 -0.4240
 4379TIP3    H134772   1.336   4.337   2.675  0.5296 -0.7944 -1.1416
 4379TIP3    H234773   1.261   4.373   2.548  1.6289  0.2176 -1.5222
 4380TIP3   OH234774   2.245   0.245   0.011 -0.5458 -0.2721 -0.0997
 4380TIP3    H134775   2.293   0.328   0.011 -0.0104 -0.5755  0.6044
 4380TIP3    H234776   2.222   0.230   0.103  0.0953 -1.3219 -0.0981
 4381TIP3   OH234777   1.161   1.611   2.633 -0.4812 -0.5198 -0.5176
 4381TIP3    H134778   1.101   1.545   2.598 -0.8587 -1.1282  1.1657
 4381TIP3    H234779   1.248   1.572   2.623 -0.8391 -2.3707  2.4774
 4382TIP3   OH234780   3.455   5.470   0.952 -0.0087 -0.1730 -0.3966
 4382TIP3    H134781   3.497   5.497   0.870  0.3495  3.8586  0.8715
 4382TIP3    H234782   3.383   5.533   0.963 -0.1662 -0.7102  2.2759
 4383TIP3   OH234783   5.824   2.370   2.818  0.0875  0.3604  0.7288
 4383TIP3    H134784   5.918   2.355   2.823  0.6388  1.6702 -2.8270
 4383TIP3    H234785   5.790   2.294   2.769 -0.3547  0.8796  0.2126
 4384TIP3   OH234786   5.731   1.018   1.797 -0.1922 -0.1008  0.6543
 4384TIP3    H134787   5.714   1.060   1.712  1.9236 -1.3591 -0.4922
 4384TIP3    H234788   5.682   0.936   1.793 -0.7812  0.2298  1.0247
 4385TIP3   OH234789   5.665   2.879   0.319  0.1799 -0.0501 -0.0884
 4385TIP3    H134790   5.691   2.935   0.391 -0.2777 -0.4639  0.4103
 4385TIP3    H234791   5.716   2.798   0.331  1.7723  0.6737 -1.5026
 4386TIP3   OH234792   1.009   1.073   0.361 -0.0817 -0.4739  0.0916
 4386TIP3    H134793   0.942   1.104   0.301  0.3558  0.0549 -0.1268
 4386TIP3    H234794   0.962   1.012   0.419 -0.7460 -0.1168 -0.0588
 4387TIP3   OH234795   2.689   3.809   8.123 -0.4819  0.0592  0.8340
 4387TIP3    H134796   2.636   3.776   8.194 -1.4609 -1.6282 -0.6063
 4387TIP3    H234797   2.746   3.736   8.099 -0.6949  0.3358 -0.5951
 4388TIP3   OH234798   0.779   1.206   6.701  0.4188 -0.2484 -0.2490
 4388TIP3    H134799   0.697   1.253   6.683  0.2631 -0.7070 -0.7319
 4388TIP3    H234800   0.847   1.263   6.665  0.4893  1.0211  1.7401
 4389TIP3   OH234801   0.656   5.739   7.740 -0.5637  0.0881  0.5203
 4389TIP3    H134802   0.734   5.696   7.772 -0.5577 -0.4012 -0.1379
 4389TIP3    H234803   0.677   5.765   7.650 -1.8790 -2.0467 -0.5027
 4390TIP3   OH234804   0.885   1.360   7.339 -0.4103 -0.2529  0.1645
 4390TIP3    H134805   0.894   1.380   7.432  1.2866  0.5292 -0.1298
 4390TIP3    H234806   0.913   1.441   7.295 -2.5859 -0.0829 -1.0390
 4391TIP3   OH234807   5.320   5.957   7.919 -1.1635 -0.3032 -0.1504
 4391TIP3    H134808   5.373   5.957   7.839  0.0658  0.4384  0.6278
 4391TIP3    H234809   5.309   5.864   7.940  2.4767 -0.5879  1.2794
 4392TIP3   OH234810   4.817   4.077   1.269  0.0374 -0.0479  0.0915
 4392TIP3    H134811   4.890   4.015   1.270 -0.3654 -0.5189  0.9540
 4392TIP3    H234812   4.859   4.163   1.259  0.7187 -0.3125  0.6021
 4393TIP3   OH234813   4.996   3.392   0.339  0.1913 -0.2474 -0.3710
 4393TIP3    H134814   5.041   3.390   0.424  0.3154 -1.5856 -0.4510
 4393TIP3    H234815   4.905   3.373   0.360 -0.1967  1.5171 -0.3199
 4394TIP3   OH234816   1.759   4.090   7.905 -1.0385 -0.2167  0.3047
 4394TIP3    H134817   1.731   4.000   7.889 -0.9521 -0.7491  2.7168
 4394TIP3    H234818   1.750   4.102   8.000 -1.9399  2.6367 -0.0299
 4395TIP3   OH234819   2.386   6.899   6.553  0.2403 -0.5200  0.4800
 4395TIP3    H134820   2.472   6.907   6.594  1.5886 -1.1379 -2.0136
 4395TIP3    H234821   2.336   6.972   6.589  2.7405  1.6133 -0.0316
 4396TIP3   OH234822   2.291   6.374   1.499  0.4599 -0.4083  0.3460
 4396TIP3    H134823   2.197   6.376   1.514  0.6024  0.5278  1.2004
 4396TIP3    H234824   2.302   6.409   1.411 -0.0216 -1.0679  0.0150
 4397TIP3   OH234825   3.042   2.180   7.431  0.2168  0.2964 -0.2468
 4397TIP3    H134826   2.987   2.233   7.489  1.0820  0.9109  0.0368
 4397TIP3    H234827   3.051   2.233   7.352  1.2927  0.7122  0.1346
 4398TIP3   OH234828   4.511   2.189   2.092 -0.0677 -0.4072  0.0109
 4398TIP3    H134829   4.531   2.258   2.028 -1.0049 -0.4335 -0.3167
 4398TIP3    H234830   4.597   2.165   2.128  0.3793  0.2102 -0.6107
 4399TIP3   OH234831   0.279   2.170   8.414  0.1376  0.3316  0.4473
 4399TIP3    H134832   0.330   2.243   8.378  0.6337 -0.2078  0.0169
 4399TIP3    H234833   0.337   2.094   8.403 -1.2364 -0.5234 -1.1792
 4400TIP3   OH234834   0.593   6.790   0.621 -0.2354 -0.0168  0.2561
 4400TIP3    H134835   0.548   6.706   0.624 -2.0808  0.9288  2.9628
 4400TIP3    H234836   0.645   6.793   0.702 -1.8993  2.1770  1.3830
 4401TIP3   OH234837   3.023   6.356   1.588 -0.5080  0.3003 -0.1083
 4401TIP3    H134838   3.070   6.432   1.623 -0.9531  0.0289  1.1191
 4401TIP3    H234839   3.028   6.367   1.493  1.4289  0.6456 -0.0213
 4402TIP3   OH234840   4.408   6.533   7.443 -0.7095 -0.3655  0.4138
 4402TIP3    H134841   4.369   6.460   7.395  0.2384  0.0127 -1.0171
 4402TIP3    H234842   4.338   6.597   7.450 -0.7141 -0.1385 -1.1598
 4403TIP3   OH234843   1.924   4.427   1.406 -0.1838  0.0090 -0.1049
 4403TIP3    H134844   2.016   4.441   1.431 -0.8715  0.2765  2.5468
 4403TIP3    H234845   1.900   4.345   1.450 -1.1510 -0.2148 -1.0132
 4404TIP3   OH234846   1.238   3.190   8.603  0.1865  0.4156 -0.7020
 4404TIP3    H134847   1.223   3.144   8.685  2.1793 -1.0351 -1.0588
 4404TIP3    H234848   1.224   3.124   8.535  1.1502  0.8538 -1.3532
 4405TIP3   OH234849   1.845   1.350   1.434 -0.4523 -0.2600 -0.6185
 4405TIP3    H134850   1.889   1.412   1.491  0.8805 -0.7442 -1.0893
 4405TIP3    H234851   1.759   1.390   1.416 -0.5072  0.3521  0.8995
 4406TIP3   OH234852   2.030   6.878   7.503 -0.3289  0.2613 -0.7390
 4406TIP3    H134853   2.043   6.832   7.420 -1.2960 -0.0322 -0.7492
 4406TIP3    H234854   2.066   6.820   7.569 -0.4024  0.0605 -0.8736
 4407TIP3   OH234855   3.997   3.091   7.000  0.1659 -0.1317 -0.9427
 4407TIP3    H134856   4.063   3.119   7.064  0.3671 -1.3470 -0.5913
 4407TIP3    H234857   3.993   3.162   6.937  0.0159  1.0772  0.3857
 4408TIP3   OH234858   1.032   0.667   7.883  0.0592 -0.3215 -0.1873
 4408TIP3    H134859   1.026   0.762   7.875  1.0229 -0.2846 -0.5734
 4408TIP3    H234860   1.049   0.636   7.794  0.8678 -0.7553  0.1064
 4409TIP3   OH234861   6.211   5.490   7.055  0.2549  0.2814  0.0581
 4409TIP3    H134862   6.268   5.495   7.131 -0.0392 -1.5078  0.4430
 4409TIP3    H234863   6.123   5.486   7.091  0.0946 -0.2425 -0.3811
 4410TIP3   OH234864   6.625   6.335   2.465  1.1071 -0.0113  0.5679
 4410TIP3    H134865   6.605   6.376   2.550 -1.3210 -0.5841  0.3419
 4410TIP3    H234866   6.577   6.388   2.401  0.8836 -1.0356 -0.1377
 4411TIP3   OH234867   4.055   2.698   1.816 -0.1509 -0.9649  0.2036
 4411TIP3    H134868   4.109   2.695   1.895 -1.2578  0.8557  1.1096
 4411TIP3    H234869   4.081   2.778   1.771 -2.2620  0.1991  0.8831
 4412TIP3   OH234870   1.176   5.447   8.033  0.2346 -0.4307 -0.4723
 4412TIP3    H134871   1.176   5.430   7.938 -1.8619 -0.9731 -0.4321
 4412TIP3    H234872   1.203   5.539   8.041  1.5289 -0.6969 -1.4929
 4413TIP3   OH234873   3.795   4.992   7.743  0.1228  0.2677  0.0167
 4413TIP3    H134874   3.863   4.952   7.798  0.8164 -0.3658 -1.2568
 4413TIP3    H234875   3.829   4.984   7.654 -1.2551  0.7136 -0.5710
 4414TIP3   OH234876   3.486   1.968   2.729  0.0595  0.1672 -0.0451
 4414TIP3    H134877   3.502   2.061   2.715  0.7623  0.0073 -0.3153
 4414TIP3    H234878   3.573   1.929   2.734 -0.2134 -0.3589  0.9031
 4415TIP3   OH234879   5.622   6.773   8.081 -0.0451 -0.1760  0.1778
 4415TIP3    H134880   5.659   6.778   8.170 -0.5491  0.3765  0.3629
 4415TIP3    H234881   5.592   6.682   8.073 -0.3904 -0.1159  0.7350
 4416TIP3   OH234882   2.613   3.854   7.778 -0.0449  0.3680 -0.4770
 4416TIP3    H134883   2.664   3.777   7.805  0.0573  0.4165 -0.5319
 4416TIP3    H234884   2.525   3.838   7.813 -0.0849  0.1138 -0.6894
 4417TIP3   OH234885   5.426   0.242   8.397 -0.0760  0.4772  0.1107
 4417TIP3    H134886   5.403   0.320   8.449 -0.9726 -0.3454  0.9721
 4417TIP3    H234887   5.343   0.205   8.369  0.2627 -0.9997  0.9607
 4418TIP3   OH234888   3.335   5.311   8.342 -0.0172 -0.0051 -0.3660
 4418TIP3    H134889   3.339   5.228   8.295  1.5049 -0.8081  1.0639
 4418TIP3    H234890   3.404   5.364   8.301 -1.1517  0.6950 -1.4447
 4419TIP3   OH234891   3.354   0.901   1.914 -0.3032 -0.1922  0.4303
 4419TIP3    H134892   3.418   0.882   1.844 -0.6386  0.2051  0.0096
 4419TIP3    H234893   3.391   0.977   1.960 -0.5266  0.1158  0.1087
 4420TIP3   OH234894   2.873   0.862   8.138  0.0060  0.1638  0.0546
 4420TIP3    H134895   2.898   0.931   8.076  0.2686 -0.6895 -0.8205
 4420TIP3    H234896   2.879   0.781   8.087 -0.6267 -0.4750  0.9665
 4421TIP3   OH234897   5.064   1.931   2.119  0.4590  0.1973  0.0762
 4421TIP3    H134898   5.028   1.848   2.151 -1.0317  0.6067 -0.4835
 4421TIP3    H234899   5.158   1.914   2.111  0.3389 -1.0804  1.0395
 4422TIP3   OH234900   2.616   3.477   2.155 -0.7977  0.2140  0.4156
 4422TIP3    H134901   2.615   3.565   2.192  0.7798  0.4046  0.0843
 4422TIP3    H234902   2.606   3.419   2.231 -0.7945  0.6649  0.7632
 4423TIP3   OH234903   1.065   2.500   8.087  0.1122 -0.5914 -0.1762
 4423TIP3    H134904   0.973   2.511   8.111 -0.0898  1.7202 -1.6712
 4423TIP3    H234905   1.112   2.562   8.143  0.9201 -2.1892  1.0239
 4424TIP3   OH234906   0.013   6.581   1.639 -0.3388  0.1596 -0.3463
 4424TIP3    H134907  -0.068   6.596   1.688  0.8439  1.3465  1.3447
 4424TIP3    H234908   0.062   6.662   1.647  1.3609 -0.7796 -0.6709
 4425TIP3   OH234909   0.056   5.287   0.433 -0.2089  0.1728  0.0192
 4425TIP3    H134910   0.148   5.270   0.413  0.5892  0.9923  2.5761
 4425TIP3    H234911   0.018   5.317   0.351  1.0003 -2.9749 -1.8854
 4426TIP3   OH234912   2.357   3.535   0.407  0.6009  0.1960 -0.5646
 4426TIP3    H134913   2.369   3.441   0.425  3.6827  0.2137 -1.9565
 4426TIP3    H234914   2.406   3.551   0.327  0.5171  3.0996 -0.1469
 4427TIP3   OH234915   0.582   4.810   8.049 -0.2731  0.5089 -0.7218
 4427TIP3    H134916   0.607   4.903   8.053 -0.7182  0.6745 -1.6631
 4427TIP3    H234917   0.657   4.767   8.009 -0.6398  0.6906 -1.6222
 4428TIP3   OH234918   3.810   2.885   0.689 -0.4889 -0.5050 -0.1901
 4428TIP3    H134919   3.851   2.916   0.609 -2.0965 -0.7377 -1.1419
 4428TIP3    H234920   3.881   2.844   0.738  0.8253  0.9442 -0.7880
 4429TIP3   OH234921   4.380   0.901   1.289  0.4603  0.0966  0.2218
 4429TIP3    H134922   4.466   0.873   1.256  0.6110 -0.9416  1.4072
 4429TIP3    H234923   4.331   0.819   1.298  0.4576  0.2837  2.5845
 4430TIP3   OH234924   5.426   3.566   0.927 -0.3028 -0.0396 -0.4410
 4430TIP3    H134925   5.363   3.512   0.974  1.2310 -0.4771  1.2676
 4430TIP3    H234926   5.391   3.654   0.931 -1.0854 -0.3626 -0.0428
 4431TIP3   OH234927   4.911   3.219   7.467  0.2256  0.0550 -0.3144
 4431TIP3    H134928   4.919   3.298   7.413  1.5131 -0.1562 -0.4505
 4431TIP3    H234929   4.974   3.157   7.430  0.1055 -0.6072  0.5491
 4432TIP3   OH234930   0.935   4.092   0.484  0.2614 -0.7182 -0.3501
 4432TIP3    H134931   0.859   4.034   0.481  1.5477 -2.4853  0.3439
 4432TIP3    H234932   0.909   4.166   0.428 -0.9206 -2.5393 -2.4091
 4433TIP3   OH234933   6.859   6.872   1.942 -0.8878 -0.4750  0.3490
 4433TIP3    H134934   6.893   6.962   1.946  0.4099 -0.9908  1.7604
 4433TIP3    H234935   6.883   6.843   1.854 -1.5157  0.6139 -0.2108
 4434TIP3   OH234936   0.619   1.619   7.366  1.0188  0.1630 -0.0247
 4434TIP3    H134937   0.528   1.608   7.339  1.0031 -0.4440  0.2591
 4434TIP3    H234938   0.646   1.532   7.396  1.3996  0.5460  0.7679
 4435TIP3   OH234939   1.222   3.101   0.256  0.5698  0.5860 -0.0631
 4435TIP3    H134940   1.126   3.103   0.253  0.5425 -0.5792 -0.8227
 4435TIP3    H234941   1.244   3.138   0.342 -0.5352  1.2544 -0.0499
 4436TIP3   OH234942   0.624   5.814   8.150  0.2406  0.0337 -0.1885
 4436TIP3    H134943   0.623   5.745   8.217  1.6501 -0.9172 -1.1044
 4436TIP3    H234944   0.535   5.815   8.115 -0.0167 -0.7444  0.4122
 4437TIP3   OH234945   0.862   6.731   6.282 -0.1175 -0.5957  0.0896
 4437TIP3    H134946   0.834   6.803   6.227 -0.4093 -1.0400 -0.3555
 4437TIP3    H234947   0.817   6.746   6.365  0.5628  0.2395  0.3232
 4438TIP3   OH234948   1.614   5.855   8.138 -0.1622 -0.2139 -0.3367
 4438TIP3    H134949   1.694   5.806   8.156 -0.0358 -0.0190 -0.3641
 4438TIP3    H234950   1.642   5.946   8.131  0.0130 -0.3699 -2.7300
 4439TIP3   OH234951   0.478   5.955   7.171 -0.6369  0.0842  0.4274
 4439TIP3    H134952   0.521   5.891   7.227 -0.5859 -1.0789 -0.8973
 4439TIP3    H234953   0.490   5.922   7.082 -1.4137  1.4575 -0.2245
 4440TIP3   OH234954   3.487   0.504   0.839 -0.2503  0.1086  0.4430
 4440TIP3    H134955   3.460   0.583   0.794 -0.2230 -1.0006 -1.6322
 4440TIP3    H234956   3.405   0.458   0.858 -0.1749 -0.8029 -1.2064
 4441TIP3   OH234957   3.412   1.787   1.768  0.4047  0.3473  0.3308
 4441TIP3    H134958   3.455   1.741   1.840 -2.4045  1.0591  2.6459
 4441TIP3    H234959   3.330   1.740   1.755  0.4063  0.8379 -1.7905
 4442TIP3   OH234960   2.583   2.094   0.701 -0.3877 -0.0784  0.1417
 4442TIP3    H134961   2.492   2.094   0.672 -0.5932  0.3746  0.7667
 4442TIP3    H234962   2.578   2.089   0.797  0.2673 -1.0412  0.1413
 4443TIP3   OH234963   6.510   1.330   8.291 -0.1177  0.1152 -0.3688
 4443TIP3    H134964   6.586   1.312   8.236 -0.7946  1.4336 -1.8135
 4443TIP3    H234965   6.451   1.380   8.235 -0.7111  1.8585  1.6703
 4444TIP3   OH234966   2.540   4.681   1.137 -0.2485 -0.9850 -0.4367
 4444TIP3    H134967   2.516   4.763   1.094 -0.5828 -0.2780  1.0404
 4444TIP3    H234968   2.634   4.690   1.156 -0.7540  0.1360  1.8679
 4445TIP3   OH234969   6.618   6.479   1.220  0.5143 -0.4029  0.7349
 4445TIP3    H134970   6.578   6.526   1.292 -0.0719  2.7520 -1.4301
 4445TIP3    H234971   6.566   6.505   1.143  3.0790 -0.8954 -1.3040
 4446TIP3   OH234972   4.423   4.148   1.118  0.3254  0.0383  0.6102
 4446TIP3    H134973   4.385   4.099   1.044 -0.9708  0.3023  1.0750
 4446TIP3    H234974   4.447   4.233   1.082  1.5602 -0.5205  0.0533
 4447TIP3   OH234975   6.258   3.287   2.445 -0.2662  0.3174  0.1354
 4447TIP3    H134976   6.303   3.371   2.440  0.3033  0.1238  1.5051
 4447TIP3    H234977   6.207   3.292   2.527 -0.5145 -0.5250  0.0447
 4448TIP3   OH234978   0.601   0.432   7.095  0.0263  0.0330 -0.3725
 4448TIP3    H134979   0.684   0.385   7.083 -0.0390 -0.0764 -0.3920
 4448TIP3    H234980   0.541   0.366   7.128 -0.4256 -0.2079 -1.6517
 4449TIP3   OH234981   4.289   6.713   0.782  0.1440 -0.3028  0.1930
 4449TIP3    H134982   4.265   6.628   0.819  0.2026 -0.1397  0.6143
 4449TIP3    H234983   4.302   6.696   0.689 -2.8124 -0.1717 -0.3418
 4450TIP3   OH234984   6.129   4.496   7.793  0.4901  0.1815 -0.6890
 4450TIP3    H134985   6.125   4.404   7.820 -1.8948  0.4001 -0.0722
 4450TIP3    H234986   6.188   4.537   7.857  0.2111 -0.5934  0.0842
 4451TIP3   OH234987   3.733   1.344   8.404 -0.0544  0.0672 -0.2129
 4451TIP3    H134988   3.782   1.414   8.447  0.2514 -0.5624  0.4984
 4451TIP3    H234989   3.799   1.280   8.378 -0.5120 -1.4904  2.0379
 4452TIP3   OH234990   2.098   6.586   1.764  0.0301  0.2419  0.2387
 4452TIP3    H134991   2.157   6.570   1.837  0.0007 -0.4888  0.1096
 4452TIP3    H234992   2.078   6.499   1.730 -0.0585  0.5690 -0.5576
 4453TIP3   OH234993   6.044   0.262   0.617 -0.2186  0.0933 -0.2234
 4453TIP3    H134994   6.071   0.314   0.541 -1.0208  1.0429  0.1285
 4453TIP3    H234995   5.989   0.192   0.580 -0.2997  0.3278 -0.5486
 4454TIP3   OH234996   5.949   3.104   1.385  0.3597  0.0004  0.4051
 4454TIP3    H134997   5.935   3.037   1.318 -1.9240  0.5388  0.2550
 4454TIP3    H234998   5.939   3.057   1.468  0.2002 -0.1233  0.3174
 4455TIP3   OH234999   5.224   0.893   0.496  0.3176 -0.6599  0.1944
 4455TIP3    H135000   5.293   0.839   0.535  1.4074 -0.3102 -1.1839
 4455TIP3    H235001   5.270   0.960   0.446 -1.0143 -0.6009 -1.0380
 4456TIP3   OH235002   0.078   2.819   0.399  0.1501  0.5522  0.5416
 4456TIP3    H135003   0.070   2.870   0.480 -0.3839 -1.4429  1.8517
 4456TIP3    H235004  -0.009   2.781   0.386  0.2778  0.7054 -0.9007
 4457TIP3   OH235005   2.711   3.407   8.555  0.2650  0.4136 -0.2437
 4457TIP3    H135006   2.629   3.359   8.566 -0.5459  1.6772 -0.5741
 4457TIP3    H235007   2.692   3.473   8.488  1.5419  0.7574 -0.3016
 4458TIP3   OH235008   2.082   5.928   1.034  0.0987  0.2465 -0.0988
 4458TIP3    H135009   2.070   5.920   1.129 -2.0293 -1.1051 -0.4340
 4458TIP3    H235010   2.137   5.853   1.010 -0.8936 -0.4818 -0.1526
 4459TIP3   OH235011   1.239   4.283   2.094 -0.6034 -0.2019 -0.1471
 4459TIP3    H135012   1.196   4.259   2.176 -0.5864 -0.7072 -0.2873
 4459TIP3    H235013   1.180   4.253   2.025 -0.1655 -0.6520 -0.3359
 4460TIP3   OH235014   6.235   3.246   1.034  0.3103 -0.5844 -0.0380
 4460TIP3    H135015   6.257   3.302   1.109  0.8017 -0.5406 -0.2122
 4460TIP3    H235016   6.272   3.161   1.057 -0.3438 -0.8163  0.1792
 4461TIP3   OH235017   1.523   2.898   1.976  0.3636 -0.1512  0.9552
 4461TIP3    H135018   1.608   2.940   1.971  0.5965 -0.5610  1.4839
 4461TIP3    H235019   1.542   2.804   1.979 -0.0917 -0.2317  1.4236
 4462TIP3   OH235020   4.191   5.984   8.237 -0.4745  0.2468 -0.5417
 4462TIP3    H135021   4.227   6.052   8.180  0.2117 -0.0142 -0.4286
 4462TIP3    H235022   4.147   5.924   8.177 -2.4015  1.5490 -0.5179
 4463TIP3   OH235023   5.217   1.634   7.511 -0.2181  0.1590  0.4440
 4463TIP3    H135024   5.310   1.655   7.521 -0.4650  1.6641 -0.0394
 4463TIP3    H235025   5.180   1.645   7.599 -0.2949  1.6990  0.2474
 4464TIP3   OH235026   4.932   3.169   0.728 -0.1591 -0.5933 -0.1803
 4464TIP3    H135027   4.998   3.124   0.781 -1.0194  0.0850  1.5455
 4464TIP3    H235028   4.983   3.217   0.662  1.1391  0.3563  1.4332
 4465TIP3   OH235029   2.138   6.271   6.884  0.0775 -0.3289 -0.0774
 4465TIP3    H135030   2.140   6.227   6.799 -0.1740 -0.9052  0.2085
 4465TIP3    H235031   2.228   6.300   6.899  0.3775 -1.2522 -0.0199
 4466TIP3   OH235032   6.232   4.150   1.579  0.6063  0.0622 -0.0914
 4466TIP3    H135033   6.251   4.142   1.673 -0.1884  0.8653  0.1499
 4466TIP3    H235034   6.303   4.102   1.536  0.7443 -0.6815  0.9327
 4467TIP3   OH235035   2.239   5.612   1.382 -0.9436 -0.5325 -0.2870
 4467TIP3    H135036   2.266   5.614   1.473 -0.0397  1.6604 -0.5452
 4467TIP3    H235037   2.147   5.584   1.384 -0.5405 -1.8707  1.1334
 4468TIP3   OH235038   2.342   3.460   2.327 -0.3008  0.2863 -0.2646
 4468TIP3    H135039   2.320   3.427   2.239 -0.7315 -2.3658  0.7244
 4468TIP3    H235040   2.330   3.554   2.321  0.3798  0.2866 -3.2397
 4469TIP3   OH235041   1.379   2.636   2.357  0.5472 -0.3169 -0.5842
 4469TIP3    H135042   1.472   2.635   2.334  1.0637  1.1840  1.2220
 4469TIP3    H235043   1.378   2.647   2.452 -1.4999 -0.7648 -0.5068
 4470TIP3   OH235044   3.841   2.989   1.594  0.1422  0.7531 -0.5623
 4470TIP3    H135045   3.810   3.070   1.635 -2.1445 -0.2254 -0.2119
 4470TIP3    H235046   3.768   2.960   1.540 -0.0244 -2.2266  1.0787
 4471TIP3   OH235047   2.323   4.562   6.562 -0.3963 -0.0598 -0.1037
 4471TIP3    H135048   2.255   4.602   6.508 -0.2201  0.1178 -0.1959
 4471TIP3    H235049   2.392   4.539   6.500 -0.2491  0.0255  0.0269
 4472TIP3   OH235050   0.985   1.188   1.575 -0.8682 -0.0684  0.4708
 4472TIP3    H135051   1.012   1.231   1.656 -0.2911 -2.8012  1.8272
 4472TIP3    H235052   0.922   1.122   1.603 -1.5230 -0.3248 -1.4750
 4473TIP3   OH235053   5.503   2.297   1.991 -0.0385 -0.0836  0.3756
 4473TIP3    H135054   5.535   2.220   2.037  0.8721  1.6776  2.8638
 4473TIP3    H235055   5.408   2.289   1.995 -0.0043 -1.9365 -1.0508
 4474TIP3   OH235056   6.462   1.739   7.147  0.5763  0.4294 -0.2882
 4474TIP3    H135057   6.369   1.717   7.135  0.9231 -1.4762  0.2125
 4474TIP3    H235058   6.501   1.659   7.182  2.8789  0.4010 -2.6555
 4475TIP3   OH235059   0.534   1.204   0.484  0.2830  0.0316 -0.1227
 4475TIP3    H135060   0.563   1.114   0.465  1.1500 -0.0126  1.2793
 4475TIP3    H235061   0.550   1.252   0.402  0.8136 -0.8456 -0.5553
 4476TIP3   OH235062   5.768   0.177   8.135 -0.1919 -0.2983  0.2541
 4476TIP3    H135063   5.780   0.112   8.066  0.8855  0.1615 -0.0067
 4476TIP3    H235064   5.673   0.184   8.145 -0.3361 -1.1483 -0.4338
 4477TIP3   OH235065   1.910   0.684   1.602  0.6107 -0.2111  0.1700
 4477TIP3    H135066   1.895   0.737   1.680 -1.3288 -0.3299 -0.0795
 4477TIP3    H235067   1.874   0.598   1.624 -0.5357 -0.0691 -1.0480
 4478TIP3   OH235068   3.656   0.502   1.572  0.5714 -0.2137  0.3894
 4478TIP3    H135069   3.743   0.519   1.607  1.4324 -1.1836 -1.1755
 4478TIP3    H235070   3.651   0.406   1.565 -0.5909 -0.1657  0.3499
 4479TIP3   OH235071   1.416   0.177   1.618  0.2844 -0.1713 -0.2992
 4479TIP3    H135072   1.422   0.247   1.553 -1.0734  1.0998  0.8642
 4479TIP3    H235073   1.502   0.177   1.661  0.2704  0.8923 -0.2300
 4480TIP3   OH235074   1.817   6.301   6.921  0.1535 -0.2347  0.1934
 4480TIP3    H135075   1.862   6.385   6.911  0.5306 -0.5984 -1.5869
 4480TIP3    H235076   1.886   6.238   6.942  0.1560 -0.4176 -0.3544
 4481TIP3   OH235077   3.267   4.901   0.681  0.7609 -0.2041  0.0793
 4481TIP3    H135078   3.216   4.948   0.747 -0.0258  0.0582 -0.6888
 4481TIP3    H235079   3.308   4.829   0.728  2.7108  1.6951  1.4755
 4482TIP3   OH235080   0.507   2.804   7.624 -0.4666 -0.7893 -0.0700
 4482TIP3    H135081   0.550   2.719   7.637  3.1041  0.9419  0.9076
 4482TIP3    H235082   0.519   2.849   7.708  1.2980  2.0227 -1.6733
 4483TIP3   OH235083   4.972   1.835   7.522  0.3017 -0.2154 -0.8402
 4483TIP3    H135084   5.047   1.834   7.581 -1.2304 -1.9068  1.2611
 4483TIP3    H235085   4.985   1.912   7.467  1.9808  1.3097  1.5224
 4484TIP3   OH235086   3.253   6.039   8.495  0.0320  0.2336  0.3725
 4484TIP3    H135087   3.175   6.025   8.441  0.4473  1.5820 -0.6475
 4484TIP3    H235088   3.219   6.062   8.581 -0.7296  1.0232 -0.1204
 4485TIP3   OH235089   3.382   0.024   7.887 -0.2039 -0.1319 -0.0452
 4485TIP3    H135090   3.346   0.099   7.933  1.3577  0.8287 -0.3302
 4485TIP3    H235091   3.315  -0.044   7.897 -1.3032  1.0309  0.8845
 4486TIP3   OH235092   0.545   6.906   0.236  0.0116 -0.0067 -0.4473
 4486TIP3    H135093   0.550   6.998   0.264 -0.2353 -0.1930  0.2078
 4486TIP3    H235094   0.554   6.911   0.140 -2.5001  0.9386 -0.7187
 4487TIP3   OH235095   3.453   4.644   7.107 -0.3853 -0.0061  0.1111
 4487TIP3    H135096   3.518   4.610   7.169  1.4418  1.2971 -0.9961
 4487TIP3    H235097   3.392   4.571   7.095  0.6342 -1.1610  1.5011
 4488TIP3   OH235098   1.608   6.353   0.595  0.1080  0.6101 -0.4365
 4488TIP3    H135099   1.525   6.367   0.642  0.0456 -2.3201  0.5481
 4488TIP3    H235100   1.659   6.432   0.614 -1.5697  1.4662  0.9085
 4489TIP3   OH235101   5.151   0.077   2.251  0.5779  0.1051  0.0886
 4489TIP3    H135102   5.243   0.100   2.234  0.3147  0.1290 -1.5493
 4489TIP3    H235103   5.129   0.015   2.181 -0.4820 -0.3851  0.8341
 4490TIP3   OH235104   2.135   2.196   8.416  0.1701 -0.0130 -0.7749
 4490TIP3    H135105   2.198   2.267   8.409 -0.3346  0.7098  1.2215
 4490TIP3    H235106   2.065   2.232   8.470 -0.4430 -1.8025 -0.3215
 4491TIP3   OH235107   6.726   4.834   8.102  0.0679  0.3968  0.2307
 4491TIP3    H135108   6.725   4.887   8.182 -0.0116 -0.2967  0.6983
 4491TIP3    H235109   6.783   4.760   8.123 -1.0336 -0.5061  0.1264
 4492TIP3   OH235110   2.767   2.819   0.215 -0.2945  0.4516 -0.4653
 4492TIP3    H135111   2.764   2.911   0.240  1.4287  0.4302 -0.0301
 4492TIP3    H235112   2.791   2.820   0.122 -0.6194  0.4450 -0.5496
 4493TIP3   OH235113   2.266   6.539   0.457  0.1020 -0.4602 -0.6247
 4493TIP3    H135114   2.285   6.522   0.365  0.1308 -1.6354 -0.4143
 4493TIP3    H235115   2.343   6.508   0.504 -0.6852 -1.6809 -0.0732
 4494TIP3   OH235116   2.448   5.164   7.151 -0.2523 -0.1602 -0.6444
 4494TIP3    H135117   2.536   5.178   7.114 -0.1764 -2.6750 -1.6207
 4494TIP3    H235118   2.464   5.145   7.243  0.1803 -0.2606 -0.7385
 4495TIP3   OH235119   6.170   5.940   1.239 -0.2623  0.5556 -0.0315
 4495TIP3    H135120   6.190   6.034   1.245 -1.5723  0.9839 -1.7766
 4495TIP3    H235121   6.125   5.930   1.156  1.0711 -1.8882 -0.5462
 4496TIP3   OH235122   3.220   0.735   8.052  0.2583 -0.3741 -0.6113
 4496TIP3    H135123   3.279   0.807   8.073  0.4428 -0.8684  0.6500
 4496TIP3    H235124   3.180   0.711   8.136 -0.5560 -1.0794 -1.1817
 4497TIP3   OH235125   3.716   3.830   7.290  0.2109  0.3434 -0.5328
 4497TIP3    H135126   3.750   3.861   7.374 -1.6432  0.4224  0.2237
 4497TIP3    H235127   3.790   3.782   7.252  1.4535  1.2395  0.6119
 4498TIP3   OH235128   6.432   5.849   2.257  0.1810 -0.1729  0.6359
 4498TIP3    H135129   6.510   5.845   2.202 -0.6427  0.3460 -0.6000
 4498TIP3    H235130   6.467   5.853   2.347  1.5479 -0.8998  0.1754
 4499TIP3   OH235131   4.708   3.021   1.834  0.6094  0.3841 -0.8046
 4499TIP3    H135132   4.728   2.929   1.852  0.6310 -0.0530 -2.8619
 4499TIP3    H235133   4.634   3.041   1.892 -0.1889 -1.3046 -1.1798
 4500TIP3   OH235134   0.616   1.699   0.026  0.3674  0.2503  0.2195
 4500TIP3    H135135   0.666   1.713  -0.054  0.3234  0.6479  0.2561
 4500TIP3    H235136   0.532   1.665  -0.005  0.6251 -0.3329  0.1538
 4501TIP3   OH235137   6.308   1.722   0.220  0.3842 -0.3820  0.0682
 4501TIP3    H135138   6.386   1.767   0.188  0.4384 -0.5390 -0.0268
 4501TIP3    H235139   6.307   1.737   0.314 -0.8534  1.7741 -0.2288
 4502TIP3   OH235140   2.636   5.534   0.973 -0.3844 -0.1350  0.5976
 4502TIP3    H135141   2.701   5.598   0.999 -0.5258 -0.5262  1.9576
 4502TIP3    H235142   2.560   5.551   1.029 -0.7195 -0.9583  0.4224
 4503TIP3   OH235143   0.796   5.600   7.278 -0.1290 -0.0833  0.7638
 4503TIP3    H135144   0.788   5.510   7.308 -1.4024 -0.9401 -1.8668
 4503TIP3    H235145   0.797   5.594   7.182 -1.2747  2.7447  0.4649
 4504TIP3   OH235146   0.584   5.096   8.050 -0.5184  0.3461  0.1819
 4504TIP3    H135147   0.642   5.170   8.065  0.0554  0.2542 -1.3276
 4504TIP3    H235148   0.518   5.101   8.119  1.5166  0.1967  2.2358
 4505TIP3   OH235149   5.132   6.400   1.259 -0.0562 -0.0203 -0.1733
 4505TIP3    H135150   5.047   6.414   1.217 -0.1019 -2.0451 -0.8593
 4505TIP3    H235151   5.181   6.481   1.242 -1.8960  1.2868  0.4513
 4506TIP3   OH235152   0.107   6.781   2.120 -0.7633  0.9408  0.0686
 4506TIP3    H135153   0.034   6.772   2.059 -0.9289  0.7369  0.2979
 4506TIP3    H235154   0.176   6.822   2.068 -1.0829  1.2524 -0.1131
 4507TIP3   OH235155   3.948   4.039   0.202 -0.7115  0.1510  0.4080
 4507TIP3    H135156   3.876   4.090   0.238 -0.2777  1.2412 -0.2163
 4507TIP3    H235157   4.003   4.019   0.277 -1.0396  0.3614  0.7083
 4508TIP3   OH235158   5.557   0.795   7.913 -0.2608  0.3978  0.2231
 4508TIP3    H135159   5.536   0.842   7.994  2.1660  1.3086  0.4192
 4508TIP3    H235160   5.642   0.830   7.887 -0.7653 -0.2208 -2.5049
 4509TIP3   OH235161   1.083   0.644   0.019 -0.3019 -0.0389  0.1601
 4509TIP3    H135162   1.165   0.690   0.002 -0.0329 -0.4763  0.2469
 4509TIP3    H235163   1.060   0.604  -0.065 -1.8517  2.2789 -0.5960
 4510TIP3   OH235164   3.284   1.456   1.470 -0.3290  0.3297  0.0156
 4510TIP3    H135165   3.264   1.388   1.406  0.1966 -0.5260  0.7354
 4510TIP3    H235166   3.290   1.537   1.419  0.9621 -0.4632 -1.1684
 4511TIP3   OH235167   0.346   5.209   2.366 -0.6716 -0.1363 -0.2647
 4511TIP3    H135168   0.339   5.244   2.455 -2.4059 -1.0275  0.0071
 4511TIP3    H235169   0.255   5.193   2.340 -0.1737 -0.1363 -2.1113
 4512TIP3   OH235170   0.674   6.477   2.664 -0.3341 -0.4903  0.2130
 4512TIP3    H135171   0.586   6.512   2.652  0.2316  1.0721  0.3166
 4512TIP3    H235172   0.714   6.483   2.577  1.3230  3.8226  1.0076
 4513TIP3   OH235173   4.006   6.764   0.640 -0.2101 -0.2153  0.0810
 4513TIP3    H135174   4.042   6.841   0.683 -0.6197 -0.1831  0.3778
 4513TIP3    H235175   4.003   6.787   0.547 -2.5608  1.0904  0.3856
 4514TIP3   OH235176   1.157   4.736   7.693 -0.2981  0.1151  0.1034
 4514TIP3    H135177   1.189   4.807   7.638  1.6366 -0.7809 -0.0417
 4514TIP3    H235178   1.124   4.671   7.631  2.1403 -1.0162 -0.1202
 4515TIP3   OH235179   4.078   3.985   1.513 -0.3986 -0.2494 -0.0753
 4515TIP3    H135180   4.043   3.944   1.434  0.9100  1.7132 -1.8234
 4515TIP3    H235181   4.172   3.968   1.508 -0.0753  1.3271  0.1050
 4516TIP3   OH235182   4.227   0.417   8.306  0.1894 -0.2152 -0.0096
 4516TIP3    H135183   4.278   0.347   8.265  0.6544  0.6042 -0.8803
 4516TIP3    H235184   4.266   0.428   8.392  0.3845 -0.7339 -0.0283
 4517TIP3   OH235185   6.717   6.653   7.519  0.0871  0.2001  0.3050
 4517TIP3    H135186   6.631   6.669   7.480 -1.2326 -0.4018  2.7296
 4517TIP3    H235187   6.707   6.680   7.611  2.0432 -1.1834  0.9942
 4518TIP3   OH235188   3.068   4.890   8.457  0.8076 -0.2458 -0.0825
 4518TIP3    H135189   3.045   4.900   8.365 -1.9015 -2.1685  0.2666
 4518TIP3    H235190   3.078   4.979   8.489  1.4818  0.4766 -2.1188
 4519TIP3   OH235191   5.196   4.492   7.113  0.2960  0.0642  0.1035
 4519TIP3    H135192   5.273   4.544   7.091  0.6086 -0.0087  0.9851
 4519TIP3    H235193   5.149   4.483   7.031  0.7057  0.9720 -0.2385
 4520TIP3   OH235194   4.740   5.845   0.688  0.0607  0.1768 -0.1091
 4520TIP3    H135195   4.727   5.862   0.595 -4.9151  0.9771  0.4574
 4520TIP3    H235196   4.727   5.751   0.697  1.6327 -0.0844 -0.2511
 4521TIP3   OH235197   5.693   6.166   7.038 -0.4983  0.1108  0.8052
 4521TIP3    H135198   5.615   6.144   6.987 -0.2755  0.3548  0.3446
 4521TIP3    H235199   5.706   6.092   7.097 -0.6624 -0.2626  0.3750
 4522TIP3   OH235200   2.723   0.977   7.256 -0.2432  0.0306  0.0004
 4522TIP3    H135201   2.654   0.949   7.196  1.1429  1.6158 -2.5550
 4522TIP3    H235202   2.678   1.028   7.322 -1.7596 -1.0093 -0.1776
 4523TIP3   OH235203   2.012   2.369   6.088  0.1373  0.3374 -0.0032
 4523TIP3    H135204   1.938   2.321   6.052  0.2344 -0.0135  0.2576
 4523TIP3    H235205   2.077   2.301   6.107  0.6070  0.6636 -0.4306
 4524TIP3   OH235206   2.281   3.227   7.408  0.0186  0.0963 -0.3533
 4524TIP3    H135207   2.374   3.220   7.428  0.2985  1.2951 -1.1308
 4524TIP3    H235208   2.276   3.292   7.338 -1.2432 -1.1302 -1.4793
 4525TIP3   OH235209   6.365   4.564   6.895 -0.1685  0.2020  0.1080
 4525TIP3    H135210   6.305   4.498   6.860 -1.4048  0.2911  1.9218
 4525TIP3    H235211   6.340   4.645   6.850  0.4983 -0.3082 -1.1973
 4526TIP3   OH235212   3.420   6.851   8.441  0.1467 -0.6208 -0.3294
 4526TIP3    H135213   3.477   6.919   8.480 -1.0132  0.6803 -0.8286
 4526TIP3    H235214   3.335   6.894   8.433 -0.4372 -1.9358 -1.3315
 4527TIP3   OH235215   6.928   4.474   1.236 -0.3371  0.5098  0.7669
 4527TIP3    H135216   6.883   4.485   1.319 -0.0684  0.1458  0.9638
 4527TIP3    H235217   7.016   4.510   1.250  0.1557 -0.7573  1.0604
 4528TIP3   OH235218   4.702   2.305   0.595 -0.2600 -0.2348  0.9150
 4528TIP3    H135219   4.709   2.384   0.648 -0.6134 -0.8852  1.9482
 4528TIP3    H235220   4.773   2.313   0.531 -0.8169  1.3278  0.4265
 4529TIP3   OH235221   2.403   0.687   7.679 -0.5981 -0.7224  0.2432
 4529TIP3    H135222   2.320   0.668   7.724 -1.0921 -0.9505 -0.7418
 4529TIP3    H235223   2.403   0.630   7.603  0.2434 -0.3613 -0.0415
 4530TIP3   OH235224   3.959   2.937   8.607 -0.1036 -0.1907  0.1433
 4530TIP3    H135225   3.874   2.935   8.563 -0.2632  0.7869  0.3717
 4530TIP3    H235226   3.955   3.015   8.663 -0.1633 -1.7662  2.4600
 4531TIP3   OH235227   4.349   5.427   1.770 -0.1347  0.1606  0.0087
 4531TIP3    H135228   4.397   5.395   1.846  0.7003  1.6671  0.1535
 4531TIP3    H235229   4.405   5.407   1.695  0.3220  1.1418  0.0852
 4532TIP3   OH235230   5.636   4.763   0.064 -0.0006 -0.3468  0.0676
 4532TIP3    H135231   5.695   4.690   0.085  0.4513 -0.1283 -0.3957
 4532TIP3    H235232   5.673   4.838   0.112 -0.8419 -0.5570  1.0672
 4533TIP3   OH235233   1.754   4.128   8.174 -0.5330 -0.2758  0.0522
 4533TIP3    H135234   1.815   4.189   8.215 -0.1810 -0.8061  0.3117
 4533TIP3    H235235   1.668   4.170   8.185 -0.4319 -0.3467  1.2166
 4534TIP3   OH235236   6.695   4.713   1.981  0.0524  0.1593 -0.2617
 4534TIP3    H135237   6.730   4.797   2.011  0.8424 -0.7224  1.4985
 4534TIP3    H235238   6.609   4.707   2.022  0.5465 -0.4277  0.7468
 4535TIP3   OH235239   2.649   2.300   7.350  0.3341 -0.4897 -0.4763
 4535TIP3    H135240   2.625   2.330   7.438  2.1956  0.2289 -0.1715
 4535TIP3    H235241   2.607   2.363   7.292 -0.0617 -0.3610 -0.0607
 4536TIP3   OH235242   4.981   1.274   8.389 -0.0224 -0.7758  0.0887
 4536TIP3    H135243   4.901   1.326   8.390 -1.3701 -2.6193 -2.0669
 4536TIP3    H235244   5.043   1.325   8.441 -2.7265  0.4370  2.4367
 4537TIP3   OH235245   5.111   3.056   1.495  0.8215  0.1732 -0.2562
 4537TIP3    H135246   5.183   3.107   1.459  1.6658 -1.2665 -0.6783
 4537TIP3    H235247   5.032   3.101   1.465  1.5201  0.3683 -1.8759
 4538TIP3   OH235248   4.671   2.896   7.097 -0.3189  0.0638 -0.1814
 4538TIP3    H135249   4.602   2.940   7.047  0.1711  0.6524 -0.3442
 4538TIP3    H235250   4.751   2.914   7.048 -0.2128 -1.7461 -0.7322
 4539TIP3   OH235251   6.069   2.431   0.848  0.0644  0.9007 -0.2980
 4539TIP3    H135252   6.002   2.495   0.873 -0.1683  0.6693 -0.3352
 4539TIP3    H235253   6.022   2.365   0.797  0.6125  1.6559 -1.8530
 4540TIP3   OH235254   2.361   6.768   2.290  0.0468 -0.1732 -0.0896
 4540TIP3    H135255   2.442   6.765   2.238 -1.2351  1.9258 -2.4233
 4540TIP3    H235256   2.361   6.856   2.328 -0.0162 -1.0022  1.9343
 4541TIP3   OH235257   5.063   1.923   0.171 -0.4891 -0.1676 -0.3165
 4541TIP3    H135258   5.004   1.997   0.155 -0.9082 -0.6875 -1.2665
 4541TIP3    H235259   5.038   1.858   0.105  1.7312 -0.0473 -1.3594
 4542TIP3   OH235260   5.552   6.443   1.805  0.1236  0.3247 -0.2263
 4542TIP3    H135261   5.610   6.373   1.775  0.1760 -0.2547  1.1346
 4542TIP3    H235262   5.544   6.428   1.899 -1.9554  0.6069 -0.3144
 4543TIP3   OH235263   3.770   1.973   1.906 -0.7902 -0.4183  0.6926
 4543TIP3    H135264   3.676   1.989   1.911 -0.7551  1.6686 -2.4319
 4543TIP3    H235265   3.786   1.953   1.813  1.7885 -1.3920  1.2505
 4544TIP3   OH235266   6.862   6.847   7.989  0.0944 -0.5259  0.1496
 4544TIP3    H135267   6.857   6.932   7.946  1.9811 -0.1707  0.5562
 4544TIP3    H235268   6.863   6.867   8.082 -0.0027 -1.0366  0.2654
 4545TIP3   OH235269   4.644   5.233   1.616 -0.9701  0.3492  0.7034
 4545TIP3    H135270   4.710   5.301   1.623 -1.5189  1.0965 -1.0168
 4545TIP3    H235271   4.635   5.200   1.706  0.9476  0.9334  1.1637
 4546TIP3   OH235272   0.374   2.402   0.389 -0.3559 -0.3650 -0.1008
 4546TIP3    H135273   0.371   2.493   0.417 -0.2016 -0.6244  0.7906
 4546TIP3    H235274   0.285   2.383   0.360 -0.0300  0.5169 -1.8454
 4547TIP3   OH235275   3.906   5.160   1.564 -0.3638  0.5057 -0.0127
 4547TIP3    H135276   3.869   5.088   1.513  0.4292  0.2253 -0.2169
 4547TIP3    H235277   3.983   5.122   1.605  0.1979  1.3010 -0.3032
 4548TIP3   OH235278   3.862   1.879   7.662 -0.1155 -0.5310  0.0822
 4548TIP3    H135279   3.875   1.947   7.728 -0.4595 -1.9983  1.7268
 4548TIP3    H235280   3.777   1.841   7.683 -1.2539  0.3580 -2.5525
 4549TIP3   OH235281   3.291   6.038   0.799 -0.0029 -0.2853 -0.3622
 4549TIP3    H135282   3.244   6.092   0.863  0.7564 -2.4768  2.2299
 4549TIP3    H235283   3.313   6.098   0.728 -1.0506  2.2738  1.3449
 4550TIP3   OH235284   1.119   6.387   0.546 -0.5128 -0.0461 -0.0810
 4550TIP3    H135285   1.150   6.330   0.475  1.7139 -1.7017  2.0567
 4550TIP3    H235286   1.076   6.327   0.607  0.9588  0.6744  1.7371
 4551TIP3   OH235287   5.634   5.202   7.813 -0.6009  0.0174  0.0264
 4551TIP3    H135288   5.712   5.246   7.779 -1.2602  0.2710 -1.2534
 4551TIP3    H235289   5.649   5.194   7.907  2.3051 -2.6135 -0.5052
 4552TIP3   OH235290   3.187   1.828   0.313 -0.2138  0.1077  0.1997
 4552TIP3    H135291   3.136   1.762   0.359  0.4056 -0.6281 -0.1411
 4552TIP3    H235292   3.123   1.874   0.258 -0.8920  0.7392  1.4606
 4553TIP3   OH235293   0.160   6.655   7.233  0.1342  0.7276  0.1554
 4553TIP3    H135294   0.180   6.683   7.323 -0.4403 -1.7040  1.1259
 4553TIP3    H235295   0.217   6.580   7.218 -0.0842  0.8437 -1.3828
 4554TIP3   OH235296   0.100   3.097   1.905  0.0907  0.2445  0.4583
 4554TIP3    H135297   0.097   3.186   1.940  0.1378  0.0298  1.0177
 4554TIP3    H235298   0.011   3.080   1.874 -0.3080 -0.0437  1.7078
 4555TIP3   OH235299   2.618   1.028   0.590  0.3583  0.5037  0.5280
 4555TIP3    H135300   2.663   1.005   0.671  0.2969  1.0048  0.7114
 4555TIP3    H235301   2.665   1.105   0.558  0.5578  0.1471 -0.0632
 4556TIP3   OH235302   3.890   4.297   7.043  0.4087 -0.5179 -0.1285
 4556TIP3    H135303   3.852   4.264   7.125 -0.1020  0.2943 -0.0280
 4556TIP3    H235304   3.961   4.236   7.024  0.7130 -0.5705  1.0663
 4557TIP3   OH235305   1.232   3.441   0.102 -0.5739  0.3889 -0.5619
 4557TIP3    H135306   1.250   3.348   0.083  4.1567  0.5468  1.8688
 4557TIP3    H235307   1.207   3.442   0.194 -2.9438  1.4942 -1.1231
 4558TIP3   OH235308   4.089   6.887   6.772 -0.3320 -0.8794  0.0252
 4558TIP3    H135309   4.034   6.961   6.746 -1.5598 -1.8789 -0.3051
 4558TIP3    H235310   4.160   6.886   6.708  1.1804  1.5237  1.4945
 4559TIP3   OH235311   6.157   3.009   7.984 -0.1112 -0.1912  0.3609
 4559TIP3    H135312   6.202   3.093   7.972  0.6116 -0.5894  0.2404
 4559TIP3    H235313   6.126   2.985   7.897  1.1701 -0.8660  0.0656
 4560TIP3   OH235314   3.717   0.383   1.222  0.4758 -0.3500 -0.8565
 4560TIP3    H135315   3.679   0.303   1.187  0.2669  0.2896 -2.1452
 4560TIP3    H235316   3.792   0.353   1.274 -0.0184 -1.4152 -0.7419
 4561TIP3   OH235317   1.701   5.617   7.069  0.3861  0.4867 -0.1699
 4561TIP3    H135318   1.697   5.522   7.076  0.9105  0.3758 -1.1783
 4561TIP3    H235319   1.794   5.638   7.081  0.2856  0.8644 -0.0384
 4562TIP3   OH235320   1.960   1.725   1.818  0.2416 -0.1449 -0.0621
 4562TIP3    H135321   1.881   1.764   1.856 -0.2850 -2.0081  0.8589
 4562TIP3    H235322   1.989   1.789   1.753 -2.0273  0.5770 -0.4503
 4563TIP3   OH235323   6.694   5.348   7.819 -0.4953  0.1445  0.2376
 4563TIP3    H135324   6.640   5.339   7.740 -1.4615 -0.1249  0.9093
 4563TIP3    H235325   6.783   5.328   7.790 -0.7811  0.4139 -0.8578
 4564TIP3   OH235326   3.525   5.195   6.277 -0.1728  0.1567  0.0283
 4564TIP3    H135327   3.573   5.277   6.269  0.2629 -0.0763  0.2104
 4564TIP3    H235328   3.507   5.186   6.371 -0.4829  0.1871 -0.0245
 4565TIP3   OH235329   1.930   5.060   7.817  0.6977  0.7624  0.1007
 4565TIP3    H135330   1.951   4.977   7.776  0.6426 -0.0456  1.6366
 4565TIP3    H235331   1.873   5.037   7.890 -0.1486  2.2625 -0.0385
 4566TIP3   OH235332   4.282   2.972   8.536 -0.5688  0.0093 -0.6853
 4566TIP3    H135333   4.194   2.962   8.573  0.5207 -0.9481  1.8331
 4566TIP3    H235334   4.291   3.067   8.522 -1.4260  0.3143  0.6208
 4567TIP3   OH235335   1.478   0.966   0.812  0.8128  0.2628  0.2008
 4567TIP3    H135336   1.421   0.951   0.736 -0.2258 -0.6000  1.1078
 4567TIP3    H235337   1.562   0.993   0.775  0.3179 -0.1195 -1.2451
 4568TIP3   OH235338   0.752   1.897   1.254  0.3013  0.3087  0.6809
 4568TIP3    H135339   0.696   1.839   1.203 -0.8366  0.6185  1.5624
 4568TIP3    H235340   0.806   1.838   1.306  0.1754  0.0275  0.4962
 4569TIP3   OH235341   3.251   3.548   6.967 -0.1037  0.5369  0.4683
 4569TIP3    H135342   3.333   3.500   6.959 -0.7122 -0.2563 -1.5074
 4569TIP3    H235343   3.238   3.589   6.882 -2.0675  0.0865  0.4907
 4570TIP3   OH235344   4.259   4.405   7.232 -0.8479  0.2789 -0.5244
 4570TIP3    H135345   4.319   4.447   7.294 -3.2313  0.7315  1.6917
 4570TIP3    H235346   4.306   4.328   7.200  1.2061  1.1006  0.3805
 4571TIP3   OH235347   4.847   1.313   0.315  0.2018  0.4134  0.2031
 4571TIP3    H135348   4.819   1.388   0.263  1.0535  0.6953  0.1317
 4571TIP3    H235349   4.778   1.302   0.381 -0.3395  0.7299 -0.3009
 4572TIP3   OH235350   3.737   3.501   7.351  0.7568  0.4570  0.1049
 4572TIP3    H135351   3.653   3.513   7.396  0.7985 -0.8558  0.5888
 4572TIP3    H235352   3.802   3.520   7.419  0.8268 -0.0388  0.1834
 4573TIP3   OH235353   2.660   4.761   8.165  0.4223  0.4065 -0.0669
 4573TIP3    H135354   2.574   4.769   8.124 -0.6631  1.8789  2.3177
 4573TIP3    H235355   2.697   4.849   8.160  1.8162 -0.1908 -0.9783
 4574TIP3   OH235356   5.187   4.950   6.837 -0.6492  0.2554  0.1189
 4574TIP3    H135357   5.159   5.008   6.766  0.2798 -0.1349 -0.5862
 4574TIP3    H235358   5.276   4.924   6.813  0.8650  2.3635  2.7935
 4575TIP3   OH235359   1.466   5.727   0.388  0.2275  0.0560  0.3243
 4575TIP3    H135360   1.519   5.762   0.460 -0.1160 -0.8078  1.0229
 4575TIP3    H235361   1.520   5.659   0.348 -0.3052 -0.7869  1.0011
 4576TIP3   OH235362   6.316   5.152   1.208 -0.2624  0.4543  0.0643
 4576TIP3    H135363   6.291   5.240   1.179 -0.2143  0.3844 -0.1927
 4576TIP3    H235364   6.271   5.093   1.147 -1.9098  0.2255  1.4165
 4577TIP3   OH235365   2.768   3.632   7.409  0.8169 -0.0258 -0.2681
 4577TIP3    H135366   2.708   3.637   7.334 -0.1617 -1.3944  0.3683
 4577TIP3    H235367   2.714   3.597   7.480  1.8760  0.6600  0.9249
 4578TIP3   OH235368   6.479   6.519   8.572  0.3604  0.9945 -0.2999
 4578TIP3    H135369   6.454   6.502   8.481  0.3067 -0.6398 -0.0167
 4578TIP3    H235370   6.528   6.441   8.598  0.6513  1.5825  0.9780
 4579TIP3   OH235371   6.064   4.317   0.750  0.1248  0.7538 -0.0090
 4579TIP3    H135372   6.136   4.370   0.784 -0.2007  0.2724  1.5461
 4579TIP3    H235373   6.016   4.289   0.829 -3.2665  3.1311 -1.0189
 4580TIP3   OH235374   6.754   1.490   1.024  0.1846  0.0985  0.3306
 4580TIP3    H135375   6.754   1.546   1.102 -0.3922  2.0367 -0.9869
 4580TIP3    H235376   6.842   1.500   0.987 -0.6088  2.0832 -1.1720
 4581TIP3   OH235377   5.619   5.363   1.081 -0.8614 -0.2227  0.2256
 4581TIP3    H135378   5.575   5.329   1.003  0.6173 -2.8324  0.4177
 4581TIP3    H235379   5.550   5.365   1.148 -1.4790 -0.8835 -0.3775
 4582TIP3   OH235380   2.745   3.449   8.165 -0.2081 -0.2231  0.5119
 4582TIP3    H135381   2.662   3.400   8.170  0.1009 -0.6765  1.5216
 4582TIP3    H235382   2.812   3.381   8.156  0.0892  0.1310 -0.0456
 4583TIP3   OH235383   0.972   0.534   1.783  0.4402 -0.1278  0.0300
 4583TIP3    H135384   0.931   0.520   1.698 -0.2101  0.6802  0.2006
 4583TIP3    H235385   1.036   0.603   1.768  0.6547 -0.3126  0.0961
 4584TIP3   OH235386   1.112   2.073   2.090  0.0755 -0.0639 -0.1472
 4584TIP3    H135387   1.182   2.134   2.113 -0.7345  1.1069 -0.6978
 4584TIP3    H235388   1.146   1.988   2.116  1.5959  0.4988 -0.1514
 4585TIP3   OH235389   0.833   4.581   8.070 -0.4914 -0.2871 -0.6151
 4585TIP3    H135390   0.891   4.642   8.115 -2.3364  0.3727  1.0418
 4585TIP3    H235391   0.824   4.616   7.982 -1.1613  1.6519  0.1643
 4586TIP3   OH235392   1.581   2.202   1.026 -0.4050 -0.2909 -0.3418
 4586TIP3    H135393   1.622   2.233   0.945  1.3328 -0.2561  0.5044
 4586TIP3    H235394   1.559   2.283   1.074 -0.9077 -0.3181 -0.5234
 4587TIP3   OH235395   5.275   3.706   0.687  0.1961  0.4058 -0.3903
 4587TIP3    H135396   5.241   3.618   0.701  0.3692  0.4666  0.4494
 4587TIP3    H235397   5.369   3.695   0.675  0.0720  0.3712 -1.4070
 4588TIP3   OH235398   2.268   4.363   1.869 -0.2845 -0.5788  0.0706
 4588TIP3    H135399   2.278   4.328   1.958  0.4982  1.2090  0.7398
 4588TIP3    H235400   2.352   4.406   1.851 -1.6827  2.3515 -0.0105
 4589TIP3   OH235401   3.018   3.805   1.807  0.1821  0.3530  0.6485
 4589TIP3    H135402   3.058   3.862   1.873 -0.1575 -0.0819  1.2421
 4589TIP3    H235403   3.092   3.773   1.755  0.3552  1.4854  0.1744
 4590TIP3   OH235404   1.517   3.322   7.628 -0.1794  0.0145  0.2027
 4590TIP3    H135405   1.451   3.259   7.599  0.4239 -0.4158 -0.2809
 4590TIP3    H235406   1.585   3.318   7.560  0.7515 -0.2021  1.1071
 4591TIP3   OH235407   4.033   5.986   0.656  0.0428  0.6517  0.0498
 4591TIP3    H135408   3.997   6.070   0.684 -0.8411 -0.1721  1.5337
 4591TIP3    H235409   4.110   5.973   0.712  0.0638  0.4037 -0.0359
 4592TIP3   OH235410   0.955   5.674   8.040  0.5058  0.2754  0.3004
 4592TIP3    H135411   0.936   5.745   8.101  0.9432  0.7053 -0.0479
 4592TIP3    H235412   0.964   5.597   8.095  0.7781  0.6345  0.7682
 4593TIP3   OH235413   4.827   5.245   1.336 -0.0605  0.3211  0.5878
 4593TIP3    H135414   4.828   5.166   1.283  0.2257 -0.2151  1.3673
 4593TIP3    H235415   4.736   5.256   1.363 -0.1620  0.4595  0.1838
 4594TIP3   OH235416   4.101   0.145   1.941 -0.5141  0.3400  0.3024
 4594TIP3    H135417   4.063   0.123   2.026 -0.7995  1.3465  0.4469
 4594TIP3    H235418   4.025   0.153   1.883 -0.4627  1.2712  0.3416
 4595TIP3   OH235419   0.357   1.500   0.274 -0.1195  0.5978  0.9907
 4595TIP3    H135420   0.435   1.455   0.243 -1.0732 -0.3498 -0.0914
 4595TIP3    H235421   0.339   1.462   0.361 -0.1669 -0.1793  0.6443
 4596TIP3   OH235422   0.547   4.033   0.033  0.8813  0.2501  0.1655
 4596TIP3    H135423   0.574   4.107   0.088  0.4318  0.6072 -0.0846
 4596TIP3    H235424   0.547   3.958   0.092 -0.0817  0.7208  0.7831
 4597TIP3   OH235425   0.346   1.494   2.264 -0.5893 -0.0446 -0.4324
 4597TIP3    H135426   0.356   1.454   2.351  1.0776 -2.0042 -1.4498
 4597TIP3    H235427   0.252   1.488   2.247 -1.0277  0.8115  1.3844
 4598TIP3   OH235428   1.298   6.476   1.349 -0.8125 -0.2742  0.2059
 4598TIP3    H135429   1.256   6.502   1.431  0.9251  0.5295  0.8777
 4598TIP3    H235430   1.291   6.380   1.348  0.7959 -0.4876  2.2820
 4599TIP3   OH235431   0.477   3.840   0.680 -0.3261  0.2208  0.5718
 4599TIP3    H135432   0.504   3.916   0.732  1.1533 -0.7987  1.3743
 4599TIP3    H235433   0.467   3.770   0.744 -1.3978 -0.3523 -0.1902
 4600TIP3   OH235434   1.961   2.524   0.041  0.5201  0.5944  0.4267
 4600TIP3    H135435   2.041   2.494   0.084 -0.0084 -0.2862  0.8289
 4600TIP3    H235436   1.908   2.561   0.112 -0.2608 -0.6591  0.5302
 4601TIP3   OH235437   3.470   0.646   7.974  0.1484  0.2279 -0.4023
 4601TIP3    H135438   3.501   0.611   8.058 -0.9325  1.8552  0.7442
 4601TIP3    H235439   3.381   0.677   7.992  0.3617  1.8281 -1.7850
 4602TIP3   OH235440   3.196   2.700   0.612 -0.2270 -0.0290  0.1443
 4602TIP3    H135441   3.212   2.790   0.642 -2.0358 -0.1966  1.8383
 4602TIP3    H235442   3.168   2.710   0.521  2.2513  0.8218 -0.6000
 4603TIP3   OH235443   5.875   6.875   1.298 -0.3911  0.3288  0.0002
 4603TIP3    H135444   5.924   6.796   1.317  0.4186  0.9982  0.7644
 4603TIP3    H235445   5.797   6.844   1.250  1.3669 -0.6266 -2.4560
 4604TIP3   OH235446   3.908   0.297   0.276  0.4192 -0.0905 -0.1709
 4604TIP3    H135447   3.834   0.289   0.216  0.8057 -0.2453 -0.6344
 4604TIP3    H235448   3.924   0.391   0.284 -0.3584 -0.0167  0.5930
 4605TIP3   OH235449   1.670   3.404   7.106 -0.4449  0.8878 -0.3151
 4605TIP3    H135450   1.717   3.485   7.125 -0.8495  1.2310 -0.7433
 4605TIP3    H235451   1.589   3.433   7.063 -0.0379  0.2022 -1.6018
 4606TIP3   OH235452   6.402   5.385   7.899  0.3465  0.2268 -0.3342
 4606TIP3    H135453   6.445   5.470   7.913  0.1741 -0.0079  2.0728
 4606TIP3    H235454   6.474   5.323   7.889  0.6425  0.0979  1.9818
 4607TIP3   OH235455   0.138   5.943   7.465  0.5994 -0.3227  0.1942
 4607TIP3    H135456   0.212   5.891   7.498 -0.5536 -2.3466 -0.2947
 4607TIP3    H235457   0.158   5.957   7.373 -0.2504 -2.0829 -0.2874
 4608TIP3   OH235458   4.625   3.771   1.989  1.3278  0.4660  0.2054
 4608TIP3    H135459   4.594   3.720   2.064 -1.2599 -1.0787 -1.7595
 4608TIP3    H235460   4.680   3.711   1.940  0.8197  0.5569 -0.4982
 4609TIP3   OH235461   2.836   0.120   7.584  0.4532  0.2173 -0.1726
 4609TIP3    H135462   2.776   0.057   7.625 -0.6089  1.4725  0.2790
 4609TIP3    H235463   2.920   0.074   7.580  0.0248 -0.7744  1.3004
 4610TIP3   OH235464   4.813   1.659   0.584  0.2073 -0.6239  0.2220
 4610TIP3    H135465   4.904   1.630   0.577  0.3866  0.1146 -0.6096
 4610TIP3    H235466   4.817   1.754   0.575 -0.6005 -0.5280  0.7229
 4611TIP3   OH235467   4.374   4.862   0.691 -0.7029  0.6976 -0.2026
 4611TIP3    H135468   4.416   4.813   0.761  0.1622 -0.5930 -1.5544
 4611TIP3    H235469   4.446   4.910   0.650 -0.9584  0.4261 -0.9863
 4612TIP3   OH235470   5.270   5.487   1.659 -0.0732  0.8952 -0.1080
 4612TIP3    H135471   5.327   5.438   1.599  0.2625  1.3466 -0.1617
 4612TIP3    H235472   5.235   5.420   1.718  0.3032  0.5704 -0.2445
 4613TIP3   OH235473   6.381   0.665   7.894 -0.1919  0.8883  0.2161
 4613TIP3    H135474   6.434   0.586   7.896 -1.6557 -0.1489  3.2829
 4613TIP3    H235475   6.350   0.676   7.984 -3.8143  2.3277 -1.0258
 4614TIP3   OH235476   0.846   5.953   1.721  0.6792 -0.4393 -0.2141
 4614TIP3    H135477   0.765   5.905   1.704  0.5606 -0.5958  0.7237
 4614TIP3    H235478   0.819   6.045   1.723  0.4002 -0.5368  0.7455
 4615TIP3   OH235479   6.628   0.379   0.923  0.0868  0.2145 -0.3266
 4615TIP3    H135480   6.682   0.395   0.846 -0.1224 -1.7614 -0.9389
 4615TIP3    H235481   6.683   0.324   0.980 -0.0487  1.0057  0.6033
 4616TIP3   OH235482   3.965   4.627   7.671  0.2647 -0.1601 -0.0581
 4616TIP3    H135483   3.871   4.620   7.656  0.0819  1.2382  0.2159
 4616TIP3    H235484   4.001   4.543   7.643 -0.8640 -0.1151 -1.7706
 4617TIP3   OH235485   1.405   1.649   1.530 -0.3921 -0.2654  0.2961
 4617TIP3    H135486   1.450   1.730   1.508 -0.6999 -0.1262  0.1641
 4617TIP3    H235487   1.379   1.612   1.445 -0.4804 -0.3683  0.3673
 4618TIP3   OH235488   2.622   3.373   0.577  0.6757  0.2839  0.5154
 4618TIP3    H135489   2.688   3.425   0.531  1.2645  0.5011  1.5812
 4618TIP3    H235490   2.647   3.378   0.669  0.9675 -2.1488  0.6457
 4619TIP3   OH235491   6.703   3.004   6.848  0.0530  0.3357  0.1563
 4619TIP3    H135492   6.623   3.056   6.838  0.5495  1.1401  0.2898
 4619TIP3    H235493   6.752   3.019   6.768  0.3658  0.3782  0.3522
 4620TIP3   OH235494   2.273   0.061   0.863  0.3777  0.3179 -0.1846
 4620TIP3    H135495   2.327   0.012   0.801  1.1293 -0.3333  0.9497
 4620TIP3    H235496   2.336   0.116   0.910  0.0586 -0.3556  1.0725
 4621TIP3   OH235497   1.821   4.135   0.430  0.2238 -0.7024  0.0932
 4621TIP3    H135498   1.791   4.223   0.410  1.2220 -0.6748 -1.4110
 4621TIP3    H235499   1.809   4.086   0.349 -1.2606 -2.2495  1.1763
 4622TIP3   OH235500   4.008   3.180   7.884  0.3466 -0.2523 -0.0687
 4622TIP3    H135501   3.953   3.129   7.824  0.5153  0.6560 -1.0264
 4622TIP3    H235502   4.074   3.220   7.828 -0.5397  2.0546  0.3993
 4623TIP3   OH235503   3.062   4.796   6.615  1.0771  0.1429  0.4092
 4623TIP3    H135504   3.129   4.855   6.650  0.1036  1.8949 -0.5244
 4623TIP3    H235505   3.080   4.792   6.521  0.7641 -0.5861  0.3744
 4624TIP3   OH235506   4.009   5.053   1.161 -0.3682  0.7096  0.0084
 4624TIP3    H135507   3.972   5.131   1.202 -0.7418  0.8913 -0.6672
 4624TIP3    H235508   4.097   5.079   1.133 -0.6390  1.0129 -0.5718
 4625TIP3   OH235509   1.240   1.159   8.165 -0.1066 -0.0258 -0.0095
 4625TIP3    H135510   1.206   1.241   8.129 -2.2240 -0.8908 -0.1625
 4625TIP3    H235511   1.326   1.181   8.201  0.0838  1.8617 -1.5263
 4626TIP3   OH235512   5.935   6.391   1.961 -0.0569 -0.7310  0.3481
 4626TIP3    H135513   5.862   6.390   1.898 -0.7653  0.0018  1.1244
 4626TIP3    H235514   5.900   6.345   2.037  0.7311 -1.4419  0.2913
 4627TIP3   OH235515   3.100   0.900   8.447 -0.2456  0.3290 -0.3863
 4627TIP3    H135516   3.062   0.985   8.427  1.8120  1.4414  0.1692
 4627TIP3    H235517   3.189   0.919   8.475 -0.3399 -1.8190  1.7823
 4628TIP3   OH235518   0.904   5.884   8.460 -0.0076  0.0585 -0.1527
 4628TIP3    H135519   0.864   5.881   8.547 -0.8239 -1.4677 -0.5474
 4628TIP3    H235520   0.918   5.793   8.437  1.3264  0.4842 -1.1338
 4629TIP3   OH235521   3.235   1.455   7.128 -0.1632  0.2210 -0.0169
 4629TIP3    H135522   3.206   1.364   7.120 -0.5259  0.2825  0.5689
 4629TIP3    H235523   3.329   1.449   7.143 -0.3156 -0.0957  0.8536
 4630TIP3   OH235524   5.139   0.053   0.177 -0.4861  0.3743 -0.2188
 4630TIP3    H135525   5.213   0.102   0.213 -0.5309  1.6388 -1.7291
 4630TIP3    H235526   5.175   0.007   0.101 -1.4469  1.9350 -1.6778
 4631TIP3   OH235527   5.043   3.514   1.259 -0.1686 -0.4377  0.1928
 4631TIP3    H135528   4.982   3.572   1.213 -0.0604 -0.8269 -0.4562
 4631TIP3    H235529   5.013   3.516   1.351 -1.0109 -0.4316 -0.0684
 4632TIP3   OH235530   3.141   6.191   6.790 -0.3404  0.2600  0.1420
 4632TIP3    H135531   3.233   6.165   6.790 -0.3888  0.0798  0.8949
 4632TIP3    H235532   3.096   6.120   6.744 -0.1333  0.2578 -0.0606
 4633TIP3   OH235533   0.098   1.446   1.401 -0.0757  0.0758  0.1123
 4633TIP3    H135534   0.187   1.420   1.424 -0.3704 -0.6265  0.5158
 4633TIP3    H235535   0.074   1.388   1.329 -0.0421  0.5876 -0.3153
 4634TIP3   OH235536   0.784   0.321   0.934 -0.5620 -0.0971  0.0246
 4634TIP3    H135537   0.846   0.248   0.940 -0.0350  0.4320  1.8571
 4634TIP3    H235538   0.784   0.346   0.842  1.4596 -0.5561 -0.1398
 4635TIP3   OH235539   1.232   5.944   0.434 -0.5361 -0.2114 -0.8027
 4635TIP3    H135540   1.142   5.915   0.450 -1.7493  3.5515  0.1621
 4635TIP3    H235541   1.274   5.939   0.520 -0.2567 -0.6425 -0.9642
 4636TIP3   OH235542   2.975   1.870   0.571 -0.6970 -0.1210 -0.3385
 4636TIP3    H135543   3.005   1.788   0.532  0.3578  0.0500  0.0773
 4636TIP3    H235544   2.880   1.870   0.557 -0.7577 -1.5521 -0.0756
 4637TIP3   OH235545   2.607   3.115   1.817 -0.8440  0.3853  0.0462
 4637TIP3    H135546   2.590   3.161   1.899  0.3013 -0.5339  0.8294
 4637TIP3    H235547   2.580   3.024   1.834 -1.3765  0.3524 -0.8796
 4638TIP3   OH235548   6.559   0.866   1.510 -0.4835  0.2980  0.2519
 4638TIP3    H135549   6.495   0.839   1.576 -0.9662  1.1673  0.1604
 4638TIP3    H235550   6.539   0.811   1.434 -0.8639  0.2808  0.3593
 4639TIP3   OH235551   6.016   6.604   0.504 -0.2454  0.2916  0.4472
 4639TIP3    H135552   6.062   6.685   0.523 -0.1915  0.3085  0.2415
 4639TIP3    H235553   6.012   6.599   0.408  0.1656 -0.1796  0.4484
 4640TIP3   OH235554   1.629   2.918   8.500 -0.1756  0.5370  0.1275
 4640TIP3    H135555   1.719   2.925   8.469 -0.2148 -1.0925 -0.4399
 4640TIP3    H235556   1.588   2.855   8.441 -1.6399  1.1001  0.5017
 4641TIP3   OH235557   0.914   0.038   0.750  0.2600 -0.0728  0.3575
 4641TIP3    H135558   0.843   0.049   0.686 -1.6551  0.9670  2.5273
 4641TIP3    H235559   0.873  -0.008   0.823  1.7784  0.7192  1.7527
 4642TIP3   OH235560   5.721   5.174   1.327 -0.6032  0.2439  0.3865
 4642TIP3    H135561   5.650   5.116   1.302  0.2011 -0.6239  0.0632
 4642TIP3    H235562   5.800   5.133   1.291  0.1467  0.8305  1.2964
 4643TIP3   OH235563   6.154   4.709   8.315 -0.0783 -0.0841 -0.1319
 4643TIP3    H135564   6.197   4.675   8.394 -1.0431 -1.5503 -0.1933
 4643TIP3    H235565   6.076   4.754   8.348 -0.6072 -0.9003 -0.2402
 4644TIP3   OH235566   1.063   0.217   1.577  0.1001  0.1265  0.2803
 4644TIP3    H135567   1.003   0.262   1.636 -0.4686  0.7316 -0.7365
 4644TIP3    H235568   1.094   0.284   1.517 -1.0592 -0.8695 -1.5126
 4645TIP3   OH235569   1.697   6.334   0.897 -0.4485  0.6320 -0.5517
 4645TIP3    H135570   1.625   6.391   0.868 -2.5578 -0.5380  1.9207
 4645TIP3    H235571   1.657   6.247   0.900  1.7236 -0.4276 -1.0305
 4646TIP3   OH235572   1.327   3.582   1.538 -0.4559 -0.2298 -0.1285
 4646TIP3    H135573   1.365   3.495   1.528  1.9073  0.8851 -2.0230
 4646TIP3    H235574   1.233   3.569   1.527 -0.3345 -2.6644  0.9865
 4647TIP3   OH235575   3.866   3.321   8.514  0.1000 -0.5976  0.1344
 4647TIP3    H135576   3.864   3.246   8.455 -0.4108 -0.8902  0.5149
 4647TIP3    H235577   3.915   3.388   8.466 -1.4160 -0.3787 -1.1714
 4648TIP3   OH235578   0.589   0.252   7.845 -0.2584  0.1320 -0.2958
 4648TIP3    H135579   0.500   0.256   7.812 -0.7875 -0.9255  0.9146
 4648TIP3    H235580   0.637   0.200   7.781 -0.2591  1.4209 -1.3987
 4649TIP3   OH235581   5.392   5.701   0.402  0.2200 -0.1698 -0.2180
 4649TIP3    H135582   5.302   5.692   0.432  0.0107  1.6182 -0.1955
 4649TIP3    H235583   5.444   5.705   0.483  0.0086  1.3313 -0.1174
 4650TIP3   OH235584   4.425   2.577   1.845  0.3673 -0.2245  0.0245
 4650TIP3    H135585   4.379   2.554   1.764  2.0492  2.6421 -1.9488
 4650TIP3    H235586   4.491   2.509   1.856 -1.6794 -2.2157  0.6872
 4651TIP3   OH235587   4.952   2.190   0.729 -0.0788 -0.2203 -0.2800
 4651TIP3    H135588   5.030   2.245   0.739  0.4717 -0.5788 -2.1280
 4651TIP3    H235589   4.879   2.247   0.750  0.5854  0.7167 -0.4477
 4652TIP3   OH235590   6.609   0.773   2.303 -0.2644 -0.2439  0.4221
 4652TIP3    H135591   6.604   0.858   2.258 -0.0450 -0.1350  0.5998
 4652TIP3    H235592   6.528   0.768   2.354 -0.2057 -0.0705  0.5334
 4653TIP3   OH235593   4.008   3.078   7.336  0.2285 -0.1368 -0.1840
 4653TIP3    H135594   3.966   2.991   7.337 -1.1945  0.5201  1.1841
 4653TIP3    H235595   4.095   3.063   7.374 -0.4090 -0.8010  1.0753
 4654TIP3   OH235596   5.474   3.743   8.064 -0.1065  0.9523  0.1856
 4654TIP3    H135597   5.525   3.779   8.137 -0.3253 -1.9824  1.9839
 4654TIP3    H235598   5.390   3.720   8.104 -0.6643  0.3335 -1.3046
 4655TIP3   OH235599   1.036   6.766   0.937  0.3320  0.6985 -0.0573
 4655TIP3    H135600   1.052   6.792   0.846  0.3220  1.1095  0.0555
 4655TIP3    H235601   1.006   6.846   0.979 -0.7711  0.2503  0.0378
 4656TIP3   OH235602   3.492   3.204   8.569 -0.3192 -0.5385 -0.2686
 4656TIP3    H135603   3.534   3.280   8.609 -1.2568  0.5038 -1.2051
 4656TIP3    H235604   3.559   3.166   8.513  0.1762 -0.4452  0.2537
 4657TIP3   OH235605   0.255   4.737   1.111  0.0983  0.2785 -0.4337
 4657TIP3    H135606   0.297   4.652   1.123 -1.3373 -0.3801  0.0555
 4657TIP3    H235607   0.197   4.724   1.036 -2.9042 -0.3278  1.8369
 4658TIP3   OH235608   0.668   1.001   7.996 -0.6293  0.1334  0.5032
 4658TIP3    H135609   0.621   0.968   8.072  0.2835 -1.5998  0.3750
 4658TIP3    H235610   0.600   1.037   7.939 -1.5718 -0.4690  1.2192
 4659TIP3   OH235611   4.682   4.057   7.970  0.3833 -0.4133 -0.8138
 4659TIP3    H135612   4.703   4.132   7.915 -1.3432  0.4040 -0.4381
 4659TIP3    H235613   4.599   4.082   8.013  1.7332 -0.8874  2.3170
 4660TIP3   OH235614   3.873   5.809   7.316 -0.2691 -0.1118 -0.3036
 4660TIP3    H135615   3.916   5.786   7.234 -1.0236 -0.8641 -0.5121
 4660TIP3    H235616   3.913   5.750   7.381 -0.8021 -0.6565 -0.4555
 4661TIP3   OH235617   4.286   2.708   1.543 -0.0344 -0.5081 -0.7857
 4661TIP3    H135618   4.206   2.746   1.579 -0.2537 -0.3277 -1.4620
 4661TIP3    H235619   4.354   2.771   1.566  0.2169 -1.4036  1.1864
 4662TIP3   OH235620   2.200   3.763   0.550  0.8292 -0.3864 -0.7746
 4662TIP3    H135621   2.240   3.792   0.632 -1.2187  2.0473 -0.5127
 4662TIP3    H235622   2.229   3.672   0.539  2.5287 -0.2219  1.7412
 4663TIP3   OH235623   4.797   5.177   7.729 -0.5506  0.2712  0.3088
 4663TIP3    H135624   4.791   5.095   7.778  0.4557  1.4062  2.4842
 4663TIP3    H235625   4.808   5.244   7.796  0.4050  2.0087 -1.4719
 4664TIP3   OH235626   1.374   2.598   7.504  0.0143 -0.8986  0.3934
 4664TIP3    H135627   1.287   2.605   7.466 -0.1942 -1.7225  0.6848
 4664TIP3    H235628   1.367   2.643   7.588 -0.5842 -2.2781  1.1161
 4665TIP3   OH235629   5.585   3.175   2.315 -0.9563  0.0317 -0.1481
 4665TIP3    H135630   5.552   3.108   2.254 -0.9526 -0.8961  0.8285
 4665TIP3    H235631   5.678   3.182   2.296  0.1262 -3.5947  2.6127
 4666TIP3   OH235632   0.473   3.725   1.213  0.7954  0.0701  0.2773
 4666TIP3    H135633   0.535   3.678   1.268  1.2088 -0.2054 -0.4142
 4666TIP3    H235634   0.387   3.692   1.240  0.8937  0.7813  1.5523
 4667TIP3   OH235635   4.596   4.717   7.710  0.1219  0.5612 -0.5180
 4667TIP3    H135636   4.564   4.663   7.638 -2.2386 -1.8618  2.0675
 4667TIP3    H235637   4.688   4.693   7.719 -0.7554 -3.0686  0.3248
 4668TIP3   OH235638   4.510   3.099   8.337  0.5363 -0.3015 -0.1864
 4668TIP3    H135639   4.491   3.084   8.244  0.6860 -0.8107 -0.1417
 4668TIP3    H235640   4.441   3.157   8.367  2.0900  2.2899 -1.2946
 4669TIP3   OH235641   6.613   2.879   0.538  0.0248 -0.2066  0.3793
 4669TIP3    H135642   6.528   2.850   0.571 -1.0645  1.3923 -0.8491
 4669TIP3    H235643   6.613   2.852   0.446  1.4826 -1.4648  0.7204
 4670TIP3   OH235644   6.485   1.726   0.597 -0.1820  0.0357  0.0838
 4670TIP3    H135645   6.488   1.775   0.514 -1.2044  2.3310  1.3046
 4670TIP3    H235646   6.554   1.765   0.650 -1.3631  0.5562  1.2810
 4671TIP3   OH235647   6.774   4.446   8.481 -0.3286  0.3450  0.0659
 4671TIP3    H135648   6.856   4.412   8.445  0.0857  0.7150  0.6398
 4671TIP3    H235649   6.800   4.522   8.534 -1.2239  1.6362 -1.2471
 4672TIP3   OH235650   5.628   2.624   7.614  0.1709  0.1332  0.5842
 4672TIP3    H135651   5.549   2.590   7.658  0.7772 -0.0350  1.5792
 4672TIP3    H235652   5.614   2.604   7.521 -0.4121 -1.0223  0.8928
 4673TIP3   OH235653   4.031   0.030   7.102  0.5913  0.4328 -0.0857
 4673TIP3    H135654   3.988  -0.024   7.036  2.0992 -1.2254  0.2261
 4673TIP3    H235655   3.960   0.065   7.155 -0.4976 -0.0969 -1.1521
 4674TIP3   OH235656   0.176   6.710   8.092  0.2173 -0.4849 -0.6215
 4674TIP3    H135657   0.191   6.796   8.054  0.7450 -0.5038 -0.4592
 4674TIP3    H235658   0.246   6.655   8.058  0.6268 -0.5340  0.2647
 4675TIP3   OH235659   3.177   2.311   1.302 -0.3192  0.0019 -0.2316
 4675TIP3    H135660   3.195   2.269   1.386 -0.7466 -0.6183 -0.4513
 4675TIP3    H235661   3.184   2.241   1.238  0.5333  0.5732 -0.7876
 4676TIP3   OH235662   1.080   1.901   7.023  0.0876  0.4720 -0.2449
 4676TIP3    H135663   1.114   1.813   7.009  0.8298  0.7448 -0.2426
 4676TIP3    H235664   1.138   1.957   6.971  0.6379  1.1183  1.0169
 4677TIP3   OH235665   0.232   0.048   8.057  0.4976  0.1284 -0.5886
 4677TIP3    H135666   0.152   0.090   8.089  0.0890  0.4822 -2.0332
 4677TIP3    H235667   0.294   0.060   8.129 -1.0804 -1.3145  1.1357
 4678TIP3   OH235668   6.165   0.004   8.389 -0.4699  0.0334 -0.1801
 4678TIP3    H135669   6.088   0.024   8.442 -1.8696 -0.1276 -2.0455
 4678TIP3    H235670   6.198   0.089   8.360  0.6385  0.1610  1.2956
 4679TIP3   OH235671   3.169   3.629   2.105  0.0948  0.2847  0.3129
 4679TIP3    H135672   3.128   3.657   2.187 -1.2326  1.0949 -0.5805
 4679TIP3    H235673   3.177   3.534   2.112 -1.5457  0.1548  0.7317
 4680TIP3   OH235674   5.044   0.859   7.873  0.0654 -0.4330  0.1524
 4680TIP3    H135675   5.137   0.840   7.877  0.2041 -0.0295 -0.8178
 4680TIP3    H235676   5.015   0.816   7.792 -0.2546  0.8043 -0.4056
 4681TIP3   OH235677   5.382   1.928   0.526 -0.5609  0.5049 -0.1023
 4681TIP3    H135678   5.368   1.846   0.479  0.5658  0.6647 -0.7423
 4681TIP3    H235679   5.312   1.986   0.494 -0.5720  0.2066 -0.6248
 4682TIP3   OH235680   1.949   0.824   8.596  1.0641  0.8415  0.7621
 4682TIP3    H135681   1.966   0.853   8.506  1.7255 -1.2632  0.1508
 4682TIP3    H235682   1.854   0.817   8.601  1.0531  0.4085  0.0330
 4683TIP3   OH235683   5.981   3.491   2.342 -0.1042  0.0643  0.1288
 4683TIP3    H135684   6.000   3.419   2.282 -0.5221  0.0472  0.0123
 4683TIP3    H235685   6.063   3.505   2.390  0.3976  0.4180 -0.7979
 4684TIP3   OH235686   5.872   1.814   7.557 -0.1532 -0.2022  0.1008
 4684TIP3    H135687   5.954   1.838   7.599 -1.4406  1.5307  1.7676
 4684TIP3    H235688   5.874   1.857   7.472  0.0965  0.9669  0.6887
 4685TIP3   OH235689   5.835   5.063   8.029  0.6667 -0.1381 -0.1511
 4685TIP3    H135690   5.824   5.031   7.940  0.0750  1.7013 -0.7758
 4685TIP3    H235691   5.750   5.098   8.053  1.3787  1.3342  0.3150
 4686TIP3   OH235692   4.754   6.653   7.974  0.3664  0.0173  0.1954
 4686TIP3    H135693   4.761   6.632   8.068  2.8956  1.3758  0.3780
 4686TIP3    H235694   4.756   6.749   7.971  2.4340 -0.0331 -1.3370
 4687TIP3   OH235695   3.109   6.513   1.939 -0.4057  0.6082  0.2325
 4687TIP3    H135696   3.100   6.580   1.871  0.9158 -0.0875 -0.6646
 4687TIP3    H235697   3.040   6.534   2.002 -1.2328  1.6777 -0.9731
 4688TIP3   OH235698   1.183   0.571   6.398  0.0627  0.2905  0.0749
 4688TIP3    H135699   1.111   0.568   6.336  0.3073  0.5926 -0.2249
 4688TIP3    H235700   1.208   0.480   6.411 -0.7670  0.1301  0.6503
 4689TIP3   OH235701   4.727   4.019   1.966  0.7537  0.1290  0.0477
 4689TIP3    H135702   4.707   3.926   1.958  3.3740 -0.5368  0.0388
 4689TIP3    H235703   4.714   4.039   2.059  0.3814 -0.3005  0.0874
 4690TIP3   OH235704   1.196   4.354   1.823  0.1968  0.2394  0.1143
 4690TIP3    H135705   1.286   4.386   1.823  0.1356  0.4183  0.4268
 4690TIP3    H235706   1.182   4.320   1.735  0.8298 -0.5293  0.2983
 4691TIP3   OH235707   5.095   3.945   1.579  0.5076 -0.3926  0.3288
 4691TIP3    H135708   5.108   3.948   1.673 -2.3878  0.6559  0.7803
 4691TIP3    H235709   5.141   4.022   1.545  0.6087 -0.1449  1.0251
 4692TIP3   OH235710   1.908   2.408   6.834  0.3625  0.0058 -0.6156
 4692TIP3    H135711   1.972   2.385   6.766 -1.7278 -0.3071 -2.5977
 4692TIP3    H235712   1.893   2.501   6.822 -0.9125 -0.2868 -1.4516
 4693TIP3   OH235713   5.238   2.590   1.303  0.2445 -0.2966  0.4241
 4693TIP3    H135714   5.152   2.631   1.294 -0.0558 -0.7672  1.0713
 4693TIP3    H235715   5.262   2.606   1.395  0.7473 -0.3619  0.3057
 4694TIP3   OH235716   6.381   5.919   1.397  0.3711 -0.0397  0.1138
 4694TIP3    H135717   6.318   5.955   1.335  1.4498  2.4303  0.3575
 4694TIP3    H235718   6.417   5.842   1.352  1.0329  1.5802 -2.3058
 4695TIP3   OH235719   3.610   2.499   8.407 -0.5482  0.1715  0.0719
 4695TIP3    H135720   3.547   2.443   8.453 -1.7915  2.0447  0.7826
 4695TIP3    H235721   3.672   2.526   8.475 -0.7803  0.7375  0.0709
 4696TIP3   OH235722   1.781   2.146   0.196  0.1176 -0.0378 -1.0343
 4696TIP3    H135723   1.859   2.195   0.221 -0.8755  1.8398 -1.4045
 4696TIP3    H235724   1.764   2.089   0.271  1.0005  0.6142 -0.3151
 4697TIP3   OH235725   4.565   1.214   1.951  0.7069  0.0793 -0.4849
 4697TIP3    H135726   4.637   1.191   1.893 -0.6179 -1.6849 -1.5508
 4697TIP3    H235727   4.546   1.133   1.999  0.6053  1.0165  1.1377
 4698TIP3   OH235728   2.279   5.903   7.073  0.2319 -0.1290 -0.2958
 4698TIP3    H135729   2.296   5.820   7.117  1.7388  0.0060 -0.5772
 4698TIP3    H235730   2.232   5.956   7.138  1.5527 -0.2790  0.8145
 4699TIP3   OH235731   5.735   4.673   2.368 -0.1665 -0.0052 -0.2762
 4699TIP3    H135732   5.672   4.676   2.297 -0.1418  0.0207 -0.2973
 4699TIP3    H235733   5.710   4.746   2.426 -0.4951 -0.3383  0.0066
 4700TIP3   OH235734   1.300   2.179   7.073 -0.4195  0.0857  0.0924
 4700TIP3    H135735   1.305   2.137   6.987  1.4657 -0.9414  0.6321
 4700TIP3    H235736   1.319   2.271   7.057 -0.5379 -0.0130 -0.6377
 4701TIP3   OH235737   4.130   3.049   1.096  0.8656 -0.1490  0.0067
 4701TIP3    H135738   4.048   3.082   1.060 -0.5210 -2.5847  0.6909
 4701TIP3    H235739   4.104   2.997   1.172  3.2441  0.5178  1.3839
 4702TIP3   OH235740   3.332   3.843   0.247 -0.0133  0.5551  0.2182
 4702TIP3    H135741   3.379   3.921   0.219  0.2367  1.3892  2.7127
 4702TIP3    H235742   3.351   3.835   0.340 -2.1310 -1.0115  0.6052
 4703TIP3   OH235743   3.584   3.757   8.030  0.1328 -0.2951 -0.3297
 4703TIP3    H135744   3.551   3.790   7.946  2.3984  0.5345 -0.9756
 4703TIP3    H235745   3.592   3.662   8.017 -0.9902 -0.3821 -0.4830
 4704TIP3   OH235746   4.789   6.243   6.450  0.1334  0.1450 -0.0077
 4704TIP3    H135747   4.847   6.176   6.413 -0.0191 -0.4640  0.8247
 4704TIP3    H235748   4.825   6.261   6.537 -1.2922 -0.7851  0.8376
 4705TIP3   OH235749   6.434   2.665   0.686 -0.2580 -0.3395 -0.2382
 4705TIP3    H135750   6.365   2.723   0.717 -0.5370 -0.8381  0.0972
 4705TIP3    H235751   6.408   2.578   0.718 -0.6076 -0.8903 -1.9349
 4706TIP3   OH235752   1.839   3.088   0.428  0.4242  0.6233 -0.2201
 4706TIP3    H135753   1.861   2.995   0.419 -1.9199  0.1083 -1.0811
 4706TIP3    H235754   1.922   3.133   0.413  1.1993 -1.2379 -1.9894
 4707TIP3   OH235755   3.229   1.501   1.849  0.3331  0.9028 -0.1350
 4707TIP3    H135756   3.274   1.425   1.812  1.2916  0.8835  0.9863
 4707TIP3    H235757   3.198   1.551   1.773  1.6660  0.5486 -0.9499
 4708TIP3   OH235758   3.780   3.279   2.519 -0.0293 -0.1462 -0.0904
 4708TIP3    H135759   3.864   3.322   2.505 -0.1865  0.1951 -0.0109
 4708TIP3    H235760   3.745   3.321   2.598  0.2365 -1.0754  0.5368
 4709TIP3   OH235761   6.322   2.802   1.585 -0.1061  0.5088  0.1489
 4709TIP3    H135762   6.266   2.859   1.533  0.0279  0.9018  0.4281
 4709TIP3    H235763   6.389   2.860   1.622 -1.2410  0.5920  2.2277
 4710TIP3   OH235764   4.095   4.359   7.590  0.3387  0.0955 -0.1799
 4710TIP3    H135765   4.129   4.324   7.508 -1.2773 -2.1793  0.0114
 4710TIP3    H235766   4.172   4.385   7.639  1.3415  1.8111 -2.4735
 4711TIP3   OH235767   0.669   1.004   8.322 -0.1003  0.2076 -0.1794
 4711TIP3    H135768   0.657   1.076   8.384 -1.8131  0.4715 -0.7427
 4711TIP3    H235769   0.753   0.965   8.345  0.2298  1.5417  1.0070
 4712TIP3   OH235770   5.726   3.603   2.382 -0.0926 -0.1253  0.2016
 4712TIP3    H135771   5.688   3.561   2.459 -0.2482 -1.0110 -0.3392
 4712TIP3    H235772   5.810   3.558   2.369 -0.0692  0.0148 -0.1494
 4713TIP3   OH235773   4.998   2.366   8.431 -0.0216 -0.4800 -0.2303
 4713TIP3    H135774   4.920   2.421   8.439  0.9161  0.6090  2.2706
 4713TIP3    H235775   5.022   2.371   8.338 -0.7949  2.1989 -0.3567
 4714TIP3   OH235776   6.788   2.496   1.869  0.4168 -0.0193 -0.6857
 4714TIP3    H135777   6.722   2.565   1.874 -0.7423 -1.1599  2.6389
 4714TIP3    H235778   6.745   2.425   1.820 -0.4700 -0.3586  0.5523
 4715TIP3   OH235779   0.714   4.397   6.841 -0.2019  0.0494  0.1302
 4715TIP3    H135780   0.667   4.371   6.921  0.1450  1.3762  0.7933
 4715TIP3    H235781   0.658   4.464   6.801 -0.8072 -1.2248 -1.2498
 4716TIP3   OH235782   4.966   5.543   8.459 -0.5645  0.0580 -0.2048
 4716TIP3    H135783   4.980   5.449   8.447 -0.1389  0.0807  0.0918
 4716TIP3    H235784   4.969   5.556   8.553 -0.5359  0.3818 -0.2484
 4717TIP3   OH235785   0.914   5.965   7.317  0.1913 -0.6138 -0.6225
 4717TIP3    H135786   0.862   5.982   7.238 -1.4343 -0.1618  0.4993
 4717TIP3    H235787   0.945   6.051   7.344  0.7531 -0.7693 -0.7661
 4718TIP3   OH235788   5.791   2.265   6.849 -0.1977  0.0700  0.2589
 4718TIP3    H135789   5.759   2.184   6.808 -0.9122  0.4464  0.0552
 4718TIP3    H235790   5.798   2.327   6.777  1.2984 -0.0764  0.2517
 4719TIP3   OH235791   3.530   4.849   0.551  0.3908 -0.9624 -0.8098
 4719TIP3    H135792   3.447   4.896   0.563 -0.4059 -2.0908 -1.6229
 4719TIP3    H235793   3.521   4.771   0.606  1.3099 -0.6324 -0.1805
 4720TIP3   OH235794   6.122   6.243   0.124 -0.0458 -0.1852  0.2789
 4720TIP3    H135795   6.103   6.293   0.044 -2.2199 -1.0764  0.1760
 4720TIP3    H235796   6.042   6.250   0.176  1.5160  0.8687  2.7175
 4721TIP3   OH235797   5.671   1.408   0.412  0.0520 -0.0252 -0.3610
 4721TIP3    H135798   5.694   1.481   0.355 -1.1129  0.9830  0.4203
 4721TIP3    H235799   5.752   1.390   0.461 -0.4524  3.0927  1.9505
 4722TIP3   OH235800   1.604   6.007   7.635 -0.0568 -0.5092  0.5015
 4722TIP3    H135801   1.541   5.956   7.686 -1.1171 -0.0472 -0.3175
 4722TIP3    H235802   1.609   6.091   7.681  1.5370 -1.2096  1.7332
 4723TIP3   OH235803   4.533   3.076   0.090 -0.3376  0.0101 -0.5471
 4723TIP3    H135804   4.440   3.054   0.085 -0.4640  0.6815 -1.5704
 4723TIP3    H235805   4.542   3.122   0.173 -0.6017 -1.4107  0.2975
 4724TIP3   OH235806   5.577   6.366   0.111  0.0988  0.0520  0.0167
 4724TIP3    H135807   5.524   6.287   0.099 -0.3108  0.2781  0.3323
 4724TIP3    H235808   5.666   6.333   0.121  0.3789 -0.2227 -2.6309
 4725TIP3   OH235809   0.463   1.473   1.439 -0.4070  0.2046 -0.1318
 4725TIP3    H135810   0.417   1.404   1.390  2.2804 -1.6490 -0.2718
 4725TIP3    H235811   0.478   1.435   1.525  0.7475  0.7677 -0.0721
 4726TIP3   OH235812   1.144   6.021   7.567 -0.2591 -0.5493 -0.3343
 4726TIP3    H135813   1.162   6.048   7.657 -2.0534  0.6553 -0.2702
 4726TIP3    H235814   1.227   5.985   7.535  0.4583 -0.8668  1.7281
 4727TIP3   OH235815   2.861   2.411   7.073 -0.3943 -0.4425 -0.8144
 4727TIP3    H135816   2.881   2.322   7.045  1.4816 -0.0846 -0.7366
 4727TIP3    H235817   2.889   2.414   7.165  2.6990  1.0734 -1.6816
 4728TIP3   OH235818   0.151   3.016   8.073 -0.1720  0.5498  0.0008
 4728TIP3    H135819   0.142   2.992   8.165 -1.2547  1.0207  0.0388
 4728TIP3    H235820   0.161   2.933   8.027  0.7981  0.3349  0.5705
 4729TIP3   OH235821   5.223   4.213   0.124  0.4591  0.6853  0.2835
 4729TIP3    H135822   5.227   4.189   0.216 -1.3355 -0.0322  0.2102
 4729TIP3    H235823   5.298   4.169   0.084 -0.2154 -1.1614  0.9536
 4730TIP3   OH235824   1.343   6.850   1.387  0.6905  0.3709  0.4563
 4730TIP3    H135825   1.339   6.944   1.403 -0.6231  0.3156  0.5643
 4730TIP3    H235826   1.283   6.811   1.451 -0.5410 -0.3176 -1.0216
 4731TIP3   OH235827   2.107   6.035   8.112  0.4518  0.3522 -0.2759
 4731TIP3    H135828   2.116   5.943   8.138  1.4981  0.4101 -0.3760
 4731TIP3    H235829   2.173   6.081   8.165 -1.1848  1.3199  1.0164
 4732TIP3   OH235830   4.620   2.668   7.241  0.7942 -0.0610  0.0575
 4732TIP3    H135831   4.636   2.728   7.169  0.4819  0.7777  0.6687
 4732TIP3    H235832   4.553   2.711   7.294  0.0943 -1.2477  0.1739
 4733TIP3   OH235833   1.216   0.900   8.374  0.1271  0.1054  0.5117
 4733TIP3    H135834   1.266   0.928   8.298  0.9537 -1.6162  0.3751
 4733TIP3    H235835   1.133   0.870   8.337 -0.1288  0.8050  0.4924
 4734TIP3   OH235836   6.561   1.907   0.122 -0.0241  1.0980 -0.7420
 4734TIP3    H135837   6.652   1.936   0.112 -0.0068  1.1715 -0.3689
 4734TIP3    H235838   6.569   1.814   0.144  0.0138  1.3999  0.5931
 4735TIP3   OH235839   4.122   2.611   8.001  0.4908 -0.7826 -0.3422
 4735TIP3    H135840   4.201   2.601   8.053  1.4159 -0.5792 -1.6492
 4735TIP3    H235841   4.148   2.671   7.931 -0.3440 -1.9631 -1.7156
 4736TIP3   OH235842   2.414   0.815   1.309 -0.2896  0.1146 -0.4365
 4736TIP3    H135843   2.340   0.847   1.257 -1.3330 -0.3487  0.7404
 4736TIP3    H235844   2.402   0.854   1.395  1.0658  0.3432 -0.3332
 4737TIP3   OH235845   4.468   5.735   0.005  0.4229  0.2556  0.9062
 4737TIP3    H135846   4.407   5.801  -0.028  2.0614  1.1524 -0.4663
 4737TIP3    H235847   4.514   5.779   0.076 -0.0150 -0.1812  1.4685
 4738TIP3   OH235848   1.684   1.511   1.656 -0.8492  0.1612  0.2033
 4738TIP3    H135849   1.688   1.527   1.562  1.4490  0.2546  0.2462
 4738TIP3    H235850   1.685   1.598   1.695 -1.8393  0.1236  0.3354
 4739TIP3   OH235851   3.214   0.013   0.794 -0.0514 -0.5756 -0.3210
 4739TIP3    H135852   3.126   0.051   0.793  0.5959  1.2035  1.6588
 4739TIP3    H235853   3.271   0.085   0.767  0.8607 -1.5116 -0.9300
 4740TIP3   OH235854   6.504   3.886   0.717 -0.1969  0.4201 -0.0365
 4740TIP3    H135855   6.560   3.963   0.710 -0.3092  0.3977 -1.7433
 4740TIP3    H235856   6.467   3.876   0.629  0.5206 -2.0928 -0.1390
 4741TIP3   OH235857   5.321   1.080   1.093  0.2350 -0.1097  0.1125
 4741TIP3    H135858   5.323   1.146   1.162 -1.4449 -2.8214  3.0676
 4741TIP3    H235859   5.237   1.092   1.050 -1.1548 -1.5435  2.2007
 4742TIP3   OH235860   4.924   3.924   8.030 -0.5259 -0.4351 -0.4707
 4742TIP3    H135861   4.938   3.836   8.065  1.4413  0.5436  1.4726
 4742TIP3    H235862   4.830   3.929   8.016 -0.9415 -2.2348  1.1424
 4743TIP3   OH235863   0.138   3.729   7.319  0.2494 -0.0676 -0.0581
 4743TIP3    H135864   0.078   3.680   7.263  1.9929 -1.4780 -0.7850
 4743TIP3    H235865   0.180   3.663   7.374  1.1421  0.8743  0.4381
 4744TIP3   OH235866   2.254   6.862   6.196 -0.3519  0.2678 -0.0387
 4744TIP3    H135867   2.171   6.861   6.150  0.2338  1.9666 -1.2679
 4744TIP3    H235868   2.315   6.817   6.138 -0.3485 -0.8821  0.8093
 4745TIP3   OH235869   2.421   0.863   0.072 -0.1714  0.0598  0.5220
 4745TIP3    H135870   2.421   0.846  -0.022  1.0482 -0.9332  0.6724
 4745TIP3    H235871   2.486   0.803   0.108  0.9073  1.8429  1.7422
 4746TIP3   OH235872   2.965   5.387   1.037 -0.3867 -0.2599  0.4126
 4746TIP3    H135873   2.879   5.347   1.051  0.2298 -0.9451  2.7520
 4746TIP3    H235874   3.011   5.373   1.120  1.2870  1.8671 -0.0895
 4747TIP3   OH235875   2.292   4.705   8.371 -0.2565  0.0088  0.0583
 4747TIP3    H135876   2.328   4.669   8.289 -0.8800  0.5566 -0.4675
 4747TIP3    H235877   2.267   4.629   8.422 -2.1297 -0.3491 -1.2920
 4748TIP3   OH235878   0.896   5.556   1.438 -0.2592  0.1611 -0.7071
 4748TIP3    H135879   0.841   5.633   1.420  0.7217  0.6978 -1.4941
 4748TIP3    H235880   0.890   5.544   1.533 -1.4548  0.4192 -0.7342
 4749TIP3   OH235881   4.220   5.946   0.847 -0.4051  0.2848  0.3944
 4749TIP3    H135882   4.314   5.963   0.839 -0.3898  0.7307  1.3390
 4749TIP3    H235883   4.193   5.995   0.925 -2.1111  3.0821 -1.7463
 4750TIP3   OH235884   6.390   0.037   7.411  0.1141 -0.3788  0.6626
 4750TIP3    H135885   6.422   0.101   7.474  2.4641 -0.2229 -0.5816
 4750TIP3    H235886   6.375   0.087   7.331  0.2527 -1.0739  0.1851
 4751TIP3   OH235887   5.182   6.818   7.074 -0.0675 -0.1363 -0.2820
 4751TIP3    H135888   5.142   6.839   6.990  1.9253  0.6159 -1.1141
 4751TIP3    H235889   5.231   6.897   7.098  1.2969 -1.1392  0.4111
 4752TIP3   OH235890   3.767   4.085   8.042 -0.7670  0.3145  0.4353
 4752TIP3    H135891   3.756   4.050   7.953  0.2679 -1.4422  0.9543
 4752TIP3    H235892   3.686   4.062   8.087 -0.0870 -1.5818  0.7792
 4753TIP3   OH235893   2.450   4.869   7.102  0.4840  0.1939 -0.7150
 4753TIP3    H135894   2.541   4.861   7.073  1.2534  0.8855  1.3038
 4753TIP3    H235895   2.427   4.959   7.083  0.7123  0.4152  0.0249
 4754TIP3   OH235896   2.601   1.198   1.152 -0.3096  0.2743 -0.1735
 4754TIP3    H135897   2.511   1.193   1.183  0.3185  0.3263  1.7567
 4754TIP3    H235898   2.654   1.210   1.231  1.4959 -0.8310 -1.1428
 4755TIP3   OH235899   1.887   4.481   8.512 -0.3758 -0.0962  1.4568
 4755TIP3    H135900   1.824   4.439   8.571 -1.2992  1.0510  1.3401
 4755TIP3    H235901   1.968   4.485   8.563 -0.8563 -0.1251  2.2502
 4756TIP3   OH235902   4.642   4.078   0.176  0.2344 -0.7647 -0.6573
 4756TIP3    H135903   4.706   4.020   0.134  0.4481  0.3738 -1.9997
 4756TIP3    H235904   4.695   4.151   0.209  0.1145 -1.8006  2.0125
 4757TIP3   OH235905   3.385   2.705   7.256 -0.4779  0.0514 -0.2827
 4757TIP3    H135906   3.477   2.692   7.229 -0.5294 -0.5224 -0.1970
 4757TIP3    H235907   3.356   2.618   7.284 -0.6339  0.5022  1.0158
 4758TIP3   OH235908   2.848   5.117   8.379 -0.6584 -0.1300  0.3599
 4758TIP3    H135909   2.932   5.133   8.338 -0.7068 -1.3945 -0.2639
 4758TIP3    H235910   2.820   5.203   8.411  1.1604  0.1993  1.1786
 4759TIP3   OH235911   4.194   3.460   0.170  0.0947 -0.0645 -0.8896
 4759TIP3    H135912   4.246   3.478   0.249  0.2816  1.2590 -1.3028
 4759TIP3    H235913   4.130   3.395   0.199 -0.2778  0.8907  0.5502
 4760TIP3   OH235914   1.761   1.068   1.275 -0.4215  0.0217 -0.1614
 4760TIP3    H135915   1.812   0.996   1.312 -1.0262  0.3467  1.3828
 4760TIP3    H235916   1.693   1.085   1.341 -0.9892  1.2330 -1.0331
 4761TIP3   OH235917   5.406   4.299   8.497 -0.3097 -0.5196 -0.0067
 4761TIP3    H135918   5.448   4.322   8.414  1.2990 -3.1018 -0.0067
 4761TIP3    H235919   5.325   4.349   8.496  0.3368  0.6874 -2.4324
 4762TIP3   OH235920   1.745   3.441   1.829  0.4174 -0.1040  0.0910
 4762TIP3    H135921   1.769   3.428   1.737  0.1030 -0.3425  0.0403
 4762TIP3    H235922   1.677   3.509   1.826  1.6489  1.2020  0.3051
 4763TIP3   OH235923   0.870   2.228   0.319 -0.4341  0.7199  0.3579
 4763TIP3    H135924   0.808   2.235   0.247  0.4418  0.0240 -0.5009
 4763TIP3    H235925   0.820   2.252   0.397 -1.2434  2.0970 -0.5414
 4764TIP3   OH235926   2.767   6.556   7.884 -0.3646 -0.3376 -0.4277
 4764TIP3    H135927   2.774   6.645   7.918  1.8821 -0.9742  1.0398
 4764TIP3    H235928   2.702   6.513   7.940 -0.0215 -0.1274  0.1403
 4765TIP3   OH235929   2.042   6.529   0.639 -0.0571 -0.3717 -0.7091
 4765TIP3    H135930   1.963   6.571   0.605  1.0403  0.8814 -1.7995
 4765TIP3    H235931   2.105   6.533   0.568  0.6331 -2.5118 -0.3082
 4766TIP3   OH235932   6.004   0.944   0.595  0.3195 -0.5607  0.2206
 4766TIP3    H135933   6.094   0.973   0.611  0.7260 -1.8782  0.4277
 4766TIP3    H235934   6.012   0.852   0.568 -0.7285  0.1142 -2.8090
 4767TIP3   OH235935   1.612   1.101   8.493 -0.4928  0.9522 -0.5409
 4767TIP3    H135936   1.645   1.050   8.418 -2.6491  0.0878 -0.9888
 4767TIP3    H235937   1.676   1.086   8.562  0.3626 -0.1228 -1.5186
 4768TIP3   OH235938   2.137   1.234   7.487  0.0842  0.3734 -0.8549
 4768TIP3    H135939   2.228   1.244   7.516  0.5828 -1.4899 -1.5736
 4768TIP3    H235940   2.139   1.157   7.430 -1.7549  0.9674 -1.8057
 4769TIP3   OH235941   1.569   2.949   8.109  0.3599 -0.2199 -0.1576
 4769TIP3    H135942   1.587   2.891   8.182  1.1434  0.1340 -0.0577
 4769TIP3    H235943   1.644   2.939   8.051 -0.7176 -1.2744 -1.4493
 4770TIP3   OH235944   3.496   0.910   6.855  0.2937 -0.0051  0.7469
 4770TIP3    H135945   3.426   0.968   6.886  0.8872  1.9587 -1.3609
 4770TIP3    H235946   3.453   0.825   6.844 -2.3707  1.5202 -2.2485
 4771TIP3   OH235947   0.016   5.988   1.973 -0.2732  0.1674  0.4425
 4771TIP3    H135948   0.040   5.909   2.021  0.7819  0.5656  0.5962
 4771TIP3    H235949   0.058   6.059   2.021  0.4069  0.6205 -0.7877
 4772TIP3   OH235950   2.590   1.509   8.118  0.0867 -0.1768 -0.5033
 4772TIP3    H135951   2.529   1.537   8.187  0.0387 -0.3096 -0.4919
 4772TIP3    H235952   2.675   1.502   8.162  0.2671  0.7613 -0.6883
 4773TIP3   OH235953   5.475   0.282   7.324 -0.2198  0.1399 -0.5069
 4773TIP3    H135954   5.537   0.355   7.332  0.7356 -0.6697 -0.2635
 4773TIP3    H235955   5.512   0.229   7.253 -1.4331  0.3772 -1.3520
 4774TIP3   OH235956   4.328   1.803   1.105 -0.0722 -0.3224  0.1393
 4774TIP3    H135957   4.340   1.797   1.199 -0.1404  3.5287  0.5656
 4774TIP3    H235958   4.415   1.819   1.070 -0.3836  1.3884  0.0283
 4775TIP3   OH235959   2.243   1.617   7.565 -0.5014  0.2899 -0.7840
 4775TIP3    H135960   2.252   1.638   7.658  0.5972  1.4392 -1.1174
 4775TIP3    H235961   2.156   1.649   7.541 -0.0871  1.6433 -0.5497
 4776TIP3   OH235962   2.784   3.219   2.073 -0.0320  0.5595  0.1397
 4776TIP3    H135963   2.704   3.167   2.079 -0.5749  1.3275 -0.3297
 4776TIP3    H235964   2.824   3.211   2.159 -1.2179  1.1273  0.7650
 4777TIP3   OH235965   2.835   3.398   7.201  0.1855  0.0729  0.2511
 4777TIP3    H135966   2.832   3.485   7.242  0.7402  0.7609 -1.1268
 4777TIP3    H235967   2.818   3.414   7.108 -1.4151 -1.4940  0.2118
 4778TIP3   OH235968   0.973   6.195   0.200  0.6042  0.0437  0.1158
 4778TIP3    H135969   0.925   6.272   0.169 -0.5441 -0.9493 -0.6209
 4778TIP3    H235970   0.927   6.168   0.279  0.3831 -0.4904 -0.1927
 4779TIP3   OH235971   3.591   1.206   7.652  0.3957  0.6415  0.3397
 4779TIP3    H135972   3.598   1.212   7.557  3.2030  1.4013  0.5033
 4779TIP3    H235973   3.548   1.122   7.668 -0.1802  0.5360 -1.5769
 4780TIP3   OH235974   6.084   1.242   7.798  0.2233  0.3859  0.2837
 4780TIP3    H135975   6.058   1.150   7.796 -1.0230  0.7265 -0.9776
 4780TIP3    H235976   6.021   1.286   7.740 -0.0887  2.2628  1.9510
 4781TIP3   OH235977   4.852   0.295   2.108  0.0304 -0.2782 -0.0561
 4781TIP3    H135978   4.876   0.254   2.025  0.8967 -0.8075  0.4407
 4781TIP3    H235979   4.896   0.380   2.107  2.9277 -1.6240  1.2670
 4782TIP3   OH235980   3.741   6.065   8.115 -0.1127 -0.3000 -0.0911
 4782TIP3    H135981   3.750   6.123   8.191 -1.0656  0.5208 -0.5897
 4782TIP3    H235982   3.687   6.114   8.053 -0.2687 -1.4009 -0.8580
 4783TIP3   OH235983   0.109   5.937   1.496  0.3471  0.0355  0.0865
 4783TIP3    H135984   0.100   5.847   1.526  0.6461 -0.1422 -0.3600
 4783TIP3    H235985   0.048   5.987   1.552 -1.4937 -0.7603 -1.1300
 4784TIP3   OH235986   0.119   5.169   0.804 -0.0534  0.0854 -0.2332
 4784TIP3    H135987   0.115   5.228   0.879  2.0449  0.5151 -0.4068
 4784TIP3    H235988   0.102   5.082   0.841  0.0243  0.4032  0.5676
 4785TIP3   OH235989   6.024   6.069   7.489  0.6339 -0.2156 -0.4904
 4785TIP3    H135990   5.961   6.055   7.559  0.4555 -0.3488 -0.6788
 4785TIP3    H235991   6.108   6.077   7.535  0.5437 -0.4837 -0.2749
 4786TIP3   OH235992   4.823   2.248   8.076 -0.4875  0.0013  0.0278
 4786TIP3    H135993   4.862   2.171   8.034 -0.1906 -0.8638  1.7778
 4786TIP3    H235994   4.738   2.217   8.108 -0.7863  0.6850 -0.0977
 4787TIP3   OH235995   6.014   6.729   7.430  0.1979 -0.1424 -0.4784
 4787TIP3    H135996   6.056   6.774   7.356 -1.0963  0.4025 -0.9047
 4787TIP3    H235997   5.984   6.800   7.487  1.3694 -0.5560  0.7160
 4788TIP3   OH235998   4.698   3.166   7.958 -0.3669 -0.6133 -0.1798
 4788TIP3    H135999   4.729   3.244   8.004 -2.0291 -0.0065 -0.0264
 4788TIP3    H236000   4.776   3.131   7.914  0.5644  0.6697  0.3920
 4789TIP3   OH236001   0.495   4.210   6.986 -0.2708  0.0244 -0.6484
 4789TIP3    H136002   0.579   4.168   7.007 -0.5328  0.7167  2.2963
 4789TIP3    H236003   0.452   4.150   6.925  1.6314 -1.1938 -0.8714
 4790TIP3   OH236004   4.207   4.664   7.821 -0.1006  0.2910  0.6303
 4790TIP3    H136005   4.120   4.663   7.781  0.7472 -0.1109 -1.3355
 4790TIP3    H236006   4.205   4.738   7.881 -1.2446  1.4059 -0.7149
 4791TIP3   OH236007   1.028   1.160   7.186 -0.0268  0.3268 -0.4771
 4791TIP3    H136008   1.022   1.184   7.094  0.0693  2.1732 -0.0432
 4791TIP3    H236009   0.980   1.229   7.232  2.5776  1.2829  1.0841
 4792TIP3   OH236010   2.465   2.447   1.376  0.2993 -0.3054 -0.2513
 4792TIP3    H136011   2.481   2.519   1.316 -0.4642  1.0329  1.0798
 4792TIP3    H236012   2.551   2.430   1.415  0.1643  1.2268  0.8159
 4793TIP3   OH236013   2.785   5.120   1.616 -0.6427 -0.3655  0.2184
 4793TIP3    H136014   2.822   5.038   1.648  0.9505 -0.4123 -1.5819
 4793TIP3    H236015   2.755   5.100   1.528 -0.7326  0.8433 -0.0418
 4794TIP3   OH236016   6.673   5.532   0.015  0.1382 -0.5760 -0.2452
 4794TIP3    H136017   6.588   5.511  -0.024  0.2550 -1.1066 -0.2281
 4794TIP3    H236018   6.676   5.627   0.017 -0.5706 -0.5499 -0.0106
 4795TIP3   OH236019   2.895   6.647   1.798 -0.3173  0.4525  0.1163
 4795TIP3    H136020   2.854   6.726   1.763  0.5458  0.6837 -0.4010
 4795TIP3    H236021   2.852   6.633   1.882 -1.0809  0.9802 -0.1780
 4796TIP3   OH236022   2.147   0.752   1.461  0.3552  0.3039  0.9274
 4796TIP3    H136023   2.118   0.741   1.552 -0.4424 -1.3924  0.4964
 4796TIP3    H236024   2.070   0.787   1.415  0.4708  0.2805  0.7155
 4797TIP3   OH236025   1.693   4.612   0.755 -0.2627  0.5094 -0.3582
 4797TIP3    H136026   1.750   4.540   0.728 -1.0235 -0.7044  1.1314
 4797TIP3    H236027   1.626   4.615   0.687  0.0848  0.1802 -0.7221
 4798TIP3   OH236028   0.250   5.072   8.476  0.0543  0.1897 -0.2160
 4798TIP3    H136029   0.252   4.982   8.508  1.5757  0.2408 -0.0898
 4798TIP3    H236030   0.236   5.125   8.555  1.7290  0.1869  0.1337
 4799TIP3   OH236031   0.646   6.674   6.743 -0.6390  0.4116  0.3993
 4799TIP3    H136032   0.726   6.699   6.789  0.0706  0.3386 -0.7508
 4799TIP3    H236033   0.596   6.755   6.735 -0.4301  0.5645  0.6522
 4800TIP3   OH236034   5.754   4.365   0.839 -0.0343 -0.0579  0.3360
 4800TIP3    H136035   5.695   4.292   0.820 -0.0538 -0.0017  0.1839
 4800TIP3    H236036   5.775   4.403   0.754 -1.1357  0.9911  0.4972
 4801TIP3   OH236037   6.220   2.002   7.872  0.2257  0.3058 -0.4213
 4801TIP3    H136038   6.231   1.917   7.830  0.6720  0.1457  0.0036
 4801TIP3    H236039   6.208   1.981   7.965 -1.7215  0.5971 -0.5644
 4802TIP3   OH236040   1.706   0.929   2.033  0.2722 -0.2625 -0.0683
 4802TIP3    H136041   1.649   0.990   2.079 -0.4217  0.2128 -1.4860
 4802TIP3    H236042   1.674   0.843   2.059 -3.6571 -0.1574 -3.4885
 4803TIP3   OH236043   0.589   5.402   8.320 -0.3753  0.2140 -0.8602
 4803TIP3    H136044   0.611   5.328   8.377  0.8272  0.9841 -0.2797
 4803TIP3    H236045   0.494   5.411   8.328 -0.4138 -0.6781 -0.2063
 4804TIP3   OH236046   1.369   3.047   1.770 -0.7948  0.0670  0.1029
 4804TIP3    H136047   1.279   3.023   1.749 -1.0064 -1.1165  2.0975
 4804TIP3    H236048   1.404   2.971   1.816  2.2916 -0.8420 -3.2658
 4805TIP3   OH236049   1.312   2.065   7.336 -0.4731 -0.4498  0.6145
 4805TIP3    H136050   1.301   2.115   7.256  1.5474  0.2256  0.7324
 4805TIP3    H236051   1.252   2.106   7.398  0.2742  1.0602  0.3645
 4806TIP3   OH236052   6.269   2.575   8.538 -0.4899 -0.0867 -0.2403
 4806TIP3    H136053   6.342   2.544   8.485 -2.1877 -0.6989 -2.3712
 4806TIP3    H236054   6.205   2.504   8.534 -1.3903  0.6016  1.2019
 4807TIP3   OH236055   1.528   3.314   8.057 -0.3289 -0.1424  0.0129
 4807TIP3    H136056   1.442   3.277   8.078  0.1769 -0.1493  2.3778
 4807TIP3    H236057   1.591   3.255   8.099  0.7181  0.8772 -0.0586
 4808TIP3   OH236058   5.965   0.314   1.290 -0.1369  0.7624 -0.2504
 4808TIP3    H136059   6.048   0.267   1.302  0.5925  1.4940 -2.1327
 4808TIP3    H236060   5.899   0.257   1.329  1.1889 -0.0108  0.9531
 4809TIP3   OH236061   3.593   0.740   7.290 -0.2387 -0.2846  0.5332
 4809TIP3    H136062   3.522   0.804   7.283 -0.0944 -0.2128 -0.3978
 4809TIP3    H236063   3.564   0.666   7.237  1.1667  0.5084 -1.4851
 4810TIP3   OH236064   4.241   2.428   1.203 -0.3232 -0.2892 -0.4598
 4810TIP3    H136065   4.192   2.425   1.121 -1.0127  0.7368 -0.1056
 4810TIP3    H236066   4.191   2.371   1.262  0.1992 -1.0649 -0.7491
 4811TIP3   OH236067   0.717   0.731   7.916  0.0809  0.3607  0.4627
 4811TIP3    H136068   0.756   0.703   7.999  3.3398  0.8946 -0.7354
 4811TIP3    H236069   0.705   0.825   7.926 -0.8133  0.2254  0.7617
 4812TIP3   OH236070   2.872   0.153   8.115  0.3849 -0.6351  0.4527
 4812TIP3    H136071   2.828   0.215   8.172  0.0243 -1.6795  1.3585
 4812TIP3    H236072   2.908   0.087   8.175  3.9835  0.5766 -0.1042
 4813TIP3   OH236073   0.235   1.272   0.463  0.3424  0.2012  0.8221
 4813TIP3    H136074   0.327   1.255   0.483  0.3654  0.1019  0.6331
 4813TIP3    H236075   0.191   1.188   0.478  0.4287  0.0147  0.0463
 4814TIP3   OH236076   0.394   2.921   0.308 -0.1244 -0.3833  0.4654
 4814TIP3    H136077   0.449   2.843   0.298 -0.4647 -0.5249 -0.3711
 4814TIP3    H236078   0.455   2.990   0.335  0.6101 -0.3795 -1.0964
 4815TIP3   OH236079   6.816   3.555   8.183  0.2476  0.5742  0.2726
 4815TIP3    H136080   6.837   3.570   8.275  0.5782  0.3956  0.2303
 4815TIP3    H236081   6.884   3.495   8.153  1.4972  2.3680 -0.6759
 4816TIP3   OH236082   6.697   3.157   0.318  0.1946  0.6104 -1.0015
 4816TIP3    H136083   6.613   3.201   0.315  0.2539  0.9666  1.1314
 4816TIP3    H236084   6.678   3.067   0.290 -0.8334  0.7504 -0.7843
 4817TIP3   OH236085   2.650   2.460   6.746 -0.1972  0.1903 -0.0205
 4817TIP3    H136086   2.745   2.473   6.747 -0.0234 -0.9434 -0.2919
 4817TIP3    H236087   2.622   2.496   6.662 -0.0048  0.5020  0.0485
 4818TIP3   OH236088   1.107   1.008   1.830 -0.2608  0.5602  0.1223
 4818TIP3    H136089   1.102   0.922   1.789  0.1238  0.0135  1.1926
 4818TIP3    H236090   1.136   1.067   1.760 -0.4004 -0.1988 -0.5798
 4819TIP3   OH236091   2.566   1.213   7.706  0.1726  0.3388  0.0139
 4819TIP3    H136092   2.502   1.258   7.652 -0.9928 -1.2965 -0.0246
 4819TIP3    H236093   2.555   1.252   7.793  0.1767  1.0913 -0.3152
 4820TIP3   OH236094   2.758   5.269   6.762  0.4131  0.6437 -0.0831
 4820TIP3    H136095   2.808   5.188   6.768 -0.9678 -0.3060 -0.9853
 4820TIP3    H236096   2.739   5.279   6.669 -0.7668  1.1715  0.1964
 4821TIP3   OH236097   3.143   4.743   0.475  0.1906 -0.2201  0.4372
 4821TIP3    H136098   3.202   4.806   0.516  0.2913  0.5163 -0.8233
 4821TIP3    H236099   3.182   4.658   0.495  0.9508  0.1929  0.7464
 4822TIP3   OH236100   0.321   6.524   7.960 -0.5508 -0.3690  0.0263
 4822TIP3    H136101   0.317   6.457   8.029  0.1150 -1.3273 -0.8312
 4822TIP3    H236102   0.264   6.491   7.891  0.4721 -0.5267 -0.7726
 4823TIP3   OH236103   3.905   5.629   1.719  0.3253  0.4446  0.3048
 4823TIP3    H136104   3.934   5.715   1.748  1.2761  0.5286 -0.7871
 4823TIP3    H236105   3.895   5.578   1.799  1.1636  1.1573  0.8808
 4824TIP3   OH236106   2.685   4.936   0.590  0.0856 -0.2293 -0.0254
 4824TIP3    H136107   2.687   5.015   0.645  0.0772 -0.8147  0.8357
 4824TIP3    H236108   2.768   4.893   0.609  0.1091 -0.4027 -0.5309
 4825TIP3   OH236109   6.487   5.672   8.146  0.0610 -0.0785 -0.3019
 4825TIP3    H136110   6.496   5.592   8.198 -0.5833  1.0560  1.6800
 4825TIP3    H236111   6.569   5.719   8.161 -0.4126  0.5748  0.2934
 4826TIP3   OH236112   6.865   0.899   7.465 -0.4007  0.1918  0.2832
 4826TIP3    H136113   6.797   0.926   7.526 -1.8404 -1.8016 -0.3470
 4826TIP3    H236114   6.836   0.931   7.380  0.2096  0.5903  0.2153
 4827TIP3   OH236115   0.212   2.718   7.971 -0.1101  0.3184 -0.8836
 4827TIP3    H136116   0.289   2.675   8.006 -0.9979  0.2239  1.0799
 4827TIP3    H236117   0.232   2.733   7.879  1.0897 -2.3201 -1.1423
 4828TIP3   OH236118   5.521   6.508   1.387 -0.5738 -0.3434 -0.5511
 4828TIP3    H136119   5.505   6.417   1.412 -0.6302  0.1288  1.2724
 4828TIP3    H236120   5.612   6.509   1.357  0.1161 -0.6663  1.3848
 4829TIP3   OH236121   3.934   2.231   7.697  0.0634 -0.0889 -0.0937
 4829TIP3    H136122   3.881   2.218   7.618  0.5744  0.2128 -0.4924
 4829TIP3    H236123   4.016   2.187   7.678  0.1438 -0.1151  0.3174
 4830TIP3   OH236124   6.115   1.288   8.520  0.0257 -0.0335  0.3818
 4830TIP3    H136125   6.085   1.349   8.452 -0.3928 -3.3423 -2.7600
 4830TIP3    H236126   6.035   1.243   8.548  0.5740 -0.7379  0.8300
 4831TIP3   OH236127   0.505   0.292   2.112 -0.3003  0.0222  0.5571
 4831TIP3    H136128   0.550   0.363   2.158  0.4216 -1.0856  1.6279
 4831TIP3    H236129   0.576   0.239   2.075 -0.8169 -0.2452 -0.0687
 4832TIP3   OH236130   6.047   3.754   0.437  0.2880  0.4183 -0.0402
 4832TIP3    H136131   5.997   3.834   0.419 -1.0394 -0.2083  0.7501
 4832TIP3    H236132   6.055   3.752   0.533 -2.0476 -1.7318  0.1939
 4833TIP3   OH236133   6.459   0.511   2.145  0.1396 -0.2634  0.7168
 4833TIP3    H136134   6.435   0.472   2.229  0.3122  1.8247  1.7736
 4833TIP3    H236135   6.414   0.596   2.144  2.9733  1.3334  0.3258
 4834TIP3   OH236136   2.538   5.826   8.037 -0.5593 -0.4607 -0.1879
 4834TIP3    H136137   2.633   5.827   8.050 -0.6408  2.2058  0.8430
 4834TIP3    H236138   2.527   5.842   7.944 -0.0745 -3.3972 -0.8681
 4835TIP3   OH236139   4.764   1.206   2.201  0.5642  0.2506 -0.2817
 4835TIP3    H136140   4.689   1.208   2.141  1.4945  0.0926 -1.4945
 4835TIP3    H236141   4.779   1.298   2.224  0.8727  0.4322 -1.1784
 4836TIP3   OH236142   5.090   4.127   8.019  0.7900 -0.3054  0.0207
 4836TIP3    H136143   5.036   4.050   8.005  0.2980  0.0308  0.0266
 4836TIP3    H236144   5.150   4.103   8.089  2.2097 -1.4783 -1.5219
 4837TIP3   OH236145   5.980   1.985   1.160 -0.4898 -0.0069 -0.2114
 4837TIP3    H136146   6.003   1.929   1.234  1.0316  1.7422  0.7596
 4837TIP3    H236147   5.983   1.928   1.084 -1.8899 -1.8179  1.0264
 4838TIP3   OH236148   3.527   5.615   1.856 -0.3804 -0.1859  0.3676
 4838TIP3    H136149   3.600   5.626   1.918  1.1021  0.8706 -1.4682
 4838TIP3    H236150   3.537   5.526   1.823  0.8197  0.3414 -0.7367
 4839TIP3   OH236151   2.677   5.936   6.754 -0.8220  0.1663  0.2319
 4839TIP3    H136152   2.718   5.850   6.747 -0.0932  0.4665  0.6914
 4839TIP3    H236153   2.625   5.930   6.835 -0.7743  0.1557  0.2618
 4840TIP3   OH236154   0.902   6.093   0.464  0.4563 -0.2245  0.5158
 4840TIP3    H136155   0.882   6.008   0.504 -1.9915  0.3064  0.5531
 4840TIP3    H236156   0.919   6.151   0.538  1.6387 -0.5311  0.5071
 4841TIP3   OH236157   2.087   5.640   6.967 -0.3263  0.8487 -0.1639
 4841TIP3    H136158   2.025   5.568   6.958  0.9347 -0.1496 -1.4192
 4841TIP3    H236159   2.124   5.630   7.055 -0.7143  0.4230 -0.0474
 4842TIP3   OH236160   2.555   6.547   7.668 -0.0713  0.0246 -0.4370
 4842TIP3    H136161   2.645   6.551   7.697  0.2294 -1.4748 -1.0737
 4842TIP3    H236162   2.504   6.534   7.748  0.1540  1.7536  0.0293
 4843TIP3   OH236163   4.536   3.615   2.212  0.7062  0.6132  0.4421
 4843TIP3    H136164   4.614   3.561   2.225 -1.2685 -3.0910 -1.4940
 4843TIP3    H236165   4.470   3.576   2.269 -0.7234  1.2068 -0.7398
 4844TIP3   OH236166   3.121   1.657   2.422 -0.3061  0.0936 -0.6635
 4844TIP3    H136167   3.213   1.633   2.430 -0.2553 -0.0286 -1.5661
 4844TIP3    H236168   3.102   1.707   2.502  0.4833 -0.0487 -0.3842
 4845TIP3   OH236169   4.721   1.846   8.144 -0.2548 -0.8725 -0.1897
 4845TIP3    H136170   4.701   1.935   8.173 -0.5006 -1.2443  0.8165
 4845TIP3    H236171   4.638   1.812   8.111 -0.7482 -1.5102  1.5783
 4846TIP3   OH236172   1.644   0.865   6.946 -0.3197  0.0253 -0.0816
 4846TIP3    H136173   1.652   0.773   6.919  0.9576  0.4222 -1.1462
 4846TIP3    H236174   1.610   0.909   6.868 -3.2691  0.1451  1.1185
 4847TIP3   OH236175   3.718   3.628   7.746 -0.4106 -0.1846 -0.6630
 4847TIP3    H136176   3.782   3.594   7.682  0.4607 -1.0822  0.6463
 4847TIP3    H236177   3.684   3.708   7.705  1.2066  0.0653 -1.6130
 4848TIP3   OH236178   6.393   3.412   1.618  0.3546  0.0219  0.5282
 4848TIP3    H136179   6.328   3.350   1.653  0.3896 -0.6614 -0.5785
 4848TIP3    H236180   6.446   3.360   1.558  2.4357  0.3910  1.9520
 4849TIP3   OH236181   3.108   0.245   7.453  0.0840  0.2172  0.4470
 4849TIP3    H136182   3.167   0.210   7.386 -0.6249 -1.1472  0.4983
 4849TIP3    H236183   3.096   0.336   7.429  0.7158  0.0305 -0.6501
 4850TIP3   OH236184   4.613   2.863   8.466  0.6597 -0.6463 -0.3090
 4850TIP3    H136185   4.533   2.811   8.465  0.5991 -0.6658  1.9882
 4850TIP3    H236186   4.584   2.951   8.442 -0.4426 -0.2317  2.2388
 4851TIP3   OH236187   6.545   2.323   6.607 -0.5534 -0.0810  0.0362
 4851TIP3    H136188   6.515   2.233   6.593 -1.7856 -0.0980  2.2383
 4851TIP3    H236189   6.508   2.372   6.534  1.8831 -1.6146 -2.3872
 4852TIP3   OH236190   2.563   6.069   8.172  0.0264 -0.1298  0.6105
 4852TIP3    H136191   2.540   5.982   8.140 -0.1935 -0.1257  0.7628
 4852TIP3    H236192   2.640   6.093   8.120  0.2771 -0.5417  0.7811
 4853TIP3   OH236193   1.271   4.526   0.701 -0.6037  0.4804  0.3889
 4853TIP3    H136194   1.355   4.561   0.673  0.1834 -1.4633  0.1731
 4853TIP3    H236195   1.277   4.521   0.796 -0.3658  0.1279  0.3588
 4854TIP3   OH236196   0.131   1.669   0.524 -0.4644 -0.0541 -0.5955
 4854TIP3    H136197   0.129   1.709   0.611  0.1597 -0.6378 -0.3016
 4854TIP3    H236198   0.196   1.720   0.476  0.1912 -0.5548 -0.2793
 4855TIP3   OH236199   4.148   5.926   0.398  0.7532 -0.4103  0.1011
 4855TIP3    H136200   4.065   5.902   0.357  0.8085  0.3566 -0.4892
 4855TIP3    H236201   4.133   6.015   0.432  0.6815 -1.0483  1.8317
 4856TIP3   OH236202   4.600   4.136   7.621 -0.1382  0.3691  0.4302
 4856TIP3    H136203   4.600   4.155   7.528  0.6251  2.1411  0.7372
 4856TIP3    H236204   4.530   4.191   7.657 -1.0314 -0.9625  0.8188
 4857TIP3   OH236205   0.082   5.707   8.447 -0.8029  0.2600 -0.7233
 4857TIP3    H136206   0.035   5.779   8.487  0.5790  0.0115  1.5527
 4857TIP3    H236207   0.042   5.628   8.485  0.4234  0.0126  0.1252
 4858TIP3   OH236208   2.691   5.520   1.253 -0.1281 -0.0305 -0.6550
 4858TIP3    H136209   2.651   5.576   1.186  0.1583  0.6471 -0.2646
 4858TIP3    H236210   2.775   5.560   1.272 -0.3648  0.0016  0.3869
 4859TIP3   OH236211   1.824   2.117   1.537  0.0561  0.1133 -0.5345
 4859TIP3    H136212   1.906   2.166   1.536  1.3129 -1.8629 -0.0988
 4859TIP3    H236213   1.788   2.132   1.625  0.1049  0.7477 -0.6223
 4860TIP3   OH236214   2.445   5.873   2.475  0.5058 -0.1087  0.2051
 4860TIP3    H136215   2.412   5.934   2.541 -1.5983 -0.9811  0.0426
 4860TIP3    H236216   2.452   5.926   2.396 -2.0771 -0.1286 -0.1418
 4861TIP3   OH236217   4.361   2.032   7.965 -0.6737 -0.2153 -0.0660
 4861TIP3    H136218   4.442   2.052   7.919 -1.2672 -0.2559 -1.1550
 4861TIP3    H236219   4.389   1.989   8.046  0.4033  0.3185 -0.1379
 4862TIP3   OH236220   6.640   6.756   7.854 -0.2685 -0.6477  0.1325
 4862TIP3    H136221   6.622   6.824   7.789 -1.5821 -0.0589  1.0564
 4862TIP3    H236222   6.718   6.787   7.900 -0.2218 -0.3101 -0.1692
 4863TIP3   OH236223   1.272   3.983   7.129  0.0627 -0.2412  0.1208
 4863TIP3    H136224   1.356   3.989   7.175  0.2623  0.5407 -0.3195
 4863TIP3    H236225   1.258   3.889   7.117  0.9498 -0.3749  0.0620
 4864TIP3   OH236226   0.055   1.031   0.499  0.2848  0.3697  0.0987
 4864TIP3    H136227   0.050   1.066   0.588 -0.4077 -0.2222  0.3043
 4864TIP3    H236228   0.113   0.955   0.506 -2.1297 -1.5778  0.7401
 4865TIP3   OH236229   1.873   4.525   0.521 -0.0628 -0.7197  0.7898
 4865TIP3    H136230   1.812   4.521   0.448 -0.7398 -1.0170  1.3607
 4865TIP3    H236231   1.865   4.440   0.564  1.3469 -1.0772  0.4085
 4866TIP3   OH236232   2.945   2.719   0.774 -0.3629  0.1645  1.0703
 4866TIP3    H136233   2.982   2.703   0.687 -0.5361 -1.0393  1.2010
 4866TIP3    H236234   2.996   2.792   0.809  2.2658 -1.7281  1.4598
 4867TIP3   OH236235   3.435   4.905   2.489 -0.0497 -0.1253 -0.2117
 4867TIP3    H136236   3.358   4.892   2.544  0.0447 -0.0084 -0.0520
 4867TIP3    H236237   3.491   4.830   2.507  2.3511  2.2792  3.7434
 4868TIP3   OH236238   3.422   3.251   0.273 -0.0768  0.0941  0.4472
 4868TIP3    H136239   3.495   3.312   0.268 -0.7175  0.9049  0.8843
 4868TIP3    H236240   3.374   3.277   0.352  0.4684 -1.8980  1.5138
 4869TIP3   OH236241   0.722   5.698   0.704  0.1813 -0.3136  0.6150
 4869TIP3    H136242   0.794   5.668   0.760 -1.0577 -1.1829  1.8070
 4869TIP3    H236243   0.660   5.625   0.704  0.0014 -0.2248 -1.7036
 4870TIP3   OH236244   0.365   3.046   0.738  0.6593  0.3336  0.8488
 4870TIP3    H136245   0.325   3.022   0.654  0.3217  1.5038  0.6665
 4870TIP3    H236246   0.294   3.088   0.787  0.4671 -1.5133  2.2673
 4871TIP3   OH236247   0.553   6.655   7.313 -0.2088  0.1420  0.1069
 4871TIP3    H136248   0.625   6.686   7.258 -1.1341  4.4945  0.9795
 4871TIP3    H236249   0.501   6.599   7.255  2.0081 -0.3121 -1.5464
 4872TIP3   OH236250   1.287   2.920   8.022  0.4049 -0.4956 -0.0497
 4872TIP3    H136251   1.367   2.924   8.074 -0.0122  0.3812  0.5395
 4872TIP3    H236252   1.297   2.840   7.969  1.1614 -0.9988  0.8244
 4873TIP3   OH236253   2.456   1.487   0.623  0.2128  0.2873 -0.3691
 4873TIP3    H136254   2.430   1.580   0.625  1.4493  0.6426 -0.3401
 4873TIP3    H236255   2.482   1.467   0.712 -0.0427 -0.0957 -0.3781
 4874TIP3   OH236256   5.205   3.769   0.976 -0.0508  0.3960  0.1301
 4874TIP3    H136257   5.117   3.745   1.006 -0.4261  1.6520  0.0617
 4874TIP3    H236258   5.207   3.741   0.884 -0.0060 -0.5723  0.4166
 4875TIP3   OH236259   6.282   6.786   1.131 -0.4920 -0.6138 -0.9627
 4875TIP3    H136260   6.272   6.775   1.036  2.6425 -0.1411 -1.4397
 4875TIP3    H236261   6.372   6.816   1.142 -0.6428 -1.0741  2.2301
 4876TIP3   OH236262   3.977   6.014   7.445 -0.8108  0.3719  0.1526
 4876TIP3    H136263   3.930   6.025   7.528 -0.2191 -1.2171  0.7457
 4876TIP3    H236264   3.923   5.952   7.396 -0.8764  0.8895 -0.4443
 4877TIP3   OH236265   4.806   6.074   7.178 -0.4511 -0.4570  0.0610
 4877TIP3    H136266   4.886   6.022   7.180  0.0525  0.2097 -1.2223
 4877TIP3    H236267   4.737   6.012   7.155 -0.2599 -0.9736  0.8466
 4878TIP3   OH236268   4.212   0.380   6.956  0.4659  0.0025 -0.2708
 4878TIP3    H136269   4.222   0.363   7.050  0.1606 -2.0378 -0.5612
 4878TIP3    H236270   4.240   0.471   6.945  0.5157  0.2814  1.7885
 4879TIP3   OH236271   1.294   5.936   8.142 -0.1487  0.2344 -0.3591
 4879TIP3    H136272   1.353   5.992   8.091 -1.6939  1.1498 -1.2306
 4879TIP3    H236273   1.279   5.985   8.223 -1.8488  1.4132 -1.3019
 4880TIP3   OH236274   4.786   2.538   8.467  0.6551 -1.0118 -0.4195
 4880TIP3    H136275   4.716   2.552   8.403 -0.4569 -0.2259  0.9028
 4880TIP3    H236276   4.852   2.604   8.446 -0.3876  0.2343  0.1371
 4881TIP3   OH236277   6.080   1.040   8.082 -0.4414  0.0025  0.1760
 4881TIP3    H136278   6.038   1.116   8.122  1.1462  1.6550 -1.1030
 4881TIP3    H236279   6.042   1.034   7.995  1.8091  1.5154 -0.9938
 4882TIP3   OH236280   5.602   5.705   6.673 -0.4655 -0.3388 -0.2353
 4882TIP3    H136281   5.632   5.754   6.750  1.6634 -0.4020 -0.9389
 4882TIP3    H236282   5.525   5.753   6.642  0.9040  2.0039 -0.2727
 4883TIP3   OH236283   0.680   2.069   1.787  0.1276  0.0190 -0.1347
 4883TIP3    H136284   0.705   2.079   1.694 -0.1569  0.5824 -0.1525
 4883TIP3    H236285   0.753   2.020   1.825  0.7740  0.7314 -0.4226
 4884TIP3   OH236286   4.570   0.231   7.819 -0.4185 -0.1361 -0.1940
 4884TIP3    H136287   4.547   0.278   7.739 -0.5768 -0.9174 -0.6156
 4884TIP3    H236288   4.487   0.199   7.853 -0.4521  0.8752  0.7363
 4885TIP3   OH236289   2.303   3.842   0.812 -0.4282  0.0545 -0.0132
 4885TIP3    H136290   2.362   3.896   0.865 -1.5987  0.1226  1.3106
 4885TIP3    H236291   2.216   3.861   0.848 -1.2359 -0.2607 -1.6960
 4886TIP3   OH236292   0.435   1.892   6.766  0.3768  0.2538 -0.5296
 4886TIP3    H136293   0.445   1.982   6.735 -1.9333  1.6972  2.3262
 4886TIP3    H236294   0.404   1.902   6.856  1.7894 -3.4763  0.5455
 4887TIP3   OH236295   6.422   4.775   7.326  0.0711 -0.5112 -0.7155
 4887TIP3    H136296   6.496   4.822   7.287 -0.1366 -1.4084 -2.2988
 4887TIP3    H236297   6.351   4.840   7.329  0.4532 -0.0946 -0.7396
 4888TIP3   OH236298   6.643   0.109   0.118 -0.3080  0.4139  0.2655
 4888TIP3    H136299   6.662   0.041   0.053 -0.0430 -1.2131  1.9497
 4888TIP3    H236300   6.728   0.148   0.137 -0.2950  0.4919  0.0456
 4889TIP3   OH236301   5.598   1.447   7.848  0.1050  0.0671 -0.5767
 4889TIP3    H136302   5.542   1.522   7.870 -1.2709 -1.3664  1.0867
 4889TIP3    H236303   5.541   1.389   7.797  0.8336 -0.3258 -0.9518
 4890TIP3   OH236304   1.911   2.524   2.169  0.0790 -0.0071  0.0867
 4890TIP3    H136305   2.002   2.548   2.179 -0.0130  0.2157  0.3820
 4890TIP3    H236306   1.910   2.429   2.180  0.4244 -0.1454 -0.9676
 4891TIP3   OH236307   0.902   4.480   2.059 -0.5579 -0.1242  0.2656
 4891TIP3    H136308   0.905   4.423   2.136  0.0004 -0.3087  0.1164
 4891TIP3    H236309   0.987   4.524   2.059 -0.6454  0.0498 -0.1160
 4892TIP3   OH236310   5.638   0.039   0.900 -0.0972  0.7156  0.4074
 4892TIP3    H136311   5.559   0.064   0.947 -0.1396 -0.9860  1.3222
 4892TIP3    H236312   5.694   0.117   0.903 -1.5950  1.8544 -0.0185
 4893TIP3   OH236313   4.046   1.517   2.707 -0.0525 -0.3077  0.0409
 4893TIP3    H136314   4.104   1.496   2.634  0.8687  1.7740  0.1045
 4893TIP3    H236315   4.002   1.434   2.727  0.3957 -1.1617 -2.2071
 4894TIP3   OH236316   0.361   2.026   7.900 -0.3841  0.4948 -0.0140
 4894TIP3    H136317   0.413   2.097   7.864 -0.7845  0.0958 -1.4350
 4894TIP3    H236318   0.384   1.950   7.846  0.1034 -0.4995  1.5222
 4895TIP3   OH236319   0.833   6.806   6.892  0.2398  0.5353  0.0469
 4895TIP3    H136320   0.855   6.887   6.846  2.6361  1.9413  3.2943
 4895TIP3    H236321   0.790   6.835   6.972 -0.6942 -1.5703  0.3718
 4896TIP3   OH236322   2.928   4.421   7.320 -0.6634 -0.6819 -0.5858
 4896TIP3    H136323   2.974   4.402   7.239  0.1634 -0.4426 -0.1787
 4896TIP3    H236324   2.900   4.512   7.311 -1.4735 -0.9574 -1.0178
 4897TIP3   OH236325   5.939   2.646   8.347  0.1485  0.0323 -0.3341
 4897TIP3    H136326   6.010   2.596   8.306  0.8390 -1.3882  2.3181
 4897TIP3    H236327   5.969   2.737   8.343  0.8924 -0.2394 -1.5275
 4898TIP3   OH236328   4.946   6.522   1.096 -0.6655  0.1822  0.1531
 4898TIP3    H136329   4.939   6.480   1.010 -0.2566 -1.0537  0.6905
 4898TIP3    H236330   5.011   6.591   1.084 -0.2214 -0.3230 -0.4141
 4899TIP3   OH236331   2.408   4.176   1.068  0.9043 -0.1135 -0.0488
 4899TIP3    H136332   2.467   4.248   1.044  1.6222 -1.5574 -3.2401
 4899TIP3    H236333   2.436   4.103   1.012 -0.4581 -2.5896  2.2636
 4900TIP3   OH236334   4.533   5.192   2.053  0.1777 -0.5836 -0.1673
 4900TIP3    H136335   4.444   5.200   2.087  0.0746 -0.7761 -0.3955
 4900TIP3    H236336   4.525   5.134   1.977  0.4397 -0.3171 -0.4002
 4901TIP3   OH236337   3.235   2.973   7.719  0.4408 -0.5306  0.5009
 4901TIP3    H136338   3.145   2.965   7.752  0.2019 -0.3842 -0.0973
 4901TIP3    H236339   3.232   2.936   7.631  0.4227  1.5274 -0.4197
 4902TIP3   OH236340   2.785   5.371   7.797 -0.2494  0.3133  0.6168
 4902TIP3    H136341   2.806   5.463   7.812  0.9001  0.5547 -1.9582
 4902TIP3    H236342   2.793   5.360   7.702 -2.9086 -1.8483  0.5356
 4903TIP3   OH236343   5.172   2.514   6.865 -0.1832  0.6989  0.2901
 4903TIP3    H136344   5.125   2.436   6.894 -0.4468  0.2408 -1.2664
 4903TIP3    H236345   5.142   2.584   6.922  0.5357 -0.4428  2.1553
 4904TIP3   OH236346   5.391   0.725   0.652  0.0046 -0.3995 -0.2818
 4904TIP3    H136347   5.344   0.642   0.649 -0.5993 -0.1344  1.0954
 4904TIP3    H236348   5.430   0.728   0.739 -0.5612  1.0617 -0.0520
 4905TIP3   OH236349   1.040   5.090   0.295 -0.2619  0.0809  0.5399
 4905TIP3    H136350   1.135   5.098   0.292  0.0714 -2.7387 -0.0582
 4905TIP3    H236351   1.007   5.174   0.264  1.9802  1.5470  1.8665
 4906TIP3   OH236352   3.770   6.290   7.034  0.1529 -0.5214  0.0588
 4906TIP3    H136353   3.814   6.246   6.961  0.0480 -1.3996  0.5056
 4906TIP3    H236354   3.787   6.233   7.109 -0.2384  0.0632  0.5953
 4907TIP3   OH236355   6.309   2.281   8.261 -0.1357 -0.0137  0.7372
 4907TIP3    H136356   6.266   2.200   8.286 -0.7825  0.1170  0.0837
 4907TIP3    H236357   6.392   2.280   8.308  0.1735 -1.3852  0.1893
 4908TIP3   OH236358   2.994   6.229   2.293  0.2815  0.0952 -0.2762
 4908TIP3    H136359   2.957   6.218   2.381 -0.3053 -0.5114 -0.5894
 4908TIP3    H236360   2.981   6.145   2.250  0.1557  0.5159 -1.0986
 4909TIP3   OH236361   4.439   5.093   7.236 -1.0210  0.3096  0.4331
 4909TIP3    H136362   4.345   5.104   7.247 -0.8500  2.4036  0.1598
 4909TIP3    H236363   4.476   5.114   7.321 -0.7647 -0.1513  0.4384
 4910TIP3   OH236364   5.181   4.120   2.215  0.3754  0.5025 -0.0987
 4910TIP3    H136365   5.271   4.096   2.191  0.8028  2.5111 -0.7325
 4910TIP3    H236366   5.143   4.153   2.134 -0.8670 -0.1003  0.2283
 4911TIP3   OH236367   5.064   2.816   1.330 -0.0626  0.5963  0.4888
 4911TIP3    H136368   5.079   2.849   1.418  0.6977  0.5239  0.3868
 4911TIP3    H236369   5.121   2.868   1.274 -0.3943  0.5113  0.0621
 4912TIP3   OH236370   0.791   6.230   8.263 -0.5690  0.2460 -0.0515
 4912TIP3    H136371   0.778   6.324   8.271 -0.4689  0.1345  1.8740
 4912TIP3    H236372   0.707   6.192   8.291  0.0467 -0.2444  1.2235
 4913TIP3   OH236373   0.123   0.972   8.264  0.3950 -0.4942  0.0447
 4913TIP3    H136374   0.184   1.045   8.276 -0.1714 -0.1686  1.0690
 4913TIP3    H236375   0.117   0.962   8.169  0.5728  0.7379 -0.1235
 4914TIP3   OH236376   5.989   2.359   7.899  0.3840  0.0268 -0.2665
 4914TIP3    H136377   5.926   2.288   7.896 -1.3874  1.4032  1.7007
 4914TIP3    H236378   6.057   2.329   7.960  1.9258 -1.5648 -2.5881
 4915TIP3   OH236379   6.023   2.672   0.146 -0.3882 -0.3930  0.0285
 4915TIP3    H136380   6.062   2.588   0.122 -0.3545 -0.2754 -0.3382
 4915TIP3    H236381   5.942   2.676   0.096  0.1647  0.2931 -0.8561
 4916TIP3   OH236382   2.758   5.782   1.046 -0.2437  0.9981 -0.2937
 4916TIP3    H136383   2.797   5.865   1.073 -0.5104  1.0263  0.0096
 4916TIP3    H236384   2.808   5.756   0.969  0.8005  0.7164  0.4494
 4917TIP3   OH236385   6.552   4.426   2.480  0.0932  0.1889 -0.3147
 4917TIP3    H136386   6.573   4.360   2.414  1.4555 -0.0699  0.3468
 4917TIP3    H236387   6.562   4.510   2.434 -0.6090 -0.0238 -0.8717
 4918TIP3   OH236388   2.297   0.880   0.914  0.3251 -0.0309  0.3181
 4918TIP3    H136389   2.368   0.816   0.920  1.8697  1.6533  0.6868
 4918TIP3    H236390   2.279   0.903   1.005  0.2583  0.5811  0.1483
 4919TIP3   OH236391   3.312   6.787   7.636  0.3185  0.2844  0.4413
 4919TIP3    H136392   3.396   6.776   7.681  0.5230 -0.9440 -0.1881
 4919TIP3    H236393   3.288   6.878   7.652  1.9342  0.7574  0.3492
 4920TIP3   OH236394   4.020   2.603   0.444  0.2609 -0.1377  0.2851
 4920TIP3    H136395   4.115   2.611   0.450  0.6709  0.0830 -3.9272
 4920TIP3    H236396   4.003   2.510   0.458  1.2698 -0.4194 -0.2928
 4921TIP3   OH236397   1.707   3.406   0.033  0.3170  0.4625  0.7796
 4921TIP3    H136398   1.656   3.330   0.006 -1.6120  1.4857  1.3333
 4921TIP3    H236399   1.745   3.440  -0.048 -0.5789  0.1469  0.2110
 4922TIP3   OH236400   3.327   4.139   7.125  0.3520 -0.3051  0.4967
 4922TIP3    H136401   3.263   4.134   7.197  1.0161 -1.0957  1.0523
 4922TIP3    H236402   3.285   4.092   7.053  0.2415 -0.6988  0.8131
 4923TIP3   OH236403   3.161   1.122   6.332  0.0234  0.9496  0.2858
 4923TIP3    H136404   3.119   1.054   6.279 -0.6375 -0.3524  2.3442
 4923TIP3    H236405   3.249   1.088   6.349  1.1352  2.5143 -1.9354
 4924TIP3   OH236406   5.608   1.296   8.104  0.3130  0.5176 -0.1174
 4924TIP3    H136407   5.553   1.361   8.061  1.9132  2.1734  0.1802
 4924TIP3    H236408   5.560   1.272   8.183 -1.5532 -0.7693 -1.5646
 4925TIP3   OH236409   0.630   0.687   1.559  0.4467  0.1878  0.5050
 4925TIP3    H136410   0.604   0.733   1.479 -0.6919 -1.5450 -0.1909
 4925TIP3    H236411   0.646   0.757   1.623  1.1546  1.6059 -1.1426
 4926TIP3   OH236412   1.043   1.124   8.433 -0.8010 -0.0540 -0.0032
 4926TIP3    H136413   1.054   1.033   8.408  1.4418  0.6686 -1.9777
 4926TIP3    H236414   1.084   1.130   8.520  0.8576 -0.5796 -0.7036
 4927TIP3   OH236415   2.180   4.566   7.208  0.1571 -0.2679 -0.4680
 4927TIP3    H136416   2.137   4.634   7.259  0.7890 -1.1755  1.3776
 4927TIP3    H236417   2.228   4.613   7.141  0.0442  1.0666  0.3427
 4928TIP3   OH236418   1.110   2.574   0.785  0.4390  0.0804  0.2126
 4928TIP3    H136419   1.050   2.637   0.745 -0.5937 -0.5727  0.6645
 4928TIP3    H236420   1.075   2.561   0.873  0.6942 -1.0275  0.1637
 4929TIP3   OH236421   5.000   2.092   1.921  0.4957 -0.3879  0.8735
 4929TIP3    H136422   5.033   2.039   1.993  1.0998  0.4499  1.2347
 4929TIP3    H236423   5.021   2.182   1.946  1.0979 -0.1105 -0.5305
 4930TIP3   OH236424   4.099   6.581   1.164  0.2209 -0.3599  0.0165
 4930TIP3    H136425   4.160   6.617   1.100 -1.0490  1.5977 -0.1751
 4930TIP3    H236426   4.040   6.526   1.113  0.0942  0.0258 -0.2534
 4931TIP3   OH236427   0.422   1.101   7.619  0.1606  0.2510 -0.2577
 4931TIP3    H136428   0.407   1.007   7.619 -0.9480  0.4155 -0.1076
 4931TIP3    H236429   0.517   1.110   7.608  0.5978 -0.9350  1.9041
 4932TIP3   OH236430   6.340   5.899   0.722 -0.1192  0.2611  0.1749
 4932TIP3    H136431   6.247   5.894   0.704 -0.0463  0.1714 -0.1920
 4932TIP3    H236432   6.382   5.875   0.639  0.2306  1.3830  0.0136
 4933TIP3   OH236433   0.848   1.705   1.425  0.0133  0.2489 -0.0905
 4933TIP3    H136434   0.882   1.617   1.444 -2.2439 -0.3435  1.6691
 4933TIP3    H236435   0.898   1.763   1.483 -0.4096 -0.2995  0.8438
 4934TIP3   OH236436   2.278   4.049   7.222 -0.2456 -0.0265  0.4342
 4934TIP3    H136437   2.366   4.020   7.243  0.0903  1.7910  1.8580
 4934TIP3    H236438   2.280   4.144   7.238 -1.7830  0.4766 -1.9227
 4935TIP3   OH236439   1.191   1.344   8.563  0.3743  0.1735 -0.2390
 4935TIP3    H136440   1.267   1.402   8.560 -1.4023  2.5999 -0.6185
 4935TIP3    H236441   1.186   1.307   8.474  1.8653 -1.1481  0.1733
 4936TIP3   OH236442   6.845   4.753   0.280 -0.1734 -0.3042 -0.3898
 4936TIP3    H136443   6.825   4.716   0.366  1.6196  1.1406  0.7221
 4936TIP3    H236444   6.780   4.822   0.269 -0.2519 -0.3214 -0.0672
 4937TIP3   OH236445   4.647   2.539   0.771 -0.3460 -0.4340  0.0692
 4937TIP3    H136446   4.715   2.597   0.804 -1.4928  0.5015  0.8722
 4937TIP3    H236447   4.574   2.550   0.832 -1.5448 -0.7271 -1.2521
 4938TIP3   OH236448   2.947   1.034   7.940 -0.5152  0.3644  0.3684
 4938TIP3    H136449   2.886   0.991   7.880 -1.9847  1.0377  1.3092
 4938TIP3    H236450   3.029   1.040   7.891 -1.5729  0.6485 -1.4669
 4939TIP3   OH236451   0.823   2.486   1.477 -0.0102  0.2801  0.4119
 4939TIP3    H136452   0.761   2.494   1.549 -0.5120  1.8910 -0.1492
 4939TIP3    H236453   0.897   2.541   1.503  0.2009  0.1489  0.0929
 4940TIP3   OH236454   6.076   3.156   8.338 -0.3844 -0.2978 -0.4010
 4940TIP3    H136455   6.079   3.224   8.406 -0.6750  0.6807 -1.3275
 4940TIP3    H236456   5.996   3.174   8.290 -0.8912 -1.8233 -0.1773
 4941TIP3   OH236457   3.619   2.983   2.671 -0.2062 -0.0690  0.0392
 4941TIP3    H136458   3.527   2.999   2.649 -0.1691 -0.9910 -0.8712
 4941TIP3    H236459   3.655   3.070   2.689 -1.1907  0.3302  0.1431
 4942TIP3   OH236460   2.293   6.557   6.593  0.2958  0.0265  0.4399
 4942TIP3    H136461   2.355   6.518   6.654 -2.6073 -1.2697  2.7828
 4942TIP3    H236462   2.251   6.483   6.550  0.6569  0.8883 -1.5296
 4943TIP3   OH236463   3.135   5.540   8.401 -0.2752  0.2254  0.1963
 4943TIP3    H136464   3.189   5.463   8.384  0.1320 -0.4409  3.6776
 4943TIP3    H236465   3.194   5.615   8.389  0.5318 -0.3006  0.8226
 4944TIP3   OH236466   3.930   5.471   8.075  0.1785  0.6241  0.4571
 4944TIP3    H136467   4.009   5.422   8.050  2.4565  2.4245  3.3676
 4944TIP3    H236468   3.867   5.404   8.102  1.4375 -0.8279 -0.0577
 4945TIP3   OH236469   4.036   3.360   7.283  0.2317 -0.1250  0.1622
 4945TIP3    H136470   4.042   3.410   7.364  0.9114  0.0657 -0.0067
 4945TIP3    H236471   4.047   3.269   7.310 -0.0399 -0.1080  0.3405
 4946TIP3   OH236472   3.618   0.617   8.255  0.5491  0.1798 -0.3056
 4946TIP3    H136473   3.574   0.660   8.329  0.1754  1.3222 -1.1539
 4946TIP3    H236474   3.711   0.630   8.272  0.4655  0.5068 -0.0730
 4947TIP3   OH236475   1.939   2.504   6.315  0.1620 -0.0389  0.2504
 4947TIP3    H136476   1.996   2.458   6.377  0.7351 -1.4340 -1.2314
 4947TIP3    H236477   1.958   2.463   6.230 -3.5808 -1.1443 -0.2397
 4948TIP3   OH236478   4.218   2.415   0.026 -0.9345 -0.0037  0.0465
 4948TIP3    H136479   4.174   2.398   0.109  0.0804 -0.6773  0.4636
 4948TIP3    H236480   4.147   2.419  -0.039 -1.6302 -0.7525  0.7453
 4949TIP3   OH236481   2.522   2.109   0.970  0.2956 -0.0566 -0.7122
 4949TIP3    H136482   2.613   2.135   0.985  0.2876 -1.0646  1.4239
 4949TIP3    H236483   2.472   2.161   1.032 -0.2460 -1.5217  0.1202
 4950TIP3   OH236484   6.888   2.957   0.636 -0.2000  0.0733  0.7431
 4950TIP3    H136485   6.794   2.954   0.619 -0.6515  0.4775  2.9058
 4950TIP3    H236486   6.911   3.050   0.629  0.5841 -0.2415 -2.1015
 4951TIP3   OH236487   1.164   2.731   1.868 -0.4200 -0.1894 -0.4628
 4951TIP3    H136488   1.193   2.710   1.957 -1.3842  1.4871  0.2806
 4951TIP3    H236489   1.214   2.670   1.812  0.6725 -0.8497  1.1467
 4952TIP3   OH236490   3.623   5.734   8.087 -0.5639  1.1314 -0.5848
 4952TIP3    H136491   3.637   5.689   8.003 -1.6836  2.0645 -1.2948
 4952TIP3    H236492   3.705   5.781   8.103 -0.8549  2.1257 -1.9030
 4953TIP3   OH236493   2.026   1.171   2.245 -0.2439 -0.0105  0.1802
 4953TIP3    H136494   1.996   1.169   2.154 -0.0760  0.6290  0.1038
 4953TIP3    H236495   1.955   1.213   2.292  0.0737  0.5293  0.1804
 4954TIP3   OH236496   3.392   4.693   2.190  0.1447  0.2996 -0.0014
 4954TIP3    H136497   3.416   4.647   2.110 -0.1439  1.2502 -0.6537
 4954TIP3    H236498   3.401   4.627   2.259 -1.6872 -1.1917 -1.0702
 4955TIP3   OH236499   0.582   4.492   0.956 -0.1240 -0.2763 -0.1944
 4955TIP3    H136500   0.551   4.562   1.015 -0.0064  2.9591 -3.5778
 4955TIP3    H236501   0.502   4.458   0.915 -0.0333 -0.6663 -0.0514
 4956TIP3   OH236502   3.612   3.936   8.225 -0.1354  0.2117  0.3568
 4956TIP3    H136503   3.696   3.902   8.258  0.0116  1.0932  0.9490
 4956TIP3    H236504   3.577   3.866   8.171  1.0406 -0.1356  0.0162
 4957TIP3   OH236505   1.548   2.841   6.681  0.6274  0.0300  0.1832
 4957TIP3    H136506   1.637   2.872   6.698  0.9659 -0.7762 -0.1150
 4957TIP3    H236507   1.545   2.828   6.586  0.2802 -0.2415  0.2316
 4958TIP3   OH236508   6.891   0.669   2.278  0.1188  0.1138  0.0815
 4958TIP3    H136509   6.800   0.679   2.307 -0.4669  0.3388 -1.7433
 4958TIP3    H236510   6.906   0.574   2.277 -0.1808  0.0665  0.1209
 4959TIP3   OH236511   6.148   4.274   7.470  0.6064 -0.8645 -0.1367
 4959TIP3    H136512   6.202   4.341   7.428 -0.7519 -0.0331 -0.6254
 4959TIP3    H236513   6.159   4.196   7.415 -0.6689  0.0347 -1.7685
 4960TIP3   OH236514   4.363   3.985   8.255  0.1418  0.2697 -0.0093
 4960TIP3    H136515   4.276   3.970   8.293  0.0740 -0.9719 -0.6075
 4960TIP3    H236516   4.423   3.983   8.330 -0.3369  1.2998  0.4290
 4961TIP3   OH236517   0.717   2.131   1.084  0.7163  0.2831 -0.2652
 4961TIP3    H136518   0.783   2.157   1.149  0.2301  1.4678 -0.2187
 4961TIP3    H236519   0.695   2.041   1.107  1.3140  0.3387  0.5734
 4962TIP3   OH236520   4.780   1.249   0.025  0.2044  0.0233  0.3389
 4962TIP3    H136521   4.708   1.292   0.071 -1.7368 -2.3676 -0.2367
 4962TIP3    H236522   4.796   1.304  -0.052 -0.1083  1.2524  1.1286
 4963TIP3   OH236523   1.672   3.712   0.117  0.0538  0.2708  0.1878
 4963TIP3    H136524   1.625   3.684   0.196  0.3939 -0.2933  0.1977
 4963TIP3    H236525   1.615   3.687   0.044 -0.2656  0.8024  0.2458
 4964TIP3   OH236526   5.103   2.732   7.036  0.5111  0.3977  0.0543
 4964TIP3    H136527   5.157   2.777   7.100  0.4429 -1.2626  1.3440
 4964TIP3    H236528   5.087   2.797   6.967  1.6283  1.8289  1.1032
 4965TIP3   OH236529   2.040   5.309   8.434 -0.2980  0.3306  0.5105
 4965TIP3    H136530   1.987   5.282   8.359 -1.7160 -0.6826  1.8174
 4965TIP3    H236531   2.085   5.229   8.462 -2.9772 -0.3973  3.1894
 4966TIP3   OH236532   2.500   4.090   2.282  0.1256 -0.2246  0.3050
 4966TIP3    H136533   2.556   4.081   2.205  0.4698  2.8023  0.0983
 4966TIP3    H236534   2.426   4.032   2.263 -0.5981  1.5332 -3.1502
 4967TIP3   OH236535   1.407   0.966   6.547  0.4251  0.0380 -0.5504
 4967TIP3    H136536   1.469   1.037   6.565 -0.1273  0.1131  1.2186
 4967TIP3    H236537   1.459   0.886   6.556  0.4919  0.1324 -0.0935
 4968TIP3   OH236538   6.006   0.966   7.540  0.6480 -0.1851 -0.1225
 4968TIP3    H136539   6.018   1.038   7.478 -2.1661  0.1971 -0.3713
 4968TIP3    H236540   5.947   0.905   7.495  2.3625 -2.3122  0.3864
 4969TIP3   OH236541   3.076   3.755   0.237  0.5821  0.0109  0.1312
 4969TIP3    H136542   3.071   3.720   0.326  1.8750  1.1005  0.6861
 4969TIP3    H236543   3.170   3.771   0.223  0.3572  0.2899 -1.2620
 4970TIP3   OH236544   1.291   3.743   2.157  0.0804  0.2917  0.2819
 4970TIP3    H136545   1.314   3.798   2.232  2.1493 -0.8420  0.5496
 4970TIP3    H236546   1.229   3.679   2.192 -0.0122  0.6081  0.7064
 4971TIP3   OH236547   2.446   4.121   8.596 -0.7256 -0.3704 -0.1515
 4971TIP3    H136548   2.487   4.206   8.611  1.2916 -1.5109  1.3263
 4971TIP3    H236549   2.451   4.076   8.681  0.2001 -2.7352 -1.3546
 4972TIP3   OH236550   3.541   5.345   8.017 -0.1261  0.3425  0.0408
 4972TIP3    H136551   3.594   5.354   7.938  2.0571 -0.6274  1.2984
 4972TIP3    H236552   3.531   5.251   8.028  1.0315  0.3784  1.7625
 4973TIP3   OH236553   5.081   5.488   0.374 -0.5039  0.5057  0.3484
 4973TIP3    H136554   5.088   5.577   0.410  0.0305  0.9164 -0.7260
 4973TIP3    H236555   5.034   5.499   0.291  0.8286  0.0212 -0.5153
 4974TIP3   OH236556   2.191   1.622   7.156  0.5739  0.0088 -0.1600
 4974TIP3    H136557   2.099   1.638   7.177 -0.0337 -0.6778 -2.0822
 4974TIP3    H236558   2.216   1.548   7.211  1.3506  2.8371  3.6205
 4975TIP3   OH236559   1.663   2.591   6.335 -0.3608 -0.4204 -0.0148
 4975TIP3    H136560   1.757   2.593   6.317 -0.1747 -0.0786  0.9310
 4975TIP3    H236561   1.657   2.589   6.431 -1.3170 -0.7282 -0.0702
 4976TIP3   OH236562   3.825   5.669   6.896 -0.2706 -0.3681 -0.5260
 4976TIP3    H136563   3.857   5.641   6.810 -0.9388  1.5500 -1.4796
 4976TIP3    H236564   3.742   5.623   6.907 -0.0194 -0.8770 -0.7569
 4977TIP3   OH236565   4.924   4.503   0.034  0.6109  0.6610  0.0545
 4977TIP3    H136566   4.912   4.408   0.044 -0.7416  0.5867 -1.8031
 4977TIP3    H236567   4.971   4.512  -0.049 -0.5287  1.6570 -0.4977
 4978TIP3   OH236568   5.608   6.821   1.245  0.4326  0.3774 -0.3443
 4978TIP3    H136569   5.522   6.810   1.203  0.5641 -0.3645 -0.4211
 4978TIP3    H236570   5.589   6.873   1.323 -0.2897 -0.7631  0.2782
 4979TIP3   OH236571   2.487   2.373   7.976  0.5246  0.4646  0.2251
 4979TIP3    H136572   2.441   2.421   7.907  0.0606 -3.0488 -2.1735
 4979TIP3    H236573   2.580   2.386   7.956  0.3953 -1.0172 -1.5640
 4980TIP3   OH236574   1.733   0.588   0.700  0.1051  0.2966 -0.4421
 4980TIP3    H136575   1.826   0.568   0.709 -0.0790 -0.2641  0.2559
 4980TIP3    H236576   1.688   0.505   0.716 -0.5389  0.6707 -0.2671
 4981TIP3   OH236577   3.820   1.176   6.973 -0.5260  0.1474  0.5691
 4981TIP3    H136578   3.856   1.087   6.971 -1.6212 -0.2988 -0.7339
 4981TIP3    H236579   3.829   1.207   6.883 -0.0233  1.4389  1.0396
 4982TIP3   OH236580   1.942   4.382   7.223  0.1530  0.3377 -1.0418
 4982TIP3    H136581   1.968   4.300   7.181 -0.0032 -0.2423 -0.0546
 4982TIP3    H236582   1.988   4.450   7.174  1.9993 -0.5094 -0.5633
 4983TIP3   OH236583   0.497   4.648   1.203  0.3309 -0.1505  0.4864
 4983TIP3    H136584   0.586   4.664   1.232  0.8540 -1.2544 -0.4441
 4983TIP3    H236585   0.466   4.576   1.259  0.1764 -0.0798  0.4947
 4984TIP3   OH236586   6.611   3.895   8.278 -0.0937  0.4026 -0.5207
 4984TIP3    H136587   6.551   3.964   8.249 -1.8613 -0.8080  0.0741
 4984TIP3    H236588   6.680   3.893   8.211 -0.5305  2.0603 -1.0591
 4985TIP3   OH236589   4.939   3.736   1.065  0.4451 -0.0975  0.5735
 4985TIP3    H136590   4.878   3.773   1.130  0.5658  2.5192 -0.6540
 4985TIP3    H236591   4.885   3.720   0.988  0.9539  0.5444  0.0683
 4986TIP3   OH236592   4.674   5.655   7.445  0.0875  0.1425 -0.2929
 4986TIP3    H136593   4.654   5.655   7.539 -3.4534  0.1678 -0.8983
 4986TIP3    H236594   4.767   5.678   7.440  0.5844 -0.5284  3.1988
 4987TIP3   OH236595   2.482   5.552   8.017  0.2037 -0.1018  0.0032
 4987TIP3    H136596   2.507   5.637   8.054 -0.8284  1.5752 -2.8138
 4987TIP3    H236597   2.409   5.572   7.958 -0.0150 -2.9581 -0.8623
 4988TIP3   OH236598   1.761   0.854   7.554  0.4895 -0.2085  0.5630
 4988TIP3    H136599   1.780   0.940   7.517  1.5711 -0.3488  0.7627
 4988TIP3    H236600   1.737   0.871   7.645  1.2083 -0.1491  0.7492
 4989TIP3   OH236601   2.593   6.583   1.582  0.3118 -0.1005  0.5724
 4989TIP3    H136602   2.522   6.640   1.613  1.8244  1.3680  1.5021
 4989TIP3    H236603   2.572   6.567   1.490 -0.5770  1.3563  0.4873
 4990TIP3   OH236604   4.900   6.000   1.726 -0.0737 -0.2772  1.0259
 4990TIP3    H136605   4.828   5.938   1.724 -1.0463  0.8139 -0.9627
 4990TIP3    H236606   4.909   6.024   1.818 -1.5171 -1.2514  1.4441
 4991TIP3   OH236607   3.667   1.962   8.450 -0.5352 -0.7794 -0.1104
 4991TIP3    H136608   3.597   2.026   8.442  0.4876  0.1510 -2.4767
 4991TIP3    H236609   3.628   1.890   8.501 -2.3646  0.7560  0.7905
 4992TIP3   OH236610   1.662   0.789   0.000 -0.0220 -0.0021  0.0935
 4992TIP3    H136611   1.585   0.782  -0.056  0.6412 -2.7011 -0.6356
 4992TIP3    H236612   1.666   0.704   0.045  1.9455  0.4564  0.8869
 4993TIP3   OH236613   4.103   5.148   2.039 -0.1724 -0.1211  0.1822
 4993TIP3    H136614   4.041   5.185   2.102  0.1972  2.4649 -0.8583
 4993TIP3    H236615   4.189   5.178   2.069  0.1381 -0.0031 -0.7974
 4994TIP3   OH236616   5.412   1.424   1.675  0.1604  1.0180 -0.0173
 4994TIP3    H136617   5.486   1.483   1.689  0.0476  0.9751  0.8574
 4994TIP3    H236618   5.388   1.396   1.763  0.3331 -0.4908 -0.4365
 4995TIP3   OH236619   5.662   2.608   0.240  0.6430  0.1448 -0.2942
 4995TIP3    H136620   5.713   2.663   0.181  0.4763  0.3679 -0.2292
 4995TIP3    H236621   5.720   2.535   0.260  1.3561  0.9316  0.6267
 4996TIP3   OH236622   5.917   3.016   8.119  0.4806 -0.5672 -0.1777
 4996TIP3    H136623   6.007   2.999   8.091  0.2515  1.7451 -2.7708
 4996TIP3    H236624   5.883   3.077   8.054 -3.8016 -3.1545 -0.7591
 4997TIP3   OH236625   3.674   0.237   8.067 -0.1906  0.0641  0.2234
 4997TIP3    H136626   3.731   0.249   8.142  0.7368 -0.8735 -0.2989
 4997TIP3    H236627   3.586   0.255   8.100  0.2711  0.3015  1.3578
 4998TIP3   OH236628   5.677   3.862   1.037 -0.0074 -0.2250  0.6106
 4998TIP3    H136629   5.610   3.885   0.973 -0.6295 -2.4454  0.3763
 4998TIP3    H236630   5.628   3.839   1.116  0.4799 -1.3224  0.6118
 4999TIP3   OH236631   5.001   3.670   8.131 -0.6939  0.0296 -0.0854
 4999TIP3    H136632   5.058   3.608   8.085 -1.3122 -0.5592 -0.0803
 4999TIP3    H236633   4.965   3.620   8.204 -0.7541  0.5657  0.2565
 5000TIP3   OH236634   6.905   1.846   1.027  0.1262  0.0818  0.4983
 5000TIP3    H136635   6.971   1.861   1.095 -0.2088 -0.7354  1.0102
 5000TIP3    H236636   6.832   1.903   1.051  0.7057  1.1632 -0.1945
 5001TIP3   OH236637   5.348   5.532   7.246  0.0412  0.4559  0.0403
 5001TIP3    H136638   5.426   5.496   7.203 -1.2961 -1.9225 -0.5679
 5001TIP3    H236639   5.383   5.595   7.309  2.5060 -0.7955  0.0481
 5002TIP3   OH236640   3.174   3.151   7.298 -0.1634  0.3489 -0.1033
 5002TIP3    H136641   3.256   3.101   7.301  0.0697  0.7861  1.3498
 5002TIP3    H236642   3.185   3.210   7.223  0.6310  0.0477 -0.2362
 5003TIP3   OH236643   5.986   6.745   0.181  0.1253 -0.4132  0.7787
 5003TIP3    H136644   5.963   6.652   0.183  1.7128 -0.8422  0.5592
 5003TIP3    H236645   5.905   6.789   0.153 -0.4373 -1.7971  0.1000
 5004TIP3   OH236646   1.863   3.422   1.543 -0.1786  0.4700  0.2140
 5004TIP3    H136647   1.910   3.378   1.614 -0.1000  0.9817  0.4817
 5004TIP3    H236648   1.931   3.468   1.494 -0.1955 -0.1070 -0.3637
 5005TIP3   OH236649   3.862   6.725   7.370 -0.1807 -0.3207 -0.4047
 5005TIP3    H136650   3.888   6.817   7.360  0.6704 -0.7027 -1.8669
 5005TIP3    H236651   3.864   6.689   7.282 -1.9353 -1.3959 -0.0475
 5006TIP3   OH236652   6.586   1.417   7.992 -0.1511 -1.1355  0.1098
 5006TIP3    H136653   6.586   1.506   7.957 -1.2573 -0.0739  2.5430
 5006TIP3    H236654   6.494   1.400   8.013  0.0919 -2.7506 -0.0615
 5007TIP3   OH236655   2.838   0.049   0.464  0.4662  0.2277  0.5231
 5007TIP3    H136656   2.928   0.030   0.439  0.1969 -0.8814  0.3619
 5007TIP3    H236657   2.840   0.053   0.560  1.1214  2.5849  0.4887
 5008TIP3   OH236658   1.717   4.370   7.767  0.1333  0.0634 -0.4985
 5008TIP3    H136659   1.707   4.275   7.774 -1.1544  0.0345 -2.0601
 5008TIP3    H236660   1.778   4.382   7.694  0.7335  0.4489  0.0545
 5009TIP3   OH236661   0.728   4.917   0.893  0.4104  0.1727 -0.9443
 5009TIP3    H136662   0.751   4.824   0.900 -0.9647 -0.2912 -2.2128
 5009TIP3    H236663   0.639   4.922   0.927  0.6149  1.1252 -0.5097
 5010TIP3   OH236664   6.272   2.910   0.760 -0.3016 -0.3046  0.3048
 5010TIP3    H136665   6.216   2.980   0.728 -2.7021 -1.3130  1.9474
 5010TIP3    H236666   6.345   2.955   0.802 -2.1872  1.3463  2.0689
 5011TIP3   OH236667   0.699   0.426   1.327  0.3089 -0.4545  0.1019
 5011TIP3    H136668   0.614   0.412   1.286  0.9193 -0.5920 -1.1891
 5011TIP3    H236669   0.744   0.342   1.317  0.9081 -0.1213 -0.0322
 5012TIP3   OH236670   6.328   4.990   7.615 -0.0459  0.3018  0.1891
 5012TIP3    H136671   6.300   5.063   7.670 -1.1059  0.5833 -0.6882
 5012TIP3    H236672   6.283   5.004   7.532  1.7763  0.0940 -0.9008
 5013TIP3   OH236673   1.954   5.472   7.782 -0.3385 -0.1798  0.3353
 5013TIP3    H136674   2.040   5.468   7.740  0.4975  0.4907  1.8798
 5013TIP3    H236675   1.907   5.396   7.748  0.7909 -0.4618 -0.6847
 5014TIP3   OH236676   5.067   3.531   0.798  0.1718  0.2404  0.0218
 5014TIP3    H136677   5.030   3.483   0.872  0.1339 -1.3917 -1.0220
 5014TIP3    H236678   5.000   3.595   0.774 -0.8679 -0.8729 -0.1382
 5015TIP3   OH236679   4.407   6.328   8.558  0.1370  0.2007  1.1136
 5015TIP3    H136680   4.380   6.419   8.571  0.2950  0.5535 -0.7400
 5015TIP3    H236681   4.341   6.276   8.604 -0.1778  1.2299  1.8486
 5016TIP3   OH236682   1.288   2.391   0.898  0.1861  0.2867  0.3684
 5016TIP3    H136683   1.297   2.333   0.822  2.0227 -0.7856  1.3184
 5016TIP3    H236684   1.252   2.473   0.862 -0.2362 -0.6307 -1.4078
 5017TIP3   OH236685   1.752   2.962   1.781 -0.3669 -0.1017 -0.1642
 5017TIP3    H136686   1.740   3.027   1.850  0.1284 -0.6086  0.4040
 5017TIP3    H236687   1.796   3.010   1.711 -1.8935  0.7081 -0.6141
 5018TIP3   OH236688   1.695   6.722   7.551 -0.2602 -0.1019  0.2423
 5018TIP3    H136689   1.625   6.758   7.496  0.0513  1.1478  0.6185
 5018TIP3    H236690   1.755   6.680   7.489  0.1211  1.3375 -0.4236
 5019TIP3   OH236691   6.292   6.317   7.458 -0.1674 -0.3808  0.1330
 5019TIP3    H136692   6.241   6.380   7.510  1.4545  2.9551 -2.0056
 5019TIP3    H236693   6.345   6.271   7.522 -1.5090  0.3032  1.8259
 5020TIP3   OH236694   0.751   1.307   6.974  0.2213  0.1975  0.4639
 5020TIP3    H136695   0.768   1.400   6.992  0.6423 -0.3450  3.4455
 5020TIP3    H236696   0.834   1.275   6.939  0.3771  0.7407  0.3176
 5021TIP3   OH236697   1.173   0.709   1.690 -0.2044 -0.1316  0.6580
 5021TIP3    H136698   1.266   0.687   1.694 -0.3615 -1.0374 -0.2473
 5021TIP3    H236699   1.167   0.776   1.621 -0.2307 -0.1376  0.6545
 5022TIP3   OH236700   1.274   1.096   0.585  0.0617 -0.5182 -0.4664
 5022TIP3    H136701   1.209   1.028   0.571 -1.1958  0.3591  0.8262
 5022TIP3    H236702   1.248   1.166   0.526 -0.5953  0.0884  0.5095
 5023TIP3   OH236703   4.788   3.089   8.293 -0.0645 -0.0729 -0.0071
 5023TIP3    H136704   4.695   3.107   8.286  0.1242  1.7445  1.5178
 5023TIP3    H236705   4.812   3.117   8.382  2.2551  1.1736 -0.9344
 5024TIP3   OH236706   3.890   2.837   7.045 -0.1666 -0.1073 -0.0187
 5024TIP3    H136707   3.926   2.795   6.968  2.0836 -0.9980  1.4047
 5024TIP3    H236708   3.919   2.928   7.038  0.3490 -0.2691 -0.0885
 5025TIP3   OH236709   6.543   2.658   6.130 -0.6384  0.3096  0.1082
 5025TIP3    H136710   6.487   2.596   6.082 -1.9162  0.8309  0.8712
 5025TIP3    H236711   6.493   2.679   6.208  0.1793  1.6367  0.2966
 5026TIP3   OH236712   6.424   2.715   8.299  0.1992 -0.6380 -0.7233
 5026TIP3    H136713   6.351   2.687   8.243 -0.4803  0.8913 -0.6665
 5026TIP3    H236714   6.381   2.751   8.377  1.0736 -0.9101 -0.1034
 5027TIP3   OH236715   1.951   0.814   8.281  0.1527 -0.1372  1.2465
 5027TIP3    H136716   2.045   0.806   8.294 -0.0400 -0.9239  2.3388
 5027TIP3    H236717   1.919   0.724   8.282 -0.5324  0.0667  0.1006
 5028TIP3   OH236718   1.262   3.513   0.734  0.2032 -0.2964  0.6806
 5028TIP3    H136719   1.211   3.520   0.815  0.5682  3.3330  0.7827
 5028TIP3    H236720   1.351   3.534   0.761  0.7056 -1.0105 -0.3834
 5029TIP3   OH236721   3.417   5.190   1.071 -0.3540 -0.3417 -0.0460
 5029TIP3    H136722   3.413   5.266   1.013 -0.7424 -0.4697 -0.1965
 5029TIP3    H236723   3.503   5.194   1.111  0.0045 -0.3641 -0.7938
 5030TIP3   OH236724   3.843   2.463   0.258 -0.7343  0.3423 -0.2089
 5030TIP3    H136725   3.852   2.547   0.304 -1.3019  0.3763 -0.1573
 5030TIP3    H236726   3.756   2.431   0.283 -1.3019  0.6430 -1.7206
 5031TIP3   OH236727   3.035   4.921   6.980  0.6725 -0.3364 -0.1432
 5031TIP3    H136728   3.042   4.960   7.067 -0.7405 -1.1998  0.4090
 5031TIP3    H236729   3.015   4.994   6.922  3.5440  0.5663 -0.1408
 5032TIP3   OH236730   5.210   5.931   7.329  0.0736  0.3287  0.1108
 5032TIP3    H136731   5.155   5.882   7.268  0.4293 -0.3269  0.3098
 5032TIP3    H236732   5.255   5.995   7.275 -1.5595  1.5192  0.0635
 5033TIP3   OH236733   4.571   2.764   6.826 -0.5000 -0.0182  0.4372
 5033TIP3    H136734   4.579   2.809   6.741 -0.8114 -0.9843 -0.1128
 5033TIP3    H236735   4.549   2.834   6.888  2.5943  1.2597  0.3169
 5034TIP3   OH236736   4.402   2.606   7.757 -0.4932  0.1116 -0.4540
 5034TIP3    H136737   4.323   2.660   7.760 -1.1048 -0.7772  0.0228
 5034TIP3    H236738   4.454   2.636   7.831 -0.6586  0.2953 -0.4106
 5035TIP3   OH236739   4.469   0.525   1.632  0.0720 -0.0809  0.2632
 5035TIP3    H136740   4.422   0.508   1.713  0.2402 -0.5936  0.2558
 5035TIP3    H236741   4.491   0.618   1.636  2.1803 -0.5754  1.9244
 5036TIP3   OH236742   0.285   2.661   2.281 -0.1505 -0.1644 -0.0488
 5036TIP3    H136743   0.227   2.699   2.216 -0.9615  0.4206  0.9818
 5036TIP3    H236744   0.338   2.598   2.233 -0.9384  0.0336 -1.2003
 5037TIP3   OH236745   6.674   1.160   7.954  0.1628  0.3976 -0.0252
 5037TIP3    H136746   6.620   1.238   7.968 -1.1196 -0.0406 -2.0399
 5037TIP3    H236747   6.754   1.193   7.914  0.2771  0.8034  0.5206
 5038TIP3   OH236748   1.459   6.462   0.811  0.1583 -0.4833 -0.0520
 5038TIP3    H136749   1.451   6.545   0.859 -2.2242  0.7702 -2.3924
 5038TIP3    H236750   1.419   6.397   0.870 -1.5833  0.7871  0.2512
 5039TIP3   OH236751   5.692   4.424   7.271  0.4498 -0.7522 -0.5497
 5039TIP3    H136752   5.750   4.360   7.312 -0.4047 -0.5846  0.9871
 5039TIP3    H236753   5.610   4.375   7.255  0.2866 -0.4261 -0.7172
 5040TIP3   OH236754   5.071   6.560   8.108  0.3472 -0.6598 -0.4948
 5040TIP3    H136755   5.167   6.559   8.107  0.3614 -1.3790  0.2439
 5040TIP3    H236756   5.046   6.593   8.021  1.2573  1.4281 -0.0211
 5041TIP3   OH236757   3.842   3.535   0.641 -0.4526 -0.4689 -0.4951
 5041TIP3    H136758   3.891   3.453   0.630  0.4467  0.0902 -0.7167
 5041TIP3    H236759   3.795   3.523   0.724  1.9024 -0.1189  0.9852
 5042TIP3   OH236760   2.158   5.546   8.099 -0.1566  0.3331 -0.1648
 5042TIP3    H136761   2.168   5.578   8.009  0.2073  1.1712  0.1550
 5042TIP3    H236762   2.169   5.625   8.153 -0.4264 -0.1504  0.6104
 5043TIP3   OH236763   2.628   5.516   8.302  0.0705 -0.5484  0.3428
 5043TIP3    H136764   2.630   5.594   8.357 -0.5814  0.2361 -0.7034
 5043TIP3    H236765   2.719   5.494   8.287  0.2866  0.7490 -0.3524
 5044TIP3   OH236766   2.936   4.272   0.942  0.0061 -0.5338 -0.2060
 5044TIP3    H136767   3.031   4.260   0.939  0.0819  0.0234 -0.1977
 5044TIP3    H236768   2.909   4.282   0.851 -0.1987 -1.7471 -0.2954
 5045TIP3   OH236769   6.442   6.518   8.304 -0.1539  0.2273  0.1269
 5045TIP3    H136770   6.464   6.432   8.269  0.7938 -0.3828  2.0751
 5045TIP3    H236771   6.499   6.578   8.256 -3.4207  0.4881 -4.0460
 5046TIP3   OH236772   6.318   2.207   1.729 -0.4939  0.4742  0.5808
 5046TIP3    H136773   6.374   2.229   1.804  0.7021 -0.4531 -0.0082
 5046TIP3    H236774   6.232   2.242   1.753  0.4572  2.5809  1.2170
 5047TIP3   OH236775   2.047   3.720   0.079 -0.4950  0.4848 -0.7128
 5047TIP3    H136776   2.098   3.778   0.023 -1.1401  0.0915 -1.7181
 5047TIP3    H236777   2.055   3.759   0.167 -0.7478  1.9842 -1.3197
 5048TIP3   OH236778   4.007   2.372   8.459 -1.2340 -0.3804  0.6901
 5048TIP3    H136779   3.972   2.457   8.433  0.4443  0.1385 -0.0695
 5048TIP3    H236780   3.940   2.309   8.433 -1.9254  0.6119 -0.0033
 5049TIP3   OH236781   4.725   5.570   0.649 -0.1334  0.6081  0.0201
 5049TIP3    H136782   4.670   5.573   0.571 -2.2246  0.0779  1.3933
 5049TIP3    H236783   4.782   5.494   0.636  0.1967  1.0556 -1.3492
 5050TIP3   OH236784   6.573   0.855   7.438 -0.1145 -0.3501 -0.5037
 5050TIP3    H136785   6.643   0.825   7.497  0.1535  0.7850 -0.2189
 5050TIP3    H236786   6.501   0.878   7.496  0.1580  0.7933 -0.5867
 5051TIP3   OH236787   2.479   3.157   2.042  0.4204  0.1347  0.0355
 5051TIP3    H136788   2.429   3.077   2.030  1.0477 -0.1758 -0.6000
 5051TIP3    H236789   2.428   3.209   2.105 -0.5580 -0.2697 -0.4107
 5052TIP3   OH236790   2.305   3.725   1.944  0.0196  0.3214  0.5823
 5052TIP3    H136791   2.378   3.785   1.932  0.8159 -0.8221 -0.6321
 5052TIP3    H236792   2.241   3.752   1.878 -0.8597  1.5743  1.9119
 5053TIP3   OH236793   3.228   5.316   5.794 -0.1420  0.6054 -0.1257
 5053TIP3    H136794   3.267   5.347   5.875  0.7113 -0.3212 -0.1641
 5053TIP3    H236795   3.139   5.352   5.794 -0.2967  0.2646  1.4114
 5054TIP3   OH236796   6.451   3.747   8.538  0.2622 -0.1248  0.7563
 5054TIP3    H136797   6.513   3.674   8.541  1.3723  0.7937  0.3782
 5054TIP3    H236798   6.381   3.716   8.481  0.6151 -0.9686  0.7656
 5055TIP3   OH236799   0.498   3.593   8.134  0.3312  0.3257  0.3506
 5055TIP3    H136800   0.417   3.608   8.084  0.9294 -1.4789 -1.2946
 5055TIP3    H236801   0.542   3.678   8.134  0.0203  0.5459 -1.7431
 5056TIP3   OH236802   2.341   2.407   1.927 -0.2822 -0.5366 -0.6249
 5056TIP3    H136803   2.269   2.454   1.885 -0.3309 -0.9481 -1.0150
 5056TIP3    H236804   2.419   2.458   1.907 -0.1412 -1.2894 -2.1687
 5057TIP3   OH236805   3.045   5.879   6.391 -1.0976 -0.0717 -0.1548
 5057TIP3    H136806   3.057   5.942   6.320 -0.5353 -0.8470 -0.7672
 5057TIP3    H236807   3.114   5.814   6.377 -1.5028 -0.6844  0.6136
 5058TIP3   OH236808   4.449   6.796   1.374  0.9953 -0.3018 -0.0903
 5058TIP3    H136809   4.496   6.774   1.293  0.7733  3.2185 -1.3348
 5058TIP3    H236810   4.357   6.801   1.348  0.4847 -2.0874  1.1653
 5059TIP3   OH236811   5.674   3.814   7.573 -0.0492 -0.3305 -0.3933
 5059TIP3    H136812   5.673   3.749   7.644 -1.0209 -0.1776 -0.2474
 5059TIP3    H236813   5.582   3.841   7.565  0.1320  0.0022 -1.3966
 5060TIP3   OH236814   1.871   5.759   0.281 -0.0454  0.3629  0.3334
 5060TIP3    H136815   1.808   5.729   0.216  0.1863 -1.2355  0.8043
 5060TIP3    H236816   1.826   5.749   0.365  0.6928 -0.4348  0.6451
 5061TIP3   OH236817   0.925   3.504   7.362  0.1470 -0.4272 -0.0493
 5061TIP3    H136818   0.957   3.593   7.349  0.5430 -0.1181  2.5479
 5061TIP3    H236819   0.885   3.481   7.278 -0.3215  2.3192 -0.6835
 5062TIP3   OH236820   5.989   2.264   1.366 -0.5733 -0.2793  0.0176
 5062TIP3    H136821   6.081   2.274   1.388 -0.3889 -0.5332 -0.6130
 5062TIP3    H236822   5.944   2.329   1.420 -0.2900 -1.6818  2.0257
 5063TIP3   OH236823   6.259   1.924   1.632  0.1357  0.5075  0.2236
 5063TIP3    H136824   6.186   1.903   1.690  1.4060 -1.6563  1.1427
 5063TIP3    H236825   6.287   2.011   1.658 -1.3516  0.8923  0.6300
 5064TIP3   OH236826   5.406   0.090   2.152  0.5023 -0.2544 -0.2901
 5064TIP3    H136827   5.437   0.124   2.068  1.5257  0.7826  0.4704
 5064TIP3    H236828   5.451   0.144   2.217  0.5792 -1.7401  0.9448
 5065TIP3   OH236829   4.944   0.554   2.037  0.4452 -0.0450  0.0924
 5065TIP3    H136830   5.010   0.588   2.098 -0.5794  2.7546 -0.2584
 5065TIP3    H236831   4.993   0.538   1.956  1.6970 -3.2459  1.3072
 5066TIP3   OH236832   2.943   2.634   1.294 -0.3747  0.3246 -0.1545
 5066TIP3    H136833   2.896   2.571   1.239  0.1927 -1.0843  0.9015
 5066TIP3    H236834   3.035   2.607   1.286 -0.3159 -0.1519  1.7162
 5067TIP3   OH236835   1.645   1.385   6.529 -0.4902  0.2045 -0.0351
 5067TIP3    H136836   1.571   1.424   6.575 -1.4771 -1.5498 -0.0471
 5067TIP3    H236837   1.623   1.395   6.436  0.0329  1.0149 -0.0823
 5068TIP3   OH236838   3.203   2.494   8.365 -0.0890  0.3094 -0.1860
 5068TIP3    H136839   3.254   2.569   8.395 -1.0801  1.2513 -0.7876
 5068TIP3    H236840   3.266   2.439   8.319  0.9228  0.0943  1.3770
 5069TIP3   OH236841   6.201   4.594   8.045  0.0804 -0.3494  0.5338
 5069TIP3    H136842   6.186   4.608   8.138 -3.7972 -1.4920  0.2586
 5069TIP3    H236843   6.165   4.672   8.002  0.5503 -0.4634 -0.1016
 5070TIP3   OH236844   3.278   6.918   0.174  0.5365  0.3336  0.4717
 5070TIP3    H136845   3.295   6.826   0.153 -0.2141  0.3592 -0.3286
 5070TIP3    H236846   3.362   6.951   0.204  0.8237 -0.6097  0.7442
 5071TIP3   OH236847   4.474   2.748   7.471  0.1053  0.9931  0.0046
 5071TIP3    H136848   4.383   2.735   7.444 -0.1773 -0.4615  1.4552
 5071TIP3    H236849   4.476   2.717   7.562  2.4750 -0.9316 -0.6084
 5072TIP3   OH236850   5.984   0.474   8.530  0.6147 -0.5411 -0.1996
 5072TIP3    H136851   5.900   0.514   8.553  1.1424  0.7920 -0.4730
 5072TIP3    H236852   5.961   0.401   8.473 -0.3914 -0.6484  0.3158
 5073TIP3   OH236853   4.334   2.438   2.469  0.1830  0.3217 -0.4894
 5073TIP3    H136854   4.309   2.351   2.438  0.9378  0.0089 -0.2462
 5073TIP3    H236855   4.362   2.423   2.560  1.4143  0.6262 -0.8116
 5074TIP3   OH236856   5.660   5.513   2.384  0.8955 -0.1346 -0.1762
 5074TIP3    H136857   5.600   5.524   2.310 -1.0736 -0.3221  1.3167
 5074TIP3    H236858   5.635   5.430   2.423  1.7076  0.0997  0.8700
 5075TIP3   OH236859   5.619   2.522   7.322 -0.0090 -0.4160 -0.3441
 5075TIP3    H136860   5.530   2.544   7.350  0.2269 -2.2628  2.2935
 5075TIP3    H236861   5.608   2.456   7.254 -0.6837 -0.9063  0.2272
 5076TIP3   OH236862   5.227   4.408   0.388  0.0611  0.2174  0.1487
 5076TIP3    H136863   5.138   4.378   0.410 -1.0059  3.4414  0.8079
 5076TIP3    H236864   5.225   4.420   0.293 -0.1313  0.0394  0.1284
 5077TIP3   OH236865   1.074   3.943   8.072 -0.6373 -0.4316 -0.4874
 5077TIP3    H136866   1.043   3.938   7.982 -0.5371  0.5861 -0.5843
 5077TIP3    H236867   1.163   3.979   8.065 -1.4791  1.9359  0.1455
 5078TIP3   OH236868   2.292   2.658   8.425  0.1752 -0.1286 -0.6352
 5078TIP3    H136869   2.379   2.681   8.395  0.7437  0.1352  1.1137
 5078TIP3    H236870   2.256   2.739   8.462 -0.4213 -0.4698 -0.4413
 5079TIP3   OH236871   0.964   3.036   0.737 -0.1904  0.1741 -0.0009
 5079TIP3    H136872   0.951   3.053   0.644  0.2584 -1.9411 -0.5045
 5079TIP3    H236873   0.877   3.013   0.770 -0.5609  2.0306  0.3936
 5080TIP3   OH236874   5.287   2.297   2.355  0.0454  0.2419  0.1314
 5080TIP3    H136875   5.352   2.280   2.423 -0.3274  0.2060  0.4900
 5080TIP3    H236876   5.217   2.345   2.401  0.3093  1.2454 -0.4917
 5081TIP3   OH236877   0.532   0.505   7.921 -0.0761 -0.1423 -0.0457
 5081TIP3    H136878   0.582   0.431   7.887 -0.2124  0.2751 -1.2038
 5081TIP3    H236879   0.595   0.577   7.923 -0.6423  0.4601 -1.7814
 5082TIP3   OH236880   3.420   4.820   7.640  0.0247 -0.5496 -0.1272
 5082TIP3    H136881   3.379   4.810   7.555  0.7542 -0.4427 -0.4998
 5082TIP3    H236882   3.379   4.898   7.678  0.1128 -0.2574 -0.6240
 5083TIP3   OH236883   1.533   5.269   6.917 -0.0383 -0.5002  0.2673
 5083TIP3    H136884   1.591   5.295   6.846 -1.3654  0.7281 -0.4461
 5083TIP3    H236885   1.557   5.179   6.937  1.2508 -0.4321 -0.8389
 5084TIP3   OH236886   2.784   2.474   8.519  0.2001 -0.1185  0.5577
 5084TIP3    H136887   2.852   2.444   8.460 -1.1807  2.2112 -2.4782
 5084TIP3    H236888   2.709   2.417   8.501  0.2401 -0.4095  1.2711
 5085TIP3   OH236889   2.425   1.910   7.070  0.4718 -0.2697 -0.1371
 5085TIP3    H136890   2.509   1.939   7.107  0.7055 -0.4247 -0.5403
 5085TIP3    H236891   2.359   1.957   7.121  0.7463 -1.2049  1.1262
 5086TIP3   OH236892   4.268   5.502   7.097  0.3589  0.4898 -0.0321
 5086TIP3    H136893   4.215   5.464   7.167 -2.4194  2.5897 -0.7772
 5086TIP3    H236894   4.354   5.515   7.135 -0.4321 -0.4634  2.2427
 5087TIP3   OH236895   4.216   2.016   1.704 -0.1843 -1.0153 -0.0610
 5087TIP3    H136896   4.290   2.014   1.765 -0.2759 -1.1851  0.0442
 5087TIP3    H236897   4.159   1.946   1.733 -1.9612  1.0557  1.7945
 5088TIP3   OH236898   6.648   0.453   1.635  0.5866 -0.3281 -0.4616
 5088TIP3    H136899   6.618   0.385   1.695 -1.5429  1.4432  0.5868
 5088TIP3    H236900   6.737   0.426   1.611  0.3987 -2.6215  1.1445
 5089TIP3   OH236901   1.676   2.377   0.837  0.2922 -0.2715  0.0400
 5089TIP3    H136902   1.712   2.426   0.763 -0.3439 -1.4804 -1.0969
 5089TIP3    H236903   1.630   2.443   0.888  0.1856  0.4771 -0.9875
 5090TIP3   OH236904   4.115   0.174   8.153  0.1171 -0.0627  0.5134
 5090TIP3    H136905   4.105   0.262   8.117 -2.5690  0.3257  1.9457
 5090TIP3    H236906   4.119   0.116   8.077 -0.2791  1.1360 -0.4353
 5091TIP3   OH236907   4.048   1.917   8.519  0.0174 -0.0611 -0.3626
 5091TIP3    H136908   4.009   1.917   8.432 -1.3635 -1.9039  0.1676
 5091TIP3    H236909   3.976   1.941   8.577  0.7438  0.4938  0.3219
 5092TIP3   OH236910   1.125   6.443   8.094  0.0271 -0.3286 -0.5826
 5092TIP3    H136911   1.037   6.415   8.070 -0.6309 -0.1743  1.4510
 5092TIP3    H236912   1.182   6.399   8.031 -1.4870 -0.3274 -2.0229
 5093TIP3   OH236913   4.804   0.049   1.483  0.1036 -0.2863  0.4467
 5093TIP3    H136914   4.732   0.092   1.438  1.1541  1.3752  0.2366
 5093TIP3    H236915   4.861   0.017   1.412 -0.1975 -1.2023  0.6090
 5094TIP3   OH236916   1.740   4.636   8.338 -0.3495  0.0302 -0.6370
 5094TIP3    H136917   1.787   4.568   8.386 -2.3167 -0.4617  0.7381
 5094TIP3    H236918   1.801   4.709   8.335  1.7413 -1.6304 -1.9269
 5095TIP3   OH236919   5.059   0.039   0.451  0.1107 -0.1930  0.1699
 5095TIP3    H136920   5.043   0.126   0.487  0.2101 -0.2398  0.3292
 5095TIP3    H236921   5.061   0.052   0.356  1.9219  0.3008  0.2356
 5096TIP3   OH236922   0.725   2.976   0.845  0.3819  0.6091  0.3448
 5096TIP3    H136923   0.746   3.045   0.908  0.4545  0.7152  0.2071
 5096TIP3    H236924   0.650   3.011   0.796  1.9382  1.7107 -1.4183
 5097TIP3   OH236925   6.922   5.920   0.858  0.4776  0.3850 -0.1107
 5097TIP3    H136926   6.881   5.838   0.886  1.7801 -0.0824  0.5319
 5097TIP3    H236927   7.008   5.893   0.825  0.4069  1.3533 -1.1564
 5098TIP3   OH236928   4.789   4.511   1.257  0.3231 -0.7393 -0.0002
 5098TIP3    H136929   4.851   4.439   1.274  1.1188  0.2694  1.6629
 5098TIP3    H236930   4.729   4.509   1.331 -1.9394 -1.9033 -1.7554
 5099TIP3   OH236931   6.275   5.760   6.960 -0.3578 -0.1920  0.6166
 5099TIP3    H136932   6.277   5.758   6.864 -1.2516  0.5468  0.5663
 5099TIP3    H236933   6.257   5.670   6.985  0.4685 -0.5063  0.1136
 5100TIP3   OH236934   2.245   0.876   1.779  0.2073 -0.3566  0.4846
 5100TIP3    H136935   2.221   0.810   1.844  0.6998 -2.7791 -1.6272
 5100TIP3    H236936   2.337   0.897   1.798  0.6053 -1.6826  0.1015
 5101TIP3   OH236937   0.745   4.078   7.058  0.3560  0.4399 -0.5880
 5101TIP3    H136938   0.823   4.038   7.095 -1.1315 -1.2730  0.9372
 5101TIP3    H236939   0.735   4.161   7.106  1.0237  0.4971 -0.5401
 5102TIP3   OH236940   4.271   0.303   0.190 -0.2022  1.0423 -0.1653
 5102TIP3    H136941   4.256   0.209   0.202  0.0705  1.0743  0.4358
 5102TIP3    H236942   4.233   0.344   0.268 -2.9967  1.7166 -1.7457
 5103TIP3   OH236943   6.689   1.519   7.230  0.6187 -0.4184  0.4121
 5103TIP3    H136944   6.708   1.426   7.231  0.6460 -0.4309 -0.3755
 5103TIP3    H236945   6.763   1.558   7.182  1.0732  0.1239  1.5065
 5104TIP3   OH236946   3.954   2.809   7.309 -0.1300 -0.0487  0.4285
 5104TIP3    H136947   3.911   2.726   7.327  0.1973 -0.8689 -2.2268
 5104TIP3    H236948   3.927   2.832   7.220  2.2234  1.0728 -0.0866
 5105TIP3   OH236949   4.558   6.403   0.619  0.1497 -0.7165 -0.1456
 5105TIP3    H136950   4.562   6.376   0.527  1.1858  0.1711 -0.3830
 5105TIP3    H236951   4.638   6.455   0.632 -0.2991 -0.3055  1.0925
 5106TIP3   OH236952   3.291   5.442   8.094  0.0968 -0.4961  0.1977
 5106TIP3    H136953   3.366   5.386   8.076 -1.3999 -2.4636 -0.1967
 5106TIP3    H236954   3.273   5.486   8.011 -0.7195 -1.9920 -0.4533
 5107TIP3   OH236955   6.845   1.571   7.925 -0.3240  0.7244  0.2877
 5107TIP3    H136956   6.894   1.648   7.954 -0.6951  0.8197  0.6727
 5107TIP3    H236957   6.820   1.527   8.006 -0.2774  0.3006  0.0735
 5108TIP3   OH236958   1.234   4.826   1.957  0.0219  0.4096  0.4291
 5108TIP3    H136959   1.271   4.857   2.040 -2.0727  0.4997  1.4061
 5108TIP3    H236960   1.184   4.901   1.924 -0.3766 -0.1032 -0.1498
 5109TIP3   OH236961   4.671   5.881   6.798  0.3312 -0.4574 -0.0638
 5109TIP3    H136962   4.634   5.840   6.876 -1.7810 -1.2023 -1.3652
 5109TIP3    H236963   4.670   5.975   6.817 -0.4381 -0.6080  0.6807
 5110TIP3   OH236964   0.699   1.614   0.274  0.1276 -0.1292 -0.1133
 5110TIP3    H136965   0.785   1.651   0.294  0.7692 -1.4470 -0.3196
 5110TIP3    H236966   0.672   1.657   0.193 -0.3326  1.7407  0.9621
 5111TIP3   OH236967   0.353   3.029   1.236  0.2653  0.1367  0.0871
 5111TIP3    H136968   0.282   3.001   1.294 -1.5273 -0.2058 -2.1314
 5111TIP3    H236969   0.379   2.950   1.190  0.9683  0.5857 -0.3049
 5112TIP3   OH236970   2.830   1.886   8.034 -0.1643  0.2120 -0.1165
 5112TIP3    H136971   2.824   1.880   7.938 -0.5832 -2.1604  0.0044
 5112TIP3    H236972   2.924   1.883   8.052  0.0694  2.9186 -0.4902
 5113TIP3   OH236973   6.480   2.369   6.893  0.1948  0.4232  0.2795
 5113TIP3    H136974   6.482   2.296   6.955 -2.1164  0.5384  0.5831
 5113TIP3    H236975   6.430   2.336   6.818  0.4519  1.2252 -0.2690
 5114TIP3   OH236976   0.043   1.460   0.367 -0.1396 -0.0392  0.0891
 5114TIP3    H136977   0.082   1.373   0.379  2.5506  1.0182 -0.4290
 5114TIP3    H236978   0.065   1.507   0.448  0.0617  0.7286 -0.4065
 5115TIP3   OH236979   2.062   0.344   6.822  0.3649  0.7823  0.3295
 5115TIP3    H136980   2.090   0.362   6.732  1.3293  1.4865  0.7517
 5115TIP3    H236981   2.136   0.296   6.861  0.2321  1.0617  0.9350
 5116TIP3   OH236982   4.509   5.511   7.238 -0.1325 -0.4512 -0.0503
 5116TIP3    H136983   4.574   5.443   7.258  0.3142 -0.2798 -0.8836
 5116TIP3    H236984   4.520   5.575   7.308 -0.2739 -1.0264  0.5111
 5117TIP3   OH236985   2.442   0.041   7.234  0.3677 -0.3250 -0.1522
 5117TIP3    H136986   2.369   0.068   7.178  0.8623  1.1418 -0.1350
 5117TIP3    H236987   2.402  -0.013   7.301 -1.0139  1.7083  0.7895
 5118TIP3   OH236988   4.969   0.850   2.330  0.4400  0.4087 -0.1608
 5118TIP3    H136989   5.023   0.905   2.387  1.0039  0.5095 -0.7802
 5118TIP3    H236990   5.031   0.807   2.272 -0.0258 -0.6578  0.1170
 5119TIP3   OH236991   1.456   4.508   7.799  0.0385  0.2374  0.0133
 5119TIP3    H136992   1.549   4.485   7.804  0.2916  1.1276 -0.4500
 5119TIP3    H236993   1.452   4.599   7.828 -0.3733  0.9215 -2.0299
 5120TIP3   OH236994   2.163   4.692   6.355 -0.0094  0.0026  0.3477
 5120TIP3    H136995   2.196   4.709   6.266 -0.4779 -1.5082 -0.1329
 5120TIP3    H236996   2.093   4.628   6.343 -0.1482 -0.1387  1.8092
 5121TIP3   OH236997   6.347   5.774   6.686 -0.3489 -1.0379 -0.2458
 5121TIP3    H136998   6.269   5.819   6.656  0.6300 -0.2354 -1.6936
 5121TIP3    H236999   6.393   5.749   6.606  0.4231 -2.3255  0.5602
 5122TIP3   OH237000   6.361   1.066   7.907  0.7082  0.0429 -0.5041
 5122TIP3    H137001   6.279   1.048   7.953  0.2322  1.3954 -0.7728
 5122TIP3    H237002   6.429   1.053   7.974  0.4453 -2.3836 -0.6107
 5123TIP3   OH237003   1.525   6.844   7.068  0.3478 -0.2921 -0.1879
 5123TIP3    H137004   1.524   6.939   7.077  1.2821 -0.2746 -0.1246
 5123TIP3    H237005   1.434   6.819   7.054  0.2631  0.7655 -1.7450
 5124TIP3   OH237006   2.915   3.929   2.821 -0.1964 -0.0015 -0.1388
 5124TIP3    H137007   2.906   3.943   2.916 -1.2373 -0.4757 -0.1518
 5124TIP3    H237008   2.912   4.017   2.784 -1.5390  0.1120  0.1571
 5125TIP3   OH237009   3.302   1.530   8.299  0.6537  0.2643  0.2190
 5125TIP3    H137010   3.273   1.546   8.389 -1.3214 -2.1417  0.1132
 5125TIP3    H237011   3.221   1.533   8.247  1.4935 -0.2124 -1.1763
 5126TIP3   OH237012   3.552   5.073   8.007 -0.2021  0.2705  0.1656
 5126TIP3    H137013   3.622   5.084   8.071 -0.0479  1.0039 -0.1220
 5126TIP3    H237014   3.567   4.985   7.970  0.4076  0.3141  0.2952
 5127TIP3   OH237015   1.373   4.043   0.961  0.2036  0.8218  0.3698
 5127TIP3    H137016   1.338   4.100   0.893 -0.7602 -0.4522 -0.2343
 5127TIP3    H237017   1.323   3.962   0.953  0.6820  0.3229  2.0168
 5128TIP3   OH237018   2.470   3.031   0.143  0.5467 -0.2302 -0.3199
 5128TIP3    H137019   2.544   3.084   0.171 -0.1479  1.3378 -1.3188
 5128TIP3    H237020   2.405   3.095   0.113 -0.9154 -1.5916 -0.1756
 5129TIP3   OH237021   4.491   5.128   6.968 -0.0956 -0.1236 -0.3319
 5129TIP3    H137022   4.529   5.216   6.967 -1.9034  0.6907 -0.5676
 5129TIP3    H237023   4.479   5.108   7.061 -0.5090  0.2661 -0.2977
 5130TIP3   OH237024   0.028   5.659   6.624  0.2005 -0.3559 -0.4857
 5130TIP3    H137025  -0.050   5.688   6.578 -0.3529 -1.2681 -0.1559
 5130TIP3    H237026   0.045   5.571   6.589  0.2635 -0.7184  0.4173
 5131TIP3   OH237027   5.957   6.670   7.857  0.1775 -0.0876 -0.0082
 5131TIP3    H137028   6.049   6.689   7.837  0.8462 -0.2032  2.5515
 5131TIP3    H237029   5.939   6.589   7.810  1.0989  0.3667 -1.2167
 5132TIP3   OH237030   6.602   2.665   7.128  0.2209  0.1626  0.3738
 5132TIP3    H137031   6.588   2.584   7.178 -1.5600  0.5000  0.4780
 5132TIP3    H237032   6.577   2.735   7.189  0.5417  0.7288 -0.1332
 5133TIP3   OH237033   0.002   4.617   0.055  0.6074  0.1297  0.4570
 5133TIP3    H137034   0.077   4.566   0.086  0.2050 -0.8051 -0.0492
 5133TIP3    H237035  -0.036   4.655   0.134  0.7406 -0.6062  0.8818
 5134TIP3   OH237036   4.812   0.266   2.401 -0.3513  0.8034  0.8049
 5134TIP3    H137037   4.832   0.358   2.383 -1.6993  1.2336  1.3354
 5134TIP3    H237038   4.835   0.254   2.493 -0.8524  0.8239  0.9366
 5135TIP3   OH237039   2.689   5.550   0.525  0.1034 -0.2519 -0.1577
 5135TIP3    H137040   2.699   5.570   0.432 -0.3130  0.4819 -0.0532
 5135TIP3    H237041   2.767   5.500   0.548 -0.2063 -1.2051 -1.1094
 5136TIP3   OH237042   4.416   4.649   2.003  0.2696 -0.1827  0.4512
 5136TIP3    H137043   4.502   4.683   1.977 -0.2873  0.1692 -1.0727
 5136TIP3    H237044   4.436   4.574   2.058  1.5592  0.0905  0.3969
 5137TIP3   OH237045   1.808   5.579   7.437 -0.3314  0.2569 -0.3577
 5137TIP3    H137046   1.829   5.656   7.384  1.6537 -0.2949 -0.4393
 5137TIP3    H237047   1.823   5.608   7.527 -1.3898  0.4757 -0.2298
 5138TIP3   OH237048   5.891   0.034   0.313 -0.6809 -0.0422 -0.2171
 5138TIP3    H137049   5.821   0.015   0.376  0.8052  1.7645  2.1539
 5138TIP3    H237050   5.941  -0.047   0.307 -0.2285  0.0322  1.8657
 5139TIP3   OH237051   6.462   3.867   1.584 -0.8368  0.1734  0.2843
 5139TIP3    H137052   6.430   3.883   1.672  0.8159  0.3622  0.8934
 5139TIP3    H237053   6.384   3.865   1.529 -1.8916  0.0297  1.7518
 5140TIP3   OH237054   3.138   5.149   8.505 -0.5573  0.0183  0.1196
 5140TIP3    H137055   3.163   5.201   8.428 -0.8669 -1.1297 -0.7906
 5140TIP3    H237056   3.128   5.213   8.575 -2.7348  1.4984 -1.3864
 5141TIP3   OH237057   1.624   4.342   1.168 -0.4366 -0.2763 -0.5216
 5141TIP3    H137058   1.566   4.371   1.238 -1.6318 -0.5514 -1.3573
 5141TIP3    H237059   1.672   4.420   1.141  0.7017 -0.3440  1.1694
 5142TIP3   OH237060   0.369   1.610   8.585 -0.5477  0.0154 -0.3623
 5142TIP3    H137061   0.282   1.576   8.603 -0.0846 -0.5668  0.8745
 5142TIP3    H237062   0.381   1.596   8.491 -1.7763  0.0966 -0.5445
 5143TIP3   OH237063   3.629   0.467   7.066 -0.2015 -0.5030 -0.0615
 5143TIP3    H137064   3.543   0.433   7.091 -0.6298  0.5538 -0.0372
 5143TIP3    H237065   3.619   0.490   6.973 -1.1510  3.0144  0.7640
 5144TIP3   OH237066   4.707   4.353   0.214  0.5005  0.2456 -0.3623
 5144TIP3    H137067   4.752   4.423   0.262  1.7265 -0.2571 -0.7390
 5144TIP3    H237068   4.689   4.392   0.128  1.7090 -0.0695 -0.7742
 5145TIP3   OH237069   3.562   4.586   8.045 -0.2647 -0.2289 -0.0265
 5145TIP3    H137070   3.577   4.656   7.981  1.6827 -0.7191 -0.1688
 5145TIP3    H237071   3.572   4.505   7.995 -0.3056 -0.6198  0.5858
 5146TIP3   OH237072   5.195   4.653   1.786  0.8846 -0.1388  0.0427
 5146TIP3    H137073   5.252   4.668   1.862  2.2044  0.3620 -1.0086
 5146TIP3    H237074   5.213   4.563   1.761  0.3200 -0.3606  0.3982
 5147TIP3   OH237075   0.094   3.631   7.840  0.1529 -0.2919  0.6514
 5147TIP3    H137076   0.012   3.662   7.802  0.1364  0.1816  1.0595
 5147TIP3    H237077   0.140   3.590   7.767  0.8378  2.0217 -0.2855
 5148TIP3   OH237078   2.629   4.334   0.319  0.0057  0.1653  0.1938
 5148TIP3    H137079   2.623   4.391   0.243 -3.3309 -0.2164  0.0160
 5148TIP3    H237080   2.643   4.247   0.283 -1.5674 -0.0146 -0.0524
 5149TIP3   OH237081   0.324   0.754   0.024  0.4495 -0.6056  0.6802
 5149TIP3    H137082   0.344   0.737   0.116  0.1001  0.2926  0.9368
 5149TIP3    H237083   0.378   0.692  -0.024  0.8187 -0.9253  1.4825
 5150TIP3   OH237084   0.691   2.365   7.438 -0.0443  0.2732 -0.0465
 5150TIP3    H137085   0.761   2.348   7.501 -0.7494 -1.4583  0.3375
 5150TIP3    H237086   0.730   2.347   7.353 -0.5339 -2.9971  0.2884
 5151TIP3   OH237087   1.098   2.626   7.570 -0.1884  0.4595 -0.5358
 5151TIP3    H137088   1.126   2.705   7.617 -0.4986 -0.1163  0.6643
 5151TIP3    H237089   1.080   2.563   7.639  1.7659 -1.2724 -1.5220
 5152TIP3   OH237090   5.954   1.639   0.102  0.0239  0.0469  0.0258
 5152TIP3    H137091   6.039   1.596   0.111 -0.6263 -1.0279  1.3209
 5152TIP3    H237092   5.890   1.570   0.120 -1.1142  1.0544 -0.0300
 5153TIP3   OH237093   5.589   4.313   0.123  0.2455 -0.1194  0.1766
 5153TIP3    H137094   5.666   4.359   0.089  0.2959 -0.0527  0.3804
 5153TIP3    H237095   5.525   4.316   0.052  0.1289  0.5567  0.3115
 5154TIP3   OH237096   3.503   4.161   1.792  0.0460 -0.1662 -0.6778
 5154TIP3    H137097   3.428   4.105   1.773 -0.5269  0.5233 -0.4915
 5154TIP3    H237098   3.483   4.200   1.877 -0.7263  2.1772 -1.8476
 5155TIP3   OH237099   2.031   4.137   7.115  0.1422  0.1753  0.0592
 5155TIP3    H137100   2.048   4.131   7.021 -1.4058 -0.7571 -0.1966
 5155TIP3    H237101   2.107   4.095   7.156  1.2684  1.3921 -0.7053
 5156TIP3   OH237102   4.921   1.786   0.980  0.0651  0.2698 -0.0304
 5156TIP3    H137103   4.937   1.801   0.887  0.6562 -1.2007 -0.1927
 5156TIP3    H237104   4.971   1.855   1.024 -0.9199  1.5172 -0.7970
 5157TIP3   OH237105   1.643   6.324   7.455 -0.0166  0.2381  0.0208
 5157TIP3    H137106   1.646   6.402   7.400  1.0584  0.1628 -0.0481
 5157TIP3    H237107   1.727   6.281   7.441 -0.3088 -0.5627  0.6082
 5158TIP3   OH237108   0.199   3.149   8.443  0.0066  0.3876 -0.3266
 5158TIP3    H137109   0.227   3.166   8.533  0.3589 -0.5613 -0.2428
 5158TIP3    H237110   0.280   3.129   8.396 -0.3130 -0.3846 -0.5591
 5159TIP3   OH237111   0.589   1.876   7.911  0.3190  0.5787  0.7457
 5159TIP3    H137112   0.529   1.899   7.982  0.5553 -1.0153  1.4984
 5159TIP3    H237113   0.672   1.856   7.955  0.6745  0.2745 -0.0465
 5160TIP3   OH237114   3.444   2.050   0.766  0.2415  0.1088  0.0694
 5160TIP3    H137115   3.373   2.081   0.822 -1.3378 -0.4832 -1.5081
 5160TIP3    H237116   3.509   2.120   0.767  0.6522 -0.1605  3.1464
 5161TIP3   OH237117   4.971   0.222   8.461 -0.5655 -0.4204 -0.2917
 5161TIP3    H137118   4.968   0.126   8.464 -1.3629 -0.3838  0.3363
 5161TIP3    H237119   4.971   0.242   8.367  0.6929 -1.0479 -0.4513
 5162TIP3   OH237120   1.938   2.816   7.661 -0.0468 -0.3920 -0.1889
 5162TIP3    H137121   2.021   2.769   7.669  1.1369  1.4336 -1.0611
 5162TIP3    H237122   1.941   2.856   7.574 -1.2630  0.7677  0.2646
 5163TIP3   OH237123   6.836   6.262   1.408 -0.2504  0.5437  0.2623
 5163TIP3    H137124   6.839   6.222   1.495 -1.3203  1.5018  0.7644
 5163TIP3    H237125   6.762   6.323   1.412  0.8712  2.0520 -0.6913
 5164TIP3   OH237126   3.717   4.194   0.279 -0.1843  0.3314  0.0884
 5164TIP3    H137127   3.708   4.286   0.257  1.0924  0.6953  0.9846
 5164TIP3    H237128   3.631   4.169   0.314 -1.1094  0.6743 -1.8043
 5165TIP3   OH237129   2.357   4.604   8.121  1.2117 -0.4547  0.4607
 5165TIP3    H137130   2.373   4.615   8.028  0.9466 -0.3257  0.4289
 5165TIP3    H237131   2.363   4.509   8.135  0.3530 -0.5700  0.1354
 5166TIP3   OH237132   2.970   1.357   1.106 -0.0478  0.2521  0.4406
 5166TIP3    H137133   2.932   1.368   1.193 -1.1115  0.3437 -0.0198
 5166TIP3    H237134   2.962   1.444   1.066  0.7241  0.2897  0.3567
 5167TIP3   OH237135   3.304   0.135   2.441  0.2631  0.0613 -0.6186
 5167TIP3    H137136   3.209   0.134   2.426  0.2654 -1.2579 -0.6470
 5167TIP3    H237137   3.321   0.061   2.499  1.2205  0.6272 -0.1354
 5168TIP3   OH237138   3.041   6.579   1.065 -0.2836 -0.5790  0.4552
 5168TIP3    H137139   3.079   6.603   0.981  1.2637 -1.2273  0.9215
 5168TIP3    H237140   2.947   6.593   1.055  0.2139  3.3668 -0.0213
 5169TIP3   OH237141   4.092   0.092   0.722 -0.3702 -0.1998 -0.3607
 5169TIP3    H137142   4.181   0.101   0.686  0.1222  0.1532  0.8852
 5169TIP3    H237143   4.040   0.155   0.673  0.3711  0.5556 -0.2110
 5170TIP3   OH237144   3.808   0.274   7.523  0.0674 -0.2534 -0.1550
 5170TIP3    H137145   3.772   0.268   7.612  0.1684 -0.5286 -0.1303
 5170TIP3    H237146   3.899   0.301   7.537 -0.0534  0.1903 -0.2031
 5171TIP3   OH237147   5.164   3.419   2.274 -0.8926  0.2182 -0.1589
 5171TIP3    H137148   5.259   3.408   2.268 -1.0918 -1.4707 -0.7195
 5171TIP3    H237149   5.139   3.455   2.188 -0.7687  0.7551  0.0227
 5172TIP3   OH237150   2.759   2.374   1.798 -0.8549 -0.1860  0.1607
 5172TIP3    H137151   2.762   2.330   1.883 -1.1146 -2.9391 -1.1312
 5172TIP3    H237152   2.850   2.374   1.767 -0.4968  2.2547  1.0400
 5173TIP3   OH237153   0.532   1.684   1.680 -0.3261 -0.0850 -0.1550
 5173TIP3    H137154   0.594   1.719   1.744  0.1129 -0.1222 -0.5542
 5173TIP3    H237155   0.494   1.761   1.638 -1.2646 -0.0318  0.7412
 5174TIP3   OH237156   5.876   3.958   0.389 -0.3630 -0.5359  0.1103
 5174TIP3    H137157   5.870   4.028   0.454  1.2698 -0.4511  0.2047
 5174TIP3    H237158   5.910   4.000   0.310  1.8900 -1.3834  0.5492
 5175TIP3   OH237159   4.901   2.907   2.127 -0.8156 -0.2050  0.6139
 5175TIP3    H137160   4.883   2.874   2.039 -1.2430  0.4270  0.4526
 5175TIP3    H237161   4.934   2.996   2.113 -0.5041 -0.2450  1.0746
 5176TIP3   OH237162   2.871   4.976   1.190 -0.2829 -0.1701 -0.0581
 5176TIP3    H137163   2.912   4.889   1.187 -1.6238 -0.8103 -0.5637
 5176TIP3    H237164   2.839   4.990   1.101 -0.3994  0.7020  0.1137
 5177TIP3   OH237165   5.220   0.604   8.178  0.1748 -0.0718  0.0384
 5177TIP3    H137166   5.201   0.662   8.104 -0.2543 -0.4041 -0.1095
 5177TIP3    H237167   5.289   0.546   8.146 -1.6777 -1.8310 -0.9456
 5178TIP3   OH237168   0.094   0.419   0.886 -0.1848 -0.5175  0.1035
 5178TIP3    H137169   0.101   0.366   0.806 -0.0538 -0.5257  0.1201
 5178TIP3    H237170   0.125   0.361   0.956 -1.7407 -1.0373  0.3852
 5179TIP3   OH237171   2.297   5.124   6.771 -0.1860  0.1880 -0.2806
 5179TIP3    H137172   2.358   5.196   6.753 -0.2545  0.3843  0.2413
 5179TIP3    H237173   2.271   5.092   6.685  0.0285  0.6377 -0.5152
 5180TIP3   OH237174   6.584   1.675   7.864 -0.6102  0.9263  0.2104
 5180TIP3    H137175   6.679   1.667   7.864 -0.3572  3.2638  0.2563
 5180TIP3    H237176   6.567   1.758   7.820 -2.6643  0.4405 -0.0194
 5181TIP3   OH237177   5.277   2.260   0.582 -0.3209 -0.0399  0.3715
 5181TIP3    H137178   5.281   2.239   0.489 -1.3430 -1.8252  0.6881
 5181TIP3    H237179   5.257   2.354   0.584  0.6935  0.2402 -1.1705
 5182TIP3   OH237180   4.760   3.479   2.255 -0.1843  0.6128  0.5405
 5182TIP3    H137181   4.842   3.484   2.206 -0.1658 -0.7999  0.4008
 5182TIP3    H237182   4.732   3.388   2.246 -1.2132  0.8193  1.4859
 5183TIP3   OH237183   5.103   6.094   7.029  0.4822 -0.5435 -0.4395
 5183TIP3    H137184   5.093   6.080   6.935 -0.1232  0.7337 -0.5895
 5183TIP3    H237185   5.045   6.030   7.069 -1.1674  0.4992 -1.0437
 5184TIP3   OH237186   5.458   4.064   2.146 -0.3893 -0.7856  0.5270
 5184TIP3    H137187   5.541   4.111   2.145 -1.3115  0.9347 -0.0225
 5184TIP3    H237188   5.461   4.009   2.068  0.2470 -0.7675  0.5343
 5185TIP3   OH237189   2.859   3.645   2.185 -0.3197  0.2955  0.2215
 5185TIP3    H137190   2.910   3.724   2.169  1.2382 -0.4849  1.1710
 5185TIP3    H237191   2.840   3.610   2.098 -0.5346  1.3919 -0.1839
 5186TIP3   OH237192   2.160   4.401   1.071  0.6731 -0.1916  0.5214
 5186TIP3    H137193   2.232   4.448   1.113  1.7737 -0.3208 -1.1306
 5186TIP3    H237194   2.150   4.321   1.123  2.7548 -0.8861 -0.0361
 5187TIP3   OH237195   2.662   3.950   2.075 -0.3211 -0.4590 -0.3465
 5187TIP3    H137196   2.620   3.879   2.124 -0.4633 -1.4480 -1.8396
 5187TIP3    H237197   2.753   3.950   2.105 -0.8455  0.3031  1.3634
 5188TIP3   OH237198   6.510   6.146   6.418  0.1609 -0.2575  0.0143
 5188TIP3    H137199   6.545   6.085   6.354  0.7664  0.1440 -0.0434
 5188TIP3    H237200   6.417   6.152   6.397 -0.0287 -1.6200  0.4116
 5189TIP3   OH237201   2.707   1.337   1.902  0.5695  0.5555 -0.5765
 5189TIP3    H137202   2.659   1.377   1.975 -1.2656 -0.1984 -1.3286
 5189TIP3    H237203   2.799   1.341   1.930  0.3177  3.6667  0.1193
 5190TIP3   OH237204   3.140   5.373   0.828 -0.3724 -0.0848  0.7890
 5190TIP3    H137205   3.160   5.282   0.808  1.0045  0.4407 -0.3889
 5190TIP3    H237206   3.100   5.371   0.915  1.2869 -1.6401  1.5684
 5191TIP3   OH237207   2.562   6.730   1.348 -0.2144  0.3337  0.4140
 5191TIP3    H137208   2.496   6.797   1.365  0.2394  0.1166  3.7020
 5191TIP3    H237209   2.646   6.777   1.356  0.0661 -0.2425  0.9687
 5192TIP3   OH237210   3.940   2.656   8.448 -0.5903 -0.4359  1.0412
 5192TIP3    H137211   4.019   2.710   8.446 -0.8215 -0.0934  1.0919
 5192TIP3    H237212   3.893   2.685   8.526 -0.4695 -1.0641  1.3553
 5193TIP3   OH237213   4.313   3.096   7.810 -0.0331  0.3452  0.8318
 5193TIP3    H137214   4.307   3.189   7.789  0.3442  0.2689  0.3725
 5193TIP3    H237215   4.243   3.055   7.760  1.5335  0.0175 -1.1946
 5194TIP3   OH237216   0.042   2.912   8.305 -0.3123  0.9568 -0.0319
 5194TIP3    H137217  -0.007   2.830   8.299  1.4412 -0.1862  0.4039
 5194TIP3    H237218   0.007   2.956   8.383  1.4251 -1.3927  2.2691
 5195TIP3   OH237219   0.244   4.787   0.484  0.3270 -0.1619 -0.1342
 5195TIP3    H137220   0.175   4.787   0.550  0.1871 -0.4678 -0.2789
 5195TIP3    H237221   0.204   4.832   0.409  0.3753 -0.1000 -0.1224
 5196TIP3   OH237222   2.621   4.039   0.443  0.4182  0.6004  0.3729
 5196TIP3    H137223   2.657   4.115   0.487 -0.6560  0.2263  1.9636
 5196TIP3    H237224   2.676   3.966   0.473  0.5016  0.5233  0.0402
 5197TIP3   OH237225   5.347   0.999   2.233  0.0736  0.0298  0.0833
 5197TIP3    H137226   5.335   0.952   2.151  0.2837  2.5822 -1.5326
 5197TIP3    H237227   5.259   1.027   2.258  0.2842  1.8729 -1.0284
 5198TIP3   OH237228   6.538   1.454   8.534 -0.2371  0.2178  0.4247
 5198TIP3    H137229   6.487   1.430   8.457 -0.9391 -0.5133  1.1023
 5198TIP3    H237230   6.596   1.523   8.503  0.4684 -0.9979 -1.1096
 5199TIP3   OH237231   5.690   0.730   6.514 -0.1035  0.7528 -0.2366
 5199TIP3    H137232   5.654   0.643   6.493  1.2711  0.5181 -1.7609
 5199TIP3    H237233   5.618   0.790   6.496 -1.1537 -0.0347  1.0491
 5200TIP3   OH237234   3.251   4.557   6.676  0.5463  0.4218 -0.2050
 5200TIP3    H137235   3.307   4.632   6.698  0.2101  0.0027  2.4198
 5200TIP3    H237236   3.169   4.575   6.722  0.6463 -1.7496  0.9373
 5201TIP3   OH237237   2.688   1.576   7.455 -1.1526  0.3918  0.2939
 5201TIP3    H137238   2.762   1.635   7.469 -0.9527 -0.1397  1.5761
 5201TIP3    H237239   2.612   1.634   7.454 -0.7476  0.9613 -1.1686
 5202TIP3   OH237240   5.284   4.557   8.290 -0.1351 -0.5821 -0.0210
 5202TIP3    H137241   5.378   4.540   8.293  0.1972  0.2560 -2.7566
 5202TIP3    H237242   5.257   4.526   8.204 -2.2753 -0.2853  0.4913
 5203TIP3   OH237243   1.786   0.293   0.660 -0.4688  0.3099 -0.7072
 5203TIP3    H137244   1.862   0.337   0.623 -0.6462  0.3349 -1.0436
 5203TIP3    H237245   1.820   0.207   0.687  0.2392  1.1799  1.3609
 5204TIP3   OH237246   4.320   3.096   6.754  0.1536 -0.0876 -0.0545
 5204TIP3    H137247   4.365   3.146   6.686  0.6686 -0.2962  0.1273
 5204TIP3    H237248   4.229   3.096   6.727  0.6397 -2.1722 -2.0256
 5205TIP3   OH237249   2.547   3.385   1.652 -0.0742  0.2484 -0.3606
 5205TIP3    H137250   2.455   3.389   1.627 -0.0703 -1.4171 -0.7461
 5205TIP3    H237251   2.546   3.402   1.746 -1.0079 -1.3711 -0.0253
 5206TIP3   OH237252   0.258   6.829   0.057 -0.2020  0.0895  0.5324
 5206TIP3    H137253   0.202   6.828  -0.021 -1.5390 -1.1669  1.4627
 5206TIP3    H237254   0.255   6.919   0.088  0.3703  0.6232 -0.8461
 5207TIP3   OH237255   2.992   1.976   1.804 -0.3447 -0.2301  0.5579
 5207TIP3    H137256   2.912   1.999   1.756 -0.7618  1.2274  1.8269
 5207TIP3    H237257   3.060   2.029   1.762 -0.1368 -1.0803 -0.1935
 5208TIP3   OH237258   5.817   0.308   0.957 -0.4660  0.1981 -0.2134
 5208TIP3    H137259   5.771   0.318   0.874  0.1377  0.1340 -0.5580
 5208TIP3    H237260   5.747   0.307   1.023 -1.1512 -1.9907 -0.8690
 5209TIP3   OH237261   3.295   2.382   7.729 -0.2293 -0.1795 -0.4539
 5209TIP3    H137262   3.390   2.395   7.730 -0.3988  1.6093 -1.6962
 5209TIP3    H237263   3.270   2.400   7.638 -1.6972 -1.2515 -0.2868
 5210TIP3   OH237264   1.849   5.430   0.300 -0.3458  0.3054 -0.8469
 5210TIP3    H137265   1.928   5.452   0.349 -0.5306  0.6965 -0.7195
 5210TIP3    H237266   1.838   5.503   0.238 -1.8141  1.3908  0.6092
 5211TIP3   OH237267   3.467   5.726   0.537 -0.2589  0.3946  0.0490
 5211TIP3    H137268   3.424   5.666   0.598 -1.3353 -0.6370 -1.6413
 5211TIP3    H237269   3.395   5.765   0.488  0.6209  0.5206 -1.1712
 5212TIP3   OH237270   3.983   1.068   2.340 -0.5687 -0.1234  0.0148
 5212TIP3    H137271   4.020   1.018   2.413  1.3038 -0.5213 -1.1455
 5212TIP3    H237272   4.021   1.156   2.350  0.1021 -0.3194 -0.7543
 5213TIP3   OH237273   4.533   4.668   8.567 -0.1400  0.2358 -0.3788
 5213TIP3    H137274   4.539   4.574   8.580  0.6146  0.1203 -1.4507
 5213TIP3    H237275   4.445   4.691   8.596 -0.5706 -0.9003 -0.7577
 5214TIP3   OH237276   0.747   3.725   7.709  0.3702  0.0269 -0.1059
 5214TIP3    H137277   0.744   3.786   7.783  2.0841 -1.1896  1.0455
 5214TIP3    H237278   0.820   3.666   7.730  0.7321 -0.5323 -2.6440
 5215TIP3   OH237279   3.399   2.102   0.116  0.0054  0.0078 -0.8508
 5215TIP3    H137280   3.334   2.071   0.053  0.1861  0.0785 -1.0721
 5215TIP3    H237281   3.349   2.159   0.175 -0.7885 -2.2088  0.7867
 5216TIP3   OH237282   6.535   2.570   0.438 -0.0117 -0.1069  0.4400
 5216TIP3    H137283   6.497   2.604   0.519 -1.8864  1.8397 -1.1295
 5216TIP3    H237284   6.472   2.594   0.371  2.3496  0.0282 -1.8786
 5217TIP3   OH237285   1.445   4.540   7.541  0.3836  0.3415  0.0509
 5217TIP3    H137286   1.381   4.611   7.533  0.0445  0.1784  1.1617
 5217TIP3    H237287   1.448   4.521   7.635  0.2422 -1.3383 -0.2613
 5218TIP3   OH237288   1.359   2.574   1.748  0.2487 -0.4006 -0.4660
 5218TIP3    H137289   1.388   2.483   1.738  1.2119 -0.3364  1.3090
 5218TIP3    H237290   1.438   2.626   1.734 -0.0888  0.1077 -0.5199
 5219TIP3   OH237291   3.558   6.537   1.179  0.2330  0.1624  0.1361
 5219TIP3    H137292   3.585   6.453   1.216 -0.5652 -0.0316  0.2954
 5219TIP3    H237293   3.473   6.520   1.140  1.3867  0.1593 -2.5546
 5220TIP3   OH237294   1.143   5.744   2.013  0.2809 -0.4313  0.3663
 5220TIP3    H137295   1.108   5.655   2.006  0.0190 -0.4618  1.8812
 5220TIP3    H237296   1.238   5.732   2.018  0.3474 -0.5225 -0.7450
 5221TIP3   OH237297   2.348   0.218   2.073  0.7308  0.5297 -0.0772
 5221TIP3    H137298   2.290   0.239   2.147  1.5002  0.0391  0.6891
 5221TIP3    H237299   2.433   0.203   2.114  1.6279  2.1032 -1.2585
 5222TIP3   OH237300   4.789   4.029   8.250 -0.0956  0.1111 -0.2739
 5222TIP3    H137301   4.868   4.009   8.200  0.1416 -2.3828  0.9749
 5222TIP3    H237302   4.718   3.995   8.196 -0.1823  0.7275 -0.5604
 5223TIP3   OH237303   6.313   3.953   1.334 -0.2274  0.6598 -0.6057
 5223TIP3    H137304   6.304   3.858   1.342  2.1060  0.4406  0.2785
 5223TIP3    H237305   6.282   3.973   1.246  1.5952 -1.3225 -1.7871
 5224TIP3   OH237306   3.840   1.763   7.005  0.5051  0.1019 -0.0912
 5224TIP3    H137307   3.766   1.780   6.947  0.9700  0.9345 -0.4593
 5224TIP3    H237308   3.903   1.715   6.951  0.1334 -0.8477  0.2989
 5225TIP3   OH237309   4.676   0.658   8.460  0.0745 -0.4700 -0.6207
 5225TIP3    H137310   4.727   0.721   8.512  0.9680  0.2864 -2.3123
 5225TIP3    H237311   4.742   0.598   8.424 -0.4643 -0.7439 -1.1625
 5226TIP3   OH237312   2.311   1.020   6.733  0.3322  0.2157  0.4802
 5226TIP3    H137313   2.293   1.106   6.772  2.4004  0.8768  0.1012
 5226TIP3    H237314   2.238   1.005   6.673  0.2110  1.9559  0.1424
 5227TIP3   OH237315   0.458   4.280   8.407 -0.1527  0.3343  0.0321
 5227TIP3    H137316   0.424   4.236   8.329 -1.9788  0.5414  0.6416
 5227TIP3    H237317   0.476   4.370   8.378  2.1280 -0.3313 -0.8424
 5228TIP3   OH237318   3.521   2.623   0.853 -0.0256  0.1062  0.3618
 5228TIP3    H137319   3.541   2.585   0.939  1.8465 -0.6785 -0.3749
 5228TIP3    H237320   3.547   2.714   0.860  2.4807 -0.5072 -0.0509
 5229TIP3   OH237321   3.377   6.212   7.737  0.4377  0.5165  0.1631
 5229TIP3    H137322   3.425   6.293   7.720  0.3806  0.7851  1.1899
 5229TIP3    H237323   3.397   6.156   7.662  1.6361  0.9525  0.1315
 5230TIP3   OH237324   1.138   1.780   1.389 -0.2549  0.5164  0.3532
 5230TIP3    H137325   1.110   1.689   1.390 -1.9739  1.0202  1.4040
 5230TIP3    H237326   1.110   1.815   1.473  1.6575  1.6725  0.5562
 5231TIP3   OH237327   4.363   0.618   1.312  0.1228  0.0394  0.1325
 5231TIP3    H137328   4.295   0.579   1.257  0.2407  0.5706 -0.4023
 5231TIP3    H237329   4.385   0.550   1.376 -0.4139 -0.3846 -0.1284
 5232TIP3   OH237330   6.345   1.576   1.764  0.3926  0.2541  0.2214
 5232TIP3    H137331   6.429   1.620   1.746  1.2663 -1.3436  0.2237
 5232TIP3    H237332   6.353   1.546   1.854  1.0293 -2.3843 -0.6383
 5233TIP3   OH237333   5.345   6.621   7.693  0.0567  0.0292  0.4734
 5233TIP3    H137334   5.422   6.631   7.748  1.2355 -0.3064 -1.0380
 5233TIP3    H237335   5.336   6.526   7.681 -0.3498  0.0853  0.3204
 5234TIP3   OH237336   0.032   2.557   1.072  0.3035  0.1256  0.3303
 5234TIP3    H137337   0.006   2.636   1.026  0.1036  0.0314  0.2844
 5234TIP3    H237338   0.037   2.489   1.004 -0.0385 -0.0241  0.4542
 5235TIP3   OH237339   5.157   4.480   7.426  0.6105  0.1692  0.2938
 5235TIP3    H137340   5.246   4.509   7.407  1.6988 -0.1384  4.1199
 5235TIP3    H237341   5.168   4.400   7.478 -1.9843 -0.5832 -0.1574
 5236TIP3   OH237342   5.750   3.283   0.936  0.5119  0.4184  0.6321
 5236TIP3    H137343   5.755   3.239   0.851  3.4453  1.0487  0.3711
 5236TIP3    H237344   5.786   3.220   0.998  1.3648  1.0918  0.8432
 5237TIP3   OH237345   3.321   2.441   0.427  0.2660 -0.5634  0.8156
 5237TIP3    H137346   3.267   2.455   0.504 -1.4093 -1.1639 -0.1809
 5237TIP3    H237347   3.299   2.352   0.398  1.7947 -0.8232  0.3499
 5238TIP3   OH237348   5.189   4.200   6.822 -0.2869 -0.0976  0.2600
 5238TIP3    H137349   5.111   4.230   6.776 -0.8210 -1.2850  0.3539
 5238TIP3    H237350   5.213   4.118   6.779 -0.2934 -0.7914  1.5212
 5239TIP3   OH237351   6.592   1.748   1.074 -0.0427 -0.0978  0.6290
 5239TIP3    H137352   6.601   1.728   0.981  0.6361 -0.6352  0.8022
 5239TIP3    H237353   6.503   1.719   1.096  0.4887 -1.8604  0.5893
 5240TIP3   OH237354   6.883   6.699   0.677 -0.0069 -0.0339  0.0919
 5240TIP3    H137355   6.880   6.653   0.593 -0.1152  0.8364 -0.3991
 5240TIP3    H237356   6.926   6.638   0.737  0.0108 -0.6931 -0.5837
 5241TIP3   OH237357   0.768   6.569   1.370 -0.2119  0.2069 -0.1400
 5241TIP3    H137358   0.859   6.597   1.363 -0.4263  1.0539  0.3136
 5241TIP3    H237359   0.773   6.476   1.395  0.5164 -0.1986 -1.6905
 5242TIP3   OH237360   2.106   4.148   1.396 -0.2094 -0.6290 -0.0408
 5242TIP3    H137361   2.015   4.158   1.422  0.3265  0.1672  1.6923
 5242TIP3    H237362   2.156   4.176   1.473  1.4957 -1.5308 -0.7689
 5243TIP3   OH237363   3.071   1.107   0.301 -0.3328 -0.1663  0.4497
 5243TIP3    H137364   3.090   1.014   0.292 -0.5852 -0.2343  0.6243
 5243TIP3    H237365   2.998   1.123   0.241  0.7920  0.2701 -0.8707
 5244TIP3   OH237366   5.748   1.238   8.562 -0.9242  0.1049 -0.5173
 5244TIP3    H137367   5.736   1.309   8.626  0.4395  0.1114 -0.2457
 5244TIP3    H237368   5.710   1.161   8.605 -1.1950  0.3774 -0.2532
 5245TIP3   OH237369   6.217   6.090   7.269 -0.8205 -0.2421  0.3273
 5245TIP3    H137370   6.148   6.056   7.325 -0.0153 -0.6905  1.0567
 5245TIP3    H237371   6.242   6.174   7.308 -2.1713  0.8126 -0.9526
 5246TIP3   OH237372   1.703   4.497   8.094  0.4611 -0.4161  0.0650
 5246TIP3    H137373   1.620   4.458   8.123  0.1217 -0.3981 -0.8762
 5246TIP3    H237374   1.734   4.545   8.171 -1.7801  1.9090 -0.3627
 5247TIP3   OH237375   6.355   0.931   0.388 -0.0546 -0.3639 -0.4931
 5247TIP3    H137376   6.445   0.900   0.389  0.3077  0.6400  0.3958
 5247TIP3    H237377   6.323   0.913   0.477 -1.1240 -1.7401 -1.1063
 5248TIP3   OH237378   4.847   3.938   7.587  0.0513  0.1632 -0.0191
 5248TIP3    H137379   4.795   3.942   7.506  0.2142 -1.2601 -0.2115
 5248TIP3    H237380   4.793   3.886   7.647  1.3415 -1.6234 -0.3268
 5249TIP3   OH237381   1.384   1.093   1.273 -0.0321  0.5538  0.1946
 5249TIP3    H137382   1.419   1.018   1.321  0.4561 -0.3446 -1.4899
 5249TIP3    H237383   1.369   1.060   1.185 -2.1312  1.7876  0.0202
 5250TIP3   OH237384   3.113   1.918   2.104 -0.1691  0.2522  0.1902
 5250TIP3    H137385   3.117   1.823   2.114  4.3603  0.2699  0.5132
 5250TIP3    H237386   3.089   1.932   2.013  0.2819 -1.2708 -0.1931
 5251TIP3   OH237387   4.707   2.066   0.934 -0.1919  0.2416 -0.5989
 5251TIP3    H137388   4.642   2.025   0.877 -0.1247 -0.0592 -0.4586
 5251TIP3    H237389   4.782   2.007   0.933 -0.0290  0.4444 -0.5330
 5252TIP3   OH237390   2.311   2.641   1.611  0.2843  0.9348  0.5906
 5252TIP3    H137391   2.301   2.549   1.636  0.4977  1.1436  1.4870
 5252TIP3    H237392   2.396   2.666   1.647  2.0945  0.4487 -2.9585
 5253TIP3   OH237393   6.188   2.686   1.808  0.3559 -0.7232  0.4646
 5253TIP3    H137394   6.223   2.736   1.734  0.3058 -0.4955  0.5908
 5253TIP3    H237395   6.099   2.664   1.782  0.0433  0.0826  0.7883
 5254TIP3   OH237396   3.091   5.322   1.486  0.7830 -0.4041  0.4534
 5254TIP3    H137397   3.124   5.250   1.540 -0.2121 -0.5033  0.9363
 5254TIP3    H237398   3.069   5.281   1.402  0.7030 -0.5663  0.5542
 5255TIP3   OH237399   3.872   4.403   1.646 -0.2325  0.4681 -0.2879
 5255TIP3    H137400   3.884   4.465   1.574  0.0355  1.3071  0.4679
 5255TIP3    H237401   3.930   4.435   1.715  0.5455 -1.0964 -0.1725
 5256TIP3   OH237402   4.255   1.093   2.183 -0.4414  0.3370  0.3146
 5256TIP3    H137403   4.348   1.115   2.191 -0.0980 -1.1468  0.6380
 5256TIP3    H237404   4.215   1.127   2.264 -0.0522  0.3069  0.5196
 5257TIP3   OH237405   3.765   0.637   7.460 -0.0219  0.1340  0.0948
 5257TIP3    H137406   3.766   0.546   7.431  0.4199  0.2457 -0.2487
 5257TIP3    H237407   3.691   0.676   7.413 -0.2957 -0.0772  0.3459
 5258TIP3   OH237408   5.161   5.380   1.015  0.5434  0.1783 -0.0474
 5258TIP3    H137409   5.126   5.380   1.104  0.0167  0.2375 -0.2510
 5258TIP3    H237410   5.151   5.290   0.985  1.9046 -0.1445  0.4030
 5259TIP3   OH237411   5.305   3.039   7.804  0.2554 -0.0214 -0.0982
 5259TIP3    H137412   5.262   2.989   7.735 -1.2820  0.6186  0.3342
 5259TIP3    H237413   5.242   3.039   7.876  0.3240  2.2001  0.0382
 5260TIP3   OH237414   4.397   1.204   8.217 -0.3526  0.1469 -0.1770
 5260TIP3    H137415   4.384   1.211   8.312 -0.9687  2.7028 -0.3724
 5260TIP3    H237416   4.328   1.146   8.187 -1.2655  0.7161  0.7520
 5261TIP3   OH237417   0.664   0.108   7.617 -0.0631 -0.2947  0.0191
 5261TIP3    H137418   0.730   0.045   7.588 -0.3452 -1.7672  2.3361
 5261TIP3    H237419   0.583   0.080   7.575  0.2840  0.1046 -0.9572
 5262TIP3   OH237420   2.203   6.532   6.322  0.0449 -0.0497  0.2637
 5262TIP3    H137421   2.118   6.494   6.299 -0.3282  0.5707  0.5516
 5262TIP3    H237422   2.265   6.460   6.316 -0.0903 -0.0515 -2.1583
 5263TIP3   OH237423   2.913   0.880   0.747 -0.2103  0.2655  0.2492
 5263TIP3    H137424   2.975   0.912   0.813  0.2734  0.3647 -0.2549
 5263TIP3    H237425   2.829   0.918   0.774 -0.0862  0.0211  1.0091
 5264TIP3   OH237426   4.710   0.671   0.997  0.7071  0.1491 -0.5009
 5264TIP3    H137427   4.770   0.733   0.955 -1.7193  1.4830 -2.2161
 5264TIP3    H237428   4.688   0.712   1.080  1.7767 -0.1548 -0.0438
 5265TIP3   OH237429   2.177   1.621   0.008  0.6775  0.1078 -0.0665
 5265TIP3    H137430   2.265   1.654   0.027  0.6170 -0.6028  1.6632
 5265TIP3    H237431   2.126   1.641   0.087 -0.2562 -0.9522 -0.3710
 5266TIP3   OH237432   3.013   5.088   2.078  0.3105 -0.5456 -0.2022
 5266TIP3    H137433   2.926   5.054   2.056  0.0435 -0.3565  0.5277
 5266TIP3    H237434   2.996   5.162   2.136  0.9871 -1.3453  1.0559
 5267TIP3   OH237435   1.476   0.617   2.467  0.0605  0.5109  0.2377
 5267TIP3    H137436   1.489   0.542   2.525  0.6730 -0.1584 -0.7417
 5267TIP3    H237437   1.554   0.620   2.413 -1.0037  0.3793 -1.3834
 5268TIP3   OH237438   0.846   5.227   0.499  0.2900 -0.2021  0.1368
 5268TIP3    H137439   0.875   5.139   0.475  2.3244 -0.4457  3.0159
 5268TIP3    H237440   0.889   5.284   0.434 -0.9049 -1.2382 -1.6442
 5269TIP3   OH237441   6.166   2.641   7.176 -0.6243 -0.6853  0.1548
 5269TIP3    H137442   6.086   2.594   7.198  1.6612 -4.0150  2.2375
 5269TIP3    H237443   6.227   2.619   7.246  1.7931  2.8131 -0.5726
 5270TIP3   OH237444   6.820   5.138   6.720 -0.3018 -0.0657  0.0362
 5270TIP3    H137445   6.813   5.229   6.691 -1.3575 -0.0966  0.1714
 5270TIP3    H237446   6.773   5.087   6.654 -2.0890 -0.2055  1.3448
 5271TIP3   OH237447   1.871   3.529   8.059 -0.1758  0.3664 -0.2114
 5271TIP3    H137448   1.812   3.474   8.008 -0.2404 -0.8001  1.0775
 5271TIP3    H237449   1.957   3.489   8.049  0.2955  1.5930 -1.4211
 5272TIP3   OH237450   3.378   5.886   7.257  0.4350  0.4332 -0.0596
 5272TIP3    H137451   3.434   5.930   7.192  1.1758 -1.0367 -0.4638
 5272TIP3    H237452   3.354   5.803   7.215 -0.1756  0.0382  1.0400
 5273TIP3   OH237453   6.340   0.144   1.529  0.1796 -0.1182  0.3567
 5273TIP3    H137454   6.271   0.196   1.570  0.5674  1.4255 -0.8576
 5273TIP3    H237455   6.296   0.097   1.458  0.5016  1.7584 -1.1689
 5274TIP3   OH237456   4.246   0.489   1.805 -0.4632 -0.0643 -0.3881
 5274TIP3    H137457   4.259   0.454   1.893  1.1824  0.2295 -0.4821
 5274TIP3    H237458   4.152   0.507   1.800 -0.6706 -0.5993  1.1037
 5275TIP3   OH237459   4.050   4.674   6.782 -0.6575 -0.1825  0.0454
 5275TIP3    H137460   4.114   4.606   6.764  0.2531  0.8786 -0.8602
 5275TIP3    H237461   4.050   4.684   6.877 -1.8141 -2.3642  0.3315
 5276TIP3   OH237462   5.870   5.568   7.735 -0.0054  0.1169  0.3844
 5276TIP3    H137463   5.839   5.576   7.825  1.9590 -0.7126  1.1990
 5276TIP3    H237464   5.854   5.477   7.712  0.3160  0.0975  0.2320
 5277TIP3   OH237465   6.802   1.352   8.598 -0.0572 -0.3876  0.1520
 5277TIP3    H137466   6.816   1.262   8.628 -0.4177 -0.1624  1.0277
 5277TIP3    H237467   6.707   1.362   8.594 -0.0151 -0.1725 -0.3459
 5278TIP3   OH237468   5.546   1.163   1.620 -0.5330  0.3627  0.4208
 5278TIP3    H137469   5.457   1.197   1.632 -1.3101 -1.9422  1.7579
 5278TIP3    H237470   5.534   1.078   1.578  1.2174  0.8214 -1.1719
 5279TIP3   OH237471   3.000   6.418   7.994  0.1828  0.0536  0.1561
 5279TIP3    H137472   2.941   6.483   7.956  0.1405 -0.8754 -1.4410
 5279TIP3    H237473   3.018   6.357   7.922  1.9551 -0.4815  1.0150
 5280TIP3   OH237474   3.579   5.471   6.300 -0.4309 -0.1473 -0.1323
 5280TIP3    H137475   3.641   5.543   6.295 -1.9481  1.1085 -2.1591
 5280TIP3    H237476   3.510   5.503   6.359 -0.9637 -0.0338 -0.8050
 5281TIP3   OH237477   2.976   6.477   2.211  0.0491  0.0659 -0.2933
 5281TIP3    H137478   2.911   6.515   2.269 -0.1240 -0.7409  0.0571
 5281TIP3    H237479   2.978   6.384   2.234 -0.3523 -0.3747 -1.8716
 5282TIP3   OH237480   0.588   3.423   8.318 -0.0024  0.9825  0.2944
 5282TIP3    H137481   0.639   3.464   8.388 -0.1882 -0.2351  1.1607
 5282TIP3    H237482   0.567   3.496   8.259  1.5091  1.7517  0.6542
 5283TIP3   OH237483   4.864   1.427   7.974  0.7280  0.1751 -0.3064
 5283TIP3    H137484   4.852   1.423   7.879 -0.1297 -0.3269 -0.1873
 5283TIP3    H237485   4.810   1.355   8.008 -1.3760  2.1157  0.7574
 5284TIP3   OH237486   4.308   0.188   1.694 -0.1542  0.2607  0.1611
 5284TIP3    H137487   4.253   0.165   1.769 -0.5773 -0.1267 -0.2610
 5284TIP3    H237488   4.362   0.261   1.725  0.3740 -0.5279  1.1536
 5285TIP3   OH237489   1.773   3.572   7.359 -0.5195 -0.4171 -0.4074
 5285TIP3    H137490   1.846   3.633   7.372 -1.3207  0.3696  0.5258
 5285TIP3    H237491   1.738   3.596   7.273  1.5659 -2.1851 -1.8506
 5286TIP3   OH237492   3.172   5.114   1.653 -0.1752  0.1961 -0.2494
 5286TIP3    H137493   3.218   5.040   1.693 -0.1411 -0.3138 -1.1786
 5286TIP3    H237494   3.091   5.076   1.618  0.4875  0.2666 -1.9809
 5287TIP3   OH237495   6.226   6.755   0.855 -0.1784 -0.0926  0.5272
 5287TIP3    H137496   6.159   6.686   0.855  0.0899 -0.3927 -0.9388
 5287TIP3    H237497   6.184   6.828   0.809  0.3150 -0.0968  0.0645
 5288TIP3   OH237498   5.456   5.440   2.209  0.5563  0.6712  0.1300
 5288TIP3    H137499   5.383   5.502   2.210  0.5095  0.7204 -2.0718
 5288TIP3    H237500   5.422   5.362   2.165  0.5887 -1.0508  2.8975
 5289TIP3   OH237501   2.709   2.119   8.215  0.3766 -0.4765 -0.0710
 5289TIP3    H137502   2.735   2.048   8.158  0.0178 -0.5463 -0.1489
 5289TIP3    H237503   2.791   2.159   8.243  0.5360 -0.0390 -1.1393
 5290TIP3   OH237504   0.009   5.480   8.595  0.1826  0.1654  0.5901
 5290TIP3    H137505   0.002   5.413   8.527  3.0222  1.1131 -0.7813
 5290TIP3    H237506  -0.082   5.504   8.614 -0.7881 -1.6048 -1.3400
 5291TIP3   OH237507   1.999   1.105   1.117 -0.6962 -0.1538  0.0677
 5291TIP3    H137508   1.920   1.073   1.160  0.5383  1.2487  3.8009
 5291TIP3    H237509   2.018   1.188   1.161  3.2393 -0.8039 -0.0568
 5292TIP3   OH237510   6.739   6.262   1.819  0.1662 -0.4842  0.1331
 5292TIP3    H137511   6.771   6.301   1.901  0.8112  1.4140 -0.9635
 5292TIP3    H237512   6.670   6.321   1.789  0.8969 -0.3565 -1.3859
 5293TIP3   OH237513   5.290   6.124   8.499 -0.0389 -0.2292 -0.0379
 5293TIP3    H137514   5.343   6.060   8.547 -1.3466 -2.6388 -1.5924
 5293TIP3    H237515   5.238   6.167   8.566 -0.5224 -2.2373  0.9603
 5294TIP3   OH237516   6.619   3.548   8.511  0.0715 -0.2970  0.8986
 5294TIP3    H137517   6.658   3.535   8.598  0.9574  0.6003  0.6649
 5294TIP3    H237518   6.675   3.498   8.452 -0.5266 -0.9007  0.8341
 5295TIP3   OH237519   5.910   6.506   1.568  0.2656 -0.5652 -0.7918
 5295TIP3    H137520   5.977   6.503   1.499  0.0677 -1.6693 -0.9616
 5295TIP3    H237521   5.900   6.599   1.587  0.8423 -0.2821 -1.7520
 5296TIP3   OH237522   2.239   3.278   6.902  0.4576 -0.4597  0.0048
 5296TIP3    H137523   2.190   3.222   6.842  3.0891 -1.7337 -1.1621
 5296TIP3    H237524   2.258   3.357   6.850  0.7561 -0.5510 -0.0274
 5297TIP3   OH237525   0.347   4.520   0.546  0.1726  0.0885  0.1069
 5297TIP3    H137526   0.298   4.449   0.505  0.2781 -0.0298  0.1870
 5297TIP3    H237527   0.304   4.600   0.514 -0.4643 -0.0278  0.6605
 5298TIP3   OH237528   1.063   0.040   7.503 -0.1328  0.3318  0.1095
 5298TIP3    H137529   1.099   0.109   7.446 -0.9608  1.5239  0.9737
 5298TIP3    H237530   1.133   0.023   7.566  0.3511 -0.1576 -0.5461
 5299TIP3   OH237531   3.655   4.501   7.268 -0.2874  0.2204 -0.1419
 5299TIP3    H137532   3.750   4.504   7.274 -0.3969  2.6829  2.5972
 5299TIP3    H237533   3.632   4.412   7.293  1.2632 -0.1328  0.1360
 5300TIP3   OH237534   3.380   1.795   7.853 -0.4642  0.1971  0.1894
 5300TIP3    H137535   3.412   1.865   7.909 -0.3090  0.3150 -0.0494
 5300TIP3    H237536   3.291   1.822   7.829 -0.1100  0.7008 -0.5634
 5301TIP3   OH237537   6.075   0.950   8.547 -0.6227  0.6457 -0.0181
 5301TIP3    H137538   6.150   0.934   8.605 -0.7304  0.5895  0.1075
 5301TIP3    H237539   5.999   0.928   8.601 -0.8341  2.4800  0.4952
 5302TIP3   OH237540   4.745   5.823   1.069 -0.3651  0.1886  0.0967
 5302TIP3    H137541   4.819   5.860   1.021  0.6627 -1.6783  0.1546
 5302TIP3    H237542   4.708   5.897   1.117 -0.5903  1.8268 -2.4579
 5303TIP3   OH237543   3.562   5.351   1.776 -0.6104  0.6865  0.1308
 5303TIP3    H137544   3.653   5.330   1.800 -0.6561  0.3952  0.0485
 5303TIP3    H237545   3.555   5.323   1.684 -0.2750  2.2840 -0.4150
 5304TIP3   OH237546   4.983   0.521   8.517  0.0691 -0.0155  0.5217
 5304TIP3    H137547   4.940   0.482   8.442 -1.5263  0.8907  0.9271
 5304TIP3    H237548   4.982   0.452   8.584  1.2433 -0.7261 -0.1558
 5305TIP3   OH237549   5.798   1.051   0.428  0.5584 -0.3309  0.3323
 5305TIP3    H137550   5.881   1.044   0.476  0.0181  2.2805  1.8708
 5305TIP3    H237551   5.733   1.016   0.489  0.2332  0.1145  0.2469
 5306TIP3   OH237552   2.855   6.671   1.452  0.0631 -0.0783  0.4813
 5306TIP3    H137553   2.798   6.622   1.394 -0.7828  0.4082  0.8868
 5306TIP3    H237554   2.804   6.682   1.533  0.6383  0.5503  0.7707
 5307TIP3   OH237555   5.850   4.941   2.410  0.3792  0.0752 -0.2197
 5307TIP3    H137556   5.919   4.875   2.416  1.5755  1.0297 -2.2468
 5307TIP3    H237557   5.820   4.935   2.319 -2.0338 -0.0975  0.5389
 5308TIP3   OH237558   6.703   5.762   1.532  0.3733 -0.2372  0.2825
 5308TIP3    H137559   6.791   5.740   1.503  0.0587  0.7139 -1.5872
 5308TIP3    H237560   6.657   5.788   1.452 -0.9321  1.4808  1.4959
 5309TIP3   OH237561   1.065   5.761   1.762 -0.0099 -0.2805  0.1204
 5309TIP3    H137562   1.108   5.760   1.848  0.1481  0.6568  0.0651
 5309TIP3    H237563   1.029   5.849   1.754  1.5331  0.2696 -1.5112
 5310TIP3   OH237564   0.560   6.570   1.861  0.0451 -0.3024 -0.2989
 5310TIP3    H137565   0.650   6.539   1.859  0.9208  2.0801 -1.7552
 5310TIP3    H237566   0.542   6.599   1.772 -0.8116  2.7215  0.7380
 5311TIP3   OH237567   2.983   3.958   0.032  0.3391  0.0394  0.0344
 5311TIP3    H137568   2.928   3.932  -0.042  0.1143  0.9640 -0.1347
 5311TIP3    H237569   2.985   3.881   0.088  2.0630 -1.3497 -1.8214
 5312TIP3   OH237570   6.718   0.875   8.417 -0.3490 -0.0076  0.2743
 5312TIP3    H137571   6.677   0.790   8.401 -2.6227  1.2548 -1.1023
 5312TIP3    H237572   6.646   0.934   8.438  0.7764  2.1749 -1.4712
 5313TIP3   OH237573   1.766   6.027   0.443 -0.6390  0.7220  0.0799
 5313TIP3    H137574   1.679   6.020   0.483 -0.2559  0.2261  0.8484
 5313TIP3    H237575   1.749   6.036   0.349 -1.5011 -0.8589  0.0430
 5314TIP3   OH237576   0.465   2.470   2.174  0.1223  0.0008 -0.3473
 5314TIP3    H137577   0.401   2.401   2.190  0.8153 -0.4183  0.8243
 5314TIP3    H237578   0.515   2.440   2.098 -1.0948  0.3736 -1.3220
 5315TIP3   OH237579   4.470   0.221   1.058  0.3334 -0.2009  0.1462
 5315TIP3    H137580   4.436   0.135   1.031  1.1942 -0.7375  0.7278
 5315TIP3    H237581   4.469   0.218   1.154 -0.3306  0.7364  0.1873
 5316TIP3   OH237582   5.495   5.890   8.485 -0.5643 -0.4824  0.4638
 5316TIP3    H137583   5.410   5.863   8.518 -0.3659 -0.4190  1.0394
 5316TIP3    H237584   5.542   5.808   8.470 -1.5453 -0.6628 -2.1871
 5317TIP3   OH237585   6.187   3.696   8.145 -0.2327 -0.4136 -0.1351
 5317TIP3    H137586   6.254   3.691   8.077  0.0824  0.3046  0.1094
 5317TIP3    H237587   6.169   3.790   8.153 -1.1211 -0.5881 -0.0550
 5318TIP3   OH237588   1.339   0.156   2.223 -0.1182 -0.5030  0.2354
 5318TIP3    H137589   1.318   0.186   2.134 -0.9946  1.7687  1.1672
 5318TIP3    H237590   1.257   0.162   2.271  0.1529 -2.5062  1.0742
 5319TIP3   OH237591   4.148   4.751   2.074 -0.2699  0.0236  0.7000
 5319TIP3    H137592   4.240   4.777   2.081 -0.2343 -0.2788  1.3755
 5319TIP3    H237593   4.151   4.659   2.048 -0.3977  0.3813 -0.7084
 5320TIP3   OH237594   4.770   3.448   7.961  0.5874 -0.1140  0.1455
 5320TIP3    H137595   4.794   3.540   7.970 -0.7831  0.1906  0.8473
 5320TIP3    H237596   4.841   3.410   7.908  0.5512  1.6063 -1.2203
 5321TIP3   OH237597   3.481   1.539   7.851 -0.0078 -0.0994  0.0748
 5321TIP3    H137598   3.436   1.623   7.862 -0.8566 -0.3773 -1.0367
 5321TIP3    H237599   3.464   1.492   7.933 -2.5753 -0.5331 -0.6029
 5322TIP3   OH237600   4.436   0.902   2.575 -0.2039  0.0890  0.1641
 5322TIP3    H137601   4.357   0.852   2.598 -1.2947  1.6242 -0.0891
 5322TIP3    H237602   4.507   0.857   2.621 -1.3942 -0.6209  1.3939
 5323TIP3   OH237603   0.416   5.717   0.934 -0.0663  0.2852  0.3771
 5323TIP3    H137604   0.447   5.627   0.943  0.6080  0.3189 -1.2487
 5323TIP3    H237605   0.459   5.764   1.005  1.1777 -0.2909  0.0293
 5324TIP3   OH237606   2.759   5.984   1.314  0.0482 -0.2316  0.3770
 5324TIP3    H137607   2.769   5.917   1.382 -0.0590 -0.9434 -0.2870
 5324TIP3    H237608   2.848   6.012   1.294  0.2240 -1.2701 -0.3867
 5325TIP3   OH237609   3.634   1.806   0.805  0.1886  0.0528 -0.7296
 5325TIP3    H137610   3.658   1.874   0.742  0.5170  1.1496  0.5351
 5325TIP3    H237611   3.542   1.820   0.823  0.4819  0.7861  0.2486
 5326TIP3   OH237612   3.608   0.250   0.816 -0.0929 -0.2854 -0.1540
 5326TIP3    H137613   3.543   0.190   0.852 -1.5036  1.0394 -0.3823
 5326TIP3    H237614   3.571   0.337   0.831  0.8777  0.4420 -1.7515
 5327TIP3   OH237615   3.880   5.639   8.463  0.2294 -0.1391 -0.9470
 5327TIP3    H137616   3.811   5.705   8.475  1.8905  1.8613 -1.7707
 5327TIP3    H237617   3.870   5.611   8.372 -1.4208 -2.2590 -0.1900
 5328TIP3   OH237618   2.459   6.045   1.655 -0.2550 -0.1857 -0.2107
 5328TIP3    H137619   2.522   5.987   1.610 -0.9739 -0.8444 -0.3882
 5328TIP3    H237620   2.428   5.993   1.730  0.4985  0.6875  0.7388
 5329TIP3   OH237621   5.495   2.394   8.423  0.6979  0.0269 -0.4457
 5329TIP3    H137622   5.577   2.443   8.419  1.0342 -0.4900 -0.1458
 5329TIP3    H237623   5.432   2.454   8.463  1.5420 -0.3323  1.5777
 5330TIP3   OH237624   2.168   6.128   7.227  0.2379 -0.3249  0.3303
 5330TIP3    H137625   2.078   6.109   7.203  0.8947 -1.5499 -1.3956
 5330TIP3    H237626   2.175   6.223   7.218 -0.3048 -0.4352 -1.9053
 5331TIP3   OH237627   3.223   0.668   1.344 -0.0833 -0.5204  0.1000
 5331TIP3    H137628   3.314   0.651   1.366 -0.8146 -1.6963  2.6418
 5331TIP3    H237629   3.185   0.706   1.423 -1.7567  0.1922 -0.9735
 5332TIP3   OH237630   6.624   2.695   1.384  0.5135  0.2200 -0.0153
 5332TIP3    H137631   6.615   2.686   1.479 -1.4455 -3.7055 -0.3512
 5332TIP3    H237632   6.710   2.659   1.364  1.6747  2.6445  0.2954
 5333TIP3   OH237633   3.413   1.970   1.097  0.0875 -0.0384  1.1395
 5333TIP3    H137634   3.337   1.984   1.154  0.3234  1.4678  1.1343
 5333TIP3    H237635   3.443   2.058   1.075  1.2859 -0.6028  0.3862
 5334TIP3   OH237636   5.061   6.802   6.645  0.2914 -0.1129 -0.1417
 5334TIP3    H137637   5.105   6.718   6.663  1.0030  0.6401  1.9090
 5334TIP3    H237638   4.969   6.778   6.632  0.4445 -1.2064  0.5925
 5335TIP3   OH237639   1.932   3.501   0.212 -0.3303  0.8109  0.3175
 5335TIP3    H137640   2.008   3.554   0.187  0.5220 -0.4437  0.1539
 5335TIP3    H237641   1.871   3.511   0.139  0.7847 -0.2368 -0.7947
 5336TIP3   OH237642   4.449   2.572   0.271 -0.1521 -0.0591 -0.4072
 5336TIP3    H137643   4.420   2.643   0.214 -0.3974 -0.7079 -1.1075
 5336TIP3    H237644   4.498   2.513   0.214  0.1331 -0.4067  0.1826
 5337TIP3   OH237645   3.446   6.272   0.273 -0.1583 -0.7973  0.0420
 5337TIP3    H137646   3.501   6.305   0.202 -0.4694  0.2050  0.2436
 5337TIP3    H237647   3.480   6.185   0.291  0.9044 -0.4733 -0.3118
 5338TIP3   OH237648   3.913   0.584   0.100  0.3511  0.3116  0.1230
 5338TIP3    H137649   3.968   0.638   0.157  0.2985  0.4212  0.0691
 5338TIP3    H237650   3.974   0.545   0.038  0.9822 -2.5551  2.3244
 5339TIP3   OH237651   3.986   4.039   6.302  0.0116  0.0944  0.1664
 5339TIP3    H137652   4.076   4.071   6.300 -0.3466  1.1578  0.2950
 5339TIP3    H237653   3.934   4.116   6.325 -0.8789 -0.6323  0.6392
 5340TIP3   OH237654   2.640   3.160   0.338 -0.3392  0.3621 -0.2950
 5340TIP3    H137655   2.561   3.198   0.377  1.3471  1.4530  2.3509
 5340TIP3    H237656   2.695   3.235   0.317  0.0499 -0.3764 -2.1189
 5341TIP3   OH237657   6.070   4.686   7.377  0.4162 -0.3909  0.2870
 5341TIP3    H137658   5.976   4.698   7.392  0.4763  1.7229 -0.6045
 5341TIP3    H237659   6.105   4.775   7.377  2.1246 -1.0075 -1.1575
 5342TIP3   OH237660   1.358   5.245   0.089  0.1026 -0.1867  0.0481
 5342TIP3    H137661   1.342   5.195   0.009 -1.0429 -1.0227  0.7890
 5342TIP3    H237662   1.360   5.180   0.159 -0.6187  0.6992  0.9223
 5343TIP3   OH237663   1.575   4.111   1.487  0.7351  0.0231  0.2298
 5343TIP3    H137664   1.577   4.024   1.526 -0.2986 -0.8278 -1.5181
 5343TIP3    H237665   1.542   4.098   1.398  0.9974  2.1429 -0.2517
 5344TIP3   OH237666   6.345   5.441   1.611  0.1455 -0.1025  0.1612
 5344TIP3    H137667   6.327   5.478   1.524 -1.3247 -0.6493  0.2049
 5344TIP3    H237668   6.303   5.502   1.671  2.0808  0.8665  0.6056
 5345TIP3   OH237669   2.526   2.330   0.356 -0.3466  0.0411  0.3085
 5345TIP3    H137670   2.564   2.414   0.331 -0.8243  0.5165  1.1284
 5345TIP3    H237671   2.599   2.281   0.393 -0.3476  0.6506  1.1484
 5346TIP3   OH237672   5.133   1.547   7.986  0.9881 -0.4850 -0.6796
 5346TIP3    H137673   5.092   1.587   7.909  1.0752 -1.1994 -1.1099
 5346TIP3    H237674   5.076   1.473   8.007  0.6932 -0.0019  0.2548
 5347TIP3   OH237675   4.742   1.724   8.518  0.2050 -0.1198  0.0456
 5347TIP3    H137676   4.692   1.765   8.588 -1.5389 -0.1503 -1.1381
 5347TIP3    H237677   4.721   1.775   8.440  1.8804 -0.2732 -0.5610
 5348TIP3   OH237678   1.876   1.139   7.633 -0.2653 -0.1978 -0.5301
 5348TIP3    H137679   1.809   1.204   7.653  0.5159 -0.1966  2.7331
 5348TIP3    H237680   1.954   1.190   7.613 -0.1003 -0.1370  0.2541
 5349TIP3   OH237681   0.237   5.174   0.122 -0.4146  0.4560 -0.2339
 5349TIP3    H137682   0.143   5.193   0.122 -0.5296 -0.0415  1.1581
 5349TIP3    H237683   0.271   5.218   0.199  0.1554 -0.9092  0.3250
 5350TIP3   OH237684   3.126   5.482   6.680  0.2058  0.9360 -0.0808
 5350TIP3    H137685   3.219   5.501   6.668  0.1781  1.7886  0.9356
 5350TIP3    H237686   3.081   5.558   6.642 -0.2242 -0.5345 -2.8046
 5351TIP3   OH237687   1.847   5.393   7.235 -0.5680 -0.4997  0.4004
 5351TIP3    H137688   1.755   5.374   7.213 -0.1672  0.6006 -2.7076
 5351TIP3    H237689   1.841   5.461   7.302 -1.9821 -1.3866  1.2475
 5352TIP3   OH237690   5.277   1.348   1.236  0.0315  0.1028  0.1172
 5352TIP3    H137691   5.240   1.296   1.307  0.1586  1.1408  0.9597
 5352TIP3    H237692   5.212   1.417   1.220 -0.6476 -0.8902 -1.7276
 5353TIP3   OH237693   0.432   3.898   1.649  0.6610 -0.3151 -0.3360
 5353TIP3    H137694   0.403   3.943   1.728  0.4618  0.8757 -1.0584
 5353TIP3    H237695   0.395   3.809   1.657 -1.0443  0.3793 -0.0203
 5354TIP3   OH237696   1.817   0.210   1.067 -0.1964 -0.5973  0.9373
 5354TIP3    H137697   1.898   0.249   1.033 -0.6485 -0.9106 -0.5727
 5354TIP3    H237698   1.802   0.134   1.012 -3.0647  1.0661 -0.8361
 5355TIP3   OH237699   2.262   2.333   0.394 -0.5529  0.3777  0.0857
 5355TIP3    H137700   2.230   2.344   0.484 -1.0824 -3.2973  0.5105
 5355TIP3    H237701   2.357   2.328   0.402 -0.5718  0.4922  0.3836
 5356TIP3   OH237702   5.977   3.304   6.526  0.3765  0.0868 -0.1760
 5356TIP3    H137703   5.962   3.370   6.594  1.2473  0.9645 -0.8210
 5356TIP3    H237704   5.897   3.250   6.528  0.5482 -0.1787  1.8156
 5357TIP3   OH237705   0.423   3.256   8.174 -0.3787 -0.9346 -0.0185
 5357TIP3    H137706   0.473   3.324   8.219 -0.3358 -1.6331  1.0209
 5357TIP3    H237707   0.352   3.303   8.131  0.5015 -0.0695 -0.5557
 5358TIP3   OH237708   5.304   1.164   0.688  0.1106  0.6747  0.2858
 5358TIP3    H137709   5.354   1.147   0.608  0.5266  1.0017  0.4778
 5358TIP3    H237710   5.350   1.235   0.731  1.3206 -1.1137  2.0726
 5359TIP3   OH237711   1.264   5.350   7.789 -0.1984  0.2865 -0.3549
 5359TIP3    H137712   1.209   5.350   7.711 -0.7476 -0.0342  0.0260
 5359TIP3    H237713   1.262   5.260   7.820 -0.6130  0.5685  0.4621
 5360TIP3   OH237714   1.139   4.572   2.003  0.5146 -0.0831  0.1439
 5360TIP3    H137715   1.174   4.655   1.969  0.2142  0.1732  0.4570
 5360TIP3    H237716   1.156   4.509   1.933 -0.4375  0.5219 -0.6561
 5361TIP3   OH237717   2.170   2.942   7.168  0.4326  0.0530  0.1956
 5361TIP3    H137718   2.252   2.943   7.217  0.3809  2.8721  0.3747
 5361TIP3    H237719   2.195   2.968   7.079  0.0414 -1.6437 -0.4571
 5362TIP3   OH237720   4.794   5.232   0.857  0.1109 -0.2580  0.2108
 5362TIP3    H137721   4.825   5.220   0.768 -0.2729  1.7425 -0.2388
 5362TIP3    H237722   4.813   5.149   0.901  0.2594 -1.2987 -1.7272
 5363TIP3   OH237723   1.952   2.251   2.267 -0.2743  0.2251  0.1946
 5363TIP3    H137724   1.968   2.161   2.240 -0.8346  0.6226 -1.6232
 5363TIP3    H237725   2.035   2.279   2.307  0.9158 -0.2019 -1.8499
 5364TIP3   OH237726   0.751   0.945   6.976  0.3800 -0.1646 -0.3756
 5364TIP3    H137727   0.844   0.923   6.982  1.0579  2.6462  1.8574
 5364TIP3    H237728   0.706   0.870   7.013  1.8759 -0.9472 -0.0757
 5365TIP3   OH237729   6.375   4.281   7.177  0.1485  0.3293 -0.3687
 5365TIP3    H137730   6.312   4.215   7.207  0.2336 -0.3053 -1.5030
 5365TIP3    H237731   6.346   4.363   7.218 -0.1876 -0.3359  0.7544
 5366TIP3   OH237732   0.529   5.178   0.759  0.1671  0.2131  0.1354
 5366TIP3    H137733   0.560   5.087   0.760 -0.1551  0.1034  0.7053
 5366TIP3    H237734   0.603   5.228   0.793 -0.6774 -0.1990  2.7607
 5367TIP3   OH237735   3.353   5.084   8.198 -0.1055  0.3495 -0.2142
 5367TIP3    H137736   3.419   5.056   8.135  1.3088  3.2539 -0.1650
 5367TIP3    H237737   3.330   5.003   8.246  2.7162 -0.9562 -0.8480
 5368TIP3   OH237738   2.849   3.016   1.668 -0.0692 -0.4808 -0.0635
 5368TIP3    H137739   2.779   2.953   1.654  0.8383 -1.8216  1.1306
 5368TIP3    H237740   2.915   2.968   1.720  1.7195  0.7284 -1.1073
 5369TIP3   OH237741   3.963   4.052   2.267  0.0499  0.1257 -0.6052
 5369TIP3    H137742   3.934   3.986   2.204 -1.1315  1.0597 -1.0929
 5369TIP3    H237743   3.916   4.132   2.240  1.2890  1.1124  0.0714
 5370TIP3   OH237744   2.471   6.316   0.485  0.6299 -0.0310  0.4767
 5370TIP3    H137745   2.434   6.292   0.399 -0.6492 -0.5945  1.1593
 5370TIP3    H237746   2.485   6.233   0.529 -0.2723  0.3034  1.4289
 5371TIP3   OH237747   0.878   1.945   2.003 -0.2822 -0.7553 -0.5976
 5371TIP3    H137748   0.933   1.881   1.957  0.8436  0.9681 -1.7766
 5371TIP3    H237749   0.938   2.016   2.025 -1.6231  0.1998  0.0794
 5372TIP3   OH237750   6.189   4.415   1.470  0.5987 -0.6247 -0.6749
 5372TIP3    H137751   6.108   4.373   1.499 -1.0604  1.1841 -2.3402
 5372TIP3    H237752   6.258   4.359   1.503 -1.3444 -2.5820  0.3568
 5373TIP3   OH237753   1.125   0.199   0.756  0.2545 -0.5287 -0.2729
 5373TIP3    H137754   1.075   0.279   0.741 -1.1458 -0.9213  1.7849
 5373TIP3    H237755   1.059   0.130   0.755  1.4861 -1.7617 -2.3631
 5374TIP3   OH237756   4.484   5.727   1.563  0.4954 -0.1767 -0.6104
 5374TIP3    H137757   4.521   5.647   1.526 -0.0730  0.5386 -2.8564
 5374TIP3    H237758   4.391   5.708   1.574  0.6596 -0.3888  0.5544
 5375TIP3   OH237759   1.038   1.691   7.470  0.0405  0.0087  0.4271
 5375TIP3    H137760   1.130   1.672   7.485 -0.3574 -1.1836  1.5685
 5375TIP3    H237761   1.021   1.660   7.381  0.2471 -1.8112  0.9905
 5376TIP3   OH237762   2.499   2.820   6.541  0.1808  0.4112  0.8029
 5376TIP3    H137763   2.523   2.903   6.500  0.2692 -0.8230 -1.8061
 5376TIP3    H237764   2.404   2.815   6.532  0.1387  0.3602  1.2485
 5377TIP3   OH237765   5.040   3.878   6.490 -0.2994 -0.4850 -0.1752
 5377TIP3    H137766   5.101   3.883   6.563 -0.7257  1.7407  0.0868
 5377TIP3    H237767   4.978   3.949   6.505 -0.0361  0.4809 -2.9950
 5378TIP3   OH237768   1.906   5.287   1.581  0.2309  0.5209  0.0240
 5378TIP3    H137769   1.993   5.278   1.619 -0.2655  2.7192  1.9801
 5378TIP3    H237770   1.873   5.198   1.574  2.3596 -0.3087 -0.1436
 5379TIP3   OH237771   4.626   3.740   8.405 -0.0401  0.3343 -0.6057
 5379TIP3    H137772   4.606   3.648   8.424 -0.0247  0.5823  0.6557
 5379TIP3    H237773   4.540   3.782   8.396 -0.0523  0.1456 -1.5707
 5380TIP3   OH237774   3.771   4.543   0.241 -0.1205 -0.2532  0.2372
 5380TIP3    H137775   3.803   4.588   0.164  0.9996 -1.1960  0.1119
 5380TIP3    H237776   3.702   4.599   0.276  1.2201  1.5319  0.1090
 5381TIP3   OH237777   3.819   0.229   8.610  0.1437 -0.2774  0.2869
 5381TIP3    H137778   3.910   0.200   8.603  1.0649  1.5233  3.2915
 5381TIP3    H237779   3.821   0.322   8.587 -0.3082  0.5217  3.1026
 5382TIP3   OH237780   2.263   3.856   6.950  0.1572 -0.4645 -0.0888
 5382TIP3    H137781   2.223   3.931   6.905 -0.4136  0.0540  1.2207
 5382TIP3    H237782   2.189   3.809   6.988  0.6138 -0.9866  0.1559
 5383TIP3   OH237783   3.824   0.749   0.650  0.3210  0.0508 -0.0868
 5383TIP3    H137784   3.735   0.762   0.684  0.7027  1.3932  0.4915
 5383TIP3    H237785   3.847   0.832   0.608  1.8467  0.3024  1.1234
 5384TIP3   OH237786   0.087   3.474   0.147 -0.1737  0.2892  0.0473
 5384TIP3    H137787   0.045   3.520   0.220 -0.0422 -0.7575  0.8131
 5384TIP3    H237788   0.014   3.449   0.090 -0.4811 -0.3540  0.6934
 5385TIP3   OH237789   6.883   5.857   6.806 -0.4851 -0.5348 -0.7237
 5385TIP3    H137790   6.943   5.909   6.859 -1.1985  1.9998 -2.2029
 5385TIP3    H237791   6.940   5.799   6.754  0.2552 -2.3271  1.9073
 5386TIP3   OH237792   3.286   6.783   7.335  0.3076 -0.3626 -0.0942
 5386TIP3    H137793   3.259   6.766   7.425  0.0882 -1.8431 -0.4100
 5386TIP3    H237794   3.205   6.799   7.287  0.0936 -2.5810 -0.5925
 5387TIP3   OH237795   0.760   0.194   2.299  0.4050  0.3286 -0.7138
 5387TIP3    H137796   0.718   0.111   2.321  2.5515 -0.5968  0.2080
 5387TIP3    H237797   0.737   0.252   2.372 -0.3632  0.2787 -0.9082
 5388TIP3   OH237798   1.136   0.379   1.961  0.2746 -0.2284  0.3144
 5388TIP3    H137799   1.072   0.417   1.901 -0.7024 -1.9876  0.1619
 5388TIP3    H237800   1.110   0.409   2.047 -0.1898 -0.1605  0.1517
 5389TIP3   OH237801   4.264   0.150   7.213 -0.2024  0.1368  0.1883
 5389TIP3    H137802   4.206   0.087   7.170 -0.2413 -0.4644  1.1037
 5389TIP3    H237803   4.217   0.233   7.207 -0.4751 -0.0508 -0.3962
 5390TIP3   OH237804   4.612   0.858   0.707 -0.1631  0.0798  0.0220
 5390TIP3    H137805   4.681   0.924   0.703 -0.2177  0.2172  1.1418
 5390TIP3    H237806   4.537   0.900   0.664  0.6678 -0.4039 -2.0451
 5391TIP3   OH237807   1.708   6.375   2.314 -0.2516  0.2393  0.2641
 5391TIP3    H137808   1.677   6.428   2.387  0.3628  2.3483 -0.9191
 5391TIP3    H237809   1.660   6.408   2.238  2.7427  1.7843 -1.1549
 5392TIP3   OH237810   2.829   2.716   1.629  0.6828 -0.0567 -0.5834
 5392TIP3    H137811   2.903   2.776   1.634  0.7725 -0.0795 -1.5183
 5392TIP3    H237812   2.848   2.650   1.695  2.2238 -0.8557 -1.7594
 5393TIP3   OH237813   0.429   6.260   1.187  0.0456 -0.0646 -0.6954
 5393TIP3    H137814   0.351   6.205   1.193  0.7208 -1.0106 -0.4422
 5393TIP3    H237815   0.404   6.341   1.233 -0.9094 -0.1905 -0.9590
 5394TIP3   OH237816   3.813   4.201   2.068  0.2939 -0.5541  0.1624
 5394TIP3    H137817   3.889   4.225   2.015 -0.7654 -0.7608 -1.5528
 5394TIP3    H237818   3.746   4.266   2.045 -0.4513 -1.1382  0.6273
 5395TIP3   OH237819   1.656   5.030   1.952 -0.1974  0.3672 -0.5251
 5395TIP3    H137820   1.610   5.019   2.035 -0.7176  2.9915 -0.3639
 5395TIP3    H237821   1.640   4.949   1.904  0.2278 -1.2689  1.9432
 5396TIP3   OH237822   5.306   2.869   8.379 -0.4468 -0.1757 -0.6412
 5396TIP3    H137823   5.260   2.807   8.323  0.1803 -2.0372  0.8175
 5396TIP3    H237824   5.395   2.873   8.342 -0.6813  0.4552 -1.1637
 5397TIP3   OH237825   6.059   1.446   1.857  0.3501  0.1655 -0.5962
 5397TIP3    H137826   6.000   1.445   1.782 -0.0547 -1.7699 -0.3323
 5397TIP3    H237827   6.001   1.442   1.933  0.7325 -2.1891 -0.3405
 5398TIP3   OH237828   3.646   2.687   8.225  0.5119  0.2198  0.4929
 5398TIP3    H137829   3.736   2.707   8.251  0.7673  0.3604 -0.4770
 5398TIP3    H237830   3.611   2.635   8.298  0.8724  1.4601  1.5861
 5399TIP3   OH237831   5.321   2.369   7.158 -0.4425 -0.0647 -0.1926
 5399TIP3    H137832   5.390   2.356   7.093  0.3700  3.4063 -0.2508
 5399TIP3    H237833   5.357   2.334   7.239  0.3237 -0.5683 -0.7399
 5400TIP3   OH237834   5.811   3.296   1.717  0.2374  0.6984 -0.1788
 5400TIP3    H137835   5.775   3.375   1.757 -1.5264 -0.5044  0.7364
 5400TIP3    H237836   5.782   3.225   1.774 -0.2931 -0.8488 -2.2581
 5401TIP3   OH237837   1.398   5.491   0.949 -0.3018 -0.3461 -0.3594
 5401TIP3    H137838   1.335   5.423   0.925 -0.3961 -0.2959 -0.2540
 5401TIP3    H237839   1.425   5.469   1.038 -0.6601 -0.0002 -0.1607
 5402TIP3   OH237840   3.955   2.787   8.195  0.1098  0.0156  0.1933
 5402TIP3    H137841   4.016   2.848   8.238  1.1131  0.2615 -1.5134
 5402TIP3    H237842   3.958   2.709   8.250  2.1296 -0.0470  0.0816
 5403TIP3   OH237843   5.921   5.106   7.522 -0.2358  0.3151 -0.6141
 5403TIP3    H137844   5.843   5.088   7.470  0.0047  1.0559 -1.2550
 5403TIP3    H237845   5.992   5.063   7.475 -0.1695  0.1147 -0.3347
 5404TIP3   OH237846   4.168   0.847   8.454  0.3223 -0.3591  0.1216
 5404TIP3    H137847   4.148   0.793   8.530  0.3153 -0.6491 -0.0838
 5404TIP3    H237848   4.086   0.853   8.406  0.2673  0.0222  0.2596
 5405TIP3   OH237849   5.570   6.284   2.097 -0.0736 -0.0521 -0.5127
 5405TIP3    H137850   5.555   6.208   2.042 -0.8806  0.2358 -0.7057
 5405TIP3    H237851   5.652   6.265   2.143 -0.1061 -0.8893 -0.7901
 5406TIP3   OH237852   2.766   4.145   7.316 -0.2295 -0.6927  0.5676
 5406TIP3    H137853   2.836   4.131   7.380 -0.4211  0.0608  0.9583
 5406TIP3    H237854   2.755   4.240   7.314  1.3407 -0.4626 -2.2622
 5407TIP3   OH237855   2.694   0.822   8.371  0.3467  0.0573 -0.0214
 5407TIP3    H137856   2.708   0.880   8.445 -1.1443  1.3996 -0.7338
 5407TIP3    H237857   2.763   0.844   8.309  1.5728 -1.0417  0.9133
 5408TIP3   OH237858   5.295   2.886   1.588  0.3347  0.3138  0.2299
 5408TIP3    H137859   5.368   2.944   1.611 -0.0960  2.0338 -2.2978
 5408TIP3    H237860   5.228   2.945   1.553  0.0724 -1.6596 -3.0502
 5409TIP3   OH237861   2.512   1.785   2.496  0.0403 -0.2423 -0.0708
 5409TIP3    H137862   2.535   1.700   2.460 -2.1369 -0.7464 -0.3785
 5409TIP3    H237863   2.596   1.821   2.526  1.2805 -1.6572 -1.6229
 5410TIP3   OH237864   3.171   3.930   0.675  0.1326 -0.0569 -0.2767
 5410TIP3    H137865   3.145   3.854   0.727 -0.0941  0.0740 -0.1958
 5410TIP3    H237866   3.193   3.997   0.740 -0.4629  0.2104 -0.3501
 5411TIP3   OH237867   5.329   3.364   7.607 -0.2743  0.0645  0.5953
 5411TIP3    H137868   5.391   3.302   7.570 -0.8436 -1.3748  1.9749
 5411TIP3    H237869   5.378   3.411   7.674  0.0320  0.8411 -0.1478
 5412TIP3   OH237870   1.301   6.179   1.470  0.4565  0.2404 -0.3325
 5412TIP3    H137871   1.287   6.134   1.553  2.6883  0.0826  0.0170
 5412TIP3    H237872   1.226   6.154   1.416 -0.3011 -0.8026  1.1388
 5413TIP3   OH237873   2.768   5.033   1.983 -0.7353  0.4476 -0.2699
 5413TIP3    H137874   2.731   4.946   1.970 -1.4733  0.5264  1.1116
 5413TIP3    H237875   2.692   5.091   1.988 -0.2921  1.0394 -0.3094
 5414TIP3   OH237876   2.077   3.198   6.686  0.2512 -0.3852  0.6135
 5414TIP3    H137877   2.104   3.290   6.683  1.1603 -0.6608 -0.3358
 5414TIP3    H237878   2.018   3.188   6.610  0.0402 -0.5516  0.7980
 5415TIP3   OH237879   4.656   6.777   1.169 -0.0327 -0.0351  0.3391
 5415TIP3    H137880   4.695   6.851   1.124 -1.1670  0.4352  0.0982
 5415TIP3    H237881   4.646   6.710   1.102 -0.8549  0.3309  0.0768
 5416TIP3   OH237882   0.029   1.870   8.311  0.4758 -0.5062  0.5301
 5416TIP3    H137883  -0.030   1.941   8.338  0.6640 -0.0877 -0.1368
 5416TIP3    H237884   0.061   1.833   8.393  1.4421  1.0773  0.9042
 5417TIP3   OH237885   3.963   1.210   8.324 -0.2291  0.2513 -0.4651
 5417TIP3    H137886   4.036   1.207   8.385  0.2629  3.6619 -0.7115
 5417TIP3    H237887   3.946   1.118   8.302  3.8446 -0.7171 -0.2726
 5418TIP3   OH237888   0.041   0.280   1.216  0.3055 -0.0851 -0.2615
 5418TIP3    H137889   0.100   0.231   1.159 -1.2347 -0.7644 -1.3674
 5418TIP3    H237890  -0.047   0.254   1.187 -0.5556  0.3688  1.7313
 5419TIP3   OH237891   3.255   2.233   0.862  0.7271 -0.3918  1.1537
 5419TIP3    H137892   3.243   2.328   0.863  1.0232 -0.2298 -1.7631
 5419TIP3    H237893   3.170   2.198   0.836  0.6012 -0.9708  2.2719
 5420TIP3   OH237894   1.612   1.706   7.258  0.2149  0.3088 -0.2718
 5420TIP3    H137895   1.682   1.674   7.202  0.6016  1.5808 -0.5450
 5420TIP3    H237896   1.592   1.793   7.224 -1.4272  0.0291 -0.1357
 5421TIP3   OH237897   0.553   2.873   7.879  0.0956  0.1735 -0.1504
 5421TIP3    H137898   0.528   2.946   7.934  0.0076  1.2508 -1.5567
 5421TIP3    H237899   0.648   2.873   7.880  0.1475 -1.2458  1.7560
 5422TIP3   OH237900   3.049   1.966   1.474 -0.3989 -0.0155 -0.1640
 5422TIP3    H137901   2.962   2.005   1.468 -0.9961 -1.4621 -1.6573
 5422TIP3    H237902   3.108   2.040   1.485 -1.7028  1.1063 -0.4770
 5423TIP3   OH237903   6.743   5.772   8.157  0.2017 -0.2850  0.4883
 5423TIP3    H137904   6.766   5.697   8.102 -1.5529 -0.3008 -0.2826
 5423TIP3    H237905   6.811   5.837   8.138 -0.3904 -0.2325 -1.8754
 5424TIP3   OH237906   3.177   0.738   1.609 -0.1156  0.2214  0.2689
 5424TIP3    H137907   3.113   0.733   1.681 -0.2057  1.7574  0.3427
 5424TIP3    H237908   3.259   0.709   1.648 -0.2018  0.8799  0.9726
 5425TIP3   OH237909   3.906   4.836   8.043  0.1467  0.4785  0.1375
 5425TIP3    H137910   3.894   4.746   8.072  1.9309 -0.2660 -1.2022
 5425TIP3    H237911   3.870   4.890   8.114 -0.5524 -1.2598  1.1629
 5426TIP3   OH237912   0.058   4.987   7.413  0.0277 -0.3734 -0.1990
 5426TIP3    H137913   0.042   5.047   7.340  2.1975 -0.1784 -0.5873
 5426TIP3    H237914  -0.007   4.918   7.401  0.7595 -0.7419 -2.7909
 5427TIP3   OH237915   1.176   1.666   8.258  0.4341  0.0708  0.6181
 5427TIP3    H137916   1.141   1.644   8.344 -3.8399 -1.9529 -1.3330
 5427TIP3    H237917   1.142   1.754   8.239 -0.9687 -0.5659  0.0340
 5428TIP3   OH237918   5.141   6.325   1.535  0.3931 -0.1073 -0.0628
 5428TIP3    H137919   5.126   6.345   1.442  0.1737  2.1788  0.3971
 5428TIP3    H237920   5.198   6.396   1.565  1.9373 -1.7830  1.1724
 5429TIP3   OH237921   0.639   6.439   1.607 -0.4094 -0.6180 -0.1738
 5429TIP3    H137922   0.604   6.381   1.540 -0.0925 -3.7739  2.1623
 5429TIP3    H237923   0.594   6.413   1.687  0.8020  1.4702  1.2724
 5430TIP3   OH237924   4.137   0.069   1.506 -0.5648  0.3283  0.1615
 5430TIP3    H137925   4.181   0.070   1.591 -1.1491  0.9456  0.4676
 5430TIP3    H237926   4.201   0.108   1.446 -0.3769  0.4505  0.4347
 5431TIP3   OH237927   3.369   5.405   7.164  0.8964  0.1196 -0.4084
 5431TIP3    H137928   3.274   5.411   7.160  0.9032  0.4516 -0.0391
 5431TIP3    H237929   3.397   5.404   7.072  0.5046 -0.5456 -0.5248
 5432TIP3   OH237930   2.487   1.793   7.858  0.2842 -0.7232 -0.1640
 5432TIP3    H137931   2.558   1.730   7.848  0.3880 -0.6990  0.4178
 5432TIP3    H237932   2.501   1.833   7.944 -0.2421 -0.4837 -0.1825
 5433TIP3   OH237933   2.439   5.285   1.092  0.0140  0.2722  0.4015
 5433TIP3    H137934   2.449   5.291   1.187  1.1509  0.3866  0.2832
 5433TIP3    H237935   2.368   5.346   1.072  1.1100  1.8026  0.9640
 5434TIP3   OH237936   5.716   0.097   7.553  0.4859  0.0372 -0.1655
 5434TIP3    H137937   5.717   0.116   7.459 -2.8766 -0.5334 -0.4286
 5434TIP3    H237938   5.651   0.029   7.563  0.8651 -0.0293  2.6125
 5435TIP3   OH237939   1.167   4.556   8.120  0.5423 -0.3279 -0.3414
 5435TIP3    H137940   1.128   4.480   8.164 -0.6396  0.0513 -0.6960
 5435TIP3    H237941   1.142   4.630   8.175 -0.3795  0.0712 -1.2815
 5436TIP3   OH237942   0.797   6.781   2.150 -0.4761  0.1709 -0.0907
 5436TIP3    H137943   0.764   6.701   2.192  1.2846 -0.0232  1.0175
 5436TIP3    H237944   0.891   6.765   2.138  0.0734  2.3247  0.8368
 5437TIP3   OH237945   0.314   5.341   2.595 -0.1170  0.1918  0.2462
 5437TIP3    H137946   0.268   5.425   2.598 -0.2788  0.2551 -2.0358
 5437TIP3    H237947   0.391   5.353   2.650 -0.0902  1.8770 -0.1224
 5438TIP3   OH237948   3.651   5.829   7.722 -0.0162  0.2329 -0.4889
 5438TIP3    H137949   3.556   5.819   7.728  0.0794 -0.2474  0.5647
 5438TIP3    H237950   3.685   5.761   7.780  0.9373  1.0549 -0.0598
 5439TIP3   OH237951   3.756   1.199   1.797  0.0726  0.3885  0.0341
 5439TIP3    H137952   3.850   1.207   1.808 -0.0984  1.8672  0.6717
 5439TIP3    H237953   3.727   1.285   1.767 -0.9324 -0.4095 -1.4392
 5440TIP3   OH237954   0.766   3.134   1.059 -0.3381  0.3390  0.2698
 5440TIP3    H137955   0.836   3.194   1.085  1.9006 -2.0489  0.1261
 5440TIP3    H237956   0.755   3.076   1.134  1.0368 -2.0709 -1.2854
 5441TIP3   OH237957   5.093   2.397   2.502  0.2771 -0.9191 -0.1880
 5441TIP3    H137958   5.052   2.313   2.481 -1.8022  0.2126 -0.9404
 5441TIP3    H237959   5.038   2.435   2.570 -0.3563  0.9088 -1.6325
 5442TIP3   OH237960   4.974   0.341   0.500  0.5127 -0.5985  0.1719
 5442TIP3    H137961   4.902   0.345   0.437  1.9892  0.1614 -1.5383
 5442TIP3    H237962   4.930   0.338   0.586 -1.5483 -1.3702 -0.8295
 5443TIP3   OH237963   5.442   5.085   1.650 -0.1819 -0.1981 -0.1932
 5443TIP3    H137964   5.404   4.998   1.656 -0.8311  0.1647  1.4809
 5443TIP3    H237965   5.503   5.090   1.723  2.3210 -0.3449 -2.1139
 5444TIP3   OH237966   0.067   1.717   8.541 -0.2091 -0.0624 -0.6667
 5444TIP3    H137967   0.091   1.763   8.621 -0.0321 -0.4497 -0.4962
 5444TIP3    H237968   0.074   1.624   8.563 -3.3548 -0.2877 -0.0992
 5445TIP3   OH237969   2.258   1.492   2.529 -0.1169  0.7693  0.2707
 5445TIP3    H137970   2.183   1.494   2.588  0.3295 -2.3345  1.1066
 5445TIP3    H237971   2.310   1.417   2.558  0.8630 -0.0811 -3.1844
 5446TIP3   OH237972   4.525   4.954   1.479  0.2434 -0.0764  0.3855
 5446TIP3    H137973   4.537   5.038   1.522 -0.0144  0.5248 -0.6582
 5446TIP3    H237974   4.432   4.951   1.457  0.1398 -0.8813  0.8923
 5447TIP3   OH237975   5.726   4.758   1.807  0.3928  0.7030  0.4032
 5447TIP3    H137976   5.677   4.817   1.864 -0.3573 -0.8480  1.4189
 5447TIP3    H237977   5.812   4.801   1.796 -0.3643  2.3255  0.4651
 5448TIP3   OH237978   2.943   4.397   0.690  0.7289  0.3655 -0.2036
 5448TIP3    H137979   2.860   4.434   0.719 -0.3739 -1.6201 -0.6357
 5448TIP3    H237980   2.926   4.367   0.601  1.8417 -0.2711 -0.2171
 5449TIP3   OH237981   2.235   2.998   2.585 -0.5093  0.5741 -0.4468
 5449TIP3    H137982   2.317   2.985   2.538 -0.2855 -0.4063  0.1763
 5449TIP3    H237983   2.167   2.986   2.518 -0.2427 -1.9647 -0.3948
 5450TIP3   OH237984   4.130   0.010   7.627 -0.0043  1.1073  0.6418
 5450TIP3    H137985   4.039  -0.018   7.631  0.4075 -0.1966  1.4731
 5450TIP3    H237986   4.126   0.105   7.622 -1.5445  1.0498 -3.8727
 5451TIP3   OH237987   0.701   0.448   0.364  0.3322 -0.6515  0.0530
 5451TIP3    H137988   0.785   0.460   0.320  0.4879 -1.0701  0.2246
 5451TIP3    H237989   0.672   0.536   0.387  1.5997 -0.5957  1.5927
 5452TIP3   OH237990   0.358   0.330   7.651 -0.0314 -0.1356 -0.2708
 5452TIP3    H137991   0.289   0.267   7.635  1.6357 -2.5382  1.2767
 5452TIP3    H237992   0.392   0.353   7.564 -1.2475 -0.6878 -0.9035
 5453TIP3   OH237993   2.172   5.428   1.072  0.3412  0.1077  0.1377
 5453TIP3    H137994   2.182   5.393   0.983  0.2540 -0.6310  0.4150
 5453TIP3    H237995   2.078   5.423   1.089  0.5369 -1.4393  0.9338
 5454TIP3   OH237996   0.894   2.762   1.397 -0.0763  0.2192  0.6290
 5454TIP3    H137997   0.935   2.702   1.459  2.6299 -0.0930 -1.2952
 5454TIP3    H237998   0.807   2.780   1.435  0.7059 -1.3741  3.4897
 5455TIP3   OH237999   1.638   0.400   0.305  0.4674 -0.3774 -0.7971
 5455TIP3    H138000   1.631   0.335   0.235 -0.3792  0.3357 -1.4062
 5455TIP3    H238001   1.602   0.356   0.382  0.9327 -1.0036 -0.9297
 5456TIP3   OH238002   2.951   3.588   1.320 -0.2543 -0.2115  0.0892
 5456TIP3    H138003   2.953   3.568   1.413 -3.6806 -1.9378 -0.0741
 5456TIP3    H238004   2.862   3.567   1.292  0.1122  1.9045 -3.2524
 5457TIP3   OH238005   4.042   6.508   0.008 -0.2278 -0.0537 -0.0263
 5457TIP3    H138006   3.974   6.443   0.028 -1.0303  1.1833  1.4695
 5457TIP3    H238007   4.010   6.555  -0.068 -1.2869  0.7819  0.9024
 5458TIP3   OH238008   1.321   2.960   7.621 -0.6047 -0.1395  0.2962
 5458TIP3    H138009   1.353   2.880   7.664 -0.3933  1.4280  3.2752
 5458TIP3    H238010   1.226   2.956   7.630 -0.5459  0.3036  1.1695
 5459TIP3   OH238011   5.028   5.065   1.120 -0.0034 -0.1593  0.4524
 5459TIP3    H138012   5.108   5.065   1.066  0.6673  0.4615  1.4102
 5459TIP3    H238013   5.059   5.046   1.208 -0.8290  0.8016  0.9670
 5460TIP3   OH238014   0.897   0.151   0.008 -0.0778  0.2345  0.3408
 5460TIP3    H138015   0.976   0.103  -0.017 -0.4798  0.4043 -1.4419
 5460TIP3    H238016   0.930   0.232   0.047  0.6303  0.0564  0.1311
 5461TIP3   OH238017   4.480   1.548   1.225 -0.0583  0.3387  0.1419
 5461TIP3    H138018   4.544   1.477   1.229 -0.9517 -0.5192 -0.2093
 5461TIP3    H238019   4.525   1.619   1.179  0.6685 -0.2137 -0.0163
 5462TIP3   OH238020   3.847   0.170   7.841 -0.3170  0.6634  0.2931
 5462TIP3    H138021   3.779   0.195   7.903 -0.5353  2.8178 -0.7459
 5462TIP3    H238022   3.886   0.252   7.813  0.8910 -0.3584 -1.2052
 5463TIP3   OH238023   4.942   2.316   7.273  0.3716  0.0315  0.0317
 5463TIP3    H138024   4.936   2.411   7.259 -0.9091 -0.2493 -1.6025
 5463TIP3    H238025   4.852   2.290   7.294  0.4510 -0.9987 -0.8558
 5464TIP3   OH238026   3.329   4.381   0.806 -0.7700 -0.0978  0.3649
 5464TIP3    H138027   3.413   4.343   0.831  0.8315  2.8810 -0.0413
 5464TIP3    H238028   3.275   4.375   0.884  0.3379 -0.7004  1.1079
 5465TIP3   OH238029   2.722   0.969   6.517 -0.5809 -0.1094  0.3147
 5465TIP3    H138030   2.725   1.028   6.441 -0.3985 -1.2293 -0.5722
 5465TIP3    H238031   2.753   0.885   6.483  0.4291 -0.3994  1.8563
 5466TIP3   OH238032   0.099   2.987   1.008  0.0130  0.1155 -0.0743
 5466TIP3    H138033   0.089   2.910   0.952  1.1134  0.3072 -0.5663
 5466TIP3    H238034   0.189   2.981   1.041  0.8692  2.2848 -1.8169
 5467TIP3   OH238035   5.671   1.866   1.892 -0.6358  0.0843 -0.5429
 5467TIP3    H138036   5.755   1.866   1.938  0.5093  0.0450 -2.5200
 5467TIP3    H238037   5.630   1.949   1.918 -0.2162 -0.0987  0.7940
 5468TIP3   OH238038   0.450   5.812   2.265  0.7945  0.0855  0.2338
 5468TIP3    H138039   0.466   5.852   2.351  3.0710 -1.0495  0.3943
 5468TIP3    H238040   0.369   5.762   2.277 -0.1878  1.7736  1.0111
 5469TIP3   OH238041   3.001   6.101   1.657 -0.4149 -0.1382 -0.0750
 5469TIP3    H138042   3.080   6.088   1.710 -0.6669 -0.2356  0.2834
 5469TIP3    H238043   3.002   6.193   1.634 -0.5068 -0.0034  0.4388
 5470TIP3   OH238044   5.918   1.997   7.089 -0.1789 -0.2600  0.2776
 5470TIP3    H138045   5.979   2.056   7.045  0.0885  0.5831  1.6935
 5470TIP3    H238046   5.885   2.049   7.163  0.3164 -1.9884  1.7879
 5471TIP3   OH238047   0.238   3.441   1.018 -1.0393  0.2827 -0.0252
 5471TIP3    H138048   0.273   3.371   1.074  0.3128  0.8350 -0.1342
 5471TIP3    H238049   0.256   3.522   1.067  1.2749  0.9008 -1.6762
 5472TIP3   OH238050   1.515   5.232   1.824  0.0493  0.2072  0.0416
 5472TIP3    H138051   1.544   5.249   1.734 -0.3302 -0.5230 -0.2264
 5472TIP3    H238052   1.559   5.151   1.848 -0.0771  0.2484  0.4154
 5473TIP3   OH238053   4.288   3.805   0.275 -0.3820 -0.2255  0.0400
 5473TIP3    H138054   4.193   3.799   0.260 -0.6388  0.6941  1.1493
 5473TIP3    H238055   4.314   3.717   0.302 -1.0144 -0.3662  0.2072
 5474TIP3   OH238056   3.496   3.494   1.133 -0.2991 -0.0539 -0.0403
 5474TIP3    H138057   3.403   3.501   1.112 -0.2949  0.2997  0.0572
 5474TIP3    H238058   3.499   3.449   1.217 -0.3105 -1.6383 -0.8461
 5475TIP3   OH238059   3.314   2.946   7.173 -0.4127  0.0279 -0.4197
 5475TIP3    H138060   3.305   2.857   7.206 -0.4661  0.2315  0.1100
 5475TIP3    H238061   3.228   2.967   7.137 -0.1988 -0.3973 -1.2106
 5476TIP3   OH238062   4.269   0.720   7.231  0.3420  0.2430  0.8577
 5476TIP3    H138063   4.310   0.680   7.155  1.3314  0.9308  1.0022
 5476TIP3    H238064   4.180   0.740   7.204 -0.3154 -2.3267  0.8904
 5477TIP3   OH238065   3.872   3.124   0.979  0.0628 -0.4933 -0.1225
 5477TIP3    H138066   3.816   3.141   1.055 -0.2658  0.5041 -0.5747
 5477TIP3    H238067   3.814   3.134   0.904  0.7482  0.1722 -0.5823
 5478TIP3   OH238068   3.642   6.882   7.987 -0.1915  0.3211 -0.3848
 5478TIP3    H138069   3.585   6.950   7.954  0.4185  0.7060 -0.6665
 5478TIP3    H238070   3.583   6.811   8.012 -0.8425  0.9749 -0.0108
 5479TIP3   OH238071   2.924   5.269   7.305 -0.3618  0.0691  0.8784
 5479TIP3    H138072   2.885   5.342   7.354 -0.9631  1.1831 -1.1433
 5479TIP3    H238073   2.851   5.210   7.288 -0.7512  0.9982 -0.8870
 5480TIP3   OH238074   2.172   3.129   8.314 -0.0461  0.5899  0.0235
 5480TIP3    H138075   2.099   3.187   8.291 -0.2891  0.5119  0.5883
 5480TIP3    H238076   2.242   3.189   8.340 -0.1608  0.6420  0.2136
 5481TIP3   OH238077   2.386   4.291   0.459  0.2097 -0.0890  0.3527
 5481TIP3    H138078   2.468   4.307   0.412 -0.0681  1.1571  0.2579
 5481TIP3    H238079   2.405   4.316   0.550  0.2399 -0.8422  0.5627
 5482TIP3   OH238080   1.948   0.422   7.821  0.3536  0.5747 -0.0031
 5482TIP3    H138081   1.955   0.334   7.783 -0.0960 -0.5015  2.2265
 5482TIP3    H238082   1.888   0.468   7.763  0.5354 -0.6019 -1.1900
 5483TIP3   OH238083   5.952   4.147   1.570  0.1066 -0.2800  0.1239
 5483TIP3    H138084   5.931   4.217   1.508 -0.3649  0.2713  0.8912
 5483TIP3    H238085   6.047   4.141   1.568  0.2843  1.3789  1.0706
 5484TIP3   OH238086   6.408   1.978   1.361 -0.4475 -0.1924 -0.5151
 5484TIP3    H138087   6.348   1.936   1.422 -1.0936  1.2455 -0.1309
 5484TIP3    H238088   6.356   1.990   1.281 -0.4372  0.3775 -0.4362
 5485TIP3   OH238089   0.066   2.438   2.355 -0.1529  0.1427 -0.1278
 5485TIP3    H138090   0.135   2.410   2.294 -0.4112  0.2824 -0.4877
 5485TIP3    H238091   0.027   2.356   2.385  1.9151 -0.1293  2.1924
 5486TIP3   OH238092   2.429   1.350   6.975  0.2688  0.1048 -0.2920
 5486TIP3    H138093   2.387   1.341   6.889  3.0522  0.7166 -1.8287
 5486TIP3    H238094   2.417   1.443   6.998  2.0817  0.7099 -1.5500
 5487TIP3   OH238095   1.591   0.415   2.595  0.4675  0.0608 -0.0909
 5487TIP3    H138096   1.585   0.341   2.534  2.0225 -0.0118 -0.2097
 5487TIP3    H238097   1.675   0.456   2.573  0.3785  0.8861  1.0578
 5488TIP3   OH238098   2.665   6.664   6.809  0.1718  0.2847 -0.2611
 5488TIP3    H138099   2.647   6.746   6.763 -0.3674 -0.2949 -1.1160
 5488TIP3    H238100   2.632   6.596   6.750  0.0718 -0.5164  0.7035
 5489TIP3   OH238101   3.286   3.580   1.857  0.0502  0.6910  0.6924
 5489TIP3    H138102   3.243   3.581   1.942 -1.3656 -1.4378  0.0961
 5489TIP3    H238103   3.361   3.522   1.868  0.2358  0.9145  0.6284
 5490TIP3   OH238104   0.634   4.812   0.607 -0.2073 -0.4493  0.3399
 5490TIP3    H138105   0.650   4.727   0.565  0.2924  0.3171 -1.0698
 5490TIP3    H238106   0.720   4.841   0.637 -0.5939 -1.1464  2.3355
 5491TIP3   OH238107   3.849   3.641   0.058  0.3304  0.1076  0.1100
 5491TIP3    H138108   3.821   3.612  -0.029 -0.6599  1.4805 -0.0696
 5491TIP3    H238109   3.767   3.659   0.105  0.8593 -0.3491  1.2385
 5492TIP3   OH238110   4.774   1.088   2.443  0.2234 -0.2657  0.0534
 5492TIP3    H138111   4.860   1.103   2.484  0.3803 -3.5821  1.2032
 5492TIP3    H238112   4.783   1.124   2.355  2.1545  1.0693  0.7225
 5493TIP3   OH238113   0.902   3.278   7.514 -0.0113  0.0738 -0.1611
 5493TIP3    H138114   0.884   3.309   7.603  0.0906  0.4519 -0.2692
 5493TIP3    H238115   0.914   3.358   7.463 -1.0926 -0.1078 -0.7354
 5494TIP3   OH238116   1.047   0.552   8.389  0.2047 -0.2708 -0.0972
 5494TIP3    H138117   1.001   0.473   8.360  0.3071 -0.2132 -0.4148
 5494TIP3    H238118   1.056   0.606   8.311  1.2045 -0.4789 -0.1459
 5495TIP3   OH238119   4.232   2.651   2.031  0.4012  0.0687  0.1427
 5495TIP3    H138120   4.303   2.620   1.975  0.2885 -1.7745  0.9507
 5495TIP3    H238121   4.269   2.650   2.120 -0.5235 -0.6529  0.5387
 5496TIP3   OH238122   1.000   5.600   7.501 -0.0769  0.2630  0.0265
 5496TIP3    H138123   0.965   5.678   7.543  0.5575  0.1562  0.7827
 5496TIP3    H238124   0.928   5.566   7.449 -0.8985  0.3864  1.0576
 5497TIP3   OH238125   6.306   0.649   8.159  0.2906 -0.2625  0.0335
 5497TIP3    H138126   6.255   0.679   8.234 -0.8605 -0.8765 -0.4567
 5497TIP3    H238127   6.264   0.566   8.134  2.4425 -1.5336  0.4631
 5498TIP3   OH238128   4.610   2.698   2.022 -0.5432 -0.2551 -0.6595
 5498TIP3    H138129   4.559   2.648   1.958 -1.8395  0.7048 -0.4165
 5498TIP3    H238130   4.698   2.700   1.985 -0.7034 -1.7811 -1.2022
 5499TIP3   OH238131   6.253   5.581   0.794 -0.2842  0.5343  0.5057
 5499TIP3    H138132   6.312   5.639   0.843  1.1899  0.3746 -0.9641
 5499TIP3    H238133   6.180   5.638   0.769 -0.3023  0.9992  1.5632
 5500TIP3   OH238134   5.818   2.871   1.269  0.1387 -0.1016  0.1915
 5500TIP3    H138135   5.762   2.889   1.344 -0.6924 -1.3405 -0.1110
 5500TIP3    H238136   5.815   2.776   1.258  2.6739 -0.2902  0.4525
 5501TIP3   OH238137   2.288   4.430   6.813  0.0724  0.1860 -0.5164
 5501TIP3    H138138   2.286   4.337   6.790  1.6903 -0.1498  0.5152
 5501TIP3    H238139   2.320   4.473   6.734 -3.3021  0.2861 -1.9693
 5502TIP3   OH238140   0.493   4.848   6.269  0.6748  0.7428 -0.7636
 5502TIP3    H138141   0.578   4.857   6.312 -0.1472  0.2471  1.1140
 5502TIP3    H238142   0.467   4.757   6.287 -0.2719  0.8974 -1.2608
 5503TIP3   OH238143   4.419   5.545   2.093 -0.6755 -0.2559 -0.3236
 5503TIP3    H138144   4.484   5.503   2.037 -0.8595  0.9274 -1.4999
 5503TIP3    H238145   4.376   5.609   2.035 -0.6563  1.2575  1.2468
 5504TIP3   OH238146   1.420   2.339   7.593 -0.7506  0.8249 -0.0277
 5504TIP3    H138147   1.334   2.298   7.590  0.4059 -1.7297 -1.0427
 5504TIP3    H238148   1.402   2.432   7.580 -3.4490  0.6087  1.4158
 5505TIP3   OH238149   3.019   4.440   1.606  0.0161 -0.1700 -0.2345
 5505TIP3    H138150   3.002   4.520   1.556  1.3359 -0.3320 -1.0000
 5505TIP3    H238151   2.989   4.370   1.549  0.7068 -0.3104 -0.4343
 5506TIP3   OH238152   2.399   6.853   7.682 -0.1538  0.0794 -0.0781
 5506TIP3    H138153   2.325   6.905   7.714  0.4216  0.4096  0.7533
 5506TIP3    H238154   2.431   6.807   7.760 -0.5071 -1.3520 -0.7609
 5507TIP3   OH238155   5.444   1.330   7.447  0.1775 -0.6579 -1.0899
 5507TIP3    H138156   5.354   1.352   7.425 -0.0399 -0.5418 -0.1594
 5507TIP3    H238157   5.437   1.285   7.532  1.0752  0.2620 -0.5002
 5508TIP3   OH238158   1.102   0.349   0.065 -0.3913  0.0147  0.4223
 5508TIP3    H138159   1.172   0.334   0.001 -0.7946 -0.9795  0.2037
 5508TIP3    H238160   1.096   0.445   0.071  0.7139  0.1177  0.1492
 5509TIP3   OH238161   5.084   3.200   1.271 -0.2879  0.0347 -0.0329
 5509TIP3    H138162   5.043   3.277   1.310  0.3295 -0.2650  1.2788
 5509TIP3    H238163   5.020   3.130   1.283 -0.3338  0.0693 -0.0769
 5510TIP3   OH238164   2.688   0.226   1.613 -0.0013 -0.3173 -0.2031
 5510TIP3    H138165   2.647   0.291   1.557 -1.7399 -2.0945 -1.1128
 5510TIP3    H238166   2.633   0.222   1.690  1.3703  0.8207  0.8939
 5511TIP3   OH238167   1.566   6.924   0.914  0.0745 -0.3127 -0.1226
 5511TIP3    H138168   1.540   6.971   0.835  1.7442  1.8689  0.5503
 5511TIP3    H238169   1.660   6.938   0.921 -0.0008 -0.5805  2.1649
 5512TIP3   OH238170   0.480   3.210   1.668 -0.2686 -0.0862 -0.2306
 5512TIP3    H138171   0.474   3.184   1.760  0.7775  1.5692  0.3493
 5512TIP3    H238172   0.573   3.203   1.647 -0.0856  2.0707 -0.3385
 5513TIP3   OH238173   4.481   3.210   1.021 -0.4301  0.8993  0.4722
 5513TIP3    H138174   4.572   3.204   1.051 -0.3974  2.6227  0.7872
 5513TIP3    H238175   4.435   3.142   1.071  0.2874  1.4128  1.8812
 5514TIP3   OH238176   4.180   4.636   6.443  0.3157 -0.8266  0.0011
 5514TIP3    H138177   4.186   4.565   6.378  0.4397 -0.6957 -0.1285
 5514TIP3    H238178   4.181   4.716   6.391 -3.2122 -0.7422 -0.1756
 5515TIP3   OH238179   3.085   6.685   1.575  0.1251 -0.3134  0.0214
 5515TIP3    H138180   3.049   6.669   1.662  0.8875  0.6055  0.5231
 5515TIP3    H238181   3.015   6.659   1.515 -0.3577 -1.0762  0.9020
 5516TIP3   OH238182   2.697   2.065   7.186 -0.1521 -0.0032 -0.5132
 5516TIP3    H138183   2.702   2.110   7.271  0.2934 -1.2223  0.1391
 5516TIP3    H238184   2.784   2.078   7.147 -0.3135  0.4453 -0.7267
 5517TIP3   OH238185   0.472   3.367   1.249  0.2245 -0.0456 -0.2914
 5517TIP3    H138186   0.472   3.292   1.189  0.8876  0.0513 -0.4206
 5517TIP3    H238187   0.381   3.398   1.248 -0.2149 -1.2181  0.2307
 5518TIP3   OH238188   0.788   5.802   1.358 -0.2751  0.1223 -0.0375
 5518TIP3    H138189   0.721   5.831   1.296  0.0322 -0.8976 -0.8888
 5518TIP3    H238190   0.858   5.769   1.302  0.7257  0.6966  0.8528
 5519TIP3   OH238191   5.489   0.392   0.077  1.0138 -0.2560 -0.2236
 5519TIP3    H138192   5.463   0.481   0.056 -0.2471 -0.9283 -1.6728
 5519TIP3    H238193   5.410   0.339   0.063  2.1728 -1.8474 -1.1701
 5520TIP3   OH238194   2.566   0.725   0.926  0.8703  0.3334 -0.1378
 5520TIP3    H138195   2.631   0.656   0.915  1.5296  0.8299  0.5568
 5520TIP3    H238196   2.611   0.794   0.974 -0.3357  0.4533  0.8963
 5521TIP3   OH238197   1.417   4.228   8.459  0.6299 -0.7915 -0.1058
 5521TIP3    H138198   1.362   4.169   8.511  0.3458  0.0613  0.5792
 5521TIP3    H238199   1.507   4.198   8.475  0.3827 -2.6623 -1.8083
 5522TIP3   OH238200   6.845   1.514   6.822 -0.1591 -0.3439 -0.0769
 5522TIP3    H138201   6.821   1.557   6.740  1.6686  0.5193 -0.2085
 5522TIP3    H238202   6.847   1.421   6.800 -0.5553 -0.1994 -0.7720
 5523TIP3   OH238203   6.658   1.825   1.375 -0.6006  0.2526  0.4998
 5523TIP3    H138204   6.575   1.842   1.420 -0.1699 -0.0417  1.4247
 5523TIP3    H238205   6.632   1.787   1.291 -1.5205  3.1698 -0.6574
 5524TIP3   OH238206   5.346   3.442   0.614 -0.3089  0.0365  0.2726
 5524TIP3    H138207   5.377   3.427   0.525  1.5467  0.0536  0.8698
 5524TIP3    H238208   5.420   3.482   0.659 -0.8330 -0.8857  2.0891
 5525TIP3   OH238209   1.402   3.303   6.804  0.0893  0.3488  0.0921
 5525TIP3    H138210   1.483   3.317   6.755  1.4121 -1.5223  1.5797
 5525TIP3    H238211   1.343   3.262   6.740 -0.0655  2.5332 -1.2513
 5526TIP3   OH238212   1.492   6.735   1.659 -0.1883 -0.3625  0.3001
 5526TIP3    H138213   1.398   6.746   1.666 -0.0331  0.5650  1.0837
 5526TIP3    H238214   1.519   6.799   1.593 -0.0105 -0.0685  0.6545
 5527TIP3   OH238215   6.247   1.837   8.127  0.0205  0.3286 -0.2529
 5527TIP3    H138216   6.329   1.788   8.128  0.7059  1.3623 -1.3932
 5527TIP3    H238217   6.179   1.773   8.148  0.9504 -0.9311 -0.9748
 5528TIP3   OH238218   0.527   6.245   1.772 -0.9488 -0.1282 -0.6542
 5528TIP3    H138219   0.442   6.268   1.734 -1.2319 -3.1186 -2.1053
 5528TIP3    H238220   0.525   6.150   1.781  1.9526 -0.2215  0.0588
 5529TIP3   OH238221   5.846   3.282   0.610 -0.0911  0.0559 -0.0766
 5529TIP3    H138222   5.755   3.294   0.584 -0.3672 -0.2960  0.7028
 5529TIP3    H238223   5.893   3.354   0.568 -0.9344  1.0198  0.5900
 5530TIP3   OH238224   1.865   0.641   6.554  0.6079  0.0095 -0.0251
 5530TIP3    H138225   1.911   0.606   6.477 -2.7797  2.5519 -3.5901
 5530TIP3    H238226   1.805   0.571   6.580  2.3356 -1.1744  0.9691
 5531TIP3   OH238227   3.344   5.861   7.739 -0.0016 -0.2947 -0.0268
 5531TIP3    H138228   3.386   5.892   7.658 -1.6681  1.1495 -0.3983
 5531TIP3    H238229   3.250   5.872   7.723 -0.3614  1.0368  2.4734
 5532TIP3   OH238230   3.405   4.575   1.064 -0.2466 -0.3511 -0.3210
 5532TIP3    H138231   3.338   4.616   1.118 -0.4586  0.7994 -1.3969
 5532TIP3    H238232   3.487   4.618   1.090  0.0112 -1.3119  0.5488
 5533TIP3   OH238233   4.962   2.031   8.303 -0.4092 -0.0382 -0.2259
 5533TIP3    H138234   4.938   2.118   8.270 -0.4279 -0.2778 -0.8521
 5533TIP3    H238235   4.883   2.000   8.347 -0.0981  0.6638  0.8806
 5534TIP3   OH238236   1.454   6.495   7.962  0.6799 -0.3168  0.0289
 5534TIP3    H138237   1.456   6.580   7.918  1.5828 -0.5924 -0.4737
 5534TIP3    H238238   1.525   6.445   7.922 -0.4820 -1.6837 -0.4052
 5535TIP3   OH238239   4.119   2.655   7.688 -0.1045  0.2541 -0.4092
 5535TIP3    H138240   4.044   2.618   7.734  1.4159 -1.0140  1.1798
 5535TIP3    H238241   4.130   2.600   7.610 -0.6612  0.2921 -0.5153
 5536TIP3   OH238242   4.028   2.283   0.228 -0.1002 -0.0452 -0.8721
 5536TIP3    H138243   3.962   2.351   0.239 -0.5813 -0.4125 -1.4379
 5536TIP3    H238244   3.996   2.229   0.156  0.6915 -0.3798 -0.9918
 5537TIP3   OH238245   4.343   6.259   0.714 -0.2320  0.1465 -0.3500
 5537TIP3    H138246   4.388   6.310   0.646  0.3165 -0.2964 -0.3232
 5537TIP3    H238247   4.404   6.190   0.736 -1.4430 -1.2881 -1.2714
 5538TIP3   OH238248   2.595   3.121   1.410 -0.4198  0.0244 -0.2456
 5538TIP3    H138249   2.651   3.139   1.335 -1.8542  0.4709 -1.2660
 5538TIP3    H238250   2.580   3.027   1.408 -0.4224  0.0311 -0.5060
 5539TIP3   OH238251   6.803   5.983   1.248  0.6764 -0.4088  0.2752
 5539TIP3    H138252   6.819   6.024   1.163  1.4106  0.9881  1.0566
 5539TIP3    H238253   6.820   6.052   1.312 -1.7069 -0.8725  1.5280
 5540TIP3   OH238254   5.187   6.173   0.540  0.4865  1.0601 -0.6869
 5540TIP3    H138255   5.102   6.202   0.508  0.1177  0.2848 -0.4217
 5540TIP3    H238256   5.198   6.085   0.505 -0.1565 -0.0237  1.6333
 5541TIP3   OH238257   2.693   6.831   6.100 -0.2067  0.2771 -0.1236
 5541TIP3    H138258   2.707   6.786   6.183 -1.1100 -0.3275 -0.2952
 5541TIP3    H238259   2.772   6.813   6.050  0.3945  0.7301  0.6249
 5542TIP3   OH238260   3.683   2.241   8.167 -0.6171 -0.2463  0.1410
 5542TIP3    H138261   3.599   2.238   8.121 -1.1385  0.0777  1.0440
 5542TIP3    H238262   3.748   2.218   8.100 -1.4576 -0.9056 -0.4707
 5543TIP3   OH238263   5.627   5.600   1.275  0.3086 -0.1922  0.3402
 5543TIP3    H138264   5.561   5.532   1.292 -0.1050 -0.3623 -1.7428
 5543TIP3    H238265   5.585   5.660   1.214  0.8512  1.7228  1.7630
 5544TIP3   OH238266   2.230   0.904   6.481  0.7389  0.0536 -0.3315
 5544TIP3    H138267   2.258   0.817   6.508  1.1927 -0.5391 -2.5190
 5544TIP3    H238268   2.311   0.947   6.453  0.1201 -0.1497 -2.6588
 5545TIP3   OH238269   4.678   4.126   7.364  0.3481  0.2182 -0.4418
 5545TIP3    H138270   4.684   4.135   7.269 -1.0000  0.0188 -0.5663
 5545TIP3    H238271   4.682   4.032   7.380  0.9948  0.2724 -0.2580
 5546TIP3   OH238272   5.058   5.921   1.311  0.2980  0.1622 -0.0271
 5546TIP3    H138273   5.037   5.998   1.364 -2.1798  1.1184 -2.1698
 5546TIP3    H238274   4.982   5.864   1.321  2.1178 -2.1877  1.5821
 5547TIP3   OH238275   5.089   3.187   6.736 -0.2400  0.1791  0.1303
 5547TIP3    H138276   5.095   3.250   6.664  0.5484  1.9009  1.6261
 5547TIP3    H238277   5.007   3.208   6.780 -0.4111 -0.4639  0.1369
 5548TIP3   OH238278   3.259   1.778   1.352 -0.1826 -0.3858  0.3837
 5548TIP3    H138279   3.250   1.858   1.299 -0.6546 -1.5409 -1.3590
 5548TIP3    H238280   3.184   1.781   1.412 -0.0105  0.6336  0.5736
 5549TIP3   OH238281   5.948   1.325   7.087 -0.2352  0.2899 -0.5246
 5549TIP3    H138282   5.873   1.344   7.031 -1.1169  1.0042  0.8541
 5549TIP3    H238283   5.986   1.411   7.105  1.3086 -0.0976 -1.6738
 5550TIP3   OH238284   0.991   0.734   7.391 -0.7791 -0.0438  0.5784
 5550TIP3    H138285   0.999   0.814   7.443 -0.0852 -0.6243  1.3759
 5550TIP3    H238286   0.913   0.691   7.424 -0.5652 -0.2119  0.8669
 5551TIP3   OH238287   1.423   6.926   7.449  0.3943 -0.0523 -0.3791
 5551TIP3    H138288   1.478   6.968   7.515  0.1025 -0.3104  0.0342
 5551TIP3    H238289   1.384   6.998   7.400  0.9380  0.1363 -0.5429
 5552TIP3   OH238290   0.305   0.206   8.412  0.0523  0.0587  0.4160
 5552TIP3    H138291   0.240   0.157   8.462  1.3859 -0.6155  1.6029
 5552TIP3    H238292   0.386   0.156   8.424  1.0934  1.6140  0.2017
 5553TIP3   OH238293   5.145   0.928   7.433 -0.3506  0.7879 -0.0508
 5553TIP3    H138294   5.087   0.984   7.381 -1.0345  1.2181  1.1338
 5553TIP3    H238295   5.188   0.989   7.494  0.0482  0.2245  0.2350
 5554TIP3   OH238296   3.148   6.342   0.645  0.3182 -0.1310  0.4201
 5554TIP3    H138297   3.206   6.375   0.713  1.1800 -0.9786  0.1152
 5554TIP3    H238298   3.197   6.272   0.603 -1.0967 -1.1965  0.4588
 5555TIP3   OH238299   3.653   5.583   7.511 -0.0074 -0.2155 -0.1425
 5555TIP3    H138300   3.684   5.634   7.586  0.2013  1.2016 -1.1423
 5555TIP3    H238301   3.635   5.649   7.444 -1.7634 -1.3026 -0.8016
 5556TIP3   OH238302   2.483   2.680   1.201  0.2708  0.0783 -0.0708
 5556TIP3    H138303   2.389   2.701   1.200  0.1872 -0.2897 -0.4303
 5556TIP3    H238304   2.506   2.674   1.108  0.5278 -0.3832  0.0252
 5557TIP3   OH238305   1.230   2.477   7.852 -0.1107  0.5089 -0.2275
 5557TIP3    H138306   1.163   2.492   7.919 -1.0678 -1.2024 -0.7497
 5557TIP3    H238307   1.251   2.384   7.859  0.6667  0.5618 -1.4949
 5558TIP3   OH238308   2.064   6.026   7.573  0.4726  0.4866 -0.0407
 5558TIP3    H138309   2.116   6.105   7.555 -0.1176  0.9620  0.2705
 5558TIP3    H238310   2.059   6.023   7.669 -0.5483  0.7878 -0.0666
 5559TIP3   OH238311   5.079   3.048   0.922 -0.4860  0.1941 -0.1246
 5559TIP3    H138312   5.136   3.106   0.971 -1.2389  0.3085  0.6496
 5559TIP3    H238313   5.017   3.015   0.988 -0.3413 -1.1442 -0.6285
 5560TIP3   OH238314   0.376   2.899   0.961  0.4924 -0.0250  0.5105
 5560TIP3    H138315   0.393   2.930   0.872 -0.1327  1.9365  1.0040
 5560TIP3    H238316   0.360   2.805   0.951  0.8606  0.0628 -1.3756
 5561TIP3   OH238317   6.932   3.316   8.383  0.1400 -0.3701 -0.1175
 5561TIP3    H138318   6.865   3.300   8.449 -0.0369  0.5998 -0.0578
 5561TIP3    H238319   6.994   3.243   8.394  0.7787  0.4148  1.9615
 5562TIP3   OH238320   6.751   6.585   1.837  0.0394 -0.0475  0.3476
 5562TIP3    H138321   6.807   6.557   1.909  1.6518  0.3484 -0.6969
 5562TIP3    H238322   6.675   6.625   1.880 -0.4588 -2.4126  1.8193
 5563TIP3   OH238323   1.790   5.279   8.622  0.4322  0.1176 -0.2127
 5563TIP3    H138324   1.705   5.322   8.616  0.5440  0.3359 -0.2584
 5563TIP3    H238325   1.852   5.351   8.632  0.4591 -0.1130  1.5896
 5564TIP3   OH238326   0.512   3.674   0.466  0.0519 -0.0417 -0.1182
 5564TIP3    H138327   0.483   3.711   0.549 -0.6958  0.0157 -0.3939
 5564TIP3    H238328   0.605   3.697   0.459  0.1447 -0.1513  0.7493
 5565TIP3   OH238329   5.230   0.424   7.265  0.1338 -0.4678 -0.1096
 5565TIP3    H138330   5.299   0.361   7.284 -1.4247 -2.4991 -0.7821
 5565TIP3    H238331   5.242   0.446   7.173  1.4210  1.2875  0.4152
 5566TIP3   OH238332   4.087   3.589   1.351 -0.3563  0.4262  0.2799
 5566TIP3    H138333   4.086   3.664   1.292 -0.9657  0.3398  0.1749
 5566TIP3    H238334   4.155   3.531   1.316  0.2788  1.0319  0.4969
 5567TIP3   OH238335   5.047   6.801   1.088  0.3462  0.5080  0.0003
 5567TIP3    H138336   5.011   6.864   1.026  0.9696  1.5068  0.6319
 5567TIP3    H238337   5.052   6.849   1.171  1.0371 -0.3057  0.4406
 5568TIP3   OH238338   2.862   5.671   7.828  0.1645  0.1359 -0.2264
 5568TIP3    H138339   2.852   5.682   7.734 -2.2504  1.0152  0.0638
 5568TIP3    H238340   2.863   5.760   7.863 -1.9264 -0.1741  0.7640
 5569TIP3   OH238341   6.775   2.751   0.062  0.1956  0.0966  0.0687
 5569TIP3    H138342   6.806   2.751  -0.029  0.6321 -1.1390  0.2018
 5569TIP3    H238343   6.854   2.768   0.114  0.3461 -1.2197  0.3091
 5570TIP3   OH238344   3.436   5.011   1.498 -0.2452  0.7116 -0.5175
 5570TIP3    H138345   3.388   5.002   1.416 -0.1336 -1.1123 -0.4073
 5570TIP3    H238346   3.458   5.105   1.502  0.0975  0.7876 -2.7597
 5571TIP3   OH238347   2.794   3.998   6.961  0.3337  0.3646  1.2417
 5571TIP3    H138348   2.713   3.951   6.982 -0.4730 -0.2177 -2.5422
 5571TIP3    H238349   2.863   3.931   6.968 -0.0696 -0.0957  0.8579
 5572TIP3   OH238350   2.833   1.583   6.741  0.2403 -0.2356 -0.6812
 5572TIP3    H138351   2.823   1.489   6.729 -0.4590 -0.2730  0.0882
 5572TIP3    H238352   2.787   1.602   6.823  0.2276  0.7982 -0.9093
 5573TIP3   OH238353   4.531   6.123   6.877 -0.4370  0.2889  0.6027
 5573TIP3    H138354   4.537   6.131   6.781  0.1176 -0.2780  0.5863
 5573TIP3    H238355   4.480   6.044   6.891  0.1338 -0.0480  0.7785
 5574TIP3   OH238356   3.451   1.640   0.619  0.0910 -0.0632 -0.5421
 5574TIP3    H138357   3.403   1.722   0.608 -0.5871 -0.5928 -1.7710
 5574TIP3    H238358   3.385   1.578   0.650  0.4034 -0.3359 -0.4283
 5575TIP3   OH238359   3.152   5.746   6.896 -0.6376  0.5855  0.2749
 5575TIP3    H138360   3.234   5.746   6.945 -0.9084 -1.9178  0.9115
 5575TIP3    H238361   3.178   5.737   6.805 -0.1769  1.0459  0.3623
 5576TIP3   OH238362   0.690   0.121   7.318 -0.0731  0.3900  0.3795
 5576TIP3    H138363   0.601   0.125   7.354 -0.0826  1.6932  0.2634
 5576TIP3    H238364   0.718   0.032   7.334 -0.6307  0.5183  2.3224
 5577TIP3   OH238365   1.224   0.914   0.364  0.7359 -0.4312  0.0621
 5577TIP3    H138366   1.267   0.912   0.279  2.0840 -0.5961  0.7188
 5577TIP3    H238367   1.159   0.984   0.357  1.0804 -0.2010 -0.9684
 5578TIP3   OH238368   4.927   5.877   8.495  0.4217 -0.2302  0.2775
 5578TIP3    H138369   4.835   5.853   8.487  0.6730 -1.2396  0.3014
 5578TIP3    H238370   4.925   5.968   8.525 -0.6075 -0.8668  2.3207
 5579TIP3   OH238371   1.197   2.856   0.002 -0.4210 -0.4417 -0.3412
 5579TIP3    H138372   1.234   2.904   0.076  0.6169 -0.2350 -0.9727
 5579TIP3    H238373   1.103   2.870   0.009 -0.3451 -0.4774  0.9678
 5580TIP3   OH238374   2.753   6.723   7.219  0.1169 -0.1180  0.5257
 5580TIP3    H138375   2.813   6.650   7.204  0.3548  0.4048 -1.2976
 5580TIP3    H238376   2.702   6.696   7.296  0.0431 -2.2971 -0.2030
 5581TIP3   OH238377   3.424   0.946   7.868  0.5394 -0.6060  0.3550
 5581TIP3    H138378   3.444   1.032   7.906 -0.0145 -0.6711  0.8211
 5581TIP3    H238379   3.491   0.888   7.903  0.9120 -0.3623  0.0431
 5582TIP3   OH238380   2.245   4.232   1.624  0.0460  0.1212  0.9001
 5582TIP3    H138381   2.268   4.309   1.572  1.3175 -0.1262  1.0632
 5582TIP3    H238382   2.274   4.254   1.713 -0.0224 -0.3436  1.0417
 5583TIP3   OH238383   2.191   2.474   7.562 -0.4979 -0.1696 -0.0614
 5583TIP3    H138384   2.152   2.546   7.513  0.6198  0.6806  0.2552
 5583TIP3    H238385   2.118   2.436   7.611 -1.1580  0.5567 -0.4576
 5584TIP3   OH238386   6.751   3.376   0.860 -1.0125 -0.8267 -0.0874
 5584TIP3    H138387   6.791   3.321   0.927  1.3630  0.2369 -0.5331
 5584TIP3    H238388   6.686   3.428   0.907  2.0361  1.4537  2.0079
 5585TIP3   OH238389   4.417   5.328   0.383 -0.0150 -0.2889  0.4620
 5585TIP3    H138390   4.356   5.373   0.441  0.1834  1.7433 -0.8475
 5585TIP3    H238391   4.373   5.326   0.298  0.0009 -2.5988  0.4431
 5586TIP3   OH238392   3.988   6.441   2.503 -0.6606 -0.4129  0.5919
 5586TIP3    H138393   3.901   6.478   2.487 -1.3258 -1.8231  0.7607
 5586TIP3    H238394   4.047   6.516   2.499 -1.7748  0.4638 -0.3761
 5587TIP3   OH238395   5.124   4.775   1.172  0.1769  0.3957 -0.2480
 5587TIP3    H138396   5.152   4.819   1.092  2.8809  0.6116  0.7032
 5587TIP3    H238397   5.101   4.686   1.143  0.8340  0.5520 -1.3282
 5588TIP3   OH238398   2.036   2.301   7.729 -0.1100  0.7470  0.3302
 5588TIP3    H138399   1.950   2.266   7.750 -0.6087  1.4986 -0.4072
 5588TIP3    H238400   2.097   2.244   7.777 -1.0170  0.3876  1.0918
 5589TIP3   OH238401   2.471   6.696   7.065  0.5321 -0.2596 -0.2636
 5589TIP3    H138402   2.486   6.686   7.159  1.2532  1.8190 -0.0925
 5589TIP3    H238403   2.559   6.691   7.026  0.2877 -0.6554 -0.7753
 5590TIP3   OH238404   0.452   3.619   2.514 -0.2262  0.2914 -0.1073
 5590TIP3    H138405   0.364   3.579   2.516 -0.4799  0.8111 -0.6070
 5590TIP3    H238406   0.494   3.588   2.594 -1.1300  0.6111  0.5100
 5591TIP3   OH238407   2.916   0.350   0.419  0.2833  0.7587  0.7796
 5591TIP3    H138408   2.897   0.265   0.457  2.1112  0.3185  0.8072
 5591TIP3    H238409   2.980   0.389   0.478 -0.1706  1.9595  0.5111
 5592TIP3   OH238410   2.818   1.095   6.895  0.0248 -0.8303  0.4183
 5592TIP3    H138411   2.905   1.059   6.878  0.5065  0.0034  1.0476
 5592TIP3    H238412   2.759   1.019   6.890  0.3798 -1.0311 -2.6614
 5593TIP3   OH238413   2.398   0.951   1.534  0.8415 -0.7354  0.4429
 5593TIP3    H138414   2.329   0.979   1.595  0.9701 -1.5692  0.9813
 5593TIP3    H238415   2.458   0.900   1.587  0.7175 -1.8683 -0.4628
 5594TIP3   OH238416   1.174   4.451   7.139 -0.5216 -0.4316 -0.2469
 5594TIP3    H138417   1.182   4.450   7.234 -0.2595 -0.5946 -0.2701
 5594TIP3    H238418   1.080   4.458   7.123 -0.4691  1.2047  0.0298
 5595TIP3   OH238419   1.037   2.038   2.433 -0.5188  0.0692 -0.0137
 5595TIP3    H138420   1.058   1.989   2.513  1.4570  0.4147 -0.2613
 5595TIP3    H238421   1.117   2.034   2.381 -0.5663  2.8002 -0.4482
 5596TIP3   OH238422   1.226   0.305   6.446 -0.0437 -0.3713 -0.0447
 5596TIP3    H138423   1.151   0.304   6.507  0.1910  0.9216  0.2914
 5596TIP3    H238424   1.257   0.215   6.445 -0.6427 -0.6063  1.0262
 5597TIP3   OH238425   5.895   1.299   0.560  0.3957  0.3654  0.2176
 5597TIP3    H138426   5.972   1.313   0.615  0.9754  0.2284 -0.5401
 5597TIP3    H238427   5.882   1.205   0.559 -0.1915  0.4337  0.8818
 5598TIP3   OH238428   5.141   0.343   0.279  0.1159  0.1806 -0.5893
 5598TIP3    H138429   5.112   0.431   0.256  1.3981  1.1736  1.3967
 5598TIP3    H238430   5.080   0.314   0.347  0.4518  0.0090 -0.3640
 5599TIP3   OH238431   2.132   5.119   2.506 -0.1106  0.2591 -0.7283
 5599TIP3    H138432   2.186   5.042   2.519  0.5870  0.5950 -1.5535
 5599TIP3    H238433   2.042   5.086   2.504  0.0523 -0.3009  0.6566
 5600TIP3   OH238434   6.066   0.625   7.478 -0.4529 -0.2513 -0.1861
 5600TIP3    H138435   6.081   0.585   7.564 -0.8626 -1.7706 -0.7986
 5600TIP3    H238436   5.973   0.615   7.462 -0.1492 -1.3602 -1.4457
 5601TIP3   OH238437   5.658   0.791   6.864  0.1093 -0.3287  0.4981
 5601TIP3    H138438   5.663   0.860   6.797 -1.5620  0.3900  1.0705
 5601TIP3    H238439   5.737   0.738   6.849  1.9911  2.2378  0.6414
 5602TIP3   OH238440   0.575   6.513   0.671  0.0563  0.1047  0.5000
 5602TIP3    H138441   0.636   6.570   0.717  0.8648 -0.9086  0.7134
 5602TIP3    H238442   0.531   6.464   0.740  0.4870 -0.6370  0.2589
 5603TIP3   OH238443   2.613   0.686   0.133 -0.6224  0.2331  0.3388
 5603TIP3    H138444   2.669   0.751   0.090 -1.1319  0.2152 -0.3684
 5603TIP3    H238445   2.673   0.617   0.160 -0.3460  0.0093 -0.8047
 5604TIP3   OH238446   0.225   2.129   2.467  0.5442 -0.7027  0.4311
 5604TIP3    H138447   0.302   2.139   2.411  1.4097 -1.3119  1.4782
 5604TIP3    H238448   0.164   2.077   2.414  1.4243 -1.4379  0.1145
 5605TIP3   OH238449   2.849   4.289   7.875  0.2054 -0.6796  0.1344
 5605TIP3    H138450   2.754   4.293   7.860 -0.0135  1.8108  1.6707
 5605TIP3    H238451   2.871   4.373   7.914  2.9526 -1.5115  0.6066
 5606TIP3   OH238452   0.971   3.249   0.192  0.5022  0.0082  0.3870
 5606TIP3    H138453   0.896   3.260   0.250  0.0921  0.1019 -0.1498
 5606TIP3    H238454   1.028   3.323   0.212 -0.0154  0.4891  0.1124
 5607TIP3   OH238455   2.137   3.897   8.199 -0.9561  0.6322 -0.3146
 5607TIP3    H138456   2.139   3.989   8.175  1.0681  1.0928  1.3179
 5607TIP3    H238457   2.132   3.851   8.116  0.5627  2.1983 -1.3345
 5608TIP3   OH238458   6.814   4.712   0.898  0.1451  0.1621 -0.6629
 5608TIP3    H138459   6.875   4.658   0.948 -0.3621 -0.3132 -0.5441
 5608TIP3    H238460   6.735   4.715   0.952 -0.0725  0.4527 -0.9910
 5609TIP3   OH238461   2.807   0.008   2.747  0.3230 -0.3864 -0.1488
 5609TIP3    H138462   2.840   0.074   2.808  0.8105 -0.2471 -0.5559
 5609TIP3    H238463   2.828   0.043   2.660 -0.5850 -0.4670 -0.4080
 5610TIP3   OH238464   5.112   4.450   8.472 -0.4472 -0.3762  0.1777
 5610TIP3    H138465   5.170   4.503   8.417 -0.8708 -0.1983 -0.1011
 5610TIP3    H238466   5.077   4.384   8.413 -2.1316  0.7589 -0.1822
 5611TIP3   OH238467   1.796   0.372   1.554 -1.0831 -0.1922 -0.6631
 5611TIP3    H138468   1.725   0.360   1.618  0.1874 -0.3142  0.7801
 5611TIP3    H238469   1.841   0.288   1.552  0.8384  0.7276  0.7727
 5612TIP3   OH238470   4.098   4.398   0.626  0.8099 -0.9447 -0.2791
 5612TIP3    H138471   4.156   4.462   0.584  1.4534 -1.2540  0.1178
 5612TIP3    H238472   4.010   4.423   0.599  1.0294  0.2820  0.0857
 5613TIP3   OH238473   5.409   6.744   0.805  0.0335  0.2971 -0.0087
 5613TIP3    H138474   5.490   6.754   0.754 -0.5916  1.1611 -0.8611
 5613TIP3    H238475   5.339   6.746   0.740 -0.6172 -3.4262  0.3371
 5614TIP3   OH238476   5.636   2.051   7.008  0.4364 -0.1695 -0.0482
 5614TIP3    H138477   5.731   2.052   7.015  0.4574  0.3230 -0.3392
 5614TIP3    H238478   5.611   1.960   7.027  0.6165  0.4885  4.2329
 5615TIP3   OH238479   2.123   2.855   0.155 -0.1249 -0.7078  0.3839
 5615TIP3    H138480   2.032   2.827   0.149 -0.3398 -0.0218  0.4014
 5615TIP3    H238481   2.147   2.879   0.065 -0.2385 -0.0443  0.5261
 5616TIP3   OH238482   1.840   6.735   6.348 -0.2589 -0.4149 -0.1927
 5616TIP3    H138483   1.843   6.773   6.260  0.8088  0.3522  0.1466
 5616TIP3    H238484   1.799   6.803   6.401  2.8400  0.9638  0.6851
 5617TIP3   OH238485   5.350   3.251   7.335 -0.3806 -0.4067 -0.3128
 5617TIP3    H138486   5.419   3.193   7.367  1.9858  2.6439  0.5769
 5617TIP3    H238487   5.342   3.230   7.242  0.9531 -1.6114 -0.1931
 5618TIP3   OH238488   6.372   2.544   1.497 -0.3678  0.0507  0.4042
 5618TIP3    H138489   6.445   2.574   1.443  1.0929  0.0198  2.2810
 5618TIP3    H238490   6.350   2.619   1.552 -1.4448 -0.0965  0.1964
 5619TIP3   OH238491   2.825   5.835   8.128  0.0063  0.4466  0.6972
 5619TIP3    H138492   2.845   5.751   8.168 -0.6853 -0.3178 -0.4910
 5619TIP3    H238493   2.910   5.869   8.099  0.0359 -1.4988 -1.8992
 5620TIP3   OH238494   0.897   3.781   8.526 -0.1125 -0.4191 -0.2545
 5620TIP3    H138495   0.910   3.832   8.606  2.7419 -0.0262 -0.8483
 5620TIP3    H238496   0.875   3.846   8.459 -0.0121 -0.4142 -0.2839
 5621TIP3   OH238497   2.320   3.675   1.291 -0.2769 -0.2509 -0.4533
 5621TIP3    H138498   2.355   3.763   1.280 -1.0652 -0.0023 -1.0871
 5621TIP3    H238499   2.253   3.667   1.223 -0.4457 -1.2178 -0.1896
 5622TIP3   OH238500   5.120   2.990   6.925  0.6967  1.0247 -0.0916
 5622TIP3    H138501   5.215   2.981   6.935  0.7899  0.0545 -1.6204
 5622TIP3    H238502   5.109   3.058   6.858  0.3131  0.9360 -0.1208
 5623TIP3   OH238503   6.333   2.304   7.233  0.5197  0.4676  0.1097
 5623TIP3    H138504   6.332   2.291   7.328 -1.0901  1.1492  0.2239
 5623TIP3    H238505   6.330   2.215   7.197 -0.3406  0.2199  0.7368
 5624TIP3   OH238506   6.226   6.026   0.326  1.0069 -0.2404  0.4250
 5624TIP3    H138507   6.224   6.110   0.281  0.0806 -0.9049 -0.8422
 5624TIP3    H238508   6.140   6.021   0.370  0.6996 -0.8863 -0.2301
 5625TIP3   OH238509   6.533   2.918   0.891  0.4200 -0.2107 -0.2740
 5625TIP3    H138510   6.524   2.865   0.971  0.9284 -2.2944 -1.5150
 5625TIP3    H238511   6.620   2.896   0.858 -0.3267 -0.5280 -2.1526
 5626TIP3   OH238512   3.185   0.427   0.834 -0.1923  0.0855 -0.4367
 5626TIP3    H138513   3.149   0.358   0.890  2.3124 -1.8000 -0.9567
 5626TIP3    H238514   3.198   0.501   0.893 -1.7497 -0.2999  0.4429
 5627TIP3   OH238515   6.405   3.571   6.710  0.0316 -0.0041 -0.0659
 5627TIP3    H138516   6.397   3.511   6.785  2.1384 -0.1740  0.0783
 5627TIP3    H238517   6.421   3.513   6.636 -1.3974  0.2089 -0.5652
 5628TIP3   OH238518   3.923   5.435   7.703  0.2884  0.3165  0.7766
 5628TIP3    H138519   3.866   5.371   7.746  0.0311 -1.0118 -1.4024
 5628TIP3    H238520   3.987   5.382   7.656 -0.5787  1.5504 -1.9912
 5629TIP3   OH238521   1.654   0.946   1.655 -0.6894 -0.0324 -0.1855
 5629TIP3    H138522   1.641   1.037   1.680  0.1479  0.0197  0.0913
 5629TIP3    H238523   1.726   0.916   1.711 -1.6251 -1.1697  0.4518
 5630TIP3   OH238524   0.079   1.536   0.977  0.0989 -0.7248 -0.5186
 5630TIP3    H138525   0.104   1.484   0.900 -2.7115 -0.0224 -2.0533
 5630TIP3    H238526   0.085   1.627   0.947  0.4334 -0.3467  0.6283
 5631TIP3   OH238527   4.242   6.199   7.000 -0.0469  0.1134  0.8419
 5631TIP3    H138528   4.314   6.161   7.050  0.8149  0.2007 -0.2897
 5631TIP3    H238529   4.205   6.124   6.953  2.2946  0.6670 -2.1843
 5632TIP3   OH238530   4.980   6.606   2.024  0.3399 -0.1792 -0.1269
 5632TIP3    H138531   5.060   6.619   1.973  0.2151 -0.5074 -0.4135
 5632TIP3    H238532   4.949   6.519   1.999  0.0009 -0.1386  0.1322
 5633TIP3   OH238533   2.736   6.070   6.453 -0.2805  0.1069 -0.2887
 5633TIP3    H138534   2.707   6.161   6.461  0.5692  0.2454  1.5936
 5633TIP3    H238535   2.827   6.076   6.425 -0.2822 -0.1673 -0.3538
 5634TIP3   OH238536   4.277   3.387   0.878  0.5053 -0.3230  0.2672
 5634TIP3    H138537   4.259   3.337   0.799 -0.0367 -0.5680  0.5423
 5634TIP3    H238538   4.195   3.387   0.927  1.2544 -1.5800  1.6185
 5635TIP3   OH238539   5.916   2.874   1.557  0.9814  0.2831  0.1915
 5635TIP3    H138540   5.823   2.876   1.578  1.0729 -0.1895  0.6541
 5635TIP3    H238541   5.938   2.781   1.553  2.0410  0.3277  2.9096
 5636TIP3   OH238542   2.311   6.323   2.181  0.0334  0.2008 -0.2834
 5636TIP3    H138543   2.253   6.248   2.196 -0.4034  0.0076 -2.6503
 5636TIP3    H238544   2.399   6.285   2.185  0.1561  0.5036  3.3475
 5637TIP3   OH238545   3.935   1.457   8.206 -0.1602  0.2797 -0.5657
 5637TIP3    H138546   3.916   1.371   8.241 -0.2274  0.7370  0.5657
 5637TIP3    H238547   4.029   1.469   8.222  0.1478 -0.1084 -1.9409
 5638TIP3   OH238548   5.171   2.880   0.748 -0.1940 -0.0215  0.2568
 5638TIP3    H138549   5.146   2.935   0.822  0.5718  0.1257  0.4119
 5638TIP3    H238550   5.267   2.886   0.745 -0.0250 -2.0348  0.7953
 5639TIP3   OH238551   5.735   2.884   7.889 -0.3280 -0.1753  0.1533
 5639TIP3    H138552   5.777   2.822   7.949 -0.9639 -0.0102  0.7905
 5639TIP3    H238553   5.743   2.969   7.933 -1.2198 -0.1244  0.2480
 5640TIP3   OH238554   5.387   2.908   2.570 -0.2826  0.2850  0.4548
 5640TIP3    H138555   5.337   2.888   2.491 -0.1891  1.1315  0.1643
 5640TIP3    H238556   5.330   2.882   2.642 -0.6763  0.1894  0.1139
 5641TIP3   OH238557   5.496   1.598   1.346  1.1724 -0.5349  0.2770
 5641TIP3    H138558   5.523   1.664   1.282 -1.3216  0.4703  0.1398
 5641TIP3    H238559   5.469   1.648   1.423 -1.7413 -1.2061 -0.1982
 5642TIP3   OH238560   0.446   6.132   7.657  0.2194 -0.0674 -0.5139
 5642TIP3    H138561   0.398   6.051   7.674 -0.1151  0.2955  0.3757
 5642TIP3    H238562   0.506   6.139   7.731  1.9425 -0.7045 -1.7999
 5643TIP3   OH238563   4.268   5.631   7.517 -0.4338  0.6120 -0.0722
 5643TIP3    H138564   4.303   5.719   7.502  1.5799  0.0350  0.9098
 5643TIP3    H238565   4.284   5.614   7.610 -0.8886 -0.7612 -0.2233
 5644TIP3   OH238566   3.179   4.508   6.398  0.0502  0.0301  0.4610
 5644TIP3    H138567   3.255   4.505   6.339 -0.9581  0.1521 -0.8851
 5644TIP3    H238568   3.212   4.552   6.477  1.2826  0.3848 -0.2234
 5645TIP3   OH238569   5.393   3.252   8.323  0.4546  0.4589 -0.5844
 5645TIP3    H138570   5.483   3.245   8.291  0.5534  1.4364 -0.5739
 5645TIP3    H238571   5.384   3.182   8.387  0.3551 -1.3469 -2.4988
 5646TIP3   OH238572   2.392   0.993   7.354  0.2648 -0.9894  0.1492
 5646TIP3    H138573   2.432   0.955   7.275  0.0031  0.3376 -0.6451
 5646TIP3    H238574   2.301   1.007   7.330  0.3896  0.2518  0.3651
 5647TIP3   OH238575   6.766   0.121   7.186 -0.3871 -0.4312 -0.4755
 5647TIP3    H138576   6.764   0.170   7.268  1.2159 -1.7408  0.3863
 5647TIP3    H238577   6.717   0.041   7.204  0.4031 -0.9596 -0.6249
 5648TIP3   OH238578   2.467   5.675   1.144  0.7196  0.2365 -0.2453
 5648TIP3    H138579   2.383   5.685   1.099  0.0917 -0.7975  0.6534
 5648TIP3    H238580   2.490   5.764   1.172 -1.1765  0.2939  1.3885
 5649TIP3   OH238581   6.557   0.560   1.402  0.1073  0.5612 -0.6527
 5649TIP3    H138582   6.649   0.560   1.374  1.0404 -2.0106  1.9551
 5649TIP3    H238583   6.558   0.516   1.487 -3.2829  2.5578  0.5721
 5650TIP3   OH238584   3.716   4.110   2.869  1.2111  0.9574 -0.5006
 5650TIP3    H138585   3.668   4.185   2.905  0.0472  0.1007 -0.2064
 5650TIP3    H238586   3.731   4.053   2.945  1.8896  0.7788 -0.7624
 5651TIP3   OH238587   5.795   6.317   1.724 -0.2360 -0.0415  0.4131
 5651TIP3    H138588   5.850   6.374   1.671  0.5977 -0.6615  0.5897
 5651TIP3    H238589   5.803   6.231   1.682 -2.2068  0.1266 -0.4051
 5652TIP3   OH238590   1.123   3.885   1.200  0.2680 -0.1785  0.8145
 5652TIP3    H138591   1.040   3.841   1.218 -0.2100  0.5312  0.4061
 5652TIP3    H238592   1.189   3.817   1.211 -0.4153 -0.8898  0.6163
 5653TIP3   OH238593   4.637   0.333   8.554 -0.0727 -0.1029 -0.1803
 5653TIP3    H138594   4.585   0.392   8.500 -2.1133 -1.4550  0.1967
 5653TIP3    H238595   4.664   0.386   8.629  0.7632  1.1429 -1.3138
 5654TIP3   OH238596   6.807   4.378   0.737 -0.3956  0.4782  0.3590
 5654TIP3    H138597   6.716   4.396   0.762  0.1755  1.8691  1.6614
 5654TIP3    H238598   6.858   4.406   0.813  1.1048 -0.7036 -0.1658
 5655TIP3   OH238599   3.850   1.579   1.821 -0.2205  0.3935 -0.2214
 5655TIP3    H138600   3.925   1.540   1.866 -2.2040 -3.6663  0.0465
 5655TIP3    H238601   3.811   1.638   1.887  1.2807  0.5964  0.5220
 5656TIP3   OH238602   2.751   3.691   1.677 -0.1922  0.2123  0.1662
 5656TIP3    H138603   2.840   3.724   1.688 -0.1138  0.4781 -1.0907
 5656TIP3    H238604   2.761   3.610   1.626 -0.7339  0.8847 -1.0574
 5657TIP3   OH238605   0.492   1.318   0.772 -0.1865  0.0926 -0.1752
 5657TIP3    H138606   0.541   1.324   0.854  1.1780 -0.3178 -0.9278
 5657TIP3    H238607   0.555   1.342   0.705 -1.6558  1.7617 -1.0251
 5658TIP3   OH238608   0.461   1.874   0.405 -0.7049 -0.8048  0.4516
 5658TIP3    H138609   0.435   1.941   0.342 -0.5393 -0.5354  0.6693
 5658TIP3    H238610   0.456   1.792   0.355 -0.1573 -0.5473 -0.0453
 5659TIP3   OH238611   2.523   3.645   0.678 -0.2284 -0.1657  0.3230
 5659TIP3    H138612   2.514   3.601   0.594  1.0684  0.3867 -0.1367
 5659TIP3    H238613   2.452   3.709   0.679 -0.2511 -0.1736 -0.3498
 5660TIP3   OH238614   3.584   3.915   0.035  0.0668 -0.2603 -0.0413
 5660TIP3    H138615   3.552   3.830   0.005 -1.2158  0.0574  0.3741
 5660TIP3    H238616   3.600   3.902   0.129  1.4506 -0.4897 -0.2920
 5661TIP3   OH238617   4.883   6.416   7.924  0.2398  0.5855  0.0678
 5661TIP3    H138618   4.842   6.502   7.931 -1.6142 -0.0932 -1.6952
 5661TIP3    H238619   4.847   6.378   7.844  1.0453 -1.8277  0.7688
 5662TIP3   OH238620   6.738   6.027   6.668  0.1328 -0.4083 -0.0043
 5662TIP3    H138621   6.652   6.006   6.703  0.7153 -1.6350  0.7730
 5662TIP3    H238622   6.795   5.957   6.701  1.2981  0.0273 -1.0123
 5663TIP3   OH238623   1.119   6.513   7.024 -0.0077 -0.4225 -0.3321
 5663TIP3    H138624   1.072   6.566   6.959 -1.5518 -0.9641  0.3249
 5663TIP3    H238625   1.089   6.546   7.109  1.9248  0.2177  0.1659
 5664TIP3   OH238626   4.152   3.196   8.197  0.9880 -0.8107 -0.5024
 5664TIP3    H138627   4.207   3.251   8.142 -0.0132 -0.3403 -1.0774
 5664TIP3    H238628   4.125   3.254   8.269  1.4202 -1.0992 -0.1097
 5665TIP3   OH238629   5.154   5.081   0.675  0.6615  0.3158  0.1010
 5665TIP3    H138630   5.241   5.048   0.650  1.0015  1.3762 -0.1916
 5665TIP3    H238631   5.107   5.088   0.592  0.9636  1.5301  0.0016
 5666TIP3   OH238632   4.148   0.509   1.177  0.4463 -0.0451  0.0386
 5666TIP3    H138633   4.151   0.418   1.208 -1.3300  0.4678  2.0050
 5666TIP3    H238634   4.067   0.514   1.126  0.6416  0.3758 -0.2296
 5667TIP3   OH238635   0.772   3.929   6.539  0.3200  0.0008 -0.3317
 5667TIP3    H138636   0.790   3.945   6.632 -1.3648 -2.3137  0.4668
 5667TIP3    H238637   0.822   3.850   6.518 -1.9159 -1.4993 -0.3791
 5668TIP3   OH238638   0.467   2.195   7.523  0.3905 -0.0795  0.4917
 5668TIP3    H138639   0.429   2.258   7.461 -0.3004  0.6897  1.6692
 5668TIP3    H238640   0.555   2.180   7.489 -0.1689 -0.1595 -1.0267
 5669TIP3   OH238641   5.141   4.656   6.649  0.2563 -0.7196  0.1169
 5669TIP3    H138642   5.115   4.695   6.565  0.5419 -0.0551  0.3296
 5669TIP3    H238643   5.235   4.675   6.656 -0.3091  2.0554  2.0165
 5670TIP3   OH238644   0.279   0.610   7.783  0.3299  0.2993 -0.0384
 5670TIP3    H138645   0.359   0.560   7.769  0.5426  0.7115 -0.3415
 5670TIP3    H238646   0.213   0.565   7.730 -0.1635 -1.2551  1.7991
 5671TIP3   OH238647   2.637   0.015   7.021 -0.3439 -0.3373 -0.1275
 5671TIP3    H138648   2.696  -0.053   7.053  0.3900  0.2105 -0.3001
 5671TIP3    H238649   2.568   0.020   7.088 -0.3102 -1.1091 -0.0211
 5672TIP3   OH238650   1.615   6.277   7.729 -0.1979 -0.5689 -0.4818
 5672TIP3    H138651   1.701   6.268   7.770 -0.0051 -0.0955 -0.7673
 5672TIP3    H238652   1.633   6.319   7.644 -0.5787 -1.5941 -1.0872
 5673TIP3   OH238653   5.529   6.203   1.503 -0.0186 -0.1612  0.0189
 5673TIP3    H138654   5.516   6.178   1.594  0.7855 -2.3997 -0.4137
 5673TIP3    H238655   5.611   6.253   1.503  0.5214 -1.0243  0.4089
 5674TIP3   OH238656   2.401   0.528   1.050  0.2616 -0.1156  0.7600
 5674TIP3    H138657   2.439   0.608   1.013 -0.0548  0.9119  2.5268
 5674TIP3    H238658   2.454   0.511   1.128 -1.6839  0.3129  2.2498
 5675TIP3   OH238659   5.932   1.944   1.621 -0.5979 -0.0159 -0.2217
 5675TIP3    H138660   5.896   2.027   1.653  1.0031  1.1336 -1.2329
 5675TIP3    H238661   5.980   1.908   1.696  2.6130  2.3521 -0.9385
 5676TIP3   OH238662   2.768   4.156   0.185  0.6663 -0.3661 -0.0865
 5676TIP3    H138663   2.853   4.124   0.212  1.1989  1.5843  0.7450
 5676TIP3    H238664   2.785   4.207   0.106 -0.0682 -1.5861 -1.0739
 5677TIP3   OH238665   1.279   5.251   6.786  1.0439 -0.5935 -0.2426
 5677TIP3    H138666   1.267   5.284   6.697 -0.3841 -0.1147  0.0954
 5677TIP3    H238667   1.373   5.256   6.801  1.0806  1.6566 -0.8673
 5678TIP3   OH238668   1.209   4.939   0.002  0.3585  0.4210  0.0219
 5678TIP3    H138669   1.228   4.939   0.096  0.5549 -1.0154  0.0120
 5678TIP3    H238670   1.155   4.861  -0.011  0.5474  0.4654 -1.0937
 5679TIP3   OH238671   1.836   5.703   8.189 -0.0727  0.1891  0.1073
 5679TIP3    H138672   1.877   5.751   8.117 -2.3810  0.0818 -1.4131
 5679TIP3    H238673   1.850   5.611   8.168 -0.7292  0.1579 -0.2224
 5680TIP3   OH238674   0.846   3.418   7.060  0.2462 -0.4880 -0.2327
 5680TIP3    H138675   0.791   3.342   7.042 -0.4921  0.3624 -1.7800
 5680TIP3    H238676   0.930   3.397   7.018 -0.5669  0.2938 -2.3816
 5681TIP3   OH238677   2.664   5.528   0.236  0.1558 -0.2070  0.8257
 5681TIP3    H138678   2.755   5.501   0.224 -0.2600 -0.6700 -1.7627
 5681TIP3    H238679   2.641   5.574   0.156 -1.1756  2.2346  2.4720
 5682TIP3   OH238680   5.542   2.852   0.991  0.1650  0.2547 -0.1311
 5682TIP3    H138681   5.601   2.922   1.019  0.1191 -0.9615  3.4440
 5682TIP3    H238682   5.599   2.779   0.971  0.0466 -0.4797  1.9749
 5683TIP3   OH238683   0.804   3.058   1.626  0.3122  0.5999 -0.1990
 5683TIP3    H138684   0.884   3.021   1.663 -0.3879 -0.0280  0.6879
 5683TIP3    H238685   0.734   3.027   1.682 -0.3435  3.1946  0.5762
 5684TIP3   OH238686   1.457   4.833   1.072 -0.2173 -0.2506  0.0559
 5684TIP3    H138687   1.502   4.905   1.116 -1.6266  0.4326  0.4555
 5684TIP3    H238688   1.526   4.771   1.050  0.8768  0.6712  0.7740
 5685TIP3   OH238689   4.941   4.208   0.076  0.4767 -0.0447  0.1532
 5685TIP3    H138690   4.930   4.146   0.004  0.0371 -1.3061  1.2630
 5685TIP3    H238691   5.033   4.201   0.100  0.3330 -0.6731  0.5821
 5686TIP3   OH238692   3.543   5.381   8.546  0.3436  0.4731  0.4731
 5686TIP3    H138693   3.527   5.414   8.457  0.0106  1.7365  0.9782
 5686TIP3    H238694   3.534   5.286   8.538 -2.0054  0.6846 -0.4192
 5687TIP3   OH238695   2.162   0.759   0.163 -0.5064 -0.1719 -0.4694
 5687TIP3    H138696   2.234   0.821   0.158 -1.0525  0.5164 -0.0124
 5687TIP3    H238697   2.101   0.787   0.095 -0.5472 -0.4894 -0.5669
 5688TIP3   OH238698   4.267   1.532   8.370  0.3356  0.4235  0.0506
 5688TIP3    H138699   4.362   1.522   8.367  0.6395  2.7315  0.5784
 5688TIP3    H238700   4.239   1.518   8.279  1.3365  0.9398 -0.3500
 5689TIP3   OH238701   1.606   1.168   6.653  0.4296 -0.0639  0.0272
 5689TIP3    H138702   1.694   1.140   6.629  1.0212 -0.0938  2.0968
 5689TIP3    H238703   1.604   1.262   6.633  0.5156 -0.2771 -1.0708
 5690TIP3   OH238704   3.197   6.889   6.779 -0.2329  0.3612  0.1649
 5690TIP3    H138705   3.142   6.849   6.711 -1.2594  1.4711  0.3205
 5690TIP3    H238706   3.262   6.822   6.799 -0.9551 -0.6315 -0.6972
 5691TIP3   OH238707   4.338   1.581   7.868  0.6504 -0.4904  0.3470
 5691TIP3    H138708   4.356   1.496   7.829 -1.1287 -1.3061  1.2237
 5691TIP3    H238709   4.308   1.635   7.795 -0.0679 -1.1897  0.1162
 5692TIP3   OH238710   6.318   2.515   2.225 -0.2380 -0.5082  0.0145
 5692TIP3    H138711   6.411   2.532   2.240 -0.0384 -1.2335 -0.3921
 5692TIP3    H238712   6.274   2.553   2.301  0.3242  0.4906 -0.1434
 5693TIP3   OH238713   2.329   6.537   1.273  0.0922  1.1646 -0.2638
 5693TIP3    H138714   2.361   6.519   1.185  1.7841 -1.7950  0.7932
 5693TIP3    H238715   2.389   6.604   1.307  0.8807  0.6685 -0.6346
 5694TIP3   OH238716   3.052   3.783   7.727 -0.0798 -0.2317 -0.3157
 5694TIP3    H138717   2.990   3.790   7.654  0.7955 -0.0729 -1.0775
 5694TIP3    H238718   3.033   3.858   7.783 -1.4576 -0.9358  0.1902
 5695TIP3   OH238719   2.372   1.722   8.339  0.1867 -0.1923  0.0060
 5695TIP3    H138720   2.455   1.706   8.384 -0.3522 -2.1483  0.3999
 5695TIP3    H238721   2.336   1.800   8.380  2.0169  0.9624 -0.4815
 5696TIP3   OH238722   5.867   5.080   8.464 -0.2201 -0.0594  0.6209
 5696TIP3    H138723   5.898   5.043   8.547  1.5953 -0.9342 -0.3811
 5696TIP3    H238724   5.806   5.015   8.430 -0.5887  0.0675  1.0317
 5697TIP3   OH238725   5.444   1.375   0.788 -0.3918 -0.2396 -0.1995
 5697TIP3    H138726   5.491   1.348   0.867 -0.7846 -0.3210  0.0068
 5697TIP3    H238727   5.374   1.432   0.820  0.6998  1.4468 -0.6579
 5698TIP3   OH238728   2.001   2.457   8.158  0.4693 -0.4790 -0.1045
 5698TIP3    H138729   2.082   2.420   8.123  0.0597 -0.3622 -1.2007
 5698TIP3    H238730   1.985   2.534   8.105 -0.4414 -0.5835  0.0045
 5699TIP3   OH238731   1.697   1.865   0.654  0.1155  0.2490 -0.4276
 5699TIP3    H138732   1.657   1.792   0.701  1.7234 -0.5542 -0.2533
 5699TIP3    H238733   1.624   1.926   0.639 -1.7509 -2.2190 -2.3443
 5700TIP3   OH238734   6.192   6.102   7.887 -0.4814 -0.3280  0.3039
 5700TIP3    H138735   6.195   6.180   7.943  0.5241  0.5135 -0.8795
 5700TIP3    H238736   6.099   6.078   7.884 -1.1459  2.0888 -0.9582
 5701TIP3   OH238737   3.532   6.530   1.586  0.1245 -0.3746  0.0072
 5701TIP3    H138738   3.551   6.587   1.512 -0.5499  0.6097  0.5618
 5701TIP3    H238739   3.551   6.442   1.555  2.1226  0.2168 -0.5667
 5702TIP3   OH238740   5.755   6.025   6.605  0.2743 -0.1031  0.4654
 5702TIP3    H138741   5.796   5.969   6.538 -1.2402  0.7114 -1.2232
 5702TIP3    H238742   5.762   5.974   6.686  0.9708 -1.7294 -0.5508
 5703TIP3   OH238743   3.546   0.256   7.395 -0.4727 -0.0128 -0.5156
 5703TIP3    H138744   3.489   0.331   7.411 -0.4834 -0.5807  3.0668
 5703TIP3    H238745   3.629   0.280   7.437 -0.5766 -2.0469  1.0025
 5704TIP3   OH238746   2.832   6.331   6.649  0.3850 -0.3185  0.1148
 5704TIP3    H138747   2.911   6.302   6.604 -0.0845 -0.9552 -0.3280
 5704TIP3    H238748   2.827   6.276   6.727  0.4869 -0.1339  0.2529
 5705TIP3   OH238749   4.584   5.387   8.450  0.4749  0.1353  0.3060
 5705TIP3    H138750   4.662   5.342   8.415  0.8332  1.1622 -0.2488
 5705TIP3    H238751   4.604   5.400   8.543  1.0781  0.6188  0.1139
 5706TIP3   OH238752   6.672   1.847   0.736  0.2904  0.1183  0.0009
 5706TIP3    H138753   6.609   1.909   0.772 -0.4361  0.0802 -1.1402
 5706TIP3    H238754   6.750   1.900   0.718  0.1749  0.4107  0.3514
 5707TIP3   OH238755   4.597   2.965   0.660 -0.7921 -0.3174 -0.4778
 5707TIP3    H138756   4.505   2.940   0.657 -0.5232 -1.7043  1.0542
 5707TIP3    H238757   4.644   2.883   0.676  0.4606  0.6836  1.3872
 5708TIP3   OH238758   4.200   1.338   1.598  0.0587 -0.7653 -0.5102
 5708TIP3    H138759   4.197   1.243   1.586  0.2733 -0.8198 -0.1528
 5708TIP3    H238760   4.275   1.353   1.655 -1.5463 -0.6446  1.7197
 5709TIP3   OH238761   3.283   4.783   0.118 -0.3394 -0.4494 -0.5948
 5709TIP3    H138762   3.190   4.775   0.138 -0.2580 -1.5001 -0.5823
 5709TIP3    H238763   3.326   4.788   0.203 -0.4682  1.5066 -0.5936
 5710TIP3   OH238764   0.893   0.333   8.303  0.3560  0.0466  0.0148
 5710TIP3    H138765   0.926   0.289   8.382  0.7593  1.9907  0.9826
 5710TIP3    H238766   0.927   0.281   8.231  1.3597 -0.8424  1.0804
 5711TIP3   OH238767   6.122   5.757   7.428  0.3764  0.4248  0.0245
 5711TIP3    H138768   6.137   5.768   7.334  1.3713  0.2426  0.1416
 5711TIP3    H238769   6.209   5.737   7.463 -0.0585  0.0729  0.9243
 5712TIP3   OH238770   2.241   6.653   7.582  0.1302 -0.4739 -0.7059
 5712TIP3    H138771   2.231   6.587   7.651 -3.1370  1.4425  0.8922
 5712TIP3    H238772   2.316   6.706   7.611  0.4099 -1.2437  0.0088
 5713TIP3   OH238773   4.841   6.132   1.174  0.6157 -0.0099 -0.4581
 5713TIP3    H138774   4.913   6.079   1.138 -0.1044 -1.6140  0.3521
 5713TIP3    H238775   4.853   6.127   1.269  1.4797  2.7235 -0.3250
 5714TIP3   OH238776   1.143   2.194   7.928 -0.2638 -0.1541  0.9841
 5714TIP3    H138777   1.122   2.103   7.946 -1.6556 -0.0607 -0.0118
 5714TIP3    H238778   1.059   2.239   7.928  0.2753  0.9026  0.2834
 5715TIP3   OH238779   6.867   5.235   1.325 -0.3817  0.1731  0.5755
 5715TIP3    H138780   6.908   5.321   1.323 -0.6405  0.2865 -0.4160
 5715TIP3    H238781   6.782   5.248   1.284 -0.6519 -0.4406  0.9308
 5716TIP3   OH238782   6.392   0.288   0.690 -0.2868  0.0080 -0.2830
 5716TIP3    H138783   6.482   0.270   0.716 -0.0911 -0.3891 -1.2028
 5716TIP3    H238784   6.339   0.260   0.764  0.3107 -0.2947  0.0315
 5717TIP3   OH238785   1.243   4.545   1.170  0.1865  0.5507 -0.2918
 5717TIP3    H138786   1.175   4.516   1.231  0.3035  0.7032 -0.0866
 5717TIP3    H238787   1.326   4.522   1.213  0.3235  2.3598  0.4968
 5718TIP3   OH238788   2.005   5.855   0.571  0.2184  0.0280  0.3906
 5718TIP3    H138789   1.942   5.904   0.518 -0.2922 -0.7378  0.2519
 5718TIP3    H238790   2.079   5.914   0.583 -0.7194  1.1298  0.9506
 5719TIP3   OH238791   6.922   0.723   7.831 -0.2505 -0.0277 -0.2800
 5719TIP3    H138792   6.968   0.750   7.911  1.5346 -1.1761 -0.8628
 5719TIP3    H238793   6.947   0.631   7.819 -1.1790 -0.1259 -1.7014
 5720TIP3   OH238794   1.135   1.545   0.139 -0.1676  0.2808  0.4553
 5720TIP3    H138795   1.219   1.531   0.184 -0.1791  0.2010  0.4518
 5720TIP3    H238796   1.098   1.623   0.181  0.2321  0.7317 -0.0186
 5721TIP3   OH238797   2.792   1.060   1.767  0.4718 -0.5899 -0.5662
 5721TIP3    H138798   2.731   1.131   1.747  0.8619  0.2958  1.1757
 5721TIP3    H238799   2.848   1.055   1.689 -0.5089 -0.0189 -1.3366
 5722TIP3   OH238800   5.787   5.916   6.830 -0.1362  0.4395  0.2959
 5722TIP3    H138801   5.754   5.847   6.887  0.2249 -0.5195 -0.6112
 5722TIP3    H238802   5.882   5.913   6.840 -0.0034 -0.3097 -0.9442
 5723TIP3   OH238803   0.663   3.948   0.449  0.3936  0.6064 -0.2048
 5723TIP3    H138804   0.641   3.901   0.368  0.5230  1.3063 -0.6552
 5723TIP3    H238805   0.649   3.884   0.518 -0.3790  0.1983 -0.7213
 5724TIP3   OH238806   2.613   3.631   7.182 -0.1899  0.2947  0.1821
 5724TIP3    H138807   2.624   3.585   7.099 -0.5248  1.1715 -0.3652
 5724TIP3    H238808   2.521   3.657   7.183 -0.0996  0.6055  0.6673
 5725TIP3   OH238809   5.196   3.354   0.156  0.1549 -0.1468 -0.0604
 5725TIP3    H138810   5.186   3.259   0.156 -0.3227 -0.0964  0.1172
 5725TIP3    H238811   5.133   3.385   0.221 -1.5272  0.4878 -1.9164
 5726TIP3   OH238812   0.785   4.290   1.140 -0.0684  0.1362 -0.3906
 5726TIP3    H138813   0.872   4.252   1.127 -0.6852 -2.4158  2.0089
 5726TIP3    H238814   0.752   4.306   1.051  2.3756  0.1144 -1.3636
 5727TIP3   OH238815   3.810   6.542   7.142  0.1386  0.2447  0.4989
 5727TIP3    H138816   3.772   6.468   7.094 -0.9710  0.3800  1.1315
 5727TIP3    H238817   3.743   6.610   7.137  0.7353  0.8594  0.7794
 5728TIP3   OH238818   3.153   0.388   1.886 -0.0797 -0.0040  0.3352
 5728TIP3    H138819   3.232   0.377   1.832  0.1982 -0.5172  0.8356
 5728TIP3    H238820   3.084   0.406   1.823  0.3125 -0.2223 -0.1693
 5729TIP3   OH238821   1.171   1.460   0.713  0.7974 -0.6214  0.7193
 5729TIP3    H138822   1.099   1.507   0.755 -0.3785 -1.5533 -0.1924
 5729TIP3    H238823   1.174   1.376   0.757  1.3273 -0.5981  0.7370
 5730TIP3   OH238824   2.529   6.665   6.398 -0.2440  0.5222 -0.4897
 5730TIP3    H138825   2.607   6.683   6.345  0.9979  1.4783  1.5481
 5730TIP3    H238826   2.550   6.583   6.443 -1.5577 -0.6361 -1.8563
 5731TIP3   OH238827   0.516   6.239   2.486  0.0652 -0.1494  0.3938
 5731TIP3    H138828   0.591   6.256   2.543  0.4395 -0.2424 -0.0654
 5731TIP3    H238829   0.545   6.267   2.400 -1.3015  2.2460  0.6142
 5732TIP3   OH238830   3.072   1.577   8.467  0.3451 -0.2857  0.3039
 5732TIP3    H138831   3.069   1.607   8.558  2.0254  0.6034  0.0971
 5732TIP3    H238832   3.064   1.482   8.474 -0.9925 -0.1301  1.2637
 5733TIP3   OH238833   0.430   5.494   0.695 -0.2506 -0.4392 -0.5437
 5733TIP3    H138834   0.422   5.547   0.616 -0.8311  1.5806  0.7845
 5733TIP3    H238835   0.380   5.542   0.761 -0.4681 -2.4733  0.8688
 5734TIP3   OH238836   0.986   5.111   7.338  0.1146  0.2199  0.3960
 5734TIP3    H138837   0.989   5.059   7.258  0.1255  1.0023 -0.1276
 5734TIP3    H238838   1.032   5.192   7.316 -1.2109  1.0959  0.7143
 5735TIP3   OH238839   6.883   4.573   7.880  0.3645  0.0690 -0.2789
 5735TIP3    H138840   6.798   4.578   7.838 -0.8274  1.7060  2.1054
 5735TIP3    H238841   6.923   4.658   7.865  0.4457  0.2317  0.7576
 5736TIP3   OH238842   6.666   1.027   1.225  0.2569 -0.2300 -0.0260
 5736TIP3    H138843   6.632   1.116   1.233 -0.4327 -0.5618  0.9092
 5736TIP3    H238844   6.589   0.972   1.213  0.7620 -0.5931 -1.8005
 5737TIP3   OH238845   3.180   2.066   8.560  0.0451  0.4684 -0.1896
 5737TIP3    H138846   3.142   2.153   8.571 -1.5055 -0.1561 -0.2932
 5737TIP3    H238847   3.122   2.008   8.610  0.6482 -0.6016 -0.6890
 5738TIP3   OH238848   2.449   2.260   7.557  0.0285 -0.5619  0.1543
 5738TIP3    H138849   2.372   2.226   7.512  0.3052 -1.4618  0.3425
 5738TIP3    H238850   2.416   2.334   7.608 -1.1584 -2.1927  1.8940
 5739TIP3   OH238851   4.079   6.474   7.552  0.1370  0.0060 -0.0150
 5739TIP3    H138852   4.125   6.394   7.574 -2.0266 -1.0760  0.8331
 5739TIP3    H238853   4.049   6.461   7.461 -1.1238 -0.6534  0.4697
 5740TIP3   OH238854   6.633   1.352   1.299 -0.1463  0.1227 -0.4368
 5740TIP3    H138855   6.601   1.339   1.388  2.2572  0.3684  0.5601
 5740TIP3    H238856   6.694   1.426   1.307  2.1814 -1.5177 -1.6592
 5741TIP3   OH238857   0.093   2.750   1.528 -0.5214 -0.0998 -0.5513
 5741TIP3    H138858   0.001   2.734   1.552  0.2646 -0.2687  2.9215
 5741TIP3    H238859   0.132   2.787   1.607  2.4588 -0.1734 -1.8671
 5742TIP3   OH238860   1.575   3.152   0.491  0.3181  0.0685 -0.5368
 5742TIP3    H138861   1.576   3.239   0.450  0.3849  0.9986  1.3328
 5742TIP3    H238862   1.659   3.113   0.467 -0.1337  0.0650 -2.2423
 5743TIP3   OH238863   4.974   6.607   7.045  0.2535 -0.3068  0.1499
 5743TIP3    H138864   4.930   6.622   7.129 -0.3639 -2.5169  0.2890
 5743TIP3    H238865   5.067   6.608   7.067  0.3490  3.3740  0.0421
 5744TIP3   OH238866   6.311   2.036   7.118 -0.3088 -0.0770  0.8242
 5744TIP3    H138867   6.272   1.949   7.129  2.5480 -1.5499  0.3908
 5744TIP3    H238868   6.283   2.064   7.031 -1.5172 -0.3943  1.0923
 5745TIP3   OH238869   2.074   0.256   0.900  0.1760  0.5161 -0.6095
 5745TIP3    H138870   2.085   0.259   0.995  0.9762  2.1486 -0.7227
 5745TIP3    H238871   2.125   0.179   0.873 -1.5980 -1.0946  0.4177
 5746TIP3   OH238872   0.784   3.478   1.597 -0.3315 -0.1582  0.2048
 5746TIP3    H138873   0.787   3.411   1.528 -2.6863 -1.3627  1.1417
 5746TIP3    H238874   0.695   3.514   1.590 -0.2122  0.5217  1.8477
 5747TIP3   OH238875   2.885   2.864   7.396 -0.5195  0.3303  0.7944
 5747TIP3    H138876   2.967   2.853   7.348  0.0803  0.1728  1.8176
 5747TIP3    H238877   2.825   2.904   7.333 -0.2366 -1.2351 -0.5246
 5748TIP3   OH238878   4.185   4.894   7.965  0.2592  0.0257  0.8389
 5748TIP3    H138879   4.231   4.971   8.001  1.4981 -1.7108  3.2841
 5748TIP3    H238880   4.110   4.883   8.023 -2.1196  1.4382 -1.7278
 5749TIP3   OH238881   2.427   1.353   7.931 -0.1397  0.1387 -0.3187
 5749TIP3    H138882   2.453   1.403   8.008 -1.5677  1.7216 -0.7933
 5749TIP3    H238883   2.336   1.378   7.916 -1.5090 -3.7045  0.2316
 5750TIP3   OH238884   6.473   0.359   6.408 -0.4532 -0.8009 -0.6311
 5750TIP3    H138885   6.382   0.333   6.396 -0.4251 -1.6623  0.7889
 5750TIP3    H238886   6.469   0.431   6.471 -0.0935 -1.5578  0.2722
 5751TIP3   OH238887   0.688   2.207   0.076  0.5826  0.2122  0.0990
 5751TIP3    H138888   0.596   2.232   0.066  0.7290  0.7974  0.1775
 5751TIP3    H238889   0.686   2.114   0.096  0.0462  0.0403 -0.7157
 5752TIP3   OH238890   5.943   4.695   8.516 -0.1692 -0.0312 -0.2240
 5752TIP3    H138891   5.986   4.649   8.587  0.3494  0.7675 -0.0117
 5752TIP3    H238892   5.849   4.676   8.529 -0.1725  0.8308  1.2020
 5753TIP3   OH238893   5.299   0.711   7.871  0.1028 -0.4261 -0.1611
 5753TIP3    H138894   5.384   0.753   7.883 -0.3861  0.0222  2.1551
 5753TIP3    H238895   5.319   0.618   7.861  0.8954 -0.2218 -0.5400
 5754TIP3   OH238896   3.120   5.649   0.277  0.1261  0.4559 -0.1898
 5754TIP3    H138897   3.184   5.602   0.224  0.5592  0.7204  0.0862
 5754TIP3    H238898   3.137   5.742   0.258 -0.6857  0.5090 -0.6961
 5755TIP3   OH238899   1.188   0.899   6.411  0.2304  0.4973 -0.2204
 5755TIP3    H138900   1.204   0.805   6.399  1.3627  0.4258  1.5514
 5755TIP3    H238901   1.263   0.930   6.461 -0.3603  2.2655 -0.3753
 5756TIP3   OH238902   3.864   1.472   6.834  0.4926  0.3139 -0.1339
 5756TIP3    H138903   3.924   1.545   6.821  2.2414 -1.0148  0.2106
 5756TIP3    H238904   3.885   1.410   6.764 -1.4290  0.3788 -0.8412
 5757TIP3   OH238905   0.626   4.552   0.543 -0.0325  0.1511 -0.3646
 5757TIP3    H138906   0.532   4.534   0.533 -0.1680  1.4723 -1.8987
 5757TIP3    H238907   0.664   4.468   0.568 -1.4983 -0.6377 -0.6551
 5758TIP3   OH238908   3.087   4.060   7.199  0.2846 -0.2434 -0.1469
 5758TIP3    H138909   3.013   4.059   7.138  0.4621  0.5632 -0.3852
 5758TIP3    H238910   3.047   4.063   7.286  0.0092  1.8351 -0.3014
 5759TIP3   OH238911   1.700   5.209   7.417 -0.2355 -0.0117 -0.0809
 5759TIP3    H138912   1.631   5.267   7.447  1.6295  1.8809  0.8382
 5759TIP3    H238913   1.690   5.206   7.322 -1.0122  0.9787 -0.0443
 5760TIP3   OH238914   3.562   5.491   6.678 -0.0357  0.1164  0.5991
 5760TIP3    H138915   3.502   5.506   6.605  0.7882 -0.2995 -0.1786
 5760TIP3    H238916   3.646   5.523   6.647  0.6514 -1.4319  0.7965
 5761TIP3   OH238917   6.814   1.097   0.120  0.5174  0.8925 -0.9353
 5761TIP3    H138918   6.765   1.047   0.185  0.1701  1.7574 -0.5169
 5761TIP3    H238919   6.858   1.030   0.067  0.2713  0.1568 -0.2381
 5762TIP3   OH238920   0.921   5.570   6.704  0.7972  0.5072 -0.4436
 5762TIP3    H138921   0.906   5.530   6.618  0.1099 -0.8127  0.2459
 5762TIP3    H238922   0.835   5.600   6.732  0.9112  0.4071  0.0227
 5763TIP3   OH238923   3.025   1.465   0.216  0.0737  0.2718  0.2277
 5763TIP3    H138924   3.100   1.494   0.165 -0.8164  2.1231 -0.0747
 5763TIP3    H238925   3.000   1.381   0.176  1.2368  0.2002 -0.4028
 5764TIP3   OH238926   5.886   5.590   1.660  0.0952 -0.1864  0.5667
 5764TIP3    H138927   5.834   5.670   1.667  0.6994  0.1958  0.8577
 5764TIP3    H238928   5.825   5.524   1.629 -0.3083  0.5047 -0.1823
 5765TIP3   OH238929   6.121   4.877   0.304 -0.4819  0.1555  0.5039
 5765TIP3    H138930   6.151   4.941   0.369 -1.3650  2.2560 -1.0316
 5765TIP3    H238931   6.188   4.808   0.305  1.8014  2.2258  0.6540
 5766TIP3   OH238932   6.592   3.969   7.062 -0.4968  0.0870  0.1164
 5766TIP3    H138933   6.564   3.884   7.027 -1.5266 -0.4743  2.1439
 5766TIP3    H238934   6.683   3.956   7.086 -0.7251 -0.5746  0.6890
 5767TIP3   OH238935   3.476   3.128   1.597 -0.0234  0.1342  0.1224
 5767TIP3    H138936   3.450   3.118   1.689  2.2857 -0.0170  0.8413
 5767TIP3    H238937   3.542   3.198   1.599 -0.0657  0.2475 -1.4537
 5768TIP3   OH238938   3.840   4.500   0.501 -0.1715 -0.0341 -1.0379
 5768TIP3    H138939   3.832   4.497   0.406  2.7822  0.7700 -1.4024
 5768TIP3    H238940   3.856   4.592   0.521 -1.4704 -0.0689  0.3669
 5769TIP3   OH238941   4.189   1.874   2.104 -0.0941  0.0064 -0.1585
 5769TIP3    H138942   4.190   1.781   2.124  0.5669 -0.1284 -0.7854
 5769TIP3    H238943   4.130   1.912   2.170  1.1396 -0.5651  1.3408
 5770TIP3   OH238944   3.871   4.177   1.519 -0.6648  0.3285 -0.1708
 5770TIP3    H138945   3.888   4.250   1.578 -0.0233  0.8085 -0.9216
 5770TIP3    H238946   3.957   4.136   1.507 -0.7196  0.4403 -1.0113
 5771TIP3   OH238947   2.777   4.740   0.886  0.3573  0.4261  0.7383
 5771TIP3    H138948   2.857   4.736   0.832  0.0293 -0.3010  0.3031
 5771TIP3    H238949   2.763   4.834   0.899  0.5518  0.6138 -0.2900
 5772TIP3   OH238950   6.511   4.662   8.056  0.2854  0.3928  0.5244
 5772TIP3    H138951   6.567   4.726   8.101  1.8566 -0.4756 -0.1141
 5772TIP3    H238952   6.433   4.712   8.032  1.4844  2.1143 -0.0017
 5773TIP3   OH238953   1.867   5.030   1.547  0.1162 -0.0478 -0.8917
 5773TIP3    H138954   1.903   4.961   1.602  1.2920  0.7676 -0.5987
 5773TIP3    H238955   1.915   5.023   1.465  2.1099  1.9579 -0.0071
 5774TIP3   OH238956   5.986   0.158   1.783 -0.0457  0.1592  0.0538
 5774TIP3    H138957   6.048   0.107   1.834 -0.0574 -1.3543 -1.3603
 5774TIP3    H238958   6.040   0.207   1.721 -0.1948 -1.1912 -1.2055
 5775TIP3   OH238959   4.926   5.742   7.906 -0.2276 -0.2638  0.0929
 5775TIP3    H138960   4.965   5.800   7.972 -0.5848 -0.7996  0.7898
 5775TIP3    H238961   4.983   5.751   7.830 -0.5908  1.4380 -0.0283
 5776TIP3   OH238962   5.456   3.057   1.959  0.1637 -0.3651 -0.4848
 5776TIP3    H138963   5.390   3.005   1.912  1.6520 -2.0661 -0.8098
 5776TIP3    H238964   5.474   3.007   2.038  1.4015 -0.2055 -0.6430
 5777TIP3   OH238965   1.962   0.290   7.438  0.2404  0.0386 -0.4167
 5777TIP3    H138966   1.977   0.366   7.382  0.7759  0.4263  0.2312
 5777TIP3    H238967   1.925   0.224   7.380  1.9847 -0.0390 -1.5091
 5778TIP3   OH238968   0.009   4.389   8.070 -0.1433 -0.2228 -0.6710
 5778TIP3    H138969   0.105   4.391   8.076  0.0877  0.9934 -3.2889
 5778TIP3    H238970  -0.012   4.454   8.003 -2.9757  0.8265  1.0705
 5779TIP3   OH238971   1.760   5.340   6.426 -0.1159  0.0137 -0.0792
 5779TIP3    H138972   1.808   5.310   6.503  2.0918  1.9709 -0.5744
 5779TIP3    H238973   1.674   5.363   6.459  0.5623  0.1997  1.6800
 5780TIP3   OH238974   5.647   6.335   0.985  0.5088  0.3337  0.8159
 5780TIP3    H138975   5.581   6.404   0.981  1.3355  1.1436  0.9774
 5780TIP3    H238976   5.717   6.364   0.927 -0.1620 -1.5132 -1.0363
 5781TIP3   OH238977   1.625   2.699   1.696  0.6154 -0.2895 -0.7020
 5781TIP3    H138978   1.645   2.792   1.687  0.4410 -0.3084 -1.3084
 5781TIP3    H238979   1.664   2.674   1.780  1.0055  0.2372 -0.7237
 5782TIP3   OH238980   0.973   1.313   0.543  0.1963  0.4382 -0.2500
 5782TIP3    H138981   1.013   1.280   0.463  0.7941 -0.7207  0.4899
 5782TIP3    H238982   0.987   1.243   0.607 -2.0728  0.4535  0.3392
 5783TIP3   OH238983   0.069   1.739   1.649 -0.2230  0.6809 -0.0042
 5783TIP3    H138984   0.115   1.665   1.609 -0.8956  0.3580 -0.1900
 5783TIP3    H238985   0.137   1.786   1.698  0.7231  1.3062 -1.8120
 5784TIP3   OH238986   1.392   0.038   8.093  0.2787  0.5446  0.4594
 5784TIP3    H138987   1.464  -0.026   8.091 -0.7460 -0.6502  0.3420
 5784TIP3    H238988   1.417   0.104   8.029  1.5257  0.4644  0.8168
 5785TIP3   OH238989   5.138   1.370   1.648 -0.1096  0.2102  0.6278
 5785TIP3    H138990   5.226   1.407   1.646  0.6203 -1.4688  0.6953
 5785TIP3    H238991   5.082   1.445   1.669  1.3387  1.2076  1.1136
 5786TIP3   OH238992   6.613   1.672   0.245  0.1008 -0.2605 -0.0648
 5786TIP3    H138993   6.671   1.691   0.319 -1.0476  0.1359  0.7774
 5786TIP3    H238994   6.615   1.577   0.237  1.6247 -0.1937 -0.7054
 5787TIP3   OH238995   3.193   4.878   2.054  0.0530 -0.2815  0.2989
 5787TIP3    H138996   3.137   4.952   2.076  1.1602  0.7539 -0.1927
 5787TIP3    H238997   3.210   4.835   2.138  0.3967  0.7852  0.8072
 5788TIP3   OH238998   2.398   6.899   6.863  0.1745  0.5767  0.4055
 5788TIP3    H138999   2.396   6.825   6.923 -0.1427  0.8109  0.6810
 5788TIP3    H239000   2.480   6.887   6.814 -0.6250 -0.8325 -0.6607
 5789TIP3   OH239001   5.845   0.327   7.208  0.2460 -0.6101 -0.1867
 5789TIP3    H139002   5.868   0.265   7.277 -0.2486  1.1915  1.6745
 5789TIP3    H239003   5.770   0.375   7.243  0.4141  0.8368 -1.6934
 5790TIP3   OH239004   5.974   2.707   0.936  0.4275 -0.1339 -0.2337
 5790TIP3    H139005   5.968   2.726   0.842 -0.3298 -0.8668 -0.3458
 5790TIP3    H239006   6.025   2.780   0.972 -0.5496  0.9504 -0.9769
 5791TIP3   OH239007   3.214   4.181   7.664 -0.2455  0.0307  0.8761
 5791TIP3    H139008   3.197   4.259   7.611  0.4883  0.5817  1.4311
 5791TIP3    H239009   3.291   4.204   7.716  0.1643 -1.1889  0.8177
 5792TIP3   OH239010   0.962   1.088   0.760 -0.1014 -0.6494  0.3792
 5792TIP3    H139011   0.925   1.001   0.744 -0.8362 -0.4960  1.1658
 5792TIP3    H239012   0.931   1.111   0.847 -0.5575  0.7298 -0.1293
 5793TIP3   OH239013   2.703   6.116   0.938  0.3708 -0.2106 -0.2139
 5793TIP3    H139014   2.640   6.047   0.915  0.8219 -2.7238  4.6915
 5793TIP3    H239015   2.785   6.089   0.897 -0.0164 -1.2833 -0.3130
 5794TIP3   OH239016   6.818   6.431   8.359  0.1856 -0.0817 -0.1582
 5794TIP3    H139017   6.790   6.340   8.347 -0.8782  0.0886  0.8092
 5794TIP3    H239018   6.844   6.460   8.271  0.4788 -1.2855 -0.4919
 5795TIP3   OH239019   6.566   3.559   1.813 -0.3865  0.3604  0.1493
 5795TIP3    H139020   6.514   3.593   1.885 -0.0901 -0.0341  0.5588
 5795TIP3    H239021   6.505   3.507   1.761 -0.6716  0.9059 -0.0667
 5796TIP3   OH239022   1.944   6.483   1.077  0.5987  0.2549 -0.0804
 5796TIP3    H139023   1.979   6.432   1.004  1.5274  0.1355  0.4304
 5796TIP3    H239024   1.894   6.419   1.129  0.6187  0.1615 -0.1757
 5797TIP3   OH239025   0.663   0.978   7.470 -0.4219 -0.6022 -0.3712
 5797TIP3    H139026   0.582   0.929   7.482 -1.2778  0.9741  0.5208
 5797TIP3    H239027   0.727   0.934   7.527 -1.1928 -0.6231  0.4916
 5798TIP3   OH239028   2.853   4.710   0.053  0.3331 -0.3106 -0.1479
 5798TIP3    H139029   2.911   4.777   0.088 -1.6266  0.9721  0.8510
 5798TIP3    H239030   2.795   4.757  -0.007 -0.5302 -1.2567 -0.0854
 5799TIP3   OH239031   2.801   5.352   8.085 -0.2551 -0.1453 -0.8009
 5799TIP3    H139032   2.893   5.352   8.110 -0.2581  2.5237 -0.4705
 5799TIP3    H239033   2.801   5.348   7.989  0.2298  0.2383 -0.8183
 5800TIP3   OH239034   0.250   1.180   8.074  0.0373  0.2605  0.5075
 5800TIP3    H139035   0.345   1.166   8.079  0.0408 -0.1227 -0.4606
 5800TIP3    H239036   0.225   1.145   7.988 -0.8527  1.1204  0.4024
 5801TIP3   OH239037   6.886   3.512   7.600 -0.1144  0.3227  0.1339
 5801TIP3    H139038   6.884   3.562   7.518  0.2453  0.7971  0.4078
 5801TIP3    H239039   6.820   3.553   7.655 -0.8392 -0.4278 -0.1517
 5802TIP3   OH239040   6.864   5.269   7.181  0.5105  0.2982 -0.0180
 5802TIP3    H139041   6.803   5.211   7.225  0.8841  0.3616  0.5948
 5802TIP3    H239042   6.854   5.353   7.226  1.4972  0.1456  0.5122
 5803TIP3   OH239043   4.516   5.994   0.797  0.1695 -0.7683  0.0612
 5803TIP3    H139044   4.587   5.953   0.747  0.2734 -0.3047 -0.1786
 5803TIP3    H239045   4.552   6.005   0.885  0.0648 -1.3807  0.1885
 5804TIP3   OH239046   6.441   5.794   7.895 -0.7117  0.2744 -0.7114
 5804TIP3    H139047   6.416   5.747   7.975 -0.5453 -0.9997 -1.3858
 5804TIP3    H239048   6.528   5.761   7.873 -0.2747  1.4344 -0.8284
 5805TIP3   OH239049   3.583   3.713   6.951  0.6804 -0.1873 -0.7303
 5805TIP3    H139050   3.510   3.745   7.003  0.4528  0.9673 -1.7113
 5805TIP3    H239051   3.595   3.622   6.979 -1.3911 -0.5403 -0.8186
 5806TIP3   OH239052   1.240   1.607   7.879 -0.0314 -0.0921 -0.2500
 5806TIP3    H139053   1.252   1.697   7.908 -0.7273  0.2831 -1.0820
 5806TIP3    H239054   1.274   1.605   7.789 -0.0718 -0.6389 -0.2604
 5807TIP3   OH239055   4.251   6.375   7.843  0.1526  0.1704 -0.2081
 5807TIP3    H139056   4.281   6.463   7.821 -1.1697  0.6006 -0.3157
 5807TIP3    H239057   4.264   6.325   7.762  0.8588  0.2616 -0.1611
 5808TIP3   OH239058   3.527   2.818   8.603 -0.1676 -0.2771 -0.6705
 5808TIP3    H139059   3.485   2.862   8.677  0.2509 -0.2895 -0.4200
 5808TIP3    H239060   3.459   2.761   8.567  0.4431 -2.6274  1.5947
 5809TIP3   OH239061   0.296   5.714   2.536  0.3718 -0.0573 -0.1303
 5809TIP3    H139062   0.283   5.682   2.447  0.2008  0.3355 -0.2509
 5809TIP3    H239063   0.229   5.671   2.588  1.6036 -1.7203  0.1811
 5810TIP3   OH239064   6.566   3.617   8.193  0.3149  0.5641  0.1634
 5810TIP3    H139065   6.576   3.682   8.262 -0.3041 -0.6840  1.4725
 5810TIP3    H239066   6.656   3.592   8.169  0.5392  1.4029  0.1141
 5811TIP3   OH239067   3.868   4.212   7.659  0.5465 -0.2516 -0.1545
 5811TIP3    H139068   3.805   4.284   7.652 -0.0404 -0.6943  0.4639
 5811TIP3    H239069   3.953   4.254   7.649  0.1529  0.0876 -3.3979
 5812TIP3   OH239070   1.367   5.022   0.253  0.0487 -0.4106  0.7223
 5812TIP3    H139071   1.313   4.952   0.288  0.2024 -0.4629  0.8607
 5812TIP3    H239072   1.455   5.004   0.289  0.8102 -1.8931 -1.6493
 5813TIP3   OH239073   4.286   3.362   7.993 -0.4282  0.1215  0.8068
 5813TIP3    H139074   4.210   3.401   7.949 -1.1322 -1.5730  0.4688
 5813TIP3    H239075   4.349   3.346   7.923  0.1122  1.1373  1.0308
 5814TIP3   OH239076   6.445   2.176   8.496  0.1729 -0.3919  0.0274
 5814TIP3    H139077   6.450   2.099   8.440  3.3346  0.7778 -1.5267
 5814TIP3    H239078   6.411   2.143   8.580 -1.0076 -2.9237 -1.3445
 5815TIP3   OH239079   1.153   5.808   7.924  0.2130 -0.0411  0.4289
 5815TIP3    H139080   1.185   5.838   8.009 -0.1060 -0.9116  0.8666
 5815TIP3    H239081   1.081   5.749   7.945  1.3442 -1.7872 -0.3568
 5816TIP3   OH239082   5.381   0.621   0.020 -0.4419 -0.5459  0.0348
 5816TIP3    H139083   5.317   0.637  -0.050 -0.1780  0.8664  0.0837
 5816TIP3    H239084   5.393   0.706   0.061  1.2584 -0.8300  0.2092
 5817TIP3   OH239085   3.137   2.916   1.143  0.1938  0.4043  0.2826
 5817TIP3    H139086   3.051   2.914   1.184  0.5141 -0.5487  0.9581
 5817TIP3    H239087   3.193   2.864   1.202  1.0915  0.5290 -0.4324
 5818TIP3   OH239088   4.330   2.689   0.060  0.4079 -0.1654 -0.2495
 5818TIP3    H139089   4.353   2.706  -0.031 -0.2486  2.0050 -0.0670
 5818TIP3    H239090   4.276   2.610   0.056  2.6674 -1.7659 -1.3548
 5819TIP3   OH239091   4.208   5.484   0.498 -0.4988  0.1901  0.4683
 5819TIP3    H139092   4.188   5.432   0.575 -1.2648  1.7817  1.3994
 5819TIP3    H239093   4.221   5.573   0.531  2.3357  0.3816 -0.8568
 5820TIP3   OH239094   1.327   0.423   0.592 -0.0405 -0.1894  0.2873
 5820TIP3    H139095   1.255   0.362   0.608 -1.6911  1.8699  1.4213
 5820TIP3    H239096   1.360   0.444   0.680  0.0875  0.9339 -0.0114
 5821TIP3   OH239097   1.364   1.755   0.860 -0.1990  0.2009  0.8181
 5821TIP3    H139098   1.357   1.718   0.772  2.5377  1.4188  0.0002
 5821TIP3    H239099   1.315   1.837   0.855 -1.5256 -0.5361  1.0152
 5822TIP3   OH239100   2.079   6.388   7.175  0.3895 -0.1629 -0.1912
 5822TIP3    H139101   2.025   6.342   7.110 -0.9555 -0.1684  0.8809
 5822TIP3    H239102   2.132   6.448   7.124 -2.2218  1.4666 -1.1986
 5823TIP3   OH239103   2.583   2.066   7.712 -0.4809  0.7215 -0.5356
 5823TIP3    H139104   2.533   2.018   7.778 -0.6831 -0.3828 -1.4525
 5823TIP3    H239105   2.521   2.128   7.674 -0.8848  0.0815 -0.9446
 5824TIP3   OH239106   4.419   6.654   7.055  0.4824 -0.4768 -0.3388
 5824TIP3    H139107   4.334   6.690   7.081 -0.4386  0.3540 -3.8513
 5824TIP3    H239108   4.478   6.675   7.127 -1.4442  2.5351  0.5458
 5825TIP3   OH239109   5.438   5.205   7.017 -0.2132 -0.4047 -0.3803
 5825TIP3    H139110   5.483   5.208   6.932  1.2136 -0.5062  0.3413
 5825TIP3    H239111   5.434   5.296   7.045  0.6817 -0.5132  0.1215
 5826TIP3   OH239112   1.051   1.940   7.569  0.2441  0.1048 -0.4471
 5826TIP3    H139113   1.061   1.852   7.532 -1.4840  0.3546 -1.6350
 5826TIP3    H239114   0.999   1.987   7.505  0.4155  1.7627  0.5736
 5827TIP3   OH239115   0.346   0.833   2.495 -0.1892  0.1884 -0.1173
 5827TIP3    H139116   0.361   0.835   2.589 -1.1573 -1.3164  0.1003
 5827TIP3    H239117   0.251   0.840   2.486 -0.0260  1.6005 -1.0652
 5828TIP3   OH239118   4.686   4.741   1.531  0.1838  0.1308 -0.3613
 5828TIP3    H139119   4.663   4.693   1.610 -0.3334  2.3689  0.9258
 5828TIP3    H239120   4.619   4.809   1.522  0.2741  0.0138 -2.6913
 5829TIP3   OH239121   4.435   1.868   7.693 -0.3522  0.5702 -0.6887
 5829TIP3    H139122   4.355   1.905   7.655 -0.1724  1.7155  0.0085
 5829TIP3    H239123   4.495   1.942   7.701  1.0926 -0.4107 -1.9319
 5830TIP3   OH239124   4.005   5.791   7.831 -0.0998  0.0099  0.3877
 5830TIP3    H139125   3.995   5.873   7.880 -0.2013  0.2188  0.0278
 5830TIP3    H239126   3.932   5.792   7.768  0.5061  0.1582 -0.3309
 5831TIP3   OH239127   2.772   4.074   1.168  0.0912  0.0370  0.7047
 5831TIP3    H139128   2.726   4.130   1.106 -2.3983 -1.5319  0.9953
 5831TIP3    H239129   2.846   4.127   1.198 -0.6534  2.1425 -0.9393
 5832TIP3   OH239130   2.823   3.868   8.463 -0.2057 -0.0360  0.5835
 5832TIP3    H139131   2.877   3.882   8.385  0.2851  0.9786  1.0955
 5832TIP3    H239132   2.745   3.922   8.448 -0.3401 -0.2327  0.5722
 5833TIP3   OH239133   4.794   2.673   0.292  0.5299  0.2965 -0.1408
 5833TIP3    H139134   4.715   2.666   0.346  0.8206  0.6451  0.3361
 5833TIP3    H239135   4.786   2.759   0.251  0.3413  0.0580 -0.6084
 5834TIP3   OH239136   4.318   6.042   7.748 -0.0095  0.5002 -0.4498
 5834TIP3    H139137   4.394   6.079   7.794  0.4979 -0.3578 -0.5877
 5834TIP3    H239138   4.286   5.973   7.806  0.6132 -0.5685 -1.3381
 5835TIP3   OH239139   6.722   5.714   7.405  0.2356  0.3637  0.0596
 5835TIP3    H139140   6.758   5.776   7.343  0.8706  2.0039  1.9645
 5835TIP3    H239141   6.628   5.733   7.407 -0.0192 -0.6303 -1.3529
 5836TIP3   OH239142   0.954   1.514   7.884  0.0944 -0.2351 -0.1322
 5836TIP3    H139143   0.947   1.429   7.929 -0.2672  0.9841  2.2874
 5836TIP3    H239144   1.048   1.533   7.885  0.2084 -0.6927 -0.9293
 5837TIP3   OH239145   2.279   5.937   7.824 -0.3686 -0.5754 -0.3419
 5837TIP3    H139146   2.354   5.995   7.833 -0.1894 -0.9407  0.6377
 5837TIP3    H239147   2.206   5.996   7.803 -0.3867  0.1454  1.5749
 5838TIP3   OH239148   5.944   3.237   0.270 -0.8728  0.5220 -0.0256
 5838TIP3    H139149   5.934   3.160   0.326 -0.2469  1.2744  1.1621
 5838TIP3    H239150   5.854   3.263   0.249 -1.1314  0.3122  0.7697
 5839TIP3   OH239151   6.163   3.890   0.167  0.1787  0.5274  0.0746
 5839TIP3    H139152   6.104   3.816   0.154  1.6693 -0.5160 -1.1212
 5839TIP3    H239153   6.148   3.917   0.258 -0.6705 -1.0151  0.4293
 5840TIP3   OH239154   1.663   5.321   1.022 -0.1250  0.3322  0.7655
 5840TIP3    H139155   1.601   5.248   1.028 -0.3820  0.3651 -0.8510
 5840TIP3    H239156   1.632   5.372   0.946  2.1747  0.0284 -0.4725
 5841TIP3   OH239157   5.332   1.215   8.159  0.0408  0.5944 -0.2903
 5841TIP3    H139158   5.379   1.208   8.241 -0.7101  0.6435  0.1542
 5841TIP3    H239159   5.248   1.173   8.176 -0.3091  1.0328 -0.8866
 5842TIP3   OH239160   2.570   5.726   0.041  0.3421 -0.2686 -0.0405
 5842TIP3    H139161   2.580   5.806   0.092  2.3166 -0.5159  0.0664
 5842TIP3    H239162   2.537   5.755  -0.044  0.9626  0.6548  0.0208
 5843TIP3   OH239163   2.967   1.562   0.772  0.4814 -0.7561  0.6346
 5843TIP3    H139164   2.918   1.619   0.714  0.6592 -1.7837 -0.5558
 5843TIP3    H239165   2.946   1.593   0.860  0.5072  1.0628  0.0329
 5844TIP3   OH239166   5.187   6.265   0.091  0.0006 -0.3315  0.0760
 5844TIP3    H139167   5.214   6.354   0.110  3.3101 -1.0470 -0.6787
 5844TIP3    H239168   5.185   6.221   0.176  0.3336 -0.0148  0.2487
 5845TIP3   OH239169   6.092   5.932   0.990  0.3564  0.0181 -0.2261
 5845TIP3    H139170   6.004   5.966   1.007  1.1175  2.0972 -0.1569
 5845TIP3    H239171   6.081   5.837   0.989 -1.5345  0.1274  1.7598
 5846TIP3   OH239172   2.563   2.849   7.090  0.1341 -0.4667  0.3988
 5846TIP3    H139173   2.504   2.878   7.160 -0.1094  0.0360 -0.0116
 5846TIP3    H239174   2.644   2.898   7.106 -0.6071  1.2795 -0.8944
 5847TIP3   OH239175   5.838   3.729   0.745  0.1210 -0.1674  0.4768
 5847TIP3    H139176   5.774   3.667   0.779 -1.0130  0.7653  0.0964
 5847TIP3    H239177   5.788   3.785   0.686  0.9801  1.4823  1.2548
 5848TIP3   OH239178   5.253   5.600   2.160  0.9287 -0.1000  0.2073
 5848TIP3    H139179   5.159   5.617   2.166  0.6046 -0.7553 -2.0874
 5848TIP3    H239180   5.290   5.684   2.134  0.5595 -0.4773 -1.6956
 5849TIP3   OH239181   2.921   4.490   6.371 -0.2222  0.0431  0.3911
 5849TIP3    H139182   3.009   4.528   6.364 -0.1141 -0.3613 -0.7257
 5849TIP3    H239183   2.936   4.398   6.391 -0.3317 -0.2498 -0.7715
 5850TIP3   OH239184   1.739   5.146   0.398  0.9240 -0.1715  0.0754
 5850TIP3    H139185   1.678   5.195   0.453  0.8265  0.2813 -0.4224
 5850TIP3    H239186   1.795   5.213   0.359  1.6487 -0.5723  0.4157
 5851TIP3   OH239187   5.752   3.340   7.764  0.2852  0.0677 -0.2852
 5851TIP3    H139188   5.753   3.381   7.677 -0.0552 -1.9345 -1.2928
 5851TIP3    H239189   5.815   3.390   7.815 -0.4547  2.1127 -1.2701
 5852TIP3   OH239190   3.709   2.099   1.181 -0.2217 -0.1854 -0.0405
 5852TIP3    H139191   3.650   2.123   1.252 -1.6581 -0.1701 -1.1889
 5852TIP3    H239192   3.673   2.017   1.147  0.8232 -0.5375 -0.3391
 5853TIP3   OH239193   4.802   0.085   0.676 -0.5919  0.1733  0.2696
 5853TIP3    H139194   4.826   0.178   0.685  0.6172  0.3767 -3.4574
 5853TIP3    H239195   4.861   0.040   0.737 -0.5736  1.7316  1.4959
 5854TIP3   OH239196   4.704   3.707   0.197 -0.3484  0.1669  0.8551
 5854TIP3    H139197   4.792   3.737   0.175 -0.3978 -0.0387  0.3650
 5854TIP3    H239198   4.647   3.752   0.135 -0.4346 -0.8447  0.1754
 5855TIP3   OH239199   5.109   6.727   1.585 -0.6118  0.8802  0.2752
 5855TIP3    H139200   5.033   6.669   1.580 -0.1845  0.3523 -0.1278
 5855TIP3    H239201   5.183   6.673   1.558 -0.3576  1.8854 -1.1720
 5856TIP3   OH239202   0.820   0.997   0.082  0.3188  0.2168 -0.0233
 5856TIP3    H139203   0.891   1.045   0.039  0.5261  0.0788  0.1595
 5856TIP3    H239204   0.800   0.925   0.022 -1.0903  1.4129 -1.0813
 5857TIP3   OH239205   6.882   5.259   6.430  0.0919 -0.4489  0.4019
 5857TIP3    H139206   6.844   5.297   6.351 -1.0082 -0.0155  1.1266
 5857TIP3    H239207   6.977   5.263   6.415 -0.1024 -1.2142 -1.2791
 5858TIP3   OH239208   4.835   3.837   1.774 -0.0371 -0.1896 -0.3624
 5858TIP3    H139209   4.915   3.801   1.814 -0.6156 -1.3737 -0.2194
 5858TIP3    H239210   4.824   3.922   1.816  1.4757  0.2647 -0.8266
 5859TIP3   OH239211   3.760   2.225   8.424  0.0513 -0.4122  0.0682
 5859TIP3    H139212   3.765   2.130   8.439  0.5833 -0.5827 -1.0673
 5859TIP3    H239213   3.741   2.234   8.331  0.5579  0.6019  0.0479
 5860TIP3   OH239214   4.934   3.493   8.338 -0.4201 -0.1429 -0.0961
 5860TIP3    H139215   5.028   3.486   8.324 -0.7518 -2.8125 -1.9166
 5860TIP3    H239216   4.925   3.523   8.428  2.1202  1.6643 -0.3439
 5861TIP3   OH239217   4.585   1.667   7.596  0.1721 -0.1966  0.0601
 5861TIP3    H139218   4.508   1.719   7.621 -0.4527 -1.5512  1.0711
 5861TIP3    H239219   4.552   1.578   7.590  1.8840 -1.0093  1.6947
 5862TIP3   OH239220   1.701   6.889   0.106 -0.3920 -0.2806  0.4635
 5862TIP3    H139221   1.660   6.819   0.157 -3.0743  1.3144  0.7013
 5862TIP3    H239222   1.753   6.938   0.170 -0.8833 -0.3521  0.9245
 5863TIP3   OH239223   4.132   1.313   7.575  0.6658  0.0901 -0.1114
 5863TIP3    H139224   4.056   1.367   7.551  0.0137 -1.2008 -1.1084
 5863TIP3    H239225   4.107   1.224   7.548  2.1434 -0.5227  0.4651
 5864TIP3   OH239226   1.570   4.378   1.580 -0.0406 -0.4489  0.0094
 5864TIP3    H139227   1.656   4.420   1.582 -0.1317 -0.2821  1.3867
 5864TIP3    H239228   1.588   4.285   1.567  0.3088 -0.3309 -0.3496
 5865TIP3   OH239229   0.180   5.397   7.782 -0.2501  0.0715 -0.0014
 5865TIP3    H139230   0.251   5.452   7.750  0.3331 -0.8235 -0.2779
 5865TIP3    H239231   0.223   5.327   7.831 -0.9488 -0.4343 -0.0919
 5866TIP3   OH239232   2.093   3.275   0.498  0.2874 -0.5170  0.2712
 5866TIP3    H139233   2.012   3.326   0.504  0.2766 -0.2072 -1.7304
 5866TIP3    H239234   2.153   3.318   0.560 -0.6469  0.0964  0.7712
 5867TIP3   OH239235   4.236   6.839   1.190 -0.0799 -0.1372 -0.2235
 5867TIP3    H139236   4.207   6.903   1.125  0.1837  1.2224  0.9687
 5867TIP3    H239237   4.164   6.775   1.193 -0.9239  0.7670 -0.5340
 5868TIP3   OH239238   1.010   6.880   7.132  0.2376  0.7878  0.0486
 5868TIP3    H139239   1.004   6.919   7.045 -0.9119  3.0211  1.0434
 5868TIP3    H239240   1.074   6.933   7.179  1.8321 -1.1831  0.2578
 5869TIP3   OH239241   1.664   6.784   1.874  0.4700  0.7006  0.3507
 5869TIP3    H139242   1.754   6.757   1.859  0.4127  0.0664  1.0734
 5869TIP3    H239243   1.619   6.765   1.792  0.7456 -0.0964  0.3700
 5870TIP3   OH239244   1.422   0.407   6.616 -0.4165  0.3278 -0.1858
 5870TIP3    H139245   1.361   0.398   6.542  0.5128  3.8125 -1.6150
 5870TIP3    H239246   1.504   0.368   6.585 -0.4068  0.5716 -0.4720
 5871TIP3   OH239247   4.969   6.156   8.597  0.1123 -0.0628 -0.0536
 5871TIP3    H139248   5.042   6.208   8.631  0.8342 -0.4085 -1.0304
 5871TIP3    H239249   4.934   6.208   8.525 -1.4101  0.6640  1.1499
 5872TIP3   OH239250   5.076   0.084   6.860  0.3216  0.0464 -0.1783
 5872TIP3    H139251   5.156   0.130   6.836  0.3818 -0.3926 -0.8385
 5872TIP3    H239252   5.058   0.026   6.786  0.5448 -1.3979  0.8474
 5873TIP3   OH239253   1.714   2.632   1.966 -0.0078 -0.2521 -0.5118
 5873TIP3    H139254   1.656   2.578   2.020  1.2858 -0.4310  0.7450
 5873TIP3    H239255   1.799   2.629   2.010  0.8439  0.4401 -2.0117
 5874TIP3   OH239256   2.544   3.918   7.320  0.1508  0.0908  0.1267
 5874TIP3    H139257   2.615   3.980   7.341 -0.3447  0.6513  0.1843
 5874TIP3    H239258   2.578   3.865   7.248  0.2538  1.0306 -0.5285
 5875TIP3   OH239259   6.402   5.772   0.963 -0.6958 -0.1134  0.1346
 5875TIP3    H139260   6.447   5.837   1.016  0.1188 -0.1873 -0.4516
 5875TIP3    H239261   6.389   5.815   0.878  0.4245 -0.9187 -0.4673
 5876TIP3   OH239262   5.960   6.388   7.797  0.6039 -0.2850  0.1808
 5876TIP3    H139263   5.949   6.366   7.704  1.6118  0.7677 -0.2035
 5876TIP3    H239264   5.878   6.359   7.838 -0.1545 -0.1251 -1.1561
 5877TIP3   OH239265   0.223   2.400   7.974 -0.3571 -0.6566 -0.1913
 5877TIP3    H139266   0.206   2.306   7.971 -1.7835 -0.3971 -1.1455
 5877TIP3    H239267   0.182   2.434   7.894 -1.5337  1.0351  1.0686
 5878TIP3   OH239268   5.018   2.022   1.470 -0.5791  0.4267  0.1379
 5878TIP3    H139269   5.071   2.077   1.526 -1.2809  0.5808  0.6666
 5878TIP3    H239270   5.037   2.052   1.381  0.5558  0.1643  0.2709
 5879TIP3   OH239271   4.972   6.119   1.475 -0.2849  0.3991  0.6194
 5879TIP3    H139272   4.957   6.073   1.557  0.5368  1.5407  1.4475
 5879TIP3    H239273   5.013   6.202   1.501  2.0884 -0.1423 -1.0566
 5880TIP3   OH239274   1.626   1.469   0.004 -0.3418  0.1527  0.4532
 5880TIP3    H139275   1.705   1.439  -0.041 -0.9107 -1.2770  0.3287
 5880TIP3    H239276   1.581   1.388   0.030 -1.8580  0.9163  0.3656
 5881TIP3   OH239277   6.701   1.630   2.041  0.9006  0.1440 -0.8536
 5881TIP3    H139278   6.665   1.557   2.091  0.0549  0.6578 -0.6878
 5881TIP3    H239279   6.757   1.677   2.103 -0.2076  0.8261 -0.3284
 5882TIP3   OH239280   5.450   1.972   7.710  0.4264 -0.3632  0.7153
 5882TIP3    H139281   5.498   1.893   7.735 -0.6438 -1.6896 -1.1280
 5882TIP3    H239282   5.514   2.024   7.661  0.5730 -1.1739  0.0044
 5883TIP3   OH239283   4.183   1.050   8.036  0.6732 -0.1226 -0.3102
 5883TIP3    H139284   4.242   0.975   8.027  0.2650 -0.3377 -1.4403
 5883TIP3    H239285   4.099   1.018   8.003  0.4557  0.7777 -0.6736
 5884TIP3   OH239286   3.529   6.017   0.274  0.1559 -0.0225 -0.1956
 5884TIP3    H139287   3.492   5.974   0.351 -0.5998 -0.6297 -0.8770
 5884TIP3    H239288   3.562   5.945   0.220  1.3288  0.4360 -0.1289
 5885TIP3   OH239289   5.732   3.074   1.850  0.5591  0.3025 -0.0816
 5885TIP3    H139290   5.776   3.020   1.915 -1.0272 -0.7564  0.1647
 5885TIP3    H239291   5.639   3.053   1.860  0.1611  1.0444 -1.8532
 5886TIP3   OH239292   5.465   2.793   7.886 -0.3811  0.2062  0.1016
 5886TIP3    H139293   5.561   2.794   7.893 -0.4719  0.8865  2.1723
 5886TIP3    H239294   5.445   2.866   7.827  0.3470  2.3039  2.2447
 5887TIP3   OH239295   6.865   2.577   1.319 -0.1117  0.1762  0.1266
 5887TIP3    H139296   6.938   2.577   1.381 -0.7003  0.1420  0.8276
 5887TIP3    H239297   6.907   2.579   1.233  0.7358 -1.1599  0.4786
 5888TIP3   OH239298   5.960   0.639   2.339  0.7732  0.1020  0.2292
 5888TIP3    H139299   5.979   0.693   2.262 -0.7436  1.4493  0.7394
 5888TIP3    H239300   6.041   0.642   2.390  0.9280  1.4311 -0.0412
 5889TIP3   OH239301   4.779   5.351   2.085  0.2723  0.2356 -0.1961
 5889TIP3    H139302   4.856   5.314   2.043 -0.1003  0.3243 -0.9779
 5889TIP3    H239303   4.714   5.280   2.085 -0.1506  0.6179 -0.9121
 5890TIP3   OH239304   3.386   3.068   6.803  0.1119  0.1272  0.5695
 5890TIP3    H139305   3.413   3.131   6.869  0.5827  0.1504  0.3603
 5890TIP3    H239306   3.299   3.097   6.776  0.6386  1.1496 -0.0936
 5891TIP3   OH239307   1.791   5.832   5.977  0.3281 -0.1983  0.2806
 5891TIP3    H139308   1.736   5.806   5.903  0.6641  2.0511 -0.8472
 5891TIP3    H239309   1.730   5.869   6.041  0.2823  0.1318  0.0473
 5892TIP3   OH239310   4.369   0.220   7.461  0.5993  0.4614  0.2160
 5892TIP3    H139311   4.450   0.197   7.416  0.8923  1.7636  0.0204
 5892TIP3    H239312   4.300   0.195   7.400  0.5731 -3.8031  1.7224
 5893TIP3   OH239313   1.580   5.309   0.553 -0.1042 -0.0113  0.0758
 5893TIP3    H139314   1.602   5.354   0.635  0.4555  1.0732 -0.6432
 5893TIP3    H239315   1.490   5.280   0.565  0.0112  0.0371  1.1238
 5894TIP3   OH239316   5.997   1.521   7.470  0.5030  0.1982  0.2374
 5894TIP3    H139317   6.065   1.457   7.450  0.7646  0.8810 -1.2266
 5894TIP3    H239318   6.025   1.601   7.426 -0.5058  0.9230  0.8598
 5895TIP3   OH239319   0.372   4.757   0.168  0.1320 -0.2874  0.1775
 5895TIP3    H139320   0.443   4.744   0.230  0.2499  0.1526  0.1328
 5895TIP3    H239321   0.347   4.668   0.141 -0.4407 -0.5305  1.4422
 5896TIP3   OH239322   3.548   6.579   0.690 -0.4366  0.1221  0.7237
 5896TIP3    H139323   3.587   6.655   0.734 -0.5864 -0.0157  1.0958
 5896TIP3    H239324   3.622   6.533   0.652 -0.3811  0.6919  0.1158
 5897TIP3   OH239325   2.266   1.852   2.631  0.1253 -0.3012 -0.0311
 5897TIP3    H139326   2.361   1.859   2.628 -0.0041  1.9564  0.1076
 5897TIP3    H239327   2.250   1.768   2.675  1.9960 -1.8004 -1.9451
 5898TIP3   OH239328   5.950   6.416   7.018 -0.7896 -0.6653 -0.1295
 5898TIP3    H139329   6.044   6.432   7.017 -0.9731  0.4998 -0.6954
 5898TIP3    H239330   5.941   6.325   6.991  0.1399 -0.5077 -1.0401
 5899TIP3   OH239331   2.808   3.345   1.810 -0.0045 -0.2185  0.1117
 5899TIP3    H139332   2.844   3.425   1.850  3.1222 -0.5627 -1.6426
 5899TIP3    H239333   2.811   3.280   1.880  0.8915  0.3447  0.6201
 5900TIP3   OH239334   3.210   6.128   0.155  0.0469  0.1753 -0.3886
 5900TIP3    H139335   3.136   6.179   0.187 -0.7132 -0.4046 -1.1819
 5900TIP3    H239336   3.286   6.166   0.199 -0.7512  0.5673  0.6923
 5901TIP3   OH239337   3.919   6.162   1.150  0.3429  0.6879  0.1685
 5901TIP3    H139338   3.838   6.122   1.119  1.1776 -1.7044  0.8519
 5901TIP3    H239339   3.899   6.191   1.239 -0.3414  2.0727 -0.4156
 5902TIP3   OH239340   5.810   5.606   2.108  0.0392 -0.2141 -0.0832
 5902TIP3    H139341   5.754   5.666   2.059  1.2561  2.7702  1.9055
 5902TIP3    H239342   5.778   5.612   2.198  0.1048 -2.7985  0.1872
 5903TIP3   OH239343   0.426   5.182   8.264  0.4018 -0.2028  0.4318
 5903TIP3    H139344   0.368   5.107   8.276 -1.0403  0.7090 -0.5514
 5903TIP3    H239345   0.382   5.254   8.311 -0.1104  0.8714 -1.5950
 5904TIP3   OH239346   3.651   5.632   1.606 -0.3817  0.6871 -0.6969
 5904TIP3    H139347   3.745   5.640   1.625 -0.5516  1.8199 -0.2386
 5904TIP3    H239348   3.612   5.605   1.688 -0.1890 -2.5044 -1.5232
 5905TIP3   OH239349   6.392   0.009   1.820  0.1606  0.0444  0.4316
 5905TIP3    H139350   6.307   0.049   1.839 -0.2194 -0.2596 -0.5553
 5905TIP3    H239351   6.398  -0.065   1.881 -0.1566  0.2391  0.7017
 5906TIP3   OH239352   1.217   4.155   0.494  0.2391 -0.3699 -0.1431
 5906TIP3    H139353   1.126   4.135   0.517  0.0805  0.4629 -0.0268
 5906TIP3    H239354   1.221   4.143   0.399  0.2884 -1.4598 -0.0162
 5907TIP3   OH239355   2.524   2.070   1.436  0.3503 -0.1755 -0.3920
 5907TIP3    H139356   2.568   2.030   1.361  1.8470  1.1135 -0.2405
 5907TIP3    H239357   2.481   1.997   1.479  2.6912 -1.6146 -0.3275
 5908TIP3   OH239358   5.270   2.733   0.135  0.1932  0.3696 -0.0334
 5908TIP3    H139359   5.185   2.689   0.134 -0.3706  1.1723  3.0188
 5908TIP3    H239360   5.269   2.787   0.214  2.3633  2.8796 -1.5424
 5909TIP3   OH239361   2.090   5.353   6.769 -0.0945 -0.3674  0.9722
 5909TIP3    H139362   2.121   5.320   6.854  1.8153  1.2994  0.9987
 5909TIP3    H239363   2.129   5.294   6.705  0.9781  0.1314  1.1432
 5910TIP3   OH239364   5.994   2.229   0.403  0.2355  0.0844 -0.5330
 5910TIP3    H139365   6.080   2.247   0.439  0.4877 -0.7413 -0.6938
 5910TIP3    H239366   6.011   2.179   0.323 -0.4226 -2.0901  0.6134
 5911TIP3   OH239367   6.620   5.493   7.023  0.4183  0.8659  0.4191
 5911TIP3    H139368   6.709   5.465   7.046  0.2842 -0.7804 -0.9044
 5911TIP3    H239369   6.633   5.565   6.961  0.9653 -1.0273 -1.8326
 5912TIP3   OH239370   1.472   4.449   1.823  0.3460  0.4666  0.4468
 5912TIP3    H139371   1.519   4.381   1.872 -1.6162 -0.2004  1.5106
 5912TIP3    H239372   1.497   4.434   1.732 -0.6640 -2.2920  0.5191
 5913TIP3   OH239373   5.484   3.934   0.868 -0.2916  0.0314  0.2165
 5913TIP3    H139374   5.455   3.969   0.784 -1.4499 -2.1055 -0.3542
 5913TIP3    H239375   5.403   3.907   0.912  0.3988 -0.1163  1.4498
 5914TIP3   OH239376   6.688   1.989   1.113  0.3649 -0.1138 -0.0264
 5914TIP3    H139377   6.669   2.010   1.205  0.7150 -1.7644  0.4513
 5914TIP3    H239378   6.650   1.902   1.100  0.1868  0.1631 -1.5014
 5915TIP3   OH239379   1.181   0.392   1.379 -0.0628 -0.2152  0.0037
 5915TIP3    H139380   1.264   0.411   1.424 -0.8224  1.1599  0.9014
 5915TIP3    H239381   1.147   0.478   1.355 -2.1632 -0.5857  1.4272
 5916TIP3   OH239382   1.590   5.481   0.756  0.5062  0.5819  0.2483
 5916TIP3    H139383   1.509   5.511   0.798 -1.3510 -1.7713 -1.3512
 5916TIP3    H239384   1.644   5.560   0.748 -1.7960  2.3542  1.0195
 5917TIP3   OH239385   0.094   1.870   0.749 -0.5528 -0.1790  0.0150
 5917TIP3    H139386   0.057   1.889   0.835  1.5641 -0.8178  1.1439
 5917TIP3    H239387   0.175   1.921   0.746 -0.1699 -0.8214 -1.2371
 5918TIP3   OH239388   1.018   1.255   1.322 -0.1407  0.5467 -0.3881
 5918TIP3    H139389   0.979   1.213   1.399  0.8276  0.1954 -0.0740
 5918TIP3    H239390   1.034   1.184   1.261  0.4202  0.6239 -0.3331
 5919TIP3   OH239391   1.202   5.098   0.953  0.3394 -0.2460  0.2263
 5919TIP3    H139392   1.184   5.120   1.044 -0.6470 -0.3490  0.0683
 5919TIP3    H239393   1.116   5.078   0.916  0.7025 -0.0089 -0.7764
 5920TIP3   OH239394   4.096   3.939   7.589  0.0323  0.0225  0.5089
 5920TIP3    H139395   4.185   3.911   7.570 -0.3285 -0.4182 -0.5938
 5920TIP3    H239396   4.088   3.931   7.684  1.1780  0.1361  0.6306
 5921TIP3   OH239397   6.010   5.328   0.323  0.3404  0.6547  0.2915
 5921TIP3    H139398   5.998   5.279   0.405 -0.1403  0.4346  0.0912
 5921TIP3    H239399   6.069   5.400   0.347  0.8674  0.1191  0.6428
 5922TIP3   OH239400   2.944   3.398   0.516 -0.5884  0.1792 -0.7510
 5922TIP3    H139401   2.949   3.492   0.532  1.6468  0.1540 -0.9740
 5922TIP3    H239402   2.957   3.388   0.422  0.5295 -0.3847 -0.5598
 5923TIP3   OH239403   1.936   6.620   8.357 -0.7983  0.4229  0.0583
 5923TIP3    H139404   2.000   6.549   8.348  0.1439  1.3227 -0.5571
 5923TIP3    H239405   1.877   6.590   8.426  0.0205 -0.6305  0.3350
 5924TIP3   OH239406   5.510   0.423   1.599  0.2190 -0.0273 -0.0051
 5924TIP3    H139407   5.481   0.385   1.516 -1.5262  0.0633  0.5232
 5924TIP3    H239408   5.431   0.424   1.654  1.0881  0.9048  1.2860
 5925TIP3   OH239409   2.362   1.410   1.130  0.1016 -0.3499  0.4497
 5925TIP3    H139410   2.360   1.343   1.198 -2.1471 -2.9330 -1.9150
 5925TIP3    H239411   2.270   1.438   1.121 -0.2774 -2.1913 -3.2400
 5926TIP3   OH239412   2.380   5.858   6.677 -0.4000  0.4277  0.2520
 5926TIP3    H139413   2.367   5.931   6.617  0.2288  0.2157 -0.1503
 5926TIP3    H239414   2.378   5.897   6.764  3.0952  1.4940 -0.0018
 5927TIP3   OH239415   2.614   1.579   1.431  0.1787  0.3104 -0.1604
 5927TIP3    H139416   2.681   1.546   1.490  0.0929  0.0074 -0.2287
 5927TIP3    H239417   2.626   1.528   1.351  1.0777  1.5448 -0.8446
 5928TIP3   OH239418   0.537   4.581   6.738  0.4203 -0.5221 -0.0385
 5928TIP3    H139419   0.472   4.572   6.668 -0.0496  0.2934  0.2740
 5928TIP3    H239420   0.499   4.646   6.797  2.0261  0.8412 -0.4255
 5929TIP3   OH239421   2.627   0.324   0.439 -0.2160  0.1580  0.6081
 5929TIP3    H139422   2.626   0.288   0.528 -1.3399 -1.2666  0.0513
 5929TIP3    H239423   2.711   0.369   0.433  0.3401 -0.6093  2.0488
 5930TIP3   OH239424   5.693   2.611   2.851 -0.9065  0.1130 -0.0233
 5930TIP3    H139425   5.756   2.540   2.844 -0.7923  0.2624 -0.5649
 5930TIP3    H239426   5.608   2.568   2.851 -0.8248 -0.0497  0.0985
 5931TIP3   OH239427   2.663   6.810   0.352  0.4888  0.2472  0.5618
 5931TIP3    H139428   2.735   6.858   0.393 -0.0138 -0.0527  1.8554
 5931TIP3    H239429   2.588   6.868   0.361 -0.0480 -0.5995  1.8250
 5932TIP3   OH239430   0.502   2.900   7.346 -0.3326 -0.6555  0.3167
 5932TIP3    H139431   0.526   2.867   7.433 -0.2942 -1.8069 -0.1222
 5932TIP3    H239432   0.532   2.991   7.347 -0.4446 -0.6054  1.5488
 5933TIP3   OH239433   6.533   4.575   0.167 -0.4543  0.1902 -0.2028
 5933TIP3    H139434   6.534   4.492   0.119 -0.3452  1.6942 -3.0643
 5933TIP3    H239435   6.601   4.627   0.125  0.1803  1.4227  2.2033
 5934TIP3   OH239436   4.424   6.313   6.329  0.0330  0.4678  0.2189
 5934TIP3    H139437   4.348   6.255   6.327  0.8665 -0.6604 -0.2900
 5934TIP3    H239438   4.499   6.254   6.316  1.3308  1.0608  3.8816
 5935TIP3   OH239439   0.760   4.487   8.341 -0.4455 -0.4417  0.1605
 5935TIP3    H139440   0.754   4.572   8.385  1.4339 -0.3207  0.2350
 5935TIP3    H239441   0.748   4.507   8.249 -0.9158 -0.2337  0.2610
 5936TIP3   OH239442   5.659   1.754   1.155  0.0506 -0.0501  0.1221
 5936TIP3    H139443   5.685   1.714   1.072  1.1744  1.1741 -0.1507
 5936TIP3    H239444   5.717   1.713   1.220 -1.3929 -1.6256  0.4788
 5937TIP3   OH239445   5.735   3.188   8.565  0.1228 -0.4854  0.1783
 5937TIP3    H139446   5.796   3.253   8.598 -1.1898  0.7534  0.2535
 5937TIP3    H239447   5.652   3.208   8.608 -0.4266 -1.9646 -0.1099
 5938TIP3   OH239448   1.285   0.635   1.077 -0.6856  0.0755 -0.1539
 5938TIP3    H139449   1.316   0.629   1.167 -0.4894  2.6035  0.0107
 5938TIP3    H239450   1.205   0.583   1.076 -0.6121 -0.1254  1.4331
 5939TIP3   OH239451   2.804   2.979   7.152  0.0887  0.4356  0.2538
 5939TIP3    H139452   2.780   3.068   7.180 -0.5350  0.1527  0.6383
 5939TIP3    H239453   2.893   2.988   7.119  0.8808  0.8044  2.3223
 5940TIP3   OH239454   3.123   3.609   7.201  0.0936  0.0840 -0.5766
 5940TIP3    H139455   3.067   3.678   7.166  0.8699 -0.2944 -2.7324
 5940TIP3    H239456   3.180   3.585   7.128  3.2092  0.5357  1.5142
 5941TIP3   OH239457   3.648   6.488   7.362 -0.0764  0.3074  0.1343
 5941TIP3    H139458   3.709   6.483   7.435  0.3104 -2.1432 -0.2779
 5941TIP3    H239459   3.702   6.482   7.283 -0.4895  2.8539 -0.4697
 5942TIP3   OH239460   0.887   6.426   1.953  0.4679  0.1241 -0.3498
 5942TIP3    H139461   0.946   6.494   1.921  0.4900  0.5000  0.4678
 5942TIP3    H239462   0.870   6.450   2.044  1.5128 -1.6780  0.3672
 5943TIP3   OH239463   5.209   5.001   0.160  0.4068 -0.0361 -0.1013
 5943TIP3    H139464   5.285   4.968   0.209 -1.7003 -1.0398  2.7931
 5943TIP3    H239465   5.198   4.939   0.088  0.9191 -1.3673  0.9138
 5944TIP3   OH239466   3.813   0.119   7.280 -0.1189  0.0490 -0.5077
 5944TIP3    H139467   3.730   0.073   7.266 -0.4698  1.1342 -2.3274
 5944TIP3    H239468   3.808   0.149   7.371 -0.3912 -2.3792  0.3451
 5945TIP3   OH239469   6.902   2.583   2.683  0.1498  0.0497 -0.5832
 5945TIP3    H139470   6.821   2.543   2.653  0.7756 -0.4741 -1.6233
 5945TIP3    H239471   6.965   2.511   2.685  1.5849  1.0678 -3.5324
 5946TIP3   OH239472   1.994   3.780   1.230 -0.2276 -0.2107  0.3870
 5946TIP3    H139473   1.948   3.724   1.293 -1.3492 -0.3729 -0.5443
 5946TIP3    H239474   1.971   3.869   1.256 -1.3018 -0.2920 -0.1979
 5947TIP3   OH239475   5.716   5.322   1.962  0.2380  0.2552  0.4256
 5947TIP3    H139476   5.669   5.401   1.937  0.8717  0.1653 -1.2401
 5947TIP3    H239477   5.808   5.348   1.962  0.5622 -0.6808 -1.2708
 5948TIP3   OH239478   2.313   1.719   6.718  0.0924  0.1345 -0.0018
 5948TIP3    H139479   2.333   1.688   6.806 -0.0818 -2.2055 -0.7278
 5948TIP3    H239480   2.304   1.640   6.666  0.9521  1.4767 -2.3297
 5949TIP3   OH239481   2.660   2.598   6.503 -0.0580 -0.6329  0.0670
 5949TIP3    H139482   2.750   2.621   6.483  0.3662 -1.6204  0.7705
 5949TIP3    H239483   2.619   2.681   6.527  1.2479 -0.4528  1.8720
 5950TIP3   OH239484   3.433   0.489   2.167  0.1053  0.1014  0.2533
 5950TIP3    H139485   3.497   0.516   2.102  0.9567 -0.3250  0.8982
 5950TIP3    H239486   3.354   0.538   2.144 -0.1559 -1.2863 -2.1134
 5951TIP3   OH239487   3.404   5.105   2.004  0.5039 -0.4350 -0.1463
 5951TIP3    H139488   3.389   5.012   2.021 -0.8053  0.2787  3.4076
 5951TIP3    H239489   3.485   5.126   2.049 -0.5611  0.6070  1.3896
 5952TIP3   OH239490   3.331   4.878   7.071  0.7115  0.3320  0.0650
 5952TIP3    H139491   3.333   4.784   7.053 -2.4448 -0.4243  2.7900
 5952TIP3    H239492   3.240   4.904   7.055  0.9294  2.3638  1.6487
 5953TIP3   OH239493   3.150   2.432   7.980 -0.3202 -0.4222 -0.9917
 5953TIP3    H139494   3.150   2.524   8.005  3.7105 -0.7221  0.8759
 5953TIP3    H239495   3.214   2.427   7.908 -1.2511 -1.6762 -1.7734
 5954TIP3   OH239496   4.281   2.447   1.646 -0.3211 -0.0481  0.2047
 5954TIP3    H139497   4.191   2.424   1.669 -1.0374  2.9106  0.6710
 5954TIP3    H239498   4.272   2.513   1.578  1.4937  0.7166  0.6579
 5955TIP3   OH239499   5.963   0.003   7.585  0.0269 -0.5050 -0.2979
 5955TIP3    H139500   5.991   0.047   7.666 -1.1985 -2.8197  1.4990
 5955TIP3    H239501   5.869   0.021   7.579 -0.2887 -1.9640 -0.0794
 5956TIP3   OH239502   5.547   0.850   7.605  0.1651 -0.2681  0.6676
 5956TIP3    H139503   5.489   0.814   7.538 -1.3535  3.1609 -0.0743
 5956TIP3    H239504   5.491   0.858   7.682  0.7934 -0.4789  1.1563
 5957TIP3   OH239505   0.025   0.771   1.131 -0.0854  0.3473  0.2712
 5957TIP3    H139506   0.002   0.739   1.044  1.0671  2.0457 -0.7326
 5957TIP3    H239507   0.109   0.729   1.151 -0.3205  0.0040  0.5503
 5958TIP3   OH239508   0.211   3.266   1.243 -0.2735 -0.2980  0.0589
 5958TIP3    H139509   0.143   3.265   1.310  0.1183 -0.5267  0.4619
 5958TIP3    H239510   0.254   3.180   1.251  1.0138  0.3815  0.8093
 5959TIP3   OH239511   1.566   4.606   6.823  0.1447  0.4775 -0.0944
 5959TIP3    H139512   1.530   4.532   6.774 -0.7866  0.5602  0.4459
 5959TIP3    H239513   1.491   4.664   6.837 -0.0051 -0.2539  2.7355
 5960TIP3   OH239514   3.084   3.288   7.852 -0.1861  0.0729 -0.0520
 5960TIP3    H139515   3.044   3.229   7.916  0.5891 -0.8392 -0.3856
 5960TIP3    H239516   3.019   3.295   7.782 -0.1789 -0.6220 -0.1382
 5961TIP3   OH239517   4.046   0.629   6.707  0.3310 -0.1027 -0.8590
 5961TIP3    H139518   4.101   0.559   6.673 -1.8931 -1.1246 -2.6275
 5961TIP3    H239519   4.053   0.700   6.643 -0.6904 -0.4297 -1.3687
 5962TIP3   OH239520   0.764   4.776   8.387 -1.1870 -0.1600 -0.9041
 5962TIP3    H139521   0.801   4.810   8.468  1.0161  0.4008 -2.0577
 5962TIP3    H239522   0.670   4.784   8.398 -0.8874  2.4643  0.5266
 5963TIP3   OH239523   4.491   4.429   7.402  0.0976  0.1644 -1.0848
 5963TIP3    H139524   4.431   4.453   7.472  0.5048 -2.2017  0.1610
 5963TIP3    H239525   4.564   4.490   7.411 -0.2978  0.5039 -0.0681
 5964TIP3   OH239526   4.710   6.527   8.262 -0.0262  0.2629 -0.0505
 5964TIP3    H139527   4.742   6.443   8.295 -0.0233 -0.2901 -1.4040
 5964TIP3    H239528   4.620   6.532   8.295  0.2457  0.1384  0.7452
 5965TIP3   OH239529   2.711   1.677   0.585 -0.0832 -0.0213  0.8794
 5965TIP3    H139530   2.628   1.712   0.552  0.2183  0.9569  1.1196
 5965TIP3    H239531   2.718   1.590   0.547 -0.5450  0.4435 -0.2904
 5966TIP3   OH239532   5.797   2.002   0.877  0.3431  0.3272 -0.6359
 5966TIP3    H139533   5.712   1.977   0.840 -0.5752  0.5844  1.2006
 5966TIP3    H239534   5.778   2.028   0.967  2.5711 -0.9046  0.2787
 5967TIP3   OH239535   5.563   6.820   7.656 -0.4249  0.2031  0.1925
 5967TIP3    H139536   5.602   6.742   7.695  0.8510  0.6583 -0.1285
 5967TIP3    H239537   5.468   6.805   7.661 -0.2050 -1.2067  0.4351
 5968TIP3   OH239538   0.039   2.482   0.043  0.1865  0.3723  0.2579
 5968TIP3    H139539   0.082   2.554   0.091 -1.4776  2.0384 -0.6107
 5968TIP3    H239540   0.030   2.515  -0.046 -2.6380  0.0847  0.3296
 5969TIP3   OH239541   2.885   2.092   2.357 -0.5135  0.0797 -0.2070
 5969TIP3    H139542   2.933   2.106   2.275 -1.6308 -1.2770 -1.1456
 5969TIP3    H239543   2.839   2.174   2.372  1.2243  1.0312  0.1408
 5970TIP3   OH239544   2.444   5.377   6.258  0.0617  0.1123 -0.5878
 5970TIP3    H139545   2.408   5.430   6.329 -0.3057  0.0674 -0.7418
 5970TIP3    H239546   2.527   5.420   6.237 -0.1812  0.5686 -0.6390
 5971TIP3   OH239547   0.487   6.362   7.407 -0.1133 -0.1865  0.4535
 5971TIP3    H139548   0.569   6.315   7.420 -0.5913 -1.0383  0.4137
 5971TIP3    H239549   0.495   6.439   7.464  1.7103  1.0469 -1.3579
 5972TIP3   OH239550   5.460   3.132   8.052  0.2648  0.2461  0.1626
 5972TIP3    H139551   5.393   3.168   8.110 -1.1056 -0.6279 -0.8518
 5972TIP3    H239552   5.412   3.097   7.977  1.7283 -1.6648  0.0523
 5973TIP3   OH239553   5.039   3.377   7.934  0.0973 -0.3048  0.0701
 5973TIP3    H139554   5.029   3.312   8.004  1.8686  0.6950  1.3097
 5973TIP3    H239555   5.067   3.325   7.858  3.8860 -0.8864  1.6434
 5974TIP3   OH239556   0.031   3.178   0.245  0.6383  0.1306  0.1452
 5974TIP3    H139557   0.066   3.198   0.332  0.3675 -0.7777  0.4777
 5974TIP3    H239558  -0.062   3.162   0.260  0.2335  1.6391 -0.5867
 5975TIP3   OH239559   6.310   3.375   2.015  0.0627  0.0005 -0.5267
 5975TIP3    H139560   6.343   3.465   2.018 -2.4520  0.9677  0.1967
 5975TIP3    H239561   6.379   3.323   2.055  1.1033  1.7669  0.0777
 5976TIP3   OH239562   4.731   1.021   7.957  0.2258  0.7513 -0.2722
 5976TIP3    H139563   4.787   1.096   7.937 -0.3827  1.0891 -0.7394
 5976TIP3    H239564   4.716   1.027   8.051 -0.6935  1.8546 -0.4645
 5977TIP3   OH239565   5.964   3.859   6.473 -0.1039 -0.7767  0.2409
 5977TIP3    H139566   5.893   3.893   6.527 -0.3723  2.4219 -1.8427
 5977TIP3    H239567   5.926   3.785   6.426 -2.2138  0.9091 -0.9049
 5978TIP3   OH239568   5.051   1.724   8.534  0.2669 -0.0615  0.2841
 5978TIP3    H139569   4.993   1.710   8.459  0.6481  1.2622 -0.2735
 5978TIP3    H239570   5.008   1.678   8.606 -0.8665 -0.0985 -0.3944
 5979TIP3   OH239571   2.880   5.015   6.734 -0.0170 -0.0812 -0.3818
 5979TIP3    H139572   2.800   4.994   6.687 -0.5103 -1.3500  0.9583
 5979TIP3    H239573   2.939   4.942   6.713  0.1875 -0.0191 -0.0237
 5980TIP3   OH239574   1.849   0.548   1.834 -0.0239  0.2375  0.1181
 5980TIP3    H139575   1.937   0.564   1.800 -0.5166 -0.1914 -1.4789
 5980TIP3    H239576   1.859   0.473   1.893  0.8382  0.8257  0.7224
 5981TIP3   OH239577   5.450   2.253   7.384  0.0117 -0.0641 -0.2320
 5981TIP3    H139578   5.398   2.235   7.463  0.6096 -2.1102 -0.2529
 5981TIP3    H239579   5.541   2.246   7.414  0.2737  1.1914 -0.6884
 5982TIP3   OH239580   6.189   0.311   2.091  0.6722  0.2767 -0.3942
 5982TIP3    H139581   6.139   0.351   2.162 -1.6292 -1.7550 -0.7137
 5982TIP3    H239582   6.192   0.378   2.023  2.0455  1.9005  1.1473
 5983TIP3   OH239583   5.606   3.801   7.086  0.5383 -0.3784 -0.4036
 5983TIP3    H139584   5.561   3.743   7.146 -0.5361 -0.5130 -1.3064
 5983TIP3    H239585   5.665   3.744   7.037  0.0370 -0.5923 -0.7667
 5984TIP3   OH239586   6.225   0.279   7.769  0.0063  0.0494 -0.4460
 5984TIP3    H139587   6.136   0.247   7.784 -0.1703  1.1444  1.1293
 5984TIP3    H239588   6.279   0.201   7.767 -1.0152 -0.6556 -1.7421
 5985TIP3   OH239589   1.984   5.065   0.972 -0.0195 -0.2960 -0.2223
 5985TIP3    H139590   2.011   4.973   0.975  0.4545 -0.1345  0.8333
 5985TIP3    H239591   1.944   5.075   0.886  4.5177 -0.2378 -2.6326
 5986TIP3   OH239592   6.109   0.405   0.391  0.2269 -0.0399 -0.4954
 5986TIP3    H139593   6.029   0.405   0.339 -0.2123  2.0749  0.0985
 5986TIP3    H239594   6.139   0.496   0.389  1.7235 -0.4682  0.6586
 5987TIP3   OH239595   1.541   2.526   7.266 -0.2301  0.5917 -0.0693
 5987TIP3    H139596   1.513   2.532   7.357 -1.6909  0.8797 -0.5013
 5987TIP3    H239597   1.459   2.527   7.216  0.5751  3.2705 -1.5417
 5988TIP3   OH239598   1.899   5.115   0.687 -0.1932  0.5395 -0.2236
 5988TIP3    H139599   1.963   5.102   0.618 -0.3931 -0.0248 -0.3072
 5988TIP3    H239600   1.890   5.210   0.694  0.8391  0.6288 -0.0259
 5989TIP3   OH239601   1.289   1.971   7.793 -0.5431 -0.4866 -0.2765
 5989TIP3    H139602   1.212   1.950   7.740 -0.2372 -0.1572 -0.8665
 5989TIP3    H239603   1.363   1.958   7.734 -0.1054 -1.2769  0.4265
 5990TIP3   OH239604   6.437   3.286   0.202 -0.0914  0.3061  0.6327
 5990TIP3    H139605   6.444   3.311   0.110 -0.7832  0.6628  0.6703
 5990TIP3    H239606   6.348   3.249   0.209  0.5476 -1.3046  0.7840
 5991TIP3   OH239607   1.906   0.194   8.599 -0.4751 -0.4298 -0.5874
 5991TIP3    H139608   1.875   0.276   8.560 -0.6694  0.1682  0.7838
 5991TIP3    H239609   1.898   0.130   8.528 -0.5089  0.6864 -1.6239
 5992TIP3   OH239610   4.117   1.395   0.573  0.4318  0.3330  0.1964
 5992TIP3    H139611   4.139   1.435   0.657  2.1398  3.2188 -1.4455
 5992TIP3    H239612   4.201   1.383   0.529 -0.4330 -0.7973 -1.2542
 5993TIP3   OH239613   3.801   1.889   7.397  0.6064  0.6265  0.6508
 5993TIP3    H139614   3.867   1.942   7.351  1.0674 -0.4593  0.0372
 5993TIP3    H239615   3.833   1.884   7.487  1.0392  0.6239  0.4997
 5994TIP3   OH239616   5.961   0.964   7.820  0.2571  0.3717 -0.4564
 5994TIP3    H139617   5.977   0.874   7.847  0.0745  0.1537 -1.0449
 5994TIP3    H239618   5.952   0.959   7.724 -0.6935  0.8724 -0.4091
 5995TIP3   OH239619   1.591   6.551   0.148  0.0691  0.1062 -0.5807
 5995TIP3    H139620   1.511   6.545   0.096 -0.1702  0.5103 -0.2691
 5995TIP3    H239621   1.569   6.507   0.230 -0.8354  2.6847  0.6800
 5996TIP3   OH239622   3.644   6.734   1.699  0.5135  0.1879  0.2357
 5996TIP3    H139623   3.590   6.656   1.686  0.1392  0.4262  0.3408
 5996TIP3    H239624   3.726   6.701   1.737 -0.2554  0.0098  1.8043
 5997TIP3   OH239625   0.918   5.810   6.875 -0.0278 -0.2647  0.0757
 5997TIP3    H139626   0.895   5.855   6.956 -1.3324  2.0744 -1.4664
 5997TIP3    H239627   0.838   5.763   6.850  0.4401 -1.1662  0.2097
 5998TIP3   OH239628   2.676   2.967   8.482 -0.2864 -0.1188 -0.5619
 5998TIP3    H139629   2.706   2.883   8.517  1.4400  0.8826  0.4817
 5998TIP3    H239630   2.741   3.031   8.512 -1.7969  1.6863 -0.9126
 5999TIP3   OH239631   3.294   2.538   2.555  0.6975 -0.5139 -0.3605
 5999TIP3    H139632   3.384   2.511   2.541  0.2838 -1.4931 -1.2612
 5999TIP3    H239633   3.299   2.633   2.566  1.8646 -0.5941 -0.0644
 6000TIP3   OH239634   4.254   3.363   0.448  0.2838  0.1615  0.1906
 6000TIP3    H139635   4.215   3.321   0.525 -0.4604  1.2049  0.4080
 6000TIP3    H239636   4.241   3.299   0.378  0.5960 -0.6292  0.8349
 6001TIP3   OH239637   3.617   1.363   0.384 -0.1232  0.3449  0.2767
 6001TIP3    H139638   3.702   1.384   0.423 -0.0009 -0.5881  0.5291
 6001TIP3    H239639   3.581   1.295   0.441 -0.2773 -0.5132 -0.8184
 6002TIP3   OH239640   4.048   4.196   7.881  0.6388  0.2629  0.2556
 6002TIP3    H139641   4.066   4.103   7.867  0.9055  0.2207  0.8635
 6002TIP3    H239642   3.961   4.209   7.843  0.7942 -0.1285 -0.2493
 6003TIP3   OH239643   2.814   4.289   8.573 -0.2287  0.3103 -0.3944
 6003TIP3    H139644   2.869   4.355   8.615  1.8496 -2.0565  0.8701
 6003TIP3    H239645   2.869   4.253   8.503  0.2078 -2.4618  1.2149
 6004TIP3   OH239646   4.115   0.703   0.229  0.2978  1.2190 -0.0395
 6004TIP3    H139647   4.125   0.699   0.324  1.4421 -1.0851 -0.2041
 6004TIP3    H239648   4.204   0.712   0.196  0.0284  0.7056 -0.9311
 6005TIP3   OH239649   1.231   4.175   1.600 -0.4575 -0.1034 -0.2461
 6005TIP3    H139650   1.244   4.112   1.529 -1.0995  1.0763 -1.4545
 6005TIP3    H239651   1.284   4.141   1.672 -1.9557 -2.8474 -0.3012
 6006TIP3   OH239652   4.405   4.061   7.992 -0.3056 -0.2686 -0.2644
 6006TIP3    H139653   4.382   3.999   7.923 -0.6554 -1.4294  0.8467
 6006TIP3    H239654   4.364   4.025   8.071 -3.1147  2.9199 -0.0266
 6007TIP3   OH239655   6.131   4.687   0.533 -0.2733  0.4557  0.3865
 6007TIP3    H139656   6.056   4.641   0.570 -0.5672  0.6880  0.0808
 6007TIP3    H239657   6.183   4.618   0.492  0.2330  0.1436  1.5067
 6008TIP3   OH239658   5.910   4.481   1.995  0.3357 -0.0845 -0.2804
 6008TIP3    H139659   5.952   4.560   2.029 -0.7245  0.1846  0.4353
 6008TIP3    H239660   5.950   4.410   2.044  2.4567 -0.2111 -2.0090
 6009TIP3   OH239661   3.632   3.882   0.352  0.2318 -0.1431  0.0491
 6009TIP3    H139662   3.563   3.894   0.418 -1.0019 -0.1866 -1.1747
 6009TIP3    H239663   3.712   3.872   0.402 -0.7974 -1.1362  1.5838
 6010TIP3   OH239664   0.842   3.958   1.510  0.0805  0.1974 -0.6635
 6010TIP3    H139665   0.784   3.882   1.504  0.3301  0.0709 -1.5677
 6010TIP3    H239666   0.910   3.930   1.572 -0.1498 -0.0960 -0.5393
 6011TIP3   OH239667   0.324   2.995   2.318 -0.5409  0.5390 -0.0812
 6011TIP3    H139668   0.289   3.084   2.312  0.3880  0.8049 -2.1995
 6011TIP3    H239669   0.262   2.941   2.268 -0.4775  0.1817  0.2189
 6012TIP3   OH239670   3.088   0.346   6.850 -0.2028  0.7437 -0.6010
 6012TIP3    H139671   3.024   0.372   6.783 -1.6166  0.6397  0.6618
 6012TIP3    H239672   3.167   0.395   6.828 -0.4926  0.4170 -2.5606
 6013TIP3   OH239673   2.435   4.717   7.362  0.1891 -0.2519  0.4835
 6013TIP3    H139674   2.422   4.780   7.292 -1.1254  0.6068  1.4657
 6013TIP3    H239675   2.370   4.740   7.428  0.9873 -1.4169  1.7290
 6014TIP3   OH239676   1.001   4.709   0.012  0.1620 -0.5732  0.4838
 6014TIP3    H139677   1.003   4.632  -0.046 -0.0454 -0.6398  0.5655
 6014TIP3    H239678   0.986   4.673   0.099 -0.1659 -0.4217  0.4902
 6015TIP3   OH239679   6.137   1.636   1.577 -0.8768 -0.2030  0.1570
 6015TIP3    H139680   6.078   1.586   1.634 -0.1315 -0.2176  0.9392
 6015TIP3    H239681   6.225   1.617   1.611 -0.4702  0.3638 -0.5519
 6016TIP3   OH239682   5.777   6.405   7.238 -0.1307  0.5538 -1.0967
 6016TIP3    H139683   5.820   6.371   7.159  0.3262  0.1454 -0.6777
 6016TIP3    H239684   5.687   6.419   7.212 -0.4333 -1.2908 -1.2173
 6017TIP3   OH239685   6.665   2.473   2.560 -0.1887  0.4148 -0.6467
 6017TIP3    H139686   6.625   2.509   2.639  0.9381  0.3185 -0.0092
 6017TIP3    H239687   6.609   2.400   2.535 -1.1932  1.1579 -0.6075
 6018TIP3   OH239688   0.250   3.954   0.471 -0.1616  0.2326 -0.1985
 6018TIP3    H139689   0.163   3.921   0.493 -0.1496 -0.1178 -0.6469
 6018TIP3    H239690   0.290   3.977   0.555 -0.3458 -0.4662  0.0888
 6019TIP3   OH239691   2.523   0.764   2.029  0.3617 -0.4462 -0.0936
 6019TIP3    H139692   2.514   0.817   1.950 -2.2012 -3.1001 -1.8198
 6019TIP3    H239693   2.435   0.765   2.069  1.2927 -0.1598  2.1213
 6020TIP3   OH239694   1.723   0.345   8.438  0.2697 -0.3558  0.3950
 6020TIP3    H139695   1.651   0.285   8.457 -0.8283  1.0874  0.9864
 6020TIP3    H239696   1.710   0.419   8.497  2.6290 -0.3134  0.9655
 6021TIP3   OH239697   6.335   1.520   6.249 -0.6718  0.5385  0.0709
 6021TIP3    H139698   6.309   1.612   6.255  0.4849  1.0473 -1.7996
 6021TIP3    H239699   6.254   1.473   6.232 -0.9478  1.5807 -1.6661
 6022TIP3   OH239700   5.680   3.533   0.852 -0.0942  0.8224 -0.3063
 6022TIP3    H139701   5.589   3.555   0.872 -1.1268 -2.5667 -0.5532
 6022TIP3    H239702   5.693   3.447   0.892  1.2673 -1.2755 -4.6210
 6023TIP3   OH239703   6.153   2.526   1.185 -0.3592 -0.1622  0.0501
 6023TIP3    H139704   6.081   2.589   1.174 -0.1669  0.0645  0.0913
 6023TIP3    H239705   6.111   2.449   1.224 -1.0765 -0.9781 -2.1239
 6024TIP3   OH239706   2.723   4.689   6.768  0.4332  0.0369  0.3559
 6024TIP3    H139707   2.647   4.712   6.714 -0.6528 -1.0913  1.3387
 6024TIP3    H239708   2.765   4.618   6.720 -0.6784 -1.1412  1.0322
 6025TIP3   OH239709   5.446   2.219   1.091  0.0620 -0.5283  0.0704
 6025TIP3    H139710   5.357   2.252   1.105 -0.6512 -2.9106  1.7935
 6025TIP3    H239711   5.457   2.220   0.996 -1.7512 -0.0728 -0.1772
 6026TIP3   OH239712   0.730   2.298   8.414 -0.2055 -0.4118  0.2677
 6026TIP3    H139713   0.741   2.289   8.509  0.8627  1.9300  0.4245
 6026TIP3    H239714   0.779   2.225   8.377 -0.3118 -1.1372  1.4834
 6027TIP3   OH239715   6.928   6.496   0.912  0.1092 -0.2933  0.0910
 6027TIP3    H139716   7.017   6.492   0.876  0.0870 -1.5734  0.1306
 6027TIP3    H239717   6.941   6.513   1.005  0.4014 -1.7608  0.3467
 6028TIP3   OH239718   3.310   5.073   1.282 -0.0383  0.3465 -0.1486
 6028TIP3    H139719   3.338   5.104   1.196 -1.7535 -1.3251 -1.4167
 6028TIP3    H239720   3.315   4.978   1.276  0.2176  0.1982  1.7788
 6029TIP3   OH239721   4.088   6.330   1.880  0.1686 -0.1888  0.1127
 6029TIP3    H139722   4.155   6.362   1.939  0.4093 -0.4817 -0.0006
 6029TIP3    H239723   4.070   6.241   1.910  0.5722 -0.4783 -0.4910
 6030TIP3   OH239724   6.355   6.749   6.675 -0.0881 -0.6116  0.3161
 6030TIP3    H139725   6.424   6.793   6.626 -0.5550 -0.1940  0.0226
 6030TIP3    H239726   6.286   6.733   6.610 -0.3944 -0.7392  0.6703
 6031TIP3   OH239727   0.553   5.024   7.447 -0.1180  0.6819 -0.0528
 6031TIP3    H139728   0.518   4.955   7.390 -0.8067  0.3670  0.7366
 6031TIP3    H239729   0.613   5.073   7.391 -0.4328  0.0951 -0.9207
 6032TIP3   OH239730   3.197   4.554   1.265 -0.4587 -0.2727  0.3646
 6032TIP3    H139731   3.105   4.534   1.246 -0.2462 -1.4998  0.5474
 6032TIP3    H239732   3.222   4.489   1.331 -0.0820  1.4402  1.9781
 6033TIP3   OH239733   4.491   0.225   6.336 -0.3799  0.5475 -0.2693
 6033TIP3    H139734   4.454   0.205   6.250  2.2200 -0.8744 -1.1714
 6033TIP3    H239735   4.470   0.149   6.390 -0.9287  0.8797 -0.0070
 6034TIP3   OH239736   4.307   2.133   1.322  0.0959 -0.5712 -0.4601
 6034TIP3    H139737   4.228   2.187   1.320 -0.2975 -0.8477  2.5045
 6034TIP3    H239738   4.275   2.044   1.334  0.8327 -0.8121 -0.2447
 6035TIP3   OH239739   3.824   0.349   8.271 -0.2932 -0.2236 -0.9882
 6035TIP3    H139740   3.751   0.337   8.332 -0.0961 -2.5325 -1.1023
 6035TIP3    H239741   3.887   0.403   8.319 -0.1076 -2.0277  0.9635
 6036TIP3   OH239742   6.693   4.990   8.311 -0.2247  0.0609  0.3848
 6036TIP3    H139743   6.696   5.084   8.293 -1.5662 -0.1713 -1.3910
 6036TIP3    H239744   6.600   4.971   8.323 -0.0260 -1.1275  0.1604
 6037TIP3   OH239745   0.893   6.232   1.290  0.6038 -0.1439  0.0215
 6037TIP3    H139746   0.879   6.183   1.371  1.9402  0.4312  0.6328
 6037TIP3    H239747   0.820   6.208   1.234 -1.0586  0.3658  1.8494
 6038TIP3   OH239748   4.956   5.529   0.904 -0.0565  0.4744 -0.1776
 6038TIP3    H139749   4.901   5.519   0.827 -0.6690 -1.9321  0.4625
 6038TIP3    H239750   5.033   5.475   0.886 -0.4563 -0.5728  1.0416
 6039TIP3   OH239751   4.338   2.903   0.594 -0.4583 -0.1541  0.4068
 6039TIP3    H139752   4.255   2.950   0.595  0.0680  0.8592 -0.6430
 6039TIP3    H239753   4.317   2.817   0.557 -1.1910 -0.2557  1.0366
 6040TIP3   OH239754   0.557   3.309   0.077  0.6781  0.1385 -0.1281
 6040TIP3    H139755   0.469   3.333   0.106  1.2650  1.2694  0.7618
 6040TIP3    H239756   0.543   3.231   0.023 -1.1362  1.5519 -1.8721
 6041TIP3   OH239757   2.930   5.080   7.938 -0.1414 -0.1876  0.6598
 6041TIP3    H139758   2.879   5.058   7.861 -1.1441  1.4006  0.8381
 6041TIP3    H239759   3.020   5.089   7.906 -0.1088 -1.9544  0.1588
 6042TIP3   OH239760   3.662   0.189   0.476 -0.1963 -0.2670  0.3384
 6042TIP3    H139761   3.614   0.253   0.528 -1.6149 -0.6547 -0.4561
 6042TIP3    H239762   3.656   0.108   0.527 -0.8836 -0.4508 -0.0287
 6043TIP3   OH239763   2.653   6.645   8.283 -0.4435  0.2165  0.5898
 6043TIP3    H139764   2.601   6.709   8.235  0.7225  0.2604 -0.6620
 6043TIP3    H239765   2.639   6.563   8.236 -0.6212 -0.1081  1.1993
 6044TIP3   OH239766   3.644   2.247   0.805  0.2547  0.4857  0.0531
 6044TIP3    H139767   3.658   2.334   0.768  0.6966  0.0496 -0.8312
 6044TIP3    H239768   3.634   2.262   0.899  2.0820  1.3068  0.1498
 6045TIP3   OH239769   5.310   2.888   1.171 -0.0559 -0.1098 -0.4512
 6045TIP3    H139770   5.347   2.849   1.091 -0.2802  0.7939 -1.0118
 6045TIP3    H239771   5.383   2.937   1.209  0.4132 -1.5605  0.6081
 6046TIP3   OH239772   0.677   3.278   1.901  0.0622  0.2576 -0.0927
 6046TIP3    H139773   0.584   3.273   1.922 -0.5755  0.0347 -2.6025
 6046TIP3    H239774   0.696   3.371   1.894 -0.2324  0.2897 -0.5026
 6047TIP3   OH239775   5.012   4.818   8.348 -0.2689 -0.1707 -0.2129
 6047TIP3    H139776   5.061   4.776   8.277 -0.5784  1.4537 -1.4235
 6047TIP3    H239777   4.930   4.769   8.353  0.1387 -0.8807 -0.3268
 6048TIP3   OH239778   3.615   2.681   7.096  0.3226 -0.1121 -0.3145
 6048TIP3    H139779   3.681   2.741   7.129  0.9255  0.1195 -1.8429
 6048TIP3    H239780   3.630   2.599   7.143 -1.3997  1.2140  2.8617
 6049TIP3   OH239781   3.134   6.668   8.575  0.5312 -0.2308  0.0636
 6049TIP3    H139782   3.205   6.609   8.598  0.9492 -0.2326 -1.1715
 6049TIP3    H239783   3.099   6.633   8.493 -1.8369 -1.0537  1.3326
 6050TIP3   OH239784   0.296   1.616   1.569  0.1662 -0.3615  0.0184
 6050TIP3    H139785   0.340   1.636   1.651 -0.0642 -4.7489  1.5126
 6050TIP3    H239786   0.362   1.572   1.516 -0.8481 -1.9115 -0.0541
 6051TIP3   OH239787   4.945   4.832   1.497 -0.5947  0.4647 -0.2236
 6051TIP3    H139788   4.855   4.799   1.501 -0.7387  0.7202 -1.1065
 6051TIP3    H239789   5.000   4.754   1.487 -0.8074  0.3734 -0.7203
 6052TIP3   OH239790   2.907   6.312   7.540 -0.1730  0.3443  0.4085
 6052TIP3    H139791   2.932   6.395   7.499 -3.0737  1.4159  0.5377
 6052TIP3    H239792   2.914   6.248   7.470 -0.2254  1.1901 -0.3978
 6053TIP3   OH239793   5.009   1.220   7.470  0.2565 -0.2732 -0.2973
 6053TIP3    H139794   4.972   1.143   7.426 -0.2696 -1.3764  1.9296
 6053TIP3    H239795   4.941   1.247   7.531  1.6369  0.0489  1.1547
 6054TIP3   OH239796   0.077   2.077   6.880  0.4983 -0.0214 -0.0251
 6054TIP3    H139797   0.080   1.988   6.846 -3.0465 -0.3681  0.2760
 6054TIP3    H239798   0.010   2.076   6.947  0.0916  2.9484 -0.2355
 6055TIP3   OH239799   3.051   6.281   7.052 -0.2292 -0.4245  0.1147
 6055TIP3    H139800   3.121   6.319   6.998 -0.0710 -1.1268 -0.1838
 6055TIP3    H239801   3.019   6.207   7.001 -1.2052 -0.1063  0.2494
 6056TIP3   OH239802   2.348   2.255   1.528  0.1684  0.3741  0.3611
 6056TIP3    H139803   2.378   2.340   1.496 -0.2251  0.5441  0.4346
 6056TIP3    H239804   2.409   2.192   1.490 -1.2863  0.3659 -2.1790
 6057TIP3   OH239805   0.820   5.445   8.173 -0.0377 -0.0641 -0.2713
 6057TIP3    H139806   0.738   5.422   8.216  0.6904  1.5317  2.1627
 6057TIP3    H239807   0.875   5.368   8.184  0.2456  0.3971  2.1243
 6058TIP3   OH239808   6.682   4.973   2.100  0.1912 -0.2122 -0.5360
 6058TIP3    H139809   6.601   5.025   2.099  0.2604 -0.0993 -0.3037
 6058TIP3    H239810   6.729   5.000   2.022  0.3485  0.2726 -0.2789
 6059TIP3   OH239811   5.222   5.218   1.796  0.5435 -0.7548  0.0247
 6059TIP3    H139812   5.199   5.133   1.834  1.2614  0.4044  3.4972
 6059TIP3    H239813   5.279   5.198   1.723  1.1348 -3.2646  1.0715
 6060TIP3   OH239814   2.736   0.855   0.390  0.6935  0.2910 -0.0054
 6060TIP3    H139815   2.688   0.878   0.470 -0.6984  1.4485 -1.1199
 6060TIP3    H239816   2.710   0.764   0.372 -0.9507  0.7988 -0.4302
 6061TIP3   OH239817   4.525   3.219   0.321  0.1588  0.9053  0.1778
 6061TIP3    H139818   4.517   3.205   0.416  1.2268  1.1812  0.3172
 6061TIP3    H239819   4.602   3.274   0.311  0.8429 -0.2101 -0.9472
 6062TIP3   OH239820   5.653   2.622   8.156 -0.2733 -0.4737  0.3260
 6062TIP3    H139821   5.678   2.537   8.193 -0.4131 -1.1209 -0.9825
 6062TIP3    H239822   5.627   2.601   8.066  0.9049  1.1394 -0.4286
 6063TIP3   OH239823   4.803   5.074   8.169 -0.8202 -0.4936 -0.0157
 6063TIP3    H139824   4.716   5.035   8.160 -0.3898 -1.0898 -2.4564
 6063TIP3    H239825   4.863   5.001   8.157 -0.0122  0.3525 -1.4062
 6064TIP3   OH239826   2.569   4.358   7.867  0.2854  0.9299 -0.3166
 6064TIP3    H139827   2.506   4.430   7.871  0.6060  1.2394 -0.8929
 6064TIP3    H239828   2.542   4.300   7.938  0.4356  1.9447  0.5987
 6065TIP3   OH239829   2.489   0.823   7.163  0.1280  0.1254  0.0567
 6065TIP3    H139830   2.506   0.749   7.220  0.8634  0.7114  0.6145
 6065TIP3    H239831   2.407   0.801   7.120 -0.4894 -0.3046  1.3904
 6066TIP3   OH239832   1.400   3.358   0.342  0.6695 -0.6034  0.0946
 6066TIP3    H139833   1.309   3.351   0.371  1.0091 -1.3041  1.0458
 6066TIP3    H239834   1.424   3.449   0.358 -0.2082 -0.0891 -1.2873
 6067TIP3   OH239835   3.569   5.019   0.874 -1.1198  0.2942  0.7203
 6067TIP3    H139836   3.601   5.106   0.850 -1.0694  0.5444  1.6445
 6067TIP3    H239837   3.569   4.970   0.792 -0.4977  0.9600  0.3096
 6068TIP3   OH239838   4.462   2.266   7.615 -0.4121  0.6505 -0.0395
 6068TIP3    H139839   4.394   2.301   7.557  0.9397  2.4107 -0.6552
 6068TIP3    H239840   4.415   2.240   7.694 -1.9725  0.4992 -0.9686
 6069TIP3   OH239841   0.234   2.786   7.722 -0.0600 -0.4375 -0.2514
 6069TIP3    H139842   0.210   2.847   7.652  1.2872  1.1382  0.5799
 6069TIP3    H239843   0.329   2.775   7.713 -0.3781 -3.3329 -1.0316
 6070TIP3   OH239844   0.925   2.648   2.035 -0.1499  0.7182  0.0130
 6070TIP3    H139845   1.009   2.688   2.012 -0.5705  2.7293  1.6255
 6070TIP3    H239846   0.892   2.701   2.108 -2.2485 -0.7739  0.2623
 6071TIP3   OH239847   2.785   3.652   0.246 -0.1839  0.3555 -0.3891
 6071TIP3    H139848   2.855   3.651   0.181  0.7042  2.2525  0.4776
 6071TIP3    H239849   2.736   3.732   0.228 -0.0285  0.8331  1.1293
 6072TIP3   OH239850   6.252   1.033   8.302 -0.1973 -0.6271 -0.3571
 6072TIP3    H139851   6.197   1.033   8.381 -0.6411  1.9847 -0.5928
 6072TIP3    H239852   6.189   1.024   8.230  0.2041 -2.9768 -0.5129
 6073TIP3   OH239853   4.070   1.340   2.321  0.1535 -0.2394 -0.1451
 6073TIP3    H139854   4.000   1.405   2.311 -0.6393 -0.9269  0.6989
 6073TIP3    H239855   4.132   1.381   2.382  0.2982  0.2221 -0.5963
 6074TIP3   OH239856   2.649   5.375   6.509  0.3572  0.2201  0.1842
 6074TIP3    H139857   2.689   5.399   6.425  2.1306  0.3267  1.0159
 6074TIP3    H239858   2.555   5.372   6.491  0.7315 -0.3684 -1.9499
 6075TIP3   OH239859   1.374   6.123   7.848  0.5593 -0.5022 -0.7333
 6075TIP3    H139860   1.365   6.154   7.938 -0.3481 -1.4392 -0.4810
 6075TIP3    H239861   1.456   6.161   7.817  0.6484  0.2016  0.3353
 6076TIP3   OH239862   2.867   2.371   1.223  0.3178  0.3511  0.6604
 6076TIP3    H139863   2.960   2.351   1.213 -0.1273 -2.5792  1.2689
 6076TIP3    H239864   2.828   2.342   1.140 -0.0828  1.6835  0.3554
 6077TIP3   OH239865   2.385   1.107   0.787  0.4786 -0.1086 -0.0914
 6077TIP3    H139866   2.365   1.018   0.814 -0.0489  0.1231  0.3066
 6077TIP3    H239867   2.416   1.099   0.697  1.1454 -0.7692  0.1901
 6078TIP3   OH239868   5.237   0.123   1.708 -0.1009 -0.1148 -0.1271
 6078TIP3    H139869   5.153   0.079   1.690 -0.4137 -0.5152  2.0244
 6078TIP3    H239870   5.217   0.216   1.702 -0.1369 -0.1977 -1.8121
 6079TIP3   OH239871   2.264   1.117   2.406  0.5351  0.4753 -0.5656
 6079TIP3    H139872   2.192   1.152   2.353  0.5243  1.2858 -0.0311
 6079TIP3    H239873   2.279   1.183   2.473  1.4696  0.0917 -0.3802
 6080TIP3   OH239874   5.889   1.407   8.392  0.5011  0.0096  0.1174
 6080TIP3    H139875   5.835   1.342   8.438 -1.2650  0.7952 -0.7457
 6080TIP3    H239876   5.853   1.492   8.420  0.8833  0.5456 -0.9602
 6081TIP3   OH239877   5.580   4.832   0.968  0.2808  0.4325 -0.2276
 6081TIP3    H139878   5.578   4.777   0.889  0.7311  0.6541 -0.3977
 6081TIP3    H239879   5.657   4.888   0.956  1.7711 -1.1482  1.4894
 6082TIP3   OH239880   6.933   3.594   8.404 -0.1901 -0.1357 -0.5454
 6082TIP3    H139881   6.963   3.503   8.407  0.6427  0.1537  0.5050
 6082TIP3    H239882   7.005   3.645   8.441 -0.5972  0.9810 -1.2121
 6083TIP3   OH239883   6.665   0.632   2.029 -0.1756  0.1985 -0.3225
 6083TIP3    H139884   6.699   0.571   1.963 -1.3453  0.5022 -1.2499
 6083TIP3    H239885   6.587   0.589   2.064 -1.1038  1.2037 -1.1049
 6084TIP3   OH239886   6.363   4.934   8.470  0.4237  0.2480 -0.2704
 6084TIP3    H139887   6.354   4.933   8.375  1.0043  0.5478 -0.3324
 6084TIP3    H239888   6.273   4.936   8.503  0.1029 -2.3301 -0.7464
 6085TIP3   OH239889   1.661   3.336   0.289  0.3272 -0.3375 -0.6199
 6085TIP3    H139890   1.699   3.364   0.206  0.4996 -0.5097 -0.6007
 6085TIP3    H239891   1.568   3.327   0.271  0.5600 -1.8196 -1.2043
 6086TIP3   OH239892   3.292   2.348   2.119 -0.0333  0.3398 -0.2275
 6086TIP3    H139893   3.241   2.427   2.134  1.7834  1.3321  1.1655
 6086TIP3    H239894   3.373   2.361   2.169  1.0408 -1.7013 -1.2667
 6087TIP3   OH239895   1.152   5.693   0.007  0.4533  0.2016  0.0384
 6087TIP3    H139896   1.222   5.631   0.022  1.7926  1.6895  0.2002
 6087TIP3    H239897   1.115   5.710   0.094  1.0446  0.6905  0.2028
 6088TIP3   OH239898   0.922   4.581   0.272 -0.5177  0.3246 -0.2564
 6088TIP3    H139899   0.862   4.519   0.312 -1.3956 -0.1343 -2.1633
 6088TIP3    H239900   1.009   4.551   0.300 -1.0665  0.0710  1.2812
 6089TIP3   OH239901   2.069   0.852   6.913 -0.6311 -0.1236 -0.0804
 6089TIP3    H139902   2.082   0.849   6.818  0.6490  2.0583 -0.0461
 6089TIP3    H239903   2.064   0.945   6.934  0.3771 -0.4928  2.1346
 6090TIP3   OH239904   6.793   1.539   7.649 -0.0463 -0.1613 -0.1759
 6090TIP3    H139905   6.811   1.558   7.741  0.3216 -1.8866  0.1340
 6090TIP3    H239906   6.823   1.617   7.602  0.4745  0.4242  1.0894
 6091TIP3   OH239907   5.811   6.530   0.248 -0.4709 -0.0349  0.1229
 6091TIP3    H139908   5.778   6.544   0.159  0.7916 -1.3823 -0.5928
 6091TIP3    H239909   5.808   6.435   0.260 -0.0510  0.0872  1.2936
 6092TIP3   OH239910   3.777   4.126   7.223  0.2350  0.0100 -0.0330
 6092TIP3    H139911   3.748   4.091   7.307 -0.7704  0.8975  0.0181
 6092TIP3    H239912   3.830   4.056   7.185 -0.8938 -1.1809  0.4855
 6093TIP3   OH239913   3.277   2.768   8.262 -0.0511  1.1559  0.3786
 6093TIP3    H139914   3.255   2.849   8.310  1.6055  1.2280  1.0916
 6093TIP3    H239915   3.370   2.756   8.278  0.0638 -0.0668 -1.0281
 6094TIP3   OH239916   1.816   3.892   0.270 -0.2795 -0.3159  0.3661
 6094TIP3    H139917   1.908   3.900   0.243 -0.6353  0.7503 -0.5874
 6094TIP3    H239918   1.782   3.822   0.215  0.1335 -1.2293  1.2434
 6095TIP3   OH239919   1.114   3.442   1.743 -0.3311 -0.3141 -0.6110
 6095TIP3    H139920   1.152   3.516   1.789  0.7616 -1.1890 -0.0533
 6095TIP3    H239921   1.117   3.466   1.650  2.0432 -0.5215 -0.6290
 6096TIP3   OH239922   2.254   2.057   1.130  0.5053 -0.4013  0.5061
 6096TIP3    H139923   2.298   2.142   1.131 -0.4519  0.1347 -0.7420
 6096TIP3    H239924   2.179   2.069   1.072 -0.7309 -1.5710  1.7779
 6097TIP3   OH239925   4.728   0.492   7.732  0.1702  0.2122 -0.4140
 6097TIP3    H139926   4.641   0.459   7.710  0.9294 -1.0539 -1.6613
 6097TIP3    H239927   4.729   0.581   7.697 -0.4891  0.1163 -0.6988
 6098TIP3   OH239928   5.569   1.735   0.264 -0.7176  0.3115 -0.0538
 6098TIP3    H139929   5.569   1.673   0.191 -2.5587  1.2235 -0.8976
 6098TIP3    H239930   5.507   1.696   0.327  0.4943 -0.2282  0.8430
 6099TIP3   OH239931   2.366   2.174   0.015  0.0231 -0.3286  0.0740
 6099TIP3    H139932   2.374   2.270   0.011 -0.7706 -0.2935 -1.9525
 6099TIP3    H239933   2.424   2.143  -0.054 -1.2728 -1.1772 -0.6722
 6100TIP3   OH239934   3.878   6.217   1.430 -0.3777 -0.4765  0.4685
 6100TIP3    H139935   3.861   6.271   1.508 -1.6117 -1.8055  1.1776
 6100TIP3    H239936   3.891   6.129   1.465 -2.7625 -1.4589 -0.9192
 6101TIP3   OH239937   1.223   6.611   0.110 -0.2715 -0.2565  0.1928
 6101TIP3    H139938   1.220   6.579   0.020  0.6163 -1.1885  0.4787
 6101TIP3    H239939   1.151   6.566   0.154 -1.0577  0.6172 -0.1600
 6102TIP3   OH239940   5.615   2.540   1.117 -0.1586  0.1184  0.5645
 6102TIP3    H139941   5.526   2.562   1.092 -0.4153 -1.7558 -0.3174
 6102TIP3    H239942   5.664   2.542   1.035  0.9134  2.2271  1.1824
 6103TIP3   OH239943   3.551   1.053   8.415 -0.1618  0.1321 -0.1889
 6103TIP3    H139944   3.523   1.056   8.323 -2.0048  0.8720  0.3662
 6103TIP3    H239945   3.643   1.082   8.412  0.1951 -0.9949 -1.9113
 6104TIP3   OH239946   4.296   1.171   1.831 -0.3133 -0.0476 -0.1656
 6104TIP3    H139947   4.383   1.192   1.863 -0.1233  2.9543 -2.2557
 6104TIP3    H239948   4.307   1.088   1.784  0.9926 -0.5702  0.9944
 6105TIP3   OH239949   6.200   6.876   6.947 -0.2260  0.2143 -0.2165
 6105TIP3    H139950   6.270   6.826   6.905  0.7649 -0.3588  1.9447
 6105TIP3    H239951   6.186   6.951   6.890 -0.1484 -1.3111 -2.3820
 6106TIP3   OH239952   0.802   5.906   0.106 -0.8982 -0.0205  0.1321
 6106TIP3    H139953   0.892   5.889   0.134 -1.0351 -1.2715 -0.1147
 6106TIP3    H239954   0.775   5.982   0.157  0.4864  0.7403 -0.2197
 6107TIP3   OH239955   6.445   2.009   0.811 -0.1684 -0.1705  0.3282
 6107TIP3    H139956   6.424   1.939   0.873  2.1029 -0.0136  1.3827
 6107TIP3    H239957   6.481   2.079   0.866  0.8823  0.4226 -1.0607
 6108TIP3   OH239958   5.127   0.832   7.035 -0.7752 -0.0597 -0.5055
 6108TIP3    H139959   5.077   0.913   7.046 -0.4364  0.4760 -2.4387
 6108TIP3    H239960   5.062   0.767   7.009 -0.9036 -0.1617  0.0609
 6109TIP3   OH239961   1.579   6.286   7.137  0.2516  0.0987 -0.0486
 6109TIP3    H139962   1.656   6.280   7.080 -0.4623 -0.3778 -0.9887
 6109TIP3    H239963   1.594   6.365   7.189  1.0964  0.3428 -0.6329
 6110TIP3   OH239964   0.575   3.171   0.612  1.0512  0.3183 -0.3517
 6110TIP3    H139965   0.526   3.217   0.544  0.7559  0.0363 -0.3313
 6110TIP3    H239966   0.509   3.127   0.664  1.3485 -0.4516 -0.6048
 6111TIP3   OH239967   1.530   0.985   7.706  0.3943 -0.0262  0.5830
 6111TIP3    H139968   1.532   1.037   7.786  1.5966  0.3655  0.3112
 6111TIP3    H239969   1.443   0.944   7.706  0.2194  0.3169  1.8559
 6112TIP3   OH239970   6.653   6.111   0.739  0.0256  0.3585  0.1546
 6112TIP3    H139971   6.569   6.081   0.702 -0.2542 -0.2664  1.2611
 6112TIP3    H239972   6.629   6.166   0.813  0.5963  0.7473  0.0590
 6113TIP3   OH239973   1.126   4.047   6.696 -0.0916  0.7230  0.3408
 6113TIP3    H139974   1.199   4.095   6.735  0.3758  0.8550 -0.6597
 6113TIP3    H239975   1.064   4.115   6.671  0.2834  0.7706 -0.4930
 6114TIP3   OH239976   6.196   6.713   7.694  0.0638  0.1710  0.8131
 6114TIP3    H139977   6.231   6.625   7.707  2.6966  0.9968 -0.0093
 6114TIP3    H239978   6.127   6.702   7.628 -0.0779 -1.3431  1.1904
 6115TIP3   OH239979   1.076   0.971   7.551  0.0958 -0.6624  0.5318
 6115TIP3    H139980   1.002   1.011   7.597 -0.0602 -0.6680  0.2836
 6115TIP3    H239981   1.138   0.948   7.621  0.1659 -0.0307  0.6818
 6116TIP3   OH239982   2.222   2.305   8.065  0.4772 -0.0390 -0.6828
 6116TIP3    H139983   2.309   2.314   8.027  1.5172 -1.7510  1.1303
 6116TIP3    H239984   2.213   2.212   8.086 -1.0868  0.3682  0.7440
 6117TIP3   OH239985   6.312   1.679   1.233  0.1734  0.2703  0.0786
 6117TIP3    H139986   6.340   1.591   1.210 -0.2708  0.0984  0.1937
 6117TIP3    H239987   6.322   1.684   1.328  0.5740  0.4763  0.0266
 6118TIP3   OH239988   4.974   6.876   8.463  0.2526 -0.7612  0.1987
 6118TIP3    H139989   4.955   6.792   8.420  3.5461 -1.3211 -0.3793
 6118TIP3    H239990   5.045   6.856   8.524 -0.6148  1.1697  1.9631
 6119TIP3   OH239991   3.482   6.048   0.563 -0.2437 -0.2019  0.5898
 6119TIP3    H139992   3.400   5.999   0.560 -1.1548  1.2226 -2.6649
 6119TIP3    H239993   3.455   6.140   0.568  0.8675  0.4873 -2.8170
 6120TIP3   OH239994   1.832   0.338   2.007  0.5469 -0.6571 -0.2122
 6120TIP3    H139995   1.864   0.351   2.097 -1.4360  0.2761  0.4114
 6120TIP3    H239996   1.823   0.243   1.998 -2.0774 -0.7086  1.7103
 6121TIP3   OH239997   3.246   5.977   2.018  0.7446 -0.4346 -0.4477
 6121TIP3    H139998   3.312   5.975   2.087 -0.3431  0.4570  0.6791
 6121TIP3    H239999   3.228   5.885   2.000  2.8129 -0.7172 -1.3544
 6122TIP3   OH240000   2.384   0.116   7.980 -0.0227  0.3789 -0.5395
 6122TIP3    H140001   2.369   0.211   7.985 -0.1555  0.3319  0.0601
 6122TIP3    H240002   2.449   0.106   7.911 -2.3259  0.6411 -2.8918
 6123TIP3   OH240003   4.682   5.706   8.020 -0.6232  0.0558  0.5207
 6123TIP3    H140004   4.774   5.688   7.999 -1.1871 -0.7106 -1.5439
 6123TIP3    H240005   4.666   5.657   8.101  0.1059 -2.0671 -0.5515
 6124TIP3   OH240006   2.865   6.293   0.728  0.2130 -0.0589 -0.2850
 6124TIP3    H140007   2.951   6.314   0.692  0.5032 -1.0167 -0.1715
 6124TIP3    H240008   2.829   6.378   0.753  1.1145  0.3580 -0.3415
 6125TIP3   OH240009   0.307   2.570   2.632 -0.4762  0.1337 -0.2263
 6125TIP3    H140010   0.389   2.520   2.633 -0.4473  0.1158 -1.5860
 6125TIP3    H240011   0.240   2.506   2.610 -1.0648 -0.0751  1.9204
 6126TIP3   OH240012   0.964   2.179   0.958  0.3047 -0.5905  0.2918
 6126TIP3    H140013   1.016   2.148   1.032  1.4570 -3.7845 -1.6628
 6126TIP3    H240014   0.876   2.146   0.975  0.5443 -1.2373  0.2956
 6127TIP3   OH240015   1.638   3.129   0.753  0.3570  0.2394 -0.2061
 6127TIP3    H140016   1.607   3.134   0.662  0.3094  0.8156 -0.1622
 6127TIP3    H240017   1.700   3.202   0.761  1.3912 -0.6139 -0.1623
 6128TIP3   OH240018   0.279   4.426   1.137 -0.0423 -0.5436 -0.3252
 6128TIP3    H140019   0.334   4.418   1.216 -0.8788 -2.7451  0.0960
 6128TIP3    H240020   0.325   4.376   1.070  0.0760  0.3527 -0.9341
 6129TIP3   OH240021   3.686   1.843   1.075  0.6231  0.2048 -0.0407
 6129TIP3    H140022   3.617   1.789   1.112  1.0925 -0.0878  0.4192
 6129TIP3    H240023   3.681   1.827   0.981  1.6636 -1.7764  0.1831
 6130TIP3   OH240024   1.269   1.148   1.636 -0.0461  0.2356 -0.4046
 6130TIP3    H140025   1.364   1.134   1.641 -0.1895 -0.9477 -0.7037
 6130TIP3    H240026   1.260   1.225   1.579  0.7847  1.5554  1.1669
 6131TIP3   OH240027   2.010   4.656   0.721  0.0969  0.0840 -0.3395
 6131TIP3    H140028   1.946   4.635   0.654  1.1489 -2.5280 -0.6738
 6131TIP3    H240029   2.039   4.571   0.754  0.1590  1.2196  2.9614
 6132TIP3   OH240030   1.224   5.065   7.925  0.3783  0.3556 -0.1034
 6132TIP3    H140031   1.298   5.006   7.914  0.4502  0.3760  0.2589
 6132TIP3    H240032   1.235   5.101   8.013 -0.4546 -0.1749  0.2256
 6133TIP3   OH240033   4.414   2.476   2.173 -0.0334 -0.1170 -0.0550
 6133TIP3    H140034   4.492   2.531   2.163  0.9425 -1.5667 -0.8731
 6133TIP3    H240035   4.449   2.387   2.181 -1.5959 -0.7423  0.0962
 6134TIP3   OH240036   1.699   1.836   6.787  0.4213 -0.1989 -0.4436
 6134TIP3    H140037   1.625   1.821   6.728 -0.2766 -2.9086  0.9652
 6134TIP3    H240038   1.658   1.854   6.872  1.3502 -1.3504  0.2753
 6135TIP3   OH240039   2.660   1.951   1.226 -0.0354 -0.7511  0.0568
 6135TIP3    H140040   2.719   1.942   1.152 -0.3765 -2.2920 -0.0542
 6135TIP3    H240041   2.579   1.907   1.199 -0.8365  0.2847  0.6531
 6136TIP3   OH240042   6.509   3.768   6.855  0.5147  0.2640 -0.0349
 6136TIP3    H140043   6.572   3.802   6.792 -0.7589  2.5905 -0.1535
 6136TIP3    H240044   6.472   3.690   6.812  2.2071 -0.2943 -0.5593
 6137TIP3   OH240045   0.281   1.709   2.545  0.2977 -0.6379 -0.1611
 6137TIP3    H140046   0.288   1.625   2.499 -2.6403 -2.2320  1.9157
 6137TIP3    H240047   0.194   1.741   2.523  1.0194  1.4312 -0.1581
 6138TIP3   OH240048   0.959   5.015   0.845  0.0461 -0.2153 -0.0691
 6138TIP3    H140049   0.868   4.987   0.857 -0.0786 -0.5316 -1.5891
 6138TIP3    H240050   1.006   4.935   0.823  0.7189 -0.0646  0.7779
 6139TIP3   OH240051   2.229   1.341   8.572 -0.2512 -0.6236  0.8265
 6139TIP3    H140052   2.316   1.340   8.611 -0.3901 -0.8874  1.1303
 6139TIP3    H240053   2.209   1.433   8.560  0.9428 -0.5607 -1.2026
 6140TIP3   OH240054   4.340   6.629   0.526 -0.3021 -0.0648  0.1286
 6140TIP3    H140055   4.384   6.692   0.469  1.2865  0.7071  2.0958
 6140TIP3    H240056   4.390   6.548   0.515  0.5333  0.3125  0.9917
 6141TIP3   OH240057   3.959   6.396   1.013  0.3086 -0.0043 -0.0779
 6141TIP3    H140058   4.009   6.350   0.945  2.2286  0.1661  1.1311
 6141TIP3    H240059   3.909   6.328   1.057 -0.9826 -0.1116 -1.6348
 6142TIP3   OH240060   0.373   0.980   1.247  0.0632  0.0387  0.0208
 6142TIP3    H140061   0.397   0.924   1.173 -1.6793  0.7681 -1.1688
 6142TIP3    H240062   0.310   0.929   1.297  0.7526 -0.2024  0.6607
 6143TIP3   OH240063   0.848   4.946   0.438  0.2352 -0.0477 -0.3388
 6143TIP3    H140064   0.771   4.974   0.387  0.6964 -0.5518 -1.3379
 6143TIP3    H240065   0.923   4.978   0.388  0.7288 -1.5208 -0.5924
 6144TIP3   OH240066   0.870   1.733   2.614 -0.7475  0.5413 -0.1183
 6144TIP3    H140067   0.778   1.753   2.627 -0.8732  0.8952 -1.4263
 6144TIP3    H240068   0.886   1.656   2.668 -2.0864 -0.2155 -0.7602
 6145TIP3   OH240069   1.944   0.149   0.248 -0.4410  0.0695 -0.2776
 6145TIP3    H140070   2.019   0.207   0.264 -1.0619  0.5327  1.1259
 6145TIP3    H240071   1.923   0.162   0.156 -0.6999  2.2801  0.0440
 6146TIP3   OH240072   3.460   0.185   2.173  0.6174 -0.5133  0.1615
 6146TIP3    H140073   3.542   0.223   2.142  0.1489  1.2751  0.9825
 6146TIP3    H240074   3.463   0.094   2.144  1.1362  0.4646 -3.2257
 6147TIP3   OH240075   5.435   2.589   0.386  0.3103 -0.4949  0.3374
 6147TIP3    H140076   5.356   2.564   0.338  1.0175 -0.9902 -0.6034
 6147TIP3    H240077   5.503   2.595   0.319  0.2895  3.9113  0.4084
 6148TIP3   OH240078   1.200   4.125   7.367  0.1086  0.1305  0.2921
 6148TIP3    H140079   1.245   4.133   7.283 -0.0972  1.9680  0.3171
 6148TIP3    H240080   1.213   4.211   7.409 -1.7402  0.0349  1.1461
 6149TIP3   OH240081   2.214   1.939   1.386  0.1301  0.2665 -0.1784
 6149TIP3    H140082   2.219   1.965   1.294  0.4785 -0.7673 -0.4682
 6149TIP3    H240083   2.257   1.854   1.389 -3.0507 -1.5043  0.2250
 6150TIP3   OH240084   4.013   4.941   1.913  1.0399  0.0707 -0.4122
 6150TIP3    H140085   4.063   4.865   1.945  0.6354 -0.6211 -1.3726
 6150TIP3    H240086   4.043   5.013   1.968  2.2243 -0.5656 -0.1694
 6151TIP3   OH240087   5.326   1.740   2.652  0.2947 -0.2867 -0.0788
 6151TIP3    H140088   5.239   1.731   2.614 -1.3794  1.7420  2.9107
 6151TIP3    H240089   5.353   1.650   2.672 -0.6300 -1.0148 -1.9387
 6152TIP3   OH240090   0.188   2.073   1.878  0.0268  0.2738 -1.0430
 6152TIP3    H140091   0.205   2.105   1.967 -2.0195 -1.2553 -0.0023
 6152TIP3    H240092   0.224   2.140   1.821  1.1580  1.4630  0.9325
 6153TIP3   OH240093   2.189   5.191   7.715 -0.4917  0.0849  0.1027
 6153TIP3    H140094   2.197   5.199   7.620  2.5795  0.2108  0.2887
 6153TIP3    H240095   2.095   5.202   7.732 -0.9343  1.5625 -2.7448
 6154TIP3   OH240096   0.817   4.946   7.146  0.2034  0.0324  0.5259
 6154TIP3    H140097   0.736   4.997   7.135  0.3695  0.1418 -0.2478
 6154TIP3    H240098   0.836   4.913   7.059  1.4919  0.7570  0.5006
 6155TIP3   OH240099   3.356   2.981   0.764 -0.5737 -0.7327  0.2390
 6155TIP3    H140100   3.385   3.038   0.692  1.2403 -0.6476  0.9948
 6155TIP3    H240101   3.437   2.950   0.804 -1.5529 -2.1147  1.2178
 6156TIP3   OH240102   4.268   1.196   0.840 -0.1249 -0.2205  0.0630
 6156TIP3    H140103   4.325   1.201   0.916 -2.1336 -0.4846  1.6847
 6156TIP3    H240104   4.267   1.285   0.804  1.2271 -0.2106  0.0181
 6157TIP3   OH240105   6.776   2.502   7.838  0.4049  0.2130 -0.3934
 6157TIP3    H140106   6.699   2.557   7.825  0.9381  1.0019 -0.3201
 6157TIP3    H240107   6.757   2.452   7.918  0.5049  1.3744  0.3815
 6158TIP3   OH240108   0.906   2.133   1.632 -0.5707  1.0017 -0.3949
 6158TIP3    H140109   0.937   2.194   1.698 -1.1462  0.9652 -0.0857
 6158TIP3    H240110   0.934   2.047   1.663 -3.7078  0.5458  1.6175
 6159TIP3   OH240111   6.265   6.050   7.630  0.1985 -0.2991  0.6535
 6159TIP3    H140112   6.221   6.065   7.713  1.8971 -1.1102  1.7438
 6159TIP3    H240113   6.307   5.965   7.639 -0.1249 -0.7206 -1.3008
 6160TIP3   OH240114   1.210   6.878   1.629  0.5290  0.5497  0.3801
 6160TIP3    H140115   1.159   6.857   1.707 -1.6696 -1.8002 -1.5136
 6160TIP3    H240116   1.194   6.971   1.614 -1.2946  0.4039  1.1763
 6161TIP3   OH240117   2.501   3.748   2.144  0.4474  0.3230 -0.1081
 6161TIP3    H140118   2.434   3.758   2.211  1.1553 -1.0753  0.8542
 6161TIP3    H240119   2.452   3.740   2.062 -0.7623 -2.5418  0.7603
 6162TIP3   OH240120   5.648   5.251   2.239 -0.1442 -0.7958 -0.1283
 6162TIP3    H140121   5.601   5.313   2.183  0.9756 -0.7721 -1.0843
 6162TIP3    H240122   5.735   5.244   2.200  0.1083 -2.1392  0.5900
 6163TIP3   OH240123   2.260   4.185   7.587  0.5253  0.3408 -0.1596
 6163TIP3    H140124   2.344   4.141   7.582  0.3600 -0.0945  0.6914
 6163TIP3    H240125   2.240   4.188   7.680 -1.4600 -1.6097 -0.4352
 6164TIP3   OH240126   4.343   4.415   0.165 -0.4507  1.1618 -0.1798
 6164TIP3    H140127   4.409   4.386   0.103 -0.2166 -2.0940  1.3887
 6164TIP3    H240128   4.272   4.351   0.158 -1.2935  1.8333  1.4634
 6165TIP3   OH240129   2.409   5.474   7.404 -0.1261 -0.1040  0.1092
 6165TIP3    H140130   2.450   5.479   7.491  0.4673  0.4806 -0.1937
 6165TIP3    H240131   2.476   5.509   7.345 -0.7011 -0.0762 -0.5272
 6166TIP3   OH240132   6.024   5.232   7.911  0.1131  0.0821  0.0654
 6166TIP3    H140133   5.965   5.161   7.934  0.4866 -0.5154 -0.7652
 6166TIP3    H240134   6.008   5.299   7.977 -1.7428  0.0827 -0.3458
 6167TIP3   OH240135   5.476   6.556   0.987  0.3863 -0.2718  0.4343
 6167TIP3    H140136   5.401   6.554   1.046  0.1530  2.2246  0.3568
 6167TIP3    H240137   5.446   6.608   0.912  1.5726 -0.9517 -0.5642
 6168TIP3   OH240138   2.711   2.490   0.565  0.7540  0.1743 -0.0333
 6168TIP3    H140139   2.726   2.575   0.526 -0.8380 -0.0245 -1.1780
 6168TIP3    H240140   2.635   2.502   0.622  0.2565 -0.5475 -0.5175
 6169TIP3   OH240141   2.228   5.650   7.859  0.5491  0.2530 -0.4624
 6169TIP3    H140142   2.228   5.589   7.785 -2.2321 -0.3863 -0.0322
 6169TIP3    H240143   2.260   5.733   7.821 -0.2671 -0.2056 -2.2642
 6170TIP3   OH240144   2.068   1.096   6.404 -0.0814  0.2938  0.2708
 6170TIP3    H140145   2.119   1.165   6.448  0.4457 -0.1129  0.3041
 6170TIP3    H240146   2.122   1.018   6.411  0.1104  0.2618 -1.3064
 6171TIP3   OH240147   0.122   3.039   6.910 -0.3946  0.0738 -0.6258
 6171TIP3    H140148   0.101   2.964   6.966 -0.0424 -0.0757 -0.6934
 6171TIP3    H240149   0.185   3.005   6.847  0.5118  0.6669 -0.0536
 6172TIP3   OH240150   5.079   1.094   8.215  0.3954 -0.5068 -0.0373
 6172TIP3    H140151   5.031   1.013   8.231 -0.5985 -0.1168 -0.9031
 6172TIP3    H240152   5.042   1.157   8.275 -1.2681  0.1795 -1.6864
 6173TIP3   OH240153   5.182   5.652   1.038 -0.5344  0.0473  0.1207
 6173TIP3    H140154   5.174   5.564   1.001 -2.7708  0.7131 -1.1645
 6173TIP3    H240155   5.111   5.658   1.101 -0.4692  0.9914  0.1105
 6174TIP3   OH240156   1.430   2.119   6.270 -0.1105 -0.2443 -0.6545
 6174TIP3    H140157   1.464   2.206   6.250  0.6696 -0.6529 -1.1576
 6174TIP3    H240158   1.388   2.090   6.188 -0.1493 -0.4413 -0.5657
 6175TIP3   OH240159   3.758   4.250   0.591  0.0419  0.1942 -0.3322
 6175TIP3    H140160   3.801   4.335   0.584  0.6479 -0.1438 -0.7433
 6175TIP3    H240161   3.694   4.250   0.519 -1.2585  1.0265  0.7760
 6176TIP3   OH240162   0.584   5.760   8.596 -0.4717 -0.1286  0.4347
 6176TIP3    H140163   0.614   5.732   8.510 -3.6193  2.0763 -1.5712
 6176TIP3    H240164   0.642   5.833   8.619  1.2183 -1.5513  0.9089
 6177TIP3   OH240165   5.150   3.078   2.043 -0.0003  0.0126  0.4624
 6177TIP3    H140166   5.225   3.137   2.039  0.3372 -0.4065  0.6794
 6177TIP3    H240167   5.128   3.061   1.951  1.0155 -0.9385  0.3759
 6178TIP3   OH240168   5.415   4.737   0.732  0.3033 -0.2517  0.3539
 6178TIP3    H140169   5.413   4.662   0.792  0.0180 -0.0860  0.5560
 6178TIP3    H240170   5.465   4.706   0.656  0.9474 -0.3593  0.8119
 6179TIP3   OH240171   5.323   5.350   7.952 -0.8715  0.1172  0.0120
 6179TIP3    H140172   5.296   5.332   8.042  0.3464 -1.5237  0.0792
 6179TIP3    H240173   5.416   5.373   7.959 -1.0650  1.2196 -0.7181
 6180TIP3   OH240174   2.602   2.926   0.478 -0.1281 -0.1675  0.5557
 6180TIP3    H140175   2.546   2.861   0.436 -1.6704  0.8381  0.9444
 6180TIP3    H240176   2.588   3.006   0.427  2.3149 -0.2564 -0.3801
 6181TIP3   OH240177   1.323   2.973   0.799 -0.5409 -0.0002 -0.0535
 6181TIP3    H140178   1.257   2.957   0.867  0.4121  2.8382  1.6794
 6181TIP3    H240179   1.395   2.914   0.822 -0.7932 -0.0739  0.5848
 6182TIP3   OH240180   6.848   2.212   2.352 -0.3428 -0.1160 -0.4010
 6182TIP3    H140181   6.902   2.134   2.364 -2.9059 -1.8954  0.3651
 6182TIP3    H240182   6.781   2.205   2.420 -0.8360  2.6486 -0.5039
 6183TIP3   OH240183   1.019   1.934   8.102  0.0364  0.4839 -0.0416
 6183TIP3    H140184   0.942   1.891   8.138  0.4881 -0.0567  0.2932
 6183TIP3    H240185   1.002   1.941   8.008 -0.7458  1.0632  0.1364
 6184TIP3   OH240186   0.438   4.490   7.041  0.8287 -0.2620 -0.2750
 6184TIP3    H140187   0.369   4.529   6.988 -0.0401  1.5144  2.0099
 6184TIP3    H240188   0.437   4.397   7.018  0.1886  0.3250 -2.9313
 6185TIP3   OH240189   0.023   3.889   1.326 -0.0791  0.0499 -0.2161
 6185TIP3    H140190   0.055   3.960   1.381 -0.5393  1.3757 -1.5749
 6185TIP3    H240191  -0.071   3.884   1.345  0.0166 -0.4388  0.1343
 6186TIP3   OH240192   4.222   3.788   6.945 -0.1347 -0.2866  0.2750
 6186TIP3    H140193   4.146   3.757   6.896  1.7939 -1.5790 -2.1055
 6186TIP3    H240194   4.284   3.818   6.878  1.8450 -0.1491  2.0565
 6187TIP3   OH240195   3.379   0.961   7.290 -0.1284 -0.0177 -0.6002
 6187TIP3    H140196   3.366   1.047   7.330 -2.3955 -0.7546  0.3960
 6187TIP3    H240197   3.406   0.981   7.200  1.9692  1.6811  0.3373
 6188TIP3   OH240198   2.574   3.866   7.004 -0.1354 -0.4100 -0.4601
 6188TIP3    H140199   2.486   3.882   7.040  0.1766 -0.3269  0.2671
 6188TIP3    H240200   2.575   3.772   6.985 -0.5913 -0.3028 -1.0390
 6189TIP3   OH240201   4.047   6.141   8.413  0.1671  0.5989 -0.3489
 6189TIP3    H140202   4.047   6.226   8.368 -1.1766  0.4191 -0.7219
 6189TIP3    H240203   4.084   6.080   8.349 -0.6367  0.5614 -0.7844
 6190TIP3   OH240204   0.822   2.581   7.711  0.5799  0.1496 -0.7602
 6190TIP3    H140205   0.745   2.558   7.659  0.0233 -0.4092  0.2608
 6190TIP3    H240206   0.855   2.661   7.671 -1.5425  1.3898 -0.2153
 6191TIP3   OH240207   1.316   5.414   1.893  0.4159  0.0499 -0.5566
 6191TIP3    H140208   1.288   5.473   1.823 -1.1556  0.5660  0.4563
 6191TIP3    H240209   1.385   5.361   1.853  1.6100  2.2631 -1.6604
 6192TIP3   OH240210   2.033   3.119   7.587 -0.1749 -0.4360  0.1370
 6192TIP3    H140211   2.125   3.138   7.604 -0.4445  1.7786 -0.4737
 6192TIP3    H240212   2.028   3.104   7.492 -0.4725 -0.1829  0.1076
 6193TIP3   OH240213   1.094   6.354   6.595 -0.3585 -0.6028  0.1537
 6193TIP3    H140214   1.054   6.438   6.576  1.1793  0.5098  1.5981
 6193TIP3    H240215   1.041   6.317   6.666  0.5506  0.4185  1.3928
 6194TIP3   OH240216   5.710   3.578   8.209 -0.2373  0.8677  0.1033
 6194TIP3    H140217   5.740   3.581   8.118 -1.0881 -0.2106 -0.2369
 6194TIP3    H240218   5.621   3.613   8.205 -0.5677  0.0779  0.3794
 6195TIP3   OH240219   4.225   5.766   1.587  0.4895 -0.1623  0.0801
 6195TIP3    H140220   4.163   5.786   1.657  0.3058  1.9746 -0.6292
 6195TIP3    H240221   4.170   5.750   1.510  0.7020  3.1490 -0.9120
 6196TIP3   OH240222   1.494   4.750   7.357  0.0882  0.3520  0.2302
 6196TIP3    H140223   1.556   4.677   7.367  0.8784  1.0902  0.8458
 6196TIP3    H240224   1.420   4.712   7.310  0.6814 -0.7403  0.1463
 6197TIP3   OH240225   5.577   5.178   8.095  0.0476 -0.1638  0.1815
 6197TIP3    H140226   5.599   5.259   8.142 -2.6983  1.6867 -1.4154
 6197TIP3    H240227   5.512   5.135   8.151  0.7346 -0.7733  0.5314
 6198TIP3   OH240228   3.001   4.076   7.462  0.2806  0.0285 -0.0934
 6198TIP3    H140229   2.943   4.020   7.513 -1.4304  1.6534 -0.1066
 6198TIP3    H240230   3.062   4.113   7.525 -1.2519  1.3359  0.6934
 6199TIP3   OH240231   5.829   5.500   0.179  0.6124  0.4583  0.0763
 6199TIP3    H140232   5.912   5.455   0.196  0.8787  0.5124 -1.0302
 6199TIP3    H240233   5.851   5.593   0.180  0.3684  0.5109  0.7746
 6200TIP3   OH240234   1.043   1.761   0.639  0.2025  0.0176 -0.0384
 6200TIP3    H140235   0.993   1.691   0.682  0.7033  0.4628  1.3417
 6200TIP3    H240236   1.039   1.834   0.701  2.0623  0.2464 -0.1318
 6201TIP3   OH240237   5.838   2.963   0.121 -0.5538  0.3166 -0.2483
 6201TIP3    H140238   5.789   3.034   0.078 -0.4336  0.4124 -0.2288
 6201TIP3    H240239   5.782   2.937   0.194 -0.8212  0.0616 -0.5377
 6202TIP3   OH240240   0.523   5.493   1.129 -0.0451  0.0663 -0.5154
 6202TIP3    H140241   0.588   5.437   1.170 -0.9587  0.4155  1.5413
 6202TIP3    H240242   0.519   5.571   1.184 -0.1767  1.3300 -2.2227
 6203TIP3   OH240243   6.404   6.248   0.673  0.4652  0.5812  0.0479
 6203TIP3    H140244   6.455   6.328   0.679  1.7432 -0.1860 -0.3039
 6203TIP3    H240245   6.313   6.276   0.687  1.1500  1.6625  2.9800
 6204TIP3   OH240246   5.308   6.543   1.688 -0.2722  0.6401 -0.1140
 6204TIP3    H140247   5.377   6.496   1.735  0.4813  1.4695 -0.3456
 6204TIP3    H240248   5.250   6.575   1.757  0.1890  0.8703  0.1751
 6205TIP3   OH240249   5.344   2.048   1.366  0.7108 -0.0595 -0.8836
 6205TIP3    H140250   5.302   2.128   1.332  0.5453 -0.0213 -0.5950
 6205TIP3    H240251   5.385   2.075   1.448  1.5092 -0.0463 -1.2790
 6206TIP3   OH240252   3.824   5.941   6.998 -0.4159  0.1008  0.3652
 6206TIP3    H140253   3.803   5.853   6.967  0.5441 -0.5188  1.4041
 6206TIP3    H240254   3.907   5.931   7.045  2.5636  2.4634 -3.7256
 6207TIP3   OH240255   5.584   3.632   7.315  0.2649 -0.3078 -0.6543
 6207TIP3    H140256   5.520   3.561   7.310  0.0219 -0.5925  3.2124
 6207TIP3    H240257   5.534   3.707   7.349  1.1926  0.6932 -1.4421
 6208TIP3   OH240258   5.146   3.675   1.518 -0.0053 -0.1925 -0.1473
 6208TIP3    H140259   5.098   3.754   1.545 -2.8590 -1.7027 -0.4414
 6208TIP3    H240260   5.190   3.701   1.436 -1.0465  1.0483 -0.3512
 6209TIP3   OH240261   1.245   6.613   6.310  0.2890 -0.6749 -0.0470
 6209TIP3    H140262   1.154   6.630   6.335  0.5644  0.8054  0.0833
 6209TIP3    H240263   1.262   6.524   6.340 -1.2109 -1.0954 -0.3716
 6210TIP3   OH240264   2.383   3.262   1.384  0.4396 -0.3156  0.1263
 6210TIP3    H140265   2.441   3.189   1.406 -1.0302 -1.4100  0.5414
 6210TIP3    H240266   2.339   3.284   1.467 -2.2834 -1.8815 -0.7546
 6211TIP3   OH240267   4.964   1.331   2.399  0.0220 -0.1854  0.3516
 6211TIP3    H140268   4.922   1.408   2.360  0.4298  0.0319  0.3456
 6211TIP3    H240269   5.048   1.362   2.431  0.4537 -0.7640 -0.1977
 6212TIP3   OH240270   0.328   1.690   0.970  1.0449  0.6512 -0.1537
 6212TIP3    H140271   0.292   1.731   1.050  0.2382 -0.2415 -0.0385
 6212TIP3    H240272   0.336   1.597   0.993  2.7615  0.7101 -0.4424
 6213TIP3   OH240273   2.624   0.237   0.687 -0.8722 -0.0398  0.1151
 6213TIP3    H140274   2.572   0.253   0.766  0.2780  1.9997  0.5159
 6213TIP3    H240275   2.706   0.201   0.720 -0.3340  0.9520 -0.1097
 6214TIP3   OH240276   4.334   3.857   7.499  0.1395 -0.0207 -0.9409
 6214TIP3    H140277   4.377   3.789   7.551 -0.0383 -0.1005 -0.8965
 6214TIP3    H240278   4.349   3.830   7.408 -2.7971 -2.0028 -0.9704
 6215TIP3   OH240279   0.269   0.335   1.358 -0.2683  0.2727  0.9119
 6215TIP3    H140280   0.317   0.253   1.366 -0.1512  0.1478 -0.6618
 6215TIP3    H240281   0.187   0.311   1.316  0.0846  1.0158 -0.2867
 6216TIP3   OH240282   2.450   6.417   6.809 -0.0087 -0.0206  0.4580
 6216TIP3    H140283   2.518   6.376   6.863  2.7315  2.8989 -0.4651
 6216TIP3    H240284   2.420   6.347   6.752  2.2693 -1.4966  0.9215
 6217TIP3   OH240285   6.272   4.116   0.669  0.2913 -0.2906  0.1375
 6217TIP3    H140286   6.182   4.151   0.663  0.5792  0.3792 -0.5284
 6217TIP3    H240287   6.302   4.143   0.756  0.6572  1.5799 -0.5117
 6218TIP3   OH240288   3.336   5.048   0.049  0.1665  0.2220  0.8379
 6218TIP3    H140289   3.257   5.063  -0.003  0.1645  1.8207  1.2403
 6218TIP3    H240290   3.332   4.956   0.074  0.3464 -0.7437 -2.2746
 6219TIP3   OH240291   6.894   6.446   1.199 -0.2011  0.7707  0.4524
 6219TIP3    H140292   6.802   6.470   1.209 -1.7226 -2.6844 -3.0658
 6219TIP3    H240293   6.903   6.363   1.246  0.2793 -0.3916 -1.6057
 6220TIP3   OH240294   4.180   5.699   0.187 -0.0641 -0.2514  0.6537
 6220TIP3    H140295   4.194   5.788   0.221  0.5411  0.3929 -1.1539
 6220TIP3    H240296   4.169   5.711   0.093  0.3095 -2.1341  0.3305
 6221TIP3   OH240297   6.849   4.498   6.376 -0.2377 -0.1469  0.4426
 6221TIP3    H140298   6.931   4.449   6.375 -0.3370 -0.3127 -1.3078
 6221TIP3    H240299   6.782   4.432   6.362 -0.5599  0.2005  0.3447
 6222TIP3   OH240300   1.026   6.295   2.442 -0.6537  0.2109 -0.1753
 6222TIP3    H140301   0.990   6.210   2.469  0.2672 -0.3070 -0.5207
 6222TIP3    H240302   0.961   6.359   2.470 -1.9342 -0.7037 -0.9621
 6223TIP3   OH240303   3.749   5.972   0.496 -0.0221 -0.0792  0.0809
 6223TIP3    H140304   3.786   5.986   0.409 -0.3581  1.1363  0.1119
 6223TIP3    H240305   3.662   6.011   0.491 -0.6301 -1.3130  0.5430
 6224TIP3   OH240306   4.424   2.682   8.148 -0.1039  0.0391 -0.2408
 6224TIP3    H140307   4.361   2.744   8.112 -0.3782  1.1741  2.0315
 6224TIP3    H240308   4.509   2.722   8.133 -0.3231  1.5818  2.0883
 6225TIP3   OH240309   0.563   4.124   7.718 -0.8883 -0.1848  0.5819
 6225TIP3    H140310   0.560   4.064   7.643  0.5691 -1.4284  1.4769
 6225TIP3    H240311   0.651   4.161   7.717 -0.6702 -0.6041  1.9570
 6226TIP3   OH240312   3.022   3.807   7.036 -0.4013  0.0671 -0.0953
 6226TIP3    H140313   3.004   3.787   6.944 -0.6106 -0.2711  0.0172
 6226TIP3    H240314   3.102   3.861   7.034  0.1718 -0.7696 -0.4090
 6227TIP3   OH240315   3.166   4.639   7.487 -0.1567 -0.4359 -0.2483
 6227TIP3    H140316   3.089   4.694   7.471 -0.7500 -1.1900 -0.0663
 6227TIP3    H240317   3.187   4.653   7.580  0.5603  0.5405 -0.5395
 6228TIP3   OH240318   5.919   3.732   0.064 -0.4323  0.3020 -0.2564
 6228TIP3    H140319   5.887   3.705  -0.022 -0.3857 -1.4301  0.2209
 6228TIP3    H240320   5.918   3.651   0.116 -0.1431  1.2392  1.2728
 6229TIP3   OH240321   2.925   4.696   1.502  0.2526 -0.3577  0.1840
 6229TIP3    H140322   2.947   4.781   1.537  0.3919 -0.9551  1.5944
 6229TIP3    H240323   2.868   4.715   1.427  0.1028  0.9483  0.6117
 6230TIP3   OH240324   1.579   5.310   7.175  0.7684  0.0079  0.2485
 6230TIP3    H140325   1.491   5.286   7.204  0.6073  1.3607  0.9460
 6230TIP3    H240326   1.578   5.297   7.080 -1.0948  2.6514 -0.1948
 6231TIP3   OH240327   1.903   4.830   1.978 -0.3234 -0.2831  0.5684
 6231TIP3    H140328   1.849   4.902   2.010  1.0021 -0.4231  3.4137
 6231TIP3    H240329   1.851   4.752   1.996  0.8467 -0.4601  3.7877
 6232TIP3   OH240330   0.744   1.763   1.850  0.2431 -0.3999 -0.6528
 6232TIP3    H140331   0.766   1.828   1.917 -1.2362 -0.4568 -0.0827
 6232TIP3    H240332   0.819   1.764   1.791  1.2099  0.2640  0.5334
 6233TIP3   OH240333   0.614   0.558   2.144  0.3165 -0.5321  0.5798
 6233TIP3    H140334   0.649   0.620   2.207 -0.9718  1.6480 -0.7310
 6233TIP3    H240335   0.682   0.550   2.077  0.7365 -1.0729  1.0550
 6234TIP3   OH240336   3.045   2.715   0.287 -0.3478 -0.2491 -0.2729
 6234TIP3    H140337   2.955   2.729   0.256 -0.7561 -2.0172  0.0171
 6234TIP3    H240338   3.048   2.622   0.312  1.0108  0.2189  1.5401
 6235TIP3   OH240339   1.629   1.266   7.753  0.4396 -0.1924 -0.3525
 6235TIP3    H140340   1.602   1.229   7.837  0.1734 -0.2583 -0.4645
 6235TIP3    H240341   1.547   1.274   7.704  0.7108 -1.0738 -0.9680
 6236TIP3   OH240342   1.742   3.929   7.305  0.4571 -0.7931  0.3351
 6236TIP3    H140343   1.756   4.017   7.340  0.8194 -1.0547  0.8714
 6236TIP3    H240344   1.800   3.873   7.357  1.0522 -1.1960 -0.7209
 6237TIP3   OH240345   6.136   4.310   2.494  0.0117  0.2950 -0.3213
 6237TIP3    H140346   6.109   4.351   2.412 -0.5072  1.7604  0.5473
 6237TIP3    H240347   6.159   4.383   2.551  0.0768 -0.6776  0.9420
 6238TIP3   OH240348   6.906   5.260   8.411  0.2629  0.7399 -0.2359
 6238TIP3    H140349   6.832   5.258   8.350 -0.6506 -1.3743  0.8271
 6238TIP3    H240350   6.973   5.207   8.367  0.1990  0.5517 -0.1078
 6239TIP3   OH240351   1.588   6.111   6.513 -0.2412 -0.1385  0.1838
 6239TIP3    H140352   1.620   6.124   6.602 -0.1510  2.1175 -0.1241
 6239TIP3    H240353   1.493   6.114   6.521 -0.2635 -0.9115  0.3086
 6240TIP3   OH240354   4.627   5.526   0.409 -0.3666  0.4342 -0.4454
 6240TIP3    H140355   4.568   5.452   0.395  1.7033 -1.4022 -0.0914
 6240TIP3    H240356   4.664   5.544   0.322 -3.0309  3.1835 -1.1862
 6241TIP3   OH240357   5.458   3.654   8.524  0.0480  0.7099 -0.3449
 6241TIP3    H140358   5.526   3.620   8.466  0.4987  0.8699  0.0746
 6241TIP3    H240359   5.407   3.578   8.549 -0.1248  0.6333 -0.9139
 6242TIP3   OH240360   5.834   0.940   0.811  0.4887 -0.1139  0.5968
 6242TIP3    H140361   5.745   0.915   0.787  1.2331 -2.9923  0.4351
 6242TIP3    H240362   5.880   0.950   0.727  1.0321 -1.7847  0.6579
 6243TIP3   OH240363   3.910   1.651   1.050  0.7462  0.6955 -0.0038
 6243TIP3    H140364   3.863   1.574   1.081  1.0237  0.5990  0.1752
 6243TIP3    H240365   3.853   1.725   1.074 -0.1705  0.4750 -1.3550
 6244TIP3   OH240366   5.787   4.361   1.100 -0.0085 -0.3259 -0.5062
 6244TIP3    H140367   5.768   4.453   1.116 -0.8810 -0.3022 -1.5606
 6244TIP3    H240368   5.770   4.348   1.007  0.1152 -1.5552 -0.3840
 6245TIP3   OH240369   5.426   1.010   1.369  0.0133  0.4726 -0.3121
 6245TIP3    H140370   5.427   0.935   1.309 -1.6065  0.6597 -0.5987
 6245TIP3    H240371   5.494   1.069   1.335 -0.6343  0.4091 -1.7535
 6246TIP3   OH240372   6.783   2.285   0.097  0.2409  0.2012 -0.2081
 6246TIP3    H140373   6.853   2.345   0.073  0.2317 -0.3886 -1.7848
 6246TIP3    H240374   6.704   2.340   0.101  0.1792  0.2818 -1.9208
 6247TIP3   OH240375   5.298   3.189   1.041 -0.1596  0.1216 -0.0417
 6247TIP3    H140376   5.391   3.176   1.063 -0.1932  0.1219  0.1051
 6247TIP3    H240377   5.254   3.189   1.126 -0.3179 -0.0543 -0.1237
 6248TIP3   OH240378   4.289   4.407   1.580 -0.0520  0.3526  0.7063
 6248TIP3    H140379   4.236   4.397   1.660  0.4572  2.6786  1.4205
 6248TIP3    H240380   4.260   4.490   1.542  1.6284  0.6503 -0.0141
 6249TIP3   OH240381   2.732   6.247   1.169 -0.7713  0.0268  0.2524
 6249TIP3    H140382   2.800   6.198   1.215  2.5605  3.8888 -0.0415
 6249TIP3    H240383   2.728   6.207   1.082 -0.5565 -1.6454  0.9677
 6250TIP3   OH240384   3.381   6.311   7.269 -0.0524 -0.0074  0.2174
 6250TIP3    H140385   3.340   6.393   7.244  0.1378 -0.5454 -2.1264
 6250TIP3    H240386   3.420   6.278   7.188 -1.6399 -3.2726  0.5861
 6251TIP3   OH240387   0.641   2.944   1.829 -0.3233 -0.0197 -0.6979
 6251TIP3    H140388   0.646   2.853   1.801 -0.8055 -0.7608  1.4424
 6251TIP3    H240389   0.680   2.945   1.916 -2.1494  1.4023  0.1827
 6252TIP3   OH240390   0.118   3.408   8.130  0.2721 -0.0713 -0.0479
 6252TIP3    H140391   0.118   3.374   8.219 -0.0713  1.2020  0.4561
 6252TIP3    H240392   0.141   3.333   8.075 -1.7445 -1.4665  0.8865
 6253TIP3   OH240393   0.123   2.134   7.931  0.3985 -1.1227  0.1844
 6253TIP3    H140394   0.084   2.136   7.844  2.3774 -0.3831 -0.7564
 6253TIP3    H240395   0.211   2.098   7.917  1.2669  0.2744  1.6398
 6254TIP3   OH240396   5.745   2.222   8.507  0.3892 -0.1037  0.4347
 6254TIP3    H140397   5.699   2.249   8.586  0.0983  2.3251 -0.4830
 6254TIP3    H240398   5.740   2.298   8.449  4.3643 -0.1377 -0.2486
 6255TIP3   OH240399   3.233   4.945   6.747 -0.1753 -0.3489 -0.2414
 6255TIP3    H140400   3.295   4.872   6.753  0.6559  0.2495 -1.2953
 6255TIP3    H240401   3.275   5.017   6.794  0.4923  0.3961 -1.8697
 6256TIP3   OH240402   6.277   5.274   0.906  0.3256 -0.2004 -0.2189
 6256TIP3    H140403   6.372   5.270   0.895  0.3174 -0.3415 -0.2454
 6256TIP3    H240404   6.263   5.343   0.971  0.2929  1.6416 -2.0948
 6257TIP3   OH240405   5.873   2.623   1.195  0.1762  0.1900 -0.0881
 6257TIP3    H140406   5.867   2.647   1.103  0.5096  0.8589  0.0616
 6257TIP3    H240407   5.795   2.570   1.211 -1.5586  2.6244 -0.0005
 6258TIP3   OH240408   3.061   0.668   1.839  0.0350  0.1173 -0.8691
 6258TIP3    H140409   3.129   0.617   1.883 -0.1140 -1.6524 -2.5480
 6258TIP3    H240410   3.020   0.719   1.909  0.6635 -1.5611  0.8036
 6259TIP3   OH240411   0.355   5.890   8.052 -0.0246  0.4951 -0.1117
 6259TIP3    H140412   0.364   5.850   7.966  0.8332 -0.6450  0.4753
 6259TIP3    H240413   0.313   5.975   8.035  0.3487  0.4023 -1.6626
 6260TIP3   OH240414   1.608   1.466   1.348  0.3246  0.3702  0.1625
 6260TIP3    H140415   1.590   1.519   1.270 -0.4339 -1.4308 -0.9484
 6260TIP3    H240416   1.523   1.427   1.370  1.1337 -1.5998 -0.0276
 6261TIP3   OH240417   6.887   3.107   2.269  0.1174  0.6740  0.0765
 6261TIP3    H140418   6.848   3.074   2.350 -0.1478  0.8441  0.0192
 6261TIP3    H240419   6.848   3.053   2.200 -1.0258  1.7016 -0.1087
 6262TIP3   OH240420   5.755   4.733   7.332  0.1053  0.2197  0.4184
 6262TIP3    H140421   5.719   4.646   7.321 -2.0667  1.0186  0.6976
 6262TIP3    H240422   5.698   4.774   7.397  2.3615  1.1624  1.9215
 6263TIP3   OH240423   1.256   0.663   2.143  0.3859  0.2409  0.3847
 6263TIP3    H140424   1.343   0.636   2.171  1.2992  0.7563 -1.6981
 6263TIP3    H240425   1.203   0.583   2.149  1.0947 -0.1832  1.2895
 6264TIP3   OH240426   0.820   4.215   7.760 -0.2728 -0.2546 -0.5108
 6264TIP3    H140427   0.883   4.277   7.724  0.8068 -0.2873  1.1909
 6264TIP3    H240428   0.814   4.238   7.853  0.7385 -3.0814  0.3604
 6265TIP3   OH240429   4.431   1.483   2.219 -0.5426 -0.5400 -0.6719
 6265TIP3    H140430   4.448   1.394   2.251  0.2566  0.1163  0.7971
 6265TIP3    H240431   4.518   1.520   2.205 -0.8702  0.1720 -0.8414
 6266TIP3   OH240432   2.458   5.634   2.251  0.7134 -0.2771 -0.2425
 6266TIP3    H140433   2.424   5.670   2.169  2.1409 -2.4945 -1.9098
 6266TIP3    H240434   2.531   5.691   2.273  0.3687  0.2889 -0.5355
 6267TIP3   OH240435   3.035   6.758   7.765 -0.0052  0.3596 -0.2941
 6267TIP3    H140436   3.069   6.845   7.746 -1.7884  1.0235 -0.5734
 6267TIP3    H240437   3.093   6.698   7.718  0.0206  1.5213 -1.7935
 6268TIP3   OH240438   1.303   4.732   7.919 -0.0694  0.3423  0.1246
 6268TIP3    H140439   1.245   4.754   7.846  1.5464 -1.2046 -1.7327
 6268TIP3    H240440   1.271   4.647   7.951  0.7560 -0.2260 -0.5139
 6269TIP3   OH240441   1.237   5.585   0.438  0.2509 -0.3353 -0.2715
 6269TIP3    H140442   1.308   5.644   0.412  0.5247 -1.0447 -1.1910
 6269TIP3    H240443   1.280   5.500   0.450 -0.4800 -0.8234 -1.0430
 6270TIP3   OH240444   2.809   0.607   1.378 -0.3075 -0.3284 -0.0277
 6270TIP3    H140445   2.779   0.633   1.465 -0.1389 -1.5127  0.4171
 6270TIP3    H240446   2.848   0.520   1.392 -0.2757 -0.5358 -1.2840
 6271TIP3   OH240447   2.773   5.008   8.152 -0.2197 -0.1171  0.4135
 6271TIP3    H140448   2.807   5.062   8.081  0.0985 -1.1919 -0.2763
 6271TIP3    H240449   2.809   5.047   8.232  1.0812 -0.0947 -0.1619
 6272TIP3   OH240450   1.459   4.098   1.204  0.1349 -0.2716 -0.1042
 6272TIP3    H140451   1.396   4.071   1.138  1.4625 -1.9778 -0.7553
 6272TIP3    H240452   1.518   4.158   1.158  0.2329 -0.3595 -0.0947
 6273TIP3   OH240453   0.321   2.679   0.501  0.2482 -0.5003 -0.0504
 6273TIP3    H140454   0.245   2.645   0.549  0.9363 -0.6971  0.9074
 6273TIP3    H240455   0.287   2.756   0.456 -0.6640 -0.9066 -0.0985
 6274TIP3   OH240456   1.761   5.609   0.069 -0.1774  0.1928 -0.0079
 6274TIP3    H140457   1.698   5.545   0.034 -1.7781 -0.3923  3.4121
 6274TIP3    H240458   1.747   5.688   0.017 -4.1416  0.1948  0.7181
 6275TIP3   OH240459   6.158   6.096   1.749 -0.3591  0.1508 -0.1897
 6275TIP3    H140460   6.095   6.110   1.678 -1.0245 -1.1474  0.1117
 6275TIP3    H240461   6.146   6.171   1.807 -1.8451 -0.2165  0.0121
 6276TIP3   OH240462   3.445   0.595   8.536  0.0499 -0.5252 -0.3822
 6276TIP3    H140463   3.436   0.532   8.609  0.8393  1.6484  1.7165
 6276TIP3    H240464   3.356   0.601   8.500 -0.0393 -2.8732 -0.7523
 6277TIP3   OH240465   2.190   1.327   1.768 -0.0977  0.0898  0.2477
 6277TIP3    H140466   2.191   1.254   1.830 -3.0968 -0.2553  0.0495
 6277TIP3    H240467   2.211   1.404   1.821  0.2210 -0.5600  1.0850
 6278TIP3   OH240468   2.835   0.514   1.773 -0.1773  0.1716  0.1250
 6278TIP3    H140469   2.873   0.446   1.718 -0.6012  0.6671 -0.8185
 6278TIP3    H240470   2.909   0.567   1.802  0.0827 -0.2840  0.3011
 6279TIP3   OH240471   3.875   1.036   0.599 -0.2735 -0.2847 -0.6813
 6279TIP3    H140472   3.930   1.071   0.529 -1.0118  0.0435 -1.1079
 6279TIP3    H240473   3.885   1.098   0.671 -0.4908  0.0533 -0.9405
 6280TIP3   OH240474   6.378   5.190   1.695 -0.0838  0.3088 -0.3127
 6280TIP3    H140475   6.382   5.283   1.670  1.2249  0.2248 -0.4991
 6280TIP3    H240476   6.426   5.145   1.625  0.7824 -0.3035  0.6591
 6281TIP3   OH240477   6.784   0.712   1.667  0.4554  0.8877  0.4778
 6281TIP3    H140478   6.819   0.623   1.668 -0.6067  0.4538  0.6046
 6281TIP3    H240479   6.733   0.717   1.585 -0.6911  0.8802  1.1708
 6282TIP3   OH240480   2.864   6.649   7.566 -0.0302 -0.0743  0.6475
 6282TIP3    H140481   2.918   6.626   7.642 -0.9353 -0.6047  1.1479
 6282TIP3    H240482   2.918   6.626   7.491  0.4844 -0.5097  1.1403
 6283TIP3   OH240483   3.117   6.665   0.822 -0.2323  0.5316 -0.3811
 6283TIP3    H140484   3.130   6.662   0.727 -1.2013 -0.4077 -0.5079
 6283TIP3    H240485   3.162   6.744   0.850  1.3335  0.0596 -1.4195
 6284TIP3   OH240486   4.323   4.215   8.522  0.4679  0.0628  0.0444
 6284TIP3    H140487   4.353   4.131   8.556 -0.8957  0.1516  1.6121
 6284TIP3    H240488   4.261   4.194   8.453  0.9343 -0.1848 -0.3028
 6285TIP3   OH240489   0.578   2.548   2.414  0.2718 -0.7106 -0.5709
 6285TIP3    H140490   0.596   2.456   2.434  0.5061 -0.2584  1.5694
 6285TIP3    H240491   0.535   2.546   2.329  2.2396 -2.6011 -1.6311
 6286TIP3   OH240492   4.889   2.513   7.872 -0.0993 -0.3880  0.2488
 6286TIP3    H140493   4.955   2.547   7.812  1.1380 -0.1796  1.6693
 6286TIP3    H240494   4.844   2.445   7.822 -1.2788  1.8531 -1.9962
 6287TIP3   OH240495   5.651   0.646   1.097  0.2287 -0.7583 -0.2043
 6287TIP3    H140496   5.616   0.564   1.132  0.3800 -0.0381  1.7916
 6287TIP3    H240497   5.745   0.639   1.110  0.2034 -0.1097  0.3751
 6288TIP3   OH240498   1.513   1.776   6.587  0.1087 -0.6744 -0.4140
 6288TIP3    H140499   1.561   1.770   6.504 -0.9731 -1.0669 -1.0314
 6288TIP3    H240500   1.421   1.780   6.561 -0.2433 -0.8148  0.7727
 6289TIP3   OH240501   6.926   5.112   6.969  0.5240 -0.3224 -0.5502
 6289TIP3    H140502   6.882   5.120   6.884 -1.5586 -0.0372  0.4766
 6289TIP3    H240503   6.897   5.189   7.018  2.3841 -0.0264  0.1439
 6290TIP3   OH240504   2.478   2.770   7.753  0.2262  0.0126 -0.2038
 6290TIP3    H140505   2.549   2.813   7.801  0.0164 -0.7438  0.8128
 6290TIP3    H240506   2.518   2.742   7.670  0.8040  0.6105 -0.1342
 6291TIP3   OH240507   4.655   0.319   8.152 -0.2714 -0.1206 -0.1051
 6291TIP3    H140508   4.716   0.245   8.161 -0.2152 -0.2031 -1.1467
 6291TIP3    H240509   4.710   0.393   8.128 -0.4177  0.1087  0.2590
 6292TIP3   OH240510   1.602   2.204   0.452 -0.2136 -0.0588  0.3378
 6292TIP3    H140511   1.640   2.200   0.365 -2.2479 -3.4487 -0.5587
 6292TIP3    H240512   1.676   2.186   0.511  0.8535  0.5615 -0.7559
 6293TIP3   OH240513   6.076   0.887   1.702  0.7198 -0.2912 -0.1737
 6293TIP3    H140514   6.016   0.819   1.671 -0.3279  0.7657 -0.5742
 6293TIP3    H240515   6.161   0.845   1.704 -0.0046 -1.8107  0.2652
 6294TIP3   OH240516   4.467   3.970   8.596  0.0057 -0.1135  0.2710
 6294TIP3    H140517   4.443   3.890   8.642 -0.0944  0.5901  1.5006
 6294TIP3    H240518   4.516   4.021   8.662 -1.2655  1.4941  0.0256
 6295TIP3   OH240519   3.225   0.152   8.582  0.7166 -0.6810 -0.3047
 6295TIP3    H140520   3.251   0.236   8.620 -0.2662 -0.2615 -0.5208
 6295TIP3    H240521   3.245   0.088   8.649  0.1308 -0.0896  0.4508
 6296TIP3   OH240522   5.653   4.200   7.587  0.3453  0.3981  0.5256
 6296TIP3    H140523   5.672   4.264   7.655  1.2557 -1.1192  1.7876
 6296TIP3    H240524   5.715   4.220   7.517  0.0690  1.3740  0.5455
 6297TIP3   OH240525   6.577   1.280   1.585  0.1856  0.7284 -0.4575
 6297TIP3    H140526   6.506   1.237   1.537  0.2826 -0.1325  0.1561
 6297TIP3    H240527   6.544   1.289   1.674  0.7082  0.6660 -0.2566
 6298TIP3   OH240528   3.842   6.655   0.915  0.4105 -0.5339  0.4477
 6298TIP3    H140529   3.894   6.674   0.837 -0.4212  0.2032  0.0632
 6298TIP3    H240530   3.876   6.571   0.946  3.2078  0.8416  1.3974
 6299TIP3   OH240531   6.422   4.595   1.461  0.0995  0.3889  0.1509
 6299TIP3    H140532   6.350   4.533   1.453  0.4251 -0.0182  0.3559
 6299TIP3    H240533   6.445   4.593   1.554  0.6503  0.1990  0.0138
 6300TIP3   OH240534   1.485   1.237   0.133 -0.4519  0.5521 -0.4462
 6300TIP3    H140535   1.524   1.171   0.191  0.6498  1.2466 -0.3626
 6300TIP3    H240536   1.485   1.195   0.047 -3.1373 -0.9149  0.1778
 6301TIP3   OH240537   0.551   6.903   2.142  0.3734 -0.0247 -0.1995
 6301TIP3    H140538   0.635   6.856   2.133  0.7068  0.8362 -1.9434
 6301TIP3    H240539   0.547   6.925   2.235  2.7420  1.0597 -0.2702
 6302TIP3   OH240540   6.543   5.217   0.471 -0.4344  0.0253 -0.6524
 6302TIP3    H140541   6.498   5.166   0.538 -0.8244 -0.2516 -1.1195
 6302TIP3    H240542   6.535   5.308   0.500  2.0787 -0.2713  1.3089
 6303TIP3   OH240543   5.823   6.057   7.312  0.2037 -0.0460  0.4309
 6303TIP3    H140544   5.771   6.133   7.336  1.0060  1.4839 -2.2533
 6303TIP3    H240545   5.901   6.062   7.367  0.2778  1.1284  0.2405
 6304TIP3   OH240546   3.099   6.679   8.270  0.4601 -0.4818  0.1645
 6304TIP3    H140547   3.013   6.684   8.227  1.0719 -0.4174 -1.0841
 6304TIP3    H240548   3.141   6.763   8.251  1.6174 -1.3031 -1.0344
 6305TIP3   OH240549   5.841   1.716   0.648 -0.0715 -0.3793 -0.1366
 6305TIP3    H140550   5.862   1.704   0.556  0.1517  0.0263 -0.1394
 6305TIP3    H240551   5.748   1.694   0.655 -0.1673 -0.0954 -0.5149
 6306TIP3   OH240552   1.127   4.731   2.498 -0.5656  0.4350  0.5274
 6306TIP3    H140553   1.197   4.787   2.464  0.3737 -0.6763  0.5939
 6306TIP3    H240554   1.049   4.760   2.452  0.1636  0.8745 -0.4621
 6307TIP3   OH240555   3.454   0.039   0.940 -0.5229 -0.1568  0.6241
 6307TIP3    H140556   3.467  -0.056   0.946 -0.8117 -0.1568  1.3652
 6307TIP3    H240557   3.359   0.050   0.939 -0.4966  0.0682 -0.6637
 6308TIP3   OH240558   4.229   6.250   7.613  0.0222 -0.2926  0.5638
 6308TIP3    H140559   4.250   6.173   7.665  1.4639 -1.0615 -1.0606
 6308TIP3    H240560   4.223   6.218   7.523  1.9822  1.6486 -0.3559
 6309TIP3   OH240561   2.796   6.607   0.927 -0.1140  0.1251 -0.2110
 6309TIP3    H140562   2.824   6.637   0.840 -2.6046  1.4881 -0.6480
 6309TIP3    H240563   2.709   6.646   0.938 -1.4580 -3.0147  1.3586
 6310TIP3   OH240564   3.748   3.376   7.851  0.8891  0.7814  0.1127
 6310TIP3    H140565   3.740   3.342   7.761 -0.2642  0.8990  0.1550
 6310TIP3    H240566   3.737   3.470   7.841 -3.3225  0.5345  0.7398
 6311TIP3   OH240567   3.177   0.936   1.133  0.3942  0.3872 -0.2526
 6311TIP3    H140568   3.100   0.938   1.189  0.3352 -0.5470 -0.2813
 6311TIP3    H240569   3.249   0.909   1.190  0.2649 -0.9397 -0.6617
 6312TIP3   OH240570   3.931   1.542   0.799 -0.2415 -0.0457  0.5234
 6312TIP3    H140571   3.904   1.621   0.751  0.7704  1.3753  2.1538
 6312TIP3    H240572   3.932   1.570   0.891  0.9726 -1.7340  1.0590
 6313TIP3   OH240573   6.786   4.975   1.179  0.5396  0.0182  0.4479
 6313TIP3    H140574   6.731   5.052   1.191  0.6002  0.3505 -1.2550
 6313TIP3    H240575   6.843   4.975   1.256 -0.0919  1.1267  0.9457
 6314TIP3   OH240576   1.306   1.755   0.561  0.4087  0.0046 -0.1082
 6314TIP3    H140577   1.337   1.846   0.556  0.9257  0.3247  4.3267
 6314TIP3    H240578   1.216   1.763   0.595  0.0411 -1.1595 -0.7636
 6315TIP3   OH240579   0.398   3.487   0.685 -0.6925 -0.3689  0.0226
 6315TIP3    H140580   0.406   3.521   0.774 -2.5439  0.6227 -0.1426
 6315TIP3    H240581   0.313   3.519   0.654 -1.2078 -2.6968 -1.2409
 6316TIP3   OH240582   5.114   1.853   8.143 -0.4194  0.1199  0.0265
 6316TIP3    H140583   5.060   1.924   8.178  2.2205  2.7735 -0.8771
 6316TIP3    H240584   5.068   1.824   8.064 -1.8975  0.2512  0.8011
 6317TIP3   OH240585   5.726   3.614   0.424 -0.4538  0.1229 -0.5914
 6317TIP3    H140586   5.798   3.570   0.380  0.1667 -0.2409  0.7268
 6317TIP3    H240587   5.713   3.695   0.375  1.8768  0.9349 -0.0109
 6318TIP3   OH240588   6.398   2.070   2.160  0.1197 -0.0490 -0.5206
 6318TIP3    H140589   6.378   2.091   2.252 -0.6388  1.6683 -1.0324
 6318TIP3    H240590   6.336   2.000   2.138  0.1802 -0.3442  0.2050
 6319TIP3   OH240591   3.141   6.221   0.931 -0.4520  0.1922  0.5071
 6319TIP3    H140592   3.182   6.274   1.000  0.7862 -0.3277  0.2076
 6319TIP3    H240593   3.095   6.284   0.876 -0.8004  0.6994  1.3694
 6320TIP3   OH240594   0.787   2.004   8.263  0.1117  0.0800 -0.2976
 6320TIP3    H140595   0.810   2.080   8.210 -0.2211 -0.3044 -1.0057
 6320TIP3    H240596   0.699   1.979   8.233  0.6828 -1.2906 -0.9063
 6321TIP3   OH240597   5.886   3.491   6.712 -0.1393 -0.6559 -0.1353
 6321TIP3    H140598   5.820   3.542   6.665 -0.5450 -2.0611 -1.1939
 6321TIP3    H240599   5.836   3.443   6.778  0.4432  1.3719  1.8739
 6322TIP3   OH240600   1.072   1.063   1.125  0.2762  0.1650 -0.3622
 6322TIP3    H140601   1.160   1.033   1.102  0.0039  0.5764 -2.0572
 6322TIP3    H240602   1.015   0.988   1.108 -0.0258  0.6986 -1.8450
 6323TIP3   OH240603   1.814   6.497   8.608  0.1178  0.0429  0.6010
 6323TIP3    H140604   1.891   6.530   8.653 -0.1976 -0.9774  1.9398
 6323TIP3    H240605   1.740   6.537   8.653 -0.1986 -0.7890  0.8416
 6324TIP3   OH240606   6.059   0.706   8.320  0.4377 -0.4659 -0.6058
 6324TIP3    H140607   6.035   0.622   8.360 -1.3819  0.1379 -0.3409
 6324TIP3    H240608   6.049   0.770   8.390 -0.1875  0.2428 -1.3211
 6325TIP3   OH240609   2.757   3.603   7.800 -0.0410  0.4796  0.3233
 6325TIP3    H140610   2.839   3.562   7.774 -0.5866  0.0709 -0.7755
 6325TIP3    H240611   2.728   3.553   7.876 -0.4142 -0.8313 -0.6587
 6326TIP3   OH240612   4.336   5.444   8.121 -0.1092 -0.5547 -0.2579
 6326TIP3    H140613   4.367   5.534   8.114 -1.0877  0.0137  1.7857
 6326TIP3    H240614   4.397   5.402   8.181  0.6765 -1.4795 -1.6359
 6327TIP3   OH240615   1.017   0.788   1.079  0.1326 -0.0993  0.1683
 6327TIP3    H140616   1.088   0.803   1.141 -0.6779 -1.1424  1.3938
 6327TIP3    H240617   1.032   0.699   1.046 -1.0105 -0.6344  1.0317
 6328TIP3   OH240618   0.290   0.386   7.992 -0.5779  0.0099 -0.2978
 6328TIP3    H140619   0.223   0.432   7.941  0.1190  0.8029 -0.5195
 6328TIP3    H240620   0.372   0.429   7.969  0.1169 -1.3964 -0.5519
 6329TIP3   OH240621   2.968   5.537   1.306 -0.3946 -0.1817  0.1785
 6329TIP3    H140622   3.019   5.486   1.369  1.0241  0.1662 -0.6478
 6329TIP3    H240623   2.945   5.617   1.353  0.5516  0.0218  0.3231
 6330TIP3   OH240624   4.202   0.410   0.442  0.4295  0.4848 -0.3725
 6330TIP3    H140625   4.175   0.343   0.505  1.8724  0.0909 -0.1323
 6330TIP3    H240626   4.148   0.486   0.463 -0.3862 -0.2152  0.1438
 6331TIP3   OH240627   1.602   6.620   2.446 -0.6476 -0.0068 -0.0958
 6331TIP3    H140628   1.653   6.698   2.427  0.3226 -0.5293  0.2845
 6331TIP3    H240629   1.578   6.628   2.539  0.2335 -0.5763  0.1955
 6332TIP3   OH240630   4.637   2.096   8.218  0.4468 -0.3055 -0.1852
 6332TIP3    H140631   4.649   2.061   8.307  0.1801 -1.4328 -0.5763
 6332TIP3    H240632   4.543   2.088   8.202  0.0706  2.2081  0.3286
 6333TIP3   OH240633   1.928   0.185   7.694  0.1311 -0.0760 -0.0287
 6333TIP3    H140634   1.881   0.105   7.715 -1.1807  0.3057 -1.3734
 6333TIP3    H240635   1.933   0.186   7.598  4.0324 -0.7307 -0.0076
 6334TIP3   OH240636   5.839   4.645   1.175 -0.5733  0.1759 -0.5797
 6334TIP3    H140637   5.895   4.638   1.252 -1.5357 -3.8841 -0.0540
 6334TIP3    H240638   5.754   4.674   1.208 -0.3161  0.9093 -0.5437
 6335TIP3   OH240639   1.491   1.122   7.947  0.6033 -0.0255  0.8574
 6335TIP3    H140640   1.487   1.057   8.018 -3.2099 -0.7074  0.2780
 6335TIP3    H240641   1.411   1.173   7.959  1.3419  1.7529 -1.2924
 6336TIP3   OH240642   5.393   4.798   0.229  0.2704 -0.0395 -0.2692
 6336TIP3    H140643   5.326   4.736   0.259  0.0941 -0.2813 -1.1513
 6336TIP3    H240644   5.429   4.758   0.150  1.1194  0.3267 -0.0770
 6337TIP3   OH240645   3.381   4.099   7.998 -0.5266  0.1903 -0.1284
 6337TIP3    H140646   3.380   4.095   8.094  1.9016  0.2155 -0.0288
 6337TIP3    H240647   3.395   4.008   7.971  1.4673  0.4834 -0.2744
 6338TIP3   OH240648   1.074   4.135   6.998  0.3683  0.5331  0.3301
 6338TIP3    H140649   1.087   4.101   6.910 -2.3691 -0.2459  0.1434
 6338TIP3    H240650   1.134   4.085   7.053  0.8061 -0.2409 -0.8312
 6339TIP3   OH240651   2.128   4.552   7.700  0.0277  0.3048  0.5411
 6339TIP3    H140652   2.087   4.528   7.782  0.7500  0.1599  0.8658
 6339TIP3    H240653   2.089   4.493   7.635 -1.1583  0.9766  0.6110
 6340TIP3   OH240654   3.595   1.846   7.657 -0.2139  0.6260 -0.0723
 6340TIP3    H140655   3.598   1.794   7.577  0.8822  2.0839 -1.0179
 6340TIP3    H240656   3.528   1.804   7.710 -0.1677 -1.0592 -1.2652
 6341TIP3   OH240657   6.607   0.650   8.188  0.4045  0.2011  0.2829
 6341TIP3    H140658   6.591   0.742   8.208 -0.5195 -0.2814  1.9808
 6341TIP3    H240659   6.525   0.618   8.151  1.5710  0.6568 -2.9565
 6342TIP3   OH240660   4.190   3.757   1.157  0.9769 -0.3733 -0.5533
 6342TIP3    H140661   4.256   3.726   1.094  1.8350 -0.1964  0.2334
 6342TIP3    H240662   4.232   3.832   1.199 -0.5125  1.0087 -1.4321
 6343TIP3   OH240663   1.973   0.800   7.349  0.4494  0.3038 -0.0267
 6343TIP3    H140664   1.928   0.826   7.430  0.8074  0.7993  0.0211
 6343TIP3    H240665   1.980   0.705   7.355 -0.1149  0.2688  0.2131
 6344TIP3   OH240666   6.020   3.384   1.382  0.2199  0.1493  0.2254
 6344TIP3    H140667   5.948   3.441   1.409 -0.4889  0.1362 -1.4905
 6344TIP3    H240668   5.990   3.296   1.403 -1.1709 -0.0402 -2.1418
 6345TIP3   OH240669   1.125   6.878   0.494  0.0342  0.0798  0.0305
 6345TIP3    H140670   1.194   6.813   0.509  0.8383  0.7192 -0.8396
 6345TIP3    H240671   1.063   6.864   0.566  1.0615 -0.5035  0.8225
 6346TIP3   OH240672   6.044   1.890   7.341 -0.2985  0.0343  0.8507
 6346TIP3    H140673   5.991   1.967   7.319  1.7870  1.3336  0.0780
 6346TIP3    H240674   6.085   1.865   7.258  2.2879  0.7163  1.8288
 6347TIP3   OH240675   6.504   6.407   1.790 -0.1411 -0.1398 -0.2248
 6347TIP3    H140676   6.439   6.438   1.726 -0.2820  0.6625  0.2861
 6347TIP3    H240677   6.474   6.320   1.814 -0.6932 -0.0219 -0.4527
 6348TIP3   OH240678   2.491   5.793   1.422 -0.1776  0.4719  0.7378
 6348TIP3    H140679   2.495   5.864   1.359  0.2103  0.2543  0.5098
 6348TIP3    H240680   2.447   5.722   1.375  1.1765 -0.1018  0.2872
 6349TIP3   OH240681   5.510   2.920   2.186 -0.4050 -0.5630 -0.5543
 6349TIP3    H140682   5.588   2.865   2.175 -2.5378 -3.4463 -2.7881
 6349TIP3    H240683   5.453   2.870   2.244 -1.4064  0.5559 -0.5455
 6350TIP3   OH240684   3.074   5.510   0.507 -0.1445  0.3187  0.1484
 6350TIP3    H140685   3.093   5.564   0.431 -1.5866  2.8415  1.4650
 6350TIP3    H240686   3.151   5.521   0.564 -0.3636  0.8731  0.3415
 6351TIP3   OH240687   3.999   3.234   1.569  0.1090  0.1052  0.1862
 6351TIP3    H140688   3.949   3.206   1.492 -0.8001 -1.2395  1.2317
 6351TIP3    H240689   4.090   3.228   1.541 -0.2031 -0.3320 -0.7886
 6352TIP3   OH240690   2.154   0.232   1.774 -0.3304 -0.7248  0.1701
 6352TIP3    H140691   2.200   0.305   1.733  0.8550 -1.0920  0.8156
 6352TIP3    H240692   2.211   0.205   1.846 -1.1866 -1.7019  0.4985
 6353TIP3   OH240693   4.869   5.035   1.676 -0.1513 -0.0411 -0.0089
 6353TIP3    H140694   4.919   5.076   1.605 -0.4217  0.0773 -0.1325
 6353TIP3    H240695   4.785   5.012   1.636  0.0054 -0.7343  0.0542
 6354TIP3   OH240696   3.945   3.930   7.128 -0.1993 -0.3913 -0.1172
 6354TIP3    H140697   4.015   3.993   7.142 -2.1676  1.8496  0.2181
 6354TIP3    H240698   3.981   3.846   7.158  2.6103  0.4470 -0.8597
 6355TIP3   OH240699   0.272   6.622   0.502 -0.1604 -0.2716  0.0337
 6355TIP3    H140700   0.269   6.587   0.414 -1.3242  0.7595 -0.3717
 6355TIP3    H240701   0.294   6.714   0.491 -1.8408  0.2447  0.6659
 6356TIP3   OH240702   6.699   5.954   2.140  0.4342 -0.0085  0.0102
 6356TIP3    H140703   6.779   5.973   2.092  1.2867 -3.4519 -0.1954
 6356TIP3    H240704   6.711   5.997   2.225  1.5213  1.2345 -0.7420
 6357TIP3   OH240705   6.140   1.207   0.644  0.3084 -0.2482  0.2846
 6357TIP3    H140706   6.188   1.128   0.670  1.1737  0.6443  1.5271
 6357TIP3    H240707   6.171   1.274   0.704 -0.1808  1.1249 -0.9543
 6358TIP3   OH240708   6.568   4.408   2.089  0.3132  0.2542 -0.1996
 6358TIP3    H140709   6.647   4.360   2.116  0.1462 -0.1634 -0.4469
 6358TIP3    H240710   6.576   4.493   2.132  0.0555 -0.3846  1.1932
 6359TIP3   OH240711   0.776   1.753   7.545  0.9641  0.1922 -0.2523
 6359TIP3    H140712   0.855   1.787   7.505  0.7448 -0.7087 -1.4941
 6359TIP3    H240713   0.735   1.699   7.477  0.4775 -1.2325  1.0996
 6360TIP3   OH240714   5.991   5.172   0.551  0.2571  0.3327  0.0197
 6360TIP3    H140715   5.905   5.134   0.536 -0.4834  2.3164 -1.2654
 6360TIP3    H240716   5.988   5.206   0.640  0.1339 -0.5556  0.3648
 6361TIP3   OH240717   6.138   2.892   1.038 -0.6562  0.2602  0.0294
 6361TIP3    H140718   6.137   2.865   1.130 -0.4617  2.5905  0.7821
 6361TIP3    H240719   6.230   2.910   1.020 -0.7358  0.1124 -0.5377
 6362TIP3   OH240720   6.628   3.454   6.874 -0.5031  0.6166 -0.8260
 6362TIP3    H140721   6.697   3.520   6.875  0.4087 -0.2837 -1.6898
 6362TIP3    H240722   6.658   3.389   6.810  0.0833 -2.1354  1.9988
 6363TIP3   OH240723   0.599   1.754   1.089  0.5452 -0.4466  0.2355
 6363TIP3    H140724   0.616   1.674   1.139  0.6173  0.0469  1.0307
 6363TIP3    H240725   0.504   1.752   1.073  0.5430 -0.6801  0.2688
 6364TIP3   OH240726   5.088   1.212   1.414 -0.5570 -0.1352 -0.1717
 6364TIP3    H140727   5.107   1.128   1.454  1.1433 -0.3307 -1.3017
 6364TIP3    H240728   5.099   1.276   1.485  1.1178 -0.5976  0.0277
 6365TIP3   OH240729   6.870   1.032   1.017  0.1958 -0.2303 -0.1935
 6365TIP3    H140730   6.828   1.049   1.102 -0.3072 -1.0319 -0.2735
 6365TIP3    H240731   6.922   0.954   1.032  0.0025 -0.4493 -0.6606
 6366TIP3   OH240732   1.050   0.432   0.604 -0.3388  0.8832 -0.2523
 6366TIP3    H140733   1.089   0.519   0.599  1.0130  0.2330 -1.8826
 6366TIP3    H240734   1.053   0.398   0.515 -2.1837 -0.2949  0.0667
 6367TIP3   OH240735   0.217   0.809   6.751  0.1373 -0.1439  0.1387
 6367TIP3    H140736   0.262   0.853   6.679 -0.0104  0.6083  0.4934
 6367TIP3    H240737   0.232   0.866   6.827 -1.5822  0.2441  0.2303
 6368TIP3   OH240738   3.821   5.156   6.360  0.0160  0.2449  0.6192
 6368TIP3    H140739   3.850   5.089   6.422  1.2549 -2.0773 -2.1904
 6368TIP3    H240740   3.748   5.115   6.314 -1.2631  2.1279  0.8904
 6369TIP3   OH240741   1.176   1.631   2.215 -0.1776 -0.4750  0.1816
 6369TIP3    H140742   1.179   1.542   2.249 -1.0880 -1.0235 -1.1070
 6369TIP3    H240743   1.105   1.673   2.264 -0.6072 -0.8547 -0.1130
 6370TIP3   OH240744   4.712   6.171   0.925  0.0510  0.0486  0.1367
 6370TIP3    H140745   4.766   6.136   0.997  1.4469 -0.3949 -1.0723
 6370TIP3    H240746   4.633   6.203   0.968  0.2680 -1.3980  1.7186
 6371TIP3   OH240747   3.522   2.299   8.565 -0.3133 -0.2213  0.5080
 6371TIP3    H140748   3.606   2.288   8.519  0.9984 -1.3501  2.9489
 6371TIP3    H240749   3.505   2.213   8.603 -2.9328 -0.1610 -0.3435
 6372TIP3   OH240750   5.027   6.231   7.670  0.4568 -0.0366 -0.5488
 6372TIP3    H140751   5.005   6.305   7.613 -0.5126 -0.5374 -0.8516
 6372TIP3    H240752   4.946   6.212   7.717  0.5584 -1.1878 -0.8007
 6373TIP3   OH240753   2.452   5.212   0.096 -0.2811 -0.0780 -0.8588
 6373TIP3    H140754   2.527   5.165   0.061  1.2357  1.9096 -0.4253
 6373TIP3    H240755   2.448   5.293   0.047 -2.7958 -0.4931 -1.5333
 6374TIP3   OH240756   3.240   1.607   0.854 -0.1396  0.5062 -0.4998
 6374TIP3    H140757   3.222   1.700   0.866 -2.7142 -0.1422  1.3109
 6374TIP3    H240758   3.160   1.571   0.818  1.1517 -0.9144 -2.1279
 6375TIP3   OH240759   4.164   3.586   7.789 -0.7693  0.2318 -0.3308
 6375TIP3    H140760   4.093   3.577   7.852 -0.4492 -0.4601 -0.0676
 6375TIP3    H240761   4.123   3.568   7.704 -0.7540 -0.9460 -0.1036
 6376TIP3   OH240762   0.345   3.476   0.206  0.6774  0.2536  0.1699
 6376TIP3    H140763   0.351   3.569   0.228  1.8391  0.1364  0.4218
 6376TIP3    H240764   0.254   3.463   0.179  0.3416  1.3307  0.7328
 6377TIP3   OH240765   4.018   3.387   2.459 -0.1117 -0.3446 -0.6143
 6377TIP3    H140766   4.086   3.344   2.407  1.3793 -0.6335  1.4446
 6377TIP3    H240767   4.047   3.478   2.465  0.0044 -0.4230  0.0925
 6378TIP3   OH240768   5.392   6.131   1.260  0.5132  0.2146 -0.0491
 6378TIP3    H140769   5.308   6.171   1.280  0.1014  0.2800 -1.7420
 6378TIP3    H240770   5.449   6.157   1.333 -0.8006  0.5303  0.9005
 6379TIP3   OH240771   6.416   4.573   6.175 -0.1061 -1.0254  0.2270
 6379TIP3    H140772   6.409   4.552   6.268  0.7897 -0.2312  0.4925
 6379TIP3    H240773   6.448   4.663   6.173 -2.0264 -0.3113 -0.8645
 6380TIP3   OH240774   3.029   1.442   2.281 -0.0939 -0.0439 -0.1085
 6380TIP3    H140775   2.940   1.418   2.308  0.5282 -0.3676  1.8436
 6380TIP3    H240776   3.049   1.520   2.333  1.4537 -1.1558  1.0796
 6381TIP3   OH240777   6.215   6.427   0.862 -0.1962  0.3585  0.4663
 6381TIP3    H140778   6.214   6.332   0.852  0.0676  0.5195 -1.5410
 6381TIP3    H240779   6.286   6.457   0.804  0.8807  1.6824  2.3496
 6382TIP3   OH240780   2.618   5.679   6.932  0.0991  0.2853  0.3232
 6382TIP3    H140781   2.704   5.703   6.967 -0.6553  0.4112  2.1815
 6382TIP3    H240782   2.636   5.655   6.841  1.9165  1.4004  0.3275
 6383TIP3   OH240783   1.603   1.679   0.185  0.4933  0.1637 -0.5941
 6383TIP3    H140784   1.531   1.736   0.159  0.2510 -0.2703 -0.8916
 6383TIP3    H240785   1.567   1.591   0.179  0.4529  0.0263  1.1690
 6384TIP3   OH240786   0.869   3.528   1.852  0.1453  0.3332 -0.1146
 6384TIP3    H140787   0.828   3.523   1.766  0.8332 -0.1352 -0.4279
 6384TIP3    H240788   0.958   3.496   1.838  0.0768 -0.3706  0.8956
 6385TIP3   OH240789   1.387   1.525   1.057  0.0131  0.3109 -0.4079
 6385TIP3    H140790   1.310   1.572   1.089 -0.3422 -0.4923 -0.0343
 6385TIP3    H240791   1.351   1.457   1.000  0.6053  1.3221 -2.0550
 6386TIP3   OH240792   3.422   0.578   1.669 -0.0806  0.1398  0.5314
 6386TIP3    H140793   3.385   0.494   1.697 -1.3695 -0.1223 -1.7361
 6386TIP3    H240794   3.507   0.555   1.632 -0.1028 -0.0484  0.5947
 6387TIP3   OH240795   2.473   3.842   6.407  0.3945 -0.2099 -0.5311
 6387TIP3    H140796   2.437   3.852   6.319  0.4709 -1.4977 -0.7314
 6387TIP3    H240797   2.412   3.890   6.463  1.0498  1.7584 -1.4003
 6388TIP3   OH240798   4.951   3.403   0.994  0.4033 -0.1813 -0.2340
 6388TIP3    H140799   4.910   3.334   1.047 -0.1558  0.3020 -0.0269
 6388TIP3    H240800   4.888   3.475   0.997  2.0472  1.2600  1.5555
 6389TIP3   OH240801   3.832   2.174   1.597  0.1292  0.5076 -0.2750
 6389TIP3    H140802   3.876   2.097   1.632  0.4726  0.5952 -0.5119
 6389TIP3    H240803   3.745   2.142   1.571  0.3666  0.1367 -0.6233
 6390TIP3   OH240804   6.824   5.634   0.608  0.3515  0.4023 -0.4980
 6390TIP3    H140805   6.804   5.726   0.625  1.6820  0.4900  0.7856
 6390TIP3    H240806   6.802   5.621   0.516 -0.4480  1.8338 -0.5330
 6391TIP3   OH240807   1.031   4.081   8.368  1.0810  0.3113  0.3465
 6391TIP3    H140808   0.947   4.095   8.412  1.4674  0.5019  1.0375
 6391TIP3    H240809   1.012   4.015   8.301  0.2768  0.7142  0.1722
 6392TIP3   OH240810   5.921   3.680   8.380  0.5210  0.2848 -0.3390
 6392TIP3    H140811   5.875   3.622   8.319  0.6364 -1.4595  1.1383
 6392TIP3    H240812   5.903   3.768   8.347 -1.9066 -0.4251 -1.1535
 6393TIP3   OH240813   4.592   4.196   1.366  0.0969  0.4726  0.1439
 6393TIP3    H140814   4.560   4.220   1.279 -0.0525  0.4488  0.1919
 6393TIP3    H240815   4.659   4.130   1.350  1.4739  1.8792 -0.0789
 6394TIP3   OH240816   3.966   5.284   1.330 -0.2809 -0.3074  0.2841
 6394TIP3    H140817   4.058   5.289   1.357 -0.0646 -0.2439 -0.4408
 6394TIP3    H240818   3.919   5.260   1.410  0.2104  0.8277  0.9438
 6395TIP3   OH240819   4.793   2.053   1.725  0.0413  0.1616 -0.4294
 6395TIP3    H140820   4.869   2.058   1.784  0.3737 -0.1729 -0.8240
 6395TIP3    H240821   4.808   1.975   1.673 -0.8299 -0.1897 -0.1706
 6396TIP3   OH240822   5.318   2.581   8.538 -0.5492 -0.4531  0.4077
 6396TIP3    H140823   5.314   2.634   8.618 -0.8787 -1.0167  0.7699
 6396TIP3    H240824   5.271   2.501   8.560 -1.9934 -0.0008 -0.8234
 6397TIP3   OH240825   3.574   3.379   1.661 -0.1239 -0.4878  0.3241
 6397TIP3    H140826   3.539   3.392   1.750 -0.3618  2.1692 -0.0631
 6397TIP3    H240827   3.642   3.445   1.653  0.5127 -1.2890 -1.1844
 6398TIP3   OH240828   0.146   0.593   1.486 -0.0330 -0.0303  0.1858
 6398TIP3    H140829   0.222   0.534   1.479 -0.1194  0.0504 -2.0694
 6398TIP3    H240830   0.180   0.679   1.460 -1.1685 -0.3054 -2.6091
 6399TIP3   OH240831   1.321   2.066   0.236 -0.3765  0.1694 -0.0113
 6399TIP3    H140832   1.269   2.059   0.156 -0.9024  0.9256  0.2506
 6399TIP3    H240833   1.404   2.105   0.207 -0.0847 -0.7030 -0.3732
 6400TIP3   OH240834   2.107   6.779   7.232 -0.0820  0.1210  0.4045
 6400TIP3    H140835   2.194   6.743   7.251  0.1011  1.4392  2.3220
 6400TIP3    H240836   2.122   6.838   7.158  0.6134  0.1614  0.5672
 6401TIP3   OH240837   2.667   0.044   1.377  0.1036  0.3876  0.2306
 6401TIP3    H140838   2.615   0.078   1.449  0.7060  0.8391  0.4590
 6401TIP3    H240839   2.754   0.081   1.390  0.5778 -0.6140  0.0415
 6402TIP3   OH240840   0.110   1.956   7.356  0.8421  0.3747  0.3528
 6402TIP3    H140841   0.016   1.947   7.340  1.2122 -0.7826 -1.4462
 6402TIP3    H240842   0.136   2.031   7.303  1.2149 -0.4361 -0.6558
 6403TIP3   OH240843   6.460   0.539   6.967 -0.1965  0.0759  0.5893
 6403TIP3    H140844   6.511   0.536   7.048  0.5640 -0.2634  0.1052
 6403TIP3    H240845   6.488   0.619   6.923 -0.1214 -0.0815  0.3492
 6404TIP3   OH240846   5.970   4.608   1.681 -0.4920 -0.2927  0.9399
 6404TIP3    H140847   6.000   4.632   1.593 -0.1291  2.1377  1.6602
 6404TIP3    H240848   6.013   4.670   1.739 -2.9093  0.0200  2.5457
 6405TIP3   OH240849   5.404   0.479   1.320 -0.1316  0.2385  0.0726
 6405TIP3    H140850   5.379   0.388   1.305 -3.8980  1.0037  0.6960
 6405TIP3    H240851   5.410   0.517   1.233  1.3082 -0.5211 -0.1856
 6406TIP3   OH240852   0.369   5.884   8.332  0.1915  0.2997 -0.0782
 6406TIP3    H140853   0.346   5.856   8.243 -0.3411 -1.5771  0.6184
 6406TIP3    H240854   0.286   5.915   8.369 -0.2438 -1.6270  0.6880
 6407TIP3   OH240855   0.401   2.596   6.750  0.2265  0.3496 -0.1401
 6407TIP3    H140856   0.484   2.579   6.795 -0.5501 -0.4481  1.0561
 6407TIP3    H240857   0.373   2.511   6.718 -0.3237  0.5464 -0.1947
 6408TIP3   OH240858   3.184   6.525   6.909  0.3639  0.1619  0.6084
 6408TIP3    H140859   3.227   6.495   6.829 -1.9310 -1.4094 -0.1433
 6408TIP3    H240860   3.106   6.572   6.877 -0.7515 -0.7486  1.8994
 6409TIP3   OH240861   3.770   6.810   0.414 -0.0087 -0.0039 -0.2040
 6409TIP3    H140862   3.862   6.831   0.395 -0.0439 -0.2699 -0.6902
 6409TIP3    H240863   3.755   6.846   0.501  0.3035  0.8483 -0.4849
 6410TIP3   OH240864   2.614   0.655   1.613 -0.0600 -0.0483  0.2407
 6410TIP3    H140865   2.523   0.668   1.642 -0.1883 -0.8596  0.2379
 6410TIP3    H240866   2.654   0.603   1.683 -0.7325 -3.1991 -1.5272
 6411TIP3   OH240867   3.846   0.404   7.249 -0.2189  0.0249  0.6040
 6411TIP3    H140868   3.851   0.308   7.243  0.4999  0.0723  0.3567
 6411TIP3    H240869   3.774   0.428   7.191  0.0916 -0.3116  0.0720
 6412TIP3   OH240870   5.040   0.355   7.487 -0.0754  0.3448  0.2992
 6412TIP3    H140871   5.015   0.382   7.399 -0.4655 -0.1761  0.2442
 6412TIP3    H240872   5.130   0.387   7.497  0.0465  0.2302 -0.3644
 6413TIP3   OH240873   5.892   5.035   1.746  0.1352  0.3282 -0.2040
 6413TIP3    H140874   5.943   5.113   1.722 -0.5244  1.1282  0.9187
 6413TIP3    H240875   5.824   5.068   1.805  0.6674 -1.2956  1.4098
 6414TIP3   OH240876   0.395   5.535   8.064 -0.1876 -0.4041  0.4151
 6414TIP3    H140877   0.388   5.597   7.991 -1.0779 -0.7798  0.1620
 6414TIP3    H240878   0.318   5.553   8.118 -0.2659 -1.0527  0.5263
 6415TIP3   OH240879   0.229   3.050   0.517 -0.0576 -0.4257 -0.2494
 6415TIP3    H140880   0.165   3.120   0.514 -0.2904 -0.6146  0.2639
 6415TIP3    H240881   0.225   3.010   0.430 -1.5753 -1.2725  0.1866
 6416TIP3   OH240882   0.708   1.163   7.271  0.2473  0.2189  0.1737
 6416TIP3    H140883   0.779   1.225   7.287  0.8310  0.2051 -2.0392
 6416TIP3    H240884   0.719   1.095   7.338  0.2669  1.8822  1.9490
 6417TIP3   OH240885   4.203   1.752   0.693 -0.4216 -0.2788  0.0815
 6417TIP3    H140886   4.236   1.767   0.604 -1.0604  2.6623  0.2257
 6417TIP3    H240887   4.280   1.763   0.749 -0.2976 -0.6086 -0.0257
 6418TIP3   OH240888   4.273   2.638   0.499 -0.2365 -0.0208  0.9385
 6418TIP3    H140889   4.339   2.603   0.439 -0.6698  1.8551 -0.7393
 6418TIP3    H240890   4.272   2.575   0.572  2.0818 -1.0753  0.1902
 6419TIP3   OH240891   6.513   0.428   0.193 -0.6732  0.0238  0.3053
 6419TIP3    H140892   6.448   0.492   0.164 -0.5605 -0.2587 -0.6017
 6419TIP3    H240893   6.594   0.478   0.201 -0.4820 -0.0740 -0.8396
 6420TIP3   OH240894   5.435   0.462   6.808 -1.0208  0.2629  0.2265
 6420TIP3    H140895   5.439   0.551   6.773  0.9885  0.4382  0.7649
 6420TIP3    H240896   5.515   0.420   6.779 -0.9112 -0.6813  1.7321
 6421TIP3   OH240897   1.265   0.010   7.696  0.1705  0.4446 -0.3434
 6421TIP3    H140898   1.218   0.018   7.779 -1.6166  0.7299 -1.3358
 6421TIP3    H240899   1.277  -0.085   7.685 -0.7707  0.3111 -0.3643
 6422TIP3   OH240900   2.808   2.240   2.030 -0.3442  0.3331  0.0780
 6422TIP3    H140901   2.843   2.265   2.115  3.2809 -0.4359 -0.9720
 6422TIP3    H240902   2.846   2.154   2.013 -0.7493  0.5427 -2.3575
 6423TIP3   OH240903   4.513   3.073   2.016  0.2470  0.2527 -0.0588
 6423TIP3    H140904   4.534   3.166   2.004  0.8141  0.2203  0.6112
 6423TIP3    H240905   4.492   3.065   2.109 -0.4310 -0.1719 -0.2499
 6424TIP3   OH240906   1.068   5.411   1.253  0.2193 -0.2643  0.0598
 6424TIP3    H140907   1.000   5.435   1.190 -0.1542  0.9541  0.8878
 6424TIP3    H240908   1.038   5.449   1.335  0.6425 -1.8949  1.0251
 6425TIP3   OH240909   1.104   5.132   1.505 -0.3950  0.2807 -0.2081
 6425TIP3    H140910   1.171   5.080   1.549 -0.6708  0.5864  0.5795
 6425TIP3    H240911   1.073   5.194   1.571 -0.1124  1.4261 -1.1003
 6426TIP3   OH240912   2.555   5.837   7.445  0.1714  0.3067  0.0864
 6426TIP3    H140913   2.462   5.857   7.431  0.6727  1.3734 -2.0874
 6426TIP3    H240914   2.574   5.766   7.383  0.5737 -0.6896  1.3148
 6427TIP3   OH240915   5.766   5.831   2.356 -0.2848 -0.5090 -0.2273
 6427TIP3    H140916   5.686   5.839   2.303 -1.7116 -0.9985  1.7633
 6427TIP3    H240917   5.819   5.907   2.329 -0.5147 -1.1941 -2.9404
 6428TIP3   OH240918   0.743   2.693   7.392 -0.5831  0.9555 -0.1675
 6428TIP3    H140919   0.669   2.697   7.332 -1.8924  1.6590  1.3942
 6428TIP3    H240920   0.808   2.638   7.348 -2.5628 -0.8294 -1.0493
 6429TIP3   OH240921   5.832   6.371   0.527 -0.6541 -0.1046  0.1635
 6429TIP3    H140922   5.835   6.326   0.443  2.2868 -0.7809  0.5380
 6429TIP3    H240923   5.879   6.453   0.512  0.4845 -0.5303  1.2699
 6430TIP3   OH240924   4.522   1.648   0.321  0.2466  0.0911  0.2636
 6430TIP3    H140925   4.511   1.596   0.401 -0.9341 -0.0361  0.0352
 6430TIP3    H240926   4.442   1.699   0.315 -0.2834 -0.8613 -1.5321
 6431TIP3   OH240927   3.806   1.014   0.308  0.8139 -0.3445 -0.2621
 6431TIP3    H140928   3.873   1.076   0.335 -1.2025  1.9559 -0.1985
 6431TIP3    H240929   3.732   1.068   0.280 -1.2906 -2.7161  0.2964
 6432TIP3   OH240930   3.268   5.309   2.258 -0.3168  0.2139  0.4901
 6432TIP3    H140931   3.252   5.215   2.254  1.7124 -0.1482  0.2040
 6432TIP3    H240932   3.246   5.334   2.348  0.2028 -0.7335  0.8868
 6433TIP3   OH240933   2.476   3.424   1.926  1.0149 -0.1501  0.0303
 6433TIP3    H140934   2.486   3.334   1.956  1.5556  0.3179  1.3467
 6433TIP3    H240935   2.528   3.476   1.987 -1.8131  1.3978  1.3482
 6434TIP3   OH240936   6.388   2.996   0.060  0.2846  0.2145 -0.4259
 6434TIP3    H140937   6.383   3.087   0.032  0.3064  0.4585  0.3508
 6434TIP3    H240938   6.300   2.961   0.045  0.7697 -0.2300 -2.6297
 6435TIP3   OH240939   1.655   4.676   6.519 -0.5012  0.3712  0.0436
 6435TIP3    H140940   1.594   4.621   6.469  2.0696 -2.7435 -0.0137
 6435TIP3    H240941   1.722   4.702   6.455  1.5230 -1.6361  1.1940
 6436TIP3   OH240942   6.243   4.097   7.837 -0.0984 -0.0529  0.1069
 6436TIP3    H140943   6.227   4.163   7.905  1.0875  1.7682 -1.2860
 6436TIP3    H240944   6.331   4.117   7.805  0.6626 -2.8759  0.1661
 6437TIP3   OH240945   3.839   6.510   0.336  0.3073  0.2416  0.4540
 6437TIP3    H140946   3.779   6.491   0.408 -1.2980  1.9003 -0.3601
 6437TIP3    H240947   3.907   6.564   0.375  0.5865 -0.5815  1.1289
 6438TIP3   OH240948   1.409   1.680   6.349 -0.8185 -0.6450  0.1857
 6438TIP3    H140949   1.503   1.693   6.347 -0.7578 -0.7896  1.4484
 6438TIP3    H240950   1.395   1.594   6.310 -0.4308 -0.6219 -0.0031
 6439TIP3   OH240951   4.588   4.413   2.150 -0.1716 -0.2507  0.4433
 6439TIP3    H140952   4.638   4.480   2.196 -1.0175  1.0880 -0.5278
 6439TIP3    H240953   4.532   4.374   2.218 -1.8257  2.1027  0.5479
 6440TIP3   OH240954   1.433   4.512   8.214 -0.1551  0.0216  0.6905
 6440TIP3    H140955   1.386   4.564   8.279 -1.5049  0.1524 -0.3575
 6440TIP3    H240956   1.379   4.517   8.135  1.1475 -0.6224 -0.2732
 6441TIP3   OH240957   3.213   1.165   8.161 -0.4585 -0.1804 -0.2135
 6441TIP3    H140958   3.137   1.211   8.124  2.0393  2.5708 -2.4902
 6441TIP3    H240959   3.230   1.209   8.244 -1.4107 -0.9451  0.4051
 6442TIP3   OH240960   4.227   1.009   1.062  0.2152 -0.3179  0.0913
 6442TIP3    H140961   4.306   0.980   1.018  1.3677  1.6208  0.7178
 6442TIP3    H240962   4.238   0.980   1.153 -0.8179 -1.8521 -0.2420
 6443TIP3   OH240963   6.025   5.709   1.144 -0.1460  0.0509  0.2502
 6443TIP3    H140964   6.077   5.747   1.215 -1.2048  0.7147  0.7061
 6443TIP3    H240965   5.940   5.690   1.185 -0.5578 -0.1826 -0.6824
 6444TIP3   OH240966   6.070   3.297   2.172 -0.1460  0.1479  0.4857
 6444TIP3    H140967   6.145   3.341   2.132 -0.2868  1.3516  1.4733
 6444TIP3    H240968   6.107   3.218   2.211  0.0172 -0.9795 -1.8070
 6445TIP3   OH240969   5.156   2.485   2.085  0.0051 -0.6560 -0.4869
 6445TIP3    H140970   5.142   2.575   2.113  2.7276  0.5394 -2.5632
 6445TIP3    H240971   5.074   2.440   2.107 -1.1701  2.0883  1.2739
 6446TIP3   OH240972   2.116   1.514   2.129  0.0812  0.0978  0.3436
 6446TIP3    H140973   2.096   1.585   2.190  0.0889 -1.0387  1.7354
 6446TIP3    H240974   2.032   1.470   2.115  0.4798 -1.1136  1.5178
 6447TIP3   OH240975   6.062   1.735   2.156 -0.4779 -0.4516 -0.4423
 6447TIP3    H140976   5.981   1.782   2.136 -0.6551 -1.1867 -1.6043
 6447TIP3    H240977   6.033   1.649   2.186 -0.1416 -0.9447 -1.4872
 6448TIP3   OH240978   4.959   0.165   7.108  0.0155  0.5888  0.0802
 6448TIP3    H140979   4.947   0.084   7.157  0.7716  0.5062  0.1372
 6448TIP3    H240980   4.984   0.137   7.020 -1.0220  0.7424 -0.2699
 6449TIP3   OH240981   3.376   5.878   8.075 -0.1985 -0.4264  0.2448
 6449TIP3    H140982   3.439   5.807   8.083 -0.9333 -0.9036  2.3858
 6449TIP3    H240983   3.428   5.958   8.085  0.2407 -0.7585  0.6055
 6450TIP3   OH240984   0.334   2.927   8.343  0.3877  0.2097 -0.3696
 6450TIP3    H140985   0.367   2.838   8.359 -1.4431 -0.0810  2.5506
 6450TIP3    H240986   0.243   2.914   8.316 -0.1285  1.1743  0.8338
 6451TIP3   OH240987   1.097   6.843   6.612  0.8479 -0.2288  0.0183
 6451TIP3    H140988   1.002   6.859   6.609  0.8125 -0.2277  0.9509
 6451TIP3    H240989   1.121   6.858   6.703  1.7390 -0.3084 -0.1974
 6452TIP3   OH240990   4.972   3.413   7.294 -0.0642 -0.1412  0.1078
 6452TIP3    H140991   5.065   3.424   7.313 -0.0337 -0.5205  0.1732
 6452TIP3    H240992   4.968   3.406   7.198 -0.2732  2.3435 -0.1374
 6453TIP3   OH240993   5.007   1.107   7.923  0.0577 -0.5761  0.1433
 6453TIP3    H140994   5.024   1.085   8.015 -0.1671 -1.0871  0.0628
 6453TIP3    H240995   5.008   1.024   7.877  1.3840 -0.2237 -0.5345
 6454TIP3   OH240996   6.856   6.705   2.727 -0.0924 -0.3569  0.0451
 6454TIP3    H140997   6.949   6.684   2.726 -0.2719 -1.1934  0.2991
 6454TIP3    H240998   6.853   6.801   2.730  0.7426 -0.2893 -0.9837
 6455TIP3   OH240999   0.717   6.664   0.357 -0.1432 -0.0467 -0.3788
 6455TIP3    H141000   0.764   6.661   0.274  1.6115  0.2620  0.5636
 6455TIP3    H241001   0.678   6.752   0.360  3.4069  1.6713  0.9341
 6456TIP3   OH241002   0.109   3.914   8.426  0.0580  0.1546  0.0008
 6456TIP3    H141003   0.174   3.980   8.451 -0.8155  0.6042  1.1653
 6456TIP3    H241004   0.134   3.836   8.474  2.4498 -1.1880 -3.0905
 6457TIP3   OH241005   6.772   4.536   1.767 -0.9215  0.7862  0.1313
 6457TIP3    H141006   6.769   4.579   1.852  3.1118  0.1407  0.7814
 6457TIP3    H241007   6.750   4.445   1.785 -0.2454  0.6851  0.4508
 6458TIP3   OH241008   6.321   6.414   1.613  0.2951 -0.5513  0.0640
 6458TIP3    H141009   6.262   6.484   1.585  1.5329 -0.1768 -1.7886
 6458TIP3    H241010   6.300   6.340   1.556 -0.0239 -1.2428  1.0483
 6459TIP3   OH241011   0.147   3.741   2.607  0.1916  0.0964  0.0041
 6459TIP3    H141012   0.111   3.807   2.666  2.3023  0.6026  0.8456
 6459TIP3    H241013   0.071   3.698   2.568 -1.2529  1.2151  1.4693
 6460TIP3   OH241014   5.739   1.667   2.147 -0.2698 -0.1315 -0.7070
 6460TIP3    H141015   5.734   1.626   2.234  1.5863 -1.5239 -1.1895
 6460TIP3    H241016   5.755   1.759   2.165 -1.0757 -0.1830  0.4096
 6461TIP3   OH241017   3.545   1.404   8.101  0.4873 -0.3481 -0.6402
 6461TIP3    H141018   3.472   1.413   8.161  1.9882  2.7945  0.9698
 6461TIP3    H241019   3.558   1.309   8.092 -1.6885 -0.9432  1.5494
 6462TIP3   OH241020   1.129   3.388   6.962 -0.3798 -0.5483  0.2963
 6462TIP3    H141021   1.173   3.391   7.047 -1.1014  0.4176  0.6599
 6462TIP3    H241022   1.199   3.371   6.899  0.1614 -1.3161  1.0738
 6463TIP3   OH241023   5.226   0.840   2.027  0.1403 -0.1439  0.0867
 6463TIP3    H141024   5.157   0.906   2.015  0.5575  0.7438  2.2026
 6463TIP3    H241025   5.183   0.768   2.072 -0.5689 -1.9173 -3.1023
 6464TIP3   OH241026   6.611   3.181   7.553 -0.1888  0.3471 -0.6468
 6464TIP3    H141027   6.520   3.172   7.581  0.0484 -0.7679 -0.1746
 6464TIP3    H241028   6.614   3.265   7.508 -0.7279  1.9626  2.1053
 6465TIP3   OH241029   6.193   0.751   1.168 -0.2123  0.0939  0.1121
 6465TIP3    H141030   6.185   0.802   1.088  0.1434  0.7864  0.5071
 6465TIP3    H241031   6.268   0.790   1.214 -0.5195 -0.1803  0.8630
 6466TIP3   OH241032   2.043   3.628   8.281  0.2999 -0.9459 -0.0992
 6466TIP3    H141033   1.951   3.626   8.255 -1.4897 -1.4161  5.0062
 6466TIP3    H241034   2.073   3.716   8.260 -2.4386  0.3296  0.8498
 6467TIP3   OH241035   6.239   6.463   7.774  0.2915  0.4687  0.6088
 6467TIP3    H141036   6.153   6.422   7.785  0.5449  0.0766  1.1612
 6467TIP3    H241037   6.260   6.498   7.860  1.3712 -0.7883  0.8842
 6468TIP3   OH241038   4.025   1.224   1.888  0.7219 -0.1933  0.0460
 6468TIP3    H141039   4.119   1.212   1.870  0.6535  0.1160 -0.5287
 6468TIP3    H241040   4.018   1.314   1.921  0.4596  0.2432 -1.1568
 6469TIP3   OH241041   0.605   6.467   8.261  0.4650 -0.3578 -0.2841
 6469TIP3    H141042   0.549   6.542   8.280  1.1095  0.6006 -1.9638
 6469TIP3    H241043   0.599   6.455   8.166  2.6988 -0.5186 -0.4738
 6470TIP3   OH241044   2.041   6.310   1.601  0.2970 -0.3645 -0.0566
 6470TIP3    H141045   2.116   6.253   1.619  0.3476 -0.1379  0.4887
 6470TIP3    H241046   1.964   6.254   1.611  0.4291 -1.1829 -2.8498
 6471TIP3   OH241047   2.758   4.069   7.689  0.1282  0.4422  0.1413
 6471TIP3    H141048   2.818   4.115   7.747 -1.2565  0.5988  1.5134
 6471TIP3    H241049   2.707   4.012   7.747 -0.1356 -0.6963 -1.1544
 6472TIP3   OH241050   1.237   3.684   1.837  0.6010  0.4979  0.0752
 6472TIP3    H141051   1.254   3.681   1.931 -1.1453 -1.4692  0.4061
 6472TIP3    H241052   1.256   3.774   1.812 -2.4993  2.2484  3.0881
 6473TIP3   OH241053   3.033   0.075   1.694 -0.1916 -0.7419 -0.3909
 6473TIP3    H141054   2.970   0.091   1.764  0.7009  2.8521 -0.2154
 6473TIP3    H241055   3.113   0.047   1.739  0.6417  2.3746  0.2622
 6474TIP3   OH241056   5.585   5.825   0.190 -0.0189  0.4434 -0.1902
 6474TIP3    H141057   5.607   5.876   0.268  1.6343  1.1250 -1.0463
 6474TIP3    H241058   5.504   5.779   0.214 -0.5248  1.9663  1.2923
 6475TIP3   OH241059   0.674   4.604   1.637 -0.1820  0.1250  0.0298
 6475TIP3    H141060   0.753   4.610   1.584 -1.0288 -0.1499 -1.3410
 6475TIP3    H241061   0.697   4.642   1.721  0.9834  1.4163 -0.8328
 6476TIP3   OH241062   6.557   2.736   6.858  0.3340  0.2988 -0.0088
 6476TIP3    H141063   6.487   2.674   6.878  1.2000 -1.0672 -1.0618
 6476TIP3    H241064   6.515   2.802   6.803 -1.1097  1.9255  2.7705
 6477TIP3   OH241065   0.752   5.407   7.492 -0.4251 -0.4174 -0.1868
 6477TIP3    H141066   0.722   5.321   7.462 -1.1411  0.3496 -1.7424
 6477TIP3    H241067   0.718   5.414   7.581 -2.3865 -0.7868 -0.8778
 6478TIP3   OH241068   5.440   3.404   2.239 -0.3908 -0.4876  0.0480
 6478TIP3    H141069   5.465   3.379   2.150  3.0535  2.2444  0.0146
 6478TIP3    H241070   5.478   3.336   2.294  1.0739 -0.0799 -0.4204
 6479TIP3   OH241071   1.918   2.189   7.309 -0.0728  0.3856 -0.3483
 6479TIP3    H141072   1.836   2.226   7.345  1.0693  1.7396  1.0140
 6479TIP3    H241073   1.944   2.251   7.241 -0.1883 -0.0614 -0.8008
 6480TIP3   OH241074   6.259   6.161   0.909  0.3209 -0.1200 -0.1699
 6480TIP3    H141075   6.186   6.103   0.930  1.1721 -1.2056 -0.1569
 6480TIP3    H241076   6.318   6.108   0.856  0.6217  1.0618 -1.0698
 6481TIP3   OH241077   4.143   0.400   7.254  0.3894  0.6137  0.2915
 6481TIP3    H141078   4.049   0.412   7.262  0.0554  0.8180 -2.7528
 6481TIP3    H241079   4.180   0.443   7.332 -1.8883  3.1431  0.1112
 6482TIP3   OH241080   2.521   1.846   8.109 -0.4419 -0.2826  0.1742
 6482TIP3    H141081   2.458   1.804   8.169 -0.8577 -0.5058 -0.4136
 6482TIP3    H241082   2.607   1.819   8.142 -0.6753 -0.6784  0.4684
 6483TIP3   OH241083   1.547   2.507   1.026  0.5353  0.3846 -0.1133
 6483TIP3    H141084   1.577   2.535   1.112 -1.7415 -0.2707  0.9511
 6483TIP3    H241085   1.454   2.491   1.036  0.2539 -0.0661 -2.6309
 6484TIP3   OH241086   0.400   6.206   0.472 -0.6823  0.0955 -0.2746
 6484TIP3    H141087   0.456   6.276   0.439 -0.7468  0.3406  0.1149
 6484TIP3    H241088   0.317   6.250   0.493 -0.2291  0.2337  1.4330
 6485TIP3   OH241089   3.863   5.355   6.940  0.0956 -0.0191  0.0206
 6485TIP3    H141090   3.824   5.317   6.862 -1.4631  0.1277  0.6915
 6485TIP3    H241091   3.937   5.406   6.908  0.3830 -1.1527 -1.1931
 6486TIP3   OH241092   3.746   4.700   1.998 -0.2634 -0.5366  0.0763
 6486TIP3    H141093   3.739   4.794   1.982  0.3558 -0.7971 -1.9310
 6486TIP3    H241094   3.819   4.693   2.060  0.0862  0.2533 -0.2259
 6487TIP3   OH241095   2.155   6.283   0.516 -0.2534 -0.5917 -0.3838
 6487TIP3    H141096   2.185   6.373   0.509 -0.2198 -0.5325  0.3823
 6487TIP3    H241097   2.059   6.290   0.524 -0.2742 -0.6392 -0.5980
 6488TIP3   OH241098   3.765   5.608   7.869 -0.1236  0.1293 -0.5805
 6488TIP3    H141099   3.826   5.587   7.940  0.0155  0.8842 -0.4647
 6488TIP3    H241100   3.797   5.558   7.794  0.1720 -0.0944 -0.3075
 6489TIP3   OH241101   5.599   4.762   7.973 -0.0744 -0.3966  0.2942
 6489TIP3    H141102   5.695   4.762   7.967 -0.1102  1.8220 -2.2024
 6489TIP3    H241103   5.573   4.676   7.940  1.0664 -0.1756 -1.3325
 6490TIP3   OH241104   4.947   4.283   6.733 -0.4217  0.0166 -0.1882
 6490TIP3    H141105   4.944   4.202   6.682  0.1470  1.2333 -2.2507
 6490TIP3    H241106   4.859   4.320   6.724 -0.5059 -0.0605  0.2689
 6491TIP3   OH241107   5.768   2.706   0.026  0.6583  0.4784 -0.4980
 6491TIP3    H141108   5.697   2.696  -0.038 -1.2632  1.6107  1.3348
 6491TIP3    H241109   5.802   2.794   0.010 -0.3053  1.0446  0.4295
 6492TIP3   OH241110   5.318   4.890   6.552  0.1886  0.4318 -0.9768
 6492TIP3    H141111   5.406   4.894   6.517  0.3136  1.0381 -0.6120
 6492TIP3    H241112   5.330   4.878   6.647 -0.1383 -1.6672 -1.1397
 6493TIP3   OH241113   1.937   1.944   7.430 -0.1704 -0.1937 -0.6570
 6493TIP3    H141114   1.926   1.975   7.519 -1.9934 -2.1914 -0.0885
 6493TIP3    H241115   1.919   2.021   7.375 -0.6727  0.6791  0.6748
 6494TIP3   OH241116   6.465   5.682   1.264  0.0144  0.1251  0.0231
 6494TIP3    H141117   6.413   5.609   1.299 -0.1588 -0.0608 -0.6134
 6494TIP3    H241118   6.436   5.691   1.173  1.2318 -0.1054 -0.3989
 6495TIP3   OH241119   3.302   0.272   0.653  0.3316  0.9491 -0.1463
 6495TIP3    H141120   3.248   0.321   0.715 -0.4282 -0.2396  0.1471
 6495TIP3    H241121   3.273   0.304   0.567 -1.6495 -0.4133 -0.0555
 6496TIP3   OH241122   0.135   4.932   0.282  0.2470 -0.0954 -0.2973
 6496TIP3    H141123   0.159   4.992   0.210 -0.4241  1.1746  0.5010
 6496TIP3    H241124   0.046   4.905   0.262  0.7515 -1.3579 -0.9728
 6497TIP3   OH241125   2.981   2.662   8.340  0.1610  0.5641  0.3015
 6497TIP3    H141126   3.034   2.738   8.315 -0.0572  1.0751  1.3199
 6497TIP3    H241127   3.040   2.587   8.331  0.9611  1.0863  1.0752
 6498TIP3   OH241128   0.508   4.155   0.545 -0.1017 -0.2230  0.1482
 6498TIP3    H141129   0.436   4.157   0.607 -1.3820  0.5364 -1.2878
 6498TIP3    H241130   0.540   4.065   0.549 -1.3490 -0.6714  0.5861
 6499TIP3   OH241131   3.989   5.591   7.465 -0.2405  0.3666  0.1052
 6499TIP3    H141132   4.083   5.587   7.484  0.0832  2.9973 -0.5416
 6499TIP3    H241133   3.949   5.539   7.534  1.6136  0.1850  1.1249
 6500TIP3   OH241134   1.315   5.226   7.202  0.1826 -0.1120 -0.0839
 6500TIP3    H141135   1.348   5.145   7.165  0.2390  0.5875 -1.6320
 6500TIP3    H241136   1.236   5.246   7.152 -0.1018  0.5498  0.5923
 6501TIP3   OH241137   5.951   1.727   0.950  0.0964 -0.0609  0.4937
 6501TIP3    H141138   5.982   1.660   1.010 -2.2394 -0.5387  1.2527
 6501TIP3    H241139   5.876   1.688   0.906 -0.0655  1.3453 -0.5685
 6502TIP3   OH241140   2.010   5.505   1.945 -0.2795  0.6072  0.8578
 6502TIP3    H141141   2.016   5.448   2.022 -0.1529 -0.3646  0.1489
 6502TIP3    H241142   1.917   5.504   1.922 -0.0708 -0.6219 -0.0794
 6503TIP3   OH241143   2.019   5.299   2.129 -0.1163  0.4812 -0.3489
 6503TIP3    H141144   1.938   5.253   2.151  0.6222 -0.2142  1.0740
 6503TIP3    H241145   2.085   5.230   2.125  0.6705  1.2009 -0.0978
 6504TIP3   OH241146   5.904   3.620   1.421 -0.4018  0.5515 -0.1000
 6504TIP3    H141147   5.893   3.708   1.455 -1.3982  0.2783  0.3180
 6504TIP3    H241148   5.890   3.628   1.327  0.8010  1.0410 -0.2625
 6505TIP3   OH241149   2.575   3.346   2.386  0.0853  0.4441 -0.1651
 6505TIP3    H141150   2.490   3.385   2.408  0.2875 -0.1309  1.7370
 6505TIP3    H241151   2.577   3.263   2.432  1.7547  0.5154 -0.0364
 6506TIP3   OH241152   5.983   0.340   2.284  0.2157 -0.8879  0.0880
 6506TIP3    H141153   5.963   0.430   2.310  0.6526  0.5443 -3.8972
 6506TIP3    H241154   5.912   0.287   2.323 -2.1703  1.7224 -0.3966
 6507TIP3   OH241155   4.910   2.613   7.212  0.1603 -0.2047  0.1484
 6507TIP3    H141156   4.845   2.638   7.146 -0.0928 -1.1837  0.0130
 6507TIP3    H241157   4.994   2.636   7.172 -0.0071 -0.4984 -0.3930
 6508TIP3   OH241158   6.052   0.489   0.816 -0.1124 -0.0669 -0.4491
 6508TIP3    H141159   6.071   0.416   0.758 -0.6618 -1.3976  0.9728
 6508TIP3    H241160   6.072   0.456   0.904  0.0015  1.6271  0.2121
 6509TIP3   OH241161   6.703   3.470   1.207  0.4043  0.1388 -0.9172
 6509TIP3    H141162   6.729   3.500   1.294 -0.3541  1.6904 -1.1829
 6509TIP3    H241163   6.763   3.515   1.148  1.2970 -1.3640 -1.1861
 6510TIP3   OH241164   3.010   6.413   8.497 -0.7022  0.1428 -0.0197
 6510TIP3    H141165   3.041   6.366   8.574 -0.1648 -0.0143 -0.3304
 6510TIP3    H241166   2.916   6.427   8.514 -0.7412 -0.5186  0.3332
 6511TIP3   OH241167   3.129   4.810   2.349  0.1823 -0.1921  0.1198
 6511TIP3    H141168   3.052   4.755   2.358 -0.5684  0.8444  0.1839
 6511TIP3    H241169   3.177   4.798   2.431 -0.9336  0.6603  0.9291
 6512TIP3   OH241170   2.880   5.784   7.566  0.0523  0.2636 -0.0017
 6512TIP3    H141171   2.905   5.707   7.514 -1.0404  1.3597 -2.2812
 6512TIP3    H241172   2.858   5.851   7.501 -0.0747  2.1857  1.9097
 6513TIP3   OH241173   3.842   3.385   0.344 -0.0392  0.2894  0.0456
 6513TIP3    H141174   3.830   3.477   0.365 -0.8435  0.0728  0.5755
 6513TIP3    H241175   3.781   3.368   0.273 -0.5466 -0.0382  0.5495
 6514TIP3   OH241176   2.361   1.080   0.491  0.2633  1.1046  0.6252
 6514TIP3    H141177   2.302   1.010   0.517  0.9356 -0.6439 -2.0987
 6514TIP3    H241178   2.446   1.054   0.527  0.5487  0.3444 -0.5277
 6515TIP3   OH241179   2.706   1.959   7.481  0.5955  0.0409 -0.1138
 6515TIP3    H141180   2.672   1.994   7.563  1.8912 -1.2948  1.0471
 6515TIP3    H241181   2.634   1.907   7.445 -0.7698  2.4029 -1.0275
 6516TIP3   OH241182   5.780   2.017   1.406  0.1246 -0.0736  0.2026
 6516TIP3    H141183   5.702   2.050   1.450  0.9396  1.5191  0.5413
 6516TIP3    H241184   5.836   1.985   1.477  0.4355  0.2627  0.1105
 6517TIP3   OH241185   0.016   6.414   7.423 -0.1387 -0.4884 -0.8327
 6517TIP3    H141186   0.107   6.409   7.453 -0.0767 -0.8331 -1.0780
 6517TIP3    H241187  -0.005   6.508   7.428 -0.5084 -0.6188  1.4033
 6518TIP3   OH241188   1.471   5.241   2.242  0.4421 -0.9265  0.5548
 6518TIP3    H141189   1.531   5.174   2.210 -0.0741 -1.0274 -0.2456
 6518TIP3    H241190   1.521   5.289   2.308  0.8388 -2.0408  1.0761
 6519TIP3   OH241191   2.835   3.621   1.924  0.0680  0.1863 -0.3211
 6519TIP3    H141192   2.901   3.675   1.881  0.2614 -0.8242 -1.3184
 6519TIP3    H241193   2.756   3.634   1.872  0.2336 -0.8280 -0.8437
 6520TIP3   OH241194   0.385   4.858   8.251  0.2668 -0.2688 -0.5547
 6520TIP3    H141195   0.323   4.805   8.201  0.5660 -1.1874  0.0167
 6520TIP3    H241196   0.468   4.848   8.204  0.3351 -0.3449 -0.4176
 6521TIP3   OH241197   3.800   2.035   0.715 -0.2252 -0.0681  0.2532
 6521TIP3    H141198   3.737   2.106   0.706 -0.7234 -0.3125  1.6468
 6521TIP3    H241199   3.836   2.045   0.803  0.8042 -0.6567 -0.0762
 6522TIP3   OH241200   3.243   2.447   7.482  0.2860 -0.3990  0.5286
 6522TIP3    H141201   3.166   2.461   7.427  0.3077  0.6021  0.7375
 6522TIP3    H241202   3.317   2.455   7.421  0.2678 -0.4412  0.5003
 6523TIP3   OH241203   6.373   5.310   6.910  0.2983  0.1885 -0.2826
 6523TIP3    H141204   6.296   5.360   6.937  1.2887  1.0470  1.1191
 6523TIP3    H241205   6.438   5.329   6.977  1.6213 -0.7985 -1.2320
 6524TIP3   OH241206   4.876   4.756   0.130 -0.0036 -0.6689  0.4509
 6524TIP3    H141207   4.890   4.672   0.087 -0.3177 -0.2743 -0.4585
 6524TIP3    H241208   4.926   4.750   0.211  0.7074 -1.4025 -0.0222
 6525TIP3   OH241209   1.785   2.882   0.829 -0.7470 -0.2456 -0.2772
 6525TIP3    H141210   1.843   2.957   0.836  0.4153 -1.1454  0.0914
 6525TIP3    H241211   1.701   2.919   0.802 -0.8702  1.4736  2.0982
 6526TIP3   OH241212   0.527   2.394   0.702 -0.4012  0.3035  0.9620
 6526TIP3    H141213   0.469   2.384   0.778  1.9187 -1.4764  2.6535
 6526TIP3    H241214   0.584   2.317   0.705  0.0777  0.3989 -2.3984
 6527TIP3   OH241215   5.279   1.141   7.882  0.5721 -0.1739 -0.0651
 6527TIP3    H141216   5.322   1.172   7.962 -0.2134 -0.8974  0.6643
 6527TIP3    H241217   5.186   1.152   7.900  0.3918 -0.2821 -0.9156
 6528TIP3   OH241218   1.049   0.307   0.335 -0.6264 -0.7916 -0.0757
 6528TIP3    H141219   1.007   0.221   0.342 -0.8306 -0.7221 -0.3910
 6528TIP3    H241220   1.073   0.314   0.243  1.1401 -1.3052  0.3229
 6529TIP3   OH241221   0.381   0.109   2.434 -0.1673 -0.1155 -0.8345
 6529TIP3    H141222   0.311   0.172   2.418 -1.6288 -1.1761  0.9563
 6529TIP3    H241223   0.338   0.023   2.423  0.9015 -0.7858  0.0499
 6530TIP3   OH241224   1.751   2.327   8.137  0.1337 -0.4079 -0.0971
 6530TIP3    H141225   1.830   2.380   8.150 -1.7707  2.4264  1.1166
 6530TIP3    H241226   1.755   2.260   8.205  1.2858 -0.0613  0.1997
 6531TIP3   OH241227   2.687   1.454   1.182  0.0814  0.1337 -0.3050
 6531TIP3    H141228   2.743   1.376   1.174  1.4174  0.7235  2.2293
 6531TIP3    H241229   2.600   1.423   1.156  0.7399 -1.9614 -0.2309
 6532TIP3   OH241230   1.883   2.303   8.524  0.4376  0.3972 -0.1889
 6532TIP3    H141231   1.794   2.312   8.492 -0.5463 -1.6312  1.6980
 6532TIP3    H241232   1.903   2.386   8.566 -0.3285  1.0534 -1.0912
 6533TIP3   OH241233   3.722   1.002   6.770 -0.6644  0.0519  0.3938
 6533TIP3    H141234   3.632   0.993   6.803 -0.9227 -1.0172 -0.5472
 6533TIP3    H241235   3.750   0.913   6.751 -0.1448  0.5344 -1.2609
 6534TIP3   OH241236   3.938   5.930   1.432  0.5837 -0.1142 -0.0041
 6534TIP3    H141237   4.001   5.860   1.414  0.2530 -0.0232 -1.6889
 6534TIP3    H241238   3.882   5.894   1.500  1.6657 -0.6903  0.6169
 6535TIP3   OH241239   6.485   1.870   7.681 -0.6505  0.1722 -0.3553
 6535TIP3    H141240   6.475   1.880   7.586 -1.4512  1.3023 -0.1768
 6535TIP3    H241241   6.399   1.893   7.716 -0.1277  0.5971  0.6846
 6536TIP3   OH241242   5.052   6.410   8.467  0.4522  0.1385 -0.1179
 6536TIP3    H141243   5.032   6.365   8.385 -1.4491  0.2524  0.2521
 6536TIP3    H241244   5.010   6.495   8.459 -1.7445 -0.6630  1.8302
 6537TIP3   OH241245   2.258   0.703   7.066  0.4775  0.2395  0.5516
 6537TIP3    H141246   2.283   0.644   6.995  2.0186  0.6211  0.7335
 6537TIP3    H241247   2.170   0.732   7.043  0.5144 -0.5050 -0.6280
 6538TIP3   OH241248   1.194   2.273   0.647  0.3120  0.2864  0.3501
 6538TIP3    H141249   1.126   2.340   0.654  0.1323  0.4392 -2.1130
 6538TIP3    H241250   1.247   2.301   0.573  1.7491 -1.0060  0.8528
 6539TIP3   OH241251   5.540   1.133   0.073 -0.6617 -0.5120 -0.5860
 6539TIP3    H141252   5.543   1.151   0.167  0.0683  0.6632 -0.8079
 6539TIP3    H241253   5.518   1.041   0.066 -0.7326 -0.6025  0.7423
 6540TIP3   OH241254   0.498   6.817   1.108  0.3106  0.2329  0.5914
 6540TIP3    H141255   0.583   6.772   1.106  0.6116  0.7862  0.8866
 6540TIP3    H241256   0.438   6.756   1.063  1.2179  0.5814 -1.1919
 6541TIP3   OH241257   6.875   3.584   1.022  0.0130 -0.4636  0.5188
 6541TIP3    H141258   6.873   3.517   0.953  1.2214 -1.9401  1.8578
 6541TIP3    H241259   6.968   3.605   1.033 -0.1069 -0.6785  2.0966
 6542TIP3   OH241260   2.186   5.152   0.188 -0.4783 -0.2488 -0.2104
 6542TIP3    H141261   2.149   5.207   0.257  1.2613  0.2318  0.4025
 6542TIP3    H241262   2.272   5.192   0.170  0.5553 -2.3587 -0.2270
 6543TIP3   OH241263   3.177   1.257   7.670 -0.2951  0.6761 -0.1430
 6543TIP3    H141264   3.184   1.186   7.734  0.7809 -0.2334 -1.2078
 6543TIP3    H241265   3.110   1.228   7.609  0.1988  0.5242 -0.6229
 6544TIP3   OH241266   1.415   0.174   1.083  0.3242  0.2878 -0.2616
 6544TIP3    H141267   1.487   0.205   1.139 -0.1236  1.6466 -0.4003
 6544TIP3    H241268   1.456   0.114   1.022  1.0986 -0.0092  0.5275
 6545TIP3   OH241269   3.844   1.170   7.772  0.7340  0.7367 -0.3601
 6545TIP3    H141270   3.758   1.199   7.740  0.6264 -0.1549 -0.9202
 6545TIP3    H241271   3.904   1.190   7.701  0.8627  0.6656 -0.2720
 6546TIP3   OH241272   2.216   2.775   7.634 -1.0038 -0.2935 -0.0401
 6546TIP3    H141273   2.221   2.862   7.673  3.5449  0.3312 -1.4674
 6546TIP3    H241274   2.254   2.717   7.700  1.7954 -0.0366 -1.2503
 6547TIP3   OH241275   6.833   5.464   7.389 -0.2648  0.3877 -0.1095
 6547TIP3    H141276   6.777   5.541   7.376  0.2976  0.9713  0.7712
 6547TIP3    H241277   6.838   5.455   7.484 -1.5922 -1.7135 -0.1899
 6548TIP3   OH241278   2.749   4.026   6.608  0.2589 -0.3552  0.0704
 6548TIP3    H141279   2.749   3.940   6.567 -0.6059 -0.7847  0.9448
 6548TIP3    H241280   2.664   4.032   6.652 -0.1068  1.3271 -0.7699
 6549TIP3   OH241281   0.470   4.984   0.476 -0.1025 -0.0532 -0.1483
 6549TIP3    H141282   0.393   4.929   0.461  0.1633 -0.6391  0.5604
 6549TIP3    H241283   0.522   4.935   0.538  0.8972  0.2970 -0.6880
 6550TIP3   OH241284   5.749   3.089   7.130  0.3145  0.1767 -0.0254
 6550TIP3    H141285   5.708   3.111   7.214  1.0717 -1.3823  0.7975
 6550TIP3    H241286   5.741   2.993   7.124  0.4188  0.2486 -1.6605
 6551TIP3   OH241287   2.600   2.665   7.548 -0.0351  0.8800 -0.4343
 6551TIP3    H141288   2.596   2.755   7.516 -1.2989  0.3325 -1.9851
 6551TIP3    H241289   2.622   2.613   7.471 -3.3349 -0.5365 -0.6261
 6552TIP3   OH241290   5.057   3.179   8.197 -0.2983 -0.8520  0.5024
 6552TIP3    H141291   4.970   3.170   8.234 -0.3670  0.2668  0.6478
 6552TIP3    H241292   5.111   3.212   8.269  0.2067 -1.3344  0.3589
 6553TIP3   OH241293   1.578   4.812   1.697  0.0188 -0.4634 -0.0860
 6553TIP3    H141294   1.612   4.723   1.700 -0.9267 -0.8145  0.5216
 6553TIP3    H241295   1.589   4.838   1.605  2.4127 -0.3315  0.1581
 6554TIP3   OH241296   6.082   1.503   1.026  0.2987  0.5813 -0.1511
 6554TIP3    H141297   6.129   1.470   0.949 -1.0201  0.1317 -0.7842
 6554TIP3    H241298   6.032   1.427   1.057  0.9955  0.6892  1.3060
 6555TIP3   OH241299   4.456   6.433   6.870  0.3283  0.1238  0.6057
 6555TIP3    H141300   4.450   6.492   6.946  3.4865  0.0801  1.0140
 6555TIP3    H241301   4.403   6.358   6.895 -0.8158  1.2149  1.6334
 6556TIP3   OH241302   3.031   2.935   0.516 -0.0490 -0.4605  0.0974
 6556TIP3    H141303   2.984   3.003   0.562  1.2386  1.2233 -0.9277
 6556TIP3    H241304   2.969   2.863   0.508 -2.3906  1.5254 -0.9850
 6557TIP3   OH241305   0.924   1.401   1.077  0.4223  0.2236  0.2037
 6557TIP3    H141306   0.830   1.382   1.071  0.3679  0.7124 -0.5685
 6557TIP3    H241307   0.963   1.316   1.099  0.1003 -0.7031 -2.4139
 6558TIP3   OH241308   4.680   5.605   8.266 -0.4461 -0.0441  1.0734
 6558TIP3    H141309   4.632   5.613   8.348 -1.6442  0.0559  0.3817
 6558TIP3    H241310   4.750   5.543   8.286 -2.1655 -1.9485  1.5559
 6559TIP3   OH241311   5.986   2.913   2.856  0.2434 -0.2835 -0.0887
 6559TIP3    H141312   5.922   2.878   2.917  0.9714 -1.3333  0.1001
 6559TIP3    H241313   6.066   2.923   2.909  0.9826 -1.5304 -0.9161
 6560TIP3   OH241314   0.629   0.131   0.024  0.2472 -0.0016  0.5718
 6560TIP3    H141315   0.618   0.200  -0.042  0.9486 -1.5489 -1.2438
 6560TIP3    H241316   0.723   0.126   0.038  0.0664  0.7476  2.2356
 6561TIP3   OH241317   6.392   1.056   7.289  0.0682  0.2357 -0.0816
 6561TIP3    H141318   6.432   1.109   7.358  0.5737  0.3941 -0.4910
 6561TIP3    H241319   6.417   0.966   7.309 -0.5247  0.1730  0.4339
 6562TIP3   OH241320   3.746   6.289   1.851  0.0962 -0.1300  0.0066
 6562TIP3    H141321   3.799   6.322   1.924 -0.6072  0.1957  0.3755
 6562TIP3    H241322   3.789   6.207   1.826  1.2535  0.5125 -0.2270
 6563TIP3   OH241323   6.313   4.642   1.047  0.3888 -0.5275 -1.0170
 6563TIP3    H141324   6.263   4.572   1.089 -0.1871  0.1885 -0.4820
 6563TIP3    H241325   6.359   4.686   1.119  2.1034 -1.3887 -1.5343
 6564TIP3   OH241326   0.942   2.561   7.312  0.4960  0.3330 -0.3123
 6564TIP3    H141327   0.981   2.475   7.299  1.2568  0.5181  0.6332
 6564TIP3    H241328   0.991   2.599   7.386 -0.6701  1.0598  0.1175
 6565TIP3   OH241329   3.121   2.558   1.089  0.0833 -0.0127 -0.0637
 6565TIP3    H141330   3.175   2.531   1.014  1.5394 -1.6731  1.4937
 6565TIP3    H241331   3.032   2.562   1.053  0.4319 -2.6538 -1.5036
 6566TIP3   OH241332   2.543   6.713   0.959 -0.5328 -0.7218 -0.0685
 6566TIP3    H141333   2.516   6.621   0.971  4.5912 -3.1185 -3.3298
 6566TIP3    H241334   2.497   6.742   0.881 -0.7180 -1.2691 -0.1671
 6567TIP3   OH241335   6.814   0.321   8.505 -0.0531 -0.2566  0.2209
 6567TIP3    H141336   6.728   0.282   8.489  0.2332 -0.4080 -1.0176
 6567TIP3    H241337   6.872   0.247   8.520  0.1378 -0.2305 -0.3638
 6568TIP3   OH241338   0.189   6.345   8.529  0.1488 -0.0473 -0.4890
 6568TIP3    H141339   0.179   6.294   8.609  0.5755 -0.0367 -0.4250
 6568TIP3    H241340   0.154   6.431   8.550  1.5016  0.3817  0.1309
 6569TIP3   OH241341   3.005   4.166   8.272  0.3556 -0.1035  1.0223
 6569TIP3    H141342   3.075   4.231   8.279 -0.0520  0.3719  0.7546
 6569TIP3    H241343   3.036   4.105   8.205 -0.6977  1.7082 -1.2700
 6570TIP3   OH241344   0.008   6.283   8.072  0.6137 -0.5253 -0.2485
 6570TIP3    H141345  -0.045   6.246   8.001  0.3735  0.7133 -0.7574
 6570TIP3    H241346  -0.001   6.378   8.060  1.5870 -0.3008  0.6930
 6571TIP3   OH241347   5.177   1.397   7.375  0.1874 -0.2625  0.0020
 6571TIP3    H141348   5.172   1.478   7.425 -0.2211 -0.4154  0.2079
 6571TIP3    H241349   5.118   1.336   7.420 -0.8079 -0.1550 -1.1111
 6572TIP3   OH241350   0.951   6.778   0.144  0.0900  0.2549 -0.8825
 6572TIP3    H141351   1.020   6.715   0.167 -2.1705 -2.6760 -1.6506
 6572TIP3    H241352   0.972   6.805   0.055 -0.1751 -1.3117 -1.4503
 6573TIP3   OH241353   3.868   0.149   1.784  0.0415 -0.3899 -0.5212
 6573TIP3    H141354   3.780   0.142   1.821  0.5055 -1.0278  0.4932
 6573TIP3    H241355   3.877   0.070   1.730 -0.3042  0.1006 -1.3275
 6574TIP3   OH241356   5.645   3.697   7.841  0.1054 -0.6650  0.1718
 6574TIP3    H141357   5.722   3.662   7.885 -0.3443  1.1334  2.5665
 6574TIP3    H241358   5.588   3.726   7.911 -0.1929  3.4320 -1.4634
 6575TIP3   OH241359   4.308   1.397   0.186  0.0526 -0.2851 -0.0717
 6575TIP3    H141360   4.328   1.469   0.127 -0.7376 -0.2945 -0.3557
 6575TIP3    H241361   4.247   1.434   0.250  0.5166 -0.4055  0.4489
 6576TIP3   OH241362   2.918   2.029   0.355  0.5715 -0.1835  0.3250
 6576TIP3    H141363   2.976   1.991   0.422  1.4767  1.6179  0.6437
 6576TIP3    H241364   2.891   2.113   0.392 -0.8920 -0.2197 -0.5762
 6577TIP3   OH241365   5.509   2.454   1.483  0.3216  0.2415 -0.2860
 6577TIP3    H141366   5.444   2.509   1.525  0.3092 -0.1324  0.1975
 6577TIP3    H241367   5.477   2.365   1.496  0.9546  0.0476  0.0194
 6578TIP3   OH241368   2.934   4.762   7.458 -0.2798 -0.3176  0.1152
 6578TIP3    H141369   2.852   4.713   7.451 -0.4518 -0.0278  0.1010
 6578TIP3    H241370   2.927   4.831   7.391  0.5560 -1.1218 -0.8489
 6579TIP3   OH241371   2.381   6.298   7.355 -0.6125 -0.4003  0.2331
 6579TIP3    H141372   2.472   6.311   7.380 -0.4160 -0.8564 -0.2202
 6579TIP3    H241373   2.385   6.239   7.280 -1.3472 -1.4072  0.9602
 6580TIP3   OH241374   0.982   6.161   8.095 -0.0363  0.7718 -0.6948
 6580TIP3    H141375   0.973   6.066   8.095  2.0180  0.5341 -0.6313
 6580TIP3    H241376   0.909   6.192   8.149 -2.5270 -0.5104 -3.0284
 6581TIP3   OH241377   0.512   1.379   6.617  0.5932  0.2257 -0.9757
 6581TIP3    H141378   0.500   1.426   6.700  1.4208 -3.0511  1.1735
 6581TIP3    H241379   0.436   1.403   6.565 -0.6771  1.3716  1.2599
 6582TIP3   OH241380   4.891   2.980   1.133 -0.4398 -0.6967 -0.2633
 6582TIP3    H141381   4.825   2.943   1.074  0.8113 -0.1273 -2.1225
 6582TIP3    H241382   4.901   2.915   1.202 -1.2081 -1.9045 -1.2484
 6583TIP3   OH241383   1.511   0.182   0.137  0.0248 -0.6862  0.0264
 6583TIP3    H141384   1.571   0.112   0.111 -1.8208 -2.2522 -0.2200
 6583TIP3    H241385   1.458   0.144   0.207  1.0393  1.5548  2.2020
 6584TIP3   OH241386   1.809   3.337   0.968 -0.3706 -0.0767  0.3844
 6584TIP3    H141387   1.844   3.397   0.903 -0.6132 -1.1958 -0.8201
 6584TIP3    H241388   1.879   3.274   0.983 -1.2489 -1.4297 -0.9026
 6585TIP3   OH241389   4.774   5.925   7.590  0.5059 -0.1415  0.1695
 6585TIP3    H141390   4.714   5.878   7.648 -1.3313  2.2451  0.3249
 6585TIP3    H241391   4.797   6.005   7.637  4.2366 -1.0655  0.2881
 6586TIP3   OH241392   4.019   3.760   7.325  0.5040  0.4796 -0.5685
 6586TIP3    H141393   4.047   3.842   7.367 -0.1459  1.3378 -1.7717
 6586TIP3    H241394   3.986   3.706   7.397  2.3269  0.6489  0.4623
 6587TIP3   OH241395   5.922   4.032   7.543 -0.0687  0.4076 -0.1053
 6587TIP3    H141396   5.873   3.950   7.533 -3.1533  2.0505  0.4060
 6587TIP3    H241397   5.987   4.013   7.611 -2.8019 -0.8322  2.3527
 6588TIP3   OH241398   6.685   4.083   7.978 -0.4266 -0.1026 -0.6578
 6588TIP3    H141399   6.771   4.119   7.958 -0.6166  0.4456 -0.5017
 6588TIP3    H241400   6.670   4.105   8.070 -0.9492  0.2582 -0.8235
 6589TIP3   OH241401   3.599   3.662   0.183 -0.4067  0.4556 -0.8095
 6589TIP3    H141402   3.599   3.734   0.246 -0.3451  0.2013 -0.5149
 6589TIP3    H241403   3.507   3.642   0.169 -0.4061  0.1945 -0.4329
 6590TIP3   OH241404   2.164   4.873   0.829 -0.0463  0.2918  0.5841
 6590TIP3    H141405   2.155   4.933   0.755  0.5774 -0.4576 -0.1118
 6590TIP3    H241406   2.112   4.797   0.806  1.0891 -0.4422  0.3644
 6591TIP3   OH241407   1.429   3.816   8.054  0.1110  0.2691  0.1107
 6591TIP3    H141408   1.376   3.895   8.041 -1.1984 -0.4207  1.0111
 6591TIP3    H241409   1.401   3.783   8.140  0.9057 -0.9802 -0.0884
 6592TIP3   OH241410   0.376   3.709   7.166 -0.0880  0.3039 -0.3950
 6592TIP3    H141411   0.310   3.770   7.132 -1.6457 -1.1862 -0.1578
 6592TIP3    H241412   0.350   3.693   7.256 -0.9735 -2.2498 -1.0034
 6593TIP3   OH241413   2.124   2.827   2.003 -0.1470 -0.3030 -0.1447
 6593TIP3    H141414   2.131   2.751   2.060 -0.7702  0.3974  0.9111
 6593TIP3    H241415   2.082   2.793   1.924 -0.3732 -1.0686  0.2885
 6594TIP3   OH241416   4.033   4.227   8.469 -0.0117 -0.1889 -0.0657
 6594TIP3    H141417   4.011   4.219   8.376 -0.8260  0.3151  0.0859
 6594TIP3    H241418   3.954   4.201   8.515  0.9619 -2.3353  0.5377
 6595TIP3   OH241419   3.363   5.065   7.774  0.0663 -0.0130 -0.4440
 6595TIP3    H141420   3.413   5.096   7.850 -1.0628  0.2763  0.1945
 6595TIP3    H241421   3.295   5.131   7.762 -0.7289 -0.8684 -0.7373
 6596TIP3   OH241422   0.176   6.645   7.511  0.2477  0.1487  0.5720
 6596TIP3    H141423   0.240   6.671   7.578 -1.7435 -0.9264  3.0424
 6596TIP3    H241424   0.091   6.667   7.549 -1.1561 -3.3653 -0.2102
 6597TIP3   OH241425   2.971   5.325   2.191 -0.2234  0.0841 -0.1959
 6597TIP3    H141426   2.907   5.327   2.263 -2.7556 -0.4581 -2.3028
 6597TIP3    H241427   3.023   5.405   2.203 -1.1062  0.4276  1.7278
 6598TIP3   OH241428   4.770   5.262   0.319  0.5801  0.2156  0.6080
 6598TIP3    H141429   4.847   5.290   0.269 -0.2788  3.0051  0.6967
 6598TIP3    H241430   4.701   5.252   0.254  0.3827  0.2645  0.8066
 6599TIP3   OH241431   1.449   1.506   6.669  0.0409 -0.2864 -0.4373
 6599TIP3    H141432   1.392   1.498   6.745  3.1871 -1.2406  2.0717
 6599TIP3    H241433   1.453   1.600   6.652  0.8040  0.1830  1.9705
 6600TIP3   OH241434   2.603   2.444   7.012 -0.2625 -1.0314  0.5517
 6600TIP3    H141435   2.623   2.443   6.918  0.3073 -1.3568  0.6758
 6600TIP3    H241436   2.682   2.411   7.054  0.5094  1.5596  1.3280
 6601TIP3   OH241437   0.113   6.885   1.066 -0.4114  0.1519  0.0045
 6601TIP3    H141438   0.119   6.872   1.160 -0.8241  0.3773  0.0671
 6601TIP3    H241439   0.153   6.808   1.027 -0.9515 -0.3157  0.3642
 6602TIP3   OH241440   3.263   2.510   0.840 -0.2012  0.4792  0.4492
 6602TIP3    H141441   3.206   2.555   0.778  1.1526  0.4974 -0.8409
 6602TIP3    H241442   3.349   2.548   0.826  0.5651 -1.0391  0.8104
 6603TIP3   OH241443   2.683   5.739   2.053 -0.4163  0.3003  0.3326
 6603TIP3    H141444   2.682   5.827   2.089 -0.1067  0.3280  0.2694
 6603TIP3    H241445   2.775   5.716   2.047 -0.4639  0.2811 -0.4075
 6604TIP3   OH241446   4.791   1.588   8.197 -0.1313 -0.1389  0.0360
 6604TIP3    H141447   4.784   1.683   8.188 -1.1662 -0.2949 -0.8742
 6604TIP3    H241448   4.818   1.557   8.111 -0.9908 -0.7824 -0.0078
 6605TIP3   OH241449   6.241   6.221   1.203  0.0958 -0.4463 -0.0647
 6605TIP3    H141450   6.225   6.227   1.109 -0.6658 -0.3828  0.0586
 6605TIP3    H241451   6.336   6.214   1.212  0.1669 -0.4740 -0.8372
 6606TIP3   OH241452   6.591   0.135   1.659  0.1017 -0.3016  0.3548
 6606TIP3    H141453   6.514   0.126   1.603  0.3825 -2.1608  0.2067
 6606TIP3    H241454   6.585   0.063   1.721  1.5810 -0.3350  0.5140
 6607TIP3   OH241455   0.227   1.623   2.002  0.0984 -0.3988  0.3935
 6607TIP3    H141456   0.214   1.673   2.083 -1.3933 -1.0818  0.6049
 6607TIP3    H241457   0.264   1.687   1.941 -1.6379  0.9513  0.6902
 6608TIP3   OH241458   3.645   5.960   1.345 -0.6082 -0.4186 -0.1697
 6608TIP3    H141459   3.728   5.912   1.334  0.5517  1.3507  0.4690
 6608TIP3    H241460   3.630   5.960   1.440 -0.6247  0.4067 -0.1645
 6609TIP3   OH241461   2.328   0.295   7.184 -0.0671 -0.1787 -0.2260
 6609TIP3    H141462   2.313   0.246   7.265  0.3811 -0.3685 -0.2568
 6609TIP3    H241463   2.301   0.385   7.205 -0.2745 -0.2987  0.0274
 6610TIP3   OH241464   2.856   2.749   8.582 -0.2806  0.4323 -0.2917
 6610TIP3    H141465   2.808   2.668   8.598 -0.5450  0.7444  0.5542
 6610TIP3    H241466   2.900   2.735   8.498 -1.5662  0.0027 -0.9188
 6611TIP3   OH241467   4.400   6.532   1.468  0.5066 -0.2272  0.0965
 6611TIP3    H141468   4.432   6.620   1.451 -0.5790 -0.0142 -1.0120
 6611TIP3    H241469   4.474   6.487   1.508  1.1797  1.0872  0.3910
 6612TIP3   OH241470   6.471   3.763   7.338 -0.2499 -0.2868 -0.0432
 6612TIP3    H141471   6.459   3.846   7.292  1.7718  1.3228  2.1030
 6612TIP3    H241472   6.382   3.731   7.353 -1.1179  1.7680 -0.4547
 6613TIP3   OH241473   1.185   3.044   8.358  0.2194 -0.0833  0.0076
 6613TIP3    H141474   1.173   2.949   8.351  0.7829 -0.1551  0.0248
 6613TIP3    H241475   1.106   3.080   8.318  0.4444 -0.5466 -0.8765
 6614TIP3   OH241476   5.627   2.906   7.653  0.0536  0.4327  0.3568
 6614TIP3    H141477   5.650   2.913   7.745 -1.3607  0.5391  0.7143
 6614TIP3    H241478   5.679   2.832   7.621  1.4022  1.0906  0.9423
 6615TIP3   OH241479   4.838   6.650   6.550  0.4105  0.3661  0.2516
 6615TIP3    H141480   4.876   6.673   6.466 -0.6616  0.3967 -0.2463
 6615TIP3    H241481   4.760   6.598   6.528 -1.1198  2.1760  1.1074
 6616TIP3   OH241482   2.220   2.123   7.119  0.1970 -0.5809 -0.3718
 6616TIP3    H141483   2.299   2.177   7.112 -0.6215  0.4848 -1.8165
 6616TIP3    H241484   2.165   2.169   7.183  0.0533 -0.3984 -0.6230
 6617TIP3   OH241485   4.904   5.498   7.262  0.3757  0.5449 -0.0210
 6617TIP3    H141486   4.949   5.541   7.335 -0.4913  1.6649 -0.1268
 6617TIP3    H241487   4.856   5.568   7.218  1.3715  0.0331 -2.0870
 6618TIP3   OH241488   5.217   6.790   0.563  0.0955  0.4871 -0.7874
 6618TIP3    H141489   5.153   6.753   0.624 -0.2866 -1.0144 -2.0453
 6618TIP3    H241490   5.168   6.857   0.515 -0.2985 -0.0120 -1.0979
 6619TIP3   OH241491   1.979   4.438   7.919 -0.2470  0.7396  0.2762
 6619TIP3    H141492   1.898   4.387   7.926 -0.9208  1.6116 -0.7440
 6619TIP3    H241493   1.976   4.497   7.994 -0.7397  1.0076  0.0516
 6620TIP3   OH241494   1.492   2.403   6.237 -0.7048 -0.4912  0.5020
 6620TIP3    H141495   1.443   2.405   6.319  0.0469  0.2575  0.9411
 6620TIP3    H241496   1.549   2.480   6.241 -0.3376 -0.6987 -0.5223
 6621TIP3   OH241497   3.544   0.115   6.495 -0.0359  0.0005  0.8505
 6621TIP3    H141498   3.478   0.129   6.562 -0.9229  0.9657 -0.1772
 6621TIP3    H241499   3.591   0.198   6.490  0.1269 -0.1154  0.3896
 6622TIP3   OH241500   6.149   6.314   6.169 -0.2630 -0.2110 -0.0896
 6622TIP3    H141501   6.144   6.239   6.110 -0.0339 -0.1191 -0.2279
 6622TIP3    H241502   6.063   6.356   6.161  0.2177  0.6054 -1.4399
 6623TIP3   OH241503   1.148   0.435   7.381  0.0488 -0.0034 -0.3352
 6623TIP3    H141504   1.067   0.385   7.378  0.5371 -0.8383  0.0809
 6623TIP3    H241505   1.212   0.375   7.419  0.8853  0.6136 -0.7383
 6624TIP3   OH241506   5.270   2.224   2.078  0.4017 -0.0086  0.4095
 6624TIP3    H141507   5.206   2.291   2.054  0.6993  0.3430  0.6027
 6624TIP3    H241508   5.298   2.247   2.166  1.0021 -0.0069  0.2220
 6625TIP3   OH241509   6.728   6.096   2.381 -0.1727  0.3757  0.2662
 6625TIP3    H141510   6.821   6.097   2.357  0.2600  0.1562  1.8175
 6625TIP3    H241511   6.705   6.188   2.394  0.3521  0.3313  1.6785
 6626TIP3   OH241512   1.140   2.750   8.200 -0.2775 -0.0480 -0.4774
 6626TIP3    H141513   1.050   2.780   8.214 -1.0073 -2.0898 -0.5224
 6626TIP3    H241514   1.176   2.811   8.135 -1.7038  0.6631 -0.6299
 6627TIP3   OH241515   1.793   3.090   1.487  0.0886  0.6803 -0.2585
 6627TIP3    H141516   1.799   3.080   1.392  0.2306 -0.9214 -0.0960
 6627TIP3    H241517   1.699   3.084   1.506  0.2367 -2.8342  0.0200
 6628TIP3   OH241518   0.746   2.377   1.247  0.7734  0.0547  0.3801
 6628TIP3    H141519   0.776   2.419   1.327  0.6406 -0.1691  0.5469
 6628TIP3    H241520   0.712   2.292   1.275 -0.7540  0.6134  0.3206
 6629TIP3   OH241521   6.108   3.770   0.712  0.0195  0.4470 -0.0476
 6629TIP3    H141522   6.135   3.831   0.781 -2.3552  2.1111 -0.4328
 6629TIP3    H241523   6.016   3.751   0.732 -0.5073  0.3446 -2.2968
 6630TIP3   OH241524   3.521   5.081   7.069 -0.0990 -0.3370  0.0046
 6630TIP3    H141525   3.465   5.009   7.037 -1.5835  0.2699  1.1334
 6630TIP3    H241526   3.532   5.063   7.162 -0.8372  1.0793  0.3992
 6631TIP3   OH241527   1.208   6.236   0.335  0.0446 -0.0271  0.1308
 6631TIP3    H141528   1.201   6.145   0.364  1.1900 -0.8954 -2.1202
 6631TIP3    H241529   1.151   6.242   0.259 -0.4353  1.3165  0.5745
 6632TIP3   OH241530   3.534   4.357   8.595 -0.0880 -0.3479 -0.0538
 6632TIP3    H141531   3.453   4.354   8.544 -1.3078  0.0055  1.7630
 6632TIP3    H241532   3.538   4.447   8.628  2.3660  0.3931 -2.0431
 6633TIP3   OH241533   1.765   4.920   8.283 -0.3032 -0.7576  0.1162
 6633TIP3    H141534   1.698   4.897   8.218 -1.5941  0.0030  1.1350
 6633TIP3    H241535   1.741   5.008   8.312  1.1648 -0.4678  0.5063
 6634TIP3   OH241536   4.224   6.333   1.398  0.1035  0.1054 -0.0037
 6634TIP3    H141537   4.140   6.379   1.405  0.3102  0.8201 -1.8061
 6634TIP3    H241538   4.289   6.400   1.420  0.2340 -0.6854  2.3538
 6635TIP3   OH241539   1.651   6.148   6.773 -0.6974 -0.3596  0.0979
 6635TIP3    H141540   1.711   6.212   6.812 -0.0818  0.7685 -2.4927
 6635TIP3    H241541   1.597   6.118   6.846 -1.4991  3.6476  1.3809
 6636TIP3   OH241542   1.088   1.675   8.515 -0.0151  0.0636  0.3093
 6636TIP3    H141543   1.126   1.607   8.571  0.3148 -0.7227 -0.8417
 6636TIP3    H241544   1.099   1.756   8.566 -1.8172 -0.8957  2.3900
 6637TIP3   OH241545   1.629   2.359   8.471  1.0217 -0.3651 -0.5028
 6637TIP3    H141546   1.660   2.450   8.471  2.9579 -0.9240 -2.7478
 6637TIP3    H241547   1.534   2.367   8.470  1.1303  1.6391 -0.4088
 6638TIP3   OH241548   2.442   3.001   2.416 -0.0662 -0.6036 -0.0949
 6638TIP3    H141549   2.430   2.916   2.374  0.4154 -0.2643 -0.9507
 6638TIP3    H241550   2.537   3.015   2.415 -0.1588  0.0534 -0.2005
 6639TIP3   OH241551   2.320   4.563   1.250 -0.7303 -0.1327 -0.9089
 6639TIP3    H141552   2.249   4.627   1.257 -1.1261 -0.6682  0.3115
 6639TIP3    H241553   2.387   4.607   1.197 -1.5405  0.7723 -1.2136
 6640TIP3   OH241554   3.537   2.496   1.133  0.0935  0.0430 -0.2884
 6640TIP3    H141555   3.471   2.530   1.194 -0.1723  0.1089 -0.6111
 6640TIP3    H241556   3.612   2.475   1.188 -0.5592 -1.0173  0.2365
 6641TIP3   OH241557   3.712   5.287   7.809 -0.2113  0.0849 -0.5435
 6641TIP3    H141558   3.717   5.194   7.787  0.5492  0.4655 -2.1392
 6641TIP3    H241559   3.645   5.322   7.751  1.2998  0.9890 -1.8227
 6642TIP3   OH241560   3.496   1.092   1.668 -0.5384 -0.0050 -0.2481
 6642TIP3    H141561   3.585   1.094   1.703  0.1043  0.0618 -1.7861
 6642TIP3    H241562   3.484   1.002   1.638 -0.7760  0.1198 -0.5288
 6643TIP3   OH241563   1.047   5.918   2.233 -0.2576  0.1242  0.1577
 6643TIP3    H141564   0.994   5.930   2.311 -0.1028 -1.8440  0.6224
 6643TIP3    H241565   1.000   5.850   2.183  2.1946 -2.4371  1.0594
 6644TIP3   OH241566   6.119   1.841   1.377  0.4549  0.1182 -0.9320
 6644TIP3    H141567   6.106   1.886   1.461  1.4486  0.8062 -1.1231
 6644TIP3    H241568   6.122   1.748   1.399 -1.4518  0.1098 -0.5000
 6645TIP3   OH241569   4.710   4.634   7.425  0.1292 -0.6433 -0.0237
 6645TIP3    H141570   4.775   4.616   7.493  0.7748  0.5697 -0.2942
 6645TIP3    H241571   4.714   4.729   7.413 -1.1550 -0.6495 -0.5900
 6646TIP3   OH241572   4.711   3.412   0.733  0.0353  0.2547 -0.0861
 6646TIP3    H141573   4.750   3.449   0.655  1.4020 -1.1091 -0.1010
 6646TIP3    H241574   4.770   3.340   0.758 -2.0775 -1.4493  0.3173
 6647TIP3   OH241575   3.170   1.884   0.907 -0.2599  0.4455  0.3102
 6647TIP3    H141576   3.077   1.904   0.902 -0.2889  0.2323 -0.0703
 6647TIP3    H241577   3.211   1.963   0.943 -0.4506  0.9349 -0.5293
 6648TIP3   OH241578   4.611   2.454   8.299  0.3370 -0.2241 -0.0881
 6648TIP3    H141579   4.593   2.434   8.207  2.5201 -1.8164 -0.2323
 6648TIP3    H241580   4.580   2.377   8.347  2.3165 -0.9354  0.1127
 6649TIP3   OH241581   0.155   2.079   1.541 -0.3602 -0.2934  0.0446
 6649TIP3    H141582   0.060   2.086   1.550 -0.3784  0.5095 -0.7057
 6649TIP3    H241583   0.190   2.149   1.595 -0.2249 -0.1095 -0.2778
 6650TIP3   OH241584   1.944   4.476   6.403 -0.2069  0.1312 -0.1739
 6650TIP3    H141585   2.027   4.429   6.401 -0.8489 -1.0286 -1.5045
 6650TIP3    H241586   1.884   4.416   6.448 -0.4138  0.8373  0.5180
 6651TIP3   OH241587   1.293   2.023   6.490  0.8448 -0.0682 -0.5367
 6651TIP3    H141588   1.338   2.014   6.406  0.4952 -1.7764 -0.5876
 6651TIP3    H241589   1.202   2.044   6.466  1.0173  0.6962 -0.5323
 6652TIP3   OH241590   0.590   4.808   7.631  0.0020 -0.5182 -0.3136
 6652TIP3    H141591   0.522   4.868   7.661 -0.0819 -1.5825  1.7577
 6652TIP3    H241592   0.629   4.853   7.556 -0.5236  1.7834  0.6989
 6653TIP3   OH241593   0.812   2.224   2.007 -0.5719 -0.4120  0.4983
 6653TIP3    H141594   0.751   2.256   1.941  0.1740 -0.5659 -0.2987
 6653TIP3    H241595   0.759   2.212   2.086 -1.1277  1.4903  0.4522
 6654TIP3   OH241596   4.975   2.367   1.343 -0.2932  0.2759 -0.1168
 6654TIP3    H141597   4.964   2.432   1.413 -0.8067 -0.6625  0.6896
 6654TIP3    H241598   4.943   2.411   1.265 -0.6301  0.9980  0.4146
 6655TIP3   OH241599   2.175   4.151   0.710  0.1072  0.1233 -0.7261
 6655TIP3    H141600   2.148   4.119   0.625 -2.2254 -0.8476  0.3074
 6655TIP3    H241601   2.150   4.082   0.772 -0.7819  1.8958  1.0380
 6656TIP3   OH241602   5.469   4.232   7.163  0.5370 -0.1074  0.6345
 6656TIP3    H141603   5.393   4.287   7.146  1.1491  0.7922  0.7680
 6656TIP3    H241604   5.466   4.165   7.094 -0.4035 -0.1145  0.6784
 6657TIP3   OH241605   0.628   4.442   7.799 -0.3548 -0.4050  0.5003
 6657TIP3    H141606   0.672   4.401   7.724  1.0103 -0.1933  1.1490
 6657TIP3    H241607   0.653   4.534   7.794  0.3746 -0.5252  1.6144
 6658TIP3   OH241608   2.795   6.707   6.316  0.4594 -0.3063 -0.2773
 6658TIP3    H141609   2.828   6.646   6.383 -2.0924 -0.4022  1.0091
 6658TIP3    H241610   2.847   6.786   6.330  1.1216 -0.8793  0.7035
 6659TIP3   OH241611   0.700   4.107   8.097 -0.0320  0.0360  0.1913
 6659TIP3    H141612   0.613   4.107   8.137 -1.4761  0.2206 -2.6442
 6659TIP3    H241613   0.719   4.199   8.080  1.1558  0.0729  1.5264
 6660TIP3   OH241614   2.645   6.188   7.160 -0.3020 -0.3441 -0.6396
 6660TIP3    H141615   2.631   6.099   7.129  1.1840 -0.0886 -2.2283
 6660TIP3    H241616   2.668   6.237   7.081  0.3277  1.1177  0.4136
 6661TIP3   OH241617   2.228   5.703   0.978  0.1653 -0.7809  0.0837
 6661TIP3    H141618   2.244   5.613   1.009  1.5806 -1.1378 -1.5041
 6661TIP3    H241619   2.178   5.692   0.897  2.1107 -0.3145 -1.2479
 6662TIP3   OH241620   6.151   2.066   0.785 -0.7609 -0.2724  0.7943
 6662TIP3    H141621   6.145   2.152   0.743 -0.6476 -0.2069  0.9094
 6662TIP3    H241622   6.245   2.048   0.791 -0.7978 -1.2530 -0.9309
 6663TIP3   OH241623   4.572   5.019   1.798 -0.1903  0.3914 -0.5348
 6663TIP3    H141624   4.523   4.946   1.761  1.8583 -0.8127 -0.9450
 6663TIP3    H241625   4.603   4.987   1.882 -0.6346  1.3993  0.0401
 6664TIP3   OH241626   3.715   4.427   7.678  0.6523  0.2869  0.0775
 6664TIP3    H141627   3.752   4.454   7.762 -0.5859 -0.3306  0.8485
 6664TIP3    H241628   3.671   4.505   7.645  0.5874  0.3594  0.3292
 6665TIP3   OH241629   6.598   6.705   8.187 -0.3590  0.6211 -0.1378
 6665TIP3    H141630   6.688   6.704   8.219 -0.5932 -2.4819  0.7501
 6665TIP3    H241631   6.553   6.765   8.245  0.8051  0.9200  0.4926
 6666TIP3   OH241632   6.602   4.249   0.336  0.0540 -0.5699  0.0859
 6666TIP3    H141633   6.532   4.198   0.375 -1.0595  0.2559 -0.7689
 6666TIP3    H241634   6.655   4.186   0.287 -0.5413 -1.0823  0.1060
 6667TIP3   OH241635   3.088   5.640   1.097  0.1808 -0.4611  0.9134
 6667TIP3    H141636   3.045   5.631   1.182 -0.4485 -2.5605  0.4537
 6667TIP3    H241637   3.055   5.566   1.046  1.0695  0.3477 -0.9381
 6668TIP3   OH241638   4.603   4.322   1.109  0.7030 -0.4533 -0.6406
 6668TIP3    H141639   4.645   4.342   1.026  1.6355  0.9102  0.1200
 6668TIP3    H241640   4.637   4.388   1.170 -0.5590 -0.9223  0.6341
 6669TIP3   OH241641   4.132   1.183   6.746 -0.2620 -0.1947 -0.1900
 6669TIP3    H141642   4.207   1.154   6.694  0.6229  0.9219  0.3984
 6669TIP3    H241643   4.168   1.194   6.835 -1.4032 -0.7244  0.3559
 6670TIP3   OH241644   5.262   1.774   0.338  0.6307 -1.2739 -0.1296
 6670TIP3    H141645   5.262   1.680   0.323  0.3843 -1.2655 -0.1883
 6670TIP3    H241646   5.229   1.811   0.256  0.2266 -1.1683  0.0799
 6671TIP3   OH241647   6.843   6.115   1.011 -0.0054 -0.4139 -0.9508
 6671TIP3    H141648   6.867   6.073   0.928 -0.6665  1.5312 -2.1884
 6671TIP3    H241649   6.800   6.196   0.985 -1.1069 -0.2037  1.3039
 6672TIP3   OH241650   3.883   6.885   7.702  0.2843 -0.3245 -0.4063
 6672TIP3    H141651   3.890   6.945   7.776 -0.0123 -1.0480  0.2138
 6672TIP3    H241652   3.797   6.906   7.663 -0.7316 -1.6624  1.0036
 6673TIP3   OH241653   0.317   6.094   0.865  0.3032 -0.7814 -0.6704
 6673TIP3    H141654   0.295   6.013   0.817  0.2022 -1.6087  0.7205
 6673TIP3    H241655   0.260   6.093   0.941 -0.1827  0.9849 -0.9676
 6674TIP3   OH241656   3.612   4.191   8.370 -0.1322 -0.1918 -0.2673
 6674TIP3    H141657   3.650   4.137   8.301  1.8585  1.8039 -0.8608
 6674TIP3    H241658   3.657   4.163   8.450  1.2921  0.8663 -0.6583
 6675TIP3   OH241659   4.887   4.719   1.764 -0.1767  0.0530 -0.2166
 6675TIP3    H141660   4.921   4.767   1.688 -0.7933 -0.3700 -0.7770
 6675TIP3    H241661   4.943   4.643   1.771 -0.1464  0.0695 -0.2774
 6676TIP3   OH241662   3.879   0.511   1.073 -0.0460  0.5085 -0.1151
 6676TIP3    H141663   3.881   0.443   1.006  0.4526 -0.6547  1.0515
 6676TIP3    H241664   3.810   0.485   1.133  1.5886 -0.2193  1.5678
 6677TIP3   OH241665   0.953   5.816   7.663 -0.3249 -0.4514 -0.3349
 6677TIP3    H141666   0.918   5.905   7.667 -2.6356 -1.3297  0.2132
 6677TIP3    H241667   1.023   5.815   7.729 -1.9187  0.3151  1.4574
 6678TIP3   OH241668   4.308   5.257   8.521 -0.3224 -0.1296  0.7420
 6678TIP3    H141669   4.284   5.170   8.552  0.1552 -0.1747  1.0036
 6678TIP3    H241670   4.236   5.284   8.464 -1.3356  0.0245  2.0418
 6679TIP3   OH241671   2.382   2.901   2.089  0.7496 -0.2872  0.0761
 6679TIP3    H141672   2.290   2.887   2.066  0.9361 -1.1643 -0.1920
 6679TIP3    H241673   2.402   2.831   2.151  1.1366  0.1281  0.4249
 6680TIP3   OH241674   0.707   3.594   8.497 -0.0477 -0.5909 -0.3053
 6680TIP3    H141675   0.697   3.551   8.582 -0.0284  1.2240  0.6650
 6680TIP3    H241676   0.783   3.651   8.507  1.3685 -1.9872 -2.3060
 6681TIP3   OH241677   3.499   6.205   1.862  0.0699  0.0929  0.0252
 6681TIP3    H141678   3.523   6.112   1.868  1.2642  0.4483  1.1807
 6681TIP3    H241679   3.583   6.251   1.852 -0.5104  1.0527 -0.5726
 6682TIP3   OH241680   1.261   6.631   0.558  0.2595  0.0273 -0.3094
 6682TIP3    H141681   1.213   6.560   0.516 -2.0022  1.3236 -0.0905
 6682TIP3    H241682   1.280   6.599   0.646 -0.3771 -0.4684 -0.3457
 6683TIP3   OH241683   1.477   4.052   0.555  0.2510  0.3246 -0.0208
 6683TIP3    H141684   1.504   4.025   0.467 -0.3632 -0.6063  0.0589
 6683TIP3    H241685   1.398   4.105   0.540 -0.3236 -0.5083  0.0101
 6684TIP3   OH241686   3.615   5.502   6.949  1.1260 -0.2297 -0.0835
 6684TIP3    H141687   3.678   5.436   6.974  2.3941  0.0325 -2.3140
 6684TIP3    H241688   3.592   5.481   6.859  1.1404  1.9862 -0.6835
 6685TIP3   OH241689   0.603   2.493   1.052 -0.7195 -0.2427  0.0363
 6685TIP3    H141690   0.658   2.447   1.115 -1.2339  1.1124  1.5615
 6685TIP3    H241691   0.526   2.438   1.043 -0.7374 -0.3517  0.7842
 6686TIP3   OH241692   4.569   0.303   1.516  0.4396 -0.1047  0.6900
 6686TIP3    H141693   4.664   0.305   1.523  0.3558  0.6380  1.7059
 6686TIP3    H241694   4.540   0.389   1.544 -0.5004 -0.0044 -0.4789
 6687TIP3   OH241695   3.766   4.376   8.224 -0.0702  0.0346  0.3416
 6687TIP3    H141696   3.699   4.331   8.276 -1.6117  0.9317 -0.7943
 6687TIP3    H241697   3.841   4.316   8.224 -0.4545 -0.5491  2.5173
 6688TIP3   OH241698   5.935   5.266   2.561 -0.5805 -0.9054 -0.1080
 6688TIP3    H141699   5.861   5.212   2.532 -0.7173 -1.1382  0.6394
 6688TIP3    H241700   6.006   5.203   2.575 -0.1140 -0.6448 -1.1570
 6689TIP3   OH241701   0.026   4.990   1.435  0.5009  0.6490 -0.0259
 6689TIP3    H141702  -0.011   5.076   1.417 -1.5639 -0.0330  0.6102
 6689TIP3    H241703   0.072   5.001   1.518 -0.8421  0.8864  0.7212
 6690TIP3   OH241704   1.946   2.060   2.537  0.7648  0.4206  0.1206
 6690TIP3    H141705   1.881   2.125   2.508  1.0169  0.8082  0.4080
 6690TIP3    H241706   1.928   1.983   2.483 -0.7459  0.0713  1.0674
 6691TIP3   OH241707   4.671   2.430   2.311 -0.0017  0.0771 -0.0364
 6691TIP3    H141708   4.697   2.361   2.372 -0.3629 -0.0986 -0.0765
 6691TIP3    H241709   4.748   2.487   2.305 -0.2010  0.5220  1.1806
 6692TIP3   OH241710   4.927   5.518   8.070 -0.1610  0.6485 -0.4389
 6692TIP3    H141711   4.949   5.594   8.016  1.7798 -1.2119 -2.4737
 6692TIP3    H241712   5.003   5.506   8.127 -0.4260  0.1578 -0.1828
 6693TIP3   OH241713   5.867   2.030   0.568  0.0830  0.7910 -0.0566
 6693TIP3    H141714   5.922   2.090   0.517 -0.3666  1.9463  0.7590
 6693TIP3    H241715   5.816   1.983   0.503  1.4905  0.2296 -0.7934
 6694TIP3   OH241716   0.159   6.043   7.841  0.6222 -0.1166 -0.4250
 6694TIP3    H141717   0.096   6.043   7.913  0.8251 -0.0680 -0.2464
 6694TIP3    H241718   0.107   6.064   7.764 -0.1100 -2.6047 -0.7262
 6695TIP3   OH241719   2.173   5.047   0.596  0.2673 -0.1917 -0.1440
 6695TIP3    H141720   2.252   5.100   0.608  0.5682 -0.8957  1.1702
 6695TIP3    H241721   2.184   5.008   0.510  0.3778  1.2868 -0.8398
 6696TIP3   OH241722   3.232   3.856   1.282  0.0569 -0.3023  0.1917
 6696TIP3    H141723   3.299   3.799   1.321 -0.4363 -1.3031 -0.3772
 6696TIP3    H241724   3.183   3.890   1.356 -1.1717 -2.5467  0.4838
 6697TIP3   OH241725   5.042   5.925   8.076  0.5296 -0.0040 -0.4494
 6697TIP3    H141726   5.109   5.990   8.099  1.5007 -0.7615 -1.0744
 6697TIP3    H241727   5.040   5.866   8.152 -1.2907  1.4182  0.7196
 6698TIP3   OH241728   0.792   4.903   8.623 -0.5354 -0.2223  0.0421
 6698TIP3    H141729   0.857   4.845   8.663 -0.0666  0.3272  0.1017
 6698TIP3    H241730   0.734   4.928   8.695  0.7848  1.4088  0.6090
 6699TIP3   OH241731   2.198   6.284   7.542 -0.4000  0.1917  0.1782
 6699TIP3    H141732   2.216   6.349   7.610  0.7102  0.3606 -0.2672
 6699TIP3    H241733   2.266   6.298   7.476 -1.2040 -0.2555 -0.7698
 6700TIP3   OH241734   3.347   3.387   7.828 -0.7723 -0.2324  0.2125
 6700TIP3    H141735   3.262   3.343   7.836 -0.1551 -1.7894 -1.1963
 6700TIP3    H241736   3.401   3.325   7.779  1.2617  0.6476  1.2595
 6701TIP3   OH241737   5.836   5.717   7.491 -0.0696  0.1393 -0.7469
 6701TIP3    H141738   5.922   5.757   7.477 -0.5085  0.8084 -1.6244
 6701TIP3    H241739   5.841   5.679   7.579  0.2284  2.5024  0.3327
 6702TIP3   OH241740   0.509   1.915   8.208  0.4143  0.0240 -0.3367
 6702TIP3    H141741   0.483   1.921   8.300  1.0664 -0.0745 -0.1395
 6702TIP3    H241742   0.429   1.888   8.162 -0.7385  2.9598 -0.2526
 6703TIP3   OH241743   4.714   4.884   0.759 -0.6529  0.4758  0.0400
 6703TIP3    H141744   4.755   4.939   0.827 -1.1111  0.1727  0.5711
 6703TIP3    H241745   4.649   4.833   0.807  0.0798 -0.8749 -0.3649
 6704TIP3   OH241746   3.985   0.681   0.853 -0.2451  0.5329 -0.0720
 6704TIP3    H141747   3.947   0.636   0.929 -0.9388 -0.4782 -0.9766
 6704TIP3    H241748   3.910   0.706   0.799  0.2407  1.0867 -0.5105
 6705TIP3   OH241749   4.785   3.877   8.584 -0.2046  0.0617 -0.3891
 6705TIP3    H141750   4.877   3.868   8.562  0.2182  0.7717  0.9534
 6705TIP3    H241751   4.738   3.838   8.510  1.0549  2.6912 -2.7218
 6706TIP3   OH241752   1.283   6.496   2.074  0.3479 -0.4346  0.0078
 6706TIP3    H141753   1.366   6.512   2.119 -0.7821  2.7653  1.3005
 6706TIP3    H241754   1.216   6.505   2.143 -1.3448  2.7528 -1.7763
 6707TIP3   OH241755   5.908   2.282   1.051  0.5762 -0.6240 -0.2678
 6707TIP3    H141756   5.910   2.287   0.956  2.3261 -0.0442 -0.2503
 6707TIP3    H241757   5.985   2.332   1.079 -0.6236  0.3374  1.5162
 6708TIP3   OH241758   4.338   1.321   7.819 -0.2921  0.1408 -0.3989
 6708TIP3    H141759   4.373   1.232   7.808  1.7270  1.0046 -1.4474
 6708TIP3    H241760   4.269   1.311   7.885  1.8709 -1.7742  1.8177
 6709TIP3   OH241761   3.248   0.273   8.321 -0.2989  0.2179  0.1747
 6709TIP3    H141762   3.201   0.218   8.259 -1.3675  1.1451  0.1218
 6709TIP3    H241763   3.259   0.219   8.399 -0.7823 -0.2770 -0.0965
 6710TIP3   OH241764   3.410   0.505   7.724  0.7718  0.4298  0.0529
 6710TIP3    H141765   3.322   0.469   7.710  2.7390 -6.7649  1.9613
 6710TIP3    H241766   3.417   0.512   7.820  2.7403 -0.9878  0.0565
 6711TIP3   OH241767   4.103   1.203   1.339  0.0410  0.5861 -0.6437
 6711TIP3    H141768   4.077   1.247   1.259 -1.0207 -0.2534 -0.7940
 6711TIP3    H241769   4.023   1.160   1.370  1.2150 -2.2405 -1.1703
 6712TIP3   OH241770   6.417   2.902   6.680  0.5893 -0.5295 -0.3243
 6712TIP3    H141771   6.434   2.943   6.596  0.3534 -0.0462 -0.1377
 6712TIP3    H241772   6.407   2.975   6.741  2.8080 -0.8624  0.5456
 6713TIP3   OH241773   6.771   4.086   0.214 -0.1360  0.3851  0.4739
 6713TIP3    H141774   6.761   4.132   0.131  0.9596  1.8622  1.1101
 6713TIP3    H241775   6.797   3.997   0.190 -1.1506  0.4175 -0.7752
 6714TIP3   OH241776   3.712   6.755   1.238  0.6488  0.2801  0.3865
 6714TIP3    H141777   3.674   6.674   1.203  0.9559  0.5582 -0.6170
 6714TIP3    H241778   3.640   6.798   1.283  0.1853 -0.0007 -0.0759
 6715TIP3   OH241779   4.478   4.550   7.941 -0.4976 -0.0578 -0.2565
 6715TIP3    H141780   4.469   4.571   8.034 -0.8340  0.4657 -0.4071
 6715TIP3    H241781   4.547   4.608   7.910 -0.6439  0.0282 -0.4196
 6716TIP3   OH241782   4.604   4.835   0.167  0.2865  0.2013 -0.1688
 6716TIP3    H141783   4.698   4.855   0.170  0.9459 -2.6007  0.0122
 6716TIP3    H241784   4.592   4.791   0.083 -0.7932  0.0895  0.0401
 6717TIP3   OH241785   2.676   6.543   0.419 -0.0034  0.8743  0.2587
 6717TIP3    H141786   2.674   6.632   0.385  0.8692  0.7249 -0.2273
 6717TIP3    H241787   2.766   6.514   0.405 -0.2445 -0.0468  0.5156
 6718TIP3   OH241788   3.206   3.471   8.462 -0.3306  0.2953 -0.8555
 6718TIP3    H141789   3.183   3.563   8.447  0.4084  0.4223 -1.2596
 6718TIP3    H241790   3.236   3.440   8.377  1.0654  0.1670 -0.3352
 6719TIP3   OH241791   4.512   1.735   8.025  0.7144 -0.6452  0.2548
 6719TIP3    H141792   4.570   1.714   7.951 -0.0785  0.4246 -0.7017
 6719TIP3    H241793   4.429   1.694   8.002 -0.1427  1.4136 -0.4814
 6720TIP3   OH241794   3.666   1.201   0.111 -0.7523  0.1267 -1.3868
 6720TIP3    H141795   3.734   1.248   0.159 -1.2505 -1.5235  1.1488
 6720TIP3    H241796   3.711   1.166   0.033  0.9455  0.2637 -0.5192
 6721TIP3   OH241797   1.242   4.920   0.644  0.3843 -0.1325  1.0502
 6721TIP3    H141798   1.175   4.885   0.702 -1.0031  0.8104  0.0791
 6721TIP3    H241799   1.206   4.909   0.556  1.4726  0.4442  0.5148
 6722TIP3   OH241800   0.278   6.647   1.074 -0.5052 -0.1639  0.2528
 6722TIP3    H141801   0.317   6.609   1.153 -0.3332  0.8791  0.6808
 6722TIP3    H241802   0.264   6.572   1.016 -1.5879 -1.1109  1.6668
 6723TIP3   OH241803   4.437   0.715   7.429 -0.1454  0.3361 -0.1508
 6723TIP3    H141804   4.370   0.710   7.361 -0.1871 -0.7001 -0.0465
 6723TIP3    H241805   4.501   0.647   7.406  0.6114  0.9706  0.0295
 6724TIP3   OH241806   4.798   5.263   8.355 -0.0328  0.4344  0.6324
 6724TIP3    H141807   4.891   5.281   8.365  0.0961  0.0722  0.1303
 6724TIP3    H241808   4.794   5.197   8.286 -0.5639 -0.6519  1.6690
 6725TIP3   OH241809   3.326   3.189   6.361 -0.3235 -0.4170 -0.1443
 6725TIP3    H141810   3.417   3.159   6.356 -0.5256 -0.9695 -0.6387
 6725TIP3    H241811   3.275   3.115   6.328 -0.7509  1.0475 -3.1300
 6726TIP3   OH241812   1.350   0.731   8.565  0.2264 -0.3080  0.3263
 6726TIP3    H141813   1.349   0.648   8.517  0.0294  0.2172 -0.5908
 6726TIP3    H241814   1.324   0.797   8.501 -0.0396  0.4155  1.1512
 6727TIP3   OH241815   0.878   3.964   0.155 -0.1825  0.0481 -0.0423
 6727TIP3    H141816   0.877   4.052   0.191 -0.7996 -0.8004  2.1940
 6727TIP3    H241817   0.964   3.929   0.179 -1.3376 -1.2457  2.7457
 6728TIP3   OH241818   1.262   2.793   1.491 -0.3238  0.2939  0.0732
 6728TIP3    H141819   1.337   2.839   1.454  0.0578 -1.3137 -1.2716
 6728TIP3    H241820   1.297   2.709   1.521 -1.6881 -0.9104 -1.4972
 6729TIP3   OH241821   0.688   6.225   1.125  0.2936 -0.6090 -0.0984
 6729TIP3    H141822   0.596   6.234   1.149 -0.4396 -0.3805 -2.7154
 6729TIP3    H241823   0.689   6.229   1.029  3.2095  0.8952 -0.1160
 6730TIP3   OH241824   0.791   0.598   7.536 -0.6238 -0.1276  0.0919
 6730TIP3    H141825   0.705   0.585   7.496  0.5221 -2.6716 -1.8831
 6730TIP3    H241826   0.827   0.510   7.544  1.2178  0.7312  2.3514
 6731TIP3   OH241827   4.592   6.098   6.576  0.2867  0.1866 -0.0356
 6731TIP3    H141828   4.528   6.038   6.537  1.4827 -0.6068 -0.8431
 6731TIP3    H241829   4.635   6.140   6.501  0.8450  0.5567  0.4828
 6732TIP3   OH241830   5.906   5.406   1.039  0.1767  0.2113  0.5476
 6732TIP3    H141831   5.873   5.496   1.038  0.6949  0.4440 -1.8648
 6732TIP3    H241832   5.833   5.354   1.070 -0.8380  1.2461 -0.0480
 6733TIP3   OH241833   1.085   1.749   1.949  0.4701 -0.5357  0.0587
 6733TIP3    H141834   1.051   1.765   1.861  0.5510 -2.7169 -0.4180
 6733TIP3    H241835   1.179   1.739   1.937  0.4183 -1.3664  0.3027
 6734TIP3   OH241836   0.599   3.782   7.001 -0.7025 -0.6783 -0.8318
 6734TIP3    H141837   0.579   3.841   6.929  1.5825  1.8121  0.4044
 6734TIP3    H241838   0.541   3.810   7.072 -0.9115 -1.2167 -0.7781
 6735TIP3   OH241839   6.444   4.838   1.318  0.0891  0.2992 -0.2810
 6735TIP3    H141840   6.450   4.911   1.381  1.1372 -0.9128  1.0935
 6735TIP3    H241841   6.431   4.761   1.373  0.0486 -0.6922 -1.6426
 6736TIP3   OH241842   6.919   5.983   0.458  0.3282  0.3186 -0.3017
 6736TIP3    H141843   6.863   5.947   0.526  2.0864 -0.7929  0.6224
 6736TIP3    H241844   6.973   5.910   0.428  1.7522  1.4489 -0.6782
 6737TIP3   OH241845   3.719   3.522   0.904 -0.1974  0.0263 -0.3147
 6737TIP3    H141846   3.638   3.535   0.952  0.0520 -0.8798  0.3920
 6737TIP3    H241847   3.777   3.591   0.936  0.1733 -0.9271  1.2191
 6738TIP3   OH241848   3.768   5.274   0.288  0.5758  0.5707 -0.0292
 6738TIP3    H141849   3.787   5.266   0.194  1.1596 -0.2611  0.1494
 6738TIP3    H241850   3.854   5.273   0.330  0.2772 -0.8003  0.6290
 6739TIP3   OH241851   2.467   6.708   7.902  0.6164  0.3171  0.0282
 6739TIP3    H141852   2.433   6.742   7.985  0.5647 -0.1436  0.1982
 6739TIP3    H241853   2.561   6.725   7.906  0.8110 -0.8399  0.7403
 6740TIP3   OH241854   3.972   0.932   6.970  0.1009 -0.4573 -0.3659
 6740TIP3    H141855   3.893   0.915   6.919  0.5250  1.0967 -1.6576
 6740TIP3    H241856   4.011   0.846   6.985 -0.1482 -1.0199 -2.5816
 6741TIP3   OH241857   2.583   6.330   0.843  0.2247 -0.2101 -0.6462
 6741TIP3    H141858   2.635   6.284   0.909  0.0196  0.0310 -0.3131
 6741TIP3    H241859   2.582   6.270   0.768  1.3597 -0.0254 -0.8324
 6742TIP3   OH241860   3.389   5.430   7.428  0.2798  0.4317 -0.2891
 6742TIP3    H141861   3.397   5.424   7.333  0.8452 -0.0996 -0.2155
 6742TIP3    H241862   3.329   5.503   7.443  0.7795  1.0051 -1.0297
 6743TIP3   OH241863   4.386   4.613   0.380  0.0917 -0.3052 -0.3415
 6743TIP3    H141864   4.381   4.538   0.321  0.3561 -0.4170 -0.2230
 6743TIP3    H241865   4.342   4.583   0.460 -0.0156 -0.2502 -0.3794
 6744TIP3   OH241866   4.426   2.651   8.422  0.4205  0.7367 -0.4065
 6744TIP3    H141867   4.407   2.656   8.328 -1.0848  0.1786 -0.1514
 6744TIP3    H241868   4.486   2.577   8.430 -0.6176 -0.1796 -0.7860
 6745TIP3   OH241869   4.142   4.239   1.381 -0.1537 -0.3973 -0.6602
 6745TIP3    H141870   4.176   4.149   1.384 -0.5554 -0.5329 -0.0975
 6745TIP3    H241871   4.184   4.284   1.454 -0.3633 -0.2769 -0.6117
 6746TIP3   OH241872   3.797   4.220   8.621  0.3765 -0.1253 -0.2343
 6746TIP3    H141873   3.772   4.157   8.688 -0.4808 -1.0821 -1.4041
 6746TIP3    H241874   3.729   4.287   8.625  0.8294  0.3090  0.4454
 6747TIP3   OH241875   3.179   0.697   7.287  0.3357  0.7924  0.0276
 6747TIP3    H141876   3.100   0.724   7.240  2.0053 -0.2265 -3.8361
 6747TIP3    H241877   3.231   0.778   7.294  0.3934  0.8260 -0.6814
 6748TIP3   OH241878   3.278   5.034   2.300 -0.1378 -1.0350 -0.7882
 6748TIP3    H141879   3.225   4.961   2.270 -1.1086 -1.0461  0.8290
 6748TIP3    H241880   3.343   4.995   2.358 -1.4646 -0.5564  1.1201
 6749TIP3   OH241881   5.657   6.567   7.796  0.6050 -0.6774  0.0272
 6749TIP3    H141882   5.666   6.477   7.762  1.7764 -0.9845  1.0936
 6749TIP3    H241883   5.657   6.557   7.891  1.3690  0.5018  0.1682
 6750TIP3   OH241884   4.096   0.273   7.642  0.1543  0.2028 -0.1573
 6750TIP3    H141885   4.079   0.352   7.695  1.6426 -0.1878  0.9764
 6750TIP3    H241886   4.143   0.306   7.566 -0.3372  0.5534 -0.3149
 6751TIP3   OH241887   6.606   4.547   7.398 -0.6634 -0.2401 -0.7052
 6751TIP3    H141888   6.554   4.578   7.323 -1.0574  0.2612 -0.2347
 6751TIP3    H241889   6.540   4.521   7.463 -0.3512 -2.2567 -1.1374
 6752TIP3   OH241890   1.359   4.141   7.604 -0.0161  0.4009  0.0689
 6752TIP3    H141891   1.350   4.050   7.634 -0.0820  0.9635  1.8623
 6752TIP3    H241892   1.351   4.135   7.509 -0.1286 -1.4576  0.1455
 6753TIP3   OH241893   1.535   0.451   7.133 -0.4609 -0.5191  0.2120
 6753TIP3    H141894   1.499   0.528   7.178  0.9710  0.4208 -0.1562
 6753TIP3    H241895   1.523   0.471   7.040  0.2677 -0.5282  0.1051
 6754TIP3   OH241896   5.367   5.843   7.014  0.0645  0.5029  0.2568
 6754TIP3    H141897   5.279   5.806   7.005  1.1497 -2.1181 -0.7342
 6754TIP3    H241898   5.377   5.900   6.939 -0.5472  0.2179 -0.0461
 6755TIP3   OH241899   6.323   1.999   6.841 -0.8282 -0.0259  0.3307
 6755TIP3    H141900   6.392   1.976   6.904 -0.3806  1.1148  0.2760
 6755TIP3    H241901   6.338   1.940   6.767  0.3820  0.5024  0.1291
 6756TIP3   OH241902   2.817   0.204   8.395  0.3569 -0.2974  0.1143
 6756TIP3    H141903   2.865   0.163   8.467  2.5149  2.0179  0.1249
 6756TIP3    H241904   2.744   0.249   8.436 -0.8644 -2.3086  0.3066
 6757TIP3   OH241905   5.092   2.982   8.515  0.3068  0.2976 -0.0904
 6757TIP3    H141906   5.154   2.937   8.458  0.7247 -0.0021  0.5953
 6757TIP3    H241907   5.147   3.031   8.576 -0.1402  0.7316 -0.0240
 6758TIP3   OH241908   4.834   0.763   0.049 -0.0671 -0.3214 -0.3235
 6758TIP3    H141909   4.900   0.830   0.031 -0.1463  0.8200  3.0138
 6758TIP3    H241910   4.763   0.810   0.092 -0.9895 -2.2325  0.3673
 6759TIP3   OH241911   2.036   1.830   6.976  0.1595 -0.3462 -0.4750
 6759TIP3    H141912   2.094   1.879   6.917  0.1596 -0.1016 -0.2729
 6759TIP3    H241913   2.086   1.823   7.058 -0.6475  1.0948  0.1714
 6760TIP3   OH241914   5.934   4.286   7.823  0.8971  0.5394  0.4569
 6760TIP3    H141915   5.976   4.357   7.774  0.8382  0.1927 -0.0999
 6760TIP3    H241916   5.848   4.276   7.783  0.2944  1.1826  1.5338
 6761TIP3   OH241917   5.577   5.559   6.435  0.1016 -0.0421  0.2599
 6761TIP3    H141918   5.491   5.594   6.410  0.4602  0.2524 -0.5753
 6761TIP3    H241919   5.559   5.510   6.515 -0.7361  0.5462  0.4583
 6762TIP3   OH241920   3.244   2.173   1.923  0.7082 -0.9206  0.2437
 6762TIP3    H141921   3.306   2.235   1.961 -0.8597 -0.2282  1.8390
 6762TIP3    H241922   3.181   2.228   1.876  1.4939 -1.6436 -1.8114
 6763TIP3   OH241923   4.966   1.552   1.903  0.0752  0.4672  0.7338
 6763TIP3    H141924   4.946   1.607   1.978  0.1590 -1.7254  2.4959
 6763TIP3    H241925   4.948   1.463   1.933  0.4923 -0.5553 -1.7383
 6764TIP3   OH241926   1.950   4.746   7.479  0.4055  0.2455  0.1976
 6764TIP3    H141927   1.976   4.803   7.407  1.2268 -1.2889 -0.7921
 6764TIP3    H241928   1.877   4.695   7.443  0.6790 -0.3763  0.5175
 6765TIP3   OH241929   3.938   0.255   1.346  0.1973 -0.0522 -0.0240
 6765TIP3    H141930   4.018   0.260   1.293  0.2553 -1.0221 -0.0374
 6765TIP3    H241931   3.960   0.196   1.418 -0.3056  0.1938  0.3404
 6766TIP3   OH241932   0.884   3.730   1.259  0.2622  0.4941  0.4182
 6766TIP3    H141933   0.802   3.772   1.283 -0.0214  1.1411 -1.5710
 6766TIP3    H241934   0.859   3.643   1.227  0.4317  0.4326  0.4489
 6767TIP3   OH241935   1.524   5.893   7.256  0.1354 -0.0123  0.8385
 6767TIP3    H141936   1.614   5.903   7.285 -0.5815  2.2167  2.5902
 6767TIP3    H241937   1.523   5.932   7.168  0.9877 -0.7829  0.4651
 6768TIP3   OH241938   1.748   5.848   2.064 -0.1694 -0.3827 -0.1671
 6768TIP3    H141939   1.656   5.873   2.072  0.2634  1.7885 -1.2037
 6768TIP3    H241940   1.767   5.855   1.970  1.2944  0.1915  0.1456
 6769TIP3   OH241941   5.231   5.100   0.946  0.5757  0.0689  0.0071
 6769TIP3    H141942   5.202   5.096   0.855  1.9361 -1.0358 -0.4136
 6769TIP3    H241943   5.326   5.092   0.941  0.6533 -0.2433  1.5418
 6770TIP3   OH241944   5.984   1.784   7.849 -0.6395  0.1388  0.3187
 6770TIP3    H141945   6.064   1.814   7.808 -1.1990  1.6185  0.2692
 6770TIP3    H241946   5.977   1.692   7.823  0.9605  0.0122  0.2405
 6771TIP3   OH241947   2.969   3.425   7.642  0.5922  0.6008  0.0143
 6771TIP3    H141948   2.997   3.505   7.597  1.0529  0.3564 -0.1479
 6771TIP3    H241949   2.930   3.371   7.574  2.1482 -0.1707 -0.3270
 6772TIP3   OH241950   0.470   0.995   7.158 -0.3804  0.3129  0.4584
 6772TIP3    H141951   0.400   0.958   7.104 -1.1661  1.1202  0.8925
 6772TIP3    H241952   0.459   0.953   7.244  1.2398 -1.4264 -0.1053
 6773TIP3   OH241953   6.622   3.244   6.336 -0.0102 -0.5691 -0.7272
 6773TIP3    H141954   6.669   3.328   6.333 -1.8283  0.6045  0.8135
 6773TIP3    H241955   6.685   3.180   6.303  1.7726  1.2600 -1.1012
 6774TIP3   OH241956   5.253   5.506   7.630 -0.2068 -0.2128  0.7470
 6774TIP3    H141957   5.290   5.585   7.589 -2.3786  0.4811 -0.0338
 6774TIP3    H241958   5.329   5.456   7.659  1.3922  0.3951 -2.0568
 6775TIP3   OH241959   2.050   3.735   7.982 -0.0004  0.7287 -0.1026
 6775TIP3    H141960   1.969   3.687   7.999  0.2077  1.1334  2.3671
 6775TIP3    H241961   2.119   3.673   8.004  0.3084  1.3397  0.6693
 6776TIP3   OH241962   4.832   0.228   7.969 -0.5627  0.5103  0.3144
 6776TIP3    H141963   4.737   0.231   7.955 -0.4378  1.1702 -0.4841
 6776TIP3    H241964   4.869   0.233   7.881  0.2020 -1.5202  0.4909
 6777TIP3   OH241965   1.470   0.628   8.049 -0.0668 -0.0933 -0.4748
 6777TIP3    H141966   1.423   0.558   8.094 -0.2391  0.2316 -0.1422
 6777TIP3    H241967   1.556   0.629   8.090 -0.3238  0.4004  0.0590
 6778TIP3   OH241968   2.219   2.047   0.516 -0.2111 -0.2417  0.0857
 6778TIP3    H141969   2.268   2.074   0.594 -0.6451  0.3694  0.1608
 6778TIP3    H241970   2.146   2.110   0.512 -0.5632 -0.6801 -0.4363
 6779TIP3   OH241971   4.453   0.896   8.456  0.1205  0.0039  0.4450
 6779TIP3    H141972   4.510   0.842   8.401  0.5035  1.5692 -0.7366
 6779TIP3    H241973   4.365   0.875   8.426  0.2654  0.0524 -0.0207
 6780TIP3   OH241974   4.101   4.281   0.124 -0.2197  0.5209  0.5600
 6780TIP3    H141975   4.095   4.284   0.029  2.8112 -1.9556  0.1024
 6780TIP3    H241976   4.040   4.212   0.150  0.4199 -0.2281  0.1249
 6781TIP3   OH241977   3.217   6.241   2.056 -0.3288  0.0634 -0.2293
 6781TIP3    H141978   3.151   6.238   2.125 -1.5172  1.8630 -1.2021
 6781TIP3    H241979   3.237   6.149   2.037 -0.6874 -0.4765  1.8025
 6782TIP3   OH241980   6.773   4.404   1.479 -0.4291 -0.2660  0.2052
 6782TIP3    H141981   6.784   4.444   1.566 -1.9312 -0.1146  0.3408
 6782TIP3    H241982   6.801   4.314   1.491 -1.9063 -0.6161  1.2147
 6783TIP3   OH241983   4.525   4.933   8.428 -0.1876 -0.8269  0.3425
 6783TIP3    H141984   4.553   4.853   8.473  1.5924  0.5115  1.7803
 6783TIP3    H241985   4.595   4.996   8.447 -1.7253  1.1863 -0.3967
 6784TIP3   OH241986   2.951   4.731   1.928 -0.3915  0.1115 -0.4794
 6784TIP3    H141987   2.965   4.689   2.014 -1.3723 -0.5234 -0.6197
 6784TIP3    H241988   3.038   4.731   1.888  0.0932  0.4680  0.5340
 6785TIP3   OH241989   2.807   1.290   0.875  0.2382 -0.0959 -0.3802
 6785TIP3    H141990   2.873   1.314   0.941  1.5989 -0.5600 -1.5181
 6785TIP3    H241991   2.758   1.371   0.862 -1.5924 -0.5317  2.7751
 6786TIP3   OH241992   2.150   4.763   1.304 -0.5589  0.4556  0.4651
 6786TIP3    H141993   2.076   4.818   1.276  1.0064  2.2037 -0.4451
 6786TIP3    H241994   2.228   4.814   1.282  0.9733 -1.6596  0.6509
 6787TIP3   OH241995   6.585   3.877   7.834  0.2143  0.2560  0.6880
 6787TIP3    H141996   6.602   3.910   7.746  0.2101  0.5696  0.8040
 6787TIP3    H241997   6.630   3.938   7.892  0.5914 -0.1992  0.8843
 6788TIP3   OH241998   5.177   6.758   8.617 -1.1225  0.7790 -0.3856
 6788TIP3    H141999   5.259   6.761   8.568 -1.3417 -0.5541 -0.8820
 6788TIP3    H242000   5.200   6.720   8.701 -1.3873 -0.5941 -0.9145
 6789TIP3   OH242001   4.982   0.021   1.660 -0.1415  0.2462  0.3035
 6789TIP3    H142002   5.032  -0.061   1.654 -0.0284  0.3336  0.0521
 6789TIP3    H242003   4.934   0.026   1.578 -1.7450 -0.5868  1.1360
 6790TIP3   OH242004   4.413   5.348   7.552  0.8223 -0.0472 -0.0997
 6790TIP3    H142005   4.502   5.342   7.517 -0.0218 -0.2972 -2.3832
 6790TIP3    H242006   4.392   5.441   7.547  1.1806  0.1036  1.0799
 6791TIP3   OH242007   6.754   0.463   0.700  0.0117 -0.3485 -0.0443
 6791TIP3    H142008   6.705   0.545   0.709  0.5415 -0.1713  1.6720
 6791TIP3    H242009   6.797   0.470   0.615 -1.2770  0.4007 -0.6641
 6792TIP3   OH242010   0.068   5.173   8.152 -0.0541 -0.5940 -0.4879
 6792TIP3    H142011  -0.008   5.183   8.095 -0.1727  0.6229 -0.1369
 6792TIP3    H242012   0.143   5.177   8.092 -0.1760  0.7438 -0.5950
 6793TIP3   OH242013   1.808   1.823   0.238 -0.2088 -0.6312  0.5378
 6793TIP3    H142014   1.727   1.772   0.233 -0.1148 -0.9160  1.7402
 6793TIP3    H242015   1.795   1.883   0.311 -0.9155  2.2000 -1.7027
 6794TIP3   OH242016   5.801   4.232   1.772  0.1649 -0.4580  0.3305
 6794TIP3    H142017   5.831   4.212   1.683 -0.1575 -1.0939  0.3599
 6794TIP3    H242018   5.823   4.153   1.822  0.3888 -0.0804  0.8258
 6795TIP3   OH242019   5.276   2.502   1.035 -0.3289 -0.1383  0.3134
 6795TIP3    H142020   5.257   2.506   1.129 -0.1047  1.8372  0.3224
 6795TIP3    H242021   5.198   2.461   0.997 -1.2256  0.7122  1.1718
 6796TIP3   OH242022   2.953   6.516   0.418 -0.1247  0.0842  0.3443
 6796TIP3    H142023   3.023   6.477   0.471  2.4842  0.0769 -2.8101
 6796TIP3    H242024   2.971   6.610   0.418  0.1891  0.0433 -0.8013
 6797TIP3   OH242025   0.338   0.604   2.312  0.0467 -0.0058 -0.3529
 6797TIP3    H142026   0.406   0.584   2.377 -0.2503 -0.7845 -0.2728
 6797TIP3    H242027   0.295   0.682   2.346  0.0811 -0.2427  0.2419
 6798TIP3   OH242028   2.952   1.742   8.263  0.4673  0.4596  0.5940
 6798TIP3    H142029   3.003   1.677   8.312  0.3052  0.4615  0.7657
 6798TIP3    H242030   2.974   1.825   8.304  0.7803  0.5334  0.2864
 6799TIP3   OH242031   1.007   4.739   1.385  0.0548 -0.1206  0.2835
 6799TIP3    H142032   1.060   4.664   1.411  0.3631 -0.4799 -1.2880
 6799TIP3    H242033   1.069   4.798   1.341 -0.4158  0.5049  0.4470
 6800TIP3   OH242034   1.220   4.783   0.288  0.2302  0.0332  0.2402
 6800TIP3    H142035   1.129   4.755   0.297 -0.2468  0.7199 -1.8943
 6800TIP3    H242036   1.267   4.702   0.268  0.1296 -0.3420  1.4584
 6801TIP3   OH242037   1.818   5.145   2.252  0.8684  0.2923  0.7977
 6801TIP3    H142038   1.757   5.071   2.246  0.3254  0.6686  1.5305
 6801TIP3    H242039   1.780   5.202   2.318  0.7629  1.7248 -0.4329
 6802TIP3   OH242040   6.850   2.380   0.361  0.1374  0.2284  0.3996
 6802TIP3    H142041   6.905   2.347   0.291 -0.8075 -0.6500  0.0562
 6802TIP3    H242042   6.761   2.357   0.335 -0.1844 -0.7018  2.1861
 6803TIP3   OH242043   0.005   5.612   7.024  0.7624 -0.1672  0.2423
 6803TIP3    H142044   0.080   5.593   7.081 -0.0897  1.0742  1.8746
 6803TIP3    H242045   0.002   5.539   6.962  2.3776 -1.0238  1.1132
 6804TIP3   OH242046   0.700   0.810   1.150  0.5765  0.5831 -0.2829
 6804TIP3    H142047   0.771   0.816   1.214  1.2558 -0.0349 -0.9558
 6804TIP3    H242048   0.718   0.729   1.102 -1.5335 -0.5106  0.6331
 6805TIP3   OH242049   0.245   2.974   7.513  0.4837  0.4184  0.7397
 6805TIP3    H142050   0.324   2.923   7.493 -0.9920 -2.2378  1.3410
 6805TIP3    H242051   0.220   3.014   7.430  1.5164 -0.0732  0.1777
 6806TIP3   OH242052   0.223   3.647   8.089 -0.4231  0.4127 -0.2235
 6806TIP3    H142053   0.173   3.570   8.115  0.3079 -0.2794 -0.8211
 6806TIP3    H242054   0.202   3.659   7.997  1.3647 -0.5902 -0.8039
 6807TIP3   OH242055   5.309   0.093   7.174 -0.3353 -0.0204 -0.0859
 6807TIP3    H142056   5.376   0.146   7.132  1.5115 -2.8122 -0.9231
 6807TIP3    H242057   5.349   0.064   7.256 -1.2121 -0.2788  0.2613
 6808TIP3   OH242058   1.787   1.354   1.918  0.7025  0.1746  0.5165
 6808TIP3    H142059   1.791   1.417   1.990  1.4162  1.8769 -0.9443
 6808TIP3    H242060   1.761   1.406   1.842  0.8315 -1.3994 -0.6528
 6809TIP3   OH242061   4.976   2.153   7.611 -0.3780  0.1905 -0.0678
 6809TIP3    H142062   4.950   2.112   7.529  0.7029  0.6730 -0.6775
 6809TIP3    H242063   4.919   2.229   7.620 -0.6606 -0.0015 -0.2427
 6810TIP3   OH242064   6.224   1.960   7.534  0.2546  0.5687 -0.1935
 6810TIP3    H142065   6.147   1.989   7.583  0.8003 -0.9661  1.7111
 6810TIP3    H242066   6.188   1.920   7.455 -0.7712  1.5219 -0.2349
 6811TIP3   OH242067   2.186   1.768   6.436 -0.7196 -0.7049 -0.0106
 6811TIP3    H142068   2.095   1.749   6.411 -0.3234 -0.2653 -1.9581
 6811TIP3    H242069   2.239   1.724   6.370  0.4179  0.5507  0.0159
 6812TIP3   OH242070   4.830   6.106   8.029  0.2263 -0.1376 -0.2746
 6812TIP3    H142071   4.915   6.064   8.038 -0.5046 -1.4879  0.7538
 6812TIP3    H242072   4.779   6.046   7.975  0.0023  0.8171 -1.1651
 6813TIP3   OH242073   2.908   1.020   1.520 -0.3583  0.3408  0.8555
 6813TIP3    H142074   3.000   0.998   1.504 -1.1778 -2.3478 -0.7950
 6813TIP3    H242075   2.860   0.969   1.456 -3.2078 -0.6138  3.5077
 6814TIP3   OH242076   0.510   0.222   0.341  0.2194 -0.8392 -0.1234
 6814TIP3    H142077   0.450   0.239   0.413 -0.3926 -1.3124 -0.5162
 6814TIP3    H242078   0.582   0.285   0.355  0.5179 -1.4570  1.3514
 6815TIP3   OH242079   4.819   3.572   0.542  0.1673 -0.6353  0.3755
 6815TIP3    H142080   4.873   3.605   0.470 -1.5651  0.8338 -0.3511
 6815TIP3    H242081   4.807   3.648   0.599  0.1902 -1.3696  1.3891
 6816TIP3   OH242082   4.076   2.904   1.327 -0.2841  0.3635  0.2150
 6816TIP3    H142083   4.155   2.930   1.374 -0.0515 -2.7212  1.7418
 6816TIP3    H242084   4.005   2.941   1.379  0.0605  1.6383 -0.1733
 6817TIP3   OH242085   6.805   3.987   1.801  0.2422 -0.4619  0.0542
 6817TIP3    H142086   6.799   3.971   1.895 -1.4958 -0.9315 -0.0921
 6817TIP3    H242087   6.776   3.905   1.761 -1.0633  0.4039 -0.8437
 6818TIP3   OH242088   6.400   5.350   7.408  0.5230 -0.1764 -0.0119
 6818TIP3    H142089   6.399   5.425   7.349  0.2058 -0.8018 -0.8293
 6818TIP3    H242090   6.386   5.275   7.351  0.3340 -0.8165  0.8547
 6819TIP3   OH242091   3.116   2.617   7.751  0.3389 -0.3679  0.5897
 6819TIP3    H142092   3.164   2.536   7.733  0.5013 -0.2181  0.3422
 6819TIP3    H242093   3.145   2.644   7.837  0.8218 -0.1880  0.3693
 6820TIP3   OH242094   2.518   3.605   6.927 -0.3952  0.5481 -0.1792
 6820TIP3    H142095   2.424   3.589   6.937  0.1629 -2.7026  1.2577
 6820TIP3    H242096   2.541   3.562   6.846  0.4007 -2.3988  1.4689
 6821TIP3   OH242097   4.312   5.700   8.168  0.1176  0.5279  0.9802
 6821TIP3    H142098   4.332   5.739   8.254 -1.0185 -1.7135  2.3646
 6821TIP3    H242099   4.232   5.649   8.183  0.1045 -0.2504 -1.3382
 6822TIP3   OH242100   1.527   1.047   0.372 -0.1834 -0.3318 -0.2241
 6822TIP3    H142101   1.485   1.055   0.457 -0.9367 -0.9177 -0.5237
 6822TIP3    H242102   1.478   0.977   0.328  0.8743 -0.7784 -0.7291
 6823TIP3   OH242103   2.855   3.459   6.922  0.0237 -0.3138 -0.5380
 6823TIP3    H142104   2.858   3.488   6.831  1.8743 -0.5302 -0.5983
 6823TIP3    H242105   2.905   3.525   6.970  0.8896 -1.2806 -0.0496
 6824TIP3   OH242106   3.543   2.155   7.754 -0.2610 -0.1188  0.6339
 6824TIP3    H142107   3.580   2.240   7.731 -3.0965  0.9518 -0.4676
 6824TIP3    H242108   3.598   2.091   7.709  0.9699  1.2463  0.1345
 6825TIP3   OH242109   0.728   4.309   0.649 -0.0213 -0.0313 -0.2672
 6825TIP3    H142110   0.657   4.251   0.622  0.9868 -0.6672 -1.6926
 6825TIP3    H242111   0.754   4.277   0.735 -0.9409 -0.2912 -0.0822
 6826TIP3   OH242112   1.039   6.633   1.834 -0.2978 -0.2224  0.5085
 6826TIP3    H142113   0.954   6.671   1.814 -0.2042  1.0708  2.3159
 6826TIP3    H242114   1.088   6.703   1.878  1.8756 -0.7847 -0.8285
 6827TIP3   OH242115   0.942   6.384   7.591 -0.6102 -0.0187  0.1196
 6827TIP3    H142116   0.928   6.353   7.501 -0.7852 -0.9066  0.4492
 6827TIP3    H242117   1.031   6.357   7.612 -1.5498 -2.4755  1.2505
 6828TIP3   OH242118   1.414   1.484   8.458 -0.5499  0.2532  0.4994
 6828TIP3    H142119   1.436   1.537   8.383  0.9032 -1.4706 -0.3833
 6828TIP3    H242120   1.466   1.521   8.530 -0.5761  0.8201  0.2306
 6829TIP3   OH242121   4.729   1.210   7.165 -0.0663 -1.1029 -0.1200
 6829TIP3    H142122   4.774   1.192   7.083 -0.1119  0.5206 -0.5383
 6829TIP3    H242123   4.762   1.295   7.192 -0.0700 -1.5988  1.5542
 6830TIP3   OH242124   4.661   1.138   7.632 -0.0114 -0.1129 -0.0564
 6830TIP3    H142125   4.600   1.074   7.667  1.1352 -0.8156  0.7293
 6830TIP3    H242126   4.729   1.086   7.589  0.5377  0.5981 -0.0782
 6831TIP3   OH242127   1.721   3.196   6.486 -0.1537  0.3173 -0.6491
 6831TIP3    H142128   1.810   3.231   6.480 -0.4210  0.8644 -1.6726
 6831TIP3    H242129   1.714   3.135   6.413 -0.4557 -0.1280 -0.2547
 6832TIP3   OH242130   6.594   0.727   0.408  0.6014 -0.3853 -0.5181
 6832TIP3    H142131   6.581   0.636   0.433 -0.5879 -0.3401 -0.9311
 6832TIP3    H242132   6.594   0.726   0.313  0.8140  0.0266 -0.5256
 6833TIP3   OH242133   3.008   6.432   1.316  0.3756 -0.2164  0.5289
 6833TIP3    H142134   3.034   6.501   1.255 -1.0285 -1.1749 -1.2554
 6833TIP3    H242135   2.913   6.442   1.325  0.3721 -0.9425  1.4845
 6834TIP3   OH242136   3.163   3.411   1.158  0.0622  0.0676  0.5199
 6834TIP3    H142137   3.139   3.451   1.241  2.1171  0.5498  0.9212
 6834TIP3    H242138   3.145   3.479   1.092 -1.0938 -0.1422  0.5967
 6835TIP3   OH242139   5.553   5.455   7.087 -0.0354  0.2560  0.2786
 6835TIP3    H142140   5.549   5.540   7.043 -0.2212 -0.6669 -1.5711
 6835TIP3    H242141   5.636   5.417   7.058 -0.2226 -0.4405  0.6274
 6836TIP3   OH242142   4.288   1.684   6.695  0.9977  0.2993  0.1766
 6836TIP3    H142143   4.376   1.664   6.663  0.8963  1.0108 -0.5814
 6836TIP3    H242144   4.281   1.779   6.690  1.0077  0.4733  2.4984
 6837TIP3   OH242145   5.268   4.477   8.024  0.7436  0.8353  0.4687
 6837TIP3    H142146   5.279   4.556   7.972  1.2904  0.3413 -0.1899
 6837TIP3    H242147   5.176   4.452   8.011  1.1361  0.1055 -1.1991
 6838TIP3   OH242148   5.892   6.218   6.487  0.7149  0.6329 -0.3123
 6838TIP3    H142149   5.828   6.166   6.535  0.8409  0.3594 -0.4376
 6838TIP3    H242150   5.951   6.153   6.449  0.5053  0.8265 -0.9902
 6839TIP3   OH242151   2.671   1.726   8.346  0.2694 -0.1961  0.0453
 6839TIP3    H142152   2.696   1.777   8.423  0.4674  0.2784 -0.3271
 6839TIP3    H242153   2.754   1.702   8.305  0.1836  1.5914 -1.3301
 6840TIP3   OH242154   0.204   6.360   2.429  0.1449 -0.3543 -0.2390
 6840TIP3    H142155   0.215   6.402   2.344  0.0101 -0.2007 -0.1810
 6840TIP3    H242156   0.293   6.332   2.453  0.4050  0.7821  0.1763
 6841TIP3   OH242157   5.709   6.705   0.975  0.0691 -0.1311  0.4448
 6841TIP3    H142158   5.634   6.646   0.966 -0.6250  0.7594  0.3838
 6841TIP3    H242159   5.682   6.786   0.933 -0.2973  1.4337  3.4509
 6842TIP3   OH242160   6.047   5.370   8.571  0.3046 -0.3969 -0.5160
 6842TIP3    H142161   6.065   5.464   8.582  1.9984 -0.9381  2.0898
 6842TIP3    H242162   6.104   5.343   8.499 -0.1577  0.5034 -1.2530
 6843TIP3   OH242163   3.666   4.641   8.335  0.0431 -0.2615 -0.3453
 6843TIP3    H142164   3.601   4.641   8.265  1.2494  1.2877 -1.5500
 6843TIP3    H242165   3.713   4.558   8.326 -1.5834 -1.3081  0.4218
 6844TIP3   OH242166   4.265   3.311   1.401 -0.2025  0.4238 -0.2819
 6844TIP3    H142167   4.243   3.310   1.308 -2.1614 -1.6320  0.1121
 6844TIP3    H242168   4.335   3.376   1.409  0.8490 -0.1889 -3.3452
 6845TIP3   OH242169   0.352   2.063   1.052 -0.1483  0.0208 -0.4227
 6845TIP3    H142170   0.274   2.039   1.002 -0.8923 -0.7207  1.0470
 6845TIP3    H242171   0.398   1.980   1.065  1.9656  0.6658 -2.9239
 6846TIP3   OH242172   1.562   5.438   8.589 -0.3733  0.6893  0.0774
 6846TIP3    H142173   1.548   5.460   8.497 -0.6592 -0.5746 -0.2050
 6846TIP3    H242174   1.500   5.366   8.606  0.4893  0.1258  0.9274
 6847TIP3   OH242175   2.453   1.397   7.527 -0.3785 -0.6559  0.3204
 6847TIP3    H142176   2.530   1.437   7.486  0.5155 -2.1758  0.4123
 6847TIP3    H242177   2.384   1.463   7.519  1.4471  1.6467  2.1827
 6848TIP3   OH242178   0.345   3.048   6.130 -0.4208 -0.0507 -0.2547
 6848TIP3    H142179   0.254   3.052   6.101 -0.7865  2.4369  0.9292
 6848TIP3    H242180   0.384   2.978   6.078 -2.3622  0.4988 -2.6454
 6849TIP3   OH242181   5.846   4.969   0.390  0.2196 -0.3426  0.0033
 6849TIP3    H142182   5.917   4.909   0.370  0.2782  0.0846 -1.1723
 6849TIP3    H242183   5.826   5.011   0.307 -0.5082  0.5212  0.5888
 6850TIP3   OH242184   5.495   3.134   7.580 -0.7488  0.3758  0.2265
 6850TIP3    H142185   5.432   3.139   7.652 -1.8634  1.0571 -0.7644
 6850TIP3    H242186   5.539   3.050   7.593 -2.6738 -0.6728  0.3076
 6851TIP3   OH242187   5.259   4.299   7.647 -0.1350 -0.3283 -0.1536
 6851TIP3    H142188   5.340   4.347   7.665 -0.4827  0.6756 -1.1173
 6851TIP3    H242189   5.280   4.208   7.666  1.8052 -0.3696 -2.0412
 6852TIP3   OH242190   5.306   1.118   0.384  0.0695 -0.3571 -0.6211
 6852TIP3    H142191   5.398   1.145   0.378  0.3185 -1.0168  0.0729
 6852TIP3    H242192   5.260   1.178   0.325  0.6118  1.5077  0.7639
 6853TIP3   OH242193   6.270   3.422   1.292  0.0282  0.1025  0.5717
 6853TIP3    H142194   6.312   3.360   1.351 -2.0331 -0.6501  1.3297
 6853TIP3    H242195   6.177   3.415   1.312 -0.4456  2.0195 -0.7167
 6854TIP3   OH242196   0.881   0.940   1.399  0.4174  0.2902 -0.2823
 6854TIP3    H142197   0.973   0.917   1.386 -0.1876 -1.5537 -1.7064
 6854TIP3    H242198   0.866   0.926   1.492  1.2839 -0.6767 -0.2630
 6855TIP3   OH242199   3.512   4.859   1.228  0.0954 -0.4949 -0.1437
 6855TIP3    H142200   3.442   4.864   1.163 -1.0177  0.5140  1.0703
 6855TIP3    H242201   3.583   4.911   1.190 -0.1134 -0.8280 -1.0188
 6856TIP3   OH242202   1.604   6.911   1.414 -0.0909 -0.0472  0.4688
 6856TIP3    H142203   1.667   6.860   1.363 -0.0267  0.9277 -0.4711
 6856TIP3    H242204   1.519   6.885   1.382 -0.0150  1.9449 -1.6155
 6857TIP3   OH242205   2.314   5.194   1.643  0.4388  0.4349  0.1242
 6857TIP3    H142206   2.299   5.115   1.694  0.8122  0.2720 -0.0207
 6857TIP3    H242207   2.289   5.266   1.702  1.4972  0.2832  0.7745
 6858TIP3   OH242208   0.287   5.010   7.945  0.5057  0.1155  0.0408
 6858TIP3    H142209   0.299   5.104   7.931 -0.6141  0.5818  1.8451
 6858TIP3    H242210   0.354   4.968   7.889  1.0130  1.9571 -0.8013
 6859TIP3   OH242211   0.347   3.758   0.255 -0.1020  0.5502  0.1585
 6859TIP3    H142212   0.396   3.758   0.337 -1.0977  0.7332  0.7761
 6859TIP3    H242213   0.288   3.833   0.262 -1.5447 -0.5175  0.1393
 6860TIP3   OH242214   6.564   4.400   8.062  0.1273  1.0033  0.1456
 6860TIP3    H142215   6.556   4.496   8.062  1.3633  1.1382  1.1066
 6860TIP3    H242216   6.606   4.379   7.980  1.8953  1.5247  0.8782
 6861TIP3   OH242217   1.173   6.252   7.105  0.4123 -0.0071  0.6649
 6861TIP3    H142218   1.194   6.272   7.197 -0.5653 -0.8561  1.0900
 6861TIP3    H242219   1.165   6.338   7.064 -1.3918  0.4793  1.9180
 6862TIP3   OH242220   3.870   1.062   1.353 -0.2245  0.4529  0.0325
 6862TIP3    H142221   3.786   1.097   1.383 -0.3498  0.5495 -0.4306
 6862TIP3    H242222   3.863   1.059   1.258  0.7013  1.5181 -0.0986
 6863TIP3   OH242223   0.514   2.571   7.253 -0.6741  0.1154 -0.1775
 6863TIP3    H142224   0.457   2.634   7.297 -0.5516  0.1629 -0.0864
 6863TIP3    H242225   0.467   2.487   7.260  0.3500 -0.3374  2.0230
 6864TIP3   OH242226   0.913   1.412   8.570 -0.2567 -0.5319  0.1404
 6864TIP3    H142227   1.007   1.400   8.582 -0.5077 -1.0623  2.0344
 6864TIP3    H242228   0.904   1.503   8.542  0.8186 -0.5113 -0.1833
 6865TIP3   OH242229   0.074   0.000   0.241 -0.1485 -0.0042 -0.7091
 6865TIP3    H142230   0.051   0.091   0.262  1.3339  0.2279  0.0415
 6865TIP3    H242231   0.060  -0.007   0.147 -2.0054  0.4485 -0.5184
 6866TIP3   OH242232   5.198   3.829   6.702  0.3489 -0.4053 -0.5797
 6866TIP3    H142233   5.266   3.895   6.691  1.4676 -1.6132 -1.2519
 6866TIP3    H242234   5.245   3.747   6.715 -0.9399 -1.4300 -1.9207
 6867TIP3   OH242235   6.240   3.507   0.650  0.0687  0.5759 -0.7320
 6867TIP3    H142236   6.198   3.589   0.676  3.1737  1.3322  2.7710
 6867TIP3    H242237   6.194   3.439   0.699 -0.3681  0.6615 -1.0190
 6868TIP3   OH242238   4.639   6.535   7.758 -0.2938  0.7853 -0.5101
 6868TIP3    H142239   4.697   6.551   7.684 -1.5066  2.1233 -1.2193
 6868TIP3    H242240   4.666   6.599   7.824 -0.1790  0.5997 -0.3775
 6869TIP3   OH242241   0.266   6.019   2.216  0.2562 -0.0837  0.1603
 6869TIP3    H142242   0.351   5.978   2.231  0.3391 -0.4968 -1.2762
 6869TIP3    H242243   0.214   5.951   2.173 -0.2446  0.6737 -0.4692
 6870TIP3   OH242244   4.291   4.874   1.104  0.2673  0.5332  0.6744
 6870TIP3    H142245   4.334   4.808   1.158  1.2863 -0.1596 -0.9306
 6870TIP3    H242246   4.236   4.824   1.044 -0.6434  1.2805  0.8614
 6871TIP3   OH242247   3.949   3.590   7.079 -0.1499  0.5336  0.0307
 6871TIP3    H142248   3.927   3.617   6.990  1.8480  1.2313 -0.3190
 6871TIP3    H242249   4.044   3.605   7.086  0.1484 -1.5345  1.5767
 6872TIP3   OH242250   3.257   1.368   2.612  0.4531  0.0187 -0.0913
 6872TIP3    H142251   3.225   1.444   2.660 -1.1786  0.6602 -2.1025
 6872TIP3    H242252   3.309   1.404   2.540  0.5046 -0.8130 -0.4851
 6873TIP3   OH242253   4.642   0.546   7.351  0.1734 -0.4282 -0.3990
 6873TIP3    H142254   4.663   0.551   7.258  0.0605  0.2145 -0.3910
 6873TIP3    H242255   4.646   0.452   7.371 -1.7361 -0.8066 -1.5143
 6874TIP3   OH242256   1.082   2.050   0.437 -0.1450  0.0793 -0.1243
 6874TIP3    H142257   1.000   2.088   0.406 -0.5949 -0.4194  0.4142
 6874TIP3    H242258   1.059   2.013   0.523  0.6639  0.0015  0.0606
 6875TIP3   OH242259   1.945   6.077   7.040  0.0210 -0.3338  0.1855
 6875TIP3    H142260   2.020   6.058   6.984  1.1266 -0.7139  1.7237
 6875TIP3    H242261   1.877   6.016   7.011  0.6845 -0.7805 -0.4766
 6876TIP3   OH242262   3.860   1.101   8.040 -0.0292  0.0493 -0.0013
 6876TIP3    H142263   3.828   1.130   7.955 -0.4546 -1.8257 -0.5093
 6876TIP3    H242264   3.938   1.156   8.056  0.2918  0.1561 -1.7764
 6877TIP3   OH242265   1.604   2.744   8.287 -0.4295  0.2787  0.9980
 6877TIP3    H142266   1.682   2.689   8.300 -0.6872 -0.8279 -1.5580
 6877TIP3    H242267   1.544   2.689   8.237 -2.7149  1.2851  2.4378
 6878TIP3   OH242268   5.457   5.049   0.731  0.4942 -0.0954  0.3560
 6878TIP3    H142269   5.443   4.956   0.713  0.8236 -0.0358 -0.2523
 6878TIP3    H242270   5.542   5.068   0.691 -0.4018  0.8965 -1.1798
 6879TIP3   OH242271   4.870   1.498   1.261 -0.4532  0.0272  0.3540
 6879TIP3    H142272   4.864   1.431   1.193 -0.5097 -0.0101  0.3962
 6879TIP3    H242273   4.837   1.578   1.219 -0.4677  0.0090  0.3307
 6880TIP3   OH242274   6.649   3.156   0.710 -0.1360 -0.9988  0.1629
 6880TIP3    H142275   6.589   3.108   0.767  1.0512 -1.8628  0.7230
 6880TIP3    H242276   6.678   3.230   0.764  0.9384 -1.7814  0.7192
 6881TIP3   OH242277   5.396   3.077   8.525  0.5936 -0.1356 -0.1898
 6881TIP3    H142278   5.436   3.034   8.601 -2.0611  0.2050  1.5343
 6881TIP3    H242279   5.352   3.006   8.478 -1.3032  0.1572  1.0220
 6882TIP3   OH242280   3.073   3.750   0.853  0.1061 -0.3864  0.8540
 6882TIP3    H142281   2.984   3.722   0.833  0.1153 -0.6767  1.2147
 6882TIP3    H242282   3.086   3.725   0.944  0.8657 -1.1174  0.5503
 6883TIP3   OH242283   6.745   2.823   2.514 -0.3353 -0.3193  0.6673
 6883TIP3    H142284   6.809   2.762   2.478  0.8759  1.4347 -0.3313
 6883TIP3    H242285   6.780   2.846   2.600  0.1837  0.2936  0.3064
 6884TIP3   OH242286   0.433   5.956   2.502 -0.2261  0.4679  0.0003
 6884TIP3    H142287   0.357   5.947   2.560  0.1396  0.8622  0.5591
 6884TIP3    H242288   0.467   6.044   2.522  0.3629  0.3014 -0.2568
 6885TIP3   OH242289   0.068   4.167   7.133  0.5062  0.1510 -0.0792
 6885TIP3    H142290   0.067   4.138   7.042 -0.6680  2.0345 -0.7250
 6885TIP3    H242291   0.161   4.172   7.156  0.8029 -0.7629 -0.9979
 6886TIP3   OH242292   3.227   0.984   1.450 -0.3401 -0.1190 -0.0487
 6886TIP3    H142293   3.205   0.912   1.509 -1.3812 -1.5667 -2.0782
 6886TIP3    H242294   3.321   0.976   1.435 -0.3274 -0.6068  0.2842
 6887TIP3   OH242295   1.130   4.629   2.758 -0.6608 -0.5120 -0.0228
 6887TIP3    H142296   1.092   4.667   2.679  0.9755 -1.0350 -1.1145
 6887TIP3    H242297   1.185   4.557   2.726  1.5174  0.4104  1.3774
 6888TIP3   OH242298   3.821   5.451   7.228 -0.1618 -0.0416  0.1746
 6888TIP3    H142299   3.744   5.508   7.232  0.3059  0.6334 -0.2159
 6888TIP3    H242300   3.806   5.386   7.297 -1.3018 -0.2150 -0.2138
 6889TIP3   OH242301   6.355   4.606   8.513  0.3461  0.5025 -0.3120
 6889TIP3    H142302   6.383   4.605   8.605  0.3754 -0.3905 -0.3215
 6889TIP3    H242303   6.422   4.657   8.468 -0.0180  1.5164  0.2615
 6890TIP3   OH242304   5.161   6.135   8.235 -0.2310  0.1698  0.3922
 6890TIP3    H142305   5.183   6.137   8.328 -1.7405 -0.8124  0.8044
 6890TIP3    H242306   5.096   6.205   8.225 -1.2336 -0.7300  0.4284
 6891TIP3   OH242307   5.781   4.699   8.226 -0.3250  0.6958 -0.1249
 6891TIP3    H142308   5.808   4.658   8.144  1.0247  1.0245  0.1268
 6891TIP3    H242309   5.722   4.635   8.267  0.9486 -0.5779 -0.2025
 6892TIP3   OH242310   5.128   1.130   0.920  0.1523  0.2495 -0.4285
 6892TIP3    H142311   5.081   1.046   0.916 -1.2182  0.9203  0.4726
 6892TIP3    H242312   5.177   1.134   0.839 -0.3407 -1.1035 -0.8252
 6893TIP3   OH242313   1.896   0.110   1.428 -0.1566 -0.4108  0.2268
 6893TIP3    H142314   1.808   0.074   1.441  0.2021 -1.1472  0.6695
 6893TIP3    H242315   1.902   0.127   1.334 -1.1529  0.6649  0.3321
 6894TIP3   OH242316   0.849   3.912   8.253  0.4086 -0.5400 -0.0215
 6894TIP3    H142317   0.897   3.842   8.210  3.7972  2.2452 -1.2216
 6894TIP3    H242318   0.821   3.970   8.182 -0.4283  0.4169  1.0470
 6895TIP3   OH242319   3.409   0.295   1.731  0.4173  0.2231  0.4343
 6895TIP3    H142320   3.481   0.314   1.791  0.5842  0.9049  0.0255
 6895TIP3    H242321   3.446   0.233   1.668  0.0757 -0.9571  1.3537
 6896TIP3   OH242322   6.111   0.657   0.284  0.2552  0.3471 -0.0666
 6896TIP3    H142323   6.173   0.663   0.212  1.2251 -1.5226  0.5492
 6896TIP3    H242324   6.056   0.736   0.275 -0.6996 -0.5205 -3.7699
 6897TIP3   OH242325   3.076   0.089   6.974  0.6588  0.5547 -0.2347
 6897TIP3    H142326   3.109   0.037   6.901  1.1468  1.4136 -0.6350
 6897TIP3    H242327   3.082   0.179   6.945 -0.1478  0.8530  0.4723
 6898TIP3   OH242328   4.105   0.014   0.987 -0.1443  0.3085  0.1678
 6898TIP3    H142329   4.014   0.005   1.016  0.4005 -2.2403  1.3831
 6898TIP3    H242330   4.099   0.021   0.892 -1.6210  0.6340  0.2574
 6899TIP3   OH242331   1.519   5.433   7.473  0.2614 -0.1898 -0.0885
 6899TIP3    H142332   1.440   5.464   7.429  0.6281  0.4236 -0.3180
 6899TIP3    H242333   1.576   5.509   7.477  0.5347 -0.4291  0.7841
 6900TIP3   OH242334   5.549   3.466   1.495 -0.0823 -0.2947  0.3832
 6900TIP3    H142335   5.523   3.464   1.403 -1.0352  1.1589  0.5889
 6900TIP3    H242336   5.467   3.464   1.543  0.3452  0.2771  1.1668
 6901TIP3   OH242337   3.767   3.151   1.815 -0.2148  0.5769  0.4605
 6901TIP3    H142338   3.850   3.143   1.861  0.4719  2.4102 -0.3693
 6901TIP3    H242339   3.706   3.183   1.881 -0.8418 -2.5899  1.5767
 6902TIP3   OH242340   5.864   5.501   7.316 -0.1350  0.4642  0.0946
 6902TIP3    H142341   5.783   5.453   7.334 -1.1983  1.7438 -1.0861
 6902TIP3    H242342   5.869   5.566   7.386 -0.7839  1.1589 -0.4875
 6903TIP3   OH242343   2.487   0.734   6.591 -0.1140 -0.0281 -0.2577
 6903TIP3    H142344   2.402   0.694   6.572  0.5982 -1.5211 -0.4070
 6903TIP3    H242345   2.550   0.662   6.585  1.4169  1.3414 -1.9143
 6904TIP3   OH242346   5.541   1.173   8.348  0.4522  0.3028  0.1558
 6904TIP3    H142347   5.637   1.168   8.341  0.5437  0.7660  0.9047
 6904TIP3    H242348   5.526   1.196   8.440 -0.3784  0.2597  0.0305
 6905TIP3   OH242349   6.608   5.895   7.092 -0.0491 -0.1592  0.2847
 6905TIP3    H142350   6.698   5.887   7.060 -0.6235 -0.2301 -1.4244
 6905TIP3    H242351   6.554   5.876   7.016 -1.5273 -0.3411  1.3374
 6906TIP3   OH242352   4.936   3.076   7.853  0.0369  0.2269  0.1702
 6906TIP3    H142353   4.999   3.024   7.903 -0.7378 -0.8191  0.0687
 6906TIP3    H242354   4.982   3.098   7.773 -0.1846 -1.7576 -0.5465
 6907TIP3   OH242355   1.284   6.752   2.469 -0.1847 -0.2549  0.2354
 6907TIP3    H142356   1.344   6.695   2.422  1.1491 -0.0588  1.6134
 6907TIP3    H242357   1.341   6.816   2.513 -1.3892 -0.0264  1.5549
 6908TIP3   OH242358   6.232   3.469   0.376 -0.0570 -0.1724  0.0821
 6908TIP3    H142359   6.219   3.486   0.469 -1.3842  0.2609 -0.1569
 6908TIP3    H242360   6.306   3.409   0.372 -0.1478 -0.3953  1.4241
 6909TIP3   OH242361   0.286   2.801   7.246  0.3795  0.6878 -0.0741
 6909TIP3    H142362   0.294   2.767   7.157  0.3238 -2.0278  0.8687
 6909TIP3    H242363   0.363   2.857   7.258  1.8136 -1.0069 -0.9847
 6910TIP3   OH242364   6.626   4.360   7.799 -0.5961 -0.2065 -0.4390
 6910TIP3    H142365   6.602   4.431   7.739 -1.5797  0.3786  0.6212
 6910TIP3    H242366   6.709   4.327   7.764 -1.4437 -0.3327 -2.5128
 6911TIP3   OH242367   1.374   3.409   1.117 -0.2061  0.2271  0.1708
 6911TIP3    H142368   1.349   3.361   1.038  1.7462 -0.1009 -0.3009
 6911TIP3    H242369   1.404   3.342   1.178 -0.2990  0.6058  0.6439
 6912TIP3   OH242370   2.600   6.461   6.562  0.2564  0.3457  0.1523
 6912TIP3    H142371   2.687   6.427   6.585  0.5058 -1.1404 -2.6000
 6912TIP3    H242372   2.540   6.392   6.590 -0.2263  1.6635  2.6839
 6913TIP3   OH242373   5.494   1.190   7.709 -0.2704 -0.5939 -0.0262
 6913TIP3    H142374   5.411   1.171   7.751 -0.2083  1.9588  1.4125
 6913TIP3    H242375   5.560   1.166   7.774 -0.1003  1.4833  0.6233
 6914TIP3   OH242376   6.315   2.408   6.326 -0.1507 -0.4219  0.6277
 6914TIP3    H142377   6.302   2.483   6.383  1.6923  0.4676 -0.0548
 6914TIP3    H242378   6.302   2.442   6.237 -1.5722 -1.4634  0.3880
 6915TIP3   OH242379   3.650   5.277   7.398  0.2866  0.3564  0.2371
 6915TIP3    H142380   3.611   5.353   7.442 -0.6682 -0.7017  1.2888
 6915TIP3    H242381   3.578   5.215   7.387  0.7943  0.0485 -1.6928
 6916TIP3   OH242382   0.821   5.873   1.063  0.2018 -0.1185  0.7319
 6916TIP3    H142383   0.866   5.794   1.031 -0.3190 -0.7033  1.4050
 6916TIP3    H242384   0.853   5.943   1.007 -0.4248 -1.0437 -0.8547
 6917TIP3   OH242385   6.533   5.978   1.110 -0.3336 -0.2174  0.0573
 6917TIP3    H142386   6.625   5.961   1.131 -0.7017  0.7843  2.9023
 6917TIP3    H242387   6.520   6.070   1.134 -2.1108 -0.3681 -0.1825
 6918TIP3   OH242388   1.932   6.322   7.418 -0.4412  0.4922 -0.1089
 6918TIP3    H142389   1.989   6.344   7.345 -0.5807  1.1729 -0.0221
 6918TIP3    H242390   1.992   6.292   7.487 -0.3069 -0.1096 -0.4800
 6919TIP3   OH242391   1.666   5.327   8.072  0.5734 -0.5787 -0.0319
 6919TIP3    H142392   1.742   5.332   8.129 -1.4144  1.8284  2.7057
 6919TIP3    H242393   1.692   5.374   7.993  2.1958 -0.6748  0.4040
 6920TIP3   OH242394   5.430   1.357   8.586 -0.8209 -0.4991 -0.1343
 6920TIP3    H142395   5.459   1.272   8.620 -0.4704  0.1241  1.2017
 6920TIP3    H242396   5.335   1.353   8.589 -0.8556  0.0415  2.4587
 6921TIP3   OH242397   3.286   5.141   7.363 -0.0680  0.3377  0.0109
 6921TIP3    H142398   3.320   5.230   7.361  1.3627 -0.0723  2.0590
 6921TIP3    H242399   3.364   5.086   7.365 -0.9301 -1.0038 -1.5253
 6922TIP3   OH242400   3.340   3.891   8.336 -0.7672  0.3826 -0.1318
 6922TIP3    H142401   3.429   3.865   8.313 -1.3564  0.3568 -2.6554
 6922TIP3    H242402   3.334   3.982   8.309 -1.0437  0.9276  1.6094
 6923TIP3   OH242403   4.100   5.514   6.865  0.3746 -0.2379  0.3747
 6923TIP3    H142404   4.106   5.555   6.951 -1.5578  0.4669  0.2080
 6923TIP3    H242405   4.158   5.438   6.871  0.6235  0.0495  2.1311
 6924TIP3   OH242406   5.469   3.485   7.817 -0.4068 -0.3630  0.2693
 6924TIP3    H142407   5.523   3.562   7.796 -0.0582 -0.3265  1.2543
 6924TIP3    H242408   5.532   3.415   7.832 -0.7244 -0.8268 -0.5300
 6925TIP3   OH242409   5.391   4.367   6.821 -0.1378  0.4969 -0.1445
 6925TIP3    H142410   5.453   4.294   6.824 -0.5861  0.0175 -1.6198
 6925TIP3    H242411   5.305   4.326   6.828 -0.4463  0.7362 -1.9697
 6926TIP3   OH242412   5.066   3.272   7.692  0.1692  0.1685  0.2164
 6926TIP3    H142413   5.149   3.300   7.654  0.0620 -0.0382 -0.1741
 6926TIP3    H242414   5.000   3.289   7.624 -0.3289  1.6042  1.0186
 6927TIP3   OH242415   0.230   3.441   7.657  0.2699 -0.0065  0.5084
 6927TIP3    H142416   0.139   3.425   7.634  0.3313  0.9875 -0.5753
 6927TIP3    H242417   0.278   3.368   7.619  0.2089  0.9215 -1.4929
 6928TIP3   OH242418   6.677   0.379   7.731  0.0354  0.2696  0.6618
 6928TIP3    H142419   6.706   0.448   7.672  0.9852 -0.3631  0.3615
 6928TIP3    H242420   6.637   0.313   7.673 -1.6200  0.9150  1.0241
 6929TIP3   OH242421   0.104   1.779   6.810 -0.3455 -0.1886 -0.4552
 6929TIP3    H142422   0.052   1.704   6.780 -0.8790 -0.3824  0.8782
 6929TIP3    H242423   0.155   1.745   6.884 -0.4519  0.7169  0.0507
 6930TIP3   OH242424   0.023   0.211   8.231 -0.4053  0.4498 -0.5461
 6930TIP3    H142425   0.062   0.296   8.250 -0.5117 -0.0970  2.5346
 6930TIP3    H242426   0.035   0.160   8.311 -2.8946 -1.4716 -1.2679
 6931TIP3   OH242427   6.108   0.317   1.573  0.2135 -0.0207  0.2882
 6931TIP3    H142428   6.019   0.340   1.546  0.1679 -0.2823  0.2115
 6931TIP3    H242429   6.164   0.375   1.522  0.2581 -1.9336 -2.0411
 6932TIP3   OH242430   3.285   6.446   1.087  0.4215 -0.3264  0.1789
 6932TIP3    H142431   3.291   6.435   1.182  0.8660  0.5311  0.2643
 6932TIP3    H242432   3.205   6.498   1.074  1.9694  2.2931  0.3777
 6933TIP3   OH242433   5.253   2.159   7.582 -0.5318 -0.3282  0.3716
 6933TIP3    H142434   5.164   2.192   7.598  0.2412  1.5103  1.1941
 6933TIP3    H242435   5.281   2.126   7.667  0.3597  1.2132  0.7155
 6934TIP3   OH242436   0.115   1.233   2.385  0.0135  0.6609  0.2505
 6934TIP3    H142437   0.097   1.323   2.357 -0.0603  0.4363 -0.4422
 6934TIP3    H242438   0.197   1.210   2.341 -0.7737 -0.1497 -0.8600
 6935TIP3   OH242439   4.286   3.987   1.317  0.4005  0.0740 -0.3826
 6935TIP3    H142440   4.345   3.979   1.392  0.3732  0.4779 -0.3162
 6935TIP3    H242441   4.335   4.041   1.255 -0.3418  1.3732  0.1252
 6936TIP3   OH242442   2.460   4.636   0.739  0.1581 -0.1619 -0.2008
 6936TIP3    H142443   2.489   4.699   0.805 -0.5220  0.0994 -0.1379
 6936TIP3    H242444   2.431   4.691   0.666 -0.8747 -0.3801  0.0347
 6937TIP3   OH242445   0.658   0.778   0.644 -0.3370  0.4708 -0.0679
 6937TIP3    H142446   0.637   0.853   0.701  0.3802 -0.5292  1.5999
 6937TIP3    H242447   0.727   0.732   0.691  0.0200 -0.6249 -1.6195
 6938TIP3   OH242448   2.819   1.323   6.750  0.0675 -0.0697  0.1839
 6938TIP3    H142449   2.877   1.288   6.684 -2.8887 -0.5879 -2.3714
 6938TIP3    H242450   2.801   1.249   6.808  0.1409 -0.5403 -0.3880
 6939TIP3   OH242451   4.300   6.008   6.715 -0.6590  0.4851 -0.5662
 6939TIP3    H142452   4.210   5.991   6.689 -1.9523  3.0224  1.6876
 6939TIP3    H242453   4.328   6.081   6.660 -0.7982  1.1027  0.1586
 6940TIP3   OH242454   1.775   0.804   7.839 -0.4156 -0.4152 -0.2792
 6940TIP3    H142455   1.865   0.833   7.819 -0.1789 -1.7186 -1.2310
 6940TIP3    H242456   1.727   0.885   7.853  1.0496  0.3032  0.9292
 6941TIP3   OH242457   4.585   6.389   1.628  0.0006 -0.0605  0.2756
 6941TIP3    H142458   4.651   6.425   1.687 -1.4859  1.6909  0.9726
 6941TIP3    H242459   4.633   6.329   1.571  1.8861 -0.0369  1.7542
 6942TIP3   OH242460   5.524   6.873   7.358  0.3831  0.0528 -0.2002
 6942TIP3    H142461   5.561   6.843   7.275 -1.3678 -1.9379 -0.3346
 6942TIP3    H242462   5.543   6.803   7.420  0.0554  0.6778  0.6287
 6943TIP3   OH242463   0.893   3.155   8.016 -0.1410 -0.4725 -0.6011
 6943TIP3    H142464   0.865   3.064   8.009 -1.8446  0.0552 -1.1044
 6943TIP3    H242465   0.988   3.152   8.006 -0.1544 -2.2077 -0.4238
 6944TIP3   OH242466   2.637   4.981   0.081 -0.0366  0.2386  0.2427
 6944TIP3    H142467   2.557   4.932   0.098 -1.0980  1.8711  0.0996
 6944TIP3    H242468   2.687   4.924   0.022 -1.0974 -0.7772  0.2770
 6945TIP3   OH242469   4.718   2.902   8.094 -0.2204 -0.2374  0.0356
 6945TIP3    H142470   4.669   2.926   8.016  0.5604 -0.0149 -0.3990
 6945TIP3    H242471   4.744   2.986   8.132  0.8566 -0.3534 -0.4147
 6946TIP3   OH242472   1.651   4.277   1.966 -0.6580  0.1308 -0.2343
 6946TIP3    H142473   1.691   4.333   2.032  1.6286 -1.8640  0.2200
 6946TIP3    H242474   1.593   4.219   2.015 -1.0895  0.4323 -0.3777
 6947TIP3   OH242475   6.643   1.887   6.677  0.4474  0.1795  0.2232
 6947TIP3    H142476   6.553   1.867   6.652  0.9119  0.7633 -2.2732
 6947TIP3    H242477   6.636   1.941   6.755 -1.3066 -0.5307  0.5984
 6948TIP3   OH242478   2.897   6.678   0.091 -0.3592  0.1077  0.4780
 6948TIP3    H142479   2.927   6.722   0.171  0.4831  1.1290 -0.3686
 6948TIP3    H242480   2.975   6.674   0.035 -0.7283 -1.3683  0.0297
 6949TIP3   OH242481   4.145   4.435   0.962  0.5241  0.1871  0.4814
 6949TIP3    H142482   4.138   4.344   0.934  0.8188  0.2919  0.0429
 6949TIP3    H242483   4.226   4.466   0.920  0.8568  0.4199  1.2856
 6950TIP3   OH242484   0.716   0.125   0.576  0.7982  0.0224 -0.2061
 6950TIP3    H142485   0.798   0.103   0.531  0.2511 -0.3251 -1.0445
 6950TIP3    H242486   0.655   0.056   0.550 -0.3478  1.3580 -1.2026
 6951TIP3   OH242487   3.183   4.473   0.511  0.3436 -0.4672 -0.2408
 6951TIP3    H142488   3.223   4.400   0.558 -3.4520 -1.1642  2.4081
 6951TIP3    H242489   3.102   4.437   0.476 -2.6602  2.6485  2.7552
 6952TIP3   OH242490   3.489   4.259   7.337 -0.2513 -0.0279 -0.5485
 6952TIP3    H142491   3.445   4.290   7.417 -0.0452  0.1594 -0.5077
 6952TIP3    H242492   3.426   4.199   7.297 -0.3227 -0.1879 -0.1995
 6953TIP3   OH242493   3.475   1.928   8.072 -0.0331  0.1062  0.1261
 6953TIP3    H142494   3.471   1.859   8.138 -0.3620  0.3338  0.3482
 6953TIP3    H242495   3.564   1.962   8.077  0.1350 -0.3130  0.0030
 6954TIP3   OH242496   0.984   4.529   0.640  0.2648 -0.3315  0.1321
 6954TIP3    H142497   1.069   4.486   0.648  1.2238  1.4120 -0.0836
 6954TIP3    H242498   0.976   4.550   0.547 -0.7027 -1.0230  0.0465
 6955TIP3   OH242499   3.331   4.847   8.361  0.2211 -0.0138  0.3250
 6955TIP3    H142500   3.244   4.833   8.398 -0.3975 -0.0346 -1.0592
 6955TIP3    H242501   3.337   4.784   8.289  0.5064  1.4245 -0.9619
 6956TIP3   OH242502   1.871   0.091   7.279  0.4982 -0.3334 -0.5322
 6956TIP3    H142503   1.884   0.040   7.359  0.0770  0.2051 -0.1079
 6956TIP3    H242504   1.910   0.038   7.210  2.4758 -0.0212  0.2745
 6957TIP3   OH242505   6.344   2.440   0.831  0.2955 -0.4778 -0.2295
 6957TIP3    H142506   6.248   2.439   0.827  0.2781  0.9169 -1.2338
 6957TIP3    H242507   6.364   2.472   0.919 -0.2640  1.4742 -0.7449
 6958TIP3   OH242508   0.822   2.513   1.799  0.0053 -0.3198 -0.5673
 6958TIP3    H142509   0.876   2.435   1.786  0.7852  0.2449 -0.7324
 6958TIP3    H242510   0.875   2.570   1.855 -0.5164  0.1429 -0.5388
 6959TIP3   OH242511   4.035   1.144   0.411  0.6918  0.6811  0.5802
 6959TIP3    H142512   4.110   1.162   0.354  1.0721 -0.4380  0.7071
 6959TIP3    H242513   4.025   1.224   0.462 -0.2813  2.1194 -1.6950
 6960TIP3   OH242514   1.358   6.699   0.952  0.5100 -0.1454  0.1218
 6960TIP3    H142515   1.322   6.765   0.892 -2.3321 -0.7381  1.0614
 6960TIP3    H242516   1.384   6.749   1.029  1.9314  0.2972 -0.5986
 6961TIP3   OH242517   0.931   6.663   0.645 -0.4664 -0.0212  0.1269
 6961TIP3    H142518   1.006   6.606   0.664 -0.4925  0.0493  0.4440
 6961TIP3    H242519   0.882   6.616   0.577 -0.3911 -0.2919  0.2567
 6962TIP3   OH242520   4.599   2.105   7.866  0.1569  0.5999 -0.1112
 6962TIP3    H142521   4.662   2.039   7.834  0.4932  0.7375  0.2615
 6962TIP3    H242522   4.625   2.185   7.821  0.9636  0.9170  0.8841
 6963TIP3   OH242523   1.363   5.825   7.728 -0.4011  0.7425 -0.1067
 6963TIP3    H142524   1.370   5.730   7.738 -0.7646  0.5823 -1.2114
 6963TIP3    H242525   1.293   5.851   7.787  0.5809  0.5322  1.2092
 6964TIP3   OH242526   1.523   5.461   8.309  0.0379  0.4874  0.5011
 6964TIP3    H142527   1.427   5.466   8.315  0.1219  0.5843  2.7705
 6964TIP3    H242528   1.544   5.502   8.226 -1.8052  2.0327  0.7188
 6965TIP3   OH242529   1.822   5.726   7.704  0.1938  0.3276  0.3855
 6965TIP3    H142530   1.805   5.690   7.791 -1.2882 -0.3414 -0.1414
 6965TIP3    H242531   1.902   5.777   7.714 -0.5975  1.2609  2.4148
 6966TIP3   OH242532   6.582   3.048   1.854  0.3260 -0.1358  0.3709
 6966TIP3    H142533   6.598   3.001   1.935  0.2069 -1.2000 -0.2130
 6966TIP3    H242534   6.519   3.117   1.878 -0.0239 -0.6985  1.0884
 6967TIP3   OH242535   5.471   3.058   6.506 -0.3201 -0.5371  0.5004
 6967TIP3    H142536   5.450   2.991   6.571  0.6211  0.5538  2.0095
 6967TIP3    H242537   5.392   3.065   6.452 -0.8890 -1.9463  1.0998
 6968TIP3   OH242538   3.435   1.173   1.143  0.2611  0.0856  0.2775
 6968TIP3    H142539   3.410   1.210   1.227 -0.2315 -1.8893  1.0636
 6968TIP3    H242540   3.356   1.179   1.089 -0.2520 -1.0082  0.8682
 6969TIP3   OH242541   6.295   2.902   7.117  0.0083  0.3270 -0.5989
 6969TIP3    H142542   6.248   2.819   7.128  0.7709 -0.1906 -1.1587
 6969TIP3    H242543   6.359   2.903   7.188  0.3371  0.2037 -0.8946
 6970TIP3   OH242544   0.423   1.946   2.612  0.0025 -0.0799 -0.0736
 6970TIP3    H142545   0.364   2.013   2.577 -0.0907 -1.2794 -2.3794
 6970TIP3    H242546   0.373   1.865   2.607  0.7952 -0.6527  0.8473
 6971TIP3   OH242547   4.762   0.549   1.262  0.2269 -0.0847  0.2166
 6971TIP3    H142548   4.751   0.481   1.328 -2.3907  0.9911  0.9959
 6971TIP3    H242549   4.732   0.510   1.180 -4.6310  0.9061  1.2238
 6972TIP3   OH242550   3.767   1.939   8.196 -0.2729 -0.1077 -0.3586
 6972TIP3    H142551   3.819   1.865   8.226  1.1657  0.9371 -0.1700
 6972TIP3    H242552   3.729   1.977   8.275 -0.2921 -0.1198 -0.3622
 6973TIP3   OH242553   6.040   1.157   0.190 -0.1497  0.4282 -0.0758
 6973TIP3    H142554   6.101   1.164   0.264  0.3099 -1.2211 -0.2561
 6973TIP3    H242555   6.097   1.142   0.114 -0.7046 -3.3478  0.0370
 6974TIP3   OH242556   4.699   5.972   0.434 -0.3612  0.6890  0.3843
 6974TIP3    H142557   4.694   6.043   0.498 -1.2176 -0.2519  1.4167
 6974TIP3    H242558   4.618   5.923   0.446  0.5341 -0.9018  0.2503
 6975TIP3   OH242559   5.914   6.434   6.180  0.3166 -0.3852  0.4889
 6975TIP3    H142560   5.820   6.420   6.185  0.2602 -0.3345 -0.2454
 6975TIP3    H242561   5.923   6.524   6.148  0.6095 -0.3847  0.5742
 6976TIP3   OH242562   0.667   4.085   1.336 -0.3132 -0.3794 -0.0690
 6976TIP3    H142563   0.713   4.159   1.297  0.0296 -0.6367 -0.1656
 6976TIP3    H242564   0.737   4.027   1.367 -0.5804 -0.2956  0.7014
 6977TIP3   OH242565   6.101   2.117   0.185 -0.3250 -0.0191  0.1107
 6977TIP3    H142566   6.189   2.098   0.151  0.2524 -0.2199  1.6387
 6977TIP3    H242567   6.048   2.041   0.159  0.1966 -0.3660  0.0530
 6978TIP3   OH242568   0.537   2.796   2.528 -0.5434 -0.0631 -0.1321
 6978TIP3    H142569   0.535   2.723   2.467  0.3625  0.7185 -1.1463
 6978TIP3    H242570   0.627   2.829   2.522 -1.1637  1.6670 -0.3679
 6979TIP3   OH242571   6.519   4.658   7.098 -0.2883 -0.5226  0.2646
 6979TIP3    H142572   6.456   4.621   7.037 -0.5139  0.4130 -0.0871
 6979TIP3    H242573   6.521   4.751   7.078 -0.1522 -0.2359  1.4973
 6980TIP3   OH242574   4.234   1.503   1.074  0.0590 -0.3600 -0.1799
 6980TIP3    H142575   4.178   1.580   1.066  1.7067  0.9445  0.0936
 6980TIP3    H242576   4.296   1.526   1.144  0.6702 -1.9034 -0.1614
 6981TIP3   OH242577   2.395   1.772   0.637 -0.3455  0.1417 -0.2290
 6981TIP3    H142578   2.344   1.816   0.705 -0.4333  1.4435 -1.1096
 6981TIP3    H242579   2.353   1.799   0.555  2.7924  2.7396 -1.1398
 6982TIP3   OH242580   4.461   4.215   0.790  0.1964 -0.5138 -0.1544
 6982TIP3    H142581   4.463   4.132   0.838  1.1407 -0.2388  0.2904
 6982TIP3    H242582   4.455   4.188   0.698  0.4120 -1.0729 -0.0110
 6983TIP3   OH242583   3.923   2.544   7.112  0.1272 -0.4315 -0.4381
 6983TIP3    H142584   3.884   2.626   7.143 -0.1016 -1.2097  1.5007
 6983TIP3    H242585   3.980   2.570   7.040 -2.2207  1.0389 -1.9078
 6984TIP3   OH242586   4.317   3.656   1.650 -0.3033 -0.0613 -0.0443
 6984TIP3    H142587   4.378   3.680   1.720 -0.7366 -0.0014  0.3110
 6984TIP3    H242588   4.306   3.561   1.660 -0.1462 -0.1006 -0.2154
 6985TIP3   OH242589   4.159   3.275   7.683  0.1275  0.4394  0.3012
 6985TIP3    H142590   4.110   3.351   7.650 -0.3276  0.1012  0.1987
 6985TIP3    H242591   4.196   3.235   7.604 -2.4439 -1.4328 -0.1046
 6986TIP3   OH242592   0.359   4.343   2.554 -0.2913 -0.3276 -0.0938
 6986TIP3    H142593   0.366   4.424   2.503 -0.8435 -0.7250 -0.8237
 6986TIP3    H242594   0.400   4.276   2.499 -0.2308 -0.6197  0.3073
 6987TIP3   OH242595   3.991   2.387   1.637  0.7303 -0.6650  0.3842
 6987TIP3    H142596   3.937   2.308   1.623  0.5596 -0.3549 -0.9014
 6987TIP3    H242597   3.940   2.457   1.597  2.0293 -0.3422 -0.7749
 6988TIP3   OH242598   1.159   6.584   1.566  0.4475  0.2131 -0.0991
 6988TIP3    H142599   1.093   6.514   1.565  1.5398 -0.8480 -0.0006
 6988TIP3    H242600   1.147   6.627   1.650 -1.1824  1.1063 -0.7420
 6989TIP3   OH242601   2.532   5.021   6.863  0.5146  0.0334  0.0003
 6989TIP3    H142602   2.482   5.086   6.912 -0.3869 -0.7445  0.1393
 6989TIP3    H242603   2.536   5.054   6.774  2.2131  1.4976  0.5653
 6990TIP3   OH242604   0.454   4.498   1.839 -0.2929  0.3945  0.1018
 6990TIP3    H142605   0.526   4.435   1.842 -0.2965  0.4136  1.8940
 6990TIP3    H242606   0.494   4.582   1.864 -0.5801  0.7864 -0.7363
 6991TIP3   OH242607   4.124   3.617   8.169  0.4046  0.0767 -0.5936
 6991TIP3    H142608   4.062   3.587   8.103  2.0262  0.8615 -2.5553
 6991TIP3    H242609   4.111   3.712   8.172  0.4345  0.0625  0.1348
 6992TIP3   OH242610   4.106   6.930   7.899 -0.3421  0.3907 -0.4802
 6992TIP3    H142611   4.133   6.867   7.832  0.0979  0.8882 -0.7818
 6992TIP3    H242612   4.030   6.889   7.942 -0.3840 -0.1056 -1.0172
 6993TIP3   OH242613   4.845   1.024   0.219 -0.3718  0.7150 -0.0523
 6993TIP3    H142614   4.895   1.013   0.300 -0.4133 -1.4624 -0.2534
 6993TIP3    H242615   4.831   1.118   0.211  0.2440  1.0300  2.0972
 6994TIP3   OH242616   1.795   1.631   0.486  0.5512  0.4848 -0.5372
 6994TIP3    H142617   1.735   1.571   0.442  1.1017  0.1802 -0.8694
 6994TIP3    H242618   1.762   1.718   0.464  0.2315  0.3219 -0.7130
 6995TIP3   OH242619   2.948   0.676   0.524 -0.0842 -0.1326  0.1665
 6995TIP3    H142620   2.937   0.591   0.565 -0.4899 -0.1207  0.0833
 6995TIP3    H242621   2.923   0.739   0.591  0.5925 -0.0597  0.3585
 6996TIP3   OH242622   5.973   4.575   2.333  0.2992 -0.2215  0.1156
 6996TIP3    H142623   5.878   4.574   2.339  0.3328 -1.2030  0.7088
 6996TIP3    H242624   5.997   4.665   2.352 -0.4989 -0.0275  0.2413
 6997TIP3   OH242625   2.790   4.511   8.255  0.6323 -0.4682  0.9608
 6997TIP3    H142626   2.856   4.522   8.324 -2.1169 -0.5256  3.8552
 6997TIP3    H242627   2.736   4.590   8.262  0.4852 -0.2621 -1.5359
 6998TIP3   OH242628   0.006   2.753   6.915 -0.1512 -0.9013 -0.5404
 6998TIP3    H142629   0.053   2.740   6.833  0.9471  1.4895 -0.3589
 6998TIP3    H242630   0.052   2.696   6.978  2.8541  1.4812 -0.3139
 6999TIP3   OH242631   3.779   1.122   2.062  0.6343 -0.5557 -0.6005
 6999TIP3    H142632   3.759   1.136   1.970 -1.4859 -2.1050 -0.4393
 6999TIP3    H242633   3.769   1.208   2.102  1.7575  0.1773 -1.8012
 7000TIP3   OH242634   1.993   1.478   1.639 -0.2114  0.1841 -1.0726
 7000TIP3    H142635   1.971   1.551   1.696 -0.2694  0.5142 -1.5128
 7000TIP3    H242636   2.068   1.436   1.680  0.3438  0.9944 -1.2491
 7001TIP3   OH242637   3.565   0.001   0.236  0.2240 -0.2989 -0.3121
 7001TIP3    H142638   3.595  -0.004   0.145 -1.4466  0.4858 -0.9285
 7001TIP3    H242639   3.645  -0.012   0.287  1.1759 -0.9258 -1.8755
 7002TIP3   OH242640   1.544   0.660   1.259  0.1915 -0.2429  0.4183
 7002TIP3    H142641   1.564   0.722   1.188  1.2076  0.0513  0.9352
 7002TIP3    H242642   1.565   0.574   1.222  1.4211 -0.0318  0.5669
 7003TIP3   OH242643   3.256   4.559   1.702 -0.7334 -0.1716 -0.3960
 7003TIP3    H142644   3.302   4.497   1.645  0.5240  0.9827 -0.6802
 7003TIP3    H242645   3.163   4.536   1.692 -0.4420 -0.8532 -1.8667
 7004TIP3   OH242646   2.275   4.669   6.989  0.0429 -0.5750  0.0006
 7004TIP3    H142647   2.343   4.736   6.995 -0.1196 -0.5301  1.9366
 7004TIP3    H242648   2.276   4.642   6.897  1.1767  0.9585 -0.4760
 7005TIP3   OH242649   4.430   6.869   7.614  0.1017  0.1007  0.4507
 7005TIP3    H142650   4.436   6.960   7.641 -0.0394 -0.1787  1.4458
 7005TIP3    H242651   4.336   6.849   7.618  0.2342 -0.3707  1.1877
 7006TIP3   OH242652   1.863   5.369   0.735  0.2174  0.4478  0.1603
 7006TIP3    H142653   1.803   5.439   0.760 -0.0405 -0.2506  1.6168
 7006TIP3    H242654   1.941   5.414   0.703 -0.5756  1.3734 -0.5583
 7007TIP3   OH242655   5.169   2.077   8.477 -0.0936 -0.2032 -0.0161
 7007TIP3    H142656   5.110   2.041   8.411 -0.7830 -0.8048  0.9123
 7007TIP3    H242657   5.181   2.007   8.540  0.4916  0.3914  0.5509
 7008TIP3   OH242658   2.853   2.138   7.730  0.0339 -0.3124  0.1950
 7008TIP3    H142659   2.764   2.168   7.745  0.6450  1.8234 -0.2213
 7008TIP3    H242660   2.891   2.201   7.669  2.0480 -0.7537  0.9029
 7009TIP3   OH242661   0.585   0.972   1.455  0.3316 -0.1457 -0.3095
 7009TIP3    H142662   0.633   1.051   1.429  0.6075 -0.4595 -0.7618
 7009TIP3    H242663   0.516   0.963   1.390 -0.9044  0.7718  0.8025
 7010TIP3   OH242664   2.548   0.552   1.275  0.0325  0.1341  0.4076
 7010TIP3    H142665   2.633   0.596   1.286  0.2092 -0.1428  0.1718
 7010TIP3    H242666   2.484   0.618   1.301  0.3270  0.2922  0.7591
 7011TIP3   OH242667   0.534   2.952   8.167 -0.4064 -0.1590  0.3201
 7011TIP3    H142668   0.451   2.967   8.211 -0.2788 -0.0041  0.5086
 7011TIP3    H242669   0.549   2.858   8.175  0.4438  0.0824  2.1110
 7012TIP3   OH242670   0.620   6.335   7.743  0.1152  0.6517 -0.4193
 7012TIP3    H142671   0.618   6.270   7.673 -0.7146  0.5015 -0.2595
 7012TIP3    H242672   0.600   6.418   7.699  2.7052  1.1149 -0.9160
 7013TIP3   OH242673   2.985   0.801   0.267 -0.3351 -0.3238 -0.3309
 7013TIP3    H142674   2.973   0.765   0.354  0.6554  1.7145  0.7300
 7013TIP3    H242675   2.904   0.849   0.250 -0.2262 -0.0889 -0.1930
 7014TIP3   OH242676   2.865   1.606   1.009  0.0288  0.1490 -0.2842
 7014TIP3    H142677   2.863   1.701   1.013 -1.4361  0.1193 -0.1074
 7014TIP3    H242678   2.790   1.577   1.060  0.6537 -1.1226 -0.0410
 7015TIP3   OH242679   4.081   0.891   2.538  0.6781  0.4547 -0.5889
 7015TIP3    H142680   3.999   0.842   2.538 -0.0442  1.6193 -0.3727
 7015TIP3    H242681   4.134   0.849   2.605  0.1007 -0.0613 -0.4407
 7016TIP3   OH242682   5.319   4.993   7.390 -0.3875  0.2035  0.5916
 7016TIP3    H142683   5.233   5.028   7.368 -0.4143  0.7106  1.4472
 7016TIP3    H242684   5.343   5.038   7.471 -0.0038 -1.0566  1.2039
 7017TIP3   OH242685   5.117   4.009   2.455  0.4468 -0.1008  0.5788
 7017TIP3    H142686   5.162   4.060   2.388  0.9188 -0.6238  0.4937
 7017TIP3    H242687   5.050   3.961   2.408 -0.1217  0.5656  0.6844
 7018TIP3   OH242688   0.528   3.994   1.124 -0.1070 -0.2929  0.1077
 7018TIP3    H142689   0.587   4.039   1.184  0.1653 -0.4024 -0.0737
 7018TIP3    H242690   0.515   3.907   1.162 -0.1042 -0.2873  0.1213
 7019TIP3   OH242691   3.505   6.640   8.094  0.5567  0.1328 -0.0066
 7019TIP3    H142692   3.424   6.591   8.106  0.8783 -0.8963 -1.6939
 7019TIP3    H242693   3.572   6.573   8.082  1.2359  0.9626 -1.0494
 7020TIP3   OH242694   4.856   0.555   8.262  0.2314 -0.0285  0.3823
 7020TIP3    H142695   4.880   0.464   8.247  2.1143  0.2691  1.2666
 7020TIP3    H242696   4.867   0.597   8.176 -0.6128 -0.6099 -0.0187
 7021TIP3   OH242697   5.053   5.826   6.812  0.1849 -0.6449 -0.6471
 7021TIP3    H142698   5.018   5.828   6.901  3.0715 -0.2729  0.5863
 7021TIP3    H242699   5.059   5.918   6.787  2.2331 -0.5414  0.0632
 7022TIP3   OH242700   5.431   3.195   0.269 -0.0681  0.3764  0.2248
 7022TIP3    H142701   5.372   3.147   0.211 -0.7861 -0.1514  1.3778
 7022TIP3    H242702   5.383   3.274   0.294 -1.0853 -0.9006  2.5989
 7023TIP3   OH242703   3.071   2.171   2.173  0.1358 -0.1881 -0.1239
 7023TIP3    H142704   3.136   2.215   2.118 -0.3049  0.3257 -0.2394
 7023TIP3    H242705   3.081   2.078   2.152  1.3552 -0.1958  0.4228
 7024TIP3   OH242706   1.268   3.238   7.594 -0.1796 -0.2064  0.4412
 7024TIP3    H142707   1.278   3.146   7.617  0.2970 -0.9840 -2.5029
 7024TIP3    H242708   1.219   3.276   7.667  0.1352 -2.6281  2.0161
 7025TIP3   OH242709   3.619   3.943   2.559  0.0130 -0.0304 -0.4173
 7025TIP3    H142710   3.588   3.949   2.469 -0.1504 -0.2231 -0.3748
 7025TIP3    H242711   3.661   4.027   2.576 -3.3836  1.6436  0.6210
 7026TIP3   OH242712   1.192   0.900   1.473  0.0842  0.1790 -0.4374
 7026TIP3    H142713   1.285   0.895   1.451 -0.4254  0.8579 -3.0784
 7026TIP3    H242714   1.181   0.988   1.509  0.5133 -0.0277  0.2127
 7027TIP3   OH242715   1.998   0.505   0.654  0.1901 -0.4894 -0.5890
 7027TIP3    H142716   2.041   0.522   0.570  1.0448  1.0761  0.1143
 7027TIP3    H242717   2.056   0.545   0.719 -2.5039  2.2741  0.3773
 7028TIP3   OH242718   5.925   0.869   0.238 -0.0817  0.2191  0.5822
 7028TIP3    H142719   5.862   0.815   0.284  0.3645  0.2363  1.2287
 7028TIP3    H242720   5.900   0.959   0.260  0.4952  0.2145  1.3046
 7029TIP3   OH242721   0.435   1.302   8.548  0.2112  0.5634 -0.4774
 7029TIP3    H142722   0.414   1.222   8.596 -1.5196 -0.1247 -2.2566
 7029TIP3    H242723   0.358   1.357   8.559  0.6191  1.2119 -0.8216
 7030TIP3   OH242724   3.058   2.993   8.129  0.0315 -0.1539 -0.4589
 7030TIP3    H142725   3.137   3.045   8.138  1.3334 -2.0772 -0.0860
 7030TIP3    H242726   3.035   2.968   8.218  0.1434 -1.1615 -0.6932
 7031TIP3   OH242727   2.591   0.121   2.208  0.1329  0.3180  0.4237
 7031TIP3    H142728   2.662   0.118   2.273  1.5994 -0.1006 -1.1301
 7031TIP3    H242729   2.579   0.029   2.182  0.0881  0.5532 -0.4186
 7032TIP3   OH242730   4.238   0.706   1.014  0.3884 -0.2968 -0.1186
 7032TIP3    H142731   4.216   0.631   1.069  0.3842  0.3572  0.7958
 7032TIP3    H242732   4.319   0.681   0.971  1.1526 -0.2941  1.2653
 7033TIP3   OH242733   0.682   1.755   0.576  0.1752  0.2043 -0.7336
 7033TIP3    H142734   0.693   1.690   0.507 -1.4045 -0.1581 -0.6750
 7033TIP3    H242735   0.645   1.831   0.531 -1.9957 -0.4394 -0.1581
 7034TIP3   OH242736   0.045   2.787   7.394  0.1238 -0.1068 -0.0781
 7034TIP3    H142737   0.120   2.758   7.341  0.0062 -0.6165  0.0312
 7034TIP3    H242738   0.076   2.865   7.439  0.2783  0.2466 -0.7846
 7035TIP3   OH242739   3.707   2.621   0.011  0.3146  0.3092 -0.2327
 7035TIP3    H142740   3.655   2.700  -0.004  0.3046  0.6773  1.5161
 7035TIP3    H242741   3.760   2.642   0.088  0.6238 -1.2392  0.0013
 7036TIP3   OH242742   1.140   4.024   2.227 -0.2197  0.0350  0.1699
 7036TIP3    H142743   1.213   3.981   2.272  0.0996  0.4416  0.0414
 7036TIP3    H242744   1.067   3.962   2.236  0.7655 -1.5483 -1.8212
 7037TIP3   OH242745   0.105   0.534   7.571  0.4082 -0.0579 -0.2857
 7037TIP3    H142746   0.151   0.598   7.517  1.0748 -0.0604  0.2567
 7037TIP3    H242747   0.018   0.528   7.532  0.5118  0.7647 -0.6806
 7038TIP3   OH242748   0.496   4.898   1.036 -0.1536  0.0484  0.3441
 7038TIP3    H142749   0.438   4.921   0.964  0.2722  1.1278  0.3325
 7038TIP3    H242750   0.452   4.824   1.079  0.0801 -1.3399 -1.6163
 7039TIP3   OH242751   6.832   0.183   7.954 -0.3942 -0.6339 -0.0438
 7039TIP3    H142752   6.748   0.229   7.958  0.0207  0.3198 -1.5794
 7039TIP3    H242753   6.883   0.220   8.026 -0.8878 -0.4191  0.2029
 7040TIP3   OH242754   6.149   6.656   1.716 -0.3636 -0.1059  0.0345
 7040TIP3    H142755   6.063   6.698   1.719  0.3301  1.3857 -0.0762
 7040TIP3    H242756   6.186   6.671   1.803  0.1485  0.0719 -0.2111
 7041TIP3   OH242757   2.033   3.311   2.046 -0.0095  0.5069  0.5388
 7041TIP3    H142758   1.963   3.354   2.095  0.7051  2.1581  0.1795
 7041TIP3    H242759   2.113   3.351   2.079  0.7840 -1.1635  0.7623
 7042TIP3   OH242760   1.867   2.994   8.387 -0.6658 -0.1790 -0.7283
 7042TIP3    H142761   1.873   3.080   8.345 -1.0074  0.7214  0.9879
 7042TIP3    H242762   1.953   2.954   8.372 -0.0281  1.0223 -0.4166
 7043TIP3   OH242763   1.904   0.080   1.787  0.6014 -0.1402  0.2717
 7043TIP3    H142764   1.978   0.141   1.793  0.3784  0.1828 -0.2482
 7043TIP3    H242765   1.882   0.060   1.878  0.2319  1.0935  0.4652
 7044TIP3   OH242766   1.078   4.475   7.845 -0.2567  0.2852 -0.3745
 7044TIP3    H142767   1.090   4.505   7.935 -1.9795 -1.8865  0.6871
 7044TIP3    H242768   1.134   4.398   7.838  0.0820  0.6016 -1.2789
 7045TIP3   OH242769   6.114   1.732   3.034  0.3352 -0.4922  0.1643
 7045TIP3    H142770   6.069   1.816   3.048  0.7368 -0.2749  0.1775
 7045TIP3    H242771   6.092   1.708   2.944 -1.3130 -1.3165  0.7585
 7046TIP3   OH242772   2.653   4.764   0.363 -0.0910  0.5001 -0.4315
 7046TIP3    H142773   2.656   4.835   0.427 -1.0158  0.3321 -0.1964
 7046TIP3    H242774   2.744   4.732   0.359  0.1802  1.1835  0.0248
 7047TIP3   OH242775   6.420   3.394   7.141  0.4827  0.2609 -0.0850
 7047TIP3    H142776   6.406   3.300   7.148  0.3597  0.3791  1.6419
 7047TIP3    H242777   6.453   3.420   7.227  3.3482  1.3560 -1.3843
 7048TIP3   OH242778   5.133   1.373   7.089  0.0896  0.2387 -0.5244
 7048TIP3    H142779   5.128   1.383   7.184  1.0320 -0.3528 -0.3980
 7048TIP3    H242780   5.074   1.440   7.054 -0.7212  0.0605  0.4898
 7049TIP3   OH242781   1.766   4.301   0.072  0.5060 -0.2790  0.4384
 7049TIP3    H142782   1.722   4.216   0.059  0.5175 -0.7432  3.0229
 7049TIP3    H242783   1.707   4.351   0.127  0.9760  1.0467 -0.2158
 7050TIP3   OH242784   0.096   1.646   6.478  0.1533 -0.0946 -0.8871
 7050TIP3    H142785   0.027   1.631   6.543  1.2271  0.6783  0.4934
 7050TIP3    H242786   0.071   1.727   6.434  0.4657  0.5297  0.0490
 7051TIP3   OH242787   4.402   5.238   0.835 -0.4650 -0.7916  0.1274
 7051TIP3    H142788   4.440   5.214   0.751  1.7165 -2.0279  1.3866
 7051TIP3    H242789   4.437   5.325   0.854 -0.6779 -0.6620 -0.0660
 7052TIP3   OH242790   1.859   1.340   8.535 -0.4024  0.6954 -0.3393
 7052TIP3    H142791   1.833   1.340   8.443 -0.7495 -2.8399 -0.4052
 7052TIP3    H242792   1.919   1.265   8.542 -0.6362  0.6862  2.3657
 7053TIP3   OH242793   1.999   1.257   7.993 -0.2957 -0.4191 -0.3702
 7053TIP3    H142794   2.022   1.282   7.904  1.5565  0.3432  0.2655
 7053TIP3    H242795   1.976   1.340   8.035 -0.1190 -0.6230  0.1342
 7054TIP3   OH242796   5.043   5.465   1.927 -0.0904  0.0528 -0.3954
 7054TIP3    H142797   5.116   5.403   1.936  0.2478  0.3840 -0.8014
 7054TIP3    H242798   5.046   5.517   2.007  0.1443  0.0879 -0.4257
 7055TIP3   OH242799   0.909   5.898   8.190 -0.1685  0.0064 -0.1962
 7055TIP3    H142800   0.914   5.912   8.285 -0.3944  0.2192 -0.2158
 7055TIP3    H242801   0.815   5.894   8.171 -0.1504  1.2586 -0.5997
 7056TIP3   OH242802   2.280   4.748   6.113 -0.3593 -0.5162 -0.0973
 7056TIP3    H142803   2.369   4.718   6.098  0.0437  0.1678  0.8617
 7056TIP3    H242804   2.273   4.828   6.061 -0.9907 -1.4720 -1.5506
 7057TIP3   OH242805   5.870   5.777   0.208 -0.0720 -0.0187  0.3433
 7057TIP3    H142806   5.883   5.836   0.133 -3.4873 -0.2201 -0.5511
 7057TIP3    H242807   5.786   5.803   0.245  1.6569  0.3981  4.5726
 7058TIP3   OH242808   4.088   5.397   7.293  0.0890  0.1731  0.7064
 7058TIP3    H142809   4.054   5.347   7.368 -0.8170 -0.3861 -0.0481
 7058TIP3    H242810   4.009   5.432   7.251  0.5931  0.5072  0.0329
 7059TIP3   OH242811   3.075   2.363   1.808  0.2089 -0.6773 -0.3008
 7059TIP3    H142812   3.048   2.407   1.889  0.2380 -0.1889 -0.5491
 7059TIP3    H242813   3.073   2.432   1.742  2.4449 -0.5048 -0.2735
 7060TIP3   OH242814   4.283   0.848   0.460  0.0163  0.5758 -0.3537
 7060TIP3    H142815   4.293   0.904   0.537 -1.7893  0.3629  0.0639
 7060TIP3    H242816   4.259   0.762   0.495 -0.9635  0.5124 -1.1490
 7061TIP3   OH242817   2.621   1.146   7.453 -0.4071  0.5585  0.1187
 7061TIP3    H142818   2.541   1.096   7.439  0.0422 -0.4124  0.9074
 7061TIP3    H242819   2.629   1.151   7.548  0.2746  0.9674  0.0433
 7062TIP3   OH242820   3.019   3.921   6.519  0.1575 -0.0252 -0.5415
 7062TIP3    H142821   2.939   3.885   6.480 -0.0049 -0.9838  0.6302
 7062TIP3    H242822   3.032   4.005   6.474 -2.4025  0.9517  0.3616
 7063TIP3   OH242823   5.932   2.571   6.975  0.3682  0.8598 -0.4702
 7063TIP3    H142824   5.841   2.568   6.946  1.1724  2.2259 -3.5464
 7063TIP3    H242825   5.982   2.534   6.902  2.4713  3.1336 -0.3208
 7064TIP3   OH242826   3.987   4.171   8.177 -0.9196  0.1427  0.0590
 7064TIP3    H142827   3.916   4.135   8.123 -0.6073 -0.8288  0.2817
 7064TIP3    H242828   4.046   4.213   8.114  0.4033 -2.5578 -0.6355
 7065TIP3   OH242829   6.495   0.322   7.530 -0.4941  0.1666 -0.1617
 7065TIP3    H142830   6.427   0.389   7.517  0.2040  0.9013 -0.0837
 7065TIP3    H242831   6.553   0.332   7.454 -1.3542 -1.5687 -1.1142
 7066TIP3   OH242832   6.815   6.035   7.942 -0.2478 -0.1589  0.0223
 7066TIP3    H142833   6.762   6.042   7.862 -2.4080  1.2665  1.4767
 7066TIP3    H242834   6.752   6.012   8.010  1.4066 -0.4986  1.4896
 7067TIP3   OH242835   0.918   6.756   7.976 -0.4127  1.3698  0.9809
 7067TIP3    H142836   0.943   6.737   7.886  1.8640  0.5955  1.7080
 7067TIP3    H242837   0.824   6.739   7.979 -0.2623 -0.0787 -0.8834
 7068TIP3   OH242838   1.844   4.349   0.708  0.4720  0.4705  0.6089
 7068TIP3    H142839   1.921   4.366   0.762  0.7634  1.6284 -0.1461
 7068TIP3    H242840   1.838   4.254   0.703  2.1768  0.3636  0.2300
 7069TIP3   OH242841   0.512   3.468   7.121  0.1831 -0.3674 -0.1794
 7069TIP3    H142842   0.550   3.540   7.072  0.1561  0.0676  0.4291
 7069TIP3    H242843   0.464   3.510   7.193  0.0531 -0.9817  0.1013
 7070TIP3   OH242844   5.921   4.863   7.100 -0.1927  0.5570  0.2798
 7070TIP3    H142845   6.009   4.895   7.080 -0.7092  1.6695 -0.3285
 7070TIP3    H242846   5.921   4.850   7.195 -0.1471  3.0906  0.6893
 7071TIP3   OH242847   2.389   5.622   2.520 -0.0653  0.3114  0.1274
 7071TIP3    H142848   2.419   5.604   2.609  0.2314  0.0060 -0.0323
 7071TIP3    H242849   2.420   5.711   2.501  0.7801 -0.0106 -0.0507
 7072TIP3   OH242850   3.424   4.358   7.733 -0.5169  0.5059  0.0018
 7072TIP3    H142851   3.505   4.368   7.682 -0.5129  1.5562  0.1840
 7072TIP3    H242852   3.454   4.327   7.819 -0.0420  2.6916  0.7160
 7073TIP3   OH242853   1.321   4.671   7.154  0.5799 -0.0354  0.9208
 7073TIP3    H142854   1.264   4.608   7.110  1.2805  0.3932 -0.6553
 7073TIP3    H242855   1.282   4.756   7.136  0.5404  0.1195  1.6765
 7074TIP3   OH242856   4.858   4.924   7.798  0.2349 -0.0982  0.7051
 7074TIP3    H142857   4.947   4.893   7.780  0.0886 -1.6992  2.4341
 7074TIP3    H242858   4.838   4.890   7.886 -2.3499 -0.4138  0.0733
 7075TIP3   OH242859   1.202   4.048   8.582  0.3430  0.0569 -0.5423
 7075TIP3    H142860   1.159   4.079   8.502 -1.4807 -1.9456 -0.4474
 7075TIP3    H242861   1.237   3.962   8.559  0.9477  0.0169  0.4631
 7076TIP3   OH242862   2.801   2.512   2.172  0.6099 -0.0684  0.1652
 7076TIP3    H142863   2.827   2.583   2.230  1.1244  0.2707 -0.4548
 7076TIP3    H242864   2.706   2.504   2.184  0.6865  0.1068  0.9142
 7077TIP3   OH242865   0.689   1.475   1.870  0.4933  0.0701 -0.2454
 7077TIP3    H142866   0.762   1.485   1.931  2.4091  1.3153 -2.5626
 7077TIP3    H242867   0.665   1.565   1.848 -1.0844 -0.3487 -0.3449
 7078TIP3   OH242868   1.139   0.304   7.001 -0.4015  0.6271 -0.1233
 7078TIP3    H142869   1.092   0.355   6.935  0.9247 -1.7511 -3.1306
 7078TIP3    H242870   1.205   0.365   7.036 -0.9296  1.8679 -1.2060
 7079TIP3   OH242871   5.123   3.999   0.836  0.4388 -0.4589 -0.0178
 7079TIP3    H142872   5.058   4.052   0.881  0.9552  0.4287 -0.2968
 7079TIP3    H242873   5.151   3.935   0.902  0.7113  0.4102  0.7400
 7080TIP3   OH242874   0.959   5.617   8.468 -0.6560 -0.4296 -0.4093
 7080TIP3    H142875   0.994   5.533   8.439 -1.1797 -0.7536 -0.1292
 7080TIP3    H242876   1.031   5.658   8.516 -0.2002 -0.4456 -1.0687
 7081TIP3   OH242877   3.194   0.178   2.084 -0.2359 -0.0661  0.0270
 7081TIP3    H142878   3.288   0.185   2.096  0.2866 -0.1118 -3.1856
 7081TIP3    H242879   3.170   0.258   2.037 -1.6566 -0.4742  0.0152
 7082TIP3   OH242880   6.697   0.891   7.983  0.0520 -0.3106  0.2642
 7082TIP3    H142881   6.696   0.987   7.977  2.2200 -0.1898  0.7718
 7082TIP3    H242882   6.605   0.865   7.977 -0.4814  1.7007 -1.2607
 7083TIP3   OH242883   1.765   0.550   7.675 -0.8077  0.0481  0.2282
 7083TIP3    H142884   1.776   0.510   7.589  0.6741 -0.8986  0.8037
 7083TIP3    H242885   1.743   0.641   7.657  1.7420  0.4655 -1.2199
 7084TIP3   OH242886   2.038   3.750   7.125  0.2431  0.5212 -0.4679
 7084TIP3    H142887   2.050   3.658   7.100  0.0775  0.8597 -1.8890
 7084TIP3    H242888   1.965   3.780   7.072  1.2547  1.8839 -1.1540
 7085TIP3   OH242889   0.206   3.675   1.149  0.2597 -0.1356 -0.0177
 7085TIP3    H142890   0.204   3.741   1.079  0.0361 -0.3821 -0.2466
 7085TIP3    H242891   0.152   3.713   1.218 -1.8191 -1.0419 -1.0385
 7086TIP3   OH242892   5.496   2.888   0.074  0.2934 -0.0677  0.1501
 7086TIP3    H142893   5.551   2.895   0.153 -0.7984 -0.8700  1.0070
 7086TIP3    H242894   5.424   2.830   0.100 -1.2289  1.3257 -0.7893
 7087TIP3   OH242895   0.870   5.560   7.001 -0.0272  0.1357  0.0426
 7087TIP3    H142896   0.941   5.623   6.982 -1.8028  2.4098  0.4592
 7087TIP3    H242897   0.795   5.594   6.952 -1.2936 -1.2037  1.0033
 7088TIP3   OH242898   2.842   0.050   7.303 -0.2747  0.0193  0.4077
 7088TIP3    H142899   2.800   0.050   7.390 -2.0317 -0.1033 -0.4009
 7088TIP3    H242900   2.818  -0.035   7.265  2.8260 -1.1835  0.8121
 7089TIP3   OH242901   0.669   1.368   1.051 -0.4016  0.7190  0.5637
 7089TIP3    H142902   0.598   1.432   1.053 -0.8063  0.2570  2.3564
 7089TIP3    H242903   0.634   1.290   1.094  0.3197 -0.5022 -0.9341
 7090TIP3   OH242904   2.303   2.906   1.535  0.1017 -0.8257 -0.3061
 7090TIP3    H142905   2.392   2.921   1.501 -0.1684  0.3774 -0.5534
 7090TIP3    H242906   2.299   2.812   1.551  2.0092 -0.6881  1.3812
 7091TIP3   OH242907   3.098   5.504   7.683  0.0072 -0.0168  0.3131
 7091TIP3    H142908   3.120   5.520   7.591  0.5798  0.7108  0.5624
 7091TIP3    H242909   3.002   5.505   7.686 -0.0124  0.0802 -0.2531
 7092TIP3   OH242910   6.553   0.737   7.206 -0.1316  0.0773 -0.0793
 7092TIP3    H142911   6.576   0.790   7.282 -0.5352 -1.4691  1.1769
 7092TIP3    H242912   6.507   0.797   7.148  1.9235  1.8051 -0.0628
 7093TIP3   OH242913   5.802   4.531   0.115  0.4217  0.2677  0.1895
 7093TIP3    H142914   5.767   4.522   0.204 -1.0131  3.8330  0.1679
 7093TIP3    H242915   5.897   4.524   0.126  0.3520  1.6060  2.2369
 7094TIP3   OH242916   6.805   2.885   2.124 -0.1623  0.3946  0.0380
 7094TIP3    H142917   6.819   2.790   2.119  2.1126  0.7568 -2.2785
 7094TIP3    H242918   6.723   2.894   2.174  0.4241 -2.6744  1.8570
 7095TIP3   OH242919   4.489   4.217   1.666  0.3270  0.2461  0.1227
 7095TIP3    H142920   4.491   4.285   1.732  3.3256  0.6344 -0.2541
 7095TIP3    H242921   4.449   4.259   1.589 -0.4425  0.6736  0.7447
 7096TIP3   OH242922   0.616   3.537   6.851  0.0018 -0.0120  0.0695
 7096TIP3    H142923   0.557   3.611   6.832 -1.6050 -0.7230  1.9590
 7096TIP3    H242924   0.585   3.467   6.793  0.0540  0.1155 -0.1132
 7097TIP3   OH242925   5.771   6.828   8.623 -0.3192  0.0569  0.7212
 7097TIP3    H142926   5.741   6.890   8.557 -1.3434 -0.8593  0.2993
 7097TIP3    H242927   5.697   6.817   8.682 -0.4198 -1.2827  0.3820
 7098TIP3   OH242928   1.920   1.505   8.105 -0.2964 -0.2466  0.2447
 7098TIP3    H142929   1.888   1.548   8.026  0.7302  0.1837  0.0440
 7098TIP3    H242930   2.009   1.538   8.116 -0.2263 -0.7300  1.2724
 7099TIP3   OH242931   0.056   0.821   1.832 -0.6491  0.2642 -0.1964
 7099TIP3    H142932   0.127   0.839   1.770  0.1189  0.9512  0.8573
 7099TIP3    H242933  -0.021   0.808   1.776  0.5240 -1.8355 -1.4375
 7100TIP3   OH242934   0.674   3.420   0.687 -0.6318  0.4678 -0.1376
 7100TIP3    H142935   0.598   3.477   0.680 -1.2623 -0.3630 -0.2752
 7100TIP3    H242936   0.641   3.333   0.663 -0.0729 -0.2532  1.5439
 7101TIP3   OH242937   6.425   4.421   7.565 -0.0246  0.0623 -0.1234
 7101TIP3    H142938   6.398   4.330   7.550  0.4506 -0.0716 -0.2054
 7101TIP3    H242939   6.356   4.459   7.618 -0.1286 -0.4107  0.0798
 7102TIP3   OH242940   5.776   6.578   1.235  0.3760 -0.2291  0.0813
 7102TIP3    H142941   5.729   6.660   1.224  0.9348  0.1400  0.3769
 7102TIP3    H242942   5.833   6.573   1.158  4.3060  2.3635  2.4751
 7103TIP3   OH242943   2.950   1.268   7.508  0.3781  0.1263 -0.4679
 7103TIP3    H142944   2.966   1.332   7.578 -0.2119  0.7102 -0.8494
 7103TIP3    H242945   2.858   1.243   7.519 -0.7152  2.5828 -2.8757
 7104TIP3   OH242946   5.470   0.202   0.636  0.3732 -0.1098 -0.3875
 7104TIP3    H142947   5.441   0.238   0.552  0.9229 -0.6316 -0.8115
 7104TIP3    H242948   5.541   0.261   0.663  1.4167 -0.9465 -1.1853
 7105TIP3   OH242949   2.201   5.691   0.024  0.1463  0.2028 -0.0321
 7105TIP3    H142950   2.206   5.608  -0.024 -0.8644  0.2014 -0.1745
 7105TIP3    H242951   2.108   5.714   0.020  0.5027  1.6711 -0.5545
 7106TIP3   OH242952   1.529   0.694   6.596  0.1882  0.2116 -0.1985
 7106TIP3    H142953   1.489   0.609   6.582  0.6079 -0.0902  0.3852
 7106TIP3    H242954   1.601   0.698   6.532  0.7546 -0.2687  0.3937
 7107TIP3   OH242955   4.106   1.507   1.378 -0.0162 -0.1527  0.6364
 7107TIP3    H142956   4.124   1.444   1.448  0.2340  0.2730  0.9613
 7107TIP3    H242957   4.192   1.530   1.344  0.0348  1.2837  1.6587
 7108TIP3   OH242958   5.681   6.066   8.037 -0.2472 -0.6068  0.3204
 7108TIP3    H142959   5.599   6.094   8.078 -0.9987  0.3003 -1.6675
 7108TIP3    H242960   5.732   6.029   8.109 -1.7812  0.1754  1.9001
 7109TIP3   OH242961   6.931   2.241   8.305  0.0413 -0.9991 -0.6963
 7109TIP3    H142962   6.939   2.333   8.280 -1.1182 -0.8257 -0.5008
 7109TIP3    H242963   7.017   2.218   8.339  0.1062  0.2975  0.1127
 7110TIP3   OH242964   5.696   4.884   8.413  0.6890  0.1140 -0.0504
 7110TIP3    H142965   5.721   4.826   8.341  1.8081 -0.3143  0.6415
 7110TIP3    H242966   5.668   4.825   8.483 -0.2571  0.5152 -0.0853
 7111TIP3   OH242967   4.955   4.336   7.932 -0.2028 -0.0199 -0.1779
 7111TIP3    H142968   5.007   4.269   7.977  0.6706  0.1964 -0.8344
 7111TIP3    H242969   4.915   4.290   7.858 -1.1761 -0.2426  0.4617
 7112TIP3   OH242970   2.043   4.417   6.907 -0.4649 -0.6607 -0.1666
 7112TIP3    H142971   2.131   4.435   6.874 -0.9139 -1.7371 -2.0848
 7112TIP3    H242972   2.037   4.321   6.909 -1.4574 -0.6058  0.3237
 7113TIP3   OH242973   1.568   2.708   7.855 -0.0666  0.3630  0.2578
 7113TIP3    H142974   1.595   2.683   7.766 -0.8686  0.4693 -0.0293
 7113TIP3    H242975   1.631   2.774   7.882  2.4840 -2.2473  1.2570
 7114TIP3   OH242976   1.794   5.772   8.458  0.7383 -0.2913 -0.1278
 7114TIP3    H142977   1.715   5.825   8.462 -0.6656 -2.3489  2.6411
 7114TIP3    H242978   1.796   5.738   8.369  0.9929  3.1943 -1.5932
 7115TIP3   OH242979   5.901   1.071   6.898  0.1644 -0.5511  0.7404
 7115TIP3    H142980   5.830   1.051   6.838  1.0419  0.1272 -0.5672
 7115TIP3    H242981   5.902   1.167   6.903  0.3881 -0.5808  1.5097
 7116TIP3   OH242982   2.963   4.327   0.410  0.3993 -0.1762 -0.0746
 7116TIP3    H142983   3.006   4.250   0.373  0.3233  0.3125 -1.2177
 7116TIP3    H242984   2.903   4.356   0.341 -0.6087  0.0888  0.8754
 7117TIP3   OH242985   1.796   4.150   1.062  0.0445 -0.0058 -0.1736
 7117TIP3    H142986   1.735   4.223   1.075  1.1561  0.7931  0.6869
 7117TIP3    H242987   1.832   4.165   0.974  0.6060  0.7525  0.1763
 7118TIP3   OH242988   4.613   3.820   1.604 -0.0766  1.0229 -0.0291
 7118TIP3    H142989   4.687   3.829   1.664  0.7752  0.4899 -0.9897
 7118TIP3    H242990   4.649   3.780   1.526 -1.9229 -2.2494  0.5888
 7119TIP3   OH242991   6.725   4.826   0.541 -0.4130  0.0860  0.2381
 7119TIP3    H142992   6.654   4.890   0.530  0.2187  0.8642  0.5498
 7119TIP3    H242993   6.804   4.873   0.515  0.4650  0.3759  3.0387
 7120TIP3   OH242994   4.748   5.803   0.143  0.0310 -0.4495  0.2126
 7120TIP3    H142995   4.766   5.886   0.188  0.2684 -0.4833  0.1822
 7120TIP3    H242996   4.760   5.823   0.050 -0.5800 -0.3478  0.1497
 7121TIP3   OH242997   5.562   1.424   2.809  0.8906 -0.3790  0.0758
 7121TIP3    H142998   5.515   1.374   2.875  0.3976  0.4502  0.3717
 7121TIP3    H242999   5.497   1.442   2.741  0.2192  2.3008  1.3160
 7122TIP3   OH243000   2.923   1.262   8.098 -0.4757 -0.7733  0.2165
 7122TIP3    H143001   2.943   1.337   8.041 -0.3970  0.3460  1.6651
 7122TIP3    H243002   2.915   1.188   8.038  0.1413  0.2581 -1.1944
 7123TIP3   OH243003   1.547   2.560   1.309  0.2302  0.0950  0.4333
 7123TIP3    H143004   1.481   2.559   1.378 -0.8753 -1.6121 -0.5698
 7123TIP3    H243005   1.602   2.636   1.329  0.2459 -0.5857  3.4242
 7124TIP3   OH243006   0.169   5.642   8.205  0.3204 -0.2123  0.2192
 7124TIP3    H143007   0.133   5.676   8.287  0.8582  0.0461  0.3520
 7124TIP3    H243008   0.166   5.717   8.146  1.6592  0.1310  0.5587
 7125TIP3   OH243009   0.868   1.264   8.255  0.0927 -0.2955 -0.8391
 7125TIP3    H143010   0.933   1.212   8.302 -0.2503 -0.2285 -0.2900
 7125TIP3    H243011   0.785   1.242   8.296 -0.2097 -0.2393 -1.4183
 7126TIP3   OH243012   6.134   2.616   7.902  0.7130  0.0720  0.1715
 7126TIP3    H143013   6.161   2.642   7.990  1.0305 -1.0326  0.4050
 7126TIP3    H243014   6.066   2.550   7.916 -0.1543  0.8200 -0.4189
 7127TIP3   OH243015   2.943   6.066   6.175 -0.2441  0.7119  0.0550
 7127TIP3    H143016   2.851   6.093   6.170 -0.2947  0.4825 -0.3703
 7127TIP3    H243017   2.959   6.022   6.091  0.6096  1.8598 -0.4167
 7128TIP3   OH243018   1.032   6.629   6.792 -0.4268 -0.0576 -0.5663
 7128TIP3    H143019   1.030   6.656   6.700 -2.1964  1.1120 -0.2351
 7128TIP3    H243020   0.958   6.674   6.832  0.6308 -0.0731  1.5784
 7129TIP3   OH243021   5.708   0.928   1.245 -0.4019 -0.3415 -0.4185
 7129TIP3    H143022   5.708   0.855   1.183 -0.8898 -0.3696 -0.3915
 7129TIP3    H243023   5.762   0.995   1.204 -2.0874  0.3006 -1.6838
 7130TIP3   OH243024   1.315   2.005   2.374  0.2703  0.0480  0.3266
 7130TIP3    H143025   1.336   1.974   2.462  1.0637  0.5343  0.3197
 7130TIP3    H243026   1.371   2.082   2.362 -0.6021  0.6178 -0.2049
 7131TIP3   OH243027   0.144   5.440   0.650 -0.2035 -0.4193  0.1276
 7131TIP3    H143028   0.106   5.397   0.573  0.9849 -1.0813 -0.1123
 7131TIP3    H243029   0.079   5.507   0.674 -0.4954 -0.0180 -1.6109
 7132TIP3   OH243030   4.410   4.000   2.293  0.0805 -0.0552  0.0714
 7132TIP3    H143031   4.481   4.063   2.283  0.1704 -0.2333 -0.4105
 7132TIP3    H243032   4.439   3.941   2.363  1.3589 -1.4162 -1.5221
 7133TIP3   OH243033   4.858   3.004   6.950  0.0752  0.2817  0.1971
 7133TIP3    H143034   4.952   2.997   6.963  0.1586  2.9375  1.6524
 7133TIP3    H243035   4.843   3.095   6.926 -1.9361 -0.6031 -2.3962
 7134TIP3   OH243036   2.421   2.733   0.439  0.0577 -0.1237  0.3481
 7134TIP3    H143037   2.460   2.673   0.375  1.3029  0.2343  0.7278
 7134TIP3    H243038   2.329   2.737   0.415  0.3432 -0.5944 -0.9456
 7135TIP3   OH243039   0.466   0.405   1.201 -0.4716  0.2360  0.1381
 7135TIP3    H143040   0.400   0.379   1.265 -0.6190 -0.8567 -0.4177
 7135TIP3    H243041   0.417   0.418   1.120 -0.0328 -0.4861 -0.2556
 7136TIP3   OH243042   5.930   4.207   8.070  0.0569 -0.5488 -0.2008
 7136TIP3    H143043   5.959   4.236   7.984 -3.3451  1.1141 -0.9534
 7136TIP3    H243044   5.851   4.156   8.054 -0.8515  0.0613  1.9296
 7137TIP3   OH243045   0.002   4.332   7.753  0.0733 -0.5661  0.3503
 7137TIP3    H143046   0.038   4.414   7.788  2.3990 -1.4680  0.2130
 7137TIP3    H243047   0.078   4.276   7.739 -1.5069 -3.1813  1.4475
 7138TIP3   OH243048   6.366   6.132   0.031 -0.0792 -0.0820  0.3981
 7138TIP3    H143049   6.323   6.208   0.071  1.2811  0.4115  1.0022
 7138TIP3    H243050   6.295   6.084  -0.012 -0.9963  1.4708  0.0821
 7139TIP3   OH243051   1.049   0.980   6.851 -0.5909 -0.0811  0.1440
 7139TIP3    H143052   1.023   0.978   6.759 -1.1170 -0.4676  0.2942
 7139TIP3    H243053   1.012   1.062   6.885  0.3605  0.5026 -0.1957
 7140TIP3   OH243054   6.389   3.329   6.558  0.0455  0.3737  0.3757
 7140TIP3    H143055   6.385   3.240   6.524  1.2662  0.0594  0.9931
 7140TIP3    H243056   6.437   3.378   6.491 -1.1080  0.7351 -0.2308
 7141TIP3   OH243057   3.785   5.262   0.003  0.2325  0.2180 -0.2126
 7141TIP3    H143058   3.719   5.322  -0.032  0.1692 -0.7468 -1.8792
 7141TIP3    H243059   3.735   5.184   0.028  0.4302  0.4829  1.0477
 7142TIP3   OH243060   0.728   0.666   6.304 -0.4640 -0.4202  0.6973
 7142TIP3    H143061   0.781   0.740   6.334 -0.2160  0.0233 -0.7636
 7142TIP3    H243062   0.639   0.687   6.334 -0.2305  0.0076  1.1112
 7143TIP3   OH243063   5.358   0.098   7.539  0.9588 -0.0536  0.4422
 7143TIP3    H143064   5.397   0.033   7.480 -2.9254 -2.2631 -0.0330
 7143TIP3    H243065   5.379   0.182   7.499 -0.0708 -1.3814 -3.3168
 7144TIP3   OH243066   0.774   6.708   1.107 -0.4699 -0.2130 -0.4410
 7144TIP3    H143067   0.833   6.783   1.115 -2.2902  1.2327  0.1540
 7144TIP3    H243068   0.793   6.656   1.185 -1.7051  1.6077  1.1907
 7145TIP3   OH243069   1.456   2.616   8.090  0.7347  0.3825  0.1834
 7145TIP3    H143070   1.466   2.523   8.070 -4.0276 -0.3215 -0.1763
 7145TIP3    H243071   1.498   2.661   8.016 -0.1530 -1.6431 -1.6680
 7146TIP3   OH243072   4.435   4.187   7.202 -0.1668  0.2639 -0.3865
 7146TIP3    H143073   4.462   4.216   7.289 -2.2163 -0.0933  0.4328
 7146TIP3    H243074   4.516   4.186   7.151  1.1235  0.3634  1.5307
 7147TIP3   OH243075   0.248   6.355   8.178  0.1685  0.0898  0.0287
 7147TIP3    H143076   0.243   6.343   8.273  0.6306 -1.3651 -0.1065
 7147TIP3    H243077   0.163   6.325   8.146  0.2113  0.0662 -0.0627
 7148TIP3   OH243078   3.000   6.506   7.354  0.2764  0.0579  0.3244
 7148TIP3    H143079   3.092   6.488   7.335  0.3478  0.4966  0.2455
 7148TIP3    H243080   2.963   6.531   7.269  0.1152  0.0101  0.3808
 7149TIP3   OH243081   1.800   5.626   1.224  0.4417  0.0335  0.5430
 7149TIP3    H143082   1.837   5.663   1.144 -0.7225  2.6239  1.0993
 7149TIP3    H243083   1.725   5.574   1.194  1.6437 -1.3270 -0.2092
 7150TIP3   OH243084   3.899   1.577   2.289  0.7553 -0.6462  0.1608
 7150TIP3    H143085   3.806   1.556   2.287  0.8163 -0.9176  0.0554
 7150TIP3    H243086   3.903   1.672   2.295  0.4743 -0.4768 -1.6630
 7151TIP3   OH243087   0.891   0.317   7.308  0.5927 -0.9724 -0.3356
 7151TIP3    H143088   0.819   0.255   7.298 -0.1867  0.0213 -1.0699
 7151TIP3    H243089   0.870   0.388   7.247  1.5735 -0.0907  0.3296
 7152TIP3   OH243090   2.031   5.762   7.459  0.0237 -0.0564 -0.1696
 7152TIP3    H143091   1.999   5.780   7.371 -0.1887  1.7511  0.2299
 7152TIP3    H243092   2.027   5.847   7.503 -0.6729 -1.0763  1.8479
 7153TIP3   OH243093   5.399   5.368   8.549 -0.3919 -0.0707  0.0763
 7153TIP3    H143094   5.487   5.365   8.511 -0.8471  1.0881 -1.1785
 7153TIP3    H243095   5.359   5.285   8.523 -0.1664  0.0452 -0.6847
 7154TIP3   OH243096   4.427   6.803   8.311 -0.4153  0.1118 -0.3705
 7154TIP3    H143097   4.463   6.720   8.343 -0.0616  0.5244  0.3297
 7154TIP3    H243098   4.471   6.870   8.364  0.5920  0.8699 -2.0722
 7155TIP3   OH243099   3.964   5.121   7.081  0.1293 -0.1337  0.0757
 7155TIP3    H143100   3.907   5.196   7.065 -0.5996 -0.6603  0.1495
 7155TIP3    H243101   3.986   5.089   6.993 -2.8653 -2.2700 -0.0492
 7156TIP3   OH243102   3.563   4.545   0.563  0.2597 -0.2819  0.9925
 7156TIP3    H143103   3.568   4.489   0.640  3.9618 -1.5007  0.0441
 7156TIP3    H243104   3.650   4.542   0.525 -0.5477  2.8198 -1.5271
 7157TIP3   OH243105   6.310   0.929   0.067 -0.0814 -0.7944  0.0954
 7157TIP3    H143106   6.322   0.890   0.153 -0.0854 -0.4514  0.2550
 7157TIP3    H243107   6.359   1.011   0.071  0.1700 -0.9207 -0.3315
 7158TIP3   OH243108   4.346   3.262   8.481  0.4448 -0.0866 -0.2263
 7158TIP3    H143109   4.415   3.324   8.457 -1.5811  1.3479 -2.8495
 7158TIP3    H243110   4.314   3.294   8.566  1.0549  0.9863 -0.3835
 7159TIP3   OH243111   5.537   1.881   2.564 -0.1878  0.1125 -0.1493
 7159TIP3    H143112   5.467   1.852   2.622  2.0380  0.5075  3.0100
 7159TIP3    H243113   5.588   1.802   2.546 -0.6789  0.0548 -1.3332
 7160TIP3   OH243114   4.827   3.049   1.424  0.4177  0.3607 -0.1594
 7160TIP3    H143115   4.743   3.095   1.428  0.4198  0.3255  0.3765
 7160TIP3    H243116   4.812   2.968   1.473  0.9060  0.5900  0.3855
 7161TIP3   OH243117   4.627   6.461   6.484 -0.1711  0.1226  0.9013
 7161TIP3    H143118   4.546   6.431   6.443 -0.7292  1.5760  0.8803
 7161TIP3    H243119   4.689   6.390   6.469 -1.6477 -1.4017  1.6736
 7162TIP3   OH243120   4.370   5.795   7.918 -0.0233  0.3502  0.0060
 7162TIP3    H143121   4.297   5.740   7.891  0.8000 -0.4674 -0.6127
 7162TIP3    H243122   4.371   5.788   8.014 -0.9351  0.6177  0.0422
 7163TIP3   OH243123   1.961   2.986   1.188 -0.2915  0.7563  0.6437
 7163TIP3    H143124   1.996   2.975   1.277 -1.6997  1.8959  1.3634
 7163TIP3    H243125   2.034   3.024   1.139  0.7443 -0.5593  1.0915
 7164TIP3   OH243126   1.719   4.718   1.011  0.0014  0.6237 -0.0762
 7164TIP3    H143127   1.703   4.689   0.921  1.6170  0.7286 -0.4145
 7164TIP3    H243128   1.775   4.651   1.048 -0.0176  0.9839  0.6182
 7165TIP3   OH243129   1.969   0.520   7.268  0.2348 -0.1025 -0.3709
 7165TIP3    H143130   2.064   0.532   7.267  0.1768  0.3846 -0.9983
 7165TIP3    H243131   1.942   0.539   7.178 -0.5327  0.3960 -0.0440
 7166TIP3   OH243132   5.815   3.155   2.211 -0.1266 -0.9026 -0.1651
 7166TIP3    H143133   5.814   3.108   2.128 -0.6342  0.3543 -0.9078
 7166TIP3    H243134   5.893   3.209   2.207 -1.0431  0.4504 -0.6216
 7167TIP3   OH243135   0.100   2.565   0.596 -0.0564  0.6682  0.4361
 7167TIP3    H143136   0.009   2.566   0.565  0.3670  0.0068 -0.8896
 7167TIP3    H243137   0.123   2.473   0.603  0.2119  0.8153  1.7552
 7168TIP3   OH243138   3.207   1.707   7.213 -0.2429 -0.3087 -0.2800
 7168TIP3    H143139   3.214   1.616   7.184 -0.2965 -1.2812  2.4608
 7168TIP3    H243140   3.190   1.701   7.307 -0.9849  2.5501 -0.1356
 7169TIP3   OH243141   4.996   4.275   8.270 -0.1793  0.0426 -0.5033
 7169TIP3    H143142   5.062   4.219   8.229 -0.6376 -0.7788 -0.1416
 7169TIP3    H243143   4.913   4.232   8.249 -0.6382  1.2160 -1.2066
 7170TIP3   OH243144   2.824   4.179   2.700 -0.1139 -0.7354 -0.5602
 7170TIP3    H143145   2.767   4.162   2.625  0.6218 -0.7111 -1.1381
 7170TIP3    H243146   2.861   4.266   2.683 -3.0695  1.2264  1.8567
 7171TIP3   OH243147   2.272   4.990   1.834 -0.0743  0.1548 -0.0683
 7171TIP3    H143148   2.280   5.034   1.918  0.1198 -0.1910  0.0941
 7171TIP3    H243149   2.352   4.938   1.825 -0.3740 -0.3000 -0.1774
 7172TIP3   OH243150   2.635   6.345   8.288  0.4599  0.0082  0.6910
 7172TIP3    H143151   2.633   6.369   8.381 -2.7328  2.3553  0.1642
 7172TIP3    H243152   2.601   6.255   8.285  0.4555 -0.0318  1.7440
 7173TIP3   OH243153   5.458   6.100   8.195  0.1719 -0.0002  0.0492
 7173TIP3    H143154   5.362   6.108   8.190  0.0911 -0.3684  0.9145
 7173TIP3    H243155   5.473   6.011   8.226  0.8186 -0.1000 -0.5187
 7174TIP3   OH243156   4.036   1.700   6.822 -0.0676  0.3810 -0.1306
 7174TIP3    H143157   4.029   1.795   6.812 -3.5182  0.1472 -1.2584
 7174TIP3    H243158   4.104   1.674   6.760 -0.2232  1.9638 -1.0072
 7175TIP3   OH243159   1.943   4.130   2.657  0.3482  0.1040 -0.2974
 7175TIP3    H143160   1.917   4.087   2.576 -1.5442 -0.4876  0.5428
 7175TIP3    H243161   1.864   4.177   2.685  1.0801  0.6285  0.9713
 7176TIP3   OH243162   0.657   0.712   7.088 -0.1044  0.1535  0.0045
 7176TIP3    H143163   0.569   0.733   7.056  0.3516 -2.1966 -3.2491
 7176TIP3    H243164   0.662   0.617   7.085  2.2179  0.1579  1.2351
 7177LIG     O143165   3.091   4.250   1.975  0.6062 -0.1575 -0.4520
 7177LIG     O243166   2.942   4.582   2.230  0.2966  0.2057  0.3800
 7177LIG     N143167   2.782   4.472   2.107  0.1027  0.5177 -0.6241
 7177LIG     N243168   2.794   4.195   1.880  0.0049 -0.3134 -0.2454
 7177LIG     N343169   3.008   4.403   2.112 -0.4357 -0.1139 -0.0720
 7177LIG     N443170   2.635   4.329   1.971  0.3877  0.1196  0.9690
 7177LIG     C143171   2.856   4.282   1.972 -0.0002  0.4432 -0.1889
 7177LIG     C243172   2.755   4.360   2.025  0.1282 -0.5014  0.9191
 7177LIG     C343173   2.990   4.305   2.015 -0.1240 -0.0451  0.2058
 7177LIG     C443174   2.908   4.495   2.154  0.0133 -0.5451  0.1794
 7177LIG     C543175   2.659   4.226   1.891  0.5984 -0.0598  1.2404
 7177LIG     C643176   2.680   4.562   2.164  0.6333  1.2633 -0.0619
 7177LIG     C743177   2.861   4.099   1.794 -0.3652 -0.2041 -0.7738
 7177LIG     C843178   3.146   4.441   2.151 -0.1504  0.4357 -0.4127
 7177LIG     H143179   2.574   4.169   1.855  1.6576 -0.8179 -0.1832
 7177LIG     H243180   2.707   4.663   2.125  3.2441 -0.1537 -2.2682
 7177LIG     H343181   2.681   4.552   2.275 -2.2056 -1.5097 -0.1545
 7177LIG     H443182   2.582   4.525   2.130  0.9317 -2.6103  2.6440
 7177LIG     H543183   2.929   4.158   1.728  0.0535 -1.7502 -1.7659
 7177LIG     H643184   2.784   4.044   1.736 -0.2498  0.8176 -1.9374
 7177LIG     H743185   2.912   4.030   1.864  2.7011  2.1470 -0.4734
 7177LIG     H843186   3.181   4.500   2.064  3.4175  0.6988  1.0050
 7177LIG     H943187   3.214   4.354   2.166 -0.0927  0.6363  0.5579
 7177LIG    H1043188   3.146   4.494   2.249 -0.1442  2.2152 -1.3290
   6.93335   6.93335   8.62448
