Title
43188
    1CHL1    C3    1   4.932   3.611   6.088  0.0219  0.9327 -0.1512
    1CHL1    H3    2   5.032   3.568   6.109 -0.3566  0.5099  0.8154
    1CHL1    O3    3   4.879   3.646   6.212 -0.3673 -0.0794  0.4222
    1CHL1   H3'    4   4.785   3.653   6.190 -0.3711 -2.8105 -0.7716
    1CHL1    C4    5   4.943   3.728   5.989  0.7959  0.1792 -0.4056
    1CHL1   H4A    6   4.840   3.764   5.970  1.1140  1.3583  0.0717
    1CHL1   H4B    7   4.991   3.812   6.043 -1.4430  1.3606 -0.1411
    1CHL1    C5    8   5.006   3.698   5.859  0.0631 -0.1614  0.2166
    1CHL1    C6    9   5.116   3.756   5.810  0.7646  0.3203  0.0203
    1CHL1    H6   10   5.175   3.836   5.856  0.5740  0.1806  0.5175
    1CHL1    C7   11   5.180   3.701   5.691  0.2854 -0.7589  0.0080
    1CHL1   H7A   12   5.204   3.799   5.643 -5.0677  0.9638  0.1901
    1CHL1   H7B   13   5.264   3.637   5.726 -3.7332 -5.4631  2.4529
    1CHL1    C8   14   5.099   3.610   5.598 -0.1743 -0.5655 -0.2028
    1CHL1    H8   15   5.022   3.670   5.546  0.1058 -2.2236 -2.7044
    1CHL1   C14   16   5.188   3.539   5.498  1.1902  0.3158  0.1575
    1CHL1   H14   17   5.267   3.482   5.550 -0.4266 -0.3166  2.0685
    1CHL1   C15   18   5.263   3.630   5.398  0.3863 -0.7014 -0.3154
    1CHL1  H15A   19   5.190   3.702   5.354 -0.9422 -1.9202 -0.1889
    1CHL1  H15B   20   5.345   3.684   5.451 -1.7357  1.3487  1.1250
    1CHL1   C16   21   5.306   3.537   5.292 -0.4363  0.3372  0.0416
    1CHL1  H16A   22   5.295   3.584   5.192  0.5068  1.2870  0.3675
    1CHL1  H16B   23   5.413   3.510   5.301 -0.2951  0.5262 -0.9461
    1CHL1   C17   24   5.224   3.402   5.310 -0.6411  0.1236  0.0610
    1CHL1   H17   25   5.294   3.334   5.363 -1.0404 -0.9177 -0.7341
    1CHL1   C13   26   5.109   3.443   5.409 -0.0632 -0.2420 -0.1656
    1CHL1   C18   27   4.999   3.518   5.333  0.3167 -0.8853 -0.8596
    1CHL1  H18A   28   5.035   3.597   5.263 -2.7307  0.9638 -0.5323
    1CHL1  H18B   29   4.948   3.448   5.264 -0.9072 -2.6101  1.6550
    1CHL1  H18C   30   4.924   3.573   5.394  0.6998  0.6878 -1.7423
    1CHL1   C12   31   5.050   3.335   5.491  0.6989  0.3591 -0.3021
    1CHL1  H12A   32   4.993   3.277   5.416 -0.7670 -0.7231  1.5645
    1CHL1  H12B   33   5.142   3.287   5.531  0.4261 -0.7626 -1.0054
    1CHL1   C11   34   4.962   3.386   5.605  0.4981  0.4391 -0.3543
    1CHL1  H11A   35   4.874   3.409   5.541  1.8398  1.1989 -2.0293
    1CHL1  H11B   36   4.939   3.307   5.680 -0.2154  1.9428  1.0676
    1CHL1    C9   37   5.034   3.501   5.685 -0.0438  0.2038 -0.1020
    1CHL1    H9   38   5.115   3.455   5.746 -2.3375  0.3992  3.3384
    1CHL1   C10   39   4.949   3.566   5.798  0.1974 -0.1037  0.1684
    1CHL1   C19   40   4.812   3.602   5.732 -0.4444 -0.4416  0.2239
    1CHL1  H19A   41   4.753   3.521   5.684 -1.3722  0.7506 -0.7345
    1CHL1  H19B   42   4.735   3.640   5.803 -1.0531 -2.7994  0.9235
    1CHL1  H19C   43   4.817   3.681   5.654 -1.4028  0.4209  1.0139
    1CHL1    C1   44   4.914   3.458   5.907 -0.3306  0.2743  0.7218
    1CHL1   H1A   45   4.852   3.377   5.864  2.1818 -1.2577 -0.2336
    1CHL1   H1B   46   5.008   3.414   5.947  0.5268  0.8851 -0.5654
    1CHL1    C2   47   4.835   3.511   6.031 -0.6467  0.7786 -0.2235
    1CHL1   H2A   48   4.819   3.431   6.106 -0.1872 -0.1999 -1.1350
    1CHL1   H2B   49   4.739   3.557   5.999  0.2553  2.0520 -1.2373
    1CHL1   C20   50   5.200   3.320   5.182 -0.0568 -0.0038 -0.7891
    1CHL1   H20   51   5.114   3.258   5.214  1.7574 -2.4037 -0.3297
    1CHL1   C21   52   5.318   3.224   5.159 -0.4157  0.0633 -0.8669
    1CHL1  H21A   53   5.410   3.285   5.155 -1.1255  1.1923 -0.4141
    1CHL1  H21B   54   5.299   3.175   5.061 -1.7091  3.3006 -2.3917
    1CHL1  H21C   55   5.325   3.146   5.238  0.1778  0.8869 -0.0924
    1CHL1   C22   56   5.173   3.389   5.043  0.0611  0.2578 -0.4881
    1CHL1  H22A   57   5.120   3.483   5.068  2.6614  0.9267  3.4417
    1CHL1  H22B   58   5.273   3.407   4.996  0.3412  0.1576  0.0583
    1CHL1   C23   59   5.096   3.299   4.946 -0.1612 -0.5953  0.3535
    1CHL1  H23A   60   5.157   3.207   4.930 -1.8201 -1.6253 -0.2749
    1CHL1  H23B   61   5.000   3.266   4.989 -0.8104 -1.8663 -1.9261
    1CHL1   C24   62   5.051   3.373   4.814 -0.2497  0.0487 -1.4337
    1CHL1  H24A   63   5.145   3.394   4.759  1.8051 -1.2106  1.3114
    1CHL1  H24B   64   4.992   3.301   4.753 -2.6618  2.1656 -1.7333
    1CHL1   C25   65   4.967   3.501   4.828  0.4526 -0.0207  0.6903
    1CHL1   H25   66   5.034   3.587   4.852  0.7001 -0.5373  1.9114
    1CHL1   C26   67   4.910   3.522   4.684  0.1769  0.6876 -0.2021
    1CHL1  H26A   68   4.811   3.474   4.673 -0.1408  0.6094  2.4595
    1CHL1  H26B   69   4.895   3.628   4.655 -0.3980  0.0189 -2.5710
    1CHL1  H26C   70   4.982   3.469   4.617  1.0867  0.6129  0.7988
    1CHL1   C27   71   4.854   3.487   4.919  0.3268  0.1868 -0.2515
    1CHL1  H27A   72   4.791   3.578   4.928 -2.2141 -1.5853  0.9497
    1CHL1  H27B   73   4.788   3.401   4.895 -0.1179  0.1377  1.0600
    1CHL1  H27C   74   4.884   3.452   5.020 -1.7257 -1.2563 -0.0871
    2CHL1    C3   75   2.551   3.513   6.049 -0.0178 -0.3366 -0.3142
    2CHL1    H3   76   2.440   3.513   6.063 -0.1354  0.6278 -1.1157
    2CHL1    O3   77   2.599   3.471   6.173 -0.3722  0.1914 -0.3032
    2CHL1   H3'   78   2.693   3.488   6.167 -0.8474  2.8894 -2.0767
    2CHL1    C4   79   2.596   3.409   5.945  0.3512  0.2420 -0.2053
    2CHL1   H4A   80   2.706   3.413   5.958  0.3681  2.2516 -0.7474
    2CHL1   H4B   81   2.556   3.307   5.967 -0.0384 -0.7540 -4.5402
    2CHL1    C5   82   2.586   3.448   5.800 -0.2567  0.1862  0.7057
    2CHL1    C6   83   2.521   3.365   5.718 -0.1849  0.0437  0.4255
    2CHL1    H6   84   2.485   3.270   5.758  1.3921 -0.7941 -0.0754
    2CHL1    C7   85   2.496   3.401   5.571 -0.4825 -0.4218  0.4368
    2CHL1   H7A   86   2.526   3.316   5.506 -2.8245  0.6842 -2.3220
    2CHL1   H7B   87   2.390   3.433   5.567 -0.1715  0.8878  1.7725
    2CHL1    C8   88   2.581   3.516   5.525 -0.7855  0.0916  0.9173
    2CHL1    H8   89   2.685   3.477   5.529 -0.0754  1.2048 -2.8956
    2CHL1   C14   90   2.545   3.559   5.391 -0.2443 -0.0193  0.1583
    2CHL1   H14   91   2.436   3.581   5.393 -0.1784  0.3094  0.1802
    2CHL1   C15   92   2.555   3.445   5.281  0.7731  0.1439  0.0266
    2CHL1  H15A   93   2.643   3.379   5.269  0.0003 -0.6617 -1.6993
    2CHL1  H15B   94   2.469   3.374   5.283  1.8000 -1.1082  1.0363
    2CHL1   C16   95   2.527   3.526   5.152  0.1836  0.2662 -0.4009
    2CHL1  H16A   96   2.590   3.478   5.075  1.1797 -0.5880  0.8981
    2CHL1  H16B   97   2.418   3.516   5.132  0.1528  0.3434 -0.2759
    2CHL1   C17   98   2.565   3.671   5.189  0.1251  0.0822 -0.4120
    2CHL1   H17   99   2.472   3.731   5.192  0.8354  1.1466  0.9787
    2CHL1   C13  100   2.622   3.674   5.329 -0.6354 -0.2548 -0.2438
    2CHL1   C18  101   2.774   3.638   5.326  0.0140  0.8055  0.9662
    2CHL1  H18A  102   2.819   3.622   5.426  2.8972  2.4993  0.0591
    2CHL1  H18B  103   2.796   3.550   5.262 -1.4249  1.4859 -0.5391
    2CHL1  H18C  104   2.834   3.725   5.291 -1.5955  2.4955  2.2228
    2CHL1   C12  105   2.587   3.800   5.423 -0.8945 -0.2554  0.3207
    2CHL1  H12A  106   2.633   3.897   5.395 -1.2029 -0.5306 -1.2113
    2CHL1  H12B  107   2.477   3.812   5.421 -0.6960  2.2855  0.7996
    2CHL1   C11  108   2.635   3.765   5.573 -0.3669 -0.6782  0.3262
    2CHL1  H11A  109   2.746   3.766   5.573 -0.3578 -0.0080  1.0565
    2CHL1  H11B  110   2.596   3.852   5.630  0.4296  1.6788 -2.4759
    2CHL1    C9  111   2.570   3.630   5.618 -0.3541  0.0090 -0.9241
    2CHL1    H9  112   2.461   3.649   5.628  0.0566  1.2561  2.4270
    2CHL1   C10  113   2.630   3.589   5.757 -0.2215  0.2391  0.1059
    2CHL1   C19  114   2.778   3.622   5.753 -0.8108 -0.4814 -0.1965
    2CHL1  H19A  115   2.830   3.563   5.674  0.7632 -0.5853  0.8749
    2CHL1  H19B  116   2.801   3.730   5.743  1.3456 -1.0487 -2.1398
    2CHL1  H19C  117   2.830   3.595   5.848  0.8793  4.2014  0.4485
    2CHL1    C1  118   2.575   3.684   5.869 -0.5722  0.5051  0.0621
    2CHL1   H1A  119   2.604   3.790   5.853 -1.0177  0.7939  1.1410
    2CHL1   H1B  120   2.464   3.682   5.864 -0.5994  0.6794  0.5657
    2CHL1    C2  121   2.614   3.653   6.015  0.4255 -0.2590 -0.0902
    2CHL1   H2A  122   2.560   3.723   6.081  1.4443  0.2581  0.2087
    2CHL1   H2B  123   2.723   3.650   6.037  0.1931 -1.5489  1.0057
    2CHL1   C20  124   2.647   3.735   5.075  0.6868  0.4609 -0.3385
    2CHL1   H20  125   2.744   3.684   5.053  0.8121  0.1791  0.8364
    2CHL1   C21  126   2.668   3.884   5.115 -0.0905 -0.5269 -0.8312
    2CHL1  H21A  127   2.568   3.928   5.137 -1.5212 -2.9585 -2.0511
    2CHL1  H21B  128   2.723   3.944   5.039  1.6989 -0.4278  0.4606
    2CHL1  H21C  129   2.737   3.890   5.203 -1.9308 -2.9977  0.9239
    2CHL1   C22  130   2.573   3.721   4.945 -0.2323  0.4534 -0.4336
    2CHL1  H22A  131   2.551   3.616   4.915  0.5456 -0.3770  1.7472
    2CHL1  H22B  132   2.473   3.768   4.957  0.6014  2.2162 -0.2161
    2CHL1   C23  133   2.644   3.773   4.819  0.2203 -0.7489  0.7688
    2CHL1  H23A  134   2.653   3.884   4.821  0.8545 -0.7897  0.6060
    2CHL1  H23B  135   2.747   3.732   4.830  1.1127  0.4724 -2.1230
    2CHL1   C24  136   2.581   3.728   4.687 -0.5260  0.1694 -0.4792
    2CHL1  H24A  137   2.536   3.627   4.684  0.9221 -0.5013 -3.7419
    2CHL1  H24B  138   2.501   3.803   4.669  0.6770  1.2507 -1.6379
    2CHL1   C25  139   2.682   3.717   4.573 -0.6676  0.8006 -0.3409
    2CHL1   H25  140   2.759   3.797   4.574  2.1039 -1.6617 -1.3723
    2CHL1   C26  141   2.755   3.583   4.578  0.0515 -0.5085  0.5473
    2CHL1  H26A  142   2.801   3.562   4.677  0.7540  2.0302  0.8278
    2CHL1  H26B  143   2.691   3.494   4.562  0.5177 -0.7359 -0.0710
    2CHL1  H26C  144   2.837   3.587   4.503  0.3636  0.4834  0.9289
    2CHL1   C27  145   2.601   3.726   4.436 -0.4766  0.3257 -0.5091
    2CHL1  H27A  146   2.567   3.829   4.410  1.2150  1.1213  0.2296
    2CHL1  H27B  147   2.680   3.687   4.369  1.2031 -0.8772  1.9923
    2CHL1  H27C  148   2.513   3.661   4.454  0.3130 -0.7205 -0.3379
    3CHL1    C3  149   3.070   3.703   6.122 -0.6711  0.1183  0.5591
    3CHL1    H3  150   2.980   3.657   6.076 -1.5569  2.9892 -0.8374
    3CHL1    O3  151   3.090   3.655   6.248 -0.0372  0.0757 -0.3163
    3CHL1   H3'  152   3.167   3.601   6.232  0.0429  0.2992 -0.6996
    3CHL1    C4  153   3.186   3.653   6.034 -0.7239  0.1986 -0.0185
    3CHL1   H4A  154   3.281   3.695   6.073 -0.7330  1.2930 -1.1096
    3CHL1   H4B  155   3.192   3.542   6.039 -0.6647  0.1443 -1.0730
    3CHL1    C5  156   3.176   3.694   5.888 -0.2225  0.2365 -0.4604
    3CHL1    C6  157   3.164   3.606   5.793  0.7233  0.6326  0.6840
    3CHL1    H6  158   3.186   3.502   5.820 -1.1607  0.2806  1.0662
    3CHL1    C7  159   3.145   3.642   5.653 -0.0985  0.5321  0.1814
    3CHL1   H7A  160   3.224   3.585   5.599  0.9539  0.7315  1.4490
    3CHL1   H7B  161   3.045   3.604   5.623 -0.6648 -0.0798  2.6413
    3CHL1    C8  162   3.166   3.790   5.614  0.2727 -0.2732 -0.1918
    3CHL1    H8  163   3.273   3.816   5.617  0.5500 -0.9006 -2.6879
    3CHL1   C14  164   3.100   3.823   5.478  0.3438 -0.0506 -0.6035
    3CHL1   H14  165   2.994   3.805   5.505  0.4397 -1.1713 -0.9282
    3CHL1   C15  166   3.148   3.734   5.366  0.5236  0.2695  0.3139
    3CHL1  H15A  167   3.259   3.728   5.372  0.5323  0.7354  0.6261
    3CHL1  H15B  168   3.107   3.631   5.373 -0.2621  0.4744 -1.0452
    3CHL1   C16  169   3.107   3.818   5.237  0.4409 -0.3461 -0.4554
    3CHL1  H16A  170   3.201   3.831   5.179  0.8051 -3.2367 -0.7095
    3CHL1  H16B  171   3.041   3.765   5.166 -3.4012  3.2971  0.0098
    3CHL1   C17  172   3.038   3.951   5.286 -0.2514 -0.3161 -0.2837
    3CHL1   H17  173   2.931   3.925   5.301 -0.2207 -0.1499  0.2254
    3CHL1   C13  174   3.099   3.965   5.436 -0.7793  0.2410 -0.0567
    3CHL1   C18  175   3.244   4.015   5.411 -0.5272  0.2955 -0.1957
    3CHL1  H18A  176   3.306   3.950   5.346 -2.0998 -0.8128 -0.6521
    3CHL1  H18B  177   3.239   4.116   5.365  0.0545  1.6123  2.4238
    3CHL1  H18C  178   3.305   4.019   5.504 -0.8345  0.2148  0.0117
    3CHL1   C12  179   3.031   4.057   5.542  0.0300  0.1674 -0.4024
    3CHL1  H12A  180   3.050   4.164   5.516 -1.7460  0.4466 -0.7189
    3CHL1  H12B  181   2.925   4.030   5.562  0.4267 -1.5617 -0.4951
    3CHL1   C11  182   3.106   4.028   5.676  0.2133 -0.0521 -0.1980
    3CHL1  H11A  183   3.214   4.055   5.675  0.4983 -1.1082  0.4220
    3CHL1  H11B  184   3.046   4.085   5.751 -2.1653  0.5585 -2.4257
    3CHL1    C9  185   3.092   3.878   5.721  0.1944  1.0802  0.0773
    3CHL1    H9  186   2.982   3.859   5.712  0.2710  1.2489 -1.6680
    3CHL1   C10  187   3.148   3.848   5.872  0.1790 -0.2789  0.5867
    3CHL1   C19  188   3.276   3.935   5.891 -0.7503 -0.0332 -0.3048
    3CHL1  H19A  189   3.249   4.039   5.917  3.5501  0.9430  1.1347
    3CHL1  H19B  190   3.342   3.909   5.977  2.4373 -1.6539 -3.0089
    3CHL1  H19C  191   3.345   3.942   5.805 -0.7410  0.7006 -0.2436
    3CHL1    C1  192   3.036   3.897   5.976  0.1669  0.2197  0.4588
    3CHL1   H1A  193   3.021   4.007   5.971  0.3056  0.2894  1.4310
    3CHL1   H1B  194   2.944   3.855   5.930  1.4470 -0.5067 -1.5640
    3CHL1    C2  195   3.053   3.853   6.121 -0.2778  0.2065  0.3765
    3CHL1   H2A  196   2.963   3.879   6.182 -0.0694  0.0963  0.7362
    3CHL1   H2B  197   3.140   3.905   6.167 -0.0036  0.7897 -0.7563
    3CHL1   C20  198   3.051   4.070   5.187 -0.1429 -0.9244  0.1232
    3CHL1   H20  199   3.152   4.116   5.180  0.1438 -1.5745 -0.0525
    3CHL1   C21  200   2.958   4.180   5.229  0.1988  0.5676 -0.2225
    3CHL1  H21A  201   2.988   4.220   5.328  1.5410 -0.6575 -0.0976
    3CHL1  H21B  202   2.859   4.129   5.233  0.6055 -0.3472 -1.2007
    3CHL1  H21C  203   2.956   4.271   5.165  0.7703  2.0469  1.7732
    3CHL1   C22  204   3.029   4.018   5.043  0.0419 -0.2320 -0.4969
    3CHL1  H22A  205   3.120   3.970   5.000  0.6889  0.4754  0.0528
    3CHL1  H22B  206   2.958   3.932   5.044  0.1782 -0.4123  2.5131
    3CHL1   C23  207   2.985   4.115   4.935  0.3038  0.6055  0.3479
    3CHL1  H23A  208   2.883   4.149   4.963 -0.0723  0.8981 -1.3085
    3CHL1  H23B  209   3.057   4.198   4.921  1.7688 -0.0234  3.3283
    3CHL1   C24  210   2.956   4.045   4.802 -0.5168  0.3119  0.0280
    3CHL1  H24A  211   3.047   3.991   4.767  0.5880  1.6900  0.6985
    3CHL1  H24B  212   2.874   3.971   4.817 -0.4513  0.0788 -0.7238
    3CHL1   C25  213   2.930   4.146   4.689  0.2846  0.5602 -0.1958
    3CHL1   H25  214   3.002   4.230   4.685  0.5917  0.4655  1.9048
    3CHL1   C26  215   2.941   4.066   4.559 -0.2965 -0.2027  0.2323
    3CHL1  H26A  216   2.953   4.133   4.471 -0.9325 -2.1207 -1.3957
    3CHL1  H26B  217   3.024   3.992   4.556 -0.7936 -0.7902 -2.6443
    3CHL1  H26C  218   2.847   4.010   4.542  1.0146 -2.9822  1.4744
    3CHL1   C27  219   2.781   4.199   4.700 -0.2857 -0.4740  0.3491
    3CHL1  H27A  220   2.757   4.274   4.621 -0.7757  0.5348  1.4290
    3CHL1  H27B  221   2.711   4.113   4.699  0.3382 -1.0304  1.7740
    3CHL1  H27C  222   2.773   4.252   4.797  1.1963 -0.3761  0.4392
    4CHL1    C3  223   3.611   3.381   6.022  0.3102 -0.3092 -0.2895
    4CHL1    H3  224   3.572   3.298   5.959  0.0118  1.3775 -2.4646
    4CHL1    O3  225   3.596   3.345   6.159 -0.1438 -0.0164 -0.0878
    4CHL1   H3'  226   3.501   3.334   6.167 -0.0141 -0.3316  1.1138
    4CHL1    C4  227   3.757   3.411   5.976 -0.6108  0.4871 -0.2727
    4CHL1   H4A  228   3.788   3.498   6.038 -0.0897 -1.3183  2.1095
    4CHL1   H4B  229   3.824   3.330   6.011 -0.5119  0.7678  0.1963
    4CHL1    C5  230   3.757   3.441   5.821  1.3174  0.2545  0.1701
    4CHL1    C6  231   3.829   3.371   5.738  0.7232 -0.0716  0.4243
    4CHL1    H6  232   3.892   3.290   5.777 -0.3052 -2.6859 -2.8997
    4CHL1    C7  233   3.811   3.375   5.588  0.2451 -0.1413  0.4843
    4CHL1   H7A  234   3.908   3.366   5.534  0.6066  0.6121  0.9769
    4CHL1   H7B  235   3.748   3.291   5.555  2.6358 -2.0335  0.4333
    4CHL1    C8  236   3.769   3.510   5.544  0.1703 -0.1461  0.3278
    4CHL1    H8  237   3.855   3.578   5.561 -0.0507  0.2666 -0.1674
    4CHL1   C14  238   3.730   3.524   5.398  0.1821  0.9337  0.4263
    4CHL1   H14  239   3.651   3.448   5.380  0.6551  1.0292 -2.5888
    4CHL1   C15  240   3.836   3.485   5.291 -0.5738  0.4556 -1.1151
    4CHL1  H15A  241   3.937   3.518   5.326 -0.3063 -0.2802 -1.1697
    4CHL1  H15B  242   3.844   3.374   5.291 -0.2876  0.4754 -1.7962
    4CHL1   C16  243   3.783   3.548   5.160 -0.2576 -0.2260  0.0983
    4CHL1  H16A  244   3.873   3.594   5.113  0.3463  0.7271  2.0846
    4CHL1  H16B  245   3.747   3.459   5.104 -1.1021  0.8185 -1.0836
    4CHL1   C17  246   3.668   3.641   5.196  0.0404 -0.8050  0.3771
    4CHL1   H17  247   3.581   3.574   5.181 -0.4388 -0.1772  0.2921
    4CHL1   C13  248   3.680   3.662   5.352 -0.3742 -0.6919 -0.1865
    4CHL1   C18  249   3.790   3.773   5.369  0.1705 -0.1519 -0.0229
    4CHL1  H18A  250   3.751   3.868   5.325 -0.3989 -1.4547 -2.5050
    4CHL1  H18B  251   3.808   3.777   5.479 -1.0258 -0.4594  0.2028
    4CHL1  H18C  252   3.885   3.739   5.323  0.0725 -0.0774 -0.2796
    4CHL1   C12  253   3.549   3.705   5.426  0.3098  0.6967 -0.5514
    4CHL1  H12A  254   3.516   3.808   5.401 -0.1643  0.7405  0.2393
    4CHL1  H12B  255   3.474   3.626   5.405  1.7988  0.1720 -5.1325
    4CHL1   C11  256   3.580   3.708   5.581 -0.0888  0.0919  0.0807
    4CHL1  H11A  257   3.647   3.794   5.606 -0.8387  0.5529  0.5242
    4CHL1  H11B  258   3.480   3.723   5.627 -0.2201 -0.0720 -0.1492
    4CHL1    C9  259   3.641   3.562   5.624  0.2915 -0.0760  0.3844
    4CHL1    H9  260   3.564   3.488   5.595  1.5717 -1.1372 -0.3830
    4CHL1   C10  261   3.665   3.560   5.781  0.7593  0.6000  0.2333
    4CHL1   C19  262   3.744   3.687   5.823 -0.3492  0.8666  0.6897
    4CHL1  H19A  263   3.810   3.730   5.745 -0.3985 -0.0534  0.1178
    4CHL1  H19B  264   3.672   3.764   5.858 -2.2190 -0.1916 -0.6349
    4CHL1  H19C  265   3.802   3.661   5.914 -2.5197  0.3470  2.0117
    4CHL1    C1  266   3.529   3.553   5.855 -0.1260 -0.2488  0.0463
    4CHL1   H1A  267   3.487   3.656   5.848  1.4629  0.4362  0.3437
    4CHL1   H1B  268   3.465   3.475   5.807 -0.1066 -0.8076  0.9105
    4CHL1    C2  269   3.539   3.517   6.004 -0.0603  0.1233  0.5916
    4CHL1   H2A  270   3.430   3.504   6.025  0.0112 -0.5831  0.5662
    4CHL1   H2B  271   3.581   3.594   6.072  2.3036 -0.6337  0.0902
    4CHL1   C20  272   3.640   3.759   5.106 -0.4872  0.1906 -0.0516
    4CHL1   H20  273   3.689   3.851   5.145  0.5650 -0.4260  0.1070
    4CHL1   C21  274   3.491   3.788   5.112  0.3303 -0.2169  1.0634
    4CHL1  H21A  275   3.469   3.812   5.218  1.6415 -1.8299  1.7479
    4CHL1  H21B  276   3.437   3.698   5.076  1.7292  0.5013 -3.5936
    4CHL1  H21C  277   3.468   3.867   5.037 -0.6655  0.4752  2.0761
    4CHL1   C22  278   3.686   3.736   4.960 -0.1691  0.1452  0.4189
    4CHL1  H22A  279   3.671   3.825   4.895 -2.8007 -0.6648 -0.2015
    4CHL1  H22B  280   3.794   3.712   4.947 -0.4044 -0.6756 -0.1518
    4CHL1   C23  281   3.605   3.632   4.870 -0.1338 -0.1584 -0.3312
    4CHL1  H23A  282   3.629   3.530   4.905 -0.4170  0.2354  1.0897
    4CHL1  H23B  283   3.497   3.661   4.874 -0.0424  0.0805  0.7867
    4CHL1   C24  284   3.644   3.644   4.721  0.6562 -0.0101 -0.5778
    4CHL1  H24A  285   3.555   3.672   4.661 -1.4921  0.0634  2.4240
    4CHL1  H24B  286   3.719   3.724   4.704  3.2998 -2.1965  0.0425
    4CHL1   C25  287   3.694   3.519   4.657  0.3196  1.0502  0.3279
    4CHL1   H25  288   3.774   3.480   4.723  1.3714  1.3684 -0.7199
    4CHL1   C26  289   3.589   3.404   4.646  0.0052  0.1977 -0.7338
    4CHL1  H26A  290   3.626   3.311   4.598  0.4779 -0.1455  0.2613
    4CHL1  H26B  291   3.545   3.376   4.744 -0.4906 -0.2568 -1.0801
    4CHL1  H26C  292   3.499   3.436   4.588 -2.8963 -3.4063  1.3725
    4CHL1   C27  293   3.764   3.547   4.519  0.7018 -0.6264 -0.4101
    4CHL1  H27A  294   3.689   3.577   4.443 -1.1101  0.3835  1.6504
    4CHL1  H27B  295   3.846   3.623   4.516  0.3262 -0.1718  0.3335
    4CHL1  H27C  296   3.808   3.451   4.486 -1.8098 -1.8014 -0.5297
    5CHL1    C3  297   4.251   3.319   6.170  0.0964  0.0029 -0.8227
    5CHL1    H3  298   4.307   3.410   6.204  0.4143 -1.2334  2.3304
    5CHL1    O3  299   4.206   3.246   6.285 -1.0746 -0.0511 -0.2213
    5CHL1   H3'  300   4.287   3.239   6.337 -0.6535  1.1899 -0.6564
    5CHL1    C4  301   4.122   3.348   6.086 -0.7242 -0.0943  0.0375
    5CHL1   H4A  302   4.066   3.252   6.082 -4.0449  1.5748  1.8208
    5CHL1   H4B  303   4.056   3.411   6.149  0.0738 -0.4127  1.2413
    5CHL1    C5  304   4.147   3.410   5.955  0.1526  0.5327 -0.1352
    5CHL1    C6  305   4.085   3.522   5.920 -0.2439  0.1137  0.1731
    5CHL1    H6  306   4.010   3.568   5.986  0.0458  1.2568 -0.2842
    5CHL1    C7  307   4.115   3.594   5.787 -0.5072 -0.1537 -0.5414
    5CHL1   H7A  308   4.019   3.618   5.737 -0.0161  0.9548 -0.9781
    5CHL1   H7B  309   4.164   3.692   5.804 -1.3724  0.0611  0.8871
    5CHL1    C8  310   4.199   3.502   5.688  0.7984  0.2536  0.6699
    5CHL1    H8  311   4.127   3.425   5.652 -0.4522  1.9269 -0.5424
    5CHL1   C14  312   4.260   3.598   5.588  0.5675  0.7031 -0.3460
    5CHL1   H14  313   4.332   3.662   5.643  0.2898  0.7895 -0.0776
    5CHL1   C15  314   4.159   3.689   5.503  0.0503  0.4606  0.2178
    5CHL1  H15A  315   4.072   3.623   5.481 -0.3111  1.6943 -2.3267
    5CHL1  H15B  316   4.133   3.770   5.575  3.5685  3.0538 -1.1346
    5CHL1   C16  317   4.248   3.739   5.388  0.5741  0.0797  0.2068
    5CHL1  H16A  318   4.184   3.718   5.300  0.0734  2.3891 -0.0262
    5CHL1  H16B  319   4.262   3.849   5.392  0.0182  0.1897 -0.7561
    5CHL1   C17  320   4.385   3.662   5.403 -0.4589  0.4321  0.2438
    5CHL1   H17  321   4.455   3.722   5.464  0.9372 -0.2770 -0.5978
    5CHL1   C13  322   4.343   3.534   5.482 -0.4275  0.2267  0.4179
    5CHL1   C18  323   4.258   3.440   5.385  0.6851  0.0795 -0.4649
    5CHL1  H18A  324   4.319   3.366   5.328  2.9676  1.3258  0.2205
    5CHL1  H18B  325   4.193   3.376   5.449  0.5456  1.2352  0.5758
    5CHL1  H18C  326   4.187   3.491   5.317  2.3227  3.4614  0.1344
    5CHL1   C12  327   4.460   3.463   5.561  0.5058 -0.2317  0.6689
    5CHL1  H12A  328   4.530   3.409   5.494 -0.2254  0.7090 -0.9181
    5CHL1  H12B  329   4.526   3.540   5.607  2.5199 -1.5452  0.1072
    5CHL1   C11  330   4.414   3.364   5.669  0.4323  0.0018 -0.0621
    5CHL1  H11A  331   4.369   3.271   5.627 -1.0122 -0.4967  2.4113
    5CHL1  H11B  332   4.506   3.329   5.721  2.1501  3.4888 -0.5049
    5CHL1    C9  333   4.310   3.433   5.762 -0.1833 -0.2504 -0.6101
    5CHL1    H9  334   4.362   3.521   5.805 -1.0841  0.7814 -1.5654
    5CHL1   C10  335   4.264   3.340   5.880 -0.1616  0.1120  0.9013
    5CHL1   C19  336   4.191   3.208   5.823  0.3519 -0.3665  0.0927
    5CHL1  H19A  337   4.105   3.221   5.754 -0.5739 -1.2787  1.0455
    5CHL1  H19B  338   4.269   3.142   5.780 -2.2347 -1.5415 -3.2825
    5CHL1  H19C  339   4.160   3.149   5.911 -0.7191 -2.8691 -1.8408
    5CHL1    C1  340   4.389   3.303   5.966 -0.2755 -0.7891  0.2744
    5CHL1   H1A  341   4.443   3.229   5.905  1.2810  0.0667  0.5621
    5CHL1   H1B  342   4.451   3.395   5.969  0.6910 -1.4403  2.9824
    5CHL1    C2  343   4.358   3.240   6.096  0.2029 -0.6020  0.1266
    5CHL1   H2A  344   4.450   3.240   6.159  0.2890  3.1931  0.2290
    5CHL1   H2B  345   4.330   3.135   6.075 -0.1947  0.0511 -3.3348
    5CHL1   C20  346   4.449   3.639   5.267  0.0285 -0.4453  0.6910
    5CHL1   H20  347   4.386   3.567   5.211  1.9258  0.8395 -3.5242
    5CHL1   C21  348   4.588   3.585   5.282 -0.1171  0.0047  0.5059
    5CHL1  H21A  349   4.648   3.652   5.346 -0.5567  0.0350  0.8931
    5CHL1  H21B  350   4.641   3.560   5.187  0.9112  1.1145  0.7670
    5CHL1  H21C  351   4.588   3.484   5.329  1.2485 -0.2570 -0.0153
    5CHL1   C22  352   4.444   3.758   5.171  0.7276  0.0076  0.4906
    5CHL1  H22A  353   4.341   3.796   5.158  1.0721  1.0604  0.7036
    5CHL1  H22B  354   4.497   3.842   5.221  0.6366 -0.0147  0.6234
    5CHL1   C23  355   4.503   3.730   5.036  0.7904  0.0692  0.4635
    5CHL1  H23A  356   4.610   3.699   5.034  0.2020 -2.2708 -2.0564
    5CHL1  H23B  357   4.451   3.641   4.993 -0.0291  0.3387  0.8807
    5CHL1   C24  358   4.480   3.854   4.948  0.7625  0.3275  0.1963
    5CHL1  H24A  359   4.371   3.872   4.957  0.3338  0.0640 -3.1300
    5CHL1  H24B  360   4.532   3.939   4.999  1.0482 -0.5066  1.3419
    5CHL1   C25  361   4.507   3.845   4.795 -0.3322 -0.1995 -0.3710
    5CHL1   H25  362   4.598   3.784   4.776 -0.4867 -0.2988 -0.8259
    5CHL1   C26  363   4.403   3.761   4.715  0.0349  0.1508 -0.6895
    5CHL1  H26A  364   4.428   3.653   4.722  0.1946  0.1491 -1.2341
    5CHL1  H26B  365   4.297   3.784   4.737  0.3447  1.0501 -0.0822
    5CHL1  H26C  366   4.419   3.784   4.607 -0.8646  1.3397 -0.5863
    5CHL1   C27  367   4.530   3.986   4.733 -0.0501  0.3632 -0.4821
    5CHL1  H27A  368   4.454   4.062   4.760  1.9893  2.4186 -0.1952
    5CHL1  H27B  369   4.626   4.013   4.783 -0.9113  1.1745  0.8093
    5CHL1  H27C  370   4.550   3.980   4.624 -0.6170  2.6390 -0.7605
    6CHL1    C3  371   0.169   4.008   5.975  0.4094  0.7283 -0.4219
    6CHL1    H3  372   0.191   4.116   5.968  1.3200  0.5491 -0.4694
    6CHL1    O3  373   0.105   3.977   6.093 -0.2786 -0.0374  0.4041
    6CHL1   H3'  374   0.024   4.027   6.091 -0.4543 -0.0950  3.0178
    6CHL1    C4  375   0.094   3.966   5.849 -0.1280  0.1395  0.1782
    6CHL1   H4A  376   0.062   3.862   5.867 -2.9293  0.7573 -0.7279
    6CHL1   H4B  377   0.002   4.028   5.839  1.0659  1.9688 -0.0524
    6CHL1    C5  378   0.177   3.958   5.727  0.5625 -0.3168 -0.0552
    6CHL1    C6  379   0.141   4.021   5.616  0.3638 -0.3644 -0.5194
    6CHL1    H6  380   0.041   4.065   5.619  0.6509  0.2999  1.8849
    6CHL1    C7  381   0.213   4.012   5.487  0.1175 -0.0946  0.1100
    6CHL1   H7A  382   0.143   3.973   5.410  2.0738  0.6405 -2.1798
    6CHL1   H7B  383   0.255   4.110   5.455 -0.0292  0.5818  1.8796
    6CHL1    C8  384   0.318   3.907   5.485 -0.0383  0.0853  0.5907
    6CHL1    H8  385   0.266   3.810   5.471 -0.7030  0.7245 -1.9137
    6CHL1   C14  386   0.408   3.927   5.364  0.4206 -0.6357  0.5041
    6CHL1   H14  387   0.444   4.031   5.376 -1.4951 -0.1145  2.4872
    6CHL1   C15  388   0.340   3.929   5.231 -0.1283 -0.6987 -0.2964
    6CHL1  H15A  389   0.279   3.837   5.219  0.5246 -0.7698 -4.0933
    6CHL1  H15B  390   0.272   4.017   5.219  0.1811 -0.1546  1.5785
    6CHL1   C16  391   0.461   3.925   5.141 -0.8749 -0.8716 -0.8242
    6CHL1  H16A  392   0.450   3.862   5.050  0.7798  0.0074 -1.6741
    6CHL1  H16B  393   0.483   4.021   5.090 -0.8295 -0.5746 -0.2558
    6CHL1   C17  394   0.589   3.891   5.224 -0.1620  0.1293  0.6305
    6CHL1   H17  395   0.640   3.985   5.253  1.1983  0.4343 -2.3498
    6CHL1   C13  396   0.529   3.833   5.353 -0.5571  0.2860  1.2468
    6CHL1   C18  397   0.469   3.692   5.334  0.0110  0.0225 -0.4338
    6CHL1  H18A  398   0.442   3.658   5.436 -1.5539 -1.4952 -1.2989
    6CHL1  H18B  399   0.390   3.679   5.257 -0.7584  0.9582  0.1765
    6CHL1  H18C  400   0.555   3.629   5.303 -1.0692 -1.8186  0.1366
    6CHL1   C12  401   0.619   3.844   5.481  0.8294  0.1565 -0.0895
    6CHL1  H12A  402   0.693   3.762   5.472 -0.5944 -1.1642 -0.2631
    6CHL1  H12B  403   0.662   3.946   5.470  0.4975  0.2344 -0.7035
    6CHL1   C11  404   0.535   3.825   5.614  0.6682  0.5326  0.0956
    6CHL1  H11A  405   0.508   3.718   5.624  2.7652 -0.4966 -3.2642
    6CHL1  H11B  406   0.600   3.849   5.700 -0.0292  1.3072  0.4124
    6CHL1    C9  407   0.402   3.911   5.614  0.1801  0.0052 -0.6155
    6CHL1    H9  408   0.438   4.016   5.628  1.2454 -0.6630  2.4285
    6CHL1   C10  409   0.315   3.887   5.744  1.0437 -0.2888  0.0804
    6CHL1   C19  410   0.276   3.745   5.743  0.2106  0.2240 -0.6827
    6CHL1  H19A  411   0.360   3.674   5.756  0.4905  0.5304 -0.8121
    6CHL1  H19B  412   0.214   3.720   5.832  2.4978  0.1278  0.9854
    6CHL1  H19C  413   0.216   3.707   5.658 -2.5762  1.7644  0.4720
    6CHL1    C1  414   0.388   3.939   5.869  0.1308  0.6185 -0.0217
    6CHL1   H1A  415   0.471   3.867   5.889 -0.6962  0.2239  2.3392
    6CHL1   H1B  416   0.427   4.041   5.848 -2.2220  1.1387 -2.1994
    6CHL1    C2  417   0.298   3.931   5.998 -0.0789 -0.8389 -0.3652
    6CHL1   H2A  418   0.363   3.976   6.076  0.0366 -0.4758 -0.6665
    6CHL1   H2B  419   0.273   3.829   6.032  1.1872 -1.0700 -0.1036
    6CHL1   C20  420   0.689   3.808   5.142 -0.8879  0.2394  0.1110
    6CHL1   H20  421   0.642   3.710   5.117 -1.1863  0.5808 -0.6963
    6CHL1   C21  422   0.813   3.792   5.232  0.6385 -0.0017  0.1928
    6CHL1  H21A  423   0.896   3.762   5.165 -1.0347  0.6232 -2.2915
    6CHL1  H21B  424   0.803   3.707   5.303  0.1557 -0.0547  0.0611
    6CHL1  H21C  425   0.840   3.891   5.275  0.0775  0.8516 -1.3433
    6CHL1   C22  426   0.717   3.855   5.000  0.2543  0.6236 -0.0283
    6CHL1  H22A  427   0.621   3.873   4.947 -0.2298 -1.4709  0.0441
    6CHL1  H22B  428   0.779   3.946   4.987 -0.3479  0.9956 -0.3088
    6CHL1   C23  429   0.796   3.759   4.913 -0.0409 -0.0466  0.0875
    6CHL1  H23A  430   0.889   3.721   4.960  0.5061 -1.2949 -1.8561
    6CHL1  H23B  431   0.724   3.676   4.895  1.2566 -1.6464  1.8145
    6CHL1   C24  432   0.831   3.818   4.781  0.3710 -0.4604  0.1939
    6CHL1  H24A  433   0.743   3.840   4.717  0.8401 -0.0050 -0.3036
    6CHL1  H24B  434   0.892   3.910   4.788 -0.7171  0.2415  0.6828
    6CHL1   C25  435   0.909   3.715   4.687  0.5274  0.3430  0.2312
    6CHL1   H25  436   1.003   3.682   4.736  1.0886  1.3803 -0.0964
    6CHL1   C26  437   0.816   3.599   4.655  0.3098  0.2976  0.2090
    6CHL1  H26A  438   0.871   3.529   4.589 -0.8771  1.4899 -2.1611
    6CHL1  H26B  439   0.775   3.550   4.746  1.1111 -0.6667  0.0618
    6CHL1  H26C  440   0.722   3.629   4.603  0.6963  0.0286 -0.6599
    6CHL1   C27  441   0.951   3.776   4.552 -0.2853 -0.8833 -0.5559
    6CHL1  H27A  442   0.864   3.790   4.484  0.5281  0.2496 -1.4071
    6CHL1  H27B  443   1.005   3.872   4.568 -1.1268 -0.3292 -0.9240
    6CHL1  H27C  444   1.023   3.707   4.504  0.2543 -0.5370 -0.2607
    7CHL1    C3  445   3.592   0.946   6.186  0.2377 -0.6390  0.0202
    7CHL1    H3  446   3.497   1.001   6.200 -0.2049 -0.4076 -3.2005
    7CHL1    O3  447   3.642   0.937   6.317 -0.2455  0.4204 -0.2068
    7CHL1   H3'  448   3.703   1.011   6.327 -0.0976  0.5653 -1.9913
    7CHL1    C4  449   3.589   0.810   6.113 -0.3332  0.1243 -0.0418
    7CHL1   H4A  450   3.684   0.753   6.123 -0.5448  0.0414  1.6775
    7CHL1   H4B  451   3.520   0.745   6.170  0.2609 -1.5116 -1.1041
    7CHL1    C5  452   3.554   0.823   5.961  0.4139 -0.4440  0.2739
    7CHL1    C6  453   3.456   0.746   5.901  0.2883  0.0532 -0.3521
    7CHL1    H6  454   3.403   0.671   5.961  0.8789 -0.5805 -0.6037
    7CHL1    C7  455   3.427   0.745   5.745 -0.1009 -0.5767  0.3744
    7CHL1   H7A  456   3.406   0.643   5.706  0.2469 -0.0917 -1.1763
    7CHL1   H7B  457   3.334   0.803   5.726 -0.3748 -1.6744 -2.0081
    7CHL1    C8  458   3.538   0.803   5.665 -0.1994 -0.3855 -1.4707
    7CHL1    H8  459   3.629   0.741   5.657  0.4309  0.0410  1.4670
    7CHL1   C14  460   3.492   0.838   5.527 -0.8212  0.1970  0.5458
    7CHL1   H14  461   3.401   0.899   5.546 -2.3130 -1.9244  0.5782
    7CHL1   C15  462   3.434   0.725   5.439 -0.9705  0.4758 -0.5635
    7CHL1  H15A  463   3.509   0.643   5.446  1.0814  2.2502 -0.8425
    7CHL1  H15B  464   3.331   0.696   5.469  0.0539 -4.5927 -1.0897
    7CHL1   C16  465   3.441   0.788   5.291 -0.1402  1.2986 -0.2761
    7CHL1  H16A  466   3.500   0.715   5.231 -0.7216 -0.1184  0.8144
    7CHL1  H16B  467   3.339   0.800   5.249 -1.2432 -0.9139  1.5130
    7CHL1   C17  468   3.509   0.917   5.302 -0.6025  0.1650 -0.1303
    7CHL1   H17  469   3.430   0.992   5.325 -2.1844 -1.5846  0.3379
    7CHL1   C13  470   3.590   0.915   5.436  0.3161  0.0265 -0.3366
    7CHL1   C18  471   3.723   0.847   5.417 -0.1243  0.4998  0.0354
    7CHL1  H18A  472   3.714   0.755   5.356  0.0005 -0.3322  1.2474
    7CHL1  H18B  473   3.800   0.911   5.370  0.8722 -0.4370  0.3549
    7CHL1  H18C  474   3.771   0.820   5.513 -0.5408  2.6333  0.8981
    7CHL1   C12  475   3.612   1.049   5.508  0.5956 -0.6285 -0.3658
    7CHL1  H12A  476   3.675   1.118   5.447  0.5658  0.6903  1.0509
    7CHL1  H12B  477   3.519   1.109   5.514  0.7613 -0.4156  0.1102
    7CHL1   C11  478   3.670   1.031   5.649  0.2439 -0.6308 -0.2688
    7CHL1  H11A  479   3.776   0.998   5.640  0.7605  0.7848  0.3599
    7CHL1  H11B  480   3.679   1.132   5.695  0.2922 -0.2048 -1.1956
    7CHL1    C9  481   3.577   0.937   5.739 -0.4814 -0.0523  0.5017
    7CHL1    H9  482   3.483   0.994   5.756 -0.3694  0.3394 -0.1384
    7CHL1   C10  483   3.641   0.917   5.878  0.7039  0.1166  0.5826
    7CHL1   C19  484   3.785   0.865   5.861 -0.5814  0.0985  0.5371
    7CHL1  H19A  485   3.805   0.783   5.788  1.8732  1.2608 -0.2122
    7CHL1  H19B  486   3.848   0.952   5.833 -0.3094 -0.1490  0.3751
    7CHL1  H19C  487   3.825   0.823   5.956  0.9627 -1.2638 -0.6521
    7CHL1    C1  488   3.640   1.054   5.954 -0.1576 -0.1178 -0.0328
    7CHL1   H1A  489   3.702   1.134   5.907 -0.4483  0.1981  0.1137
    7CHL1   H1B  490   3.533   1.079   5.940 -0.0035  1.1857  0.9066
    7CHL1    C2  491   3.677   1.046   6.105  0.5267  0.1392  0.0802
    7CHL1   H2A  492   3.661   1.141   6.161 -1.4859  0.0156 -0.2124
    7CHL1   H2B  493   3.783   1.016   6.121 -0.2378 -1.5851  2.4755
    7CHL1   C20  494   3.577   0.959   5.174  0.2592 -0.0202 -0.7462
    7CHL1   H20  495   3.643   1.045   5.200  0.1076 -0.0192 -0.3621
    7CHL1   C21  496   3.462   1.014   5.087  0.3358  0.3385 -0.0611
    7CHL1  H21A  497   3.491   1.043   4.984  1.6151 -0.3074  0.1061
    7CHL1  H21B  498   3.416   1.101   5.139 -0.8462  0.3207 -1.0126
    7CHL1  H21C  499   3.373   0.947   5.091 -0.1174  0.2506 -4.9014
    7CHL1   C22  500   3.657   0.858   5.083 -0.4825 -0.3256  0.3039
    7CHL1  H22A  501   3.723   0.787   5.138 -1.0575 -0.4792  0.8178
    7CHL1  H22B  502   3.584   0.786   5.039  0.8067 -2.0012  0.7879
    7CHL1   C23  503   3.729   0.928   4.965  0.1636  0.1035  0.8971
    7CHL1  H23A  504   3.662   0.983   4.895  0.3292  0.3068  0.8957
    7CHL1  H23B  505   3.810   0.997   4.996  0.7537 -0.8504  1.5111
    7CHL1   C24  506   3.789   0.824   4.882 -0.2054  0.9074  0.3603
    7CHL1  H24A  507   3.872   0.757   4.916  0.0726 -0.3260 -2.4439
    7CHL1  H24B  508   3.704   0.759   4.852  1.2888  0.1519 -2.6135
    7CHL1   C25  509   3.834   0.874   4.742 -0.1475  0.0057 -0.1121
    7CHL1   H25  510   3.886   0.970   4.761 -1.8033  0.6488  1.5116
    7CHL1   C26  511   3.921   0.770   4.669  1.2370  0.3559 -0.0415
    7CHL1  H26A  512   4.023   0.747   4.707  1.1422  1.2632  0.8147
    7CHL1  H26B  513   3.856   0.680   4.661 -1.0916  2.0015 -0.9846
    7CHL1  H26C  514   3.930   0.807   4.565  0.1116  2.4940  0.5532
    7CHL1   C27  515   3.707   0.902   4.655  0.5541  0.8143  0.8907
    7CHL1  H27A  516   3.744   0.913   4.550 -0.8216 -1.8746  0.0122
    7CHL1  H27B  517   3.649   0.807   4.655  1.6665  0.1186  0.5840
    7CHL1  H27C  518   3.646   0.989   4.686 -2.3009 -0.3705 -0.9460
    8CHL1    C3  519   0.373   1.184   5.767 -0.5703  0.1550  0.4396
    8CHL1    H3  520   0.457   1.200   5.697 -1.5971 -1.5851 -1.3033
    8CHL1    O3  521   0.393   1.210   5.902 -0.2481 -0.3068 -0.7385
    8CHL1   H3'  522   0.320   1.168   5.948 -0.8635  0.5945 -0.8546
    8CHL1    C4  523   0.258   1.261   5.715 -0.1582 -0.2885  0.0966
    8CHL1   H4A  524   0.170   1.253   5.783 -0.3093 -1.2489 -0.1895
    8CHL1   H4B  525   0.289   1.367   5.719 -0.6738 -0.0910 -0.7449
    8CHL1    C5  526   0.219   1.230   5.572  0.3108 -0.2062  0.4235
    8CHL1    C6  527   0.228   1.322   5.474 -0.1930 -0.1742  0.5840
    8CHL1    H6  528   0.259   1.423   5.504 -1.3150  0.9372 -1.7704
    8CHL1    C7  529   0.198   1.294   5.330  0.6742 -0.1231  0.0624
    8CHL1   H7A  530   0.135   1.375   5.289  0.9808 -0.9776 -2.2406
    8CHL1   H7B  531   0.287   1.303   5.264  0.1070  0.3026 -0.6571
    8CHL1    C8  532   0.121   1.159   5.315  0.9755 -0.2493 -0.1699
    8CHL1    H8  533   0.016   1.173   5.349  1.0644  1.4961 -0.4993
    8CHL1   C14  534   0.116   1.113   5.169 -0.6499 -0.3467  0.0825
    8CHL1   H14  535   0.221   1.085   5.144 -0.7657  0.6568 -1.6854
    8CHL1   C15  536   0.080   1.224   5.067  0.2598 -0.0235 -0.2144
    8CHL1  H15A  537  -0.008   1.278   5.109  0.2432  0.7684 -1.2514
    8CHL1  H15B  538   0.167   1.292   5.068  0.9708 -0.8856  1.1363
    8CHL1   C16  539   0.048   1.152   4.933  0.5888 -0.0664 -0.0869
    8CHL1  H16A  540  -0.052   1.181   4.894  1.0196  2.2212  0.3402
    8CHL1  H16B  541   0.125   1.178   4.857  0.5246 -1.3097 -0.6005
    8CHL1   C17  542   0.054   0.999   4.978 -0.7198  0.0994  0.4396
    8CHL1   H17  543   0.162   0.974   4.975 -1.6382 -4.9947 -1.7739
    8CHL1   C13  544   0.034   0.989   5.133 -0.2109 -0.4222 -0.7767
    8CHL1   C18  545  -0.110   1.017   5.164 -0.2342  0.3188 -0.4490
    8CHL1  H18A  546  -0.133   1.013   5.272  0.9237  0.2565 -0.1884
    8CHL1  H18B  547  -0.154   1.106   5.115  1.0759  0.1429 -2.0593
    8CHL1  H18C  548  -0.173   0.939   5.116  0.4317 -0.8067  0.4528
    8CHL1   C12  549   0.103   0.877   5.215  0.2464  0.1196  0.3515
    8CHL1  H12A  550   0.034   0.790   5.216 -0.2321  0.5010  0.9895
    8CHL1  H12B  551   0.205   0.848   5.181  0.3400  0.1628  0.5966
    8CHL1   C11  552   0.104   0.908   5.362  0.0795 -0.4971 -0.2191
    8CHL1  H11A  553   0.002   0.906   5.406  0.6893 -4.0682  1.2900
    8CHL1  H11B  554   0.162   0.831   5.417 -0.9457 -1.1979 -0.1015
    8CHL1    C9  555   0.176   1.045   5.401  0.6742  0.2327 -0.6306
    8CHL1    H9  556   0.283   1.038   5.371  0.4177  1.9294 -2.1270
    8CHL1   C10  557   0.187   1.082   5.553  1.0554 -0.1065 -0.0051
    8CHL1   C19  558   0.044   1.040   5.623 -0.6142  0.0060 -0.2374
    8CHL1  H19A  559   0.026   0.931   5.613 -2.5177  0.3841 -1.2401
    8CHL1  H19B  560   0.032   1.062   5.731 -0.4930  2.7909 -0.7171
    8CHL1  H19C  561  -0.033   1.103   5.573 -1.4145 -0.3588  0.5129
    8CHL1    C1  562   0.304   0.992   5.619 -0.0028  0.9453  0.6446
    8CHL1   H1A  563   0.269   0.887   5.622  0.7315  0.5481 -2.2153
    8CHL1   H1B  564   0.395   1.002   5.557 -1.0087  0.9852 -0.8880
    8CHL1    C2  565   0.345   1.037   5.763  0.5957 -0.0632 -1.1950
    8CHL1   H2A  566   0.419   0.964   5.804 -0.7119 -0.8622 -0.1816
    8CHL1   H2B  567   0.261   1.017   5.833  0.6726  0.7359 -0.8654
    8CHL1   C20  568  -0.025   0.904   4.885  0.3240  0.0575  0.2278
    8CHL1   H20  569  -0.134   0.919   4.897  0.0730 -0.3563 -1.3384
    8CHL1   C21  570   0.010   0.764   4.931 -0.4229  0.2879 -0.3253
    8CHL1  H21A  571  -0.004   0.694   4.846  0.9737 -1.5375  0.8884
    8CHL1  H21B  572  -0.041   0.734   5.025 -0.6173  0.3856 -0.3978
    8CHL1  H21C  573   0.118   0.748   4.948  0.0578  1.7256 -1.7078
    8CHL1   C22  574   0.005   0.924   4.740 -0.3607  0.3369  0.3588
    8CHL1  H22A  575  -0.066   0.851   4.696 -1.2675  0.2028  1.9716
    8CHL1  H22B  576  -0.033   1.025   4.713 -3.1656 -0.9168 -0.6760
    8CHL1   C23  577   0.146   0.906   4.683  0.0475 -0.0494  0.0799
    8CHL1  H23A  578   0.217   0.986   4.714  1.3776 -0.3803 -1.9512
    8CHL1  H23B  579   0.179   0.816   4.738  0.1194 -0.8202 -1.1956
    8CHL1   C24  580   0.141   0.887   4.532  0.0628 -0.4526  0.2758
    8CHL1  H24A  581   0.075   0.799   4.517 -1.8038  1.0901 -0.9689
    8CHL1  H24B  582   0.076   0.970   4.498  0.6083  0.1264  0.6164
    8CHL1   C25  583   0.270   0.881   4.448 -0.2765 -0.4130 -0.1797
    8CHL1   H25  584   0.336   0.805   4.495 -0.2031 -0.0622  0.2937
    8CHL1   C26  585   0.233   0.837   4.307 -0.5653  0.0783  0.3004
    8CHL1  H26A  586   0.198   0.732   4.310 -0.1709 -0.1117 -0.9274
    8CHL1  H26B  587   0.166   0.911   4.258 -0.1133 -0.7226 -1.6378
    8CHL1  H26C  588   0.331   0.833   4.254 -2.3361  1.2151 -3.4383
    8CHL1   C27  589   0.332   1.017   4.446  0.0502 -0.0157  0.2327
    8CHL1  H27A  590   0.428   1.031   4.392  0.0396 -1.6524 -0.2694
    8CHL1  H27B  591   0.265   1.094   4.403  0.3771  1.1413  1.7174
    8CHL1  H27C  592   0.342   1.053   4.550  0.5344  0.2236  0.1058
    9CHL1    C3  593   4.648   2.913   6.244  1.0877  0.2245  0.5486
    9CHL1    H3  594   4.559   2.979   6.246  0.8450 -0.0922  0.3594
    9CHL1    O3  595   4.672   2.871   6.380  0.0099  0.3286  0.4005
    9CHL1   H3'  596   4.745   2.809   6.371  1.6043  2.1918 -0.2805
    9CHL1    C4  597   4.600   2.797   6.151  0.2267  0.0198  0.0906
    9CHL1   H4A  598   4.683   2.723   6.144  0.7269  0.5838 -0.1076
    9CHL1   H4B  599   4.520   2.742   6.205  0.6420 -0.3934  0.2896
    9CHL1    C5  600   4.574   2.850   6.013 -0.7702  0.2315 -0.0966
    9CHL1    C6  601   4.460   2.808   5.954  0.0353 -1.0744  0.4077
    9CHL1    H6  602   4.394   2.749   6.019  0.1009  0.2040  1.6942
    9CHL1    C7  603   4.421   2.847   5.808  0.2597  0.3942 -0.2025
    9CHL1   H7A  604   4.365   2.758   5.773 -0.0540 -0.3877  2.1035
    9CHL1   H7B  605   4.346   2.929   5.804 -0.3152 -0.1751 -2.6809
    9CHL1    C8  606   4.545   2.880   5.729 -0.2763 -0.4002 -0.0575
    9CHL1    H8  607   4.601   2.785   5.715  2.0449  1.0039 -0.8449
    9CHL1   C14  608   4.507   2.957   5.595 -0.5978  0.7858  0.2866
    9CHL1   H14  609   4.450   3.050   5.616 -0.6452  1.0061 -0.7567
    9CHL1   C15  610   4.422   2.867   5.502 -0.3851 -0.3839  0.4778
    9CHL1  H15A  611   4.458   2.763   5.489  0.5701 -0.3144  2.1587
    9CHL1  H15B  612   4.315   2.869   5.532 -0.9985  1.5891 -1.5505
    9CHL1   C16  613   4.435   2.944   5.370 -0.0589  0.1348  0.4540
    9CHL1  H16A  614   4.477   2.870   5.298  2.2467 -0.2096  2.0456
    9CHL1  H16B  615   4.333   2.972   5.336  0.6023 -0.2707 -2.0890
    9CHL1   C17  616   4.543   3.053   5.386 -0.0846  0.0507 -1.1915
    9CHL1   H17  617   4.492   3.142   5.426  1.4571 -0.1750  1.5685
    9CHL1   C13  618   4.625   3.004   5.508 -0.0179 -0.3646 -0.5833
    9CHL1   C18  619   4.724   2.886   5.467  0.2613 -0.2992 -0.3007
    9CHL1  H18A  620   4.673   2.816   5.398  1.6625 -0.8909 -0.7588
    9CHL1  H18B  621   4.807   2.933   5.411 -0.4562 -0.5257 -1.5922
    9CHL1  H18C  622   4.757   2.840   5.562  1.5952  1.6675  0.2544
    9CHL1   C12  623   4.699   3.106   5.590 -0.4632  0.3813 -0.0865
    9CHL1  H12A  624   4.796   3.135   5.543  0.3852 -3.3468 -0.9767
    9CHL1  H12B  625   4.639   3.198   5.605 -0.5172  0.1285  1.2986
    9CHL1   C11  626   4.750   3.054   5.728  0.3900  0.2597  0.4829
    9CHL1  H11A  627   4.827   2.982   5.696 -1.6409 -1.1084 -1.6635
    9CHL1  H11B  628   4.802   3.132   5.788  1.1086  1.2876 -1.3953
    9CHL1    C9  629   4.633   2.984   5.810 -0.4849  0.1114 -0.3752
    9CHL1    H9  630   4.566   3.071   5.827  1.7093  2.3110 -2.2938
    9CHL1   C10  631   4.689   2.933   5.945  0.2559 -0.0580 -0.0722
    9CHL1   C19  632   4.820   2.851   5.919  0.5755 -0.2189  0.1116
    9CHL1  H19A  633   4.850   2.796   6.010 -0.5493 -2.4940 -0.8148
    9CHL1  H19B  634   4.788   2.777   5.843  0.7590  0.4100 -0.5924
    9CHL1  H19C  635   4.908   2.907   5.879  0.3045  1.2292  1.4653
    9CHL1    C1  636   4.720   3.039   6.042 -0.3024 -0.7144 -0.0908
    9CHL1   H1A  637   4.806   3.103   6.008  1.2532 -2.5533  0.2219
    9CHL1   H1B  638   4.639   3.115   6.048  2.3508  2.3646  0.2147
    9CHL1    C2  639   4.764   2.987   6.179  0.7562  0.2168  0.5205
    9CHL1   H2A  640   4.786   3.071   6.248  1.4780  3.0153 -2.8064
    9CHL1   H2B  641   4.848   2.914   6.181  1.0614  0.0671 -4.5037
    9CHL1   C20  642   4.622   3.086   5.255  0.4224  0.1656 -0.0037
    9CHL1   H20  643   4.690   3.000   5.239 -1.7730 -1.6077 -0.2490
    9CHL1   C21  644   4.712   3.212   5.271  0.4502 -0.2550 -0.2167
    9CHL1  H21A  645   4.703   3.270   5.176 -1.9085 -1.8599 -1.0592
    9CHL1  H21B  646   4.812   3.167   5.286  0.3336  0.1297  2.0633
    9CHL1  H21C  647   4.693   3.271   5.364  1.2165  0.1650 -0.3183
    9CHL1   C22  648   4.529   3.098   5.130  0.2062  0.2718  0.5296
    9CHL1  H22A  649   4.449   3.021   5.121  0.1504  0.4149 -0.3126
    9CHL1  H22B  650   4.473   3.194   5.140  0.7566  0.7432 -0.7578
    9CHL1   C23  651   4.598   3.110   4.992  0.9257 -0.6670  0.5080
    9CHL1  H23A  652   4.664   3.198   4.982  0.2662 -0.2856 -0.7983
    9CHL1  H23B  653   4.659   3.017   4.990  0.9319 -0.6588  0.2248
    9CHL1   C24  654   4.493   3.105   4.879 -0.1847 -0.2360 -0.4381
    9CHL1  H24A  655   4.423   3.021   4.895  0.4242 -0.3829  1.7928
    9CHL1  H24B  656   4.445   3.205   4.885  2.1616  1.1838 -2.9916
    9CHL1   C25  657   4.550   3.081   4.732 -0.1369  0.2515 -0.0586
    9CHL1   H25  658   4.586   2.977   4.720  0.5155  0.6661 -2.1547
    9CHL1   C26  659   4.453   3.116   4.621  0.4344 -0.7871  0.3498
    9CHL1  H26A  660   4.434   3.226   4.618 -1.0233 -1.0342 -1.9894
    9CHL1  H26B  661   4.495   3.077   4.525 -1.3384  2.1360 -1.7816
    9CHL1  H26C  662   4.359   3.061   4.642  0.4131 -2.2033 -2.7797
    9CHL1   C27  663   4.681   3.168   4.711  0.0371  0.2862 -0.4129
    9CHL1  H27A  664   4.770   3.115   4.754  0.4367  3.1585  2.7235
    9CHL1  H27B  665   4.712   3.182   4.606  0.3642  2.4141 -0.0771
    9CHL1  H27C  666   4.654   3.265   4.757 -0.2977 -0.5549  1.2739
   10CHL1    C3  667   2.525   0.067   6.173 -0.4894  0.3561 -1.0422
   10CHL1    H3  668   2.630   0.048   6.145 -0.3732 -0.2892 -0.2072
   10CHL1    O3  669   2.532   0.136   6.298 -0.4650 -0.6646 -0.3132
   10CHL1   H3'  670   2.441   0.162   6.315 -0.2526  0.0398 -0.2420
   10CHL1    C4  671   2.455   0.150   6.068  0.2349 -0.7949  0.1268
   10CHL1   H4A  672   2.360   0.181   6.118  2.1536  1.2543  2.7519
   10CHL1   H4B  673   2.515   0.240   6.044 -2.1524  1.0971  0.8948
   10CHL1    C5  674   2.438   0.070   5.943  0.1041 -0.4545 -0.9443
   10CHL1    C6  675   2.465   0.132   5.825 -0.0056 -0.0323 -0.1101
   10CHL1    H6  676   2.499   0.236   5.816  1.1999 -0.3267  0.7785
   10CHL1    C7  677   2.446   0.075   5.688 -0.4576  0.7005 -0.0227
   10CHL1   H7A  678   2.408   0.145   5.610 -0.4072 -1.2911 -1.9075
   10CHL1   H7B  679   2.542   0.045   5.641 -1.5228 -0.1299 -1.7845
   10CHL1    C8  680   2.355  -0.049   5.689  0.4790 -0.0300 -0.3383
   10CHL1    H8  681   2.255  -0.007   5.714  0.4733  1.0261 -1.9396
   10CHL1   C14  682   2.355  -0.120   5.555 -0.2175  0.0473 -0.0272
   10CHL1   H14  683   2.461  -0.142   5.531 -0.2048  0.0843 -0.0036
   10CHL1   C15  684   2.303  -0.044   5.439  0.4149 -0.1526 -0.2635
   10CHL1  H15A  685   2.202   0.000   5.444  1.2592  1.7489  0.7801
   10CHL1  H15B  686   2.357   0.051   5.418 -2.8515  2.0524  0.6419
   10CHL1   C16  687   2.305  -0.149   5.328 -0.3872  0.4444  0.6790
   10CHL1  H16A  688   2.208  -0.140   5.275  0.3742 -0.1174 -0.8691
   10CHL1  H16B  689   2.381  -0.136   5.247 -1.0303  1.6713  0.2466
   10CHL1   C17  690   2.308  -0.287   5.398  0.0924 -0.0682 -0.4069
   10CHL1   H17  691   2.412  -0.324   5.384 -0.2108 -1.1232  0.0450
   10CHL1   C13  692   2.287  -0.252   5.546 -0.1744  0.4560  0.5730
   10CHL1   C18  693   2.137  -0.234   5.582  0.5693  0.4382 -0.0676
   10CHL1  H18A  694   2.129  -0.188   5.683  1.4853 -1.3730  0.8974
   10CHL1  H18B  695   2.089  -0.168   5.507  1.7296 -2.1243 -3.2912
   10CHL1  H18C  696   2.074  -0.326   5.577  1.3661 -0.1157 -0.2025
   10CHL1   C12  697   2.342  -0.348   5.649 -0.5312  0.4050 -0.5818
   10CHL1  H12A  698   2.283  -0.443   5.647  1.8243 -1.3034  2.2077
   10CHL1  H12B  699   2.445  -0.370   5.613 -0.2020  2.2803 -0.8568
   10CHL1   C11  700   2.341  -0.283   5.786 -0.3581  0.7161 -0.0506
   10CHL1  H11A  701   2.242  -0.284   5.834 -0.4971 -1.9318 -0.2693
   10CHL1  H11B  702   2.408  -0.352   5.841 -2.2542 -0.3911  0.9662
   10CHL1    C9  703   2.406  -0.141   5.795  0.5215 -0.3518  0.0271
   10CHL1    H9  704   2.513  -0.154   5.767  0.7999 -0.8317  1.2705
   10CHL1   C10  705   2.391  -0.073   5.938  0.0351 -0.0028  0.0636
   10CHL1   C19  706   2.242  -0.087   5.976  0.1180  0.2100  0.0878
   10CHL1  H19A  707   2.176  -0.062   5.891 -1.2239 -1.4575  0.5808
   10CHL1  H19B  708   2.221  -0.192   6.007  1.6113  0.4544  2.1902
   10CHL1  H19C  709   2.217  -0.024   6.064  0.8273 -0.0205  0.4630
   10CHL1    C1  710   2.476  -0.140   6.046 -0.3093  0.4487  0.1757
   10CHL1   H1A  711   2.439  -0.242   6.071 -2.9523  2.0808  3.6478
   10CHL1   H1B  712   2.585  -0.148   6.025  0.3780  2.1968  2.6238
   10CHL1    C2  713   2.463  -0.073   6.183  0.0384  0.4438 -0.5706
   10CHL1   H2A  714   2.536  -0.127   6.248  0.6091  1.2725 -0.4980
   10CHL1   H2B  715   2.362  -0.080   6.228  0.0079 -2.4621 -0.9479
   10CHL1   C20  716   2.212  -0.395   5.332 -0.2850 -0.8213 -0.0628
   10CHL1   H20  717   2.116  -0.374   5.384  0.3170 -1.1961  1.2562
   10CHL1   C21  718   2.267  -0.533   5.362  0.3195  0.0430 -0.0424
   10CHL1  H21A  719   2.196  -0.606   5.319  0.3929 -1.1228  1.7076
   10CHL1  H21B  720   2.263  -0.555   5.471 -2.6811 -0.6115 -0.2115
   10CHL1  H21C  721   2.367  -0.539   5.313 -0.8083 -0.2105 -2.4239
   10CHL1   C22  722   2.203  -0.383   5.178 -0.4978 -0.6089  0.0216
   10CHL1  H22A  723   2.167  -0.283   5.145  0.5515 -0.6010 -1.1982
   10CHL1  H22B  724   2.307  -0.395   5.141 -0.4594  1.4917 -0.6844
   10CHL1   C23  725   2.127  -0.500   5.117  0.0838 -0.0109  0.1677
   10CHL1  H23A  726   2.192  -0.590   5.104 -0.3857 -0.3678  0.2662
   10CHL1  H23B  727   2.048  -0.523   5.192 -1.8162 -0.9295 -1.9911
   10CHL1   C24  728   2.046  -0.450   4.998 -0.0841 -0.6342  0.1154
   10CHL1  H24A  729   1.968  -0.383   5.040 -1.2430 -2.9870  1.9845
   10CHL1  H24B  730   2.103  -0.389   4.925 -0.3617 -1.1876 -0.5780
   10CHL1   C25  731   1.982  -0.555   4.912 -0.3039 -0.1942  0.5738
   10CHL1   H25  732   2.061  -0.629   4.889  1.6120  2.4555 -2.3642
   10CHL1   C26  733   1.864  -0.629   4.984 -0.0323  0.4741  0.6732
   10CHL1  H26A  734   1.898  -0.684   5.075  2.0018  1.3044  0.4545
   10CHL1  H26B  735   1.780  -0.562   5.013 -0.8936  0.5734 -1.8673
   10CHL1  H26C  736   1.819  -0.710   4.924  2.6102 -0.2031 -0.5025
   10CHL1   C27  737   1.956  -0.496   4.776 -0.2335 -0.1798  0.6076
   10CHL1  H27A  738   2.050  -0.457   4.731 -0.7747  0.7742  0.2902
   10CHL1  H27B  739   1.913  -0.571   4.707 -0.4815 -1.2701  1.9024
   10CHL1  H27C  740   1.893  -0.405   4.775  0.9679  0.6815 -0.4603
   11CHL1    C3  741   6.853   1.498   5.838 -0.8398  0.3075 -1.3295
   11CHL1    H3  742   6.947   1.539   5.796 -0.5281 -0.0822 -1.0190
   11CHL1    O3  743   6.869   1.495   5.977  0.0254  0.4769 -0.2367
   11CHL1   H3'  744   6.809   1.426   6.007  1.7634 -1.1922 -0.3744
   11CHL1    C4  745   6.752   1.608   5.807  0.9844  0.2534 -0.6005
   11CHL1   H4A  746   6.650   1.600   5.850  1.0679 -0.0606 -0.4619
   11CHL1   H4B  747   6.788   1.702   5.855 -1.4858 -0.8650  3.9901
   11CHL1    C5  748   6.724   1.615   5.658  0.1072  0.2501 -0.6832
   11CHL1    C6  749   6.736   1.733   5.594  0.7594 -0.3212 -0.0464
   11CHL1    H6  750   6.778   1.818   5.648  0.6258  0.2720 -0.8568
   11CHL1    C7  751   6.709   1.750   5.442 -0.7305 -0.6783  0.4927
   11CHL1   H7A  752   6.648   1.841   5.426  0.8626  0.2385 -0.6751
   11CHL1   H7B  753   6.808   1.763   5.394 -1.8594 -0.4155 -1.9353
   11CHL1    C8  754   6.631   1.626   5.389 -0.1898 -0.6550 -0.2126
   11CHL1    H8  755   6.529   1.636   5.432  0.4687 -2.4407  1.9651
   11CHL1   C14  756   6.625   1.627   5.235  0.1865  0.2332 -0.4895
   11CHL1   H14  757   6.732   1.609   5.210  1.1329 -0.3429  3.2959
   11CHL1   C15  758   6.595   1.762   5.178 -0.1417  0.1244  0.0347
   11CHL1  H15A  759   6.518   1.814   5.239 -1.1062  0.4706 -1.4018
   11CHL1  H15B  760   6.685   1.826   5.175 -1.0463  1.4703  0.6326
   11CHL1   C16  761   6.547   1.725   5.036 -0.5667  0.6356  0.5277
   11CHL1  H16A  762   6.455   1.776   5.001 -1.1809  0.7196  2.2011
   11CHL1  H16B  763   6.628   1.739   4.960 -0.8960 -1.7626 -0.3674
   11CHL1   C17  764   6.540   1.570   5.024  0.2645  1.0345 -0.4501
   11CHL1   H17  765   6.635   1.529   4.985 -0.2297  0.5742 -1.1998
   11CHL1   C13  766   6.542   1.519   5.175  0.1084 -0.0118 -0.2509
   11CHL1   C18  767   6.396   1.530   5.222  0.3702 -0.6765 -0.6693
   11CHL1  H18A  768   6.348   1.627   5.196  0.1130 -0.3883  0.7748
   11CHL1  H18B  769   6.335   1.446   5.183 -0.8597  0.6807 -1.7676
   11CHL1  H18C  770   6.392   1.505   5.331  0.2711  0.9139 -0.2872
   11CHL1   C12  771   6.610   1.382   5.210  0.2719  0.7811 -0.4367
   11CHL1  H12A  772   6.561   1.291   5.169  2.2386  0.1297 -1.4906
   11CHL1  H12B  773   6.716   1.368   5.180  1.2049 -3.3081  3.6858
   11CHL1   C11  774   6.620   1.371   5.363  0.5979  0.4640 -0.6775
   11CHL1  H11A  775   6.515   1.357   5.395  0.7918  0.3067 -0.0925
   11CHL1  H11B  776   6.681   1.280   5.383 -1.7362 -0.7410  1.5224
   11CHL1    C9  777   6.685   1.495   5.433 -0.6257 -0.0894 -0.5185
   11CHL1    H9  778   6.795   1.493   5.414 -0.3011  1.1146  1.0633
   11CHL1   C10  779   6.680   1.484   5.587  0.2484  0.2484 -0.2031
   11CHL1   C19  780   6.544   1.438   5.643  0.5339  0.4362  1.0908
   11CHL1  H19A  781   6.466   1.510   5.612  0.8313  0.1616 -0.4287
   11CHL1  H19B  782   6.514   1.338   5.604 -0.4174  0.0506  2.7462
   11CHL1  H19C  783   6.544   1.426   5.753  0.6788 -1.2976  0.9345
   11CHL1    C1  784   6.789   1.381   5.636 -0.2327 -0.0283  1.2236
   11CHL1   H1A  785   6.766   1.282   5.593 -0.1364  0.0624  0.9590
   11CHL1   H1B  786   6.890   1.408   5.597 -1.7285  0.4116 -2.8014
   11CHL1    C2  787   6.809   1.370   5.786 -0.0144 -0.2269 -0.1551
   11CHL1   H2A  788   6.881   1.286   5.797 -0.5061 -0.5869  0.4271
   11CHL1   H2B  789   6.716   1.331   5.833 -0.4752  1.3661  0.3096
   11CHL1   C20  790   6.432   1.511   4.926 -0.4129  0.2016 -0.0151
   11CHL1   H20  791   6.340   1.550   4.976 -0.4664 -1.1466  0.9990
   11CHL1   C21  792   6.421   1.354   4.927  0.4448  0.1070  0.4617
   11CHL1  H21A  793   6.406   1.309   5.028 -1.2800  3.0496  1.6207
   11CHL1  H21B  794   6.509   1.301   4.883 -1.1400 -2.4673  0.1885
   11CHL1  H21C  795   6.328   1.317   4.879  1.1978  0.3980 -1.2855
   11CHL1   C22  796   6.444   1.564   4.782 -0.0106 -0.9669  1.1041
   11CHL1  H22A  797   6.453   1.675   4.783  0.6134 -1.0111  1.9393
   11CHL1  H22B  798   6.531   1.520   4.729  1.3210  2.3342  0.2630
   11CHL1   C23  799   6.329   1.522   4.683  0.4576 -0.7692 -0.6137
   11CHL1  H23A  800   6.331   1.413   4.663  4.3607 -1.4124  2.1109
   11CHL1  H23B  801   6.234   1.540   4.738  0.9170  2.7950 -0.7198
   11CHL1   C24  802   6.319   1.610   4.560 -0.3567 -0.8989 -0.3055
   11CHL1  H24A  803   6.216   1.611   4.518 -1.5079 -0.4792  2.3685
   11CHL1  H24B  804   6.337   1.717   4.585  0.0403 -0.8004 -0.9635
   11CHL1   C25  805   6.424   1.584   4.460 -0.8236 -0.3052 -0.1243
   11CHL1   H25  806   6.519   1.584   4.518 -1.5268  1.3801  1.1213
   11CHL1   C26  807   6.437   1.445   4.393  0.5982  0.0935 -0.4266
   11CHL1  H26A  808   6.434   1.378   4.482  0.2166  0.2411 -0.3268
   11CHL1  H26B  809   6.353   1.422   4.324  2.2196 -1.2841 -2.0527
   11CHL1  H26C  810   6.528   1.422   4.333  0.0956 -0.8026 -0.8563
   11CHL1   C27  811   6.427   1.694   4.353  0.5301 -0.2743 -0.4445
   11CHL1  H27A  812   6.329   1.722   4.310  1.0365  3.3470  0.4067
   11CHL1  H27B  813   6.458   1.793   4.392 -0.1064 -0.8535  1.6991
   11CHL1  H27C  814   6.499   1.667   4.273 -0.7319 -3.5093 -0.6758
   12CHL1    C3  815   1.989   1.121   6.412  0.1284 -0.1630  0.1930
   12CHL1    H3  816   2.056   1.209   6.403 -0.7084  0.3782 -0.8740
   12CHL1    O3  817   1.962   1.110   6.553  0.6045  0.2483 -0.3117
   12CHL1   H3'  818   1.873   1.075   6.565  1.0657 -0.4344  1.2672
   12CHL1    C4  819   1.852   1.151   6.337  0.2813 -0.8943  0.4450
   12CHL1   H4A  820   1.779   1.074   6.370 -0.0205 -1.2043 -0.8744
   12CHL1   H4B  821   1.819   1.246   6.383  0.5850 -1.9024  2.9118
   12CHL1    C5  822   1.868   1.161   6.189 -0.0179  0.1202 -0.2964
   12CHL1    C6  823   1.827   1.272   6.130  0.6607  0.0401  0.3941
   12CHL1    H6  824   1.781   1.350   6.192  0.3261 -1.6437  2.3916
   12CHL1    C7  825   1.830   1.298   5.982  0.7683  0.0130  0.0851
   12CHL1   H7A  826   1.727   1.326   5.951  0.5247 -0.4299  0.4880
   12CHL1   H7B  827   1.908   1.376   5.967  1.7859 -0.1528  3.5878
   12CHL1    C8  828   1.858   1.168   5.903 -0.0135  0.6669 -0.5945
   12CHL1    H8  829   1.768   1.103   5.904  1.0193 -0.8259 -1.0237
   12CHL1   C14  830   1.898   1.200   5.766  0.3930 -0.4901  0.3983
   12CHL1   H14  831   1.980   1.275   5.766  0.3810 -0.2941 -3.5747
   12CHL1   C15  832   1.787   1.271   5.682 -0.8017  0.5888  0.1346
   12CHL1  H15A  833   1.694   1.213   5.702  0.2617 -1.7659 -1.3298
   12CHL1  H15B  834   1.789   1.378   5.709 -2.2857  1.6314 -3.3966
   12CHL1   C16  835   1.834   1.249   5.534 -0.2070  0.3872 -0.0637
   12CHL1  H16A  836   1.752   1.219   5.465 -0.4654  0.0410  0.3927
   12CHL1  H16B  837   1.871   1.345   5.493 -0.6959  1.8138  2.6713
   12CHL1   C17  838   1.945   1.139   5.541  0.0578  0.1353  0.1103
   12CHL1   H17  839   2.036   1.203   5.533 -0.6956  1.0041 -2.4120
   12CHL1   C13  840   1.940   1.081   5.683  0.3172  0.6952  1.0401
   12CHL1   C18  841   1.824   0.979   5.675  0.4356  0.0732 -0.2564
   12CHL1  H18A  842   1.853   0.893   5.610 -0.4466  0.0042 -0.5832
   12CHL1  H18B  843   1.809   0.938   5.777  0.0824  0.1523 -0.2761
   12CHL1  H18C  844   1.730   1.016   5.629 -1.8768 -0.3213  3.7128
   12CHL1   C12  845   2.074   1.033   5.741  0.2972  0.5494 -0.2172
   12CHL1  H12A  846   2.124   0.949   5.688  2.7829  0.4064  2.1510
   12CHL1  H12B  847   2.155   1.108   5.746 -0.4229  1.2371  2.8815
   12CHL1   C11  848   2.044   0.983   5.884  0.0504  0.4466  0.6826
   12CHL1  H11A  849   1.995   0.885   5.863  0.5940  0.6668 -2.0497
   12CHL1  H11B  850   2.132   0.961   5.948 -0.2030 -1.8599  0.3379
   12CHL1    C9  851   1.979   1.095   5.971 -0.2302  0.2866  0.7279
   12CHL1    H9  852   2.056   1.175   5.968  1.1937 -0.9545 -3.2080
   12CHL1   C10  853   1.949   1.046   6.123 -0.3097  0.1675 -0.0904
   12CHL1   C19  854   1.860   0.915   6.125  0.6668 -0.7557  0.8537
   12CHL1  H19A  855   1.763   0.930   6.073  0.9892 -2.7756 -0.4554
   12CHL1  H19B  856   1.909   0.827   6.077 -0.1501 -0.1126 -1.2926
   12CHL1  H19C  857   1.843   0.897   6.233  0.4196 -2.2568  0.5887
   12CHL1    C1  858   2.077   1.007   6.202  0.6045  0.2461 -0.6660
   12CHL1   H1A  859   2.116   0.913   6.157 -1.1776 -0.7716 -0.1997
   12CHL1   H1B  860   2.145   1.091   6.178  0.6775  0.0003 -1.3313
   12CHL1    C2  861   2.063   1.000   6.351 -0.1919  0.0845 -0.2579
   12CHL1   H2A  862   2.160   0.970   6.396 -0.5569 -0.0027  0.4981
   12CHL1   H2B  863   1.995   0.920   6.386 -1.1273  1.2415  0.6795
   12CHL1   C20  864   1.959   1.048   5.421  0.8351  0.8347  0.2961
   12CHL1   H20  865   1.876   0.974   5.425  3.4461 -2.2978  0.4657
   12CHL1   C21  866   2.077   0.946   5.421 -0.0037 -0.3398 -0.4977
   12CHL1  H21A  867   2.073   0.886   5.515  0.1976 -0.5169 -0.6000
   12CHL1  H21B  868   2.166   1.012   5.422  0.5585 -1.0892  0.4978
   12CHL1  H21C  869   2.078   0.878   5.333  0.0132  1.4100 -1.9161
   12CHL1   C22  870   1.953   1.121   5.284  0.3811 -0.7669 -0.3680
   12CHL1  H22A  871   1.875   1.200   5.274 -0.5593 -1.6883 -0.5475
   12CHL1  H22B  872   2.053   1.169   5.276  1.2874 -2.0474  2.3297
   12CHL1   C23  873   1.929   1.032   5.155  0.4776  0.4064 -0.2339
   12CHL1  H23A  874   1.992   0.941   5.160  0.0708  0.1703  1.1966
   12CHL1  H23B  875   1.822   1.002   5.153  0.1171  1.5310  0.7663
   12CHL1   C24  876   1.953   1.125   5.029  0.1306  0.0249  0.7825
   12CHL1  H24A  877   1.874   1.202   5.017  0.5768  0.5311  1.0667
   12CHL1  H24B  878   2.056   1.169   5.031  0.4811 -0.8042  2.1506
   12CHL1   C25  879   1.939   1.054   4.894  0.0998 -0.1688  0.4926
   12CHL1   H25  880   1.846   0.993   4.900 -1.2383  1.5642 -1.3957
   12CHL1   C26  881   1.920   1.144   4.770  0.3637  0.5547 -0.1945
   12CHL1  H26A  882   1.841   1.221   4.777  0.1997  0.2496  4.0714
   12CHL1  H26B  883   2.014   1.189   4.732 -0.5892  3.2808  0.4772
   12CHL1  H26C  884   1.879   1.093   4.681 -2.5615 -0.0521  1.3925
   12CHL1   C27  885   2.059   0.964   4.867  0.0405  0.5737 -0.0448
   12CHL1  H27A  886   2.066   0.891   4.950  0.3431 -0.9051 -1.3356
   12CHL1  H27B  887   2.043   0.913   4.770  1.8216 -1.3691  0.6202
   12CHL1  H27C  888   2.161   1.007   4.865  1.2033 -1.9581 -2.9280
   13CHL1    C3  889   2.297   1.862   6.191  0.2491 -0.2988 -0.3328
   13CHL1    H3  890   2.256   1.760   6.176 -1.6845  0.4588 -0.4783
   13CHL1    O3  891   2.300   1.901   6.323  0.2038  0.0980 -0.2077
   13CHL1   H3'  892   2.213   1.928   6.352  1.1048 -1.1160  4.4252
   13CHL1    C4  893   2.448   1.848   6.155 -0.7784  0.1861  0.4953
   13CHL1   H4A  894   2.497   1.946   6.176  0.0562 -0.2307  0.5328
   13CHL1   H4B  895   2.484   1.773   6.228  0.8630  1.1158  0.7065
   13CHL1    C5  896   2.466   1.821   6.008 -0.0446 -0.5135 -0.4265
   13CHL1    C6  897   2.543   1.718   5.974 -0.4083  0.0845  0.0089
   13CHL1    H6  898   2.585   1.654   6.052  0.6545  2.0527  1.1537
   13CHL1    C7  899   2.578   1.695   5.828 -0.6074  0.5094 -0.4883
   13CHL1   H7A  900   2.688   1.684   5.818 -0.1779  1.3775  2.3758
   13CHL1   H7B  901   2.544   1.598   5.785 -0.8185  0.2450  0.2518
   13CHL1    C8  902   2.528   1.805   5.733 -0.3406 -0.0711  0.3249
   13CHL1    H8  903   2.606   1.884   5.734  0.2713 -0.6160 -1.2809
   13CHL1   C14  904   2.514   1.746   5.585 -0.2284 -0.2958  0.5562
   13CHL1   H14  905   2.434   1.670   5.595  0.0280 -0.9256 -1.7465
   13CHL1   C15  906   2.628   1.667   5.523 -0.5297  0.1578  0.7253
   13CHL1  H15A  907   2.713   1.737   5.534  0.2142 -0.0816 -2.3776
   13CHL1  H15B  908   2.651   1.568   5.567  1.3169  0.6372  0.9125
   13CHL1   C16  909   2.591   1.654   5.368 -0.6408 -0.2359  0.2411
   13CHL1  H16A  910   2.677   1.695   5.311  0.0622  0.3593  1.6765
   13CHL1  H16B  911   2.583   1.548   5.339  2.1224 -0.0857 -1.3507
   13CHL1   C17  912   2.461   1.743   5.345  0.5577 -0.0818 -0.3013
   13CHL1   H17  913   2.375   1.682   5.382  1.6187 -0.7518  1.1710
   13CHL1   C13  914   2.472   1.844   5.467  0.3594  0.5394  0.2117
   13CHL1   C18  915   2.571   1.957   5.436 -0.9981  0.0470  1.0105
   13CHL1  H18A  916   2.611   1.986   5.536  0.5664  2.5543 -0.2391
   13CHL1  H18B  917   2.652   1.925   5.367 -1.6153 -0.7424  0.6391
   13CHL1  H18C  918   2.513   2.043   5.396 -0.9767 -0.0754  0.7186
   13CHL1   C12  919   2.341   1.906   5.514  0.4503  0.2562 -0.1527
   13CHL1  H12A  920   2.303   1.981   5.441 -0.3905  0.5982  0.6164
   13CHL1  H12B  921   2.273   1.819   5.518  0.0050  0.6060  0.0373
   13CHL1   C11  922   2.350   1.968   5.654 -0.0669 -0.6416 -0.6263
   13CHL1  H11A  923   2.419   2.055   5.643 -0.8422 -0.0206 -0.7005
   13CHL1  H11B  924   2.248   2.000   5.684  1.3554  1.4466  2.6787
   13CHL1    C9  925   2.396   1.870   5.770 -0.1922  0.3978 -0.0705
   13CHL1    H9  926   2.338   1.776   5.768  1.5756 -0.7805  1.3209
   13CHL1   C10  927   2.391   1.923   5.908 -0.3814 -0.6929 -0.5079
   13CHL1   C19  928   2.453   2.065   5.931  0.3977 -0.3960  0.3273
   13CHL1  H19A  929   2.418   2.142   5.860 -0.6563 -2.1275 -1.1368
   13CHL1  H19B  930   2.437   2.110   6.031  0.9665 -2.0465  1.2217
   13CHL1  H19C  931   2.564   2.054   5.926  0.3640 -1.3322  1.2098
   13CHL1    C1  932   2.242   1.934   5.958  0.1715  0.5260  0.3903
   13CHL1   H1A  933   2.202   2.013   5.891  0.4680  0.4795  0.1546
   13CHL1   H1B  934   2.184   1.840   5.945 -2.1880  1.6686  1.9978
   13CHL1    C2  935   2.217   1.962   6.107 -0.0376  0.2019  0.0828
   13CHL1   H2A  936   2.107   1.967   6.124 -0.0538  0.9551 -0.2082
   13CHL1   H2B  937   2.262   2.060   6.135 -0.9262  0.7895 -0.4951
   13CHL1   C20  938   2.444   1.795   5.199  0.0370 -0.7387 -0.0759
   13CHL1   H20  939   2.461   1.904   5.193 -2.6769 -0.2813 -0.7293
   13CHL1   C21  940   2.291   1.795   5.173 -0.0746 -0.0939  0.0507
   13CHL1  H21A  941   2.263   1.840   5.075 -0.4186  0.0362  0.2055
   13CHL1  H21B  942   2.241   1.860   5.247 -1.3502  1.3058 -1.9368
   13CHL1  H21C  943   2.240   1.696   5.181  3.0606 -1.8832 -0.4013
   13CHL1   C22  944   2.523   1.724   5.091  0.4467 -0.2445 -0.1306
   13CHL1  H22A  945   2.628   1.756   5.109  0.4981  0.0546 -0.9446
   13CHL1  H22B  946   2.502   1.615   5.096  2.2309 -0.5926  0.4471
   13CHL1   C23  947   2.492   1.759   4.947 -0.0100 -0.5213  0.4510
   13CHL1  H23A  948   2.384   1.737   4.929 -0.1406 -2.2104  2.8970
   13CHL1  H23B  949   2.513   1.867   4.932  2.9853 -0.8341  1.7945
   13CHL1   C24  950   2.557   1.654   4.856  1.6192  0.1824  0.4147
   13CHL1  H24A  951   2.667   1.667   4.864  1.6018  1.1187 -0.6457
   13CHL1  H24B  952   2.542   1.546   4.880  3.0090 -0.2345 -0.4421
   13CHL1   C25  953   2.523   1.657   4.702  0.3989  0.3616 -0.2781
   13CHL1   H25  954   2.418   1.627   4.686  0.5094  0.6597 -1.6952
   13CHL1   C26  955   2.552   1.802   4.639 -0.1463 -0.6042 -0.0605
   13CHL1  H26A  956   2.659   1.833   4.634 -1.0360  2.7076 -1.5031
   13CHL1  H26B  957   2.517   1.811   4.534  1.9608  0.4472 -0.7392
   13CHL1  H26C  958   2.509   1.880   4.706 -1.9801 -2.7909  1.4608
   13CHL1   C27  959   2.609   1.558   4.629  0.4044  1.0353  0.0213
   13CHL1  H27A  960   2.717   1.581   4.638  0.4705  2.3173 -2.9875
   13CHL1  H27B  961   2.590   1.462   4.683 -3.3353  1.8498  0.4516
   13CHL1  H27C  962   2.560   1.537   4.531 -2.6997 -0.1798  1.6834
   14CHL1    C3  963   6.337   5.134   5.684 -0.3058 -0.1796  0.1367
   14CHL1    H3  964   6.364   5.038   5.633  1.2918  1.2380 -1.8601
   14CHL1    O3  965   6.254   5.107   5.790 -0.4575  0.7062 -1.4546
   14CHL1   H3'  966   6.228   5.191   5.829  0.2426 -0.4476  1.8864
   14CHL1    C4  967   6.466   5.218   5.732  0.1309  0.1424  0.4488
   14CHL1   H4A  968   6.430   5.303   5.794  1.6586  0.5276  0.8574
   14CHL1   H4B  969   6.525   5.152   5.799 -0.7848 -1.0683  0.0901
   14CHL1    C5  970   6.555   5.260   5.614  0.2350  0.2382 -0.2761
   14CHL1    C6  971   6.687   5.223   5.605  0.2220 -0.0721 -0.2154
   14CHL1    H6  972   6.733   5.157   5.680  1.1572  1.9306  1.0815
   14CHL1    C7  973   6.775   5.269   5.492  0.4333  0.6171 -0.4175
   14CHL1   H7A  974   6.863   5.316   5.540  0.2940 -1.1742  1.7608
   14CHL1   H7B  975   6.803   5.184   5.425 -1.0380 -0.9086  0.8247
   14CHL1    C8  976   6.702   5.375   5.404  0.0322 -0.0604  0.6593
   14CHL1    H8  977   6.719   5.475   5.449  3.2188 -1.0620  1.9416
   14CHL1   C14  978   6.783   5.386   5.269  0.2357  0.0607 -0.6488
   14CHL1   H14  979   6.756   5.295   5.211  3.4717 -0.8895 -0.8487
   14CHL1   C15  980   6.932   5.395   5.291  0.4157  0.1138 -0.0146
   14CHL1  H15A  981   6.965   5.459   5.375 -0.0441  1.1326 -0.5797
   14CHL1  H15B  982   6.972   5.293   5.309  0.2043  0.0006 -0.1760
   14CHL1   C16  983   6.988   5.460   5.163 -0.3668  0.4521  0.1495
   14CHL1  H16A  984   7.045   5.551   5.193  1.6433  0.2354 -2.5922
   14CHL1  H16B  985   7.042   5.391   5.095 -1.4073  0.7644 -1.0387
   14CHL1   C17  986   6.860   5.492   5.074  0.4734 -0.2726  0.3949
   14CHL1   H17  987   6.841   5.400   5.015 -2.5070 -0.5969  1.7033
   14CHL1   C13  988   6.747   5.498   5.177  0.8207  0.2416  0.4195
   14CHL1   C18  989   6.760   5.638   5.249 -0.1589  0.1873 -0.0100
   14CHL1  H18A  990   6.739   5.717   5.174  1.0445 -0.7076 -1.3527
   14CHL1  H18B  991   6.695   5.657   5.337 -0.3256  1.7472 -0.4363
   14CHL1  H18C  992   6.863   5.654   5.287  0.0795 -0.0293 -0.5460
   14CHL1   C12  993   6.598   5.488   5.141  0.4339 -0.2501 -0.0291
   14CHL1  H12A  994   6.557   5.579   5.092  1.9113  0.0990 -0.6750
   14CHL1  H12B  995   6.579   5.393   5.087 -0.2059 -0.2630  0.2151
   14CHL1   C11  996   6.510   5.465   5.267  0.3156  0.6272 -0.6521
   14CHL1  H11A  997   6.493   5.556   5.328  1.1320  0.0361  0.4910
   14CHL1  H11B  998   6.408   5.435   5.233  0.1855 -0.0454  0.2932
   14CHL1    C9  999   6.560   5.354   5.376 -0.0144 -0.0243  0.3921
   14CHL1    H9 1000   6.552   5.258   5.322  1.0128  0.0058  0.1573
   14CHL1   C10 1001   6.485   5.340   5.504  0.5808 -0.2647  0.3550
   14CHL1   C19 1002   6.463   5.485   5.565 -0.4375 -0.2254  0.4613
   14CHL1  H19A 1003   6.557   5.543   5.563  0.2395 -1.3040  0.3707
   14CHL1  H19B 1004   6.387   5.547   5.512  2.4126  1.9774 -1.3679
   14CHL1  H19C 1005   6.434   5.474   5.672  0.0141 -1.0845  0.5037
   14CHL1    C1 1006   6.346   5.279   5.472  0.0023 -0.5206  0.7353
   14CHL1   H1A 1007   6.280   5.346   5.414 -0.8601 -1.0033  1.1485
   14CHL1   H1B 1008   6.354   5.198   5.397 -2.4892  1.7716 -2.2606
   14CHL1    C2 1009   6.258   5.223   5.585 -0.5595 -0.3245  0.3127
   14CHL1   H2A 1010   6.169   5.175   5.539 -0.7236  0.0916  0.1904
   14CHL1   H2B 1011   6.225   5.308   5.649 -0.3924  0.0504 -0.1006
   14CHL1   C20 1012   6.877   5.609   4.972  0.0073 -0.8575 -0.8739
   14CHL1   H20 1013   6.892   5.706   5.025  0.8063 -0.4592 -1.7905
   14CHL1   C21 1014   6.757   5.625   4.872  0.0217 -0.3261 -0.0211
   14CHL1  H21A 1015   6.734   5.525   4.831  0.2010 -0.0241 -0.8718
   14CHL1  H21B 1016   6.783   5.706   4.800  0.7392 -0.3082  0.2523
   14CHL1  H21C 1017   6.673   5.657   4.937  0.9011  0.8304  0.5895
   14CHL1   C22 1018   7.011   5.595   4.901  0.0516  0.1322  0.7632
   14CHL1  H22A 1019   7.026   5.676   4.827  2.0489 -1.1726 -0.3552
   14CHL1  H22B 1020   7.101   5.605   4.965  0.0306  1.3370  0.6320
   14CHL1   C23 1021   7.027   5.462   4.823  0.3714  0.4920  0.9406
   14CHL1  H23A 1022   7.033   5.368   4.882 -1.6888 -0.7980 -0.7389
   14CHL1  H23B 1023   6.938   5.443   4.758  0.4451  2.3344  0.2435
   14CHL1   C24 1024   7.158   5.463   4.742  0.0247 -0.0722  1.0257
   14CHL1  H24A 1025   7.151   5.383   4.666  0.5163  0.6121  0.2491
   14CHL1  H24B 1026   7.178   5.563   4.698 -0.9244 -0.5013 -0.4394
   14CHL1   C25 1027   7.274   5.422   4.828  0.1014  0.4095  0.2102
   14CHL1   H25 1028   7.280   5.495   4.911  1.0514  0.5193  0.0563
   14CHL1   C26 1029   7.275   5.280   4.880 -0.2325  0.5436  0.5430
   14CHL1  H26A 1030   7.372   5.234   4.909  0.3110 -0.2515 -2.2577
   14CHL1  H26B 1031   7.218   5.272   4.975 -1.0116 -0.5530 -0.0043
   14CHL1  H26C 1032   7.231   5.206   4.811 -0.2307  1.1717 -0.1494
   14CHL1   C27 1033   7.410   5.446   4.746 -0.1231 -0.2489  0.0029
   14CHL1  H27A 1034   7.505   5.427   4.801  0.0568  1.2378  0.2627
   14CHL1  H27B 1035   7.399   5.382   4.656  0.4934  1.1024 -1.0640
   14CHL1  H27C 1036   7.412   5.550   4.708  0.3890 -0.8468 -1.6663
   15CHL1    C3 1037   0.785   3.944   6.008  0.1404  0.1046 -0.3477
   15CHL1    H3 1038   0.706   3.900   5.944 -0.3958  1.1942 -0.4533
   15CHL1    O3 1039   0.765   3.892   6.135 -0.0239 -0.2575 -0.0704
   15CHL1   H3' 1040   0.819   3.941   6.198  0.8407 -1.5573  0.2394
   15CHL1    C4 1041   0.926   3.913   5.953 -0.1714  0.2381 -0.6774
   15CHL1   H4A 1042   0.985   3.964   6.032 -1.2416  2.5268 -1.2672
   15CHL1   H4B 1043   0.944   3.804   5.969 -0.3572  0.1362 -1.1398
   15CHL1    C5 1044   0.947   3.960   5.816  0.3823 -0.3562  0.1421
   15CHL1    C6 1045   0.988   3.875   5.715  0.5740 -1.0589 -0.4008
   15CHL1    H6 1046   1.018   3.775   5.747 -2.0888 -1.6116  0.6419
   15CHL1    C7 1047   1.007   3.916   5.572 -0.7083 -0.5380  0.9875
   15CHL1   H7A 1048   1.094   3.874   5.516 -1.5274 -2.0370  0.7772
   15CHL1   H7B 1049   0.924   3.884   5.506  0.5488  1.4915 -1.7623
   15CHL1    C8 1050   1.009   4.071   5.552  0.1980 -0.0238  0.2708
   15CHL1    H8 1051   1.107   4.108   5.591  0.3238 -0.7124  0.6178
   15CHL1   C14 1052   0.998   4.112   5.402 -0.3878  1.2773  0.0229
   15CHL1   H14 1053   0.900   4.078   5.363 -0.0465 -0.9082  0.9169
   15CHL1   C15 1054   1.108   4.063   5.311  0.0292 -0.1300 -0.1737
   15CHL1  H15A 1055   1.212   4.074   5.350 -0.0198 -0.4954  0.0593
   15CHL1  H15B 1056   1.106   3.954   5.293  0.8120 -0.4418  1.4484
   15CHL1   C16 1057   1.089   4.140   5.181 -0.1179 -0.1649  0.4510
   15CHL1  H16A 1058   1.194   4.176   5.170 -0.7877  2.6757  2.2486
   15CHL1  H16B 1059   1.048   4.076   5.100 -0.9618  0.4129  0.4080
   15CHL1   C17 1060   1.001   4.263   5.220  0.2311 -0.2754  0.9530
   15CHL1   H17 1061   0.898   4.245   5.182  0.4371  0.4530  0.0013
   15CHL1   C13 1062   0.998   4.268   5.381  0.2921 -0.0701  0.1626
   15CHL1   C18 1063   1.127   4.333   5.444 -0.5271 -0.8238 -0.8941
   15CHL1  H18A 1064   1.222   4.285   5.411  0.7446  1.5714 -0.9272
   15CHL1  H18B 1065   1.132   4.438   5.408  1.4569 -1.0450 -1.4354
   15CHL1  H18C 1066   1.114   4.331   5.554 -2.1188 -2.5911 -1.0723
   15CHL1   C12 1067   0.863   4.317   5.445  0.1957  0.0511 -0.2966
   15CHL1  H12A 1068   0.851   4.425   5.419 -2.7723 -0.0345  0.3868
   15CHL1  H12B 1069   0.777   4.266   5.397 -0.1344 -1.3405  1.6946
   15CHL1   C11 1070   0.868   4.287   5.594 -0.2155  0.3087  0.4176
   15CHL1  H11A 1071   0.940   4.357   5.642  0.1598  1.5771 -1.8713
   15CHL1  H11B 1072   0.767   4.317   5.631 -0.6048 -0.0393 -0.3421
   15CHL1    C9 1073   0.896   4.138   5.632 -0.0527  0.5195 -0.2048
   15CHL1    H9 1074   0.806   4.081   5.602 -0.2237  0.6659  0.0236
   15CHL1   C10 1075   0.909   4.105   5.789 -0.1785 -0.2026 -0.3023
   15CHL1   C19 1076   1.029   4.184   5.846 -0.6546 -0.1039  1.1276
   15CHL1  H19A 1077   1.007   4.292   5.841  1.2514  0.2678 -0.6268
   15CHL1  H19B 1078   1.047   4.159   5.953  0.9084 -1.1289  0.6641
   15CHL1  H19C 1079   1.128   4.174   5.797 -0.8558 -0.1498  0.7274
   15CHL1    C1 1080   0.774   4.151   5.861  0.0368  0.0852  0.0887
   15CHL1   H1A 1081   0.768   4.262   5.860  2.8792  0.3096 -0.5290
   15CHL1   H1B 1082   0.692   4.111   5.797  1.9842 -2.5294 -0.9899
   15CHL1    C2 1083   0.765   4.102   6.014 -0.4062  0.0849  0.4787
   15CHL1   H2A 1084   0.668   4.120   6.065 -0.8626 -1.2065  0.1227
   15CHL1   H2B 1085   0.849   4.150   6.068 -0.8616  1.2932  0.1483
   15CHL1   C20 1086   1.051   4.395   5.144 -0.1469 -0.5155  0.1630
   15CHL1   H20 1087   1.140   4.424   5.204 -2.5259  0.8703  3.3358
   15CHL1   C21 1088   0.958   4.515   5.177  0.5240 -0.4768 -0.0278
   15CHL1  H21A 1089   0.848   4.499   5.164 -0.2511  3.7419 -0.1848
   15CHL1  H21B 1090   0.988   4.606   5.120  0.9063  0.9182  2.2760
   15CHL1  H21C 1091   0.976   4.559   5.277 -2.8959 -2.5931  1.7039
   15CHL1   C22 1092   1.081   4.395   4.994 -0.3924  0.4243  0.2410
   15CHL1  H22A 1093   1.087   4.496   4.948 -0.0429  0.0610 -0.5190
   15CHL1  H22B 1094   1.182   4.351   4.979 -0.2506  1.5928 -2.6826
   15CHL1   C23 1095   0.979   4.319   4.904 -0.5364  0.0822 -0.0968
   15CHL1  H23A 1096   0.996   4.210   4.909 -2.4783 -0.5882 -3.9856
   15CHL1  H23B 1097   0.878   4.352   4.937 -0.5331 -1.3245  1.4174
   15CHL1   C24 1098   0.980   4.362   4.751  0.1408  0.4090  0.3107
   15CHL1  H24A 1099   0.977   4.472   4.739 -0.5943  0.3109 -0.4735
   15CHL1  H24B 1100   1.070   4.325   4.696  0.7964 -1.4879  2.4630
   15CHL1   C25 1101   0.855   4.303   4.678  0.1769 -0.5020 -0.0502
   15CHL1   H25 1102   0.768   4.347   4.731  0.9808  0.6332  0.3688
   15CHL1   C26 1103   0.854   4.352   4.534  0.1629 -0.0709  0.1244
   15CHL1  H26A 1104   0.823   4.459   4.534  1.3074  0.3060  2.0739
   15CHL1  H26B 1105   0.950   4.336   4.482  0.9541  1.0530  1.1737
   15CHL1  H26C 1106   0.781   4.288   4.479 -0.0086  0.0706  0.1844
   15CHL1   C27 1107   0.841   4.153   4.686 -0.5990  1.3142 -0.3311
   15CHL1  H27A 1108   0.838   4.117   4.791  0.4705  1.6836 -0.1696
   15CHL1  H27B 1109   0.741   4.122   4.648 -0.7387 -0.0351  1.0631
   15CHL1  H27C 1110   0.923   4.106   4.628 -1.3244  1.0467 -1.1601
   16CHL1    C3 1111   3.958   1.552   6.286 -0.5456  0.3619  0.3383
   16CHL1    H3 1112   4.060   1.589   6.260 -0.0865  1.4888  3.2266
   16CHL1    O3 1113   3.955   1.567   6.427  0.0633  0.4016 -0.1388
   16CHL1   H3' 1114   3.992   1.652   6.454  0.3390  0.2377  0.0112
   16CHL1    C4 1115   3.858   1.637   6.219  0.4423 -0.5053 -0.2063
   16CHL1   H4A 1116   3.758   1.597   6.245  0.8351  0.6660  3.7406
   16CHL1   H4B 1117   3.865   1.743   6.251  0.1992 -0.7516  0.6725
   16CHL1    C5 1118   3.873   1.621   6.068 -0.1212 -0.8147  0.6412
   16CHL1    C6 1119   3.898   1.721   5.987  0.9250 -0.1848 -0.6429
   16CHL1    H6 1120   3.913   1.820   6.033  1.8825 -0.4951 -0.2534
   16CHL1    C7 1121   3.913   1.717   5.845 -0.0912 -0.6972  0.6965
   16CHL1   H7A 1122   3.865   1.808   5.804 -1.5824 -2.4464 -1.7189
   16CHL1   H7B 1123   4.018   1.731   5.813 -0.3116  0.8092  0.5655
   16CHL1    C8 1124   3.859   1.588   5.775  0.8997  0.1112  0.1517
   16CHL1    H8 1125   3.748   1.597   5.778  0.6674 -1.4954 -2.0778
   16CHL1   C14 1126   3.913   1.578   5.640 -0.1918  0.1268  0.2328
   16CHL1   H14 1127   4.024   1.569   5.642 -0.0885  0.0854 -2.2864
   16CHL1   C15 1128   3.877   1.686   5.533  0.0629 -0.3448 -0.2049
   16CHL1  H15A 1129   3.771   1.721   5.539  0.2449  0.2111 -0.2265
   16CHL1  H15B 1130   3.932   1.782   5.533  0.4695 -0.5650 -1.6317
   16CHL1   C16 1131   3.896   1.610   5.399 -0.0718 -0.0173 -0.5441
   16CHL1  H16A 1132   3.811   1.625   5.330  0.0803  0.8817 -0.5436
   16CHL1  H16B 1133   3.989   1.656   5.358 -0.6652  1.3585 -0.3877
   16CHL1   C17 1134   3.927   1.459   5.428 -0.3071  0.4405  0.2597
   16CHL1   H17 1135   4.037   1.447   5.436 -0.3229  0.2047  0.1415
   16CHL1   C13 1136   3.865   1.442   5.567 -0.2547  0.2279  0.3618
   16CHL1   C18 1137   3.710   1.447   5.562 -0.0092  0.5170  0.9831
   16CHL1  H18A 1138   3.669   1.448   5.665 -0.6779  2.2793  0.7297
   16CHL1  H18B 1139   3.671   1.534   5.506  0.2127 -0.3915 -0.6487
   16CHL1  H18C 1140   3.668   1.355   5.515  0.5457 -0.0038  1.4846
   16CHL1   C12 1141   3.915   1.329   5.654 -0.2771 -0.6699 -0.2588
   16CHL1  H12A 1142   3.867   1.242   5.605 -0.7154 -0.1012 -0.8604
   16CHL1  H12B 1143   4.026   1.331   5.645 -0.4112  0.2875 -2.2856
   16CHL1   C11 1144   3.872   1.337   5.799  0.7386  0.5575 -0.3939
   16CHL1  H11A 1145   3.766   1.304   5.795  1.0461 -0.5437  0.1114
   16CHL1  H11B 1146   3.927   1.261   5.859  1.1544 -0.0510 -1.4974
   16CHL1    C9 1147   3.906   1.471   5.861 -0.0567  1.0265  0.5153
   16CHL1    H9 1148   4.017   1.474   5.868 -0.1105  0.1324  2.6351
   16CHL1   C10 1149   3.853   1.485   6.007 -0.1299  0.1869  0.0108
   16CHL1   C19 1150   3.703   1.442   6.012 -0.7527 -0.7221 -0.3511
   16CHL1  H19A 1151   3.640   1.496   5.937  1.3199  0.0340 -1.6158
   16CHL1  H19B 1152   3.711   1.333   5.996 -0.0145 -0.5979 -0.8550
   16CHL1  H19C 1153   3.668   1.450   6.117  0.1096 -2.4165  0.0839
   16CHL1    C1 1154   3.949   1.386   6.093 -0.2789 -0.2836 -0.0287
   16CHL1   H1A 1155   3.943   1.280   6.062  0.7604 -1.3059  2.9500
   16CHL1   H1B 1156   4.057   1.406   6.076 -0.2200  0.1559  0.8188
   16CHL1    C2 1157   3.936   1.402   6.249 -0.0489 -0.1582 -0.1418
   16CHL1   H2A 1158   4.013   1.336   6.294  0.6199 -0.0223 -1.0361
   16CHL1   H2B 1159   3.829   1.386   6.274 -0.6073 -0.3030 -2.3557
   16CHL1   C20 1160   3.879   1.354   5.323  0.2772 -0.9846 -0.5459
   16CHL1   H20 1161   3.768   1.357   5.329  0.1714  2.4499 -1.8711
   16CHL1   C21 1162   3.933   1.209   5.351  0.1421  0.5796 -0.5504
   16CHL1  H21A 1163   3.880   1.137   5.284  0.5198 -1.1901  0.9811
   16CHL1  H21B 1164   3.932   1.163   5.452  4.6485 -0.8665 -0.9535
   16CHL1  H21C 1165   4.040   1.207   5.322 -0.1524 -0.0612 -1.6555
   16CHL1   C22 1166   3.915   1.396   5.179  0.4688 -0.1602 -0.8385
   16CHL1  H22A 1167   3.880   1.499   5.159 -2.9686 -0.9203  0.5615
   16CHL1  H22B 1168   4.024   1.389   5.157  0.8424  0.6246  0.6583
   16CHL1   C23 1169   3.843   1.324   5.060 -0.3656  0.7088  0.0301
   16CHL1  H23A 1170   3.890   1.226   5.039 -0.0750  1.2861 -2.1756
   16CHL1  H23B 1171   3.737   1.294   5.075  0.4384 -2.1503  0.5240
   16CHL1   C24 1172   3.853   1.396   4.925 -0.2065  0.5537 -0.3927
   16CHL1  H24A 1173   3.802   1.332   4.849 -0.1694  1.0768 -0.8596
   16CHL1  H24B 1174   3.794   1.489   4.940 -0.0113  0.4799  1.0447
   16CHL1   C25 1175   3.997   1.420   4.874  0.2206  0.1116 -0.3402
   16CHL1   H25 1176   4.063   1.465   4.952  0.9492  0.7100 -1.2886
   16CHL1   C26 1177   4.065   1.288   4.829  0.5225 -0.2623 -0.3787
   16CHL1  H26A 1178   4.061   1.222   4.918 -1.6604  0.6767  0.2945
   16CHL1  H26B 1179   4.001   1.239   4.752 -0.7951  1.6345 -0.5686
   16CHL1  H26C 1180   4.171   1.297   4.797  1.0679 -2.8237  0.5132
   16CHL1   C27 1181   3.999   1.506   4.749  0.1254 -0.3991  0.1891
   16CHL1  H27A 1182   3.953   1.456   4.661 -0.6487  1.0744 -0.2759
   16CHL1  H27B 1183   3.927   1.590   4.767  3.0338  2.3066  0.0975
   16CHL1  H27C 1184   4.094   1.561   4.734  0.5473 -0.6297  1.8390
   17CHL1    C3 1185   1.156   0.034   6.013 -0.0113 -0.4317  0.5499
   17CHL1    H3 1186   1.237  -0.041   6.024  0.0703 -0.4539 -0.1635
   17CHL1    O3 1187   1.116   0.073   6.144  0.1737  0.1911  0.2061
   17CHL1   H3' 1188   1.047   0.139   6.135 -0.0694 -0.2471 -1.5386
   17CHL1    C4 1189   1.207   0.166   5.944 -0.8604  0.0362  0.2126
   17CHL1   H4A 1190   1.126   0.242   5.942 -1.3188 -0.4609 -0.6282
   17CHL1   H4B 1191   1.294   0.207   6.000 -0.5636 -1.2504  0.7186
   17CHL1    C5 1192   1.240   0.143   5.796  0.3830 -0.7142  0.0055
   17CHL1    C6 1193   1.361   0.173   5.752  0.7265  0.3659  0.9995
   17CHL1    H6 1194   1.434   0.207   5.828 -0.7956  0.5079  2.4527
   17CHL1    C7 1195   1.387   0.167   5.604 -0.1114  0.2185  0.3596
   17CHL1   H7A 1196   1.428   0.264   5.568 -0.9335  0.8159  0.9999
   17CHL1   H7B 1197   1.465   0.088   5.594 -1.2490 -1.3602  3.0385
   17CHL1    C8 1198   1.267   0.125   5.508 -0.3798 -0.7964 -0.8152
   17CHL1    H8 1199   1.219   0.220   5.475  0.3331  0.7582  2.2598
   17CHL1   C14 1200   1.311   0.060   5.379  0.0670 -0.5000  0.4084
   17CHL1   H14 1201   1.348  -0.039   5.414  1.7710  0.1632  0.6008
   17CHL1   C15 1202   1.440   0.118   5.306  0.5896  0.1386  0.0486
   17CHL1  H15A 1203   1.425   0.227   5.318 -2.7495 -0.2555  0.3667
   17CHL1  H15B 1204   1.529   0.078   5.360 -1.5875  0.0820  3.9757
   17CHL1   C16 1205   1.425   0.074   5.165  0.2613  0.2897  0.3339
   17CHL1  H16A 1206   1.410   0.169   5.109 -1.3407 -0.3602 -0.4050
   17CHL1  H16B 1207   1.508   0.010   5.128 -0.3727 -1.2537  1.4707
   17CHL1   C17 1208   1.291  -0.013   5.155 -0.3592  0.0073  0.4156
   17CHL1   H17 1209   1.321  -0.117   5.181 -1.0884 -0.4645 -0.5670
   17CHL1   C13 1210   1.203   0.044   5.265 -0.2848  0.0540  0.0902
   17CHL1   C18 1211   1.132   0.182   5.216 -0.1459 -0.5198 -0.1549
   17CHL1  H18A 1212   1.074   0.234   5.294  0.2927 -0.0675 -0.1194
   17CHL1  H18B 1213   1.210   0.254   5.183 -1.6465  1.5223  0.5482
   17CHL1  H18C 1214   1.064   0.168   5.129 -1.7296 -0.8827  1.0965
   17CHL1   C12 1215   1.108  -0.049   5.335  0.6596 -0.2790  0.6091
   17CHL1  H12A 1216   1.016  -0.068   5.275  1.4344  0.1452 -0.7430
   17CHL1  H12B 1217   1.155  -0.148   5.357  0.5672  0.1519  3.0284
   17CHL1   C11 1218   1.051   0.010   5.468  0.4076  0.6671  0.0131
   17CHL1  H11A 1219   0.997   0.107   5.462 -0.3943  0.2453  0.2653
   17CHL1  H11B 1220   0.975  -0.065   5.499  1.5620 -0.3938  0.3250
   17CHL1    C9 1221   1.158   0.043   5.571 -0.3049  0.0618 -0.1506
   17CHL1    H9 1222   1.209  -0.056   5.577  0.0602  0.2264 -0.4694
   17CHL1   C10 1223   1.118   0.078   5.718  0.2856 -0.1951  0.0560
   17CHL1   C19 1224   1.009   0.193   5.694 -0.5568 -0.8540 -0.1565
   17CHL1  H19A 1225   1.034   0.263   5.612 -2.0197  1.2361  1.0747
   17CHL1  H19B 1226   0.915   0.142   5.665 -0.4962  0.0436 -2.0452
   17CHL1  H19C 1227   0.988   0.255   5.784 -1.3519 -1.3029 -0.0214
   17CHL1    C1 1228   1.068  -0.039   5.800 -0.3460  0.0502 -0.0025
   17CHL1   H1A 1229   0.992  -0.096   5.742  0.6870 -0.5887 -0.7636
   17CHL1   H1B 1230   1.151  -0.113   5.802  2.8480  3.3214  0.5993
   17CHL1    C2 1231   1.028  -0.015   5.949 -0.1491 -0.2325 -0.3977
   17CHL1   H2A 1232   1.003  -0.118   5.982 -0.3455  0.3198  1.2638
   17CHL1   H2B 1233   0.935   0.045   5.951  1.3532  2.2916  2.0782
   17CHL1   C20 1234   1.234  -0.019   5.017  0.2007 -0.2013  0.2172
   17CHL1   H20 1235   1.219   0.086   4.984 -0.9805 -0.8092 -1.3072
   17CHL1   C21 1236   1.100  -0.097   5.011 -0.1990 -0.9991  0.1609
   17CHL1  H21A 1237   1.021  -0.050   5.074 -0.0703  0.8047 -0.9523
   17CHL1  H21B 1238   1.124  -0.199   5.047  1.2369 -0.1674  1.7115
   17CHL1  H21C 1239   1.058  -0.104   4.908  0.5484 -0.9890 -0.1515
   17CHL1   C22 1240   1.329  -0.074   4.911  0.4584  0.3596  0.5794
   17CHL1  H22A 1241   1.279  -0.077   4.812 -1.0138 -0.0453  1.3085
   17CHL1  H22B 1242   1.412  -0.001   4.905  1.0709 -0.2575  1.2999
   17CHL1   C23 1243   1.398  -0.213   4.938 -0.3044 -0.3462 -0.2869
   17CHL1  H23A 1244   1.468  -0.205   5.025  1.6889  1.5654 -1.9505
   17CHL1  H23B 1245   1.312  -0.280   4.955  1.4057 -2.0422  2.5847
   17CHL1   C24 1246   1.458  -0.265   4.812  0.9765  0.4852 -0.2628
   17CHL1  H24A 1247   1.374  -0.284   4.741 -0.0199  3.5371 -0.0831
   17CHL1  H24B 1248   1.511  -0.172   4.782 -0.8684  2.1538  1.3457
   17CHL1   C25 1249   1.557  -0.385   4.829 -0.4366  0.2582 -0.4518
   17CHL1   H25 1250   1.646  -0.365   4.893 -0.4599  1.4651 -0.7703
   17CHL1   C26 1251   1.487  -0.506   4.900  0.5079 -0.3114 -0.8715
   17CHL1  H26A 1252   1.538  -0.605   4.906 -0.8039 -0.9899 -0.7581
   17CHL1  H26B 1253   1.491  -0.465   5.003  1.6828 -1.5247 -0.4002
   17CHL1  H26C 1254   1.384  -0.512   4.860 -0.1793  1.9818  0.3269
   17CHL1   C27 1255   1.614  -0.441   4.695 -0.0541  0.1816  0.5330
   17CHL1  H27A 1256   1.684  -0.525   4.713 -1.2530 -0.9072  0.2653
   17CHL1  H27B 1257   1.537  -0.482   4.627 -1.4781  3.4756 -0.0206
   17CHL1  H27C 1258   1.672  -0.367   4.637  1.8059 -1.2113  0.5227
   18CHL1    C3 1259   1.398   1.531   5.812  0.1180 -0.1858 -0.3211
   18CHL1    H3 1260   1.416   1.426   5.844  1.8246  0.1413 -0.1537
   18CHL1    O3 1261   1.412   1.605   5.937 -0.3825 -0.0129  0.2075
   18CHL1   H3' 1262   1.360   1.686   5.935 -0.9259 -0.2925  1.6228
   18CHL1    C4 1263   1.499   1.577   5.709 -0.5281  0.0145  0.1402
   18CHL1   H4A 1264   1.513   1.685   5.692 -3.2356  0.0073 -3.2193
   18CHL1   H4B 1265   1.595   1.536   5.748 -0.4297 -0.3136 -0.4375
   18CHL1    C5 1266   1.463   1.523   5.565  0.2055  0.1338 -0.1279
   18CHL1    C6 1267   1.559   1.459   5.498 -0.1096  0.4637  0.2831
   18CHL1    H6 1268   1.666   1.453   5.520 -0.2598 -2.7759  0.6926
   18CHL1    C7 1269   1.534   1.401   5.361  0.3951  0.8008  0.5409
   18CHL1   H7A 1270   1.628   1.419   5.304  1.5982 -0.8788  1.8770
   18CHL1   H7B 1271   1.526   1.290   5.369  1.2994  0.6408 -0.4199
   18CHL1    C8 1272   1.406   1.463   5.291 -0.9752 -1.0244  0.6707
   18CHL1    H8 1273   1.432   1.568   5.266 -0.0423 -0.6541  2.9093
   18CHL1   C14 1274   1.361   1.387   5.167 -0.5053  0.5044  0.1430
   18CHL1   H14 1275   1.331   1.289   5.208 -0.4071  1.2950  2.2448
   18CHL1   C15 1276   1.467   1.365   5.062  0.3312 -0.6200 -0.8720
   18CHL1  H15A 1277   1.515   1.461   5.032  1.6379 -0.9925 -0.0404
   18CHL1  H15B 1278   1.543   1.295   5.104 -0.4560  0.2887  2.3473
   18CHL1   C16 1279   1.388   1.311   4.936 -0.0326  0.2996 -0.3052
   18CHL1  H16A 1280   1.421   1.348   4.836  0.0494 -0.9792 -0.7614
   18CHL1  H16B 1281   1.407   1.202   4.931  1.9925  0.4133  2.4597
   18CHL1   C17 1282   1.236   1.336   4.972 -0.0396 -0.2849 -0.4051
   18CHL1   H17 1283   1.210   1.238   5.018  2.1731 -1.3124 -1.2006
   18CHL1   C13 1284   1.238   1.433   5.086  0.0690 -0.5893  0.2085
   18CHL1   C18 1285   1.269   1.580   5.036  0.1003  0.1298 -0.2582
   18CHL1  H18A 1286   1.351   1.571   4.962 -0.6316 -1.0098 -0.9649
   18CHL1  H18B 1287   1.176   1.619   4.989 -1.2440 -1.1979  1.1637
   18CHL1  H18C 1288   1.284   1.658   5.114  0.2228 -0.4768  0.3388
   18CHL1   C12 1289   1.122   1.437   5.179  0.0616 -0.5836  0.0330
   18CHL1  H12A 1290   1.029   1.477   5.133 -0.3238 -1.8902 -0.3706
   18CHL1  H12B 1291   1.097   1.335   5.218 -0.1243 -1.0012 -1.1453
   18CHL1   C11 1292   1.157   1.523   5.305 -0.2822 -0.3865 -0.1472
   18CHL1  H11A 1293   1.163   1.630   5.277 -0.4683 -0.8304 -2.0236
   18CHL1  H11B 1294   1.071   1.525   5.375  0.2113  1.5087  0.4631
   18CHL1    C9 1295   1.286   1.471   5.381  0.1086 -1.0135  0.3547
   18CHL1    H9 1296   1.257   1.373   5.425 -1.4096  0.8074  3.8476
   18CHL1   C10 1297   1.319   1.544   5.516  0.1467  0.5314  0.0862
   18CHL1   C19 1298   1.294   1.699   5.498 -0.1426  0.0407  0.1497
   18CHL1  H19A 1299   1.342   1.731   5.403  0.4306 -0.7918  0.1529
   18CHL1  H19B 1300   1.188   1.732   5.489  0.7332  2.7820 -1.1465
   18CHL1  H19C 1301   1.337   1.763   5.578  1.6434 -0.5621 -0.2764
   18CHL1    C1 1302   1.225   1.488   5.622 -0.2146 -0.1771 -0.4814
   18CHL1   H1A 1303   1.118   1.506   5.596 -0.2306 -2.0876 -1.9439
   18CHL1   H1B 1304   1.222   1.378   5.635 -3.0638 -0.0994  0.1405
   18CHL1    C2 1305   1.249   1.557   5.759  0.4269  0.6072 -0.2361
   18CHL1   H2A 1306   1.181   1.505   5.831  1.7863  1.9602  2.1576
   18CHL1   H2B 1307   1.229   1.666   5.756  0.1877  0.6426  1.4526
   18CHL1   C20 1308   1.142   1.357   4.852 -0.5987 -0.0414 -0.1865
   18CHL1   H20 1309   1.053   1.408   4.896  1.8512  1.3633  3.6125
   18CHL1   C21 1310   1.085   1.217   4.812  0.6484  0.3308  1.0364
   18CHL1  H21A 1311   1.164   1.147   4.778  0.7133  0.5254  0.7896
   18CHL1  H21B 1312   1.008   1.219   4.732 -0.3569  0.3090  1.9749
   18CHL1  H21C 1313   1.039   1.176   4.905 -0.8466 -0.7375 -0.1259
   18CHL1   C22 1314   1.193   1.435   4.732  0.0690 -0.9066  1.1436
   18CHL1  H22A 1315   1.240   1.532   4.758 -2.1198  0.4314  0.3724
   18CHL1  H22B 1316   1.276   1.377   4.685 -0.2454 -1.3264  1.0963
   18CHL1   C23 1317   1.083   1.474   4.621 -0.3252 -0.2158  0.6972
   18CHL1  H23A 1318   1.066   1.391   4.550  0.8936  0.6595 -0.6925
   18CHL1  H23B 1319   0.990   1.490   4.679  0.7111  0.4879  2.2375
   18CHL1   C24 1320   1.129   1.602   4.547 -0.0673  0.4885  0.1377
   18CHL1  H24A 1321   1.182   1.662   4.624  1.1709 -1.9530  1.3236
   18CHL1  H24B 1322   1.195   1.560   4.468 -0.1982 -1.6875  1.1177
   18CHL1   C25 1323   1.014   1.676   4.479 -0.2365  0.0195 -0.4219
   18CHL1   H25 1324   0.934   1.702   4.551 -1.0115  3.2913 -2.2757
   18CHL1   C26 1325   1.062   1.818   4.427  0.2571  0.2374 -0.3233
   18CHL1  H26A 1326   0.971   1.867   4.386 -0.8770 -1.0547  0.5474
   18CHL1  H26B 1327   1.079   1.874   4.522 -4.8147  3.3554 -0.8725
   18CHL1  H26C 1328   1.148   1.814   4.357  0.4740 -1.1637  0.0060
   18CHL1   C27 1329   0.970   1.601   4.363 -0.2570 -0.2325  0.2557
   18CHL1  H27A 1330   1.066   1.584   4.310  0.2478  3.2354 -0.1583
   18CHL1  H27B 1331   0.909   1.514   4.394 -0.1625  0.2284  1.8424
   18CHL1  H27C 1332   0.904   1.656   4.293  1.1365 -1.0749 -1.8071
   19CHL1    C3 1333   0.389   6.238   6.136 -0.1565 -0.6986 -0.2077
   19CHL1    H3 1334   0.281   6.265   6.141  0.2381  0.9465  0.1373
   19CHL1    O3 1335   0.456   6.257   6.260  0.0364 -0.4027 -0.2493
   19CHL1   H3' 1336   0.546   6.227   6.242 -0.0503  0.0457 -1.4995
   19CHL1    C4 1337   0.417   6.100   6.080  0.3664  0.8950  0.4374
   19CHL1   H4A 1338   0.524   6.071   6.081  0.4390  1.1049  2.7935
   19CHL1   H4B 1339   0.377   6.032   6.158  1.4240 -1.7472 -1.1718
   19CHL1    C5 1340   0.354   6.089   5.940  0.1013 -0.7698  0.9782
   19CHL1    C6 1341   0.260   5.997   5.912  0.4800  0.0356 -0.0171
   19CHL1    H6 1342   0.229   5.929   5.992  0.3733  0.0451 -0.0506
   19CHL1    C7 1343   0.207   5.972   5.775 -0.3656  0.3782  0.3665
   19CHL1   H7A 1344   0.198   5.862   5.762 -1.6936  0.6399 -1.2803
   19CHL1   H7B 1345   0.104   6.014   5.778  0.0457  1.3909  3.2633
   19CHL1    C8 1346   0.288   6.054   5.662 -0.6011 -0.3179  0.4378
   19CHL1    H8 1347   0.385   6.003   5.643 -0.1847 -0.4903  2.7329
   19CHL1   C14 1348   0.213   6.053   5.533 -0.6124 -0.3067 -0.5659
   19CHL1   H14 1349   0.115   6.102   5.551  1.1661  3.5919 -0.3987
   19CHL1   C15 1350   0.170   5.915   5.477  0.0723  0.5521  0.6687
   19CHL1  H15A 1351   0.253   5.844   5.497 -1.8432 -2.3138 -0.9923
   19CHL1  H15B 1352   0.076   5.888   5.529 -1.4497  1.5233 -1.4232
   19CHL1   C16 1353   0.140   5.942   5.331  1.1573  0.1980  1.0145
   19CHL1  H16A 1354   0.193   5.865   5.271  0.7331 -0.9804  2.1149
   19CHL1  H16B 1355   0.034   5.933   5.299  1.7227 -0.5817 -0.8294
   19CHL1   C17 1356   0.181   6.091   5.300  0.2165  0.3936  0.2341
   19CHL1   H17 1357   0.091   6.152   5.324 -1.1761 -0.9755 -1.2561
   19CHL1   C13 1358   0.282   6.125   5.414  0.0446  0.2047  0.0175
   19CHL1   C18 1359   0.412   6.054   5.379  0.3144 -0.5924  0.2094
   19CHL1  H18A 1360   0.465   6.111   5.299  0.3485  3.4566  2.8525
   19CHL1  H18B 1361   0.485   6.045   5.462  0.2079 -0.6623  0.2950
   19CHL1  H18C 1362   0.403   5.947   5.351 -0.5681 -0.5966  0.4851
   19CHL1   C12 1363   0.317   6.274   5.457  0.3095  0.2159  0.0670
   19CHL1  H12A 1364   0.386   6.314   5.379  0.8378  0.3626  0.5974
   19CHL1  H12B 1365   0.224   6.333   5.470 -0.7128 -1.5912  1.3695
   19CHL1   C11 1366   0.388   6.275   5.589 -1.2676  0.3435 -0.5248
   19CHL1  H11A 1367   0.486   6.228   5.566 -1.4629  0.4524 -1.6474
   19CHL1  H11B 1368   0.405   6.379   5.626 -2.5277  0.3054  0.2497
   19CHL1    C9 1369   0.315   6.198   5.708 -0.1885 -0.0424  0.6487
   19CHL1    H9 1370   0.221   6.255   5.729  0.0391  0.4686  0.2949
   19CHL1   C10 1371   0.395   6.205   5.842  0.5804 -0.4888  0.2777
   19CHL1   C19 1372   0.544   6.183   5.813 -0.2467 -0.3919 -0.4209
   19CHL1  H19A 1373   0.565   6.099   5.743 -3.0681 -1.4957 -0.0780
   19CHL1  H19B 1374   0.581   6.280   5.773  0.7359 -0.8351 -0.6138
   19CHL1  H19C 1375   0.606   6.166   5.903  0.0388 -1.0171 -0.7291
   19CHL1    C1 1376   0.370   6.345   5.909  0.2573 -0.1200  1.1911
   19CHL1   H1A 1377   0.399   6.424   5.836  1.9153 -2.4716 -0.8803
   19CHL1   H1B 1378   0.263   6.347   5.937 -0.5680  2.3633 -1.6300
   19CHL1    C2 1379   0.444   6.351   6.045  0.3935  0.1021  0.4231
   19CHL1   H2A 1380   0.438   6.451   6.092  1.6533  0.5386 -0.2856
   19CHL1   H2B 1381   0.554   6.334   6.045 -0.2143 -5.8967 -0.5065
   19CHL1   C20 1382   0.218   6.120   5.151 -0.7831  0.0217  0.1982
   19CHL1   H20 1383   0.294   6.044   5.122 -0.0036  0.5395  0.8348
   19CHL1   C21 1384   0.277   6.267   5.142 -0.2493 -0.3899 -0.1990
   19CHL1  H21A 1385   0.381   6.262   5.182 -1.3710  0.0226  2.9993
   19CHL1  H21B 1386   0.220   6.336   5.207  1.8809  1.4861 -0.1904
   19CHL1  H21C 1387   0.286   6.299   5.036  1.7019  1.8787  0.5727
   19CHL1   C22 1388   0.091   6.108   5.060 -0.1749  1.1044  0.1067
   19CHL1  H22A 1389   0.029   6.020   5.088  0.0837  0.3308 -1.6364
   19CHL1  H22B 1390   0.022   6.193   5.079 -1.8259  1.0071 -4.3554
   19CHL1   C23 1391   0.121   6.093   4.911 -0.0967 -0.0760  0.2960
   19CHL1  H23A 1392   0.154   6.186   4.861 -0.5988 -0.2361 -0.3438
   19CHL1  H23B 1393   0.203   6.019   4.900  0.2281  0.2539  0.5190
   19CHL1   C24 1394  -0.006   6.039   4.838  0.3636  0.5341 -0.4036
   19CHL1  H24A 1395  -0.025   5.940   4.883 -0.0073  1.1077  0.7368
   19CHL1  H24B 1396  -0.081   6.117   4.862 -2.9886 -2.8921  1.2591
   19CHL1   C25 1397   0.004   6.020   4.691  0.0760 -0.0403 -0.2018
   19CHL1   H25 1398  -0.087   5.972   4.651  0.6578 -0.0185 -1.6030
   19CHL1   C26 1399   0.008   6.152   4.604  0.2405  0.6512 -0.5798
   19CHL1  H26A 1400   0.107   6.198   4.623  0.4788 -1.0808  3.4065
   19CHL1  H26B 1401   0.008   6.139   4.494  0.8920  1.6922 -0.7183
   19CHL1  H26C 1402  -0.076   6.223   4.623 -0.5613  0.1658 -2.1493
   19CHL1   C27 1403   0.133   5.948   4.649  1.0131 -0.2618  0.7033
   19CHL1  H27A 1404   0.227   6.006   4.656  1.0923 -0.2148 -0.4733
   19CHL1  H27B 1405   0.128   5.853   4.707 -1.4694 -0.0270  1.0016
   19CHL1  H27C 1406   0.114   5.926   4.541 -0.3121 -0.4189  0.9520
   20CHL1    C3 1407   6.720   0.634   5.967  0.1301 -0.8479 -0.3671
   20CHL1    H3 1408   6.788   0.640   5.879 -0.3983  0.9885 -0.6955
   20CHL1    O3 1409   6.796   0.591   6.083  0.0140  0.3250  0.3610
   20CHL1   H3' 1410   6.727   0.566   6.144  0.1802 -2.6166 -0.4994
   20CHL1    C4 1411   6.659   0.778   5.992 -0.1749 -0.2660  0.0578
   20CHL1   H4A 1412   6.594   0.789   6.081  1.2962  2.0527  0.9322
   20CHL1   H4B 1413   6.747   0.844   6.004 -0.6555  0.9534 -2.5137
   20CHL1    C5 1414   6.592   0.830   5.867  0.3897  0.9198  0.5663
   20CHL1    C6 1415   6.624   0.949   5.804 -0.3387 -0.2792 -0.3702
   20CHL1    H6 1416   6.696   1.022   5.842 -1.6846  0.1196  1.5094
   20CHL1    C7 1417   6.560   1.002   5.681 -0.3509  0.6313  0.6087
   20CHL1   H7A 1418   6.549   1.112   5.697  0.7531  0.8979 -0.3464
   20CHL1   H7B 1419   6.630   0.987   5.596  1.6037 -0.3124  2.3239
   20CHL1    C8 1420   6.427   0.921   5.647  0.4016 -0.5480  0.0554
   20CHL1    H8 1421   6.348   0.964   5.712 -1.6478  2.4519 -3.9608
   20CHL1   C14 1422   6.373   0.946   5.506  0.0896  0.7985  0.7025
   20CHL1   H14 1423   6.450   0.896   5.444 -1.1934  0.9654 -1.1099
   20CHL1   C15 1424   6.374   1.091   5.461  0.6293  0.0154  0.6893
   20CHL1  H15A 1425   6.329   1.161   5.534  0.1997  1.2913 -0.7369
   20CHL1  H15B 1426   6.477   1.120   5.431  0.5495  0.5518  0.9210
   20CHL1   C16 1427   6.280   1.091   5.339  0.1892  0.4106  0.5252
   20CHL1  H16A 1428   6.190   1.155   5.355  0.1874  0.3118  0.9172
   20CHL1  H16B 1429   6.338   1.127   5.252 -1.3582  1.8485  0.0407
   20CHL1   C17 1430   6.229   0.947   5.314  0.0297  0.3379 -0.7507
   20CHL1   H17 1431   6.305   0.882   5.266 -1.0252  0.6991 -3.0501
   20CHL1   C13 1432   6.239   0.884   5.460 -0.7605  0.2264 -1.1800
   20CHL1   C18 1433   6.122   0.943   5.541  0.2686  0.0111 -0.4271
   20CHL1  H18A 1434   6.104   1.049   5.514  2.0947  0.4922  0.0936
   20CHL1  H18B 1435   6.029   0.885   5.523 -0.1785  0.4609  0.3752
   20CHL1  H18C 1436   6.142   0.942   5.650 -0.4879  0.4666 -0.2785
   20CHL1   C12 1437   6.266   0.733   5.469 -0.1324  0.3343 -0.5060
   20CHL1  H12A 1438   6.170   0.681   5.449  0.4028 -0.0459 -2.2036
   20CHL1  H12B 1439   6.338   0.683   5.400 -2.1846 -0.3776 -2.2407
   20CHL1   C11 1440   6.302   0.702   5.613  0.6036  0.0872  0.0039
   20CHL1  H11A 1441   6.211   0.731   5.670  0.0957  2.0218 -1.6920
   20CHL1  H11B 1442   6.311   0.592   5.630 -1.3861  0.0650  1.2683
   20CHL1    C9 1443   6.434   0.774   5.663 -0.3312  0.1813 -0.6620
   20CHL1    H9 1444   6.511   0.740   5.590  0.8253  2.6022 -0.6394
   20CHL1   C10 1445   6.488   0.728   5.803 -0.6575  0.2761 -0.6506
   20CHL1   C19 1446   6.357   0.733   5.902 -0.1138  0.3445  0.3475
   20CHL1  H19A 1447   6.298   0.827   5.898 -0.5435  0.1049  0.9215
   20CHL1  H19B 1448   6.284   0.655   5.869  1.1885  0.2940 -2.7389
   20CHL1  H19C 1449   6.392   0.710   6.005  2.3718  0.0689 -0.4959
   20CHL1    C1 1450   6.552   0.581   5.797 -0.2498  0.4002  0.8595
   20CHL1   H1A 1451   6.474   0.505   5.776 -1.1324  1.2678  0.9058
   20CHL1   H1B 1452   6.633   0.591   5.722  0.3008 -0.4207  1.3308
   20CHL1    C2 1453   6.610   0.533   5.938 -0.7664  0.1685 -0.2424
   20CHL1   H2A 1454   6.667   0.439   5.920 -0.3209  0.7603 -2.2687
   20CHL1   H2B 1455   6.532   0.517   6.016 -1.4863  0.2102 -0.9368
   20CHL1   C20 1456   6.107   0.943   5.230 -0.0165 -0.1341  0.5501
   20CHL1   H20 1457   6.022   0.998   5.274 -0.5912 -2.1671  2.1369
   20CHL1   C21 1458   6.050   0.799   5.217  0.3781  0.2982 -0.3410
   20CHL1  H21A 1459   6.131   0.724   5.203 -1.6271 -2.3391  1.2617
   20CHL1  H21B 1460   5.980   0.783   5.133  1.4704 -0.8011 -1.0724
   20CHL1  H21C 1461   5.998   0.766   5.310 -1.1608  0.0827 -1.2490
   20CHL1   C22 1462   6.135   0.995   5.083  0.9723  0.2340  0.4160
   20CHL1  H22A 1463   6.047   0.968   5.021 -0.3351  0.5181  2.0907
   20CHL1  H22B 1464   6.135   1.106   5.081  0.4666  0.2866 -3.2699
   20CHL1   C23 1465   6.257   0.943   5.006  0.1216 -0.2120 -0.5166
   20CHL1  H23A 1466   6.342   0.997   5.051 -0.9973  1.8112 -0.7198
   20CHL1  H23B 1467   6.246   0.832   5.006 -3.0012  0.0012 -0.3723
   20CHL1   C24 1468   6.252   0.970   4.858 -0.4023  0.2757 -0.2769
   20CHL1  H24A 1469   6.151   0.938   4.824 -1.1656 -1.7549  3.3338
   20CHL1  H24B 1470   6.284   1.075   4.841  0.0879 -0.0698 -1.5628
   20CHL1   C25 1471   6.369   0.895   4.781  0.3051 -0.2051 -0.2948
   20CHL1   H25 1472   6.362   0.788   4.810 -0.4203  0.3665  1.8634
   20CHL1   C26 1473   6.340   0.905   4.636  0.0166  0.3795  0.0393
   20CHL1  H26A 1474   6.330   1.012   4.606  0.1761  0.9244  1.8505
   20CHL1  H26B 1475   6.423   0.860   4.577 -0.3233  0.7802 -0.7729
   20CHL1  H26C 1476   6.248   0.860   4.593 -0.5034  1.6263 -0.2164
   20CHL1   C27 1477   6.512   0.939   4.824 -0.1556  0.1394  0.3713
   20CHL1  H27A 1478   6.589   0.880   4.768 -1.1932  0.5985 -1.6374
   20CHL1  H27B 1479   6.531   1.040   4.783 -3.0041  0.1593 -1.1250
   20CHL1  H27C 1480   6.532   0.943   4.933 -1.8928 -1.2954  0.7822
   21CHL1    C3 1481   5.680   1.231   6.284  0.1388  0.0297 -0.7994
   21CHL1    H3 1482   5.571   1.251   6.287 -0.3740 -2.5473  1.7739
   21CHL1    O3 1483   5.739   1.248   6.413  0.0289 -0.5061  0.0079
   21CHL1   H3' 1484   5.672   1.218   6.476 -1.0604  2.1517  0.2213
   21CHL1    C4 1485   5.700   1.081   6.238  0.3364  0.4555  0.0486
   21CHL1   H4A 1486   5.809   1.062   6.245 -0.0324 -1.7597  0.7112
   21CHL1   H4B 1487   5.637   1.015   6.303 -2.5661  1.5307 -1.4720
   21CHL1    C5 1488   5.665   1.064   6.092  0.1849  0.4589  0.0327
   21CHL1    C6 1489   5.588   0.958   6.058  0.4080 -0.4569  0.0415
   21CHL1    H6 1490   5.562   0.888   6.138  1.4415  1.3507  2.0534
   21CHL1    C7 1491   5.551   0.924   5.913 -0.3373  0.2639 -0.5402
   21CHL1   H7A 1492   5.564   0.814   5.902  1.8031  0.4807 -0.5039
   21CHL1   H7B 1493   5.443   0.949   5.906 -0.6988 -1.1037 -0.2489
   21CHL1    C8 1494   5.627   1.002   5.808 -1.0871 -0.0538  0.8192
   21CHL1    H8 1495   5.728   0.959   5.792 -1.2696 -0.4432  0.6988
   21CHL1   C14 1496   5.547   1.011   5.678  0.1902 -0.1461  0.3195
   21CHL1   H14 1497   5.459   1.075   5.702 -1.2174 -1.3665 -1.2891
   21CHL1   C15 1498   5.476   0.888   5.623 -0.6265 -0.1461 -0.0174
   21CHL1  H15A 1499   5.535   0.794   5.622 -1.5363 -0.7562  1.1816
   21CHL1  H15B 1500   5.388   0.860   5.685  0.9322 -1.9135  1.4871
   21CHL1   C16 1501   5.436   0.918   5.483 -0.1821 -0.4122  0.0961
   21CHL1  H16A 1502   5.477   0.842   5.413  0.8784  0.1953  0.0263
   21CHL1  H16B 1503   5.326   0.916   5.471 -0.2074 -0.5622  0.3445
   21CHL1   C17 1504   5.502   1.065   5.448  0.4210  0.3734 -0.8995
   21CHL1   H17 1505   5.424   1.142   5.468  0.8065  0.2936  1.1543
   21CHL1   C13 1506   5.609   1.080   5.557  0.5090  0.4267 -0.6724
   21CHL1   C18 1507   5.735   1.003   5.518 -0.8792 -0.0120 -0.2251
   21CHL1  H18A 1508   5.713   0.911   5.460  0.3269 -0.4731  0.0179
   21CHL1  H18B 1509   5.787   1.061   5.440 -1.3957 -1.0647 -1.3811
   21CHL1  H18C 1510   5.810   0.990   5.599  0.1966 -0.0871 -1.2212
   21CHL1   C12 1511   5.643   1.231   5.599  0.1418 -0.2987 -0.3624
   21CHL1  H12A 1512   5.710   1.281   5.526  2.0114  1.8168  2.5780
   21CHL1  H12B 1513   5.552   1.285   5.631  1.7631  1.8322  0.9089
   21CHL1   C11 1514   5.724   1.233   5.734  0.7566  0.2545  0.4295
   21CHL1  H11A 1515   5.830   1.203   5.714  1.4969  3.1236 -0.4613
   21CHL1  H11B 1516   5.727   1.334   5.781  1.5173 -0.3544  1.7756
   21CHL1    C9 1517   5.651   1.143   5.848  0.0618 -0.2099 -0.7362
   21CHL1    H9 1518   5.548   1.182   5.859 -0.2415 -1.2964  0.6098
   21CHL1   C10 1519   5.722   1.161   5.988  0.2241 -0.1007 -0.0409
   21CHL1   C19 1520   5.871   1.136   5.982 -0.6459  0.4238 -0.2265
   21CHL1  H19A 1521   5.931   1.152   6.075 -1.3173  0.5616  0.1878
   21CHL1  H19B 1522   5.894   1.034   5.947  2.1595  0.9403 -0.1234
   21CHL1  H19C 1523   5.916   1.210   5.912 -0.4614  0.2430 -0.2976
   21CHL1    C1 1524   5.711   1.312   6.040 -0.3596 -0.2522 -0.3769
   21CHL1   H1A 1525   5.751   1.385   5.966  0.2828 -0.2669 -0.0540
   21CHL1   H1B 1526   5.603   1.338   6.039 -0.2913  0.0826  0.4598
   21CHL1    C2 1527   5.756   1.328   6.184 -0.8932  0.4973  0.3255
   21CHL1   H2A 1528   5.744   1.434   6.218  1.1301  0.5134  1.1531
   21CHL1   H2B 1529   5.862   1.296   6.194 -0.7220  1.4528  2.1255
   21CHL1   C20 1530   5.546   1.073   5.299  0.2353  0.0538 -0.1353
   21CHL1   H20 1531   5.622   0.993   5.282  1.4909  1.2763 -0.4891
   21CHL1   C21 1532   5.604   1.205   5.262  0.0014  0.6322 -0.1827
   21CHL1  H21A 1533   5.640   1.198   5.157 -0.4479 -1.3506 -0.2340
   21CHL1  H21B 1534   5.696   1.221   5.322  1.1383 -2.7409 -0.7986
   21CHL1  H21C 1535   5.528   1.287   5.266 -0.9122 -0.1795 -0.5150
   21CHL1   C22 1536   5.431   1.046   5.202  0.3215  0.5971  0.0754
   21CHL1  H22A 1537   5.388   0.944   5.202 -0.4250  0.9056 -0.4370
   21CHL1  H22B 1538   5.344   1.115   5.215 -0.7571 -0.9314  1.3818
   21CHL1   C23 1539   5.465   1.062   5.057 -0.6831 -0.2854 -0.1820
   21CHL1  H23A 1540   5.504   1.164   5.037 -0.4845 -0.5003 -0.9093
   21CHL1  H23B 1541   5.544   0.987   5.034 -0.4215  0.6971 -2.8267
   21CHL1   C24 1542   5.353   1.018   4.964 -0.2484 -0.7690 -0.2516
   21CHL1  H24A 1543   5.292   0.930   4.997 -3.4059  1.0418 -0.8878
   21CHL1  H24B 1544   5.272   1.093   4.955 -0.4704 -1.1038 -1.1469
   21CHL1   C25 1545   5.408   0.982   4.825  0.8627  0.4042  0.2390
   21CHL1   H25 1546   5.479   0.897   4.818  0.0165 -0.2116 -1.6125
   21CHL1   C26 1547   5.289   0.945   4.733 -0.0947 -1.4142  0.2615
   21CHL1  H26A 1548   5.322   0.934   4.627 -1.0099  3.2135 -0.7260
   21CHL1  H26B 1549   5.243   0.851   4.771 -2.4029 -0.2007  0.6909
   21CHL1  H26C 1550   5.209   1.022   4.736  2.4495  1.3703  0.7832
   21CHL1   C27 1551   5.485   1.105   4.775  0.1225 -0.0081 -0.1994
   21CHL1  H27A 1552   5.430   1.197   4.803  1.9068  1.0509 -0.0853
   21CHL1  H27B 1553   5.582   1.125   4.824  0.1421  2.1022 -0.9980
   21CHL1  H27C 1554   5.496   1.099   4.665 -0.9871  0.7615 -0.3696
   22CHL1    C3 1555   3.171   5.454   6.503 -0.6888  0.1269 -0.1503
   22CHL1    H3 1556   3.253   5.494   6.568 -0.7967  0.8324 -0.4479
   22CHL1    O3 1557   3.099   5.359   6.578 -0.8041 -0.6330  0.3293
   22CHL1   H3' 1558   3.172   5.338   6.637 -0.0153  0.6193 -0.1407
   22CHL1    C4 1559   3.082   5.571   6.457 -0.4975  0.5601 -0.2320
   22CHL1   H4A 1560   2.997   5.527   6.401  0.0956 -0.8169 -0.1020
   22CHL1   H4B 1561   3.044   5.618   6.550  1.0069  0.3513  0.5235
   22CHL1    C5 1562   3.169   5.660   6.373  0.3303 -0.3618  0.8419
   22CHL1    C6 1563   3.175   5.789   6.404 -0.3850 -0.5324  0.1819
   22CHL1    H6 1564   3.116   5.832   6.487  0.6902 -0.9574  1.1959
   22CHL1    C7 1565   3.246   5.897   6.316  0.3950  0.6286 -0.6567
   22CHL1   H7A 1566   3.183   5.988   6.308 -1.1303 -0.3682 -0.2999
   22CHL1   H7B 1567   3.340   5.923   6.369  1.4374  1.5765 -2.8353
   22CHL1    C8 1568   3.276   5.850   6.175 -0.0549  0.0643  0.2285
   22CHL1    H8 1569   3.183   5.849   6.115  0.3292  1.1746 -0.4384
   22CHL1   C14 1570   3.381   5.939   6.113  1.2411  0.0418  0.1360
   22CHL1   H14 1571   3.476   5.920   6.167  1.1888 -2.8904 -0.6708
   22CHL1   C15 1572   3.345   6.087   6.119 -0.4130 -0.0227  0.6794
   22CHL1  H15A 1573   3.240   6.105   6.085  0.1999  0.2980 -1.1797
   22CHL1  H15B 1574   3.372   6.132   6.216  0.5031 -2.3333  1.5620
   22CHL1   C16 1575   3.426   6.152   6.008 -0.8108 -0.1051  0.3692
   22CHL1  H16A 1576   3.363   6.208   5.935  0.2860  0.3891 -0.2231
   22CHL1  H16B 1577   3.506   6.218   6.047 -0.6229  0.4001 -0.8353
   22CHL1   C17 1578   3.508   6.031   5.947 -0.2133 -0.0277 -0.9751
   22CHL1   H17 1579   3.596   6.017   6.013 -0.2284 -0.6627 -1.0825
   22CHL1   C13 1580   3.424   5.900   5.969  0.9643 -0.4060 -0.1912
   22CHL1   C18 1581   3.310   5.904   5.863 -0.2387 -0.1465  1.2915
   22CHL1  H18A 1582   3.363   5.883   5.768 -3.6275  2.9460 -1.5734
   22CHL1  H18B 1583   3.235   5.825   5.882 -0.1856 -0.4747  0.2234
   22CHL1  H18C 1584   3.280   6.010   5.851  0.1237 -0.2374 -0.7971
   22CHL1   C12 1585   3.490   5.761   5.973  0.0304 -1.0687 -0.5107
   22CHL1  H12A 1586   3.513   5.730   5.869  2.5332  0.7338 -0.5721
   22CHL1  H12B 1587   3.582   5.762   6.035 -0.3745  0.5865  0.1052
   22CHL1   C11 1588   3.397   5.657   6.043 -0.0667  0.4825 -0.3515
   22CHL1  H11A 1589   3.312   5.664   5.971  0.2005  4.5321 -0.5202
   22CHL1  H11B 1590   3.451   5.562   6.061 -1.4698  0.0221  1.8383
   22CHL1    C9 1591   3.334   5.702   6.183  0.0242 -0.6018 -0.0635
   22CHL1    H9 1592   3.414   5.716   6.258  1.3406  1.3486 -1.7100
   22CHL1   C10 1593   3.238   5.603   6.250  0.0351  0.1648  0.0234
   22CHL1   C19 1594   3.134   5.568   6.148 -0.5281  0.0297 -0.1156
   22CHL1  H19A 1595   3.184   5.509   6.068 -0.1543 -0.5381  0.5281
   22CHL1  H19B 1596   3.055   5.501   6.189  0.1240 -0.3626  0.5317
   22CHL1  H19C 1597   3.097   5.664   6.105 -0.3750  0.7390  1.2810
   22CHL1    C1 1598   3.315   5.478   6.303  0.2186 -0.4152  0.6931
   22CHL1   H1A 1599   3.371   5.423   6.224 -1.2933 -1.0491  0.0360
   22CHL1   H1B 1600   3.396   5.515   6.370 -0.4973  0.9029  0.8709
   22CHL1    C2 1601   3.234   5.377   6.384  1.1157  0.2745 -0.5169
   22CHL1   H2A 1602   3.312   5.303   6.413  0.5436 -0.6632 -1.2882
   22CHL1   H2B 1603   3.162   5.318   6.324  1.3264  0.0244 -0.5262
   22CHL1   C20 1604   3.570   6.068   5.811  0.5160  0.8107 -0.1543
   22CHL1   H20 1605   3.487   6.094   5.742  0.6977 -0.4255 -0.8732
   22CHL1   C21 1606   3.649   5.950   5.749  0.3666 -1.1644 -0.5765
   22CHL1  H21A 1607   3.586   5.859   5.735 -1.1653 -0.5834  2.0045
   22CHL1  H21B 1608   3.734   5.922   5.815 -0.7673  0.0566  1.4872
   22CHL1  H21C 1609   3.690   5.974   5.648 -1.1295 -3.2794 -1.7820
   22CHL1   C22 1610   3.658   6.201   5.823 -0.2211 -0.0089 -0.8008
   22CHL1  H22A 1611   3.594   6.289   5.847 -0.4198 -0.0128 -1.2945
   22CHL1  H22B 1612   3.729   6.195   5.908 -0.0173 -2.2689 -1.0669
   22CHL1   C23 1613   3.728   6.240   5.702 -0.1701  0.7666 -0.0951
   22CHL1  H23A 1614   3.811   6.171   5.676  0.4310  1.2904  0.4189
   22CHL1  H23B 1615   3.660   6.249   5.615 -1.1125  0.6306  0.6111
   22CHL1   C24 1616   3.779   6.385   5.718 -0.8102  0.1217 -0.6082
   22CHL1  H24A 1617   3.706   6.450   5.771 -0.7212 -1.3009  1.3581
   22CHL1  H24B 1618   3.874   6.382   5.775 -0.7337 -0.6086 -0.7681
   22CHL1   C25 1619   3.809   6.438   5.574 -0.6549 -0.5377 -0.0260
   22CHL1   H25 1620   3.716   6.439   5.512 -0.9167 -1.2814  0.3421
   22CHL1   C26 1621   3.831   6.589   5.573  0.5798  0.3343  0.2014
   22CHL1  H26A 1622   3.815   6.617   5.466  0.8065  0.1341  0.1156
   22CHL1  H26B 1623   3.754   6.643   5.633 -1.3306 -1.9015 -0.0608
   22CHL1  H26C 1624   3.936   6.614   5.598  1.1752  0.3973 -2.0960
   22CHL1   C27 1625   3.915   6.365   5.489 -0.2681 -0.0486  0.3109
   22CHL1  H27A 1626   3.914   6.413   5.389  0.6192  1.1442  0.8373
   22CHL1  H27B 1627   4.012   6.380   5.542  0.0677  0.1540 -0.3551
   22CHL1  H27C 1628   3.889   6.258   5.479 -0.2102 -0.0455  0.1309
   23CHL1    C3 1629   6.246   2.485   5.838 -0.4506 -0.1278  0.5215
   23CHL1    H3 1630   6.252   2.596   5.840 -1.1574  0.0443 -2.4734
   23CHL1    O3 1631   6.245   2.425   5.965  0.1257  0.4055  0.3717
   23CHL1   H3' 1632   6.245   2.498   6.027  0.5164  1.0709 -0.3951
   23CHL1    C4 1633   6.110   2.463   5.766  0.2988 -0.5642  0.5754
   23CHL1   H4A 1634   6.072   2.359   5.756  0.3393 -0.6653  1.4317
   23CHL1   H4B 1635   6.035   2.515   5.829  0.9410 -0.0502  0.9379
   23CHL1    C5 1636   6.102   2.528   5.626 -0.1919  0.0420 -0.0385
   23CHL1    C6 1637   6.023   2.633   5.600 -0.0271  0.3304  0.2827
   23CHL1    H6 1638   5.946   2.669   5.670  0.3050  0.5198  0.5545
   23CHL1    C7 1639   6.012   2.704   5.471  0.1214  0.3327  0.3856
   23CHL1   H7A 1640   5.904   2.715   5.446  0.2115 -1.2401 -0.8376
   23CHL1   H7B 1641   6.064   2.802   5.471 -0.6244  0.7720 -1.2505
   23CHL1    C8 1642   6.080   2.615   5.355 -0.6520 -0.8642  0.0123
   23CHL1    H8 1643   6.016   2.528   5.330  1.2145 -2.2051 -0.3137
   23CHL1   C14 1644   6.094   2.703   5.230 -0.2153 -0.4214 -0.5250
   23CHL1   H14 1645   6.155   2.787   5.269 -0.2890 -0.9932  0.8713
   23CHL1   C15 1646   5.961   2.765   5.169  0.3158 -0.5397  0.2106
   23CHL1  H15A 1647   5.892   2.683   5.142  0.6932 -0.6232 -0.5134
   23CHL1  H15B 1648   5.914   2.836   5.241  0.6681 -1.6923  1.6292
   23CHL1   C16 1649   6.010   2.828   5.038  0.1821  0.6568 -0.4699
   23CHL1  H16A 1650   5.942   2.782   4.963 -0.4425  0.8275 -0.0183
   23CHL1  H16B 1651   6.006   2.939   5.032 -0.8072  0.6436 -0.2082
   23CHL1   C17 1652   6.154   2.770   5.008 -0.4874  0.3591  0.7899
   23CHL1   H17 1653   6.215   2.853   5.051 -4.4633  1.7647  4.4882
   23CHL1   C13 1654   6.175   2.649   5.110 -0.2619 -0.0069 -0.6279
   23CHL1   C18 1655   6.113   2.525   5.053 -0.2005  0.0817  0.4517
   23CHL1  H18A 1656   6.172   2.466   4.980 -1.5671 -0.3687 -0.3247
   23CHL1  H18B 1657   6.094   2.458   5.140 -0.5245 -3.1005 -1.9033
   23CHL1  H18C 1658   6.023   2.559   4.997  1.3622  2.3002 -0.9067
   23CHL1   C12 1659   6.318   2.613   5.157 -0.4820 -0.3538 -0.9570
   23CHL1  H12A 1660   6.382   2.574   5.075 -0.6929 -2.7301 -0.0680
   23CHL1  H12B 1661   6.363   2.705   5.200 -2.0436 -1.3430  3.2655
   23CHL1   C11 1662   6.307   2.511   5.282 -0.6216  0.5373 -0.1902
   23CHL1  H11A 1663   6.266   2.411   5.258  0.7113 -0.4851  1.5972
   23CHL1  H11B 1664   6.408   2.499   5.327 -1.3766  0.1985  1.4599
   23CHL1    C9 1665   6.224   2.573   5.397 -0.2348 -0.4804 -0.6654
   23CHL1    H9 1666   6.279   2.665   5.424  0.8419 -0.7833 -1.7539
   23CHL1   C10 1667   6.211   2.486   5.528 -0.2633 -0.6963 -0.1338
   23CHL1   C19 1668   6.185   2.343   5.484 -0.1231  0.4956 -0.0484
   23CHL1  H19A 1669   6.162   2.275   5.569  1.5669  0.4571  0.4007
   23CHL1  H19B 1670   6.107   2.332   5.405  0.3219  3.1726 -0.9878
   23CHL1  H19C 1671   6.272   2.297   5.434 -0.5433  1.4797 -1.7888
   23CHL1    C1 1672   6.348   2.482   5.606 -0.6150 -0.3033 -0.0356
   23CHL1   H1A 1673   6.428   2.435   5.545  0.5938  0.8902  0.5704
   23CHL1   H1B 1674   6.384   2.587   5.615 -2.4549  0.3076  0.5968
   23CHL1    C2 1675   6.350   2.422   5.752 -0.3160  0.3875 -0.5594
   23CHL1   H2A 1676   6.443   2.447   5.806  0.0353  0.0220 -0.9901
   23CHL1   H2B 1677   6.355   2.312   5.736  0.2167  0.2292  0.5905
   23CHL1   C20 1678   6.177   2.744   4.855 -0.7739  0.4038  0.4812
   23CHL1   H20 1679   6.118   2.653   4.831 -0.2368 -0.3914  2.0140
   23CHL1   C21 1680   6.326   2.711   4.840 -0.7457  0.0486 -0.6070
   23CHL1  H21A 1681   6.369   2.717   4.737  1.3074  0.6682  0.2310
   23CHL1  H21B 1682   6.343   2.605   4.870 -1.9057 -0.1301 -0.5529
   23CHL1  H21C 1683   6.392   2.771   4.907 -2.1267 -0.2577  1.0678
   23CHL1   C22 1684   6.142   2.870   4.769  0.1101 -0.4603  0.0238
   23CHL1  H22A 1685   6.166   2.847   4.663 -0.0003 -0.6831  0.0472
   23CHL1  H22B 1686   6.031   2.880   4.768 -0.2952 -3.4169 -2.6066
   23CHL1   C23 1687   6.204   3.002   4.808  0.4061  1.1020 -0.0538
   23CHL1  H23A 1688   6.164   3.039   4.905  0.3475 -1.4624  0.9842
   23CHL1  H23B 1689   6.315   2.995   4.811  0.4328  1.7751  1.0717
   23CHL1   C24 1690   6.178   3.116   4.711  0.0247 -0.1705  0.5103
   23CHL1  H24A 1691   6.199   3.081   4.608  0.7990  3.1039 -0.5742
   23CHL1  H24B 1692   6.071   3.144   4.706  0.0616 -0.2453 -2.2731
   23CHL1   C25 1693   6.264   3.241   4.748 -0.1262  0.7156 -0.7387
   23CHL1   H25 1694   6.368   3.202   4.747  0.7207  2.8570 -0.6383
   23CHL1   C26 1695   6.246   3.345   4.641  0.2508  0.3345 -0.0273
   23CHL1  H26A 1696   6.293   3.300   4.550  1.2657 -1.9423  1.5324
   23CHL1  H26B 1697   6.138   3.363   4.624  0.0961  0.3670  0.9358
   23CHL1  H26C 1698   6.299   3.440   4.664 -1.3582  1.5021 -0.9213
   23CHL1   C27 1699   6.234   3.302   4.887  0.0573 -0.2734  1.2355
   23CHL1  H27A 1700   6.230   3.219   4.961  1.0089  0.7112  2.4608
   23CHL1  H27B 1701   6.315   3.373   4.917  1.2592 -1.0518 -0.0566
   23CHL1  H27C 1702   6.145   3.368   4.884  1.3975  1.5975  0.3350
   24CHL1    C3 1703   4.501   5.004   5.995  0.9515 -0.5622 -0.3592
   24CHL1    H3 1704   4.416   5.069   5.963  0.2429 -0.2804  1.9148
   24CHL1    O3 1705   4.490   4.969   6.131 -0.6215  0.1193 -0.8225
   24CHL1   H3' 1706   4.445   4.884   6.129 -0.0316 -0.1894 -1.7851
   24CHL1    C4 1707   4.516   4.877   5.916 -0.0051  0.4643  0.1469
   24CHL1   H4A 1708   4.590   4.805   5.956 -1.2235 -1.7107 -1.2714
   24CHL1   H4B 1709   4.421   4.819   5.923 -1.3293  2.5320  0.1495
   24CHL1    C5 1710   4.547   4.907   5.775  0.0037  0.8464 -0.3185
   24CHL1    C6 1711   4.462   4.869   5.678  0.0115  0.6290 -0.8766
   24CHL1    H6 1712   4.374   4.813   5.713  0.0880  1.1914  0.2737
   24CHL1    C7 1713   4.488   4.873   5.530  0.4179  0.4444  1.0784
   24CHL1   H7A 1714   4.464   4.777   5.480  1.9306 -0.7245  2.4602
   24CHL1   H7B 1715   4.431   4.952   5.477  2.1493  0.3453 -1.1067
   24CHL1    C8 1716   4.639   4.900   5.513 -0.8132 -0.2203  0.6695
   24CHL1    H8 1717   4.695   4.807   5.538 -2.0761 -1.2030 -0.0341
   24CHL1   C14 1718   4.663   4.938   5.367 -0.4033 -0.4920  0.1618
   24CHL1   H14 1719   4.612   5.036   5.363 -0.0407 -0.3283 -0.8251
   24CHL1   C15 1720   4.606   4.847   5.256  0.4583 -0.1484  1.3580
   24CHL1  H15A 1721   4.637   4.741   5.273  2.9777  0.3856  0.4810
   24CHL1  H15B 1722   4.495   4.856   5.248  0.7464  2.3108 -1.8260
   24CHL1   C16 1723   4.680   4.902   5.133  0.1612  0.3702  0.7141
   24CHL1  H16A 1724   4.743   4.827   5.081 -0.1866  0.7981 -0.3506
   24CHL1  H16B 1725   4.612   4.930   5.050 -0.3898  1.5928  1.5471
   24CHL1   C17 1726   4.785   5.009   5.179  0.4398  0.8094  0.3902
   24CHL1   H17 1727   4.736   5.108   5.175 -1.2892 -0.0518 -2.0101
   24CHL1   C13 1728   4.810   4.980   5.335  0.8138  0.3496  0.3920
   24CHL1   C18 1729   4.906   4.867   5.361 -0.5282 -0.2962  0.0781
   24CHL1  H18A 1730   5.014   4.890   5.348 -0.6415 -0.6256 -1.8151
   24CHL1  H18B 1731   4.886   4.831   5.464 -0.3758 -0.4346  0.0610
   24CHL1  H18C 1732   4.878   4.784   5.292 -0.3333  0.4705 -0.9463
   24CHL1   C12 1733   4.850   5.102   5.425 -0.2836  0.1871  0.0506
   24CHL1  H12A 1734   4.958   5.121   5.412  0.1817 -1.2234  1.4824
   24CHL1  H12B 1735   4.793   5.193   5.396  0.5502  1.5646  2.4099
   24CHL1   C11 1736   4.821   5.067   5.566 -0.1929 -0.1292 -0.2311
   24CHL1  H11A 1737   4.916   5.019   5.597  0.2735  1.4459  0.8908
   24CHL1  H11B 1738   4.821   5.158   5.630  0.7761 -1.1605  1.2853
   24CHL1    C9 1739   4.687   5.011   5.604  0.0188 -0.2286  0.3169
   24CHL1    H9 1740   4.622   5.101   5.595 -0.3711 -0.0782  3.3201
   24CHL1   C10 1741   4.679   4.982   5.753  0.2424  0.3054  0.1574
   24CHL1   C19 1742   4.800   4.891   5.797 -0.2174 -0.7805 -0.9833
   24CHL1  H19A 1743   4.788   4.870   5.905  1.3416 -0.1715 -0.6702
   24CHL1  H19B 1744   4.798   4.795   5.741  1.2807 -0.9747 -0.7512
   24CHL1  H19C 1745   4.904   4.930   5.792  0.0086 -1.4543 -1.8204
   24CHL1    C1 1746   4.679   5.112   5.846 -0.0848  0.3890  0.3943
   24CHL1   H1A 1747   4.780   5.158   5.857 -1.3897  3.3120  1.0732
   24CHL1   H1B 1748   4.607   5.186   5.804 -1.0208  2.1285  4.5815
   24CHL1    C2 1749   4.637   5.077   5.988 -0.0005 -0.0020  0.6825
   24CHL1   H2A 1750   4.624   5.170   6.048  0.4468  1.4141 -1.3103
   24CHL1   H2B 1751   4.715   5.014   6.037 -0.1018 -1.3977 -0.8671
   24CHL1   C20 1752   4.907   5.007   5.090  0.7229  0.7846  0.2793
   24CHL1   H20 1753   4.954   4.907   5.092 -0.9033 -0.1514 -2.7498
   24CHL1   C21 1754   4.995   5.111   5.144 -0.4330  0.0972 -0.6790
   24CHL1  H21A 1755   5.050   5.080   5.236  1.1526  1.1196 -1.2313
   24CHL1  H21B 1756   4.931   5.199   5.164 -0.2861  0.3701 -1.3815
   24CHL1  H21C 1757   5.071   5.142   5.070 -1.7345 -1.2376 -2.6570
   24CHL1   C22 1758   4.857   5.041   4.943  0.2687 -0.0690  0.0426
   24CHL1  H22A 1759   4.819   4.943   4.909 -0.3468  0.2705 -0.2506
   24CHL1  H22B 1760   4.772   5.112   4.950  1.3291  1.1777  0.7280
   24CHL1   C23 1761   4.959   5.091   4.836  0.3681  0.1849 -0.9703
   24CHL1  H23A 1762   5.059   5.042   4.840 -0.7033 -2.0396  0.2796
   24CHL1  H23B 1763   4.916   5.045   4.744 -0.3313 -0.5006 -0.3217
   24CHL1   C24 1764   4.973   5.242   4.824  0.1020  0.2939 -0.1177
   24CHL1  H24A 1765   4.870   5.282   4.809  0.1641  0.7039  0.5276
   24CHL1  H24B 1766   5.003   5.288   4.920  0.7565 -1.3539  0.4881
   24CHL1   C25 1767   5.057   5.291   4.704  0.6661  0.5114 -0.0289
   24CHL1   H25 1768   5.014   5.237   4.617  1.9539 -1.1618  0.3257
   24CHL1   C26 1769   5.059   5.453   4.700  0.2934  0.2517  0.6814
   24CHL1  H26A 1770   5.075   5.505   4.797 -3.2790 -0.3021  1.7006
   24CHL1  H26B 1771   5.131   5.492   4.625  0.4921 -0.0978  0.6865
   24CHL1  H26C 1772   4.962   5.488   4.660  0.4964  1.5194  1.2467
   24CHL1   C27 1773   5.208   5.249   4.715 -0.0491  0.1639 -0.1181
   24CHL1  H27A 1774   5.221   5.145   4.752 -0.7413  0.0001 -0.3169
   24CHL1  H27B 1775   5.257   5.252   4.616  0.4433 -0.4791  0.1024
   24CHL1  H27C 1776   5.257   5.323   4.782 -1.4944  0.7959  0.2870
   25CHL1    C3 1777   3.425   3.056   5.863 -0.3945 -0.3139  0.0445
   25CHL1    H3 1778   3.511   3.124   5.850 -1.6970  1.2142 -1.0729
   25CHL1    O3 1779   3.394   3.056   6.003 -0.3606  0.6859  0.2221
   25CHL1   H3' 1780   3.382   3.149   6.026  0.4156  0.7201  0.5381
   25CHL1    C4 1781   3.316   3.119   5.778 -0.2042 -0.2271  0.1010
   25CHL1   H4A 1782   3.218   3.067   5.786  0.0535 -1.2411 -2.3737
   25CHL1   H4B 1783   3.296   3.218   5.824 -3.0345 -0.0792 -1.2457
   25CHL1    C5 1784   3.367   3.135   5.635  0.3118  0.6315 -0.3272
   25CHL1    C6 1785   3.373   3.257   5.572 -0.3195  0.6153 -0.3686
   25CHL1    H6 1786   3.341   3.349   5.623 -1.6895 -0.6393  1.1272
   25CHL1    C7 1787   3.429   3.265   5.431  0.4581 -0.0405 -0.2584
   25CHL1   H7A 1788   3.374   3.334   5.365  2.7735  1.7120 -0.4848
   25CHL1   H7B 1789   3.532   3.305   5.426  0.8401 -1.1339 -1.9060
   25CHL1    C8 1790   3.439   3.127   5.356  0.1668 -0.8515 -0.2380
   25CHL1    H8 1791   3.333   3.098   5.338 -1.4584  1.9125  3.5434
   25CHL1   C14 1792   3.520   3.126   5.228 -0.3190 -0.3810  0.6914
   25CHL1   H14 1793   3.628   3.138   5.249 -0.2646 -0.2862  0.3565
   25CHL1   C15 1794   3.491   3.242   5.125 -0.1987  0.9901 -0.6317
   25CHL1  H15A 1795   3.382   3.241   5.103 -0.2854 -1.4303 -0.3847
   25CHL1  H15B 1796   3.528   3.340   5.161 -0.2965  0.9301 -0.3680
   25CHL1   C16 1797   3.568   3.187   4.999  0.1712  0.3401 -0.1005
   25CHL1  H16A 1798   3.497   3.199   4.914  0.7856  0.6895 -0.5692
   25CHL1  H16B 1799   3.661   3.244   4.979 -0.4431  1.4724  0.1692
   25CHL1   C17 1800   3.612   3.041   5.023  0.1105 -0.3430 -0.4900
   25CHL1   H17 1801   3.712   3.037   5.071 -0.0435 -0.8188 -0.1966
   25CHL1   C13 1802   3.526   2.991   5.148 -0.7249 -0.7325  0.1788
   25CHL1   C18 1803   3.391   2.952   5.086  0.3400 -0.2132  0.4051
   25CHL1  H18A 1804   3.312   2.941   5.163  0.1452  1.7240  0.5132
   25CHL1  H18B 1805   3.352   3.019   5.007  1.1990 -1.9345 -1.5979
   25CHL1  H18C 1806   3.401   2.853   5.037  1.5218  0.2421 -0.3131
   25CHL1   C12 1807   3.594   2.887   5.241  0.3735 -0.7184  0.1291
   25CHL1  H12A 1808   3.591   2.791   5.183  0.2711 -0.6799  0.0691
   25CHL1  H12B 1809   3.702   2.903   5.260  0.6049 -0.2292 -1.4091
   25CHL1   C11 1810   3.520   2.878   5.377  0.3856  0.0254 -0.0376
   25CHL1  H11A 1811   3.426   2.825   5.351  0.4677 -0.8937  1.4147
   25CHL1  H11B 1812   3.577   2.809   5.443 -0.3557  0.0359  0.6254
   25CHL1    C9 1813   3.501   3.018   5.448  0.1639  0.4629 -0.8074
   25CHL1    H9 1814   3.603   3.057   5.469 -0.4580  1.3771  0.7020
   25CHL1   C10 1815   3.414   3.001   5.573  0.2984 -0.0290  0.0199
   25CHL1   C19 1816   3.275   2.935   5.539  0.1244  0.3638 -0.1425
   25CHL1  H19A 1817   3.202   2.922   5.622  0.4530 -1.3731 -0.1057
   25CHL1  H19B 1818   3.220   2.995   5.463  0.7326 -0.6157 -1.3951
   25CHL1  H19C 1819   3.275   2.836   5.490 -1.8742  0.1508  0.1867
   25CHL1    C1 1820   3.488   2.912   5.671 -0.4135 -0.2556 -0.6332
   25CHL1   H1A 1821   3.477   2.808   5.636 -1.5062  0.1114 -1.4129
   25CHL1   H1B 1822   3.598   2.930   5.666 -0.3561 -0.3804  0.0973
   25CHL1    C2 1823   3.445   2.912   5.818 -0.1298  0.4359  0.2429
   25CHL1   H2A 1824   3.512   2.848   5.880 -1.0899 -2.0115 -1.0994
   25CHL1   H2B 1825   3.344   2.865   5.829  0.5749 -1.3100 -0.4025
   25CHL1   C20 1826   3.623   2.962   4.895 -0.2853  0.2560  0.8753
   25CHL1   H20 1827   3.525   2.960   4.844 -0.1690  1.5987  0.5785
   25CHL1   C21 1828   3.681   2.818   4.935  0.8210 -0.2610 -0.2573
   25CHL1  H21A 1829   3.747   2.821   5.024 -0.7445  1.1968  0.9191
   25CHL1  H21B 1830   3.732   2.778   4.845  1.5192 -0.1501  0.0875
   25CHL1  H21C 1831   3.604   2.744   4.966  2.2602 -1.5229  0.4403
   25CHL1   C22 1832   3.723   3.034   4.795  0.8520  1.0716 -0.0047
   25CHL1  H22A 1833   3.714   3.145   4.796  2.2761  1.2094  1.4843
   25CHL1  H22B 1834   3.824   2.999   4.826  0.7749 -1.5597 -2.2810
   25CHL1   C23 1835   3.722   2.985   4.647  0.6129  0.0682  0.3868
   25CHL1  H23A 1836   3.735   2.875   4.634 -0.8746 -0.3344  1.8259
   25CHL1  H23B 1837   3.621   3.007   4.605  1.6347  2.4317 -1.0365
   25CHL1   C24 1838   3.825   3.049   4.555 -0.5192 -0.0267 -1.2198
   25CHL1  H24A 1839   3.777   3.142   4.517 -2.6395 -1.7289 -2.9903
   25CHL1  H24B 1840   3.921   3.077   4.603 -1.4648  1.8001 -0.2787
   25CHL1   C25 1841   3.857   2.969   4.423 -0.2946  0.1955  0.1668
   25CHL1   H25 1842   3.770   2.926   4.370  1.3604 -1.2584 -1.5386
   25CHL1   C26 1843   3.929   3.055   4.308  0.2784 -0.1504  0.0637
   25CHL1  H26A 1844   3.946   3.002   4.213  0.6876  1.4602 -0.8051
   25CHL1  H26B 1845   3.885   3.157   4.304 -1.4495 -0.6917  2.7280
   25CHL1  H26C 1846   4.030   3.063   4.354 -0.8204 -0.1596  2.6722
   25CHL1   C27 1847   3.955   2.852   4.441  0.0320 -0.1882 -0.7378
   25CHL1  H27A 1848   4.010   2.820   4.349  1.3281 -0.8772  0.2470
   25CHL1  H27B 1849   4.031   2.867   4.520  0.8216 -2.1089 -1.0906
   25CHL1  H27C 1850   3.901   2.761   4.473  0.4399 -1.2362 -2.8323
   26CHL1    C3 1851   0.862   0.525   5.982 -0.0186  0.3789  0.5859
   26CHL1    H3 1852   0.861   0.415   5.971 -1.4698  0.5090 -1.0186
   26CHL1    O3 1853   0.853   0.559   6.120  0.0686  0.2496 -0.1481
   26CHL1   H3' 1854   0.940   0.546   6.158  0.1553 -0.8779 -0.6907
   26CHL1    C4 1855   0.989   0.589   5.929  0.3421  0.8845  0.6443
   26CHL1   H4A 1856   1.000   0.696   5.958  1.0177  1.2687 -0.9136
   26CHL1   H4B 1857   1.072   0.537   5.981  0.0935 -0.7624 -0.5416
   26CHL1    C5 1858   1.014   0.591   5.782  0.3468  0.0039 -0.5298
   26CHL1    C6 1859   1.131   0.546   5.733 -0.3582 -0.1624  0.4261
   26CHL1    H6 1860   1.210   0.508   5.800 -0.4671  1.9180  1.8243
   26CHL1    C7 1861   1.166   0.548   5.587  0.9569  0.2656  0.2716
   26CHL1   H7A 1862   1.257   0.610   5.576  0.2610  1.1128 -0.9738
   26CHL1   H7B 1863   1.187   0.448   5.545  0.2265  0.6839 -1.1365
   26CHL1    C8 1864   1.062   0.615   5.495 -0.0891 -0.2453 -0.3404
   26CHL1    H8 1865   1.077   0.725   5.510 -1.3095  0.1580 -1.8659
   26CHL1   C14 1866   1.077   0.576   5.352 -0.2828 -0.3706 -0.3171
   26CHL1   H14 1867   1.038   0.472   5.344  1.6071 -1.0901 -0.9371
   26CHL1   C15 1868   1.217   0.586   5.278  1.4773 -0.2454 -0.3901
   26CHL1  H15A 1869   1.260   0.687   5.295 -1.6425  1.2065 -0.4932
   26CHL1  H15B 1870   1.278   0.499   5.312 -0.4996 -0.9822  1.4879
   26CHL1   C16 1871   1.183   0.569   5.127 -0.3604  0.3688  0.0665
   26CHL1  H16A 1872   1.246   0.642   5.072  0.8985 -0.8379 -0.1288
   26CHL1  H16B 1873   1.212   0.468   5.091  0.5983  0.8770 -0.6208
   26CHL1   C17 1874   1.027   0.582   5.114  0.3905  0.2627 -0.5052
   26CHL1   H17 1875   0.990   0.477   5.114 -1.5708  0.8768 -1.9654
   26CHL1   C13 1876   0.980   0.649   5.253 -0.0888  0.0625 -0.0279
   26CHL1   C18 1877   1.026   0.804   5.239  0.2075  0.6011  0.3093
   26CHL1  H18A 1878   0.957   0.846   5.162 -0.0047 -0.7380 -0.2550
   26CHL1  H18B 1879   1.010   0.868   5.329 -1.2667  1.4263 -0.4912
   26CHL1  H18C 1880   1.130   0.807   5.202  0.4055 -0.7752  0.7134
   26CHL1   C12 1881   0.833   0.638   5.303  0.1716 -1.3071  0.7469
   26CHL1  H12A 1882   0.778   0.718   5.250 -0.5179 -2.8570 -0.9559
   26CHL1  H12B 1883   0.790   0.540   5.274  0.8818 -1.4944  0.2883
   26CHL1   C11 1884   0.827   0.673   5.447  0.4524  0.2633  0.0402
   26CHL1  H11A 1885   0.853   0.781   5.445  1.1657  0.0873 -0.4492
   26CHL1  H11B 1886   0.718   0.663   5.464  0.4088 -0.6488 -0.7587
   26CHL1    C9 1887   0.914   0.599   5.546  0.2725  0.1981 -0.2479
   26CHL1    H9 1888   0.894   0.490   5.537  1.3838 -0.0050 -0.4258
   26CHL1   C10 1889   0.894   0.633   5.698  0.4556 -0.2225  0.8561
   26CHL1   C19 1890   0.881   0.791   5.708  0.0247 -0.3478  0.2239
   26CHL1  H19A 1891   0.873   0.829   5.812  1.5287 -3.0918  1.4568
   26CHL1  H19B 1892   0.973   0.841   5.671 -0.0777  0.5804  1.2067
   26CHL1  H19C 1893   0.793   0.827   5.650 -0.1395 -0.9809  0.0701
   26CHL1    C1 1894   0.767   0.577   5.754 -0.2502 -0.1516  0.4710
   26CHL1   H1A 1895   0.689   0.633   5.699  2.5454  0.8213 -2.8378
   26CHL1   H1B 1896   0.769   0.467   5.734  1.4276 -0.4243  1.7763
   26CHL1    C2 1897   0.744   0.585   5.914  0.5559 -0.5067  0.2475
   26CHL1   H2A 1898   0.646   0.540   5.941  0.4768 -1.4494 -1.4911
   26CHL1   H2B 1899   0.745   0.693   5.941 -0.3962 -0.9522  2.2342
   26CHL1   C20 1900   0.981   0.641   4.980  0.8665 -0.7848  0.3956
   26CHL1   H20 1901   1.003   0.750   4.976 -2.5993  0.0414  0.6899
   26CHL1   C21 1902   0.828   0.633   4.966 -0.0461  0.6823  0.0471
   26CHL1  H21A 1903   0.772   0.719   5.010  1.0455  1.6577 -0.4292
   26CHL1  H21B 1904   0.797   0.531   4.997  2.1333  0.4325  1.6694
   26CHL1  H21C 1905   0.800   0.640   4.859 -0.3350  2.5379  0.2112
   26CHL1   C22 1906   1.054   0.570   4.859 -0.3393  0.4820 -0.2044
   26CHL1  H22A 1907   1.024   0.626   4.767 -0.9344 -1.2555 -1.1131
   26CHL1  H22B 1908   1.163   0.592   4.862  0.4805 -3.0418  1.0019
   26CHL1   C23 1909   1.031   0.420   4.830  0.3778 -0.4827 -0.5743
   26CHL1  H23A 1910   1.066   0.375   4.925  0.0013  0.8585  0.2378
   26CHL1  H23B 1911   0.923   0.407   4.811  0.9236 -1.5667 -3.3171
   26CHL1   C24 1912   1.108   0.367   4.717 -0.0301  0.0715  0.3027
   26CHL1  H24A 1913   1.073   0.407   4.619  0.8289  0.5707  0.1859
   26CHL1  H24B 1914   1.216   0.390   4.730  0.3467 -1.9974  1.0899
   26CHL1   C25 1915   1.115   0.213   4.725  0.3442  0.6966 -0.5404
   26CHL1   H25 1916   1.107   0.193   4.834 -1.4033 -0.9236 -0.9350
   26CHL1   C26 1917   0.989   0.142   4.645 -0.5194 -0.7245 -0.0668
   26CHL1  H26A 1918   0.989   0.032   4.663  1.0877 -0.3209  3.0297
   26CHL1  H26B 1919   0.886   0.180   4.660 -2.4139 -4.0362 -3.0646
   26CHL1  H26C 1920   1.012   0.164   4.538  1.6997 -2.3742 -0.0080
   26CHL1   C27 1921   1.241   0.155   4.661  0.3721  0.5945 -0.0085
   26CHL1  H27A 1922   1.332   0.178   4.719  1.5256  0.9297 -1.8797
   26CHL1  H27B 1923   1.238   0.044   4.656  1.8595  0.5387 -0.0400
   26CHL1  H27C 1924   1.258   0.171   4.552 -1.5329  1.4529 -0.2220
   27CHL1    C3 1925   5.309   5.562   6.263  0.3043  0.4761  0.4631
   27CHL1    H3 1926   5.305   5.451   6.258  0.4153  0.4654  0.5921
   27CHL1    O3 1927   5.290   5.598   6.401  0.3283  0.3607  0.3818
   27CHL1   H3' 1928   5.364   5.650   6.433 -0.1456 -0.7000  3.5123
   27CHL1    C4 1929   5.449   5.614   6.215  0.2400 -0.0608 -0.2597
   27CHL1   H4A 1930   5.446   5.721   6.242  1.1928 -0.1116  0.0914
   27CHL1   H4B 1931   5.525   5.567   6.282  0.6381 -0.7472 -1.1821
   27CHL1    C5 1932   5.465   5.596   6.067 -1.4938 -0.2725  0.7947
   27CHL1    C6 1933   5.561   5.515   6.008 -0.8942 -0.3511  0.2925
   27CHL1    H6 1934   5.635   5.466   6.073  2.4787  2.0378 -1.4355
   27CHL1    C7 1935   5.571   5.504   5.857  0.1871  0.1586 -0.6614
   27CHL1   H7A 1936   5.679   5.495   5.832  0.5419  0.0863  0.8031
   27CHL1   H7B 1937   5.506   5.421   5.823  0.2487 -0.9064  1.6029
   27CHL1    C8 1938   5.517   5.621   5.780  0.5960 -0.5142 -0.6061
   27CHL1    H8 1939   5.579   5.712   5.800 -0.2503 -0.1941  0.6385
   27CHL1   C14 1940   5.506   5.600   5.633 -0.6539  0.8309  0.1607
   27CHL1   H14 1941   5.431   5.518   5.621 -1.6597  1.9045 -1.3771
   27CHL1   C15 1942   5.643   5.548   5.563  0.2313  0.5329 -0.2770
   27CHL1  H15A 1943   5.720   5.620   5.599 -0.1892  1.9449 -2.0583
   27CHL1  H15B 1944   5.678   5.448   5.598  1.6991  1.0730 -0.1081
   27CHL1   C16 1945   5.613   5.564   5.411 -0.0584 -0.2168  0.0924
   27CHL1  H16A 1946   5.693   5.626   5.366 -0.8404  0.0406 -0.9985
   27CHL1  H16B 1947   5.608   5.458   5.378  1.4227  0.5746 -3.0284
   27CHL1   C17 1948   5.474   5.644   5.403 -0.4847  0.0349 -0.1008
   27CHL1   H17 1949   5.398   5.564   5.389  1.8038 -2.4741  0.9367
   27CHL1   C13 1950   5.458   5.715   5.545 -0.0854  0.5250  0.2817
   27CHL1   C18 1951   5.553   5.844   5.547 -0.0010  0.1755 -0.2835
   27CHL1  H18A 1952   5.523   5.920   5.472 -1.4175 -0.0603  0.0132
   27CHL1  H18B 1953   5.551   5.883   5.651 -0.9392 -0.9925  0.1711
   27CHL1  H18C 1954   5.658   5.816   5.522  0.0223 -0.5092  0.5256
   27CHL1   C12 1955   5.317   5.733   5.592 -0.3165 -0.8575  0.0744
   27CHL1  H12A 1956   5.257   5.804   5.532  0.5170  0.2025  0.4595
   27CHL1  H12B 1957   5.261   5.637   5.583 -0.9908 -0.3173 -1.8770
   27CHL1   C11 1958   5.302   5.766   5.743  0.5791  0.4724 -0.2828
   27CHL1  H11A 1959   5.360   5.861   5.754  0.8329  0.0717  2.5939
   27CHL1  H11B 1960   5.198   5.785   5.777  0.5516 -0.6675  0.2882
   27CHL1    C9 1961   5.373   5.659   5.832  0.0641 -0.4895  0.1693
   27CHL1    H9 1962   5.313   5.568   5.814  1.0736 -0.8144 -1.9367
   27CHL1   C10 1963   5.361   5.682   5.986 -0.4661 -0.1417 -0.5069
   27CHL1   C19 1964   5.363   5.829   6.008  0.1360  0.0054  0.4573
   27CHL1  H19A 1965   5.364   5.848   6.117 -1.8234  3.1937  0.0567
   27CHL1  H19B 1966   5.455   5.875   5.967  0.3965  1.7631  2.7742
   27CHL1  H19C 1967   5.276   5.888   5.970  1.6106  0.2398 -2.9350
   27CHL1    C1 1968   5.213   5.627   6.027  0.3783 -0.0639 -0.5067
   27CHL1   H1A 1969   5.140   5.696   5.981 -0.9996 -2.1162 -1.5333
   27CHL1   H1B 1970   5.192   5.527   5.984 -2.3405  0.2088  0.0451
   27CHL1    C2 1971   5.191   5.625   6.178  0.5182 -0.1736 -0.0100
   27CHL1   H2A 1972   5.098   5.574   6.211  0.9242  0.4161  2.1690
   27CHL1   H2B 1973   5.183   5.726   6.223 -0.5964 -0.6166  0.8137
   27CHL1   C20 1974   5.475   5.736   5.271 -0.4880  0.1431 -1.3269
   27CHL1   H20 1975   5.567   5.799   5.273  0.2089 -0.7183  2.5040
   27CHL1   C21 1976   5.346   5.827   5.263  0.3180  0.5205  0.8469
   27CHL1  H21A 1977   5.338   5.899   5.348 -2.4448  0.7483  0.4701
   27CHL1  H21B 1978   5.256   5.762   5.259  0.7648 -0.0767  0.4373
   27CHL1  H21C 1979   5.346   5.901   5.180  0.7209 -0.6327 -0.2041
   27CHL1   C22 1980   5.476   5.657   5.144 -0.0348  0.6128  0.8958
   27CHL1  H22A 1981   5.553   5.578   5.155 -1.1852 -0.5401  0.9176
   27CHL1  H22B 1982   5.381   5.602   5.123  1.0896 -0.8790 -0.4721
   27CHL1   C23 1983   5.515   5.722   5.012 -0.3676  0.0651 -0.1839
   27CHL1  H23A 1984   5.456   5.814   4.997  0.1387  0.0460 -2.6417
   27CHL1  H23B 1985   5.618   5.757   5.037  0.9022 -3.1635 -0.3994
   27CHL1   C24 1986   5.517   5.611   4.906 -0.5551  0.3338  0.8612
   27CHL1  H24A 1987   5.574   5.524   4.944  1.8236  1.6669  0.5295
   27CHL1  H24B 1988   5.415   5.572   4.882 -0.7575 -0.3145  2.6424
   27CHL1   C25 1989   5.592   5.664   4.779 -0.6364 -0.8374  0.4040
   27CHL1   H25 1990   5.560   5.771   4.776 -2.1938 -1.2953 -0.7746
   27CHL1   C26 1991   5.748   5.651   4.803 -0.3648  0.0542  0.7374
   27CHL1  H26A 1992   5.798   5.721   4.733 -0.4756 -0.6125 -0.0152
   27CHL1  H26B 1993   5.786   5.677   4.904  3.3512  0.2781 -0.5880
   27CHL1  H26C 1994   5.777   5.547   4.778 -2.0163 -0.6346  1.5137
   27CHL1   C27 1995   5.540   5.612   4.635 -0.2348  0.4402  0.3215
   27CHL1  H27A 1996   5.433   5.630   4.616 -0.0128  2.2983  0.6318
   27CHL1  H27B 1997   5.603   5.653   4.553  0.1522 -2.0290 -0.7092
   27CHL1  H27C 1998   5.568   5.505   4.637  1.7844  0.9188  0.2519
   28CHL1    C3 1999   0.504   5.579   6.193 -0.0372 -0.6586  0.0134
   28CHL1    H3 2000   0.595   5.575   6.255 -0.6770 -1.0140  0.9609
   28CHL1    O3 2001   0.403   5.548   6.288 -0.1435  0.7047 -0.6150
   28CHL1   H3' 2002   0.387   5.628   6.338 -2.8832 -1.4416  2.3679
   28CHL1    C4 2003   0.501   5.726   6.142 -0.3567  0.4456  0.9722
   28CHL1   H4A 2004   0.400   5.751   6.102  0.1911  1.8282  0.3985
   28CHL1   H4B 2005   0.507   5.801   6.224  1.4699 -0.2133  1.4973
   28CHL1    C5 2006   0.603   5.750   6.035  0.1687  0.3975 -0.1687
   28CHL1    C6 2007   0.696   5.847   6.039 -0.0657  0.0388  0.4916
   28CHL1    H6 2008   0.712   5.906   6.131  2.2424 -0.8137  0.6960
   28CHL1    C7 2009   0.792   5.876   5.923  0.3808  0.6862  0.2160
   28CHL1   H7A 2010   0.819   5.983   5.906  3.1407 -0.0931 -1.0605
   28CHL1   H7B 2011   0.885   5.823   5.953 -0.6132 -3.3482 -2.9059
   28CHL1    C8 2012   0.745   5.813   5.794  0.1218  0.4286 -0.4853
   28CHL1    H8 2013   0.659   5.874   5.758 -1.3632 -2.2230 -1.6934
   28CHL1   C14 2014   0.860   5.814   5.693  0.1599 -0.3060  0.1457
   28CHL1   H14 2015   0.938   5.747   5.735  1.0182 -0.0118 -0.9466
   28CHL1   C15 2016   0.931   5.949   5.670  0.3923  0.3160 -0.7601
   28CHL1  H15A 2017   0.849   6.023   5.657 -0.2829 -0.4857 -1.2008
   28CHL1  H15B 2018   1.003   5.978   5.750 -0.2114 -0.8759  0.2399
   28CHL1   C16 2019   1.001   5.940   5.539  0.2513  0.0229 -0.4553
   28CHL1  H16A 2020   0.954   6.012   5.468 -0.6634 -1.1007 -1.0361
   28CHL1  H16B 2021   1.110   5.963   5.545  0.4315 -0.9607  0.4210
   28CHL1   C17 2022   0.963   5.802   5.479  1.0486  0.4627 -0.1525
   28CHL1   H17 2023   1.034   5.723   5.511  0.1480 -0.8934 -1.3926
   28CHL1   C13 2024   0.829   5.766   5.547  0.1447 -0.1252  0.2148
   28CHL1   C18 2025   0.709   5.834   5.479  0.4411  0.2151 -0.1930
   28CHL1  H18A 2026   0.640   5.872   5.558 -2.0935 -0.8511 -1.7684
   28CHL1  H18B 2027   0.748   5.915   5.414 -0.4621  1.3943  0.6885
   28CHL1  H18C 2028   0.636   5.766   5.429  0.6910 -1.3065  1.4040
   28CHL1   C12 2029   0.790   5.622   5.573  0.3691  0.2026  0.5450
   28CHL1  H12A 2030   0.750   5.575   5.481 -0.8119  2.0562  0.0659
   28CHL1  H12B 2031   0.877   5.566   5.613  0.4415 -0.1194 -0.0509
   28CHL1   C11 2032   0.670   5.594   5.670 -0.2290 -0.4245 -0.3842
   28CHL1  H11A 2033   0.578   5.640   5.627  0.1168  3.1741  2.2301
   28CHL1  H11B 2034   0.649   5.485   5.677 -2.1352 -0.1909 -1.5647
   28CHL1    C9 2035   0.704   5.663   5.806  0.0867  0.3616 -0.3504
   28CHL1    H9 2036   0.791   5.605   5.844 -0.0075  2.0828  2.9213
   28CHL1   C10 2037   0.592   5.652   5.913 -0.2748 -0.2599  0.2971
   28CHL1   C19 2038   0.461   5.673   5.840  0.2248 -0.3722 -0.5112
   28CHL1  H19A 2039   0.432   5.609   5.753  1.2928 -0.3876 -0.8692
   28CHL1  H19B 2040   0.378   5.650   5.910 -0.6522 -0.7663 -1.6476
   28CHL1  H19C 2041   0.454   5.778   5.805 -1.8355 -0.3059 -0.0288
   28CHL1    C1 2042   0.607   5.510   5.966 -0.1053  0.3434  0.0081
   28CHL1   H1A 2043   0.603   5.439   5.880 -0.0616 -0.4785  0.6655
   28CHL1   H1B 2044   0.706   5.492   6.012 -0.8725 -0.9150  1.2555
   28CHL1    C2 2045   0.506   5.475   6.081 -0.4229 -0.2274  0.4003
   28CHL1   H2A 2046   0.535   5.377   6.124  2.6817  0.4694  0.1012
   28CHL1   H2B 2047   0.404   5.457   6.039  0.1020  0.1424 -1.1143
   28CHL1   C20 2048   0.975   5.791   5.327 -0.1223 -0.7382 -0.6467
   28CHL1   H20 2049   0.884   5.839   5.285 -0.9758 -0.9205  0.9071
   28CHL1   C21 2050   0.967   5.643   5.293  0.4680  1.4438  0.0616
   28CHL1  H21A 2051   0.876   5.590   5.329  0.7800  0.9622  0.1481
   28CHL1  H21B 2052   1.057   5.584   5.322 -0.3518 -0.8641 -1.7606
   28CHL1  H21C 2053   0.963   5.639   5.182 -0.7106 -1.5374  0.1170
   28CHL1   C22 2054   1.100   5.856   5.258 -0.1211 -0.7105  0.3071
   28CHL1  H22A 2055   1.140   5.940   5.319 -1.3492  0.0117  0.1639
   28CHL1  H22B 2056   1.177   5.777   5.244 -0.0292 -0.2114 -2.8153
   28CHL1   C23 2057   1.062   5.906   5.114 -0.1653 -0.0465  0.0347
   28CHL1  H23A 2058   1.015   5.825   5.054  1.1267 -1.4912  0.8879
   28CHL1  H23B 2059   0.988   5.989   5.115  1.7441  1.7653  0.1892
   28CHL1   C24 2060   1.186   5.955   5.032  1.0626  0.4686  0.1193
   28CHL1  H24A 2061   1.242   6.038   5.080 -1.2892  1.4637  1.2756
   28CHL1  H24B 2062   1.259   5.871   5.027  0.3720 -0.1030 -0.7598
   28CHL1   C25 2063   1.153   6.012   4.899  0.1877 -0.9218  0.3468
   28CHL1   H25 2064   1.092   5.937   4.844  0.0100  1.3251 -2.7817
   28CHL1   C26 2065   1.062   6.140   4.894 -0.9321 -0.0045 -0.4740
   28CHL1  H26A 2066   1.105   6.212   4.966 -2.8226  0.2760  0.4471
   28CHL1  H26B 2067   1.073   6.188   4.795  0.7930  1.9388  0.5848
   28CHL1  H26C 2068   0.956   6.119   4.921 -0.4573 -1.2841  0.5340
   28CHL1   C27 2069   1.277   6.029   4.825 -0.4065  0.0626 -0.4018
   28CHL1  H27A 2070   1.259   6.097   4.739  1.2280  0.5829 -0.3727
   28CHL1  H27B 2071   1.351   6.078   4.891 -0.7722  0.5209 -0.3283
   28CHL1  H27C 2072   1.312   5.927   4.796 -2.6112 -1.1346  0.8769
   29CHL1    C3 2073   3.836   2.650   3.172  0.8702  0.1086 -0.4210
   29CHL1    H3 2074   3.856   2.553   3.222  2.4458  1.2838  1.3318
   29CHL1    O3 2075   3.771   2.615   3.054  0.6976  0.4769  0.2043
   29CHL1   H3' 2076   3.762   2.701   3.013  2.6674 -0.0532 -1.4862
   29CHL1    C4 2077   3.735   2.718   3.262  0.1578 -0.4335  0.7622
   29CHL1   H4A 2078   3.709   2.815   3.213 -0.1231 -0.5938  0.5983
   29CHL1   H4B 2079   3.644   2.659   3.282 -1.3600  0.2621 -3.2076
   29CHL1    C5 2080   3.814   2.764   3.383 -0.2108  0.2787 -0.4694
   29CHL1    C6 2081   3.769   2.734   3.507  0.5265 -0.0312 -0.3166
   29CHL1    H6 2082   3.668   2.692   3.520  0.6896 -0.1769  0.5268
   29CHL1    C7 2083   3.826   2.778   3.634 -0.3062 -0.1941  0.6163
   29CHL1   H7A 2084   3.750   2.803   3.711  1.0663 -0.8759  2.2520
   29CHL1   H7B 2085   3.873   2.690   3.684  0.5778 -0.4658 -0.6458
   29CHL1    C8 2086   3.920   2.902   3.620 -0.6377 -0.1619  0.6208
   29CHL1    H8 2087   3.844   2.983   3.620 -0.2914  0.1642  0.7098
   29CHL1   C14 2088   4.014   2.897   3.737  0.0178 -0.4423  0.9374
   29CHL1   H14 2089   4.063   2.798   3.730  0.4125 -0.2737  1.3096
   29CHL1   C15 2090   3.942   2.898   3.877  0.0898 -0.3273 -0.1787
   29CHL1  H15A 2091   3.860   2.973   3.879 -2.3061 -2.7588 -0.8894
   29CHL1  H15B 2092   3.899   2.798   3.899  2.3011 -1.3626 -0.2586
   29CHL1   C16 2093   4.053   2.943   3.973 -0.5799  0.5808 -0.2192
   29CHL1  H16A 2094   4.016   3.038   4.018  1.0512  0.1260  2.2836
   29CHL1  H16B 2095   4.081   2.879   4.059  2.5536  2.1254  0.0671
   29CHL1   C17 2096   4.177   2.967   3.879 -0.1763  0.0068  0.0689
   29CHL1   H17 2097   4.228   2.868   3.874 -0.6763 -0.1993 -1.5156
   29CHL1   C13 2098   4.124   3.005   3.739  0.1193  0.5878 -0.2005
   29CHL1   C18 2099   4.077   3.153   3.754 -0.3677  0.0832 -0.1180
   29CHL1  H18A 2100   4.167   3.216   3.736 -0.0418  0.1843  1.6605
   29CHL1  H18B 2101   4.005   3.186   3.675 -0.3527  0.4817  0.0328
   29CHL1  H18C 2102   4.032   3.174   3.854 -0.0846 -2.3891  0.6020
   29CHL1   C12 2103   4.206   2.971   3.616 -0.0756 -0.7205 -0.1322
   29CHL1  H12A 2104   4.295   3.035   3.604  0.4815 -1.3034  0.8069
   29CHL1  H12B 2105   4.242   2.866   3.620 -1.2536 -1.1649 -0.6218
   29CHL1   C11 2106   4.127   2.975   3.487 -0.4394  0.0389 -1.0256
   29CHL1  H11A 2107   4.099   3.080   3.464  1.9097  0.7146 -1.0392
   29CHL1  H11B 2108   4.204   2.962   3.408 -1.1077  1.9913 -2.0950
   29CHL1    C9 2109   4.009   2.879   3.497 -0.0840  0.0767  0.1018
   29CHL1    H9 2110   4.050   2.779   3.525 -1.3179 -0.4516  0.0848
   29CHL1   C10 2111   3.939   2.855   3.358  0.3803  0.9752  0.3967
   29CHL1   C19 2112   3.901   2.986   3.295  0.2582 -0.2016 -0.1312
   29CHL1  H19A 2113   3.823   2.977   3.216 -0.2163 -0.3942  0.3521
   29CHL1  H19B 2114   3.857   3.051   3.373 -0.6245 -4.2925  3.1037
   29CHL1  H19C 2115   3.990   3.038   3.253  1.4872 -1.1951  1.1526
   29CHL1    C1 2116   4.040   2.781   3.265 -0.4074  0.0422  0.3986
   29CHL1   H1A 2117   4.120   2.854   3.242  0.4091 -1.0865 -0.4541
   29CHL1   H1B 2118   4.091   2.693   3.310  2.3608  0.9892 -0.6701
   29CHL1    C2 2119   3.967   2.730   3.135  0.4882  0.3002  0.5844
   29CHL1   H2A 2120   4.033   2.666   3.073 -2.9620 -1.5232 -1.5537
   29CHL1   H2B 2121   3.938   2.825   3.084  1.0086  0.4625  0.5887
   29CHL1   C20 2122   4.288   3.056   3.945 -0.1943  0.1838  0.6965
   29CHL1   H20 2123   4.252   3.161   3.934  2.0437  0.9006 -0.3870
   29CHL1   C21 2124   4.429   3.046   3.870  0.3404 -0.0008 -0.2841
   29CHL1  H21A 2125   4.477   2.948   3.852  0.0182 -0.3893  0.8517
   29CHL1  H21B 2126   4.500   3.107   3.929  1.0032 -0.8935 -0.1370
   29CHL1  H21C 2127   4.413   3.090   3.769 -0.8351  0.3340  0.0308
   29CHL1   C22 2128   4.291   3.032   4.099 -0.4519 -0.1123  0.6672
   29CHL1  H22A 2129   4.351   3.117   4.138 -1.8209  0.8157  0.8224
   29CHL1  H22B 2130   4.193   3.058   4.145 -0.2821  1.5540  0.1473
   29CHL1   C23 2131   4.356   2.903   4.146 -0.1002 -0.3362  0.1415
   29CHL1  H23A 2132   4.294   2.814   4.120 -0.0854 -0.4603  0.5213
   29CHL1  H23B 2133   4.451   2.895   4.089  1.2860  0.6875  2.1740
   29CHL1   C24 2134   4.394   2.896   4.296  0.0709 -0.4678 -0.4033
   29CHL1  H24A 2135   4.430   2.993   4.334  1.0129 -0.5604 -1.0404
   29CHL1  H24B 2136   4.294   2.885   4.344 -0.8652  0.3070 -2.0824
   29CHL1   C25 2137   4.477   2.778   4.335 -0.9189 -0.2225 -0.2463
   29CHL1   H25 2138   4.450   2.686   4.279 -2.3382 -0.8147  1.3300
   29CHL1   C26 2139   4.624   2.798   4.301  0.0727 -0.0352 -0.4871
   29CHL1  H26A 2140   4.634   2.799   4.190 -0.8781  1.5873 -0.5864
   29CHL1  H26B 2141   4.652   2.895   4.347  0.8030  0.3188 -1.6362
   29CHL1  H26C 2142   4.692   2.719   4.340  1.2487 -0.0120 -2.3763
   29CHL1   C27 2143   4.469   2.750   4.489 -0.5616  0.3883  0.7053
   29CHL1  H27A 2144   4.370   2.711   4.522  0.2086 -0.5778  1.9368
   29CHL1  H27B 2145   4.542   2.671   4.514  0.1501  0.3407 -1.2886
   29CHL1  H27C 2146   4.493   2.838   4.553 -3.2912  1.7009  0.1093
   30CHL1    C3 2147   5.919   2.408   2.762 -0.3810 -0.1450  0.0892
   30CHL1    H3 2148   5.812   2.431   2.781 -0.2319  0.6687  0.0145
   30CHL1    O3 2149   5.947   2.448   2.632  0.0216 -0.1359  0.5487
   30CHL1   H3' 2150   6.038   2.425   2.614 -0.1994  0.1818 -1.0874
   30CHL1    C4 2151   6.010   2.476   2.861  0.2540 -0.5397  0.8167
   30CHL1   H4A 2152   6.117   2.461   2.837  0.9297  1.2863  2.4321
   30CHL1   H4B 2153   6.000   2.585   2.841  1.1361 -0.2848  1.7000
   30CHL1    C5 2154   5.970   2.426   2.999 -0.1149 -0.0031 -0.2178
   30CHL1    C6 2155   5.927   2.516   3.091 -0.4183 -0.3260  0.3500
   30CHL1    H6 2156   5.924   2.623   3.066  1.8004  0.1293  1.6875
   30CHL1    C7 2157   5.897   2.478   3.235 -0.0161 -0.2524  0.6463
   30CHL1   H7A 2158   5.959   2.539   3.303  1.5225 -1.4617  0.3941
   30CHL1   H7B 2159   5.789   2.493   3.254 -0.0547 -1.5180  1.5747
   30CHL1    C8 2160   5.934   2.335   3.274  0.4280  0.2786  0.3376
   30CHL1    H8 2161   6.043   2.332   3.292  0.1343  0.4752  2.3864
   30CHL1   C14 2162   5.863   2.297   3.405  0.4342  0.6032 -0.1195
   30CHL1   H14 2163   5.754   2.297   3.385  0.0714  1.0825  1.7003
   30CHL1   C15 2164   5.868   2.396   3.525 -0.0830 -0.6848  0.2672
   30CHL1  H15A 2165   5.973   2.429   3.537 -0.6661  1.6886 -0.7487
   30CHL1  H15B 2166   5.789   2.473   3.514 -0.4390 -1.3794 -3.3639
   30CHL1   C16 2167   5.836   2.302   3.643 -0.2044  0.0755 -0.0362
   30CHL1  H16A 2168   5.926   2.287   3.708  0.1437 -1.7897 -0.8986
   30CHL1  H16B 2169   5.746   2.329   3.702 -0.0198 -1.7267  1.1343
   30CHL1   C17 2170   5.819   2.156   3.584  0.4367  0.1851  0.2879
   30CHL1   H17 2171   5.712   2.152   3.555  0.5145 -0.6157  0.0928
   30CHL1   C13 2172   5.894   2.148   3.446 -0.3212  0.2661 -0.3699
   30CHL1   C18 2173   6.044   2.117   3.454 -0.2990  0.1051  0.2373
   30CHL1  H18A 2174   6.060   2.007   3.464 -0.0669  0.0626 -0.4921
   30CHL1  H18B 2175   6.107   2.147   3.367 -0.3298 -1.4470 -0.3568
   30CHL1  H18C 2176   6.087   2.171   3.542 -0.2175  3.0256 -1.4584
   30CHL1   C12 2177   5.834   2.057   3.335 -0.3601  0.1120  0.0908
   30CHL1  H12A 2178   5.843   1.949   3.361 -2.7684 -0.1636  0.0226
   30CHL1  H12B 2179   5.725   2.072   3.324 -0.5319 -0.2939  1.1131
   30CHL1   C11 2180   5.886   2.094   3.196 -0.3548  0.1958 -0.0137
   30CHL1  H11A 2181   5.979   2.033   3.188  0.1995  1.2623 -3.0857
   30CHL1  H11B 2182   5.815   2.049   3.123  0.2993 -0.0235 -0.5243
   30CHL1    C9 2183   5.897   2.241   3.160  0.5569 -0.3752  0.1206
   30CHL1    H9 2184   5.789   2.262   3.148  0.4246 -1.2147 -0.2240
   30CHL1   C10 2185   5.964   2.278   3.031  0.3678 -0.1924 -0.1275
   30CHL1   C19 2186   6.113   2.231   3.035 -0.2737 -0.9181  0.3735
   30CHL1  H19A 2187   6.163   2.226   2.936  1.4486 -0.0242  1.1466
   30CHL1  H19B 2188   6.186   2.292   3.092  1.0936 -1.3421 -0.8612
   30CHL1  H19C 2189   6.115   2.126   3.074 -1.0332 -0.1445  2.6854
   30CHL1    C1 2190   5.894   2.203   2.908 -0.1584 -0.6410  0.2227
   30CHL1   H1A 2191   5.922   2.096   2.920 -0.5871 -0.4660  4.2869
   30CHL1   H1B 2192   5.783   2.210   2.916 -0.2149  1.6936 -1.5804
   30CHL1    C2 2193   5.923   2.255   2.763 -0.3743 -0.6158 -0.4532
   30CHL1   H2A 2194   5.853   2.203   2.694 -0.7476  2.2021 -2.3681
   30CHL1   H2B 2195   6.023   2.222   2.728  0.6954  2.5175 -0.6679
   30CHL1   C20 2196   5.852   2.042   3.683  0.2625 -0.2524  0.7506
   30CHL1   H20 2197   5.960   2.037   3.707  0.6457  0.2969 -0.6899
   30CHL1   C21 2198   5.809   1.901   3.625 -0.2370 -0.2001  0.1230
   30CHL1  H21A 2199   5.773   1.827   3.698 -0.1116 -2.3244 -1.8434
   30CHL1  H21B 2200   5.909   1.868   3.588 -0.4268 -1.9997  1.1469
   30CHL1  H21C 2201   5.729   1.913   3.549 -2.5019 -0.1027  2.4031
   30CHL1   C22 2202   5.782   2.054   3.824  0.4153  0.1074  0.3272
   30CHL1  H22A 2203   5.823   1.971   3.885 -0.0634 -0.3865 -0.0117
   30CHL1  H22B 2204   5.812   2.149   3.874  1.0098 -0.8364  1.8216
   30CHL1   C23 2205   5.628   2.047   3.822  0.1033  0.3314  0.2891
   30CHL1  H23A 2206   5.575   2.099   3.739  0.3571  0.6035  0.2977
   30CHL1  H23B 2207   5.605   1.940   3.802 -0.2107  0.3499  0.5462
   30CHL1   C24 2208   5.568   2.091   3.954  0.3151  0.1754  0.3721
   30CHL1  H24A 2209   5.467   2.046   3.961  0.6472 -0.3800  2.1195
   30CHL1  H24B 2210   5.628   2.061   4.042  2.2454  3.3637  0.2767
   30CHL1   C25 2211   5.543   2.238   3.959 -0.4091  0.5224 -0.7607
   30CHL1   H25 2212   5.642   2.288   3.957  0.4327 -1.0240  0.5774
   30CHL1   C26 2213   5.455   2.308   3.855 -0.5242  0.2399  0.0118
   30CHL1  H26A 2214   5.441   2.412   3.890  0.0826  0.0445  0.8834
   30CHL1  H26B 2215   5.504   2.313   3.756 -1.5167 -1.5619 -0.6221
   30CHL1  H26C 2216   5.357   2.257   3.841 -0.8929  1.5516 -2.8361
   30CHL1   C27 2217   5.480   2.279   4.101 -0.4304  0.0191 -0.3628
   30CHL1  H27A 2218   5.487   2.389   4.111  2.9376 -0.1557  0.3728
   30CHL1  H27B 2219   5.374   2.247   4.113 -0.7864 -0.2060 -3.3632
   30CHL1  H27C 2220   5.554   2.237   4.174 -0.9589 -1.4934 -0.6580
   31CHL1    C3 2221   0.247   5.599   2.767 -0.1653 -0.5447  0.7869
   31CHL1    H3 2222   0.136   5.592   2.771 -0.2844  0.6952  0.0213
   31CHL1    O3 2223   0.275   5.630   2.634  0.0844 -0.1433 -0.3393
   31CHL1   H3' 2224   0.371   5.636   2.630  0.1246  0.0860  0.7329
   31CHL1    C4 2225   0.284   5.725   2.855 -0.7070 -0.0403  0.7605
   31CHL1   H4A 2226   0.384   5.763   2.826 -0.5558 -1.3372 -0.4951
   31CHL1   H4B 2227   0.216   5.806   2.820  0.1064  0.7067  0.8761
   31CHL1    C5 2228   0.270   5.685   3.006 -0.5221 -0.3477  0.3945
   31CHL1    C6 2229   0.200   5.773   3.081 -0.0876 -0.0222  0.2844
   31CHL1    H6 2230   0.155   5.861   3.034  0.7527  0.1345 -0.2458
   31CHL1    C7 2231   0.178   5.760   3.231 -0.3626  0.0543 -0.2339
   31CHL1   H7A 2232   0.211   5.855   3.277  0.8882 -0.0504 -0.8708
   31CHL1   H7B 2233   0.073   5.729   3.252  0.2988 -0.7033  2.2506
   31CHL1    C8 2234   0.281   5.653   3.290 -0.0107 -0.1329  0.3132
   31CHL1    H8 2235   0.381   5.701   3.285  0.5315 -1.3064 -0.5164
   31CHL1   C14 2236   0.235   5.620   3.431 -0.1079  0.8985  0.2931
   31CHL1   H14 2237   0.142   5.565   3.404  0.1855 -0.3984  1.7615
   31CHL1   C15 2238   0.212   5.721   3.534 -0.2595  0.1933 -0.7244
   31CHL1  H15A 2239   0.298   5.792   3.534  0.2194 -0.3778 -0.4868
   31CHL1  H15B 2240   0.117   5.776   3.516  0.1423  1.4729  0.7706
   31CHL1   C16 2241   0.211   5.645   3.672 -0.1841  0.4443  0.0546
   31CHL1  H16A 2242   0.282   5.696   3.740 -0.3373 -0.3591  0.8345
   31CHL1  H16B 2243   0.113   5.641   3.725  0.8118 -0.7098  1.9235
   31CHL1   C17 2244   0.255   5.494   3.633 -0.4936  0.1354  0.4630
   31CHL1   H17 2245   0.154   5.451   3.613 -0.4128 -0.2236  0.7985
   31CHL1   C13 2246   0.326   5.514   3.496 -0.0554  0.1272 -0.9403
   31CHL1   C18 2247   0.462   5.566   3.515  0.0867  0.0954  0.1460
   31CHL1  H18A 2248   0.508   5.593   3.417  3.3703  0.6923  1.7179
   31CHL1  H18B 2249   0.464   5.661   3.573 -0.9704 -0.4608  1.1356
   31CHL1  H18C 2250   0.540   5.500   3.559  1.8656  2.1420  0.2271
   31CHL1   C12 2251   0.320   5.389   3.408  0.1142  0.7145 -0.0807
   31CHL1  H12A 2252   0.387   5.308   3.444  0.2418 -0.4330 -2.6913
   31CHL1  H12B 2253   0.215   5.354   3.408 -0.7312  2.8992  2.4040
   31CHL1   C11 2254   0.370   5.407   3.270  0.4187  0.0875 -0.7316
   31CHL1  H11A 2255   0.478   5.435   3.276  0.9249 -1.8622  0.1519
   31CHL1  H11B 2256   0.382   5.324   3.198  2.7161 -1.1788  0.9767
   31CHL1    C9 2257   0.290   5.525   3.197  0.1174 -0.1819 -0.6199
   31CHL1    H9 2258   0.185   5.492   3.186  0.1333 -0.5407  0.2474
   31CHL1   C10 2259   0.341   5.557   3.052  0.3491  0.2916 -0.3186
   31CHL1   C19 2260   0.495   5.578   3.049  0.5014  0.5164  0.4200
   31CHL1  H19A 2261   0.524   5.655   3.123  1.2539  0.4293  0.2296
   31CHL1  H19B 2262   0.560   5.492   3.074  1.3045  1.5999  2.2798
   31CHL1  H19C 2263   0.525   5.612   2.947  0.2945  0.7532  0.4381
   31CHL1    C1 2264   0.305   5.442   2.949  0.0061  0.4557  0.0405
   31CHL1   H1A 2265   0.361   5.348   2.968 -0.2182 -0.0025 -1.4529
   31CHL1   H1B 2266   0.195   5.425   2.955  0.1714 -0.9238 -0.3663
   31CHL1    C2 2267   0.323   5.478   2.803 -0.4077  0.1538 -0.0393
   31CHL1   H2A 2268   0.284   5.401   2.734 -1.5451  0.6949 -0.0226
   31CHL1   H2B 2269   0.433   5.490   2.795  0.0761 -0.2454  3.8416
   31CHL1   C20 2270   0.319   5.404   3.738  0.0643  0.5694 -0.1567
   31CHL1   H20 2271   0.429   5.418   3.737 -0.1125  2.3934  0.9950
   31CHL1   C21 2272   0.284   5.256   3.710 -0.6908  0.1516 -0.3957
   31CHL1  H21A 2273   0.186   5.235   3.758  0.1293 -1.9916  0.4638
   31CHL1  H21B 2274   0.352   5.188   3.766  1.1281  0.6132 -1.9295
   31CHL1  H21C 2275   0.271   5.239   3.601  2.1637  1.6304 -1.0636
   31CHL1   C22 2276   0.280   5.439   3.885 -0.2646 -0.4057 -0.5046
   31CHL1  H22A 2277   0.289   5.547   3.905 -2.9625 -0.3328  0.8106
   31CHL1  H22B 2278   0.172   5.418   3.904  0.1084  0.8408  4.0358
   31CHL1   C23 2279   0.356   5.359   3.985  0.4430 -0.2094 -0.3258
   31CHL1  H23A 2280   0.332   5.250   3.978 -0.0984 -0.0866 -0.4189
   31CHL1  H23B 2281   0.465   5.375   3.971 -0.0258  2.7262 -1.2317
   31CHL1   C24 2282   0.314   5.413   4.123  0.1223  0.3795 -0.1185
   31CHL1  H24A 2283   0.345   5.520   4.120  2.0096 -0.1454 -1.5681
   31CHL1  H24B 2284   0.206   5.408   4.146 -0.2279 -0.9887 -1.7882
   31CHL1   C25 2285   0.394   5.356   4.240  0.6404 -0.0157  0.5941
   31CHL1   H25 2286   0.498   5.357   4.202  0.0432  0.4175 -1.1084
   31CHL1   C26 2287   0.385   5.446   4.360  0.3297  0.0773  0.3114
   31CHL1  H26A 2288   0.422   5.390   4.448 -3.7971 -3.2802  0.2247
   31CHL1  H26B 2289   0.431   5.544   4.332  0.1800  0.1462  0.3100
   31CHL1  H26C 2290   0.276   5.464   4.370  0.1282 -0.1831 -1.1260
   31CHL1   C27 2291   0.347   5.214   4.285 -0.8020  0.0130 -0.5105
   31CHL1  H27A 2292   0.390   5.190   4.385  0.0103  2.4031 -0.2093
   31CHL1  H27B 2293   0.237   5.202   4.289 -0.8913  0.7993 -0.3715
   31CHL1  H27C 2294   0.392   5.143   4.213 -0.6036  1.1926 -1.5886
   32CHL1    C3 2295   3.114   0.954   3.022 -0.3268 -0.2952  0.5818
   32CHL1    H3 2296   3.006   0.950   3.048 -0.5462 -1.7480 -0.4181
   32CHL1    O3 2297   3.142   0.912   2.894 -0.6087 -0.3576  0.4468
   32CHL1   H3' 2298   3.236   0.928   2.884 -0.7487 -0.4615 -1.3468
   32CHL1    C4 2299   3.165   1.093   3.032  0.1399  0.0216 -1.0606
   32CHL1   H4A 2300   3.272   1.095   3.002  0.8500  0.9670  1.2926
   32CHL1   H4B 2301   3.110   1.156   2.959 -1.0901  2.6660  1.9154
   32CHL1    C5 2302   3.153   1.157   3.168 -0.3910 -0.1407  0.0017
   32CHL1    C6 2303   3.080   1.265   3.190  0.7477 -0.3941  0.0413
   32CHL1    H6 2304   3.020   1.312   3.110  0.6822  0.4999  0.6025
   32CHL1    C7 2305   3.071   1.337   3.321  0.2945  0.2007 -0.6559
   32CHL1   H7A 2306   3.098   1.444   3.303  0.2593  0.9170  2.7688
   32CHL1   H7B 2307   2.964   1.336   3.350  0.4131 -2.2523 -0.1224
   32CHL1    C8 2308   3.155   1.274   3.439  0.2222  0.3482 -0.1095
   32CHL1    H8 2309   3.261   1.302   3.423  0.4098 -0.0993  0.3223
   32CHL1   C14 2310   3.113   1.319   3.576  0.2997 -0.4365  0.6822
   32CHL1   H14 2311   3.011   1.277   3.589  0.9427 -2.2198  0.3087
   32CHL1   C15 2312   3.104   1.471   3.605 -1.0596  0.0739  0.1384
   32CHL1  H15A 2313   3.201   1.521   3.584 -1.1947  0.4640  0.4129
   32CHL1  H15B 2314   3.025   1.520   3.544 -0.6576 -0.4299 -0.8024
   32CHL1   C16 2315   3.076   1.477   3.754  0.3119 -0.8478  0.0004
   32CHL1  H16A 2316   3.141   1.558   3.792 -0.3280  0.0081 -0.6684
   32CHL1  H16B 2317   2.967   1.493   3.768  0.6246  0.7333  0.8610
   32CHL1   C17 2318   3.129   1.335   3.804 -0.2433 -0.7200  0.0481
   32CHL1   H17 2319   3.035   1.280   3.827 -1.1228 -0.4517 -2.4719
   32CHL1   C13 2320   3.192   1.261   3.684  0.6643  0.1029 -0.3990
   32CHL1   C18 2321   3.340   1.313   3.678  0.4722 -0.3725  0.2827
   32CHL1  H18A 2322   3.385   1.299   3.577  0.8841  0.8218  0.2875
   32CHL1  H18B 2323   3.348   1.420   3.707 -0.7572 -0.6667  1.8522
   32CHL1  H18C 2324   3.419   1.266   3.740  2.7224  0.1458 -2.0239
   32CHL1   C12 2325   3.189   1.110   3.684 -0.3999 -0.0992  0.1398
   32CHL1  H12A 2326   3.260   1.068   3.759  0.3938 -0.7482 -0.9489
   32CHL1  H12B 2327   3.085   1.076   3.706 -0.6560  0.9391  0.6022
   32CHL1   C11 2328   3.218   1.052   3.545 -0.0205  0.3325 -0.7638
   32CHL1  H11A 2329   3.325   1.073   3.523 -0.6273  2.3450 -2.1481
   32CHL1  H11B 2330   3.201   0.943   3.546 -0.4009  0.3918 -0.2039
   32CHL1    C9 2331   3.149   1.118   3.428  0.1899 -0.0342  0.3501
   32CHL1    H9 2332   3.042   1.089   3.436 -0.1848  0.3970 -2.1690
   32CHL1   C10 2333   3.206   1.066   3.291 -0.3882  0.4135 -0.3479
   32CHL1   C19 2334   3.361   1.075   3.277  0.2574 -0.3426  0.2286
   32CHL1  H19A 2335   3.391   1.182   3.279 -1.1556  0.0706  1.5792
   32CHL1  H19B 2336   3.427   1.025   3.351 -0.8033  0.3656  1.6916
   32CHL1  H19C 2337   3.391   1.047   3.174  0.3062 -0.8368  0.3707
   32CHL1    C1 2338   3.165   0.919   3.271 -0.0337 -0.4350 -0.4606
   32CHL1   H1A 2339   3.231   0.860   3.338 -0.9493 -1.8112 -0.7348
   32CHL1   H1B 2340   3.058   0.914   3.300 -0.0296  0.2154 -0.3238
   32CHL1    C2 2341   3.183   0.864   3.128  0.0231  0.2386  0.0997
   32CHL1   H2A 2342   3.142   0.761   3.116  0.2863  0.4109 -3.2511
   32CHL1   H2B 2343   3.291   0.870   3.104 -0.0626  2.4816  0.0891
   32CHL1   C20 2344   3.205   1.359   3.937  0.4419  0.7378 -0.5492
   32CHL1   H20 2345   3.300   1.417   3.927 -0.1252  2.4574  2.5327
   32CHL1   C21 2346   3.249   1.219   3.984 -0.5573 -0.6747 -0.2413
   32CHL1  H21A 2347   3.334   1.188   3.920 -0.8946 -1.7025 -0.2063
   32CHL1  H21B 2348   3.170   1.141   3.976 -1.6530  0.0881  2.1661
   32CHL1  H21C 2349   3.286   1.228   4.089 -0.0723  1.4739 -0.5629
   32CHL1   C22 2350   3.125   1.441   4.046 -0.4717  0.7362 -0.7573
   32CHL1  H22A 2351   3.075   1.529   4.000 -0.2578  1.5523  0.4984
   32CHL1  H22B 2352   3.057   1.367   4.094  2.1206 -2.0611 -1.0752
   32CHL1   C23 2353   3.234   1.515   4.128  0.5515 -0.1474 -0.7836
   32CHL1  H23A 2354   3.317   1.450   4.162  0.4870  0.5520  0.8160
   32CHL1  H23B 2355   3.284   1.591   4.064  1.4394  0.2770  0.3632
   32CHL1   C24 2356   3.185   1.587   4.253  0.1631  0.1770 -0.3301
   32CHL1  H24A 2357   3.115   1.665   4.218  1.0952  1.2944  0.2353
   32CHL1  H24B 2358   3.131   1.520   4.323 -0.0735 -0.1510 -0.8252
   32CHL1   C25 2359   3.303   1.649   4.336 -0.3199  1.0713  0.6129
   32CHL1   H25 2360   3.342   1.725   4.265 -1.2115  0.1740 -0.8890
   32CHL1   C26 2361   3.245   1.723   4.453  0.1324  0.5007  0.5945
   32CHL1  H26A 2362   3.207   1.651   4.528  0.8423 -0.8034 -0.2543
   32CHL1  H26B 2363   3.323   1.792   4.492  0.8599 -0.5856  1.1039
   32CHL1  H26C 2364   3.160   1.787   4.422  1.4986  1.9447 -0.3353
   32CHL1   C27 2365   3.413   1.555   4.394 -0.3664  0.0098  0.4527
   32CHL1  H27A 2366   3.456   1.489   4.316 -2.1109 -3.0761  1.8973
   32CHL1  H27B 2367   3.505   1.603   4.434  0.4937  1.3367 -2.8397
   32CHL1  H27C 2368   3.379   1.487   4.476 -1.3215 -1.0499 -0.7653
   33CHL1    C3 2369   2.577   5.664   3.006 -0.7564  0.5821  0.3725
   33CHL1    H3 2370   2.674   5.707   3.040 -0.0037  0.4624 -1.5032
   33CHL1    O3 2371   2.594   5.603   2.883 -0.3508 -0.0343  0.9125
   33CHL1   H3' 2372   2.628   5.514   2.898  1.6850  0.4879 -0.1737
   33CHL1    C4 2373   2.532   5.556   3.102  0.1400 -0.0908 -0.2672
   33CHL1   H4A 2374   2.451   5.497   3.053  1.0565 -0.9631 -0.7787
   33CHL1   H4B 2375   2.618   5.488   3.122 -0.7507 -1.4450 -0.9282
   33CHL1    C5 2376   2.476   5.603   3.231 -0.8659  0.1916 -0.1663
   33CHL1    C6 2377   2.530   5.553   3.346 -0.8573 -0.3967 -0.0603
   33CHL1    H6 2378   2.600   5.469   3.334  2.0830  1.8887 -0.1668
   33CHL1    C7 2379   2.500   5.610   3.482  0.0428  0.9501  0.0496
   33CHL1   H7A 2380   2.480   5.523   3.548 -3.9614 -0.3896 -2.5468
   33CHL1   H7B 2381   2.588   5.657   3.531  0.3121  0.3469  0.1520
   33CHL1    C8 2382   2.377   5.699   3.482  0.2045  0.7087  0.1277
   33CHL1    H8 2383   2.294   5.626   3.468  0.6221 -0.3295  2.5816
   33CHL1   C14 2384   2.369   5.769   3.619 -0.1014  0.9912 -0.1755
   33CHL1   H14 2385   2.453   5.842   3.622  0.1850  0.8753 -2.6118
   33CHL1   C15 2386   2.380   5.682   3.740  0.5314 -0.1047 -0.1914
   33CHL1  H15A 2387   2.326   5.588   3.713  0.4349  0.4814 -2.2058
   33CHL1  H15B 2388   2.473   5.638   3.782 -0.1768  0.2093  1.8334
   33CHL1   C16 2389   2.308   5.756   3.855  0.1677 -0.7977  0.7470
   33CHL1  H16A 2390   2.231   5.686   3.894  0.1537 -3.1422 -3.0111
   33CHL1  H16B 2391   2.381   5.784   3.934  0.8985  1.5554 -0.6545
   33CHL1   C17 2392   2.249   5.890   3.785  0.4030  0.1564  0.3787
   33CHL1   H17 2393   2.322   5.974   3.780 -1.7889  2.1045 -0.7373
   33CHL1   C13 2394   2.247   5.860   3.628  0.4324 -0.2732 -0.3968
   33CHL1   C18 2395   2.123   5.783   3.596  0.0638 -0.1582  0.0004
   33CHL1  H18A 2396   2.124   5.748   3.490  0.3416 -0.0399 -0.0358
   33CHL1  H18B 2397   2.115   5.691   3.658  0.0894 -0.5155 -0.5209
   33CHL1  H18C 2398   2.040   5.855   3.607  0.0723  0.2170 -1.9872
   33CHL1   C12 2399   2.264   5.971   3.530  0.0695  0.0621  0.0638
   33CHL1  H12A 2400   2.168   6.027   3.520 -1.3266 -1.9304  1.4790
   33CHL1  H12B 2401   2.347   6.036   3.565  1.0144 -1.8315  1.5085
   33CHL1   C11 2402   2.298   5.931   3.386  0.0261  0.1274  0.4325
   33CHL1  H11A 2403   2.203   5.911   3.333 -1.9060  1.9463  2.9582
   33CHL1  H11B 2404   2.339   6.023   3.338 -1.1741 -0.4403 -1.8123
   33CHL1    C9 2405   2.386   5.801   3.365 -0.3425  0.1036  0.3715
   33CHL1    H9 2406   2.487   5.845   3.376 -0.0657 -0.9416  2.5839
   33CHL1   C10 2407   2.390   5.725   3.232 -0.6818  0.9688 -0.1654
   33CHL1   C19 2408   2.244   5.685   3.185  0.3331 -0.0747 -0.9651
   33CHL1  H19A 2409   2.195   5.779   3.152 -2.4239 -1.9181 -2.4855
   33CHL1  H19B 2410   2.234   5.604   3.110 -3.0020  1.2762 -2.1484
   33CHL1  H19C 2411   2.190   5.648   3.274  1.1138  2.5188  0.6830
   33CHL1    C1 2412   2.446   5.835   3.125 -0.1251 -0.1985  0.8061
   33CHL1   H1A 2413   2.373   5.919   3.117  1.1801  1.1662  2.5603
   33CHL1   H1B 2414   2.542   5.870   3.167  0.5644  2.0000 -2.2246
   33CHL1    C2 2415   2.474   5.770   2.992 -0.3432  0.3813  0.1134
   33CHL1   H2A 2416   2.505   5.860   2.935 -0.3655  2.0073  2.5435
   33CHL1   H2B 2417   2.375   5.746   2.949 -0.0099  2.7679 -2.2165
   33CHL1   C20 2418   2.120   5.944   3.851  0.5405  0.6040 -0.3585
   33CHL1   H20 2419   2.048   5.991   3.781  0.0631 -0.4595 -0.5945
   33CHL1   C21 2420   2.165   6.066   3.946  0.3613  1.0496  0.5746
   33CHL1  H21A 2421   2.243   6.018   4.008 -0.3625 -0.4134  0.4129
   33CHL1  H21B 2422   2.076   6.101   4.003  0.8723  1.9232  0.8574
   33CHL1  H21C 2423   2.198   6.144   3.874  0.0171  0.3167 -0.4058
   33CHL1   C22 2424   2.041   5.842   3.927 -0.2733 -0.3741 -0.4203
   33CHL1  H22A 2425   2.024   5.750   3.868  0.3669  0.2237 -1.5670
   33CHL1  H22B 2426   2.098   5.826   4.020  1.4366 -0.5306 -1.4640
   33CHL1   C23 2427   1.895   5.887   3.963  0.3730 -0.2950 -0.2592
   33CHL1  H23A 2428   1.902   5.990   4.006  0.3734  0.1264 -1.2493
   33CHL1  H23B 2429   1.829   5.876   3.875  0.3792 -1.3121 -0.1445
   33CHL1   C24 2430   1.841   5.801   4.080  0.0668  0.2908  0.2844
   33CHL1  H24A 2431   1.829   5.694   4.055  0.0293  0.3755 -0.0652
   33CHL1  H24B 2432   1.920   5.788   4.158  2.9393 -1.9517 -2.7361
   33CHL1   C25 2433   1.716   5.859   4.148 -0.6840 -1.0708 -0.6080
   33CHL1   H25 2434   1.625   5.840   4.087 -0.7112 -1.4536 -0.4463
   33CHL1   C26 2435   1.696   5.783   4.283 -0.4022 -0.5289 -0.4182
   33CHL1  H26A 2436   1.682   5.673   4.272 -1.7706 -0.1828 -2.8905
   33CHL1  H26B 2437   1.781   5.813   4.348  0.6281 -1.1797 -1.4306
   33CHL1  H26C 2438   1.603   5.807   4.339 -1.0449 -0.3620 -1.5263
   33CHL1   C27 2439   1.715   6.013   4.177 -0.1538  0.2605 -0.1350
   33CHL1  H27A 2440   1.751   6.074   4.091  1.1310 -1.4505 -0.8824
   33CHL1  H27B 2441   1.620   6.053   4.218 -0.2928 -0.0643 -0.1377
   33CHL1  H27C 2442   1.798   6.030   4.249 -0.3872 -1.2468  0.5364
   34CHL1    C3 2443   1.483   6.701   2.918  0.5032  0.3440  0.2336
   34CHL1    H3 2444   1.425   6.795   2.908  1.7126  1.0577 -0.3409
   34CHL1    O3 2445   1.484   6.647   2.783 -0.5581  0.3135 -0.0346
   34CHL1   H3' 2446   1.534   6.566   2.801  0.2076  0.2017 -2.2642
   34CHL1    C4 2447   1.620   6.724   2.985 -0.7233 -0.1979  0.0938
   34CHL1   H4A 2448   1.683   6.635   2.964  3.2280  2.5886 -0.7680
   34CHL1   H4B 2449   1.678   6.802   2.931 -0.8830  0.4171  0.7969
   34CHL1    C5 2450   1.624   6.751   3.135 -1.0673 -0.1797  0.4655
   34CHL1    C6 2451   1.699   6.854   3.181  0.1620 -0.0803 -0.0855
   34CHL1    H6 2452   1.756   6.918   3.113  0.1042  1.1725  0.9914
   34CHL1    C7 2453   1.714   6.887   3.321 -0.0175  0.1054 -0.2694
   34CHL1   H7A 2454   1.821   6.900   3.350  0.1165 -1.1258 -0.1621
   34CHL1   H7B 2455   1.650   6.974   3.348 -1.1313 -0.8409  0.2503
   34CHL1    C8 2456   1.657   6.777   3.410 -0.0042  0.0657 -0.1355
   34CHL1    H8 2457   1.721   6.686   3.422 -0.9472 -0.4858  0.8770
   34CHL1   C14 2458   1.625   6.849   3.544 -0.4755 -0.3432  1.0105
   34CHL1   H14 2459   1.539   6.918   3.532  1.1167  1.5608 -0.1151
   34CHL1   C15 2460   1.739   6.931   3.615  0.5010 -0.4790 -0.2691
   34CHL1  H15A 2461   1.836   6.879   3.603  0.9498  0.6991 -2.2603
   34CHL1  H15B 2462   1.749   7.030   3.565 -2.2003 -0.0516 -0.1105
   34CHL1   C16 2463   1.688   6.942   3.753 -0.9656 -0.1855  0.2684
   34CHL1  H16A 2464   1.771   6.909   3.819 -1.4173 -1.2555  0.3315
   34CHL1  H16B 2465   1.668   7.048   3.778 -1.4423 -0.0792 -0.5377
   34CHL1   C17 2466   1.567   6.849   3.771  0.4989 -0.2420  0.3410
   34CHL1   H17 2467   1.477   6.907   3.742  1.3414  1.2701  0.5908
   34CHL1   C13 2468   1.584   6.746   3.655  0.1323 -0.1193  0.7261
   34CHL1   C18 2469   1.682   6.631   3.697  0.1450 -0.0287  0.3152
   34CHL1  H18A 2470   1.728   6.582   3.609  1.0328 -2.3476  1.9976
   34CHL1  H18B 2471   1.770   6.663   3.756  0.0415 -1.5966  1.3645
   34CHL1  H18C 2472   1.631   6.555   3.760 -0.7057  0.8242  0.6820
   34CHL1   C12 2473   1.452   6.681   3.603  0.3161 -0.3622  0.2779
   34CHL1  H12A 2474   1.410   6.611   3.679 -1.8133  1.6786  1.0793
   34CHL1  H12B 2475   1.381   6.765   3.602  1.9677  1.0763 -0.9336
   34CHL1   C11 2476   1.463   6.622   3.467 -0.1575  0.8185 -0.0870
   34CHL1  H11A 2477   1.522   6.528   3.476 -3.5088 -1.2562  2.6099
   34CHL1  H11B 2478   1.364   6.584   3.434 -0.4525  0.0950  1.5312
   34CHL1    C9 2479   1.518   6.718   3.356  0.2466 -0.7341  0.8490
   34CHL1    H9 2480   1.453   6.807   3.343 -0.9349 -1.6979 -0.0298
   34CHL1   C10 2481   1.536   6.658   3.214  0.3374 -0.2940 -0.7072
   34CHL1   C19 2482   1.588   6.508   3.221  0.5190  0.0811 -0.0909
   34CHL1  H19A 2483   1.635   6.481   3.124  0.1406  1.2430 -0.6214
   34CHL1  H19B 2484   1.668   6.506   3.298 -1.5224  2.9192  2.3003
   34CHL1  H19C 2485   1.500   6.446   3.245  1.1257 -0.9972 -0.5644
   34CHL1    C1 2486   1.398   6.647   3.156  0.7934 -0.3538  0.6215
   34CHL1   H1A 2487   1.340   6.573   3.215 -0.2618 -0.3124 -0.3260
   34CHL1   H1B 2488   1.333   6.736   3.168  1.4116  0.2705 -0.5674
   34CHL1    C2 2489   1.402   6.606   3.006 -0.0191 -0.2502  0.0292
   34CHL1   H2A 2490   1.297   6.599   2.969 -0.3524 -0.4231  0.9657
   34CHL1   H2B 2491   1.438   6.501   3.000 -0.8129 -0.6290  1.3260
   34CHL1   C20 2492   1.538   6.803   3.917  0.3137  0.2087 -0.4039
   34CHL1   H20 2493   1.619   6.732   3.940  1.6377  1.6335 -0.4922
   34CHL1   C21 2494   1.414   6.721   3.925  1.2275  0.8165 -0.1197
   34CHL1  H21A 2495   1.373   6.689   4.023 -0.6664 -1.0382 -1.4358
   34CHL1  H21B 2496   1.431   6.623   3.876  3.0111  1.3131 -0.5917
   34CHL1  H21C 2497   1.337   6.770   3.861  1.5686  0.0812 -1.1268
   34CHL1   C22 2498   1.532   6.913   4.034  0.9558 -0.1885 -0.0041
   34CHL1  H22A 2499   1.606   6.993   4.013  2.1399 -1.7846 -2.3422
   34CHL1  H22B 2500   1.426   6.945   4.037  0.1844 -2.4044 -1.1382
   34CHL1   C23 2501   1.569   6.852   4.167 -0.1842  0.8008 -0.1483
   34CHL1  H23A 2502   1.512   6.760   4.189  0.9231  0.1331 -0.0063
   34CHL1  H23B 2503   1.677   6.827   4.168 -0.4135 -0.1853  0.4816
   34CHL1   C24 2504   1.549   6.959   4.275  0.9636  0.0611 -0.4318
   34CHL1  H24A 2505   1.599   7.054   4.247  0.6810  0.3613  0.0557
   34CHL1  H24B 2506   1.441   6.974   4.296  1.0142 -0.2241  0.0562
   34CHL1   C25 2507   1.628   6.924   4.405  0.0332 -0.2695  0.8138
   34CHL1   H25 2508   1.728   6.893   4.369  0.3679 -0.2124  1.6870
   34CHL1   C26 2509   1.636   7.043   4.503 -0.5561  0.6283  0.3029
   34CHL1  H26A 2510   1.535   7.073   4.537  0.3645  3.1999  0.9644
   34CHL1  H26B 2511   1.695   7.016   4.593 -1.0002 -1.8176 -0.0639
   34CHL1  H26C 2512   1.677   7.128   4.444  2.1242 -1.2663 -0.8205
   34CHL1   C27 2513   1.564   6.797   4.471 -0.1027 -0.2504 -0.1111
   34CHL1  H27A 2514   1.573   6.715   4.396  0.8936 -1.4072  1.2255
   34CHL1  H27B 2515   1.604   6.765   4.570 -1.1280 -0.2614  0.3082
   34CHL1  H27C 2516   1.457   6.819   4.487 -0.1778 -0.1455 -0.7160
   35CHL1    C3 2517   3.598   4.666   3.007 -0.0264  0.0325 -0.1238
   35CHL1    H3 2518   3.629   4.589   3.081  1.0505  1.2171  0.7202
   35CHL1    O3 2519   3.664   4.635   2.887  0.0909 -0.5976 -0.6037
   35CHL1   H3' 2520   3.697   4.721   2.858 -2.9467  1.5595  1.7166
   35CHL1    C4 2521   3.447   4.664   2.991 -0.0041 -0.2362 -0.0516
   35CHL1   H4A 2522   3.426   4.750   2.923  1.5703  0.3254  0.1261
   35CHL1   H4B 2523   3.406   4.572   2.946  0.2504 -1.7286  2.5781
   35CHL1    C5 2524   3.385   4.686   3.126  0.5363 -0.2446 -0.2029
   35CHL1    C6 2525   3.291   4.601   3.177  0.9136  0.2737  0.8539
   35CHL1    H6 2526   3.263   4.512   3.120 -1.5017 -0.6233  3.1917
   35CHL1    C7 2527   3.208   4.611   3.307  1.0073  0.0684  0.4165
   35CHL1   H7A 2528   3.106   4.576   3.281  0.6527  3.1180 -3.0803
   35CHL1   H7B 2529   3.252   4.538   3.378 -2.0822 -1.2159  1.1843
   35CHL1    C8 2530   3.224   4.750   3.370 -0.3095 -0.3087  0.6091
   35CHL1    H8 2531   3.153   4.815   3.313  0.5733  1.1521  1.1213
   35CHL1   C14 2532   3.187   4.756   3.519 -0.0632 -0.2831  0.3046
   35CHL1   H14 2533   3.270   4.700   3.567  1.9135  1.4249 -0.9237
   35CHL1   C15 2534   3.053   4.697   3.558  1.3447 -0.6005 -0.0672
   35CHL1  H15A 2535   2.975   4.729   3.485  0.9415 -0.3695  0.4612
   35CHL1  H15B 2536   3.040   4.587   3.568 -2.4247 -0.2707  0.0053
   35CHL1   C16 2537   3.018   4.768   3.695  0.8845  0.3391  0.1103
   35CHL1  H16A 2538   2.927   4.830   3.690 -1.3019 -2.6792 -0.6978
   35CHL1  H16B 2539   2.999   4.697   3.779 -1.6454 -0.2950 -0.8902
   35CHL1   C17 2540   3.134   4.869   3.716  0.3389  0.2247  0.0491
   35CHL1   H17 2541   3.216   4.826   3.778  1.7350  1.2854 -0.9884
   35CHL1   C13 2542   3.195   4.890   3.579 -0.4353 -0.7239 -0.6515
   35CHL1   C18 2543   3.104   4.994   3.502 -0.1291 -0.1755  0.0228
   35CHL1  H18A 2544   2.997   4.968   3.514 -0.2433  0.9480  1.6835
   35CHL1  H18B 2545   3.121   5.099   3.534  0.8963 -0.5768  0.8864
   35CHL1  H18C 2546   3.113   5.001   3.391  0.5962  0.9564  0.1337
   35CHL1   C12 2547   3.346   4.938   3.569  0.1344  0.3542 -0.8787
   35CHL1  H12A 2548   3.359   5.043   3.604  1.4901  1.2999 -3.8632
   35CHL1  H12B 2549   3.416   4.882   3.635  0.3747  1.4252 -0.1999
   35CHL1   C11 2550   3.388   4.941   3.422  0.2074  0.7708  0.5922
   35CHL1  H11A 2551   3.318   5.011   3.371  0.0006 -0.7564 -1.3380
   35CHL1  H11B 2552   3.486   4.992   3.411  0.5567  0.2369  1.1490
   35CHL1    C9 2553   3.367   4.810   3.349 -0.3525  0.6420 -1.4010
   35CHL1    H9 2554   3.437   4.748   3.409 -0.7062  2.0972  0.6280
   35CHL1   C10 2555   3.424   4.811   3.204 -0.1857 -0.4263 -0.1833
   35CHL1   C19 2556   3.353   4.934   3.128  0.8328  0.1813  0.2904
   35CHL1  H19A 2557   3.243   4.934   3.145  0.3498  0.5112 -2.4230
   35CHL1  H19B 2558   3.396   5.026   3.173 -0.5698 -0.4049  3.0787
   35CHL1  H19C 2559   3.357   4.931   3.017  0.7802 -0.4499  0.2997
   35CHL1    C1 2560   3.583   4.825   3.206  0.6739  0.1341  0.5600
   35CHL1   H1A 2561   3.610   4.928   3.237  0.4562  0.6890 -1.0065
   35CHL1   H1B 2562   3.617   4.759   3.288  2.3808  1.7431  1.2209
   35CHL1    C2 2563   3.652   4.798   3.070 -0.1591 -0.4670  0.4432
   35CHL1   H2A 2564   3.763   4.792   3.071 -0.1277  0.0169  0.3433
   35CHL1   H2B 2565   3.642   4.894   3.015  0.5321 -0.2890  0.6190
   35CHL1   C20 2566   3.079   4.998   3.794  0.5169  0.2130  0.5514
   35CHL1   H20 2567   3.002   5.053   3.737  0.7272  1.1914  1.1864
   35CHL1   C21 2568   3.194   5.090   3.834  0.5636  0.2103 -0.2881
   35CHL1  H21A 2569   3.225   5.138   3.739 -0.7155 -0.5386 -1.1070
   35CHL1  H21B 2570   3.266   5.035   3.899 -0.3807  0.9868  1.4815
   35CHL1  H21C 2571   3.147   5.176   3.886 -1.8042 -0.7004 -0.8114
   35CHL1   C22 2572   3.000   4.948   3.919  0.0699 -0.1445  0.6231
   35CHL1  H22A 2573   2.905   4.901   3.887  0.4897 -0.2668 -0.4905
   35CHL1  H22B 2574   3.067   4.873   3.968  0.5135 -1.4504 -1.8184
   35CHL1   C23 2575   2.954   5.054   4.018  0.4340  0.2850 -0.5467
   35CHL1  H23A 2576   3.042   5.104   4.064  1.5439 -0.5309 -1.7180
   35CHL1  H23B 2577   2.896   5.132   3.964  0.5005  0.9095  0.2520
   35CHL1   C24 2578   2.866   4.991   4.126  0.3636 -0.3485  0.2406
   35CHL1  H24A 2579   2.785   4.935   4.074 -0.0265 -0.0288  0.4977
   35CHL1  H24B 2580   2.914   4.917   4.194 -2.9453 -1.1077  1.9823
   35CHL1   C25 2581   2.795   5.093   4.213  0.0856  0.6112  0.5716
   35CHL1   H25 2582   2.746   5.159   4.138 -1.2805 -1.9457 -0.8932
   35CHL1   C26 2583   2.686   5.015   4.287 -0.2722 -0.2623 -0.4413
   35CHL1  H26A 2584   2.611   4.966   4.221 -2.2251  1.2835  0.5119
   35CHL1  H26B 2585   2.729   4.941   4.358 -2.0145 -1.0676 -0.1670
   35CHL1  H26C 2586   2.618   5.083   4.342 -0.1440 -0.3441 -0.1828
   35CHL1   C27 2587   2.885   5.171   4.309 -0.8906 -0.6404 -0.4669
   35CHL1  H27A 2588   2.956   5.239   4.257  2.0812 -1.2780  2.4727
   35CHL1  H27B 2589   2.829   5.236   4.380  0.2279 -0.3691  0.1854
   35CHL1  H27C 2590   2.947   5.097   4.364 -1.4915  0.0157  1.1643
   36CHL1    C3 2591   5.448   2.345   2.593  0.7750 -0.2477  0.7877
   36CHL1    H3 2592   5.391   2.440   2.606 -1.6114 -1.4352 -0.3303
   36CHL1    O3 2593   5.500   2.344   2.462 -0.3383 -0.2272 -0.0600
   36CHL1   H3' 2594   5.490   2.432   2.426  0.8837  0.2451  0.6962
   36CHL1    C4 2595   5.554   2.330   2.699 -0.7101  0.6775  0.1059
   36CHL1   H4A 2596   5.616   2.241   2.674 -1.4913  0.0269  0.4504
   36CHL1   H4B 2597   5.617   2.421   2.691 -0.1284  0.2762  0.0359
   36CHL1    C5 2598   5.505   2.306   2.838 -0.1175  0.3693  0.0328
   36CHL1    C6 2599   5.535   2.396   2.937 -0.7621  0.1122 -0.3785
   36CHL1    H6 2600   5.606   2.476   2.911 -0.0807  0.4874  2.3095
   36CHL1    C7 2601   5.475   2.379   3.078 -0.4809 -0.0480 -0.5757
   36CHL1   H7A 2602   5.550   2.416   3.152 -1.2893  1.2438 -0.3726
   36CHL1   H7B 2603   5.398   2.456   3.100  0.0137 -0.0557  1.3925
   36CHL1    C8 2604   5.433   2.231   3.101 -0.3634 -0.1603 -0.5134
   36CHL1    H8 2605   5.520   2.162   3.087 -0.0155  0.2698 -0.5045
   36CHL1   C14 2606   5.375   2.212   3.240 -0.3013 -0.0290 -0.3009
   36CHL1   H14 2607   5.276   2.261   3.238 -0.6116 -0.6700 -1.5248
   36CHL1   C15 2608   5.459   2.263   3.356  0.1171  0.7741  0.5725
   36CHL1  H15A 2609   5.563   2.231   3.337  0.3271  2.5259 -1.7241
   36CHL1  H15B 2610   5.462   2.374   3.367  0.6640  0.6127  2.3918
   36CHL1   C16 2611   5.388   2.201   3.470 -0.1877  0.6364 -0.4612
   36CHL1  H16A 2612   5.464   2.164   3.542 -2.2396 -0.5878  1.2024
   36CHL1  H16B 2613   5.325   2.271   3.528 -1.4841 -0.2202 -0.7727
   36CHL1   C17 2614   5.288   2.093   3.408  0.4717  0.1886  0.1841
   36CHL1   H17 2615   5.191   2.147   3.403  0.2483 -0.2766 -0.9255
   36CHL1   C13 2616   5.330   2.065   3.269  0.5408 -0.9489 -0.0363
   36CHL1   C18 2617   5.447   1.962   3.270  0.6360 -0.3623  0.3164
   36CHL1  H18A 2618   5.508   1.976   3.363  0.2850 -0.5209  0.5705
   36CHL1  H18B 2619   5.414   1.856   3.273  0.0701 -0.1752  1.3501
   36CHL1  H18C 2620   5.516   1.991   3.188 -1.0519  3.2717 -0.0443
   36CHL1   C12 2621   5.226   2.030   3.163 -0.8730  0.5343  0.1518
   36CHL1  H12A 2622   5.184   1.928   3.180 -2.5928  1.0267 -0.8669
   36CHL1  H12B 2623   5.138   2.097   3.179 -2.1507 -0.5813 -1.7973
   36CHL1   C11 2624   5.278   2.044   3.016  0.0316  0.6258 -0.0271
   36CHL1  H11A 2625   5.352   1.963   3.000 -1.1784 -1.0288  2.2324
   36CHL1  H11B 2626   5.188   2.029   2.952 -0.4535  1.6718  0.3848
   36CHL1    C9 2627   5.344   2.180   2.986  0.3944 -0.2439 -0.4133
   36CHL1    H9 2628   5.269   2.262   2.987  1.1133  0.4917  2.6633
   36CHL1   C10 2629   5.418   2.184   2.853  0.6641 -0.0536 -0.5545
   36CHL1   C19 2630   5.493   2.054   2.813  1.0137  0.8035  0.2497
   36CHL1  H19A 2631   5.549   2.062   2.717  0.4105 -1.5490 -0.3649
   36CHL1  H19B 2632   5.567   2.031   2.893  0.0515  1.1752  1.2623
   36CHL1  H19C 2633   5.430   1.963   2.807  0.1177  1.5216 -3.5910
   36CHL1    C1 2634   5.305   2.192   2.747 -0.3017  0.3060 -0.2431
   36CHL1   H1A 2635   5.237   2.105   2.753 -0.5603  0.5114 -0.1440
   36CHL1   H1B 2636   5.238   2.278   2.773 -0.8561 -0.1911  0.0116
   36CHL1    C2 2637   5.354   2.224   2.601 -0.4958  0.3426 -0.5239
   36CHL1   H2A 2638   5.274   2.237   2.525 -0.6461  2.3638 -0.0673
   36CHL1   H2B 2639   5.413   2.133   2.575  1.7269  2.1255 -2.1289
   36CHL1   C20 2640   5.258   1.983   3.512 -0.7384 -0.2774  0.1052
   36CHL1   H20 2641   5.354   1.927   3.519  1.2351  2.4165 -2.6754
   36CHL1   C21 2642   5.154   1.883   3.440 -0.2772 -0.0725 -0.4976
   36CHL1  H21A 2643   5.111   1.814   3.516 -3.2062  1.0359 -1.0245
   36CHL1  H21B 2644   5.194   1.821   3.357 -0.7948 -1.4312  0.2182
   36CHL1  H21C 2645   5.067   1.942   3.405 -0.4395 -0.5993 -1.0070
   36CHL1   C22 2646   5.215   2.024   3.657  0.2056 -0.2393  0.5429
   36CHL1  H22A 2647   5.255   2.125   3.682 -1.4015  1.3332 -2.6343
   36CHL1  H22B 2648   5.104   2.026   3.649  0.1798 -3.1685 -1.4899
   36CHL1   C23 2649   5.247   1.919   3.759 -0.6405  0.2052 -0.1333
   36CHL1  H23A 2650   5.214   1.817   3.732  0.6463 -0.2663  0.0276
   36CHL1  H23B 2651   5.358   1.918   3.765 -0.6528  1.5982  0.7473
   36CHL1   C24 2652   5.195   1.948   3.900 -0.1404 -0.9607  0.3068
   36CHL1  H24A 2653   5.206   2.058   3.911  0.7889 -1.1170  1.1257
   36CHL1  H24B 2654   5.086   1.937   3.883  0.0942  0.4807 -2.6264
   36CHL1   C25 2655   5.270   1.877   4.011  0.7506 -0.3400 -0.7414
   36CHL1   H25 2656   5.375   1.853   3.986  0.2797 -2.1338 -1.1954
   36CHL1   C26 2657   5.259   1.945   4.149 -1.2372  0.0147 -0.5739
   36CHL1  H26A 2658   5.313   1.880   4.222 -0.3103  1.1627 -0.2020
   36CHL1  H26B 2659   5.304   2.046   4.149  1.0325 -0.9140 -2.1590
   36CHL1  H26C 2660   5.152   1.950   4.177 -0.9737  0.5082  0.4002
   36CHL1   C27 2661   5.197   1.738   4.034  0.1962 -0.1424 -0.5587
   36CHL1  H27A 2662   5.086   1.745   4.044  0.1824 -1.7515  0.8545
   36CHL1  H27B 2663   5.219   1.665   3.953  3.0016 -3.1530  2.5770
   36CHL1  H27C 2664   5.242   1.691   4.123 -0.1320 -0.8485 -0.7553
   37CHL1    C3 2665   1.975   4.174   5.996 -0.5869  0.5978 -0.3504
   37CHL1    H3 2666   2.064   4.117   5.964  0.5619  1.5255  1.0667
   37CHL1    O3 2667   1.920   4.103   6.105 -0.2126  0.2091  0.5700
   37CHL1   H3' 2668   1.840   4.139   6.143 -1.3841 -1.9037  0.2513
   37CHL1    C4 2669   2.010   4.324   6.020 -0.3412  0.4330 -0.1153
   37CHL1   H4A 2670   1.914   4.367   6.053 -0.1068 -0.0930  1.3231
   37CHL1   H4B 2671   2.082   4.323   6.105 -0.7856 -0.7712  0.2649
   37CHL1    C5 2672   2.064   4.396   5.900  0.0166 -1.0502 -0.0351
   37CHL1    C6 2673   2.182   4.473   5.898  0.0597  0.4511  0.2746
   37CHL1    H6 2674   2.228   4.479   5.998 -0.9488 -0.5274  0.8207
   37CHL1    C7 2675   2.228   4.556   5.784  0.4764 -0.1294  0.9019
   37CHL1   H7A 2676   2.258   4.660   5.809  2.0333 -0.1951 -0.5574
   37CHL1   H7B 2677   2.317   4.505   5.743  0.7827  0.8152  0.3668
   37CHL1    C8 2678   2.131   4.567   5.665  0.3503  0.1524  0.1051
   37CHL1    H8 2679   2.054   4.645   5.683 -0.9835 -1.1517  0.2155
   37CHL1   C14 2680   2.200   4.609   5.534  0.2658 -0.2794 -0.6197
   37CHL1   H14 2681   2.278   4.536   5.504  0.9675  0.6175 -1.0304
   37CHL1   C15 2682   2.286   4.744   5.539 -0.3771 -0.3701  0.0452
   37CHL1  H15A 2683   2.230   4.822   5.595 -0.1804 -1.0139  1.1584
   37CHL1  H15B 2684   2.382   4.729   5.592 -0.8561 -0.5406  0.8898
   37CHL1   C16 2685   2.301   4.767   5.389 -0.0158  0.6171  0.0518
   37CHL1  H16A 2686   2.264   4.869   5.367  0.6443  0.5604 -1.4384
   37CHL1  H16B 2687   2.408   4.764   5.361  0.4760  1.3281  1.7641
   37CHL1   C17 2688   2.220   4.662   5.306 -0.1477  0.5596 -1.0358
   37CHL1   H17 2689   2.288   4.575   5.299  1.0963  1.4638 -0.4946
   37CHL1   C13 2690   2.117   4.612   5.407 -0.7619 -0.5423 -0.3069
   37CHL1   C18 2691   2.008   4.726   5.418 -0.2965  1.1231  0.2611
   37CHL1  H18A 2692   1.943   4.733   5.328 -0.1851 -2.5566 -0.2724
   37CHL1  H18B 2693   1.934   4.713   5.499 -1.9296  0.8639 -1.2137
   37CHL1  H18C 2694   2.052   4.827   5.432  0.8094  0.7533 -0.3674
   37CHL1   C12 2695   2.056   4.467   5.391  0.0588  0.8259  0.2195
   37CHL1  H12A 2696   1.988   4.470   5.303  0.5951 -0.9339 -0.2991
   37CHL1  H12B 2697   2.131   4.385   5.387  1.5734  2.0953  1.3840
   37CHL1   C11 2698   1.975   4.428   5.518 -0.2170  0.7730 -0.8317
   37CHL1  H11A 2699   1.881   4.488   5.516 -2.5714 -2.2600  3.0283
   37CHL1  H11B 2700   1.937   4.326   5.498 -1.8125  1.1974 -0.1401
   37CHL1    C9 2701   2.060   4.430   5.648 -0.2387  0.7719 -0.0613
   37CHL1    H9 2702   2.144   4.361   5.628 -1.8739 -1.6531  1.0210
   37CHL1   C10 2703   1.985   4.385   5.772  0.0917 -0.5796 -0.8408
   37CHL1   C19 2704   1.860   4.481   5.799  0.3946  0.7844  0.2466
   37CHL1  H19A 2705   1.799   4.429   5.876  0.9238  1.5571  1.2123
   37CHL1  H19B 2706   1.886   4.580   5.840  1.8337  0.4724  0.1430
   37CHL1  H19C 2707   1.805   4.503   5.705  0.9824  2.0935  0.1939
   37CHL1    C1 2708   1.937   4.236   5.750 -0.1375 -0.4484 -0.0869
   37CHL1   H1A 2709   1.862   4.230   5.669 -0.0948  1.6843 -0.3472
   37CHL1   H1B 2710   2.021   4.172   5.714 -1.1541 -0.5190 -2.5159
   37CHL1    C2 2711   1.875   4.170   5.878  0.1178  0.0048  0.7852
   37CHL1   H2A 2712   1.856   4.063   5.855 -1.1355 -0.1837  2.4542
   37CHL1   H2B 2713   1.780   4.219   5.908 -0.2116 -0.4880  0.5725
   37CHL1   C20 2714   2.183   4.703   5.152 -0.2176 -0.1572 -0.5372
   37CHL1   H20 2715   2.135   4.802   5.163  0.5342  0.2061 -0.4910
   37CHL1   C21 2716   2.098   4.592   5.081  0.5961  0.0061 -0.2865
   37CHL1  H21A 2717   2.116   4.608   4.973 -0.0712 -2.1084 -0.7492
   37CHL1  H21B 2718   1.990   4.597   5.109  1.2424 -1.1150  2.8684
   37CHL1  H21C 2719   2.143   4.495   5.110  0.5623 -0.2868 -1.1881
   37CHL1   C22 2720   2.315   4.737   5.074 -0.1306  0.5724 -0.3193
   37CHL1  H22A 2721   2.375   4.815   5.127  1.0469 -0.6257  0.1585
   37CHL1  H22B 2722   2.374   4.644   5.089  0.0610  0.8909  0.9987
   37CHL1   C23 2723   2.300   4.771   4.929 -0.0823  0.4973  0.0777
   37CHL1  H23A 2724   2.279   4.681   4.868  0.3490  0.2770  0.2526
   37CHL1  H23B 2725   2.212   4.838   4.915 -1.2849 -1.1590 -0.6160
   37CHL1   C24 2726   2.431   4.831   4.866 -0.4488  0.3384  0.3671
   37CHL1  H24A 2727   2.473   4.917   4.924  1.2566 -0.5136  0.4695
   37CHL1  H24B 2728   2.515   4.758   4.856  1.2290  2.3590 -1.3013
   37CHL1   C25 2729   2.398   4.875   4.719 -0.4320 -0.0330 -0.1521
   37CHL1   H25 2730   2.322   4.955   4.738 -0.8321 -0.7419  1.3616
   37CHL1   C26 2731   2.504   4.959   4.650 -0.2482  0.0661 -0.4588
   37CHL1  H26A 2732   2.458   5.031   4.579 -1.8735  1.6556  2.0397
   37CHL1  H26B 2733   2.560   5.024   4.721  0.2959  0.5241 -1.2874
   37CHL1  H26C 2734   2.579   4.901   4.593 -0.5525 -0.3560 -0.4306
   37CHL1   C27 2735   2.345   4.763   4.621 -0.3160 -0.8005  0.1700
   37CHL1  H27A 2736   2.258   4.711   4.666  0.0435 -0.2695  1.5252
   37CHL1  H27B 2737   2.325   4.810   4.523 -0.3363 -1.9821 -0.4076
   37CHL1  H27C 2738   2.437   4.703   4.603  1.2286  1.6413 -0.5787
   38CHL1    C3 2739   5.083   3.055   2.946  0.4472 -0.7273  0.5125
   38CHL1    H3 2740   5.012   2.992   3.003 -1.7094  1.3004  0.2345
   38CHL1    O3 2741   5.073   3.038   2.801 -0.3077  0.4404 -0.2689
   38CHL1   H3' 2742   4.987   3.074   2.781 -0.2063  0.0208 -1.5271
   38CHL1    C4 2743   5.046   3.207   2.968  0.1887  0.1658 -0.8281
   38CHL1   H4A 2744   5.101   3.279   2.904  0.4795  2.0742  1.4093
   38CHL1   H4B 2745   4.938   3.225   2.950 -0.7660 -0.6829  3.0706
   38CHL1    C5 2746   5.063   3.239   3.116 -0.5648  0.4410  0.6249
   38CHL1    C6 2747   4.965   3.308   3.183 -0.1253 -0.1775 -0.1187
   38CHL1    H6 2748   4.868   3.313   3.132 -1.0740  0.4437  1.6388
   38CHL1    C7 2749   4.977   3.342   3.331  0.1628 -0.0440  0.1264
   38CHL1   H7A 2750   4.942   3.445   3.355 -0.5509  0.5683 -3.1467
   38CHL1   H7B 2751   4.891   3.286   3.375 -4.0509  5.0853 -0.5086
   38CHL1    C8 2752   5.116   3.310   3.390  0.1720  0.2476 -0.0401
   38CHL1    H8 2753   5.174   3.400   3.360 -0.9375  0.5281 -1.4689
   38CHL1   C14 2754   5.108   3.294   3.542 -0.5232  0.8561  0.4039
   38CHL1   H14 2755   5.058   3.196   3.561  0.1942  0.2427 -0.7533
   38CHL1   C15 2756   5.049   3.408   3.629 -0.1611  0.2569  0.5690
   38CHL1  H15A 2757   5.109   3.497   3.600  1.7122 -1.1410 -0.0413
   38CHL1  H15B 2758   4.940   3.428   3.615 -0.9741 -2.5668  2.0546
   38CHL1   C16 2759   5.082   3.374   3.773  0.0049  0.3144  0.1161
   38CHL1  H16A 2760   5.102   3.469   3.827  1.0904  0.8469 -1.1718
   38CHL1  H16B 2761   4.996   3.322   3.820  0.6035 -0.2283  0.6530
   38CHL1   C17 2762   5.199   3.271   3.765 -0.2780  0.2358  0.3712
   38CHL1   H17 2763   5.146   3.174   3.770 -3.1835  1.5922 -1.4488
   38CHL1   C13 2764   5.243   3.266   3.614  0.5968  0.3624 -0.3945
   38CHL1   C18 2765   5.342   3.382   3.583  0.6407  0.1322 -0.3645
   38CHL1  H18A 2766   5.446   3.356   3.612  0.3196 -0.7892 -0.0227
   38CHL1  H18B 2767   5.343   3.404   3.474 -1.2614  0.7814 -0.2752
   38CHL1  H18C 2768   5.318   3.477   3.636  0.7365 -0.4556  0.7663
   38CHL1   C12 2769   5.298   3.135   3.558  0.2699 -0.1824 -0.1940
   38CHL1  H12A 2770   5.403   3.130   3.594  0.1717  3.5260  0.9868
   38CHL1  H12B 2771   5.245   3.040   3.583  0.2066 -0.7115 -2.1411
   38CHL1   C11 2772   5.308   3.137   3.403  0.8097  0.5064 -0.0201
   38CHL1  H11A 2773   5.389   3.211   3.382  1.0812  0.0113 -0.7383
   38CHL1  H11B 2774   5.344   3.039   3.366 -1.3507  0.2682 -1.6506
   38CHL1    C9 2775   5.181   3.180   3.331 -0.5778  0.0644 -0.2851
   38CHL1    H9 2776   5.102   3.104   3.349 -0.1483 -0.7877 -1.8362
   38CHL1   C10 2777   5.196   3.185   3.185  0.4505  0.2065 -0.0840
   38CHL1   C19 2778   5.311   3.281   3.140  0.6087 -0.1986  0.3035
   38CHL1  H19A 2779   5.299   3.382   3.184 -0.6534  0.3079 -1.1199
   38CHL1  H19B 2780   5.408   3.235   3.167  1.3346  1.4626  0.6354
   38CHL1  H19C 2781   5.327   3.297   3.031  1.7454  1.6930  0.7088
   38CHL1    C1 2782   5.234   3.042   3.130 -0.4695  0.0401  0.1508
   38CHL1   H1A 2783   5.334   3.012   3.167 -0.2538  0.3813 -0.1447
   38CHL1   H1B 2784   5.163   2.972   3.179 -0.4500  1.0994  1.8009
   38CHL1    C2 2785   5.227   3.034   2.979  0.6356 -0.1730 -0.3339
   38CHL1   H2A 2786   5.265   2.932   2.955  1.7592  0.3723 -0.9827
   38CHL1   H2B 2787   5.282   3.115   2.927  0.3147 -1.1793 -2.3242
   38CHL1   C20 2788   5.309   3.278   3.873  0.1289 -0.1038 -0.3417
   38CHL1   H20 2789   5.360   3.375   3.855 -1.7921  1.2637  1.1227
   38CHL1   C21 2790   5.411   3.167   3.864 -0.2504  0.3221 -0.1931
   38CHL1  H21A 2791   5.364   3.068   3.879 -0.6978  0.5624  0.0419
   38CHL1  H21B 2792   5.480   3.175   3.951 -0.0202 -0.2948 -0.3163
   38CHL1  H21C 2793   5.471   3.174   3.771 -2.0548  0.6428 -1.3707
   38CHL1   C22 2794   5.246   3.280   4.015  0.5889  0.5278 -0.0244
   38CHL1  H22A 2795   5.161   3.351   4.015  0.5596  0.4996 -0.7243
   38CHL1  H22B 2796   5.192   3.185   4.039  2.6304 -0.5553  0.5095
   38CHL1   C23 2797   5.348   3.303   4.132  0.3628  0.2188 -0.1660
   38CHL1  H23A 2798   5.436   3.236   4.134  1.4965  1.6766  1.1910
   38CHL1  H23B 2799   5.376   3.410   4.115  1.3811 -0.3157 -2.2071
   38CHL1   C24 2800   5.266   3.286   4.262 -0.3987 -0.0476 -0.2730
   38CHL1  H24A 2801   5.176   3.351   4.251 -0.1926  0.2584 -0.1543
   38CHL1  H24B 2802   5.243   3.178   4.270 -0.2264 -0.4575 -3.8735
   38CHL1   C25 2803   5.341   3.324   4.389 -0.2738  0.7974  0.0961
   38CHL1   H25 2804   5.380   3.428   4.394  0.3750  0.5143  1.8203
   38CHL1   C26 2805   5.240   3.324   4.504  0.2693 -0.2875  0.0721
   38CHL1  H26A 2806   5.289   3.347   4.601  1.1834  0.1406 -0.4677
   38CHL1  H26B 2807   5.158   3.394   4.481  0.4338 -0.4207 -0.9606
   38CHL1  H26C 2808   5.210   3.218   4.522  2.9420 -1.9502 -3.7813
   38CHL1   C27 2809   5.466   3.238   4.412  0.1994 -0.3668 -0.1840
   38CHL1  H27A 2810   5.541   3.244   4.330 -0.4017 -2.4102 -0.9640
   38CHL1  H27B 2811   5.517   3.257   4.509  0.8791 -2.4616 -0.0856
   38CHL1  H27C 2812   5.428   3.133   4.416 -2.8698  0.6366 -0.3439
   39CHL1    C3 2813   3.208   2.130   2.725  0.0311  0.6305 -0.1710
   39CHL1    H3 2814   3.224   2.237   2.700 -0.2095  0.3093 -1.8137
   39CHL1    O3 2815   3.154   2.076   2.608  0.5237 -0.5572 -0.2230
   39CHL1   H3' 2816   3.118   1.994   2.643  0.6785  0.1923  1.8540
   39CHL1    C4 2817   3.337   2.056   2.763  0.3862  0.6210  0.2707
   39CHL1   H4A 2818   3.325   1.946   2.770  0.5388  0.5974  0.1714
   39CHL1   H4B 2819   3.411   2.079   2.683  0.4071  3.0812  0.9196
   39CHL1    C5 2820   3.388   2.109   2.895  0.5248  0.5524 -0.3149
   39CHL1    C6 2821   3.511   2.150   2.900 -0.1533  0.2297 -0.2293
   39CHL1    H6 2822   3.570   2.160   2.807 -0.5121 -0.6356 -0.5512
   39CHL1    C7 2823   3.573   2.200   3.026  0.0617 -0.7062  0.8403
   39CHL1   H7A 2824   3.671   2.149   3.040 -0.5438 -2.3566 -0.6095
   39CHL1   H7B 2825   3.584   2.310   3.019 -1.3182 -0.6640 -3.8546
   39CHL1    C8 2826   3.492   2.163   3.156 -0.5946  0.1504 -0.9329
   39CHL1    H8 2827   3.518   2.058   3.180  1.7872  0.6877 -0.9460
   39CHL1   C14 2828   3.531   2.252   3.281  0.3398 -0.0928 -0.2612
   39CHL1   H14 2829   3.521   2.356   3.245 -0.9432 -0.4957 -1.1755
   39CHL1   C15 2830   3.677   2.239   3.328 -0.6996  0.1887 -0.5584
   39CHL1  H15A 2831   3.703   2.131   3.332 -0.1004  0.2572 -1.9864
   39CHL1  H15B 2832   3.739   2.294   3.255 -1.5117  1.7594 -0.1098
   39CHL1   C16 2833   3.681   2.314   3.461 -0.2411  0.1259 -0.5500
   39CHL1  H16A 2834   3.732   2.252   3.539 -1.6673 -0.6255 -0.1787
   39CHL1  H16B 2835   3.724   2.415   3.446 -2.7348  1.1759 -1.0012
   39CHL1   C17 2836   3.523   2.336   3.498  0.4484  0.0890  0.4811
   39CHL1   H17 2837   3.489   2.432   3.451 -0.6597 -0.8029 -0.6043
   39CHL1   C13 2838   3.446   2.238   3.405 -0.9011 -0.0959 -0.1335
   39CHL1   C18 2839   3.473   2.101   3.464 -0.0198  0.4758  0.3164
   39CHL1  H18A 2840   3.579   2.081   3.491 -0.6082 -0.6455  1.9930
   39CHL1  H18B 2841   3.414   2.088   3.557  0.3492  1.3918  0.6872
   39CHL1  H18C 2842   3.457   2.019   3.390  2.5889 -0.3703  0.5735
   39CHL1   C12 2843   3.306   2.267   3.363  0.7433 -0.1087  0.3293
   39CHL1  H12A 2844   3.232   2.264   3.446 -0.4561  1.4766 -0.6175
   39CHL1  H12B 2845   3.308   2.374   3.332  1.2695  0.1630  1.2503
   39CHL1   C11 2846   3.254   2.177   3.253 -0.4287 -0.4830 -0.6028
   39CHL1  H11A 2847   3.227   2.076   3.290 -2.4636  0.8760  2.0152
   39CHL1  H11B 2848   3.157   2.219   3.219  0.0664  1.1919 -0.0512
   39CHL1    C9 2849   3.340   2.184   3.128 -0.0455 -0.2013  0.1673
   39CHL1    H9 2850   3.334   2.289   3.093  0.7096 -0.4725 -0.8198
   39CHL1   C10 2851   3.289   2.100   3.013  0.7579  0.1150  0.1675
   39CHL1   C19 2852   3.268   1.945   3.039  0.1766 -0.1933 -0.4522
   39CHL1  H19A 2853   3.359   1.905   3.091 -2.1180 -2.3267  2.2502
   39CHL1  H19B 2854   3.179   1.942   3.105  1.3200 -0.0014  1.1787
   39CHL1  H19C 2855   3.233   1.884   2.953 -1.6301 -1.6276  1.2044
   39CHL1    C1 2856   3.155   2.157   2.968 -0.5369  0.4286  0.0934
   39CHL1   H1A 2857   3.077   2.135   3.044 -1.0431  0.0558 -0.5144
   39CHL1   H1B 2858   3.159   2.268   2.967 -1.1628  0.4566  0.2376
   39CHL1    C2 2859   3.110   2.112   2.832  0.5081 -0.3633  0.4208
   39CHL1   H2A 2860   3.019   2.171   2.809  1.3694  0.9694  0.3631
   39CHL1   H2B 2861   3.082   2.004   2.836  0.6373 -0.3938  0.4941
   39CHL1   C20 2862   3.496   2.340   3.649  0.2215 -0.8452 -0.6782
   39CHL1   H20 2863   3.528   2.245   3.696 -0.2846  0.2018  1.9262
   39CHL1   C21 2864   3.343   2.356   3.687  0.2607  0.3453 -0.6887
   39CHL1  H21A 2865   3.322   2.355   3.796  3.0506 -1.2398 -0.0784
   39CHL1  H21B 2866   3.286   2.266   3.657 -0.8265  0.5009  0.8362
   39CHL1  H21C 2867   3.304   2.441   3.626  1.4949  1.0838 -0.4768
   39CHL1   C22 2868   3.574   2.462   3.718 -0.1590  0.0864 -0.4966
   39CHL1  H22A 2869   3.684   2.468   3.700 -0.1249 -1.6642 -1.0903
   39CHL1  H22B 2870   3.527   2.558   3.688  2.1088  1.2780 -0.5247
   39CHL1   C23 2871   3.552   2.454   3.869  0.2965 -0.1549 -0.3189
   39CHL1  H23A 2872   3.452   2.490   3.901  1.5656  0.7382  2.9726
   39CHL1  H23B 2873   3.579   2.352   3.905 -1.4054 -0.5548 -0.1015
   39CHL1   C24 2874   3.655   2.543   3.941  1.0624  0.3145  0.4004
   39CHL1  H24A 2875   3.760   2.524   3.911  0.8085 -0.0269 -0.2901
   39CHL1  H24B 2876   3.629   2.648   3.919 -1.0722  0.1967  2.0136
   39CHL1   C25 2877   3.642   2.529   4.096  0.2774  0.5057  0.5576
   39CHL1   H25 2878   3.680   2.427   4.116 -1.9713 -0.6069 -0.4645
   39CHL1   C26 2879   3.743   2.634   4.140 -0.5759  0.1096 -0.7566
   39CHL1  H26A 2880   3.844   2.620   4.094 -0.6119  1.4759 -1.3126
   39CHL1  H26B 2881   3.694   2.732   4.121 -2.0745 -0.3966  0.3508
   39CHL1  H26C 2882   3.767   2.618   4.247 -0.0937  1.9114 -0.5561
   39CHL1   C27 2883   3.500   2.548   4.147  0.5996  0.4471 -0.1144
   39CHL1  H27A 2884   3.441   2.627   4.096 -2.4780 -0.5026  1.6737
   39CHL1  H27B 2885   3.441   2.454   4.140 -0.2266  1.0937 -3.6316
   39CHL1  H27C 2886   3.508   2.572   4.255  1.5187  0.0842 -0.0958
   40CHL1    C3 2887   6.731   1.974   2.860 -0.4677 -0.5198  0.7980
   40CHL1    H3 2888   6.832   2.013   2.884 -0.6623  0.4156  0.1697
   40CHL1    O3 2889   6.738   1.949   2.722  0.1194 -0.9167 -0.0432
   40CHL1   H3' 2890   6.665   1.998   2.685  0.8101 -1.0967 -1.7394
   40CHL1    C4 2891   6.709   1.842   2.934 -0.1234  0.9054 -0.3596
   40CHL1   H4A 2892   6.617   1.792   2.898  0.7795 -0.4739 -0.7938
   40CHL1   H4B 2893   6.791   1.772   2.909 -0.9174 -0.3587  0.4627
   40CHL1    C5 2894   6.702   1.868   3.081  0.4830  0.0850 -0.5105
   40CHL1    C6 2895   6.786   1.808   3.171 -0.4222  0.2256 -0.0049
   40CHL1    H6 2896   6.860   1.729   3.153  0.1445  0.3954  1.4528
   40CHL1    C7 2897   6.774   1.827   3.314 -0.1756  0.5623 -0.0072
   40CHL1   H7A 2898   6.791   1.732   3.368  1.0764  0.9016  0.2366
   40CHL1   H7B 2899   6.858   1.886   3.357  0.3620 -0.1287 -0.0904
   40CHL1    C8 2900   6.638   1.893   3.357  0.5939  0.3828 -0.0392
   40CHL1    H8 2901   6.556   1.823   3.333  0.4643  0.8746 -1.0710
   40CHL1   C14 2902   6.641   1.944   3.504  0.2890 -0.4555  0.3986
   40CHL1   H14 2903   6.727   2.015   3.508  0.1459 -0.0796 -1.7935
   40CHL1   C15 2904   6.666   1.842   3.617  0.6426 -0.1162  0.0629
   40CHL1  H15A 2905   6.606   1.750   3.600  1.5535 -1.5339  3.5657
   40CHL1  H15B 2906   6.771   1.807   3.625  0.7458  0.3624  0.9281
   40CHL1   C16 2907   6.624   1.916   3.746  0.3617  0.1441  0.4263
   40CHL1  H16A 2908   6.566   1.838   3.798 -2.9634 -0.6240 -3.8271
   40CHL1  H16B 2909   6.712   1.951   3.804  0.7956 -0.7702  0.3435
   40CHL1   C17 2910   6.548   2.043   3.700  0.3056 -0.5534  0.4398
   40CHL1   H17 2911   6.625   2.123   3.709  2.2840 -1.9232 -2.4157
   40CHL1   C13 2912   6.525   2.031   3.550  1.0272  0.6904 -0.3497
   40CHL1   C18 2913   6.397   1.945   3.528  0.3602 -0.0678  0.3807
   40CHL1  H18A 2914   6.310   2.012   3.544  0.2799  0.1061 -0.6614
   40CHL1  H18B 2915   6.379   1.918   3.422 -0.8629 -0.8942  0.7788
   40CHL1  H18C 2916   6.399   1.854   3.590  2.1852  0.0979  0.6238
   40CHL1   C12 2917   6.529   2.161   3.467 -0.5240  0.5086 -0.0740
   40CHL1  H12A 2918   6.443   2.223   3.499 -2.2002 -1.5412 -0.3795
   40CHL1  H12B 2919   6.625   2.215   3.481  0.2642 -0.9723  0.4517
   40CHL1   C11 2920   6.513   2.120   3.319 -0.9001 -0.0060  0.5399
   40CHL1  H11A 2921   6.407   2.092   3.302 -1.2143  0.1530  2.0460
   40CHL1  H11B 2922   6.543   2.212   3.265  1.5328  1.3852  3.8901
   40CHL1    C9 2923   6.617   2.015   3.267  0.5003  0.2009 -0.2977
   40CHL1    H9 2924   6.711   2.074   3.278  0.6508  0.1323 -1.1308
   40CHL1   C10 2925   6.603   1.977   3.122 -0.4121 -0.9394  0.1000
   40CHL1   C19 2926   6.460   1.933   3.093 -0.6371 -0.0228  0.0972
   40CHL1  H19A 2927   6.453   1.901   2.987  0.7967  2.0709 -0.6815
   40CHL1  H19B 2928   6.441   1.850   3.164  0.2369 -0.2797  0.0368
   40CHL1  H19C 2929   6.385   2.010   3.118 -1.5872 -0.7401 -0.4453
   40CHL1    C1 2930   6.622   2.110   3.036  0.2679 -0.4648  0.0411
   40CHL1   H1A 2931   6.542   2.181   3.066 -0.6704 -0.9115 -1.3008
   40CHL1   H1B 2932   6.714   2.162   3.069 -0.2214  0.7878 -0.5052
   40CHL1    C2 2933   6.628   2.083   2.889 -0.1230 -0.6372 -0.1670
   40CHL1   H2A 2934   6.658   2.170   2.827  0.7286 -0.3219  0.6656
   40CHL1   H2B 2935   6.532   2.039   2.857 -0.3884 -2.2444  2.5588
   40CHL1   C20 2936   6.428   2.078   3.790 -0.1980 -0.2764 -0.2277
   40CHL1   H20 2937   6.344   2.008   3.769  0.8965 -1.1720 -1.8403
   40CHL1   C21 2938   6.381   2.213   3.743 -0.5706 -0.3638 -0.4429
   40CHL1  H21A 2939   6.329   2.213   3.644 -0.1242  0.3777 -0.6881
   40CHL1  H21B 2940   6.466   2.285   3.737 -0.2411 -0.7391 -0.3221
   40CHL1  H21C 2941   6.309   2.255   3.815  1.3129 -0.0641  1.3615
   40CHL1   C22 2942   6.468   2.078   3.937  0.5462 -0.0545 -0.1310
   40CHL1  H22A 2943   6.506   1.980   3.972  0.7759  1.0188  2.9180
   40CHL1  H22B 2944   6.541   2.158   3.963 -1.2998  1.1744  1.5270
   40CHL1   C23 2945   6.344   2.093   4.028  0.6305  0.7134  0.2950
   40CHL1  H23A 2946   6.307   2.198   4.022  1.1673  0.8913  0.0330
   40CHL1  H23B 2947   6.261   2.023   4.006 -1.4828  2.5798  1.8788
   40CHL1   C24 2948   6.384   2.058   4.169 -0.0715  0.1375 -0.7351
   40CHL1  H24A 2949   6.296   2.059   4.237  1.2987 -1.1694  1.1719
   40CHL1  H24B 2950   6.422   1.954   4.168  0.0188 -0.0567  3.7597
   40CHL1   C25 2951   6.489   2.152   4.231 -0.1001 -0.8155 -0.3956
   40CHL1   H25 2952   6.577   2.150   4.164  0.5947 -0.0275  0.4679
   40CHL1   C26 2953   6.439   2.294   4.247 -0.4327  0.0805  0.3384
   40CHL1  H26A 2954   6.352   2.310   4.314 -1.2013  0.1912 -0.6458
   40CHL1  H26B 2955   6.514   2.364   4.289 -2.0381  1.2676  1.3610
   40CHL1  H26C 2956   6.409   2.333   4.147  1.1011 -0.4993 -0.3803
   40CHL1   C27 2957   6.529   2.095   4.357  0.2179  0.4540  0.4399
   40CHL1  H27A 2958   6.618   2.141   4.405 -0.9018  2.1441  0.9675
   40CHL1  H27B 2959   6.449   2.105   4.433  0.7951 -2.9312  1.6571
   40CHL1  H27C 2960   6.554   1.988   4.337 -0.8229 -0.0988  1.9388
   41CHL1    C3 2961   0.031   1.058   2.497  0.4253  0.1121  0.8208
   41CHL1    H3 2962   0.070   1.153   2.538 -0.6133  0.7775  0.3000
   41CHL1    O3 2963   0.033   1.062   2.352  0.2673 -0.0416  0.4062
   41CHL1   H3' 2964   0.068   0.975   2.328  0.1532 -0.6874  2.4340
   41CHL1    C4 2965   0.109   0.940   2.548  0.2286 -0.6730  0.0634
   41CHL1   H4A 2966   0.066   0.854   2.492 -1.0043 -0.5191  0.7456
   41CHL1   H4B 2967   0.217   0.947   2.521  0.1691  0.0568 -0.0161
   41CHL1    C5 2968   0.089   0.938   2.700 -0.2411  0.1288 -0.3466
   41CHL1    C6 2969   0.197   0.923   2.781  0.2079 -1.4281  0.6053
   41CHL1    H6 2970   0.291   0.924   2.724 -0.2392 -1.0901 -0.1389
   41CHL1    C7 2971   0.193   0.923   2.931  0.2844  0.8631 -0.5165
   41CHL1   H7A 2972   0.260   0.837   2.955 -0.9941 -0.2675 -0.8171
   41CHL1   H7B 2973   0.235   1.015   2.976 -0.3461  1.1041 -0.4164
   41CHL1    C8 2974   0.049   0.895   2.990 -0.1667 -0.5273  0.4991
   41CHL1    H8 2975   0.013   0.793   2.965  1.7520 -1.5415  1.6335
   41CHL1   C14 2976   0.039   0.920   3.141  0.3756  0.1869  0.4017
   41CHL1   H14 2977   0.081   1.021   3.164  0.5581  0.0122  0.8460
   41CHL1   C15 2978   0.119   0.835   3.235  0.0237  0.7174  0.1754
   41CHL1  H15A 2979   0.104   0.728   3.208 -3.1719  1.1207 -0.0842
   41CHL1  H15B 2980   0.226   0.858   3.220 -0.0489 -0.4616 -3.1477
   41CHL1   C16 2981   0.057   0.865   3.368 -0.5704  0.5991 -0.5288
   41CHL1  H16A 2982   0.020   0.767   3.404 -0.8705  1.0970  0.5575
   41CHL1  H16B 2983   0.131   0.901   3.443  0.2479 -3.1392  0.6553
   41CHL1   C17 2984  -0.066   0.962   3.343  0.4650  0.1708 -0.2974
   41CHL1   H17 2985  -0.013   1.060   3.349  0.1442  0.3807 -0.8440
   41CHL1   C13 2986  -0.103   0.931   3.198 -0.0617  0.1121 -1.1123
   41CHL1   C18 2987  -0.170   0.789   3.185  0.5415  0.1964 -0.4448
   41CHL1  H18A 2988  -0.154   0.745   3.084  1.9784 -1.9541  0.6380
   41CHL1  H18B 2989  -0.130   0.716   3.259  0.5020 -2.6972 -3.0798
   41CHL1  H18C 2990  -0.279   0.789   3.203  0.7191 -0.1242  0.7160
   41CHL1   C12 2991  -0.190   1.034   3.131  0.5790  0.7087 -0.5474
   41CHL1  H12A 2992  -0.298   1.027   3.155 -0.0476  2.5196 -2.4885
   41CHL1  H12B 2993  -0.152   1.137   3.152  2.1482 -0.0755  0.7204
   41CHL1   C11 2994  -0.185   1.008   2.981 -0.3968 -0.6076 -0.6410
   41CHL1  H11A 2995  -0.248   0.920   2.956 -2.8094  0.7108  0.4853
   41CHL1  H11B 2996  -0.232   1.094   2.930  0.4251 -0.0433 -0.4802
   41CHL1    C9 2997  -0.050   0.993   2.915 -0.0382 -0.1924 -0.3549
   41CHL1    H9 2998  -0.002   1.093   2.923 -1.0733  0.3838 -0.9638
   41CHL1   C10 2999  -0.056   0.957   2.764  0.0572 -0.7338 -0.2774
   41CHL1   C19 3000  -0.137   0.831   2.732  0.5681  0.4059 -0.0540
   41CHL1  H19A 3001  -0.246   0.838   2.752  0.3370 -2.5486  0.1080
   41CHL1  H19B 3002  -0.136   0.796   2.627 -2.4518  1.1269 -0.4109
   41CHL1  H19C 3003  -0.111   0.746   2.798 -1.3194 -0.5810 -0.4995
   41CHL1    C1 3004  -0.132   1.073   2.686  0.0589  0.1531  0.1140
   41CHL1   H1A 3005  -0.242   1.065   2.699 -0.0153 -0.7436 -0.8794
   41CHL1   H1B 3006  -0.106   1.170   2.733  0.6984  0.1593 -0.2476
   41CHL1    C2 3007  -0.114   1.064   2.535 -0.3532  0.4896  0.5854
   41CHL1   H2A 3008  -0.164   1.156   2.497 -0.3800  1.7806  3.4676
   41CHL1   H2B 3009  -0.154   0.966   2.501  0.5286  0.5085 -0.5736
   41CHL1   C20 3010  -0.168   0.956   3.454 -0.3498 -0.3375  1.0128
   41CHL1   H20 3011  -0.228   0.867   3.427 -0.4442  0.2312 -0.7698
   41CHL1   C21 3012  -0.258   1.083   3.442 -0.5307 -0.4597  0.1850
   41CHL1  H21A 3013  -0.327   1.097   3.527  1.2017  2.8515  1.2085
   41CHL1  H21B 3014  -0.313   1.096   3.346  1.8600  0.0018 -1.1965
   41CHL1  H21C 3015  -0.199   1.177   3.446 -2.1369  0.5644  0.7580
   41CHL1   C22 3016  -0.117   0.925   3.589 -0.2186 -0.5567 -0.0961
   41CHL1  H22A 3017  -0.210   0.901   3.643 -0.7199  2.5398  0.5921
   41CHL1  H22B 3018  -0.063   0.828   3.590  1.7483  0.2424 -4.1295
   41CHL1   C23 3019  -0.031   1.040   3.645 -0.4598 -0.1425 -0.7261
   41CHL1  H23A 3020   0.054   1.067   3.579  0.3861 -0.2698  0.2846
   41CHL1  H23B 3021  -0.100   1.125   3.663 -1.2226 -0.6476 -1.2154
   41CHL1   C24 3022   0.036   0.985   3.780  0.1730 -0.0778 -0.4268
   41CHL1  H24A 3023  -0.041   0.943   3.848  3.1524 -1.0743  2.6088
   41CHL1  H24B 3024   0.115   0.909   3.760  0.1870 -0.3416  0.5899
   41CHL1   C25 3025   0.096   1.094   3.883 -0.1433  0.8039  0.3715
   41CHL1   H25 3026   0.167   1.157   3.825 -0.8104  0.4777 -0.8385
   41CHL1   C26 3027  -0.015   1.178   3.947  0.3931  0.3556 -0.2038
   41CHL1  H26A 3028  -0.080   1.120   4.015  2.4284 -0.1386  1.3973
   41CHL1  H26B 3029   0.018   1.261   4.012 -0.7848  0.1412  0.6920
   41CHL1  H26C 3030  -0.080   1.217   3.865 -1.0867  1.4321  1.3938
   41CHL1   C27 3031   0.177   1.027   3.997  0.0950 -0.3393  0.3682
   41CHL1  H27A 3032   0.250   0.952   3.960 -2.8145 -2.4846 -1.4602
   41CHL1  H27B 3033   0.235   1.094   4.064 -0.1824  0.6261 -0.3278
   41CHL1  H27C 3034   0.104   0.971   4.059 -0.6485  2.2179  1.9971
   42CHL1    C3 3035   1.057   5.055   2.745 -0.2138  0.3948 -0.7285
   42CHL1    H3 3036   0.985   5.139   2.751  0.4520  0.8773  1.3984
   42CHL1    O3 3037   1.100   5.029   2.611  0.0571 -0.4976  0.2053
   42CHL1   H3' 3038   1.163   4.957   2.609 -0.4297 -0.9468  0.5931
   42CHL1    C4 3039   1.186   5.097   2.824 -0.0718 -0.4940 -0.4284
   42CHL1   H4A 3040   1.274   5.033   2.800  0.7241  0.5187 -0.2694
   42CHL1   H4B 3041   1.210   5.203   2.800  0.5576 -0.3195  0.8538
   42CHL1    C5 3042   1.167   5.089   2.979 -1.0156  0.1395  0.3006
   42CHL1    C6 3043   1.177   5.199   3.057 -0.0378  0.7502 -0.6899
   42CHL1    H6 3044   1.211   5.291   3.007 -1.3174  0.8467 -1.4352
   42CHL1    C7 3045   1.154   5.212   3.205 -0.0491 -0.8579  0.4590
   42CHL1   H7A 3046   1.238   5.277   3.238 -0.3034 -0.3027  0.0332
   42CHL1   H7B 3047   1.057   5.265   3.220 -0.4387 -1.3027 -0.4215
   42CHL1    C8 3048   1.175   5.068   3.260 -0.0791 -0.5483 -0.0319
   42CHL1    H8 3049   1.281   5.037   3.243  0.0029 -0.1921 -0.1734
   42CHL1   C14 3050   1.127   5.069   3.410 -0.2444  0.1189 -0.5741
   42CHL1   H14 3051   1.017   5.083   3.406 -0.3476 -0.0390  0.9150
   42CHL1   C15 3052   1.202   5.167   3.494  0.1646  0.0711 -0.9912
   42CHL1  H15A 3053   1.311   5.167   3.475  0.5036 -0.0545  0.7750
   42CHL1  H15B 3054   1.169   5.271   3.471  1.7241  0.7856 -0.1561
   42CHL1   C16 3055   1.173   5.123   3.636 -0.4372 -0.8842 -0.4928
   42CHL1  H16A 3056   1.272   5.127   3.686 -1.1682  0.7317  0.9129
   42CHL1  H16B 3057   1.117   5.205   3.686 -1.5849 -3.3792  2.6409
   42CHL1   C17 3058   1.110   4.982   3.630  0.4349  0.0092 -0.1901
   42CHL1   H17 3059   1.000   4.996   3.636  0.5341  0.8400 -0.2031
   42CHL1   C13 3060   1.137   4.932   3.484  0.6184 -0.4173  0.7191
   42CHL1   C18 3061   1.285   4.879   3.489 -0.0130 -0.6524  0.0559
   42CHL1  H18A 3062   1.318   4.856   3.386 -0.2689 -0.3242 -0.0979
   42CHL1  H18B 3063   1.364   4.931   3.547 -1.6004  1.2063  0.6910
   42CHL1  H18C 3064   1.283   4.783   3.546 -1.8802  0.4881  2.0986
   42CHL1   C12 3065   1.038   4.834   3.416  0.7364  0.9933 -0.0877
   42CHL1  H12A 3066   1.042   4.733   3.462  1.3627  1.1596  0.2431
   42CHL1  H12B 3067   0.937   4.876   3.437  0.4685 -0.0865  0.9200
   42CHL1   C11 3068   1.069   4.827   3.264  0.6443 -0.0891  0.4791
   42CHL1  H11A 3069   1.153   4.755   3.249  0.1538 -0.9859  1.8160
   42CHL1  H11B 3070   0.984   4.775   3.215 -0.0922  1.7336 -0.2553
   42CHL1    C9 3071   1.084   4.962   3.189  0.0589  0.2748  0.4137
   42CHL1    H9 3072   0.980   4.998   3.203 -0.0793 -0.0583  0.2435
   42CHL1   C10 3073   1.121   4.955   3.036 -0.3184 -0.4025  0.0619
   42CHL1   C19 3074   1.235   4.846   3.012  0.1129 -0.1953 -0.1722
   42CHL1  H19A 3075   1.194   4.744   3.026 -0.4450  0.0624  0.1171
   42CHL1  H19B 3076   1.281   4.858   2.912 -0.9112  0.6331 -0.5674
   42CHL1  H19C 3077   1.311   4.859   3.091 -0.2741  1.2539 -0.0128
   42CHL1    C1 3078   0.998   4.924   2.947 -0.0675 -0.5151  0.1283
   42CHL1   H1A 3079   0.954   4.830   2.987 -2.0411 -0.2356 -1.2558
   42CHL1   H1B 3080   0.911   4.991   2.966 -0.7196 -1.2000 -0.4170
   42CHL1    C2 3081   1.007   4.917   2.798 -0.4127 -0.3811  0.0141
   42CHL1   H2A 3082   0.905   4.902   2.757 -1.2215  0.4456  1.6276
   42CHL1   H2B 3083   1.087   4.842   2.779  2.1219  2.2413 -0.4493
   42CHL1   C20 3084   1.144   4.890   3.750 -0.7611  0.3612 -0.1468
   42CHL1   H20 3085   1.254   4.878   3.752 -0.8142 -0.0353  0.4519
   42CHL1   C21 3086   1.073   4.754   3.727 -0.0179  0.6553 -0.0958
   42CHL1  H21A 3087   0.965   4.770   3.702 -0.3452 -1.9609 -0.6027
   42CHL1  H21B 3088   1.082   4.703   3.825 -0.6461  0.6583 -0.0320
   42CHL1  H21C 3089   1.129   4.691   3.655 -0.8130 -0.4160  0.2053
   42CHL1   C22 3090   1.100   4.933   3.890 -0.1810  0.8365 -0.1483
   42CHL1  H22A 3091   1.138   5.036   3.910 -2.3970  1.0285  4.4303
   42CHL1  H22B 3092   0.990   4.939   3.905 -0.5970 -2.5649 -1.0095
   42CHL1   C23 3093   1.156   4.858   4.011  0.5514 -0.1592  0.1095
   42CHL1  H23A 3094   1.105   4.760   4.020  1.2836 -0.4519  1.2157
   42CHL1  H23B 3095   1.265   4.850   3.995  0.5590  1.7225 -1.0436
   42CHL1   C24 3096   1.137   4.947   4.134 -0.1211 -0.0874  0.2295
   42CHL1  H24A 3097   1.210   5.031   4.128  0.9346 -0.9627  0.4728
   42CHL1  H24B 3098   1.038   4.994   4.148 -0.5419 -1.2418  1.3943
   42CHL1   C25 3099   1.174   4.885   4.278  0.2362 -0.3830  0.1026
   42CHL1   H25 3100   1.269   4.827   4.273  2.2375  2.7175 -0.3543
   42CHL1   C26 3101   1.178   5.006   4.381 -0.5680 -0.6964 -0.2933
   42CHL1  H26A 3102   1.271   5.066   4.370 -0.5319 -0.1127  2.4932
   42CHL1  H26B 3103   1.092   5.077   4.380 -0.5865 -0.7137 -1.4298
   42CHL1  H26C 3104   1.181   4.971   4.487 -0.3281  0.6428  0.1640
   42CHL1   C27 3105   1.063   4.792   4.326  0.2362  0.4041 -0.3983
   42CHL1  H27A 3106   1.089   4.726   4.411 -1.3192  1.8524  1.2781
   42CHL1  H27B 3107   0.979   4.860   4.352  0.9766  0.3265  2.4878
   42CHL1  H27C 3108   1.037   4.741   4.231  1.8991 -0.1011 -0.6144
   43CHL1    C3 3109   5.377   4.528   3.173 -0.1839 -0.7774  0.5019
   43CHL1    H3 3110   5.460   4.455   3.178  0.4309 -0.2989 -1.5938
   43CHL1    O3 3111   5.327   4.529   3.040  0.7437 -0.1120 -0.4402
   43CHL1   H3' 3112   5.353   4.613   3.001  2.0856 -0.8065 -1.1274
   43CHL1    C4 3113   5.261   4.493   3.260  0.6287  1.0934  0.4030
   43CHL1   H4A 3114   5.168   4.547   3.232 -1.7731 -2.2349  1.4070
   43CHL1   H4B 3115   5.242   4.388   3.230 -0.0020  1.1157  0.7064
   43CHL1    C5 3116   5.273   4.508   3.409 -0.3658  0.1937  0.4757
   43CHL1    C6 3117   5.253   4.405   3.488 -0.7758  0.8130  0.0250
   43CHL1    H6 3118   5.225   4.308   3.445  0.9249 -0.6718  2.0417
   43CHL1    C7 3119   5.268   4.414   3.641  0.4722  0.0001  0.1671
   43CHL1   H7A 3120   5.174   4.383   3.691 -1.6955 -0.3440 -3.7571
   43CHL1   H7B 3121   5.352   4.355   3.683  1.1793  0.7758 -0.1277
   43CHL1    C8 3122   5.285   4.566   3.676  0.1471  0.0980  0.0600
   43CHL1    H8 3123   5.180   4.605   3.676 -0.2784 -1.0232 -0.4832
   43CHL1   C14 3124   5.360   4.572   3.817  0.6793  0.2486 -0.0306
   43CHL1   H14 3125   5.462   4.541   3.787  0.8571  0.8640 -0.0814
   43CHL1   C15 3126   5.312   4.471   3.925  0.3379 -0.3659  0.1551
   43CHL1  H15A 3127   5.203   4.452   3.927  0.5259 -1.4373  0.6116
   43CHL1  H15B 3128   5.346   4.367   3.909 -2.7704 -1.4717  0.1836
   43CHL1   C16 3129   5.358   4.529   4.060  0.8195  0.4465 -0.5272
   43CHL1  H16A 3130   5.262   4.556   4.109 -1.5921 -1.8532 -3.6050
   43CHL1  H16B 3131   5.425   4.469   4.125 -2.6753  0.4849  3.5803
   43CHL1   C17 3132   5.428   4.660   4.021 -0.3249 -0.0582  0.0568
   43CHL1   H17 3133   5.532   4.630   3.997 -0.4282 -0.3697  0.0029
   43CHL1   C13 3134   5.366   4.703   3.885  0.0318 -0.0213 -0.2052
   43CHL1   C18 3135   5.230   4.764   3.917 -0.7370  0.2891  0.3494
   43CHL1  H18A 3136   5.166   4.688   3.967  0.2057 -1.0350 -0.3973
   43CHL1  H18B 3137   5.245   4.846   3.990  0.5156 -1.3396  2.0143
   43CHL1  H18C 3138   5.177   4.793   3.824  1.1964 -1.4720 -1.4006
   43CHL1   C12 3139   5.447   4.796   3.797  0.0877  0.3789  0.0693
   43CHL1  H12A 3140   5.439   4.900   3.834 -1.1657  0.5816 -0.7390
   43CHL1  H12B 3141   5.555   4.769   3.804 -0.0846 -0.9233 -1.6281
   43CHL1   C11 3142   5.408   4.793   3.648  0.1764 -0.5553  0.6765
   43CHL1  H11A 3143   5.319   4.859   3.642 -0.3746 -1.3939 -1.4655
   43CHL1  H11B 3144   5.498   4.836   3.598  0.3092  0.6295  1.8922
   43CHL1    C9 3145   5.377   4.646   3.584 -0.5716 -0.1487 -0.0521
   43CHL1    H9 3146   5.472   4.589   3.575 -1.1940 -1.5633  1.6369
   43CHL1   C10 3147   5.326   4.645   3.442 -0.0008  0.3308 -0.4069
   43CHL1   C19 3148   5.213   4.747   3.419 -0.2799 -0.2519 -0.0718
   43CHL1  H19A 3149   5.151   4.750   3.511 -0.4884  1.1056 -0.2388
   43CHL1  H19B 3150   5.263   4.847   3.416  2.0206 -1.3493 -0.8604
   43CHL1  H19C 3151   5.142   4.738   3.334 -0.4895 -0.6061  0.1374
   43CHL1    C1 3152   5.448   4.692   3.356  0.0311 -0.1750  0.0181
   43CHL1   H1A 3153   5.469   4.800   3.371 -0.0032 -0.1043 -0.4397
   43CHL1   H1B 3154   5.538   4.634   3.386  0.3682  0.4907  0.3153
   43CHL1    C2 3155   5.422   4.676   3.210  1.0676  0.9940  0.5543
   43CHL1   H2A 3156   5.517   4.692   3.155  0.8622 -1.3717 -0.6363
   43CHL1   H2B 3157   5.344   4.752   3.185  0.4021  1.1178  2.7951
   43CHL1   C20 3158   5.443   4.756   4.134  0.3403 -0.0235  0.7781
   43CHL1   H20 3159   5.357   4.823   4.154  0.9056  1.0630 -0.2942
   43CHL1   C21 3160   5.562   4.854   4.107 -0.3470 -0.2813  0.3306
   43CHL1  H21A 3161   5.588   4.904   4.202 -1.0630  2.7651 -0.9539
   43CHL1  H21B 3162   5.536   4.933   4.034  1.4281  1.5086  1.5535
   43CHL1  H21C 3163   5.653   4.794   4.085  0.3716  0.4394  1.2810
   43CHL1   C22 3164   5.476   4.686   4.270 -0.4152 -0.7589  0.6691
   43CHL1  H22A 3165   5.413   4.595   4.285 -0.6262 -0.4994  1.4530
   43CHL1  H22B 3166   5.582   4.654   4.267 -0.5641 -1.2062  0.0320
   43CHL1   C23 3167   5.449   4.783   4.381 -0.4870 -0.8003  0.5382
   43CHL1  H23A 3168   5.517   4.870   4.382  0.1864 -1.2961 -0.3404
   43CHL1  H23B 3169   5.351   4.833   4.363  0.2240  1.0210  1.5449
   43CHL1   C24 3170   5.436   4.701   4.502  0.7582  0.1708  0.4180
   43CHL1  H24A 3171   5.364   4.618   4.488  0.3755  0.0293  2.6948
   43CHL1  H24B 3172   5.535   4.658   4.529  0.2675  0.4150  2.8858
   43CHL1   C25 3173   5.396   4.780   4.628 -0.0405 -0.1154  0.0707
   43CHL1   H25 3174   5.297   4.818   4.591  0.4975  0.9432 -0.3234
   43CHL1   C26 3175   5.372   4.687   4.744 -0.0052 -0.1982  0.2310
   43CHL1  H26A 3176   5.347   4.743   4.837  1.1548 -1.9479  1.6709
   43CHL1  H26B 3177   5.305   4.603   4.715  0.5663 -0.8798  0.8456
   43CHL1  H26C 3178   5.476   4.650   4.754  0.3648  0.8113  0.2972
   43CHL1   C27 3179   5.497   4.895   4.656  0.0117 -0.3017 -0.2998
   43CHL1  H27A 3180   5.459   4.966   4.732  0.1684  0.7751 -1.1972
   43CHL1  H27B 3181   5.592   4.850   4.693 -0.2300 -0.2456  0.4033
   43CHL1  H27C 3182   5.526   4.958   4.569  2.3845 -1.8613 -0.7240
   44CHL1    C3 3183   1.316   6.070   2.886 -0.2471  0.3394 -0.3461
   44CHL1    H3 3184   1.373   6.004   2.956 -1.5644  1.2844  1.7158
   44CHL1    O3 3185   1.358   6.044   2.755 -0.5704  0.2339 -0.4019
   44CHL1   H3' 3186   1.337   5.952   2.741  0.3444 -0.0563  0.0861
   44CHL1    C4 3187   1.167   6.049   2.900 -0.9753 -0.3969  0.1188
   44CHL1   H4A 3188   1.118   6.126   2.835 -0.5488  1.1246  1.5180
   44CHL1   H4B 3189   1.142   5.949   2.861 -1.4854  0.4071 -1.7108
   44CHL1    C5 3190   1.114   6.067   3.041 -0.5670  0.5918  0.1211
   44CHL1    C6 3191   1.060   5.969   3.110 -0.2380  0.5346  0.3164
   44CHL1    H6 3192   1.049   5.865   3.074  2.0969  0.4472 -0.2832
   44CHL1    C7 3193   1.005   5.987   3.248  0.6475  0.0070 -0.2792
   44CHL1   H7A 3194   0.902   5.949   3.266  1.2322 -1.6328 -0.2895
   44CHL1   H7B 3195   1.072   5.937   3.321  0.1275 -1.1031 -0.5354
   44CHL1    C8 3196   0.997   6.138   3.289 -0.6744  0.5000  0.3419
   44CHL1    H8 3197   0.898   6.177   3.256 -0.6717  0.3115  0.1076
   44CHL1   C14 3198   0.992   6.144   3.444 -0.0254  0.6223 -0.0729
   44CHL1   H14 3199   1.091   6.104   3.473 -0.6469 -2.2362 -1.4948
   44CHL1   C15 3200   0.883   6.057   3.511 -0.4872  0.5030  0.3736
   44CHL1  H15A 3201   0.788   6.069   3.456 -1.3837 -0.4422  1.6712
   44CHL1  H15B 3202   0.904   5.948   3.515  2.0708  0.8732 -0.7251
   44CHL1   C16 3203   0.888   6.108   3.655 -0.2071 -0.1721 -0.4626
   44CHL1  H16A 3204   0.782   6.131   3.680 -0.2416 -0.1239 -0.6606
   44CHL1  H16B 3205   0.937   6.035   3.724 -0.3313 -1.5761 -1.8082
   44CHL1   C17 3206   0.964   6.239   3.647 -0.6917 -0.1460  0.7365
   44CHL1   H17 3207   1.070   6.210   3.664 -0.3834 -0.0236 -0.8072
   44CHL1   C13 3208   0.968   6.281   3.499  0.7157  0.1855 -0.3151
   44CHL1   C18 3209   0.829   6.342   3.455  0.0616 -0.0119  0.8792
   44CHL1  H18A 3210   0.812   6.444   3.496 -1.5356  1.0763 -2.1622
   44CHL1  H18B 3211   0.809   6.351   3.346 -1.5461  1.8421  1.2666
   44CHL1  H18C 3212   0.738   6.288   3.489 -1.9082  1.8952 -0.9847
   44CHL1   C12 3213   1.094   6.365   3.457  0.4004  0.4505  0.2514
   44CHL1  H12A 3214   1.063   6.468   3.486 -1.9152  0.3482 -1.5907
   44CHL1  H12B 3215   1.186   6.335   3.512 -0.0024  0.4430  0.9408
   44CHL1   C11 3216   1.109   6.365   3.302 -0.7197  0.6720 -0.8031
   44CHL1  H11A 3217   1.022   6.420   3.260 -0.6877  1.6613  0.3791
   44CHL1  H11B 3218   1.198   6.429   3.291 -0.1508 -0.1704 -1.2223
   44CHL1    C9 3219   1.115   6.223   3.252 -0.5053 -0.1877  0.4274
   44CHL1    H9 3220   1.197   6.164   3.300 -0.8997  0.0200  1.3950
   44CHL1   C10 3221   1.142   6.206   3.100  0.1689 -0.1051 -0.3015
   44CHL1   C19 3222   1.057   6.310   3.026  0.2483  0.0605  0.0391
   44CHL1  H19A 3223   0.949   6.284   3.031  0.2605 -0.0973 -0.4935
   44CHL1  H19B 3224   1.089   6.407   3.068  2.0421 -1.3778  2.2374
   44CHL1  H19C 3225   1.084   6.305   2.918 -0.6559 -1.9211 -0.1338
   44CHL1    C1 3226   1.293   6.225   3.078 -0.1433 -0.1930  0.1889
   44CHL1   H1A 3227   1.312   6.326   3.119 -0.0757  0.2597 -0.9102
   44CHL1   H1B 3228   1.345   6.151   3.142 -1.6272 -1.2045  0.2740
   44CHL1    C2 3229   1.362   6.205   2.939  0.6052 -0.4083 -0.0437
   44CHL1   H2A 3230   1.473   6.217   2.943  0.4973  1.8726 -1.6552
   44CHL1   H2B 3231   1.334   6.291   2.874  2.0343  0.2035  0.0956
   44CHL1   C20 3232   0.928   6.343   3.755 -0.7419 -0.1224  0.5384
   44CHL1   H20 3233   0.843   6.411   3.732 -1.3908 -0.3927  2.0426
   44CHL1   C21 3234   1.054   6.436   3.784 -0.5877 -0.0599 -0.1090
   44CHL1  H21A 3235   1.140   6.380   3.827 -0.1578  0.3365 -0.4324
   44CHL1  H21B 3236   1.030   6.517   3.855  0.3591  0.8538 -0.8074
   44CHL1  H21C 3237   1.098   6.481   3.692  2.2643 -1.1871  0.5892
   44CHL1   C22 3238   0.888   6.280   3.890  0.4880 -0.3653  0.8323
   44CHL1  H22A 3239   0.787   6.240   3.864  1.2509 -1.0284 -1.2634
   44CHL1  H22B 3240   0.957   6.205   3.935  1.3583 -0.4114 -0.5295
   44CHL1   C23 3241   0.863   6.388   4.005 -0.3682  0.6546 -0.4489
   44CHL1  H23A 3242   0.953   6.447   4.032 -0.2329  0.1104  0.3269
   44CHL1  H23B 3243   0.795   6.465   3.961  1.5635  2.9345  0.3579
   44CHL1   C24 3244   0.794   6.333   4.130 -0.5556 -0.5867 -0.5788
   44CHL1  H24A 3245   0.693   6.305   4.095 -1.1802  0.8710 -0.0232
   44CHL1  H24B 3246   0.852   6.243   4.160 -0.5366 -0.3088  0.2449
   44CHL1   C25 3247   0.789   6.433   4.243  0.6608  0.0784  0.9958
   44CHL1   H25 3248   0.893   6.467   4.262  1.7802 -0.4462 -3.1791
   44CHL1   C26 3249   0.699   6.547   4.211  0.0966 -0.1269  0.2597
   44CHL1  H26A 3250   0.682   6.619   4.293 -0.6076  0.0299 -0.0206
   44CHL1  H26B 3251   0.730   6.606   4.122 -1.9537  0.1402 -0.3306
   44CHL1  H26C 3252   0.598   6.508   4.186 -0.2704  0.7907  0.2795
   44CHL1   C27 3253   0.728   6.359   4.362 -0.3283 -0.3693 -0.1574
   44CHL1  H27A 3254   0.785   6.266   4.384  1.4285  0.8276  0.6598
   44CHL1  H27B 3255   0.718   6.412   4.459  1.7293 -1.3520  0.6534
   44CHL1  H27C 3256   0.629   6.318   4.334 -0.1401 -1.7640  1.1048
   45CHL1    C3 3257   3.422   5.939   3.028 -0.8999 -0.1585 -0.3569
   45CHL1    H3 3258   3.530   5.967   3.034 -0.3253 -2.4799  2.1098
   45CHL1    O3 3259   3.390   5.918   2.894 -0.9648  0.0831  0.4292
   45CHL1   H3' 3260   3.295   5.915   2.882 -0.6604  0.9496 -2.9621
   45CHL1    C4 3261   3.421   5.803   3.097  0.2820  0.0910 -0.0896
   45CHL1   H4A 3262   3.317   5.762   3.103  1.3313 -3.0618 -1.3164
   45CHL1   H4B 3263   3.478   5.731   3.033  1.1798 -0.1594  0.9673
   45CHL1    C5 3264   3.464   5.816   3.238 -0.1886  0.0269 -0.4055
   45CHL1    C6 3265   3.557   5.743   3.292 -0.7838 -0.1081  0.8132
   45CHL1    H6 3266   3.613   5.677   3.224 -0.0428  2.7559 -1.5659
   45CHL1    C7 3267   3.593   5.734   3.437 -0.7381 -0.3152  0.5610
   45CHL1   H7A 3268   3.620   5.632   3.471 -1.1300 -1.5868 -2.5589
   45CHL1   H7B 3269   3.683   5.796   3.456 -0.7704  0.1461 -0.6618
   45CHL1    C8 3270   3.488   5.804   3.525  0.1788 -0.2428 -0.0730
   45CHL1    H8 3271   3.403   5.732   3.521  0.6428 -0.7825 -0.5065
   45CHL1   C14 3272   3.540   5.826   3.673  0.2684 -0.1220 -0.3673
   45CHL1   H14 3273   3.624   5.897   3.662  0.3515  0.1562  1.6201
   45CHL1   C15 3274   3.586   5.706   3.752 -0.5329  0.5807  0.1635
   45CHL1  H15A 3275   3.502   5.633   3.757 -0.9835  0.9935 -0.9452
   45CHL1  H15B 3276   3.682   5.662   3.717 -1.0483  0.3666 -1.0233
   45CHL1   C16 3277   3.603   5.764   3.894  0.3659 -1.1816  0.4340
   45CHL1  H16A 3278   3.547   5.710   3.973 -2.5300  0.8631 -0.0639
   45CHL1  H16B 3279   3.703   5.791   3.933 -0.9005  0.7135  2.6032
   45CHL1   C17 3280   3.521   5.897   3.886  0.8144 -0.4299 -0.0737
   45CHL1   H17 3281   3.601   5.972   3.867  1.8793 -1.2478  0.9931
   45CHL1   C13 3282   3.440   5.900   3.762  0.2735 -0.2125 -0.2104
   45CHL1   C18 3283   3.304   5.822   3.787 -0.8024  0.0289  0.5127
   45CHL1  H18A 3284   3.323   5.719   3.824  2.2087 -0.0260 -0.8203
   45CHL1  H18B 3285   3.226   5.873   3.847 -0.7126 -0.2048  0.8356
   45CHL1  H18C 3286   3.255   5.804   3.689 -0.9380  0.9780  0.4056
   45CHL1   C12 3287   3.407   6.043   3.690  0.2061 -0.4383  0.1039
   45CHL1  H12A 3288   3.328   6.098   3.747 -1.1848  1.1412 -3.0904
   45CHL1  H12B 3289   3.504   6.097   3.687 -0.0700  0.0342 -1.9417
   45CHL1   C11 3290   3.360   6.026   3.547  0.3844  0.1453 -0.4922
   45CHL1  H11A 3291   3.256   5.986   3.556  0.8266 -0.7008  1.3125
   45CHL1  H11B 3292   3.358   6.126   3.498  0.8548  0.4324  0.0678
   45CHL1    C9 3293   3.449   5.938   3.461  0.5027 -0.4217 -0.3724
   45CHL1    H9 3294   3.549   5.984   3.453  0.8826 -1.2318 -0.4255
   45CHL1   C10 3295   3.380   5.916   3.321  0.1639 -0.0530  0.4417
   45CHL1   C19 3296   3.244   5.840   3.339  0.5952 -0.6320 -0.1075
   45CHL1  H19A 3297   3.188   5.842   3.243  2.9340  0.2231 -1.5531
   45CHL1  H19B 3298   3.247   5.743   3.393  0.2728  0.4532  1.9616
   45CHL1  H19C 3299   3.177   5.902   3.402  1.1328  1.1099 -1.1589
   45CHL1    C1 3300   3.373   6.055   3.254 -0.0769 -0.1820  0.5779
   45CHL1   H1A 3301   3.297   6.117   3.305  2.0797  2.5139  0.7673
   45CHL1   H1B 3302   3.471   6.104   3.268 -0.1650 -0.5061  2.6270
   45CHL1    C2 3303   3.333   6.036   3.106  0.5526 -0.4432 -0.0626
   45CHL1   H2A 3304   3.331   6.139   3.063  0.1756 -0.5096 -0.2093
   45CHL1   H2B 3305   3.224   6.015   3.114  0.5576 -0.1591  0.8698
   45CHL1   C20 3306   3.455   5.941   4.020 -0.2802 -0.0859 -0.5273
   45CHL1   H20 3307   3.366   5.884   4.055  0.1461 -0.4445 -0.0237
   45CHL1   C21 3308   3.427   6.096   4.014 -0.0714 -0.2253 -0.7176
   45CHL1  H21A 3309   3.519   6.151   3.984  0.6103 -1.7385 -1.5337
   45CHL1  H21B 3310   3.399   6.134   4.114 -0.9851 -0.7973 -0.7434
   45CHL1  H21C 3311   3.342   6.123   3.948 -0.3162  1.5264  0.2578
   45CHL1   C22 3312   3.557   5.922   4.138 -0.1409  0.1315  0.2147
   45CHL1  H22A 3313   3.587   5.815   4.145  1.2462  0.5721  1.9129
   45CHL1  H22B 3314   3.646   5.984   4.120  1.3424 -1.3447  2.0326
   45CHL1   C23 3315   3.514   5.955   4.284  0.4904  0.0764  0.0296
   45CHL1  H23A 3316   3.509   6.066   4.292 -0.3910 -0.0358  1.2544
   45CHL1  H23B 3317   3.413   5.909   4.291 -0.5333  2.0452 -0.9419
   45CHL1   C24 3318   3.614   5.894   4.382 -0.6092 -0.0727 -0.0567
   45CHL1  H24A 3319   3.611   5.784   4.373 -1.7103 -0.1196  0.7009
   45CHL1  H24B 3320   3.713   5.922   4.339 -0.6160  1.1818  0.6894
   45CHL1   C25 3321   3.614   5.944   4.523  0.4737 -0.2191 -0.0908
   45CHL1   H25 3322   3.629   6.054   4.523 -0.0081 -0.0822  2.3744
   45CHL1   C26 3323   3.483   5.900   4.593  0.5457  0.4714 -0.1760
   45CHL1  H26A 3324   3.403   5.972   4.564  1.7035  0.7433 -2.9833
   45CHL1  H26B 3325   3.457   5.797   4.561  2.9458  0.2560 -1.6492
   45CHL1  H26C 3326   3.488   5.898   4.704  0.9970  1.1818 -0.1758
   45CHL1   C27 3327   3.734   5.876   4.591  0.0717 -0.0502 -0.9701
   45CHL1  H27A 3328   3.744   5.912   4.695  2.3959  0.9780 -1.4812
   45CHL1  H27B 3329   3.718   5.766   4.596 -2.0204  0.2633  0.3786
   45CHL1  H27C 3330   3.834   5.906   4.553  0.3154  0.2715 -0.0993
   46CHL1    C3 3331   6.648   5.809   3.041  0.5513 -0.0220  0.4425
   46CHL1    H3 3332   6.720   5.885   3.079  0.7010 -0.0490  0.2155
   46CHL1    O3 3333   6.661   5.787   2.903 -0.1092 -0.7898  0.1068
   46CHL1   H3' 3334   6.574   5.781   2.862  1.1418 -0.6478 -2.8355
   46CHL1    C4 3335   6.664   5.673   3.110 -0.3673  0.3006 -0.6918
   46CHL1   H4A 3336   6.588   5.605   3.067 -0.4231  0.7824 -1.3786
   46CHL1   H4B 3337   6.757   5.617   3.086  1.1132  1.6875  1.3545
   46CHL1    C5 3338   6.649   5.693   3.263 -0.4577  0.3251  0.6933
   46CHL1    C6 3339   6.739   5.657   3.358  0.7606 -0.2175 -0.1483
   46CHL1    H6 3340   6.835   5.610   3.329 -0.0700 -0.6385 -2.3789
   46CHL1    C7 3341   6.720   5.675   3.503 -0.2984 -0.1391  0.1320
   46CHL1   H7A 3342   6.764   5.584   3.548  0.3767  0.4617  0.7177
   46CHL1   H7B 3343   6.776   5.764   3.539 -0.4621  0.1522 -0.3273
   46CHL1    C8 3344   6.575   5.702   3.550 -0.2294 -0.2449  0.7139
   46CHL1    H8 3345   6.529   5.601   3.553 -1.3439  0.2509  1.1450
   46CHL1   C14 3346   6.582   5.766   3.694  0.1974  0.0892 -0.2646
   46CHL1   H14 3347   6.635   5.863   3.686  1.5724 -0.7327 -1.6196
   46CHL1   C15 3348   6.665   5.693   3.800  0.0347 -0.2088 -0.1165
   46CHL1  H15A 3349   6.644   5.584   3.792 -0.7028 -0.0103 -1.0129
   46CHL1  H15B 3350   6.775   5.712   3.791 -0.0977  1.1346  0.7391
   46CHL1   C16 3351   6.613   5.751   3.927  0.0261 -0.0851  0.6383
   46CHL1  H16A 3352   6.597   5.677   4.008  0.3584  1.1098  1.8138
   46CHL1  H16B 3353   6.683   5.825   3.970  2.7439 -1.4464 -1.0846
   46CHL1   C17 3354   6.488   5.839   3.890  0.0271  0.0185  0.2884
   46CHL1   H17 3355   6.526   5.942   3.875  1.6589  0.0554  3.7943
   46CHL1   C13 3356   6.444   5.788   3.748  0.0705  0.1458 -0.3069
   46CHL1   C18 3357   6.357   5.662   3.761 -0.4184  0.0108 -0.3118
   46CHL1  H18A 3358   6.360   5.605   3.666 -1.8983 -1.3528  0.4190
   46CHL1  H18B 3359   6.389   5.594   3.843 -2.3138 -1.7004 -0.9079
   46CHL1  H18C 3360   6.251   5.690   3.781 -0.6134 -2.0421  2.0207
   46CHL1   C12 3361   6.370   5.891   3.656 -0.1890  0.7385 -0.0720
   46CHL1  H12A 3362   6.269   5.906   3.700 -0.8005 -0.8429 -0.8808
   46CHL1  H12B 3363   6.418   5.991   3.663  1.1929  0.0135  1.5979
   46CHL1   C11 3364   6.372   5.834   3.511  0.2241 -0.7194 -0.1847
   46CHL1  H11A 3365   6.312   5.741   3.506 -0.5799 -0.3472  1.8136
   46CHL1  H11B 3366   6.314   5.903   3.445 -0.1241 -2.2608 -1.5503
   46CHL1    C9 3367   6.506   5.796   3.451 -0.4917 -0.0133  0.5176
   46CHL1    H9 3368   6.572   5.884   3.469 -0.5156 -0.2585  1.9020
   46CHL1   C10 3369   6.519   5.750   3.307  0.4849 -0.0717  0.4611
   46CHL1   C19 3370   6.411   5.638   3.292 -0.6579 -0.3776  0.3667
   46CHL1  H19A 3371   6.448   5.543   3.337 -0.0343 -0.3622 -0.1024
   46CHL1  H19B 3372   6.310   5.670   3.327  0.1705  2.3899  0.4221
   46CHL1  H19C 3373   6.388   5.617   3.185  1.0315 -2.4752  0.3366
   46CHL1    C1 3374   6.482   5.874   3.223  0.1153  0.3828 -0.1393
   46CHL1   H1A 3375   6.375   5.904   3.229 -0.5647 -1.7627 -0.8971
   46CHL1   H1B 3376   6.551   5.956   3.254 -0.6620  1.1752 -0.4846
   46CHL1    C2 3377   6.505   5.860   3.072  0.0265 -0.1743  0.4415
   46CHL1   H2A 3378   6.487   5.953   3.015 -0.9436  0.2123  1.3339
   46CHL1   H2B 3379   6.435   5.784   3.033  0.8626  0.1523 -1.8198
   46CHL1   C20 3380   6.392   5.845   4.010  0.2715 -0.1968  0.1042
   46CHL1   H20 3381   6.358   5.740   4.023  0.7263 -0.3383  0.1667
   46CHL1   C21 3382   6.268   5.924   3.979  0.9977 -0.8351  0.0719
   46CHL1  H21A 3383   6.206   5.890   3.894  1.1858  0.3346 -0.5515
   46CHL1  H21B 3384   6.302   6.028   3.959 -2.2870 -0.1856 -2.9658
   46CHL1  H21C 3385   6.194   5.925   4.062  0.7395  2.3853 -0.0675
   46CHL1   C22 3386   6.452   5.899   4.140 -0.3353 -0.3592  0.3479
   46CHL1  H22A 3387   6.380   5.917   4.222  0.5477  0.2307  1.0157
   46CHL1  H22B 3388   6.520   5.821   4.180 -1.1184 -0.6064  1.2337
   46CHL1   C23 3389   6.520   6.039   4.126  0.2322  0.4471 -0.1663
   46CHL1  H23A 3390   6.621   6.038   4.080  0.3167  0.1755  0.0163
   46CHL1  H23B 3391   6.450   6.095   4.061 -1.6281  0.5195  1.7677
   46CHL1   C24 3392   6.532   6.105   4.267 -0.1448  0.6971  0.1262
   46CHL1  H24A 3393   6.427   6.108   4.305  0.3922 -1.2851  1.9419
   46CHL1  H24B 3394   6.592   6.035   4.329 -1.2523  0.4034  0.8999
   46CHL1   C25 3395   6.584   6.249   4.277 -0.8754 -0.1367  0.1269
   46CHL1   H25 3396   6.528   6.300   4.195  2.1101 -0.9071 -2.5696
   46CHL1   C26 3397   6.572   6.317   4.408 -0.4200  0.2962  0.2118
   46CHL1  H26A 3398   6.592   6.427   4.405  0.4315  0.1676  0.8772
   46CHL1  H26B 3399   6.470   6.309   4.451 -1.2084  1.1802 -1.3975
   46CHL1  H26C 3400   6.647   6.288   4.485 -2.2099 -2.2497  1.1076
   46CHL1   C27 3401   6.729   6.256   4.231  0.2058 -0.1098 -0.0545
   46CHL1  H27A 3402   6.742   6.172   4.159  0.1595  0.1673 -0.3915
   46CHL1  H27B 3403   6.752   6.359   4.195 -2.2763  0.8842  0.9780
   46CHL1  H27C 3404   6.793   6.233   4.319  2.7983  2.6484 -1.0474
   47CHL1    C3 3405   3.350   0.435   2.930 -0.0776 -0.2199  0.5040
   47CHL1    H3 3406   3.262   0.462   2.993 -0.2265  0.2769  0.1013
   47CHL1    O3 3407   3.303   0.394   2.799 -0.1821  0.1371 -0.5712
   47CHL1   H3' 3408   3.385   0.393   2.749  0.1105 -1.9665 -0.1276
   47CHL1    C4 3409   3.452   0.550   2.913 -0.3839 -0.0264 -0.6454
   47CHL1   H4A 3410   3.528   0.511   2.843 -0.6765 -3.1337  0.6105
   47CHL1   H4B 3411   3.396   0.635   2.868  1.5102  1.9426  0.5301
   47CHL1    C5 3412   3.520   0.597   3.045 -0.0001 -0.2320 -0.1529
   47CHL1    C6 3413   3.523   0.728   3.075  0.1442 -0.4184 -0.1917
   47CHL1    H6 3414   3.487   0.803   3.003 -0.3902 -0.9186 -0.4534
   47CHL1    C7 3415   3.587   0.787   3.204  0.7780 -0.0052  0.7625
   47CHL1   H7A 3416   3.647   0.877   3.180  0.9641 -0.6093 -1.2258
   47CHL1   H7B 3417   3.495   0.820   3.258 -0.3957 -3.2402  0.9957
   47CHL1    C8 3418   3.671   0.673   3.286  0.0949  0.1497  0.5952
   47CHL1    H8 3419   3.770   0.670   3.234  0.4056  1.0989  1.1130
   47CHL1   C14 3420   3.682   0.715   3.430  0.1939  0.1154  0.3155
   47CHL1   H14 3421   3.578   0.729   3.465  0.5879 -0.4200  1.7542
   47CHL1   C15 3422   3.751   0.851   3.460 -0.3549  0.2400  1.0043
   47CHL1  H15A 3423   3.842   0.869   3.399 -0.0133  0.3822  1.5436
   47CHL1  H15B 3424   3.673   0.929   3.446 -0.6670 -0.1287  0.6967
   47CHL1   C16 3425   3.799   0.847   3.606 -0.4402  0.1654  0.2821
   47CHL1  H16A 3426   3.909   0.859   3.603 -0.7388  3.5308 -1.0570
   47CHL1  H16B 3427   3.743   0.927   3.658 -2.6381 -0.2761 -1.2559
   47CHL1   C17 3428   3.752   0.714   3.657 -0.3255 -0.3613 -0.5207
   47CHL1   H17 3429   3.645   0.732   3.682 -0.3800 -1.1623 -0.1478
   47CHL1   C13 3430   3.748   0.619   3.527 -0.1205  0.1371 -0.1291
   47CHL1   C18 3431   3.897   0.585   3.482 -0.0207 -0.5020 -0.0906
   47CHL1  H18A 3432   3.943   0.516   3.556  0.6883 -0.9926 -0.9597
   47CHL1  H18B 3433   3.898   0.549   3.377 -1.7516 -0.2004 -0.2424
   47CHL1  H18C 3434   3.965   0.672   3.490  0.3096 -0.9586  3.8361
   47CHL1   C12 3435   3.656   0.493   3.525 -0.5294  0.1080  0.3452
   47CHL1  H12A 3436   3.703   0.408   3.579 -2.2576 -1.0200  0.1469
   47CHL1  H12B 3437   3.555   0.502   3.570  0.0157  0.2353  1.5860
   47CHL1   C11 3438   3.644   0.437   3.376 -0.1834 -0.8547 -0.0775
   47CHL1  H11A 3439   3.738   0.387   3.345  0.1887  0.1887 -0.6542
   47CHL1  H11B 3440   3.565   0.359   3.390  1.4488 -2.4814  0.5505
   47CHL1    C9 3441   3.594   0.542   3.277 -0.3375  0.0666  0.3671
   47CHL1    H9 3442   3.495   0.575   3.316  0.2556  0.3552  1.6811
   47CHL1   C10 3443   3.579   0.491   3.136  0.3133  0.4854 -0.0331
   47CHL1   C19 3444   3.720   0.453   3.071  0.0318  1.0879 -0.0808
   47CHL1  H19A 3445   3.787   0.541   3.061 -0.1926  1.3750  0.8018
   47CHL1  H19B 3446   3.777   0.382   3.136 -2.3086 -0.0378  0.8940
   47CHL1  H19C 3447   3.699   0.410   2.971  0.6943 -3.3469  1.4621
   47CHL1    C1 3448   3.481   0.365   3.139 -0.8243  0.6914  0.4311
   47CHL1   H1A 3449   3.521   0.279   3.197  0.3956 -0.1673 -1.6020
   47CHL1   H1B 3450   3.401   0.395   3.210 -1.3715  1.0948 -0.3339
   47CHL1    C2 3451   3.425   0.323   3.004  0.3335  0.1612  0.2649
   47CHL1   H2A 3452   3.350   0.241   3.012  0.9463 -0.4298 -0.0073
   47CHL1   H2B 3453   3.514   0.292   2.946 -0.8626 -1.1923 -0.9302
   47CHL1   C20 3454   3.836   0.684   3.786 -1.0331 -0.1605 -0.0447
   47CHL1   H20 3455   3.941   0.659   3.759 -0.1841 -0.4885  3.1166
   47CHL1   C21 3456   3.777   0.548   3.838  0.9257 -0.1052 -0.1293
   47CHL1  H21A 3457   3.814   0.465   3.775  2.6636 -1.0419  1.9872
   47CHL1  H21B 3458   3.666   0.555   3.841  0.9255  0.2592 -0.7807
   47CHL1  H21C 3459   3.813   0.527   3.941 -1.4529  3.2552  1.5748
   47CHL1   C22 3460   3.831   0.783   3.902  0.3594 -0.1717  0.0998
   47CHL1  H22A 3461   3.839   0.885   3.858 -0.7846 -0.0011  0.2616
   47CHL1  H22B 3462   3.741   0.771   3.965  0.6993 -1.9001  0.3004
   47CHL1   C23 3463   3.947   0.771   4.000  0.0666 -0.7620 -0.1579
   47CHL1  H23A 3464   3.941   0.673   4.052  1.5596 -1.8269 -1.9114
   47CHL1  H23B 3465   4.039   0.766   3.939 -1.2520  0.6820 -2.4053
   47CHL1   C24 3466   3.949   0.884   4.103 -0.1905  0.0028 -0.1179
   47CHL1  H24A 3467   3.947   0.982   4.050 -2.2447  0.1594  0.1394
   47CHL1  H24B 3468   3.862   0.883   4.172 -1.2190 -0.6519 -1.3825
   47CHL1   C25 3469   4.077   0.893   4.195 -0.4136 -0.3839 -0.8693
   47CHL1   H25 3470   4.076   0.805   4.262  0.9491  0.7700  0.7571
   47CHL1   C26 3471   4.210   0.891   4.113 -0.9156  0.1241  0.3438
   47CHL1  H26A 3472   4.214   0.977   4.042 -1.4880 -0.0965  0.0452
   47CHL1  H26B 3473   4.292   0.907   4.187  0.0445 -1.6640 -0.2778
   47CHL1  H26C 3474   4.223   0.795   4.059 -0.3140  0.6065 -0.4025
   47CHL1   C27 3475   4.085   1.019   4.284 -0.2040  0.1610 -0.0213
   47CHL1  H27A 3476   4.160   1.018   4.366 -0.1352  0.5206 -0.0763
   47CHL1  H27B 3477   4.098   1.105   4.215  1.0815  0.1517  0.1922
   47CHL1  H27C 3478   3.981   1.042   4.317 -1.1932 -0.4625 -2.5421
   48CHL1    C3 3479   1.914   6.078   2.790 -0.4151 -0.3095 -0.2683
   48CHL1    H3 3480   1.908   6.189   2.793 -0.8600 -0.3430  2.3256
   48CHL1    O3 3481   1.957   6.033   2.660 -0.5671 -0.2204  0.3093
   48CHL1   H3' 3482   2.051   6.055   2.660 -0.6505  0.1725  1.1182
   48CHL1    C4 3483   2.008   6.033   2.903  0.1796  0.5045 -0.0599
   48CHL1   H4A 3484   2.018   5.923   2.888 -1.5455  0.5725 -2.3059
   48CHL1   H4B 3485   2.097   6.093   2.874 -1.6356  2.0479 -2.9351
   48CHL1    C5 3486   1.959   6.067   3.047  0.4721 -0.1133 -0.5722
   48CHL1    C6 3487   2.047   6.123   3.131  0.3394 -0.1860 -0.2803
   48CHL1    H6 3488   2.151   6.138   3.097  0.8072 -4.0484 -1.0382
   48CHL1    C7 3489   2.001   6.153   3.275 -0.3178 -0.2965 -0.1536
   48CHL1   H7A 3490   2.087   6.127   3.341 -0.0540  0.3680 -0.2193
   48CHL1   H7B 3491   1.997   6.264   3.288  0.8337 -0.2736  0.1491
   48CHL1    C8 3492   1.868   6.086   3.329 -0.2520 -0.8243 -0.1557
   48CHL1    H8 3493   1.889   5.978   3.343 -1.6311 -1.2022 -0.7715
   48CHL1   C14 3494   1.804   6.162   3.449  0.6573 -0.2113 -0.0470
   48CHL1   H14 3495   1.793   6.272   3.437 -1.2664  0.1430  3.6706
   48CHL1   C15 3496   1.900   6.161   3.571 -0.8553 -0.3912  0.7661
   48CHL1  H15A 3497   1.958   6.067   3.575  0.9161  0.6782  1.5685
   48CHL1  H15B 3498   1.980   6.238   3.577  0.1337 -1.4688  2.0656
   48CHL1   C16 3499   1.795   6.180   3.682  0.0277  0.2679 -0.3797
   48CHL1  H16A 3500   1.792   6.092   3.751 -1.2591  0.6246  0.0580
   48CHL1  H16B 3501   1.826   6.263   3.748 -0.6233  0.2765 -0.0706
   48CHL1   C17 3502   1.655   6.183   3.621  0.0169  0.1665 -0.2353
   48CHL1   H17 3503   1.636   6.287   3.588 -1.6479  0.2160  0.7451
   48CHL1   C13 3504   1.672   6.099   3.495  0.3485 -0.0278 -0.1484
   48CHL1   C18 3505   1.699   5.952   3.536  0.4734 -0.2180 -0.4288
   48CHL1  H18A 3506   1.605   5.907   3.573  0.1413 -1.3599 -2.4782
   48CHL1  H18B 3507   1.720   5.894   3.443 -0.4027  1.6230 -1.8441
   48CHL1  H18C 3508   1.787   5.944   3.604  0.3129  2.3033  0.1662
   48CHL1   C12 3509   1.569   6.119   3.381  0.2917 -0.4589 -0.2113
   48CHL1  H12A 3510   1.470   6.082   3.415 -0.8375  1.8469 -0.7675
   48CHL1  H12B 3511   1.560   6.229   3.365  0.5945 -0.2295  1.0977
   48CHL1   C11 3512   1.623   6.049   3.254  0.0962 -0.7797  0.7022
   48CHL1  H11A 3513   1.626   5.940   3.272  2.1880 -0.9852 -0.5977
   48CHL1  H11B 3514   1.552   6.062   3.169 -0.2330  0.6990  1.1577
   48CHL1    C9 3515   1.766   6.106   3.212  0.3233  0.6904 -0.3807
   48CHL1    H9 3516   1.751   6.216   3.206  3.2510  1.1123 -2.1593
   48CHL1   C10 3517   1.811   6.043   3.078  0.3099  0.6386 -0.3993
   48CHL1   C19 3518   1.798   5.883   3.088  0.1710  0.2331  0.6304
   48CHL1  H19A 3519   1.847   5.830   3.004 -0.4562  0.2355  0.2602
   48CHL1  H19B 3520   1.850   5.842   3.177  1.4040 -0.9132 -0.5749
   48CHL1  H19C 3521   1.693   5.846   3.091  0.3600 -0.3146  0.7099
   48CHL1    C1 3522   1.725   6.094   2.963  0.1347 -0.1743  0.1136
   48CHL1   H1A 3523   1.616   6.075   2.969  0.1855 -0.1711  1.5456
   48CHL1   H1B 3524   1.720   6.205   2.966 -2.5857 -0.2194 -0.4577
   48CHL1    C2 3525   1.771   6.042   2.823  0.1900  0.2225  0.7371
   48CHL1   H2A 3526   1.703   6.065   2.738 -0.2925  0.1105  1.0837
   48CHL1   H2B 3527   1.767   5.931   2.827 -0.9273  0.2406  0.5666
   48CHL1   C20 3528   1.547   6.158   3.727  0.0885  0.1770 -0.2271
   48CHL1   H20 3529   1.547   6.052   3.760  3.0432  0.5361  1.2982
   48CHL1   C21 3530   1.408   6.189   3.663  0.0092  0.7963 -0.0612
   48CHL1  H21A 3531   1.330   6.181   3.743  0.2451  0.1044  0.1105
   48CHL1  H21B 3532   1.375   6.104   3.599  0.7803  1.5440 -1.4881
   48CHL1  H21C 3533   1.398   6.285   3.609  0.0117 -0.6087 -2.7081
   48CHL1   C22 3534   1.568   6.244   3.852 -0.1913 -0.2268 -0.1812
   48CHL1  H22A 3535   1.663   6.216   3.902  0.4369 -0.1527 -1.3181
   48CHL1  H22B 3536   1.573   6.343   3.802 -0.7330 -0.2382 -0.2726
   48CHL1   C23 3537   1.453   6.248   3.957  0.2313  0.9322  0.0865
   48CHL1  H23A 3538   1.363   6.289   3.908  0.6376  1.7831  0.0468
   48CHL1  H23B 3539   1.420   6.145   3.983 -0.4774  0.5965 -2.0002
   48CHL1   C24 3540   1.479   6.335   4.076  0.1190 -0.6218  0.5481
   48CHL1  H24A 3541   1.584   6.335   4.113  0.0543 -0.0266  0.7460
   48CHL1  H24B 3542   1.466   6.440   4.042  1.8579 -0.8182 -0.8461
   48CHL1   C25 3543   1.381   6.328   4.193  0.4336 -0.0488 -0.5228
   48CHL1   H25 3544   1.396   6.228   4.240  0.3548 -1.7538 -3.8446
   48CHL1   C26 3545   1.408   6.432   4.297 -0.1897  1.0403  0.0857
   48CHL1  H26A 3546   1.512   6.426   4.336 -0.2106  1.8889  0.2913
   48CHL1  H26B 3547   1.405   6.533   4.251  1.3845  1.0449 -0.0677
   48CHL1  H26C 3548   1.341   6.404   4.381  2.2304 -0.5501  1.6413
   48CHL1   C27 3549   1.244   6.338   4.135  0.5619  0.5703  0.0463
   48CHL1  H27A 3550   1.214   6.247   4.079 -1.9559  1.6980 -0.6006
   48CHL1  H27B 3551   1.183   6.347   4.227  1.4272 -0.6000  0.7568
   48CHL1  H27C 3552   1.231   6.426   4.067  1.2047  1.2133  0.7372
   49CHL1    C3 3553   4.074   5.674   3.393  0.2397  0.8118 -1.0245
   49CHL1    H3 3554   4.025   5.772   3.377  0.2449  0.8905 -0.5877
   49CHL1    O3 3555   4.119   5.623   3.269 -0.3542 -0.0087 -0.6105
   49CHL1   H3' 3556   4.142   5.534   3.294 -2.0653 -0.0495  1.0564
   49CHL1    C4 3557   4.202   5.690   3.485  0.4013  0.1624  0.5017
   49CHL1   H4A 3558   4.259   5.596   3.473  1.5158  0.7905  0.6828
   49CHL1   H4B 3559   4.275   5.762   3.440 -1.1199  0.0727 -2.3517
   49CHL1    C5 3560   4.181   5.708   3.637 -1.0523 -0.0802  0.4347
   49CHL1    C6 3561   4.236   5.807   3.704  0.1740 -0.1479 -0.3409
   49CHL1    H6 3562   4.306   5.874   3.651  1.5641  0.1736  1.8097
   49CHL1    C7 3563   4.226   5.837   3.854  0.6586  0.5320  0.2590
   49CHL1   H7A 3564   4.322   5.879   3.889  1.5789  1.8728 -3.4140
   49CHL1   H7B 3565   4.151   5.918   3.867 -0.1972 -0.1287 -0.3831
   49CHL1    C8 3566   4.162   5.717   3.925  0.6230  0.6168 -0.0560
   49CHL1    H8 3567   4.242   5.640   3.933  1.9579  2.1692  3.3838
   49CHL1   C14 3568   4.112   5.756   4.063 -0.3894  0.6372  0.2539
   49CHL1   H14 3569   4.037   5.836   4.043  2.4584  2.8795 -2.3658
   49CHL1   C15 3570   4.211   5.832   4.146  0.0066  0.1862 -0.5290
   49CHL1  H15A 3571   4.314   5.796   4.126  0.7341  2.0310 -0.3147
   49CHL1  H15B 3572   4.212   5.941   4.125  1.0197  0.1079 -0.9581
   49CHL1   C16 3573   4.160   5.795   4.289  0.0856  0.1293  0.1632
   49CHL1  H16A 3574   4.247   5.739   4.330 -0.2268 -1.4754 -1.2529
   49CHL1  H16B 3575   4.144   5.881   4.357  0.9326  0.5792 -0.1958
   49CHL1   C17 3576   4.040   5.697   4.282 -1.1686  0.4263  0.3480
   49CHL1   H17 3577   3.952   5.764   4.291 -2.0812 -0.5972 -0.6864
   49CHL1   C13 3578   4.048   5.638   4.142  0.4282  0.3204  0.5205
   49CHL1   C18 3579   4.147   5.522   4.151  0.4045  0.4082 -0.0567
   49CHL1  H18A 3580   4.246   5.555   4.190  0.5542 -0.0985  0.0021
   49CHL1  H18B 3581   4.091   5.448   4.211  0.0988  0.2874 -0.4881
   49CHL1  H18C 3582   4.170   5.480   4.050  0.0135  1.0344 -0.4115
   49CHL1   C12 3583   3.918   5.598   4.073  0.0263  0.0395  0.1436
   49CHL1  H12A 3584   3.862   5.512   4.116 -0.4642 -0.5215 -1.5307
   49CHL1  H12B 3585   3.848   5.682   4.091 -0.3917 -0.4562  0.8975
   49CHL1   C11 3586   3.947   5.568   3.923 -0.1203  0.1948  0.3561
   49CHL1  H11A 3587   3.965   5.461   3.901  0.2009  0.1141  0.9951
   49CHL1  H11B 3588   3.846   5.574   3.878 -0.0121 -0.8338 -0.0342
   49CHL1    C9 3589   4.045   5.663   3.844  0.3639  0.1247 -0.6105
   49CHL1    H9 3590   3.984   5.755   3.836  0.6058  0.4072  0.6519
   49CHL1   C10 3591   4.075   5.615   3.700 -0.6473  0.2594  0.2583
   49CHL1   C19 3592   4.140   5.477   3.718  0.1013  0.5377 -0.3885
   49CHL1  H19A 3593   4.228   5.487   3.784 -0.0258 -0.6676 -0.0088
   49CHL1  H19B 3594   4.077   5.395   3.759  1.3874 -0.0379  0.4864
   49CHL1  H19C 3595   4.183   5.430   3.627 -0.6163 -0.5126 -0.2088
   49CHL1    C1 3596   3.951   5.611   3.611  0.4843 -0.0712  0.6616
   49CHL1   H1A 3597   3.880   5.532   3.644  0.4132 -0.0144  0.6452
   49CHL1   H1B 3598   3.889   5.702   3.613  0.4573 -0.0534 -0.6892
   49CHL1    C2 3599   3.974   5.570   3.460 -0.0623 -0.7125  0.0379
   49CHL1   H2A 3600   3.882   5.579   3.399 -0.4884  1.3425  0.8813
   49CHL1   H2B 3601   4.006   5.464   3.467 -1.4679 -1.2222 -0.8583
   49CHL1   C20 3602   4.027   5.609   4.403  0.3925  0.4031  0.3529
   49CHL1   H20 3603   4.099   5.524   4.405  0.2025  0.2144 -0.3645
   49CHL1   C21 3604   3.887   5.545   4.406 -0.2285 -0.2623 -0.1537
   49CHL1  H21A 3605   3.883   5.460   4.477 -1.0946 -0.1418 -0.0533
   49CHL1  H21B 3606   3.849   5.504   4.309 -2.1567 -1.5084  1.0443
   49CHL1  H21C 3607   3.824   5.625   4.449 -0.3254  0.0289 -0.8177
   49CHL1   C22 3608   4.048   5.690   4.535 -0.3166  0.5985 -0.0038
   49CHL1  H22A 3609   4.152   5.731   4.531  0.0514 -0.2765  0.3521
   49CHL1  H22B 3610   3.981   5.778   4.546  0.3456  1.0766  0.3423
   49CHL1   C23 3611   4.047   5.597   4.663  0.1973 -0.3214 -0.1274
   49CHL1  H23A 3612   3.947   5.549   4.672 -0.1276  0.1968 -0.8845
   49CHL1  H23B 3613   4.122   5.517   4.643  3.3110  2.3821 -0.0289
   49CHL1   C24 3614   4.072   5.682   4.792 -0.0066  0.3957  0.2246
   49CHL1  H24A 3615   4.007   5.772   4.784 -1.5322 -0.7994 -2.7787
   49CHL1  H24B 3616   4.046   5.619   4.880  1.1347 -0.2229  0.1411
   49CHL1   C25 3617   4.216   5.725   4.814  0.0035 -0.3386 -0.1779
   49CHL1   H25 3618   4.256   5.782   4.728  1.0632 -0.3438  0.2980
   49CHL1   C26 3619   4.232   5.812   4.945  0.0565  0.1508 -0.0730
   49CHL1  H26A 3620   4.336   5.823   4.983 -0.3350  2.3517  0.5092
   49CHL1  H26B 3621   4.179   5.908   4.928 -1.7068 -0.2345  2.6712
   49CHL1  H26C 3622   4.173   5.757   5.022 -0.8017 -1.2048 -1.6364
   49CHL1   C27 3623   4.309   5.607   4.828  0.1626  0.1753 -0.0559
   49CHL1  H27A 3624   4.279   5.554   4.921 -0.5760  0.3304 -0.1985
   49CHL1  H27B 3625   4.316   5.551   4.732 -0.0453 -0.1108  0.0959
   49CHL1  H27C 3626   4.412   5.644   4.847  0.1276  1.9231 -2.6756
   50CHL1    C3 3627   1.710   1.385   2.826  0.1402 -0.4993 -0.0862
   50CHL1    H3 3628   1.704   1.495   2.840 -3.9231 -0.4031 -1.2044
   50CHL1    O3 3629   1.711   1.359   2.687 -0.3408  0.7902 -0.6977
   50CHL1   H3' 3630   1.687   1.267   2.673  1.6628  0.5255 -3.0929
   50CHL1    C4 3631   1.846   1.344   2.893 -0.1907  0.4699 -0.1633
   50CHL1   H4A 3632   1.846   1.235   2.871  0.0714  0.3753  0.2905
   50CHL1   H4B 3633   1.930   1.395   2.842  0.0199 -2.0912 -2.6413
   50CHL1    C5 3634   1.844   1.370   3.043 -0.0685  0.1227  0.0963
   50CHL1    C6 3635   1.941   1.436   3.109 -0.2185  0.0916 -0.0270
   50CHL1    H6 3636   2.033   1.461   3.052 -0.9860 -2.0949 -2.3962
   50CHL1    C7 3637   1.944   1.445   3.264  0.2212 -0.8513 -0.0406
   50CHL1   H7A 3638   2.041   1.426   3.313  0.6039  1.2462  0.1244
   50CHL1   H7B 3639   1.925   1.547   3.305 -2.4384 -1.4935  0.5259
   50CHL1    C8 3640   1.838   1.356   3.334 -0.5681  0.1363  0.3265
   50CHL1    H8 3641   1.875   1.251   3.335 -0.7931  0.0481 -0.3190
   50CHL1   C14 3642   1.823   1.396   3.479 -0.8954 -0.7054 -0.2856
   50CHL1   H14 3643   1.779   1.498   3.480  1.3332  0.3689  2.2071
   50CHL1   C15 3644   1.944   1.402   3.577  0.3805 -0.6270  0.0852
   50CHL1  H15A 3645   2.003   1.309   3.563 -0.9557 -1.7748  1.7402
   50CHL1  H15B 3646   2.012   1.489   3.566  0.2166 -0.4465  0.4762
   50CHL1   C16 3647   1.890   1.403   3.720  0.0903  0.4846  0.1481
   50CHL1  H16A 3648   1.924   1.308   3.768 -2.4324 -0.2534  0.6230
   50CHL1  H16B 3649   1.898   1.499   3.775 -2.3564  0.8757 -0.0660
   50CHL1   C17 3650   1.737   1.384   3.699  0.3200 -0.1820  0.4858
   50CHL1   H17 3651   1.692   1.485   3.683 -2.2279 -1.5578 -1.8236
   50CHL1   C13 3652   1.720   1.311   3.560  0.5051 -0.3127 -0.8594
   50CHL1   C18 3653   1.754   1.166   3.583 -0.9558  0.0110  1.2790
   50CHL1  H18A 3654   1.763   1.122   3.481  1.3396 -0.4242  1.6017
   50CHL1  H18B 3655   1.849   1.147   3.637  0.6310 -0.5131 -1.4894
   50CHL1  H18C 3656   1.680   1.109   3.643 -0.2298 -0.9280  1.3173
   50CHL1   C12 3657   1.583   1.327   3.484  1.0542 -0.0801 -0.4379
   50CHL1  H12A 3658   1.503   1.264   3.528  0.7443  0.9218  0.5084
   50CHL1  H12B 3659   1.561   1.436   3.483  2.3000  0.1924 -1.2452
   50CHL1   C11 3660   1.599   1.289   3.334 -0.3712 -0.2292 -0.5813
   50CHL1  H11A 3661   1.619   1.179   3.333 -0.7139 -0.3123  0.4472
   50CHL1  H11B 3662   1.499   1.300   3.288 -0.0256  0.6189 -1.1349
   50CHL1    C9 3663   1.706   1.366   3.263 -0.0892  0.9332 -0.5458
   50CHL1    H9 3664   1.690   1.476   3.257  0.7716  1.1439  0.6782
   50CHL1   C10 3665   1.718   1.313   3.116  0.0635 -0.4164 -1.4698
   50CHL1   C19 3666   1.719   1.160   3.102  0.1463  0.4092  0.2563
   50CHL1  H19A 3667   1.630   1.104   3.137  0.3220 -0.8030 -1.1408
   50CHL1  H19B 3668   1.744   1.121   3.001  2.2020 -1.4466  1.4143
   50CHL1  H19C 3669   1.796   1.120   3.171 -0.0489  0.9350  0.7935
   50CHL1    C1 3670   1.585   1.350   3.039  0.1623  0.1078 -0.2744
   50CHL1   H1A 3671   1.498   1.290   3.073 -0.7771  0.8340 -1.3155
   50CHL1   H1B 3672   1.549   1.454   3.056  1.9738  0.8164 -0.5135
   50CHL1    C2 3673   1.588   1.313   2.886 -0.0246 -0.4562 -0.1725
   50CHL1   H2A 3674   1.500   1.363   2.841  0.3044  0.2189 -0.0831
   50CHL1   H2B 3675   1.568   1.206   2.866 -2.2939  0.0288 -0.6791
   50CHL1   C20 3676   1.668   1.330   3.831 -0.4953  0.3291 -0.1363
   50CHL1   H20 3677   1.704   1.227   3.852  0.5116  1.1466  2.5924
   50CHL1   C21 3678   1.517   1.318   3.799 -0.0665  0.6352 -0.6314
   50CHL1  H21A 3679   1.480   1.403   3.739 -1.6098 -0.3655 -1.1747
   50CHL1  H21B 3680   1.449   1.308   3.887  0.1674  1.2380 -0.3820
   50CHL1  H21C 3681   1.493   1.219   3.754  1.1537 -0.9606  1.9406
   50CHL1   C22 3682   1.700   1.417   3.952 -0.1893 -0.4534 -0.4666
   50CHL1  H22A 3683   1.809   1.435   3.966  0.0757 -1.1789 -1.4788
   50CHL1  H22B 3684   1.664   1.520   3.931 -1.2702 -1.0759 -1.7792
   50CHL1   C23 3685   1.644   1.375   4.093 -0.1951  0.0839  0.1978
   50CHL1  H23A 3686   1.534   1.379   4.072 -0.4225 -1.9142  0.7740
   50CHL1  H23B 3687   1.668   1.267   4.107  0.2658  0.0505 -0.7297
   50CHL1   C24 3688   1.696   1.443   4.219  0.1170  0.8393  0.4318
   50CHL1  H24A 3689   1.802   1.413   4.221 -0.5827 -1.9593  3.0559
   50CHL1  H24B 3690   1.677   1.552   4.218 -1.8635  0.5475  0.2647
   50CHL1   C25 3691   1.645   1.413   4.367  0.0285 -0.1500  0.4341
   50CHL1   H25 3692   1.692   1.493   4.427 -0.2287 -1.4533  2.4953
   50CHL1   C26 3693   1.497   1.429   4.373  0.2608  0.1141 -1.0200
   50CHL1  H26A 3694   1.446   1.352   4.311 -1.3992  2.4972 -2.8357
   50CHL1  H26B 3695   1.457   1.419   4.476 -1.5987 -0.9285 -1.8048
   50CHL1  H26C 3696   1.462   1.528   4.336 -1.0914  0.8438  1.9824
   50CHL1   C27 3697   1.705   1.282   4.413 -0.2056  0.0756  0.2383
   50CHL1  H27A 3698   1.678   1.248   4.515 -1.3603 -0.1354 -0.1184
   50CHL1  H27B 3699   1.659   1.208   4.343  0.9309  0.6706 -1.1935
   50CHL1  H27C 3700   1.816   1.280   4.411 -0.0833  3.1638 -1.7732
   51CHL1    C3 3701   4.589   5.619   3.624 -0.2094 -0.1984 -0.4054
   51CHL1    H3 3702   4.513   5.699   3.612  0.6118  0.6726  0.0754
   51CHL1    O3 3703   4.610   5.566   3.493  0.3791  0.2423 -0.1059
   51CHL1   H3' 3704   4.702   5.542   3.498  0.4245  0.5722  0.7098
   51CHL1    C4 3705   4.718   5.690   3.666  0.6447  0.4059  0.3097
   51CHL1   H4A 3706   4.800   5.616   3.656 -0.7538 -1.0577 -0.8077
   51CHL1   H4B 3707   4.734   5.772   3.592 -1.5951 -0.9155 -1.7875
   51CHL1    C5 3708   4.704   5.735   3.809 -0.6852  0.0139 -0.2355
   51CHL1    C6 3709   4.732   5.862   3.836  0.8508  0.4815 -0.0596
   51CHL1    H6 3710   4.765   5.924   3.751  2.2718 -1.3108 -0.8665
   51CHL1    C7 3711   4.719   5.925   3.967  0.3590  0.5519  0.6914
   51CHL1   H7A 3712   4.800   5.999   3.985  0.5803  0.0727  1.7790
   51CHL1   H7B 3713   4.628   5.988   3.980 -0.2116 -0.4779  1.9028
   51CHL1    C8 3714   4.728   5.820   4.078 -0.9421  0.0142 -0.0220
   51CHL1    H8 3715   4.835   5.789   4.078 -1.0272 -0.3274 -1.0102
   51CHL1   C14 3716   4.679   5.891   4.205 -0.1699  0.9045  0.4829
   51CHL1   H14 3717   4.570   5.907   4.185 -0.5515  1.0182  2.4396
   51CHL1   C15 3718   4.738   6.026   4.246  0.6197  0.1112 -0.0574
   51CHL1  H15A 3719   4.849   6.022   4.241  0.5749  0.3291 -2.1785
   51CHL1  H15B 3720   4.698   6.104   4.177 -3.3748 -2.3566 -0.8956
   51CHL1   C16 3721   4.693   6.039   4.392 -0.0567 -0.0559  0.2275
   51CHL1  H16A 3722   4.783   6.064   4.452  0.0400  1.0401 -0.3443
   51CHL1  H16B 3723   4.628   6.129   4.398  1.6938  1.3604 -1.1388
   51CHL1   C17 3724   4.620   5.904   4.432 -0.2217  0.0802  0.0551
   51CHL1   H17 3725   4.511   5.918   4.417 -0.8539 -2.4754  1.5892
   51CHL1   C13 3726   4.679   5.801   4.332  0.5441  0.8866 -0.2861
   51CHL1   C18 3727   4.822   5.777   4.378  0.7212  0.3637 -0.6882
   51CHL1  H18A 3728   4.874   5.720   4.297  1.1682  1.7037 -1.3852
   51CHL1  H18B 3729   4.877   5.871   4.396 -0.8860  1.0296  1.0728
   51CHL1  H18C 3730   4.833   5.706   4.462  1.0942  3.6415  2.2440
   51CHL1   C12 3731   4.585   5.681   4.297  0.1387 -0.0405  0.2128
   51CHL1  H12A 3732   4.572   5.607   4.379 -1.0679  0.8417  0.8552
   51CHL1  H12B 3733   4.489   5.735   4.282  1.1804  1.8755  0.0862
   51CHL1   C11 3734   4.632   5.605   4.178 -0.4760  0.1839  0.1563
   51CHL1  H11A 3735   4.730   5.553   4.189  0.2909  1.5462  0.0982
   51CHL1  H11B 3736   4.558   5.529   4.147 -0.8986 -0.1260  1.8470
   51CHL1    C9 3737   4.636   5.695   4.052 -0.4263 -0.2234 -0.2697
   51CHL1    H9 3738   4.537   5.744   4.045 -0.4529 -0.4170 -1.3994
   51CHL1   C10 3739   4.653   5.631   3.911 -0.4138 -0.5973  0.1355
   51CHL1   C19 3740   4.769   5.529   3.926 -0.5588 -0.1865 -0.0761
   51CHL1  H19A 3741   4.736   5.445   3.992  1.5794 -3.3171 -2.7028
   51CHL1  H19B 3742   4.794   5.471   3.835  1.8007  0.6011  0.0245
   51CHL1  H19C 3743   4.865   5.571   3.961 -1.1768  0.3739  1.0364
   51CHL1    C1 3744   4.526   5.563   3.862 -0.1983  0.0310  0.8988
   51CHL1   H1A 3745   4.506   5.478   3.930 -1.4851 -1.5379 -1.3278
   51CHL1   H1B 3746   4.446   5.640   3.865 -0.4263 -0.0922 -0.8167
   51CHL1    C2 3747   4.545   5.509   3.720  0.3895  1.2529 -0.1156
   51CHL1   H2A 3748   4.444   5.478   3.684  1.2132 -1.8947  0.0018
   51CHL1   H2B 3749   4.619   5.426   3.722 -1.1409 -0.1841 -0.6697
   51CHL1   C20 3750   4.653   5.882   4.588 -0.6682 -0.4692  0.4982
   51CHL1   H20 3751   4.763   5.882   4.608 -0.3474  0.3519 -1.1357
   51CHL1   C21 3752   4.597   5.749   4.641 -0.1294  0.6784 -0.2846
   51CHL1  H21A 3753   4.615   5.724   4.748  0.1642  0.8321 -0.2971
   51CHL1  H21B 3754   4.646   5.673   4.576 -0.0924 -1.0407  1.6356
   51CHL1  H21C 3755   4.488   5.745   4.624 -0.0070 -0.8354 -0.8234
   51CHL1   C22 3756   4.595   6.004   4.679 -0.4287  0.9472 -0.6783
   51CHL1  H22A 3757   4.640   6.099   4.642  1.0069  0.7670  0.5401
   51CHL1  H22B 3758   4.484   6.005   4.681 -0.5911 -0.0158 -3.5967
   51CHL1   C23 3759   4.651   5.992   4.823 -0.6796  0.1105  0.1758
   51CHL1  H23A 3760   4.617   5.905   4.883 -0.5500 -0.1967 -0.1949
   51CHL1  H23B 3761   4.759   5.973   4.807 -0.5948  0.5285  0.2466
   51CHL1   C24 3762   4.607   6.119   4.904 -0.0664  0.4736 -0.2837
   51CHL1  H24A 3763   4.652   6.199   4.843 -0.8309  0.2373 -1.1752
   51CHL1  H24B 3764   4.499   6.132   4.928  0.4742  2.7341  1.2679
   51CHL1   C25 3765   4.670   6.121   5.050 -1.1512 -0.0986  0.4798
   51CHL1   H25 3766   4.777   6.093   5.044 -1.0056  0.4968  0.1183
   51CHL1   C26 3767   4.684   6.270   5.105 -0.0161 -0.1552 -0.0999
   51CHL1  H26A 3768   4.586   6.314   5.134 -2.2977 -2.3210 -3.6904
   51CHL1  H26B 3769   4.755   6.268   5.190 -0.8526 -0.6858  0.6137
   51CHL1  H26C 3770   4.737   6.324   5.024  1.0294 -1.2488 -0.1735
   51CHL1   C27 3771   4.610   6.024   5.148 -0.4854 -0.5107 -0.1518
   51CHL1  H27A 3772   4.628   6.050   5.255  2.2616  1.1721 -0.9371
   51CHL1  H27B 3773   4.500   6.022   5.134 -0.4344  0.7834 -0.8040
   51CHL1  H27C 3774   4.654   5.923   5.131  1.8314  0.4052 -0.0157
   52CHL1    C3 3775   0.157   2.210   2.735  0.0716  0.4657  1.0074
   52CHL1    H3 3776   0.065   2.148   2.728  1.2534 -1.2371 -0.2979
   52CHL1    O3 3777   0.202   2.218   2.606  0.1246  0.5981  0.5801
   52CHL1   H3' 3778   0.296   2.204   2.616  0.0234 -0.8230 -0.1329
   52CHL1    C4 3779   0.127   2.354   2.784  0.1709  0.0411  0.4008
   52CHL1   H4A 3780   0.216   2.419   2.776 -0.3239  0.6249 -0.4557
   52CHL1   H4B 3781   0.050   2.369   2.706  1.4030 -4.6989 -2.1390
   52CHL1    C5 3782   0.081   2.356   2.928 -0.0591 -0.4266  0.5234
   52CHL1    C6 3783  -0.028   2.421   2.961 -0.2928  0.0767  0.2288
   52CHL1    H6 3784  -0.075   2.476   2.878  4.2979  0.5173 -2.3848
   52CHL1    C7 3785  -0.072   2.433   3.108  0.8023  0.0083  0.0509
   52CHL1   H7A 3786  -0.100   2.539   3.129 -1.2395 -0.5416  0.3504
   52CHL1   H7B 3787  -0.157   2.368   3.137  0.4790  1.6301  3.2005
   52CHL1    C8 3788   0.035   2.399   3.212 -0.3008 -0.1249  0.3531
   52CHL1    H8 3789   0.106   2.484   3.216 -1.5211  0.8672  1.9561
   52CHL1   C14 3790  -0.022   2.385   3.350 -0.1242 -0.2123  0.8623
   52CHL1   H14 3791  -0.090   2.297   3.342  0.4228 -0.5193 -0.7636
   52CHL1   C15 3792  -0.108   2.506   3.399 -0.8620 -0.0976 -0.2853
   52CHL1  H15A 3793  -0.058   2.604   3.382 -0.2584 -0.7504 -2.5811
   52CHL1  H15B 3794  -0.200   2.497   3.338 -0.0365  0.4416 -1.6587
   52CHL1   C16 3795  -0.120   2.475   3.555  0.9589 -0.3067 -0.0016
   52CHL1  H16A 3796  -0.096   2.570   3.608 -1.3475  1.1499 -1.3696
   52CHL1  H16B 3797  -0.222   2.454   3.593  0.8825  0.1236  0.0433
   52CHL1   C17 3798  -0.030   2.351   3.584  0.3008  0.2559  0.1059
   52CHL1   H17 3799  -0.093   2.260   3.577  0.7687 -0.0551 -0.0573
   52CHL1   C13 3800   0.070   2.348   3.462 -0.4979  0.2177  0.2024
   52CHL1   C18 3801   0.175   2.455   3.472 -0.5342 -0.3561 -1.0804
   52CHL1  H18A 3802   0.247   2.469   3.389  0.2204  0.7625 -0.2628
   52CHL1  H18B 3803   0.129   2.554   3.492  1.4897  0.2204  1.3581
   52CHL1  H18C 3804   0.254   2.439   3.549  1.4187  0.6499 -2.7869
   52CHL1   C12 3805   0.127   2.212   3.425  0.1682 -0.1468 -0.0098
   52CHL1  H12A 3806   0.212   2.186   3.491 -0.2806  0.2347  0.7268
   52CHL1  H12B 3807   0.056   2.126   3.420  2.7186 -2.3529 -0.5423
   52CHL1   C11 3808   0.188   2.217   3.286  0.3293  0.1094  0.2298
   52CHL1  H11A 3809   0.284   2.273   3.298  1.4453 -1.3279 -1.4056
   52CHL1  H11B 3810   0.241   2.120   3.269  1.3969  0.5410  0.9191
   52CHL1    C9 3811   0.097   2.263   3.170 -0.0369  0.5800 -0.7656
   52CHL1    H9 3812   0.012   2.192   3.161 -0.9053  1.3862  0.6885
   52CHL1   C10 3813   0.170   2.275   3.027 -0.1165  0.9478 -0.0688
   52CHL1   C19 3814   0.305   2.343   3.047 -0.8408 -0.4573 -0.6902
   52CHL1  H19A 3815   0.305   2.425   3.122 -1.1834  1.0781 -2.2992
   52CHL1  H19B 3816   0.380   2.266   3.075  1.1454  0.8682 -2.1255
   52CHL1  H19C 3817   0.336   2.394   2.953 -0.8506 -0.1097 -0.5068
   52CHL1    C1 3818   0.190   2.129   2.975 -0.1436  0.7983  0.4257
   52CHL1   H1A 3819   0.255   2.060   3.033  0.8031  1.9865  0.8049
   52CHL1   H1B 3820   0.089   2.081   2.973  0.2583 -0.0817  0.8504
   52CHL1    C2 3821   0.250   2.129   2.831 -0.6937 -0.4098  0.8298
   52CHL1   H2A 3822   0.268   2.024   2.798 -0.8179 -0.7115  1.7057
   52CHL1   H2B 3823   0.348   2.181   2.830 -1.2412  0.7259  2.5516
   52CHL1   C20 3824   0.019   2.350   3.733 -0.2396 -0.2710  0.2061
   52CHL1   H20 3825   0.081   2.440   3.754 -2.0756  1.9311 -2.9020
   52CHL1   C21 3826   0.094   2.228   3.756 -0.0502 -0.7151  0.0330
   52CHL1  H21A 3827   0.201   2.221   3.727 -0.6569 -2.4810 -2.0200
   52CHL1  H21B 3828   0.052   2.151   3.689 -3.7185 -1.0995  2.4830
   52CHL1  H21C 3829   0.091   2.180   3.856 -0.0784 -1.1245 -0.1620
   52CHL1   C22 3830  -0.105   2.362   3.825 -0.3810 -0.0023  0.0742
   52CHL1  H22A 3831  -0.160   2.455   3.800  2.8219  1.6933 -1.3123
   52CHL1  H22B 3832  -0.167   2.274   3.798 -1.0330  0.1960  0.8742
   52CHL1   C23 3833  -0.092   2.355   3.976 -0.2292 -0.0881  0.2180
   52CHL1  H23A 3834  -0.195   2.345   4.017 -0.5330 -0.7563 -0.6626
   52CHL1  H23B 3835  -0.037   2.264   4.010 -1.9663 -0.9669  0.7959
   52CHL1   C24 3836  -0.029   2.478   4.044  0.2657 -0.2815 -0.3825
   52CHL1  H24A 3837   0.041   2.537   3.981  0.2542  0.9778  0.7336
   52CHL1  H24B 3838  -0.109   2.555   4.056 -0.5103 -0.8779 -1.5634
   52CHL1   C25 3839   0.048   2.453   4.182  0.9937  0.2442 -0.4716
   52CHL1   H25 3840   0.112   2.365   4.159 -0.1012 -1.1260  1.4822
   52CHL1   C26 3841   0.150   2.559   4.215  0.4487 -0.2408  0.1780
   52CHL1  H26A 3842   0.203   2.543   4.312  0.8748  0.3973  0.0534
   52CHL1  H26B 3843   0.207   2.571   4.121 -1.2525  1.8740 -0.6535
   52CHL1  H26C 3844   0.097   2.655   4.234 -0.6477 -0.9387  0.7911
   52CHL1   C27 3845  -0.051   2.414   4.293 -0.1187 -0.0668  0.1322
   52CHL1  H27A 3846  -0.127   2.492   4.315 -0.0081 -0.3397  1.5810
   52CHL1  H27B 3847  -0.104   2.323   4.259 -2.1546  0.7686  0.9356
   52CHL1  H27C 3848   0.008   2.386   4.382 -1.0760 -0.4795  0.6457
   53CHL1    C3 3849   5.042   6.607   3.390  0.1481 -0.0093  0.1198
   53CHL1    H3 3850   4.977   6.522   3.420 -0.2228  0.6105  1.1115
   53CHL1    O3 3851   5.044   6.612   3.253  0.3483 -0.8778  0.8001
   53CHL1   H3' 3852   4.971   6.664   3.219  0.5307 -0.2597  1.3410
   53CHL1    C4 3853   4.989   6.748   3.432 -0.0302  0.4544 -0.0900
   53CHL1   H4A 3854   5.060   6.825   3.394 -1.5578  1.3132 -1.2984
   53CHL1   H4B 3855   4.889   6.754   3.384 -0.1868 -2.9128 -0.4202
   53CHL1    C5 3856   4.990   6.769   3.585 -0.9021  0.5652 -0.4017
   53CHL1    C6 3857   4.877   6.788   3.657  0.2797  0.1620  0.6506
   53CHL1    H6 3858   4.782   6.814   3.608  0.2046 -2.1341 -0.5757
   53CHL1    C7 3859   4.872   6.799   3.813 -0.0228  0.9228 -0.4922
   53CHL1   H7A 3860   4.822   6.890   3.853  0.5433  0.0448  2.4659
   53CHL1   H7B 3861   4.829   6.702   3.845 -0.6000  1.5379  0.6436
   53CHL1    C8 3862   5.011   6.795   3.879  0.1007 -0.4203 -0.3716
   53CHL1    H8 3863   5.051   6.896   3.856 -2.5443  0.3577 -2.0124
   53CHL1   C14 3864   5.000   6.778   4.031  0.7640  0.2088  0.5423
   53CHL1   H14 3865   4.971   6.672   4.047 -1.7246  0.6618 -0.5455
   53CHL1   C15 3866   4.913   6.875   4.113 -0.1116 -0.1305  0.0579
   53CHL1  H15A 3867   4.956   6.976   4.091 -0.5524 -0.3822 -2.2688
   53CHL1  H15B 3868   4.803   6.874   4.094  0.2598  2.3741 -3.2890
   53CHL1   C16 3869   4.954   6.853   4.258  0.1999  0.0206  0.5549
   53CHL1  H16A 3870   4.969   6.948   4.314 -0.3552  0.1126  0.5519
   53CHL1  H16B 3871   4.883   6.788   4.314 -0.9474  0.6730 -0.1093
   53CHL1   C17 3872   5.088   6.769   4.247  0.4741  0.1203 -0.9377
   53CHL1   H17 3873   5.046   6.668   4.267 -1.1178  1.1229  1.2142
   53CHL1   C13 3874   5.135   6.784   4.101  0.6777  0.2987 -0.0972
   53CHL1   C18 3875   5.221   6.920   4.087  0.2012  0.4565 -0.6991
   53CHL1  H18A 3876   5.160   7.004   4.127 -0.1536 -0.0749 -0.0849
   53CHL1  H18B 3877   5.311   6.897   4.147 -1.3412 -3.1669  0.5158
   53CHL1  H18C 3878   5.253   6.938   3.982  3.1993 -2.1927 -0.3784
   53CHL1   C12 3879   5.220   6.669   4.043  0.0551 -0.3945 -0.3144
   53CHL1  H12A 3880   5.322   6.671   4.086 -0.1654  3.1556  0.3536
   53CHL1  H12B 3881   5.167   6.578   4.075 -1.9686  0.9634  0.3931
   53CHL1   C11 3882   5.235   6.673   3.891 -0.0691  0.0468  0.2981
   53CHL1  H11A 3883   5.306   6.756   3.869 -0.9974  0.4679 -1.3175
   53CHL1  H11B 3884   5.282   6.580   3.854 -1.9531  0.1593 -2.7469
   53CHL1    C9 3885   5.097   6.691   3.809  0.1881 -0.2790 -0.5301
   53CHL1    H9 3886   5.044   6.594   3.826 -0.5856  0.4588  1.4758
   53CHL1   C10 3887   5.118   6.720   3.657  0.0221 -0.6264  0.5666
   53CHL1   C19 3888   5.214   6.847   3.651 -0.0646 -0.4206  0.3408
   53CHL1  H19A 3889   5.220   6.868   3.542  0.3619  1.7374  0.7339
   53CHL1  H19B 3890   5.162   6.927   3.708 -2.5974 -1.5609 -0.2660
   53CHL1  H19C 3891   5.316   6.818   3.686 -0.1566 -0.1694  0.8223
   53CHL1    C1 3892   5.170   6.594   3.590 -0.5065  0.1384 -0.1114
   53CHL1   H1A 3893   5.270   6.569   3.631  1.1192 -0.2818 -3.9543
   53CHL1   H1B 3894   5.103   6.514   3.627 -1.7398  0.8711 -0.6905
   53CHL1    C2 3895   5.181   6.588   3.439  0.2132  0.2550  0.0404
   53CHL1   H2A 3896   5.233   6.502   3.391 -4.1834 -1.3344 -2.4515
   53CHL1   H2B 3897   5.233   6.675   3.392 -0.7904  1.4234  1.0192
   53CHL1   C20 3898   5.189   6.798   4.362  1.2455 -0.7846 -0.0036
   53CHL1   H20 3899   5.232   6.899   4.341 -0.6003  0.2580  0.9942
   53CHL1   C21 3900   5.310   6.688   4.368 -0.3673 -0.6878  0.3011
   53CHL1  H21A 3901   5.299   6.609   4.291  2.1689  1.4440 -2.5030
   53CHL1  H21B 3902   5.310   6.640   4.468 -0.7433 -1.1641  0.0757
   53CHL1  H21C 3903   5.403   6.748   4.363 -0.9215  0.1434 -0.5437
   53CHL1   C22 3904   5.115   6.800   4.498  0.2626  0.0729 -0.0458
   53CHL1  H22A 3905   5.031   6.873   4.497 -0.8863 -1.0583 -3.5119
   53CHL1  H22B 3906   5.058   6.704   4.503 -1.6038  0.9745 -2.0536
   53CHL1   C23 3907   5.210   6.833   4.616  0.2995 -0.2107  0.4769
   53CHL1  H23A 3908   5.135   6.828   4.698  0.1662  0.2061  0.3827
   53CHL1  H23B 3909   5.292   6.760   4.638  1.2304  0.0668 -1.8061
   53CHL1   C24 3910   5.265   6.978   4.616 -0.3465  0.0594  0.2050
   53CHL1  H24A 3911   5.352   6.987   4.548  0.3014 -1.8061  0.7055
   53CHL1  H24B 3912   5.178   7.040   4.585  0.3144  1.1619  0.4975
   53CHL1   C25 3913   5.309   7.028   4.758  0.2773  0.2401 -0.4221
   53CHL1   H25 3914   5.394   6.967   4.797 -0.1742  0.6688  1.3032
   53CHL1   C26 3915   5.364   7.166   4.744 -0.0810 -0.9262 -0.3620
   53CHL1  H26A 3916   5.280   7.228   4.704 -1.2975 -3.8414 -2.7051
   53CHL1  H26B 3917   5.383   7.213   4.842 -1.5298  2.6831 -1.6418
   53CHL1  H26C 3918   5.454   7.164   4.679 -0.7741 -1.2127 -1.3459
   53CHL1   C27 3919   5.186   7.018   4.857 -0.4149 -0.1393  0.2331
   53CHL1  H27A 3920   5.219   7.061   4.954  0.4128  2.4256 -1.0910
   53CHL1  H27B 3921   5.106   7.072   4.802  1.4793  1.7102 -0.8291
   53CHL1  H27C 3922   5.149   6.915   4.878 -0.9096  0.4251  2.4008
   54CHL1    C3 3923   4.327   4.987   3.345  0.3534  0.1586  0.2409
   54CHL1    H3 3924   4.234   5.048   3.340  0.8281  1.1801  2.5380
   54CHL1    O3 3925   4.426   5.016   3.246 -0.1158  0.1558 -0.2252
   54CHL1   H3' 3926   4.444   5.108   3.266  0.3927  0.4247 -1.7888
   54CHL1    C4 3927   4.380   5.039   3.485  0.0283  0.0883  0.2471
   54CHL1   H4A 3928   4.475   4.982   3.498  1.1313  1.9688  0.8187
   54CHL1   H4B 3929   4.417   5.143   3.474 -0.7486  0.3125 -0.2968
   54CHL1    C5 3930   4.286   5.020   3.601 -0.1746 -0.0473 -0.4267
   54CHL1    C6 3931   4.249   5.116   3.684  0.5099 -0.4593 -0.2452
   54CHL1    H6 3932   4.285   5.216   3.654 -0.9537 -0.2021 -1.2235
   54CHL1    C7 3933   4.161   5.095   3.809 -0.4213 -0.3392 -0.2438
   54CHL1   H7A 3934   4.201   5.140   3.902 -1.1668  2.0472 -1.0080
   54CHL1   H7B 3935   4.069   5.157   3.796  0.0522  0.5433  0.5070
   54CHL1    C8 3936   4.131   4.947   3.838 -0.6107 -1.5542 -0.6499
   54CHL1    H8 3937   4.223   4.922   3.895 -0.9849  0.8415  1.1379
   54CHL1   C14 3938   4.008   4.935   3.919  0.3216 -0.4253  0.2780
   54CHL1   H14 3939   3.927   4.970   3.851  0.9799 -1.5112 -1.1358
   54CHL1   C15 3940   3.994   5.025   4.043  0.1257  1.1267  0.8780
   54CHL1  H15A 3941   4.095   5.016   4.090  0.7079 -0.5233 -0.5716
   54CHL1  H15B 3942   3.983   5.132   4.018  0.1931  0.7973 -0.6268
   54CHL1   C16 3943   3.879   4.961   4.122  0.3617 -0.0949 -0.2414
   54CHL1  H16A 3944   3.927   4.942   4.221 -0.9430  1.0545  0.6497
   54CHL1  H16B 3945   3.793   5.032   4.125 -0.1501 -0.6988 -0.4315
   54CHL1   C17 3946   3.851   4.822   4.054 -0.1578 -0.1074  0.1183
   54CHL1   H17 3947   3.763   4.836   3.987  1.0808  0.1720 -1.5241
   54CHL1   C13 3948   3.974   4.792   3.962  0.8078  0.0483 -0.5685
   54CHL1   C18 3949   4.091   4.732   4.045 -0.2536  0.3591 -0.2096
   54CHL1  H18A 3950   4.083   4.624   4.070 -1.2985  0.6344  0.7173
   54CHL1  H18B 3951   4.183   4.749   3.985  0.2951  0.2993  0.5938
   54CHL1  H18C 3952   4.096   4.786   4.142 -0.6704 -2.5944  1.5679
   54CHL1   C12 3953   3.952   4.716   3.835  0.7314 -0.2800 -0.0890
   54CHL1  H12A 3954   3.930   4.609   3.854 -0.6201 -0.1598 -0.8725
   54CHL1  H12B 3955   3.861   4.741   3.777  1.7016  1.8328 -0.8101
   54CHL1   C11 3956   4.079   4.721   3.745  0.7273  0.5205  0.2321
   54CHL1  H11A 3957   4.154   4.660   3.798 -0.8517 -2.5452 -0.8120
   54CHL1  H11B 3958   4.053   4.666   3.652  0.2246 -2.7160  2.1317
   54CHL1    C9 3959   4.114   4.868   3.709 -0.6352 -0.2953 -0.3584
   54CHL1    H9 3960   4.032   4.918   3.655 -0.0244 -0.1416 -1.1540
   54CHL1   C10 3961   4.230   4.877   3.609  0.6701  0.3388 -0.1370
   54CHL1   C19 3962   4.354   4.793   3.666  0.2604 -0.3952 -0.2663
   54CHL1  H19A 3963   4.441   4.800   3.597 -0.9403 -2.2447 -2.1065
   54CHL1  H19B 3964   4.392   4.838   3.760 -0.7484  0.7157 -0.3582
   54CHL1  H19C 3965   4.333   4.685   3.675  0.9427 -0.5685 -0.6871
   54CHL1    C1 3966   4.179   4.821   3.470  0.0506 -0.2188  0.3853
   54CHL1   H1A 3967   4.156   4.713   3.476 -0.1455 -0.2362 -0.4897
   54CHL1   H1B 3968   4.080   4.865   3.445 -1.9291 -3.5361  1.7789
   54CHL1    C2 3969   4.278   4.842   3.347 -0.4841  0.1223 -0.2856
   54CHL1   H2A 3970   4.207   4.818   3.265 -2.4662 -0.4723  1.5094
   54CHL1   H2B 3971   4.355   4.762   3.344 -0.0543  0.5546 -1.0594
   54CHL1   C20 3972   3.807   4.708   4.146  0.3486 -0.5660  0.2100
   54CHL1   H20 3973   3.894   4.668   4.202 -0.1947  0.4157  1.8250
   54CHL1   C21 3974   3.743   4.592   4.063  0.0059  0.6264 -0.0242
   54CHL1  H21A 3975   3.818   4.532   4.007  0.5010  0.6628  0.5866
   54CHL1  H21B 3976   3.670   4.632   3.989  1.7722  0.4129 -1.9906
   54CHL1  H21C 3977   3.697   4.516   4.129 -1.6128 -0.7959 -2.6196
   54CHL1   C22 3978   3.705   4.742   4.259 -0.4511 -0.5903  0.3196
   54CHL1  H22A 3979   3.670   4.651   4.311 -2.0189 -0.2523 -0.0852
   54CHL1  H22B 3980   3.760   4.798   4.338  0.7493 -1.6182  0.2366
   54CHL1   C23 3981   3.579   4.825   4.212 -0.3125 -0.0348  0.1742
   54CHL1  H23A 3982   3.605   4.926   4.175 -0.4000 -0.1034 -0.0775
   54CHL1  H23B 3983   3.527   4.767   4.132  0.8214 -0.8985  0.0413
   54CHL1   C24 3984   3.475   4.824   4.330 -0.1959 -0.8512 -0.4347
   54CHL1  H24A 3985   3.457   4.718   4.356 -1.1190 -0.3252  1.2991
   54CHL1  H24B 3986   3.522   4.870   4.419  1.9508  0.2545 -2.0455
   54CHL1   C25 3987   3.336   4.877   4.299  0.1924 -0.4144 -0.0244
   54CHL1   H25 3988   3.275   4.876   4.392  1.0621  1.0101  0.6000
   54CHL1   C26 3989   3.344   5.025   4.261 -0.1999 -0.0928  0.2245
   54CHL1  H26A 3990   3.379   5.087   4.346 -1.2287 -0.1999  0.7439
   54CHL1  H26B 3991   3.412   5.045   4.175  0.9070 -0.7582  0.9181
   54CHL1  H26C 3992   3.247   5.075   4.244 -0.2049 -0.0906  0.2602
   54CHL1   C27 3993   3.263   4.788   4.195  0.0556  0.1326 -0.8196
   54CHL1  H27A 3994   3.232   4.689   4.235 -0.0551 -0.8192 -3.1275
   54CHL1  H27B 3995   3.167   4.841   4.176 -0.1035  0.6463  1.1836
   54CHL1  H27C 3996   3.329   4.786   4.106  1.0699  0.5448 -0.1042
   55CHL1    C3 3997   6.455   1.426   2.581  0.3879 -0.0195  0.1717
   55CHL1    H3 3998   6.355   1.411   2.535  0.9071  0.0883 -1.0469
   55CHL1    O3 3999   6.543   1.426   2.473  0.3855  0.1225 -0.0499
   55CHL1   H3' 4000   6.520   1.347   2.423 -0.0552  1.0626 -1.3740
   55CHL1    C4 4001   6.459   1.557   2.656 -0.2237 -0.1147 -0.0870
   55CHL1   H4A 4002   6.563   1.582   2.686 -0.7985  1.0970  1.0052
   55CHL1   H4B 4003   6.417   1.635   2.589  0.6368  1.3509  1.0074
   55CHL1    C5 4004   6.372   1.551   2.782 -0.2444 -0.2586 -0.0347
   55CHL1    C6 4005   6.267   1.632   2.795  0.3681 -0.9322  0.4522
   55CHL1    H6 4006   6.235   1.697   2.712 -1.0103 -2.9783 -0.6819
   55CHL1    C7 4007   6.183   1.643   2.921 -0.0926  0.0117 -0.2805
   55CHL1   H7A 4008   6.169   1.748   2.953 -0.2127 -0.5877  1.7932
   55CHL1   H7B 4009   6.077   1.611   2.917 -0.8550  2.0921  1.1171
   55CHL1    C8 4010   6.260   1.568   3.034  0.5034 -0.2264 -0.4145
   55CHL1    H8 4011   6.354   1.621   3.061  0.4254 -0.0964 -0.3980
   55CHL1   C14 4012   6.170   1.565   3.162 -0.4998 -0.0006 -0.0307
   55CHL1   H14 4013   6.083   1.502   3.132 -1.1741  1.1425 -0.5391
   55CHL1   C15 4014   6.107   1.695   3.222  0.5595  1.2042 -1.0397
   55CHL1  H15A 4015   6.171   1.786   3.221 -0.1839  1.8578  1.9373
   55CHL1  H15B 4016   6.009   1.718   3.174 -0.0569  2.1035  0.5649
   55CHL1   C16 4017   6.075   1.653   3.373 -0.2543  0.1232 -0.6051
   55CHL1  H16A 4018   6.126   1.714   3.451 -0.1143 -1.2772  0.4559
   55CHL1  H16B 4019   5.966   1.668   3.389 -0.5515  0.4826 -2.7128
   55CHL1   C17 4020   6.117   1.508   3.391 -0.2225 -0.0191  0.3367
   55CHL1   H17 4021   6.032   1.443   3.363  0.0478  0.3188 -1.3609
   55CHL1   C13 4022   6.233   1.495   3.282  0.0147  0.2159  0.3828
   55CHL1   C18 4023   6.354   1.576   3.333 -0.0239  0.3283 -0.1726
   55CHL1  H18A 4024   6.331   1.675   3.379  3.2299  0.7113  0.9061
   55CHL1  H18B 4025   6.396   1.528   3.424 -1.0058 -1.7405 -0.7444
   55CHL1  H18C 4026   6.431   1.596   3.256  0.5232  0.5425  0.4160
   55CHL1   C12 4027   6.279   1.355   3.238  0.5746  0.2906 -0.0785
   55CHL1  H12A 4028   6.333   1.299   3.318  1.0542  0.3928 -0.3256
   55CHL1  H12B 4029   6.193   1.290   3.214  0.9010  0.1995 -1.0231
   55CHL1   C11 4030   6.364   1.360   3.115  0.5276 -0.2804  0.6054
   55CHL1  H11A 4031   6.456   1.414   3.147 -0.1279  0.2953  1.5320
   55CHL1  H11B 4032   6.398   1.261   3.078 -0.9668 -0.9257  0.8973
   55CHL1    C9 4033   6.305   1.428   2.991 -0.5193 -0.3667  0.9083
   55CHL1    H9 4034   6.218   1.370   2.953  0.7469 -1.4694 -0.4764
   55CHL1   C10 4035   6.408   1.440   2.879 -1.0573 -0.1650  0.1621
   55CHL1   C19 4036   6.558   1.467   2.926 -0.4464  0.1313 -0.4352
   55CHL1  H19A 4037   6.565   1.569   2.969  2.2565 -0.5138  0.8493
   55CHL1  H19B 4038   6.597   1.399   3.004  0.3236  0.0975 -0.8351
   55CHL1  H19C 4039   6.632   1.470   2.843 -0.0184 -0.9875 -0.1031
   55CHL1    C1 4040   6.428   1.305   2.801  0.4722 -0.4490 -0.1859
   55CHL1   H1A 4041   6.486   1.237   2.867  0.4902  1.8564  2.3704
   55CHL1   H1B 4042   6.331   1.252   2.788 -0.1609  0.9596 -1.5581
   55CHL1    C2 4043   6.499   1.304   2.666  0.2731 -0.0332 -0.4905
   55CHL1   H2A 4044   6.484   1.214   2.602  0.8248  0.2104 -0.9685
   55CHL1   H2B 4045   6.604   1.334   2.685 -0.2323  0.7905  1.2532
   55CHL1   C20 4046   6.138   1.481   3.542 -0.8607  0.6792 -0.1267
   55CHL1   H20 4047   6.197   1.567   3.582  0.0128 -0.7266  1.7863
   55CHL1   C21 4048   6.208   1.349   3.575  0.0531  0.0818 -0.0633
   55CHL1  H21A 4049   6.213   1.313   3.680 -2.4481  1.9710  0.7963
   55CHL1  H21B 4050   6.313   1.350   3.539  0.1062 -0.3713  0.0645
   55CHL1  H21C 4051   6.149   1.272   3.519  0.5880  0.2054 -0.8151
   55CHL1   C22 4052   6.003   1.495   3.616 -0.0473 -0.4103  0.4064
   55CHL1  H22A 4053   5.966   1.598   3.598 -0.3594 -0.2684  1.7376
   55CHL1  H22B 4054   5.932   1.416   3.583  0.1016 -0.3594 -0.0410
   55CHL1   C23 4055   6.020   1.470   3.768 -0.6004  0.1996 -0.4912
   55CHL1  H23A 4056   5.921   1.504   3.804 -0.6246 -0.2881 -0.0847
   55CHL1  H23B 4057   6.034   1.363   3.795  0.9552  0.8046  1.2723
   55CHL1   C24 4058   6.119   1.570   3.826 -0.0107 -0.6684 -0.0263
   55CHL1  H24A 4059   6.222   1.533   3.806  0.0941  0.6029 -2.1032
   55CHL1  H24B 4060   6.117   1.664   3.767 -0.9134  0.1559  1.2558
   55CHL1   C25 4061   6.103   1.606   3.976  0.7688 -0.1616  0.3033
   55CHL1   H25 4062   6.080   1.513   4.032 -1.4097 -0.0532 -0.3109
   55CHL1   C26 4063   6.223   1.698   4.027  0.3216 -0.1843  0.0738
   55CHL1  H26A 4064   6.196   1.729   4.130 -2.5383 -1.1161 -0.3082
   55CHL1  H26B 4065   6.320   1.644   4.020  0.5136  0.2097 -0.3631
   55CHL1  H26C 4066   6.246   1.787   3.965  0.6889  1.2975  2.2206
   55CHL1   C27 4067   5.971   1.693   3.988  0.3974  0.6310 -0.0522
   55CHL1  H27A 4068   5.876   1.654   3.944  0.4763 -0.9534  1.1168
   55CHL1  H27B 4069   5.964   1.703   4.098 -1.0293 -2.0341  0.1756
   55CHL1  H27C 4070   5.982   1.796   3.948 -1.4053  0.8070 -0.1879
   56CHL1    C3 4071   1.557   0.833   2.832  0.3745 -0.3654  0.4969
   56CHL1    H3 4072   1.597   0.936   2.831 -2.4795  0.8398  0.7220
   56CHL1    O3 4073   1.579   0.771   2.711 -0.3098 -0.0988  0.2234
   56CHL1   H3' 4074   1.641   0.824   2.661 -0.5072 -1.9627 -2.2071
   56CHL1    C4 4075   1.631   0.756   2.940  0.0142  0.1192 -0.3506
   56CHL1   H4A 4076   1.609   0.647   2.931 -1.3018 -0.0968  3.6116
   56CHL1   H4B 4077   1.737   0.768   2.909  0.2142  0.6227  0.5068
   56CHL1    C5 4078   1.590   0.793   3.085  0.3805 -0.0556  0.1868
   56CHL1    C6 4079   1.684   0.792   3.181 -0.1470 -1.1722 -0.1647
   56CHL1    H6 4080   1.783   0.750   3.156 -0.2413 -0.8850 -1.0662
   56CHL1    C7 4081   1.657   0.820   3.322  0.5185  0.5949 -0.0055
   56CHL1   H7A 4082   1.726   0.762   3.387  1.1592  1.1445 -0.1798
   56CHL1   H7B 4083   1.680   0.927   3.342  3.3781 -0.3332  2.2877
   56CHL1    C8 4084   1.501   0.797   3.360 -0.1216  0.1014 -0.0910
   56CHL1    H8 4085   1.480   0.688   3.355 -0.1126  0.0430  0.9671
   56CHL1   C14 4086   1.471   0.843   3.502  0.2203  0.0811 -0.0238
   56CHL1   H14 4087   1.502   0.949   3.505  0.5947 -0.0478  1.3334
   56CHL1   C15 4088   1.549   0.775   3.614 -0.4339 -0.3986 -0.0397
   56CHL1  H15A 4089   1.533   0.666   3.605  0.1662 -0.4812 -0.1161
   56CHL1  H15B 4090   1.656   0.806   3.615 -0.5393  0.2438 -2.4704
   56CHL1   C16 4091   1.475   0.824   3.743 -0.4333 -0.3829  0.4420
   56CHL1  H16A 4092   1.458   0.735   3.807  1.8885 -0.2442  1.3323
   56CHL1  H16B 4093   1.522   0.899   3.810  3.2882 -0.2860 -1.9967
   56CHL1   C17 4094   1.335   0.874   3.690 -0.7880  0.0551  0.1854
   56CHL1   H17 4095   1.347   0.985   3.688  0.3529  0.1681  4.2908
   56CHL1   C13 4096   1.325   0.831   3.543 -0.0538  0.0528  0.1694
   56CHL1   C18 4097   1.273   0.686   3.541 -0.1309 -0.4427  0.4862
   56CHL1  H18A 4098   1.163   0.683   3.529 -0.0632 -1.2105 -0.0180
   56CHL1  H18B 4099   1.321   0.620   3.466  1.4718  0.6976  0.4495
   56CHL1  H18C 4100   1.294   0.642   3.640 -2.1714  0.3626  1.3289
   56CHL1   C12 4101   1.245   0.923   3.443  0.4968 -0.0597  0.1944
   56CHL1  H12A 4102   1.138   0.937   3.472  0.9989  3.1952  0.9103
   56CHL1  H12B 4103   1.278   1.028   3.458 -0.0455  0.0921  0.3499
   56CHL1   C11 4104   1.266   0.883   3.301 -0.0300  0.8215 -0.0681
   56CHL1  H11A 4105   1.213   0.788   3.278  1.9093 -0.2261 -0.3749
   56CHL1  H11B 4106   1.221   0.957   3.232  0.8354  1.5969  0.1890
   56CHL1    C9 4107   1.414   0.867   3.260 -0.6680 -0.0828 -0.8205
   56CHL1    H9 4108   1.450   0.972   3.252  0.6588 -0.1725  2.3286
   56CHL1   C10 4109   1.444   0.821   3.110 -0.2318  0.6095 -0.1502
   56CHL1   C19 4110   1.373   0.679   3.101 -0.0204 -0.1266  0.1831
   56CHL1  H19A 4111   1.263   0.694   3.097  0.0548  1.6183  2.3265
   56CHL1  H19B 4112   1.397   0.618   3.012 -1.0772 -0.4602  0.1213
   56CHL1  H19C 4113   1.400   0.618   3.190 -2.1251 -0.2020  0.8108
   56CHL1    C1 4114   1.379   0.907   2.994  0.3079  0.5375 -0.2734
   56CHL1   H1A 4115   1.268   0.905   3.003  0.0262  1.7861 -2.5637
   56CHL1   H1B 4116   1.412   1.012   3.008  1.5074  0.0797  0.4911
   56CHL1    C2 4117   1.406   0.850   2.855  0.2610 -0.3935  0.3183
   56CHL1   H2A 4118   1.372   0.912   2.770  0.3518 -1.7030 -0.7014
   56CHL1   H2B 4119   1.351   0.755   2.840  0.2643 -0.6994  1.9733
   56CHL1   C20 4120   1.223   0.835   3.786  0.3332  0.1810  0.6376
   56CHL1   H20 4121   1.201   0.727   3.776  1.4538  0.0552 -0.8975
   56CHL1   C21 4122   1.087   0.901   3.743 -0.3363 -0.9176  0.6529
   56CHL1  H21A 4123   1.014   0.873   3.822  0.0552 -1.3371  0.8757
   56CHL1  H21B 4124   1.046   0.856   3.650 -2.0822 -3.3297  2.4729
   56CHL1  H21C 4125   1.091   1.012   3.738 -1.3183 -0.8276  1.5421
   56CHL1   C22 4126   1.252   0.859   3.938  0.5344 -0.5809  0.1452
   56CHL1  H22A 4127   1.150   0.854   3.982  0.3103 -3.2968 -0.4557
   56CHL1  H22B 4128   1.314   0.781   3.987 -2.0398 -2.3938  0.7266
   56CHL1   C23 4129   1.292   0.996   3.977 -0.1039 -0.0817  0.4242
   56CHL1  H23A 4130   1.394   1.007   3.935 -0.0677  1.5722  0.8774
   56CHL1  H23B 4131   1.225   1.071   3.930  1.1146  1.0866  0.4669
   56CHL1   C24 4132   1.321   1.020   4.130  0.9497 -0.1196  0.3329
   56CHL1  H24A 4133   1.356   0.920   4.164 -0.0684 -1.2421 -1.7350
   56CHL1  H24B 4134   1.404   1.093   4.144  0.7215  0.4511 -1.1573
   56CHL1   C25 4135   1.210   1.068   4.221  0.0277  0.4831  0.3438
   56CHL1   H25 4136   1.125   1.000   4.197  0.1228  0.5155 -0.0976
   56CHL1   C26 4137   1.234   1.043   4.365  0.0658  0.8234 -0.0420
   56CHL1  H26A 4138   1.322   1.105   4.392  0.1068  1.8204 -2.2358
   56CHL1  H26B 4139   1.159   1.094   4.429 -0.8513  1.1592 -1.3546
   56CHL1  H26C 4140   1.272   0.944   4.400  0.2528  1.5766  2.0337
   56CHL1   C27 4141   1.141   1.204   4.198  0.6019  0.0358 -0.7604
   56CHL1  H27A 4142   1.143   1.226   4.089  2.6846 -0.4883 -0.8698
   56CHL1  H27B 4143   1.036   1.206   4.236  0.6568 -1.1135 -0.5138
   56CHL1  H27C 4144   1.197   1.281   4.256  0.6277  0.5667 -1.4766
   57SAPC     N 4145   3.833   3.125   6.897 -0.9907 -0.0600  0.6233
   57SAPC   C12 4146   3.800   3.064   6.764 -0.5829  0.0882  0.9846
   57SAPC  H12A 4147   3.880   2.997   6.735 -1.0445  0.2700 -0.8366
   57SAPC  H12B 4148   3.797   3.140   6.687 -2.6041  0.0767  1.0121
   57SAPC   C13 4149   3.816   3.023   7.005  0.0068 -0.5599  0.5296
   57SAPC  H13A 4150   3.873   3.055   7.091 -1.1992  0.0975  1.1110
   57SAPC  H13B 4151   3.714   3.036   7.041  0.4062 -0.3948  1.6397
   57SAPC  H13C 4152   3.844   2.925   6.971  1.0247  0.4266 -1.6532
   57SAPC   C14 4153   3.980   3.157   6.883 -0.5121  0.0632  0.4323
   57SAPC  H14A 4154   4.014   3.192   6.980 -2.2540 -1.1530  1.5480
   57SAPC  H14B 4155   4.037   3.066   6.876 -1.1315 -0.3063  0.0881
   57SAPC  H14C 4156   3.996   3.224   6.800  0.6182  1.7374  1.9175
   57SAPC   C15 4157   3.756   3.250   6.935  0.1503  0.1521 -0.1620
   57SAPC  H15A 4158   3.759   3.315   6.849 -1.7412  2.6090  1.4900
   57SAPC  H15B 4159   3.656   3.225   6.968 -0.4814  1.4455 -1.0124
   57SAPC  H15C 4160   3.809   3.297   7.016  1.5913 -3.2127  1.0271
   57SAPC   C11 4161   3.661   2.993   6.759  0.4803 -0.2371 -0.3645
   57SAPC  H11A 4162   3.581   3.056   6.803 -0.8103 -0.8257 -1.7848
   57SAPC  H11B 4163   3.671   2.909   6.831 -0.2481 -0.9007 -1.0090
   57SAPC     P 4164   3.634   2.807   6.582 -0.3807  0.4301  0.0620
   57SAPC   O13 4165   3.775   2.767   6.560  0.6398 -0.0132  0.0394
   57SAPC   O14 4166   3.543   2.725   6.670  0.4289 -0.0796 -0.0487
   57SAPC   O12 4167   3.634   2.958   6.625 -0.0102 -0.0893 -0.3599
   57SAPC   O11 4168   3.566   2.823   6.435 -0.0950  0.9874  0.6115
   57SAPC    C1 4169   3.607   2.933   6.351 -0.4550  0.1206 -0.1703
   57SAPC    HA 4170   3.526   3.009   6.345 -1.9309 -1.3957  0.1425
   57SAPC    HB 4171   3.695   2.991   6.388  1.5117 -1.5006 -2.0300
   57SAPC    C2 4172   3.662   2.891   6.214  0.3612 -0.4014  0.9095
   57SAPC    HS 4173   3.583   2.849   6.148  1.6660  0.3874 -1.2766
   57SAPC   O21 4174   3.772   2.803   6.223 -0.1904  1.1306 -0.2555
   57SAPC   C21 4175   3.743   2.674   6.240 -0.2818  0.0893 -1.1663
   57SAPC   O22 4176   3.634   2.619   6.233  0.0510 -0.1433 -0.5989
   57SAPC   C22 4177   3.869   2.603   6.292  0.5191 -0.2865  0.2356
   57SAPC   H2R 4178   3.891   2.647   6.391  0.5657 -1.9146  0.9871
   57SAPC   H2S 4179   3.834   2.498   6.303 -1.6299  0.4339  0.7880
   57SAPC    C3 4180   3.711   3.012   6.134  0.1487 -0.9003  0.4936
   57SAPC    HX 4181   3.793   3.067   6.184 -1.5155  2.0946  0.1776
   57SAPC    HY 4182   3.622   3.077   6.145  0.9918  0.3324  0.1886
   57SAPC   O31 4183   3.737   2.995   5.993  0.3072  0.1273 -0.0315
   57SAPC   C31 4184   3.863   2.965   5.951  0.4708 -0.0875 -0.0173
   57SAPC   O32 4185   3.964   2.958   6.018  0.3909  0.0168 -0.3808
   57SAPC   C32 4186   3.864   2.933   5.800 -0.5137 -0.0586 -0.7396
   57SAPC   H2X 4187   3.853   3.021   5.733 -0.4683 -0.5342 -1.3779
   57SAPC   H2Y 4188   3.780   2.869   5.766 -0.3899  0.1154 -1.3716
   57SAPC   C23 4189   3.989   2.618   6.192 -0.2345 -0.1525  0.0079
   57SAPC   H3R 4190   4.085   2.585   6.237  0.1849  0.7716 -0.1934
   57SAPC   H3S 4191   4.010   2.724   6.170 -0.6309  0.1200  0.9010
   57SAPC   C24 4192   3.957   2.538   6.066  0.0520 -0.7829  0.7393
   57SAPC   H4R 4193   4.043   2.541   5.996 -1.2946  0.1573 -0.9551
   57SAPC   H4S 4194   3.863   2.573   6.017  0.2698 -0.7539  0.3339
   57SAPC   C25 4195   3.939   2.393   6.101  0.6252 -0.0804  0.4200
   57SAPC   H5R 4196   4.023   2.343   6.151  1.3477  0.3191 -0.3781
   57SAPC   C26 4197   3.832   2.316   6.066  0.1285 -0.2802 -0.2027
   57SAPC   H6R 4198   3.836   2.210   6.095 -0.1859 -0.4003 -0.5886
   57SAPC   C27 4199   3.714   2.351   5.974 -0.8445  0.2094  0.2064
   57SAPC   H7R 4200   3.714   2.296   5.878  2.0597  2.2959 -1.1275
   57SAPC   H7S 4201   3.726   2.458   5.949  0.1129 -0.0108 -0.3209
   57SAPC   C28 4202   3.587   2.328   6.048  0.4832 -0.4921  0.7480
   57SAPC   H8R 4203   3.594   2.315   6.157  2.0646 -0.5789  0.6560
   57SAPC   C29 4204   3.463   2.326   5.984  0.4275  0.0209  1.0601
   57SAPC   H9R 4205   3.372   2.307   6.042 -0.1886  0.2952  0.2050
   57SAPC  C210 4206   3.431   2.346   5.840 -0.2798 -0.8537  0.0696
   57SAPC  H10R 4207   3.515   2.323   5.770 -0.8917 -0.2924 -0.8748
   57SAPC  H10S 4208   3.399   2.452   5.828  2.6175 -0.1125 -2.2791
   57SAPC  C211 4209   3.326   2.253   5.786 -0.3303 -0.6054  0.0131
   57SAPC  H11R 4210   3.321   2.162   5.848  1.7450 -0.7693  0.0055
   57SAPC  C212 4211   3.251   2.262   5.679  0.8209 -0.7011  0.2484
   57SAPC  H12R 4212   3.181   2.181   5.652  0.7880 -0.9209  0.9580
   57SAPC  C213 4213   3.274   2.365   5.570  0.0090 -0.2137 -0.0443
   57SAPC  H13R 4214   3.301   2.460   5.622 -1.7275  0.4578 -0.2732
   57SAPC  H13S 4215   3.175   2.388   5.524  0.6040 -2.9598 -2.9976
   57SAPC  C214 4216   3.386   2.336   5.477 -0.9129 -0.9158  0.1984
   57SAPC  H14R 4217   3.477   2.293   5.521 -1.5900 -1.3129  1.2584
   57SAPC  C215 4218   3.382   2.349   5.340 -0.2977 -0.5981 -0.3996
   57SAPC  H15R 4219   3.476   2.345   5.282  0.0408 -1.5042  0.1901
   57SAPC  C216 4220   3.261   2.405   5.258  0.3687  0.1463 -0.1333
   57SAPC  H16R 4221   3.295   2.494   5.201  1.4364 -1.1971 -1.7205
   57SAPC  H16S 4222   3.181   2.444   5.325 -1.1236 -0.1811 -1.6239
   57SAPC  C217 4223   3.194   2.330   5.146 -0.0616  0.6021 -0.2640
   57SAPC  H17R 4224   3.123   2.398   5.095 -1.5554  0.4974  1.5782
   57SAPC  H17S 4225   3.142   2.247   5.198 -0.8107  3.4098  3.9626
   57SAPC  C218 4226   3.290   2.271   5.038 -0.3918 -0.1363 -0.2306
   57SAPC  H18R 4227   3.354   2.195   5.089  0.3622 -0.0137 -0.9650
   57SAPC  H18S 4228   3.354   2.359   5.018 -0.9937  0.5122  0.6489
   57SAPC  C219 4229   3.213   2.205   4.921  0.2757 -0.5787  0.0391
   57SAPC  H19R 4230   3.114   2.162   4.948  0.5181 -0.1655  1.7022
   57SAPC  H19S 4231   3.273   2.123   4.878  0.1625  0.4470 -2.2299
   57SAPC  C220 4232   3.195   2.301   4.803  0.5314 -0.1815 -0.1971
   57SAPC  H20R 4233   3.151   2.260   4.710  1.0779  0.6813 -0.8506
   57SAPC  H20S 4234   3.292   2.341   4.765 -0.8527  0.6610 -3.0803
   57SAPC  H20T 4235   3.125   2.384   4.828 -0.7338 -1.3872  0.3369
   57SAPC   C33 4236   3.991   2.854   5.770  0.4597 -0.1360  0.4281
   57SAPC   H3X 4237   3.993   2.752   5.815 -2.7464 -1.1279 -1.3641
   57SAPC   H3Y 4238   4.081   2.908   5.806  0.3797 -0.2588  0.8302
   57SAPC   C34 4239   3.980   2.818   5.615  0.2336 -0.3750 -0.3204
   57SAPC   H4X 4240   3.895   2.748   5.603 -0.5499  0.4998  0.0239
   57SAPC   H4Y 4241   4.068   2.753   5.594  0.8619  0.4845 -0.4240
   57SAPC   C35 4242   3.972   2.941   5.522 -0.4476  0.1649 -0.6026
   57SAPC   H5X 4243   4.027   3.031   5.557 -0.7289  0.1276 -0.0553
   57SAPC   H5Y 4244   3.864   2.965   5.526 -0.7269 -1.0226  2.9862
   57SAPC   C36 4245   4.012   2.909   5.379  0.2513  0.2326  0.9207
   57SAPC   H6X 4246   3.960   2.819   5.339  3.4035 -1.4514  0.3646
   57SAPC   H6Y 4247   4.121   2.890   5.375  0.1353 -0.3730  0.5571
   57SAPC   C37 4248   3.975   3.027   5.289 -0.5289  0.2661  0.2312
   57SAPC   H7X 4249   4.013   3.125   5.324  2.4066  0.8847 -3.9994
   57SAPC   H7Y 4250   3.868   3.055   5.295 -0.9801 -1.5865  2.0356
   57SAPC   C38 4251   4.021   3.001   5.138  0.2997 -0.4607 -0.6601
   57SAPC   H8X 4252   3.959   2.923   5.089  2.6608 -1.0279 -2.9633
   57SAPC   H8Y 4253   4.127   2.969   5.144  0.5781  0.5028 -0.2528
   57SAPC   C39 4254   4.003   3.122   5.046  0.3803  0.0533 -0.0934
   57SAPC   H9X 4255   3.905   3.169   5.069  0.0513 -0.1085 -1.1072
   57SAPC   H9Y 4256   3.998   3.091   4.939 -0.9773 -0.3623  0.0721
   57SAPC  C310 4257   4.108   3.232   5.065  0.2347  0.2481 -0.0386
   57SAPC  H10X 4258   4.201   3.200   5.013 -0.8979 -0.6594 -1.6101
   57SAPC  H10Y 4259   4.139   3.240   5.171  1.6248  2.9634 -0.5558
   57SAPC  C311 4260   4.068   3.372   5.011  0.0409  0.2207  0.1318
   57SAPC  H11X 4261   4.128   3.447   5.065 -0.2698  0.5074  0.0812
   57SAPC  H11Y 4262   3.963   3.384   5.045 -0.8236  0.2517 -2.3295
   57SAPC  C312 4263   4.074   3.386   4.860 -0.3829 -0.0171  0.0573
   57SAPC  H12X 4264   4.010   3.475   4.843  0.7943  0.7176 -0.6168
   57SAPC  H12Y 4265   4.039   3.294   4.809 -0.9053  0.7979 -1.0717
   57SAPC  C313 4266   4.214   3.416   4.806 -0.3274 -0.7091  0.4962
   57SAPC  H13X 4267   4.270   3.320   4.808 -0.2834 -0.7582 -1.3269
   57SAPC  H13Y 4268   4.257   3.484   4.882 -2.6568  0.9155  0.4682
   57SAPC  C314 4269   4.217   3.484   4.672 -0.2058  0.0393  0.5629
   57SAPC  H14X 4270   4.326   3.477   4.652 -0.5264 -1.0559 -0.9304
   57SAPC  H14Y 4271   4.189   3.592   4.680 -1.4467 -0.3017  1.1211
   57SAPC  C315 4272   4.143   3.416   4.563  0.6143 -0.1956 -0.3578
   57SAPC  H15X 4273   4.035   3.437   4.581  1.0899  1.6692  0.5329
   57SAPC  H15Y 4274   4.173   3.310   4.580 -0.8544 -0.6035 -0.1296
   57SAPC  C316 4275   4.190   3.480   4.431 -0.3306 -0.1481  0.4666
   57SAPC  H16X 4276   4.300   3.486   4.413 -0.1634 -2.9462  0.0829
   57SAPC  H16Y 4277   4.159   3.586   4.441  3.2183  0.9904  0.8171
   57SAPC  C317 4278   4.147   3.401   4.312  0.0686 -0.5712  0.2463
   57SAPC  H17X 4279   4.037   3.402   4.296 -0.2003  4.6476  0.7870
   57SAPC  H17Y 4280   4.180   3.297   4.336  3.1562  0.7220  2.1920
   57SAPC  C318 4281   4.206   3.445   4.186 -0.2382 -0.1892 -0.1436
   57SAPC  H18X 4282   4.183   3.551   4.161  2.4386  1.1948  2.6445
   57SAPC  H18Y 4283   4.177   3.362   4.118  0.0721 -1.1362  0.8489
   57SAPC  H18Z 4284   4.317   3.441   4.186 -0.2100  0.3158 -0.8211
   58SAPC     N 4285   6.832   6.886   6.878 -0.1425  0.0298  0.0057
   58SAPC   C12 4286   6.944   6.960   6.803  0.5686 -0.2974  0.2614
   58SAPC  H12A 4287   6.943   6.942   6.696  0.8728 -0.7418  0.3312
   58SAPC  H12B 4288   7.029   6.900   6.833  0.8895 -0.3253 -0.6698
   58SAPC   C13 4289   6.693   6.939   6.858 -0.9274 -0.4444  0.3033
   58SAPC  H13A 4290   6.621   6.888   6.920 -0.5684  0.6237  1.6430
   58SAPC  H13B 4291   6.687   7.043   6.885 -1.3438 -0.5176  0.5055
   58SAPC  H13C 4292   6.661   6.931   6.755  0.9041  0.1784 -0.3487
   58SAPC   C14 4293   6.824   6.743   6.823 -0.3287  0.1247  0.0433
   58SAPC  H14A 4294   6.918   6.690   6.820 -0.1082  0.5044 -2.7635
   58SAPC  H14B 4295   6.749   6.679   6.867  1.2159 -1.3240  0.6525
   58SAPC  H14C 4296   6.782   6.730   6.725  1.2578  0.8561 -0.7711
   58SAPC   C15 4297   6.863   6.886   7.025 -0.0398  0.9031  0.1601
   58SAPC  H15A 4298   6.954   6.832   7.045 -0.1855  1.2408  1.8291
   58SAPC  H15B 4299   6.873   6.980   7.077  1.8852  0.5992  0.3999
   58SAPC  H15C 4300   6.790   6.823   7.073 -1.3821  1.1911 -1.3857
   58SAPC   C11 4301   6.982   7.104   6.834  0.8151 -0.5062 -0.0549
   58SAPC  H11A 4302   7.062   7.144   6.768 -2.0557  1.1534 -2.8287
   58SAPC  H11B 4303   7.020   7.109   6.938 -1.2680  0.8424  0.7245
   58SAPC     P 4304   6.820   7.241   6.689  0.2737 -0.1146  0.8271
   58SAPC   O13 4305   6.686   7.303   6.712  0.2300  0.5434  0.3192
   58SAPC   O14 4306   6.923   7.339   6.636  0.3197  0.1908  0.3536
   58SAPC   O12 4307   6.865   7.189   6.831  0.2242  0.0555  0.3795
   58SAPC   O11 4308   6.819   7.107   6.599  1.2284 -0.3734 -0.2568
   58SAPC    C1 4309   6.727   7.095   6.491  0.0553 -0.0196  0.0156
   58SAPC    HA 4310   6.648   7.022   6.519 -1.4557  1.8683  0.9689
   58SAPC    HB 4311   6.672   7.190   6.473 -0.2717  0.1748  1.8275
   58SAPC    C2 4312   6.789   7.059   6.357 -0.0745  0.0697  0.2207
   58SAPC    HS 4313   6.704   7.025   6.294 -0.3978  1.3537 -0.0779
   58SAPC   O21 4314   6.893   6.967   6.366 -0.9365  0.7621 -0.1765
   58SAPC   C21 4315   6.850   6.842   6.386 -0.6547  0.9045  0.8099
   58SAPC   O22 4316   6.733   6.806   6.389 -0.4888  0.0765 -0.0682
   58SAPC   C22 4317   6.980   6.752   6.380  0.1063 -0.0545  0.0718
   58SAPC   H2R 4318   7.032   6.780   6.475 -0.9214  2.8649 -0.1490
   58SAPC   H2S 4319   6.941   6.647   6.384 -1.4830  0.5447  1.8548
   58SAPC    C3 4320   6.856   7.180   6.284 -0.0740 -0.3340 -0.2220
   58SAPC    HX 4321   6.927   7.237   6.347 -1.4831  0.6019  0.5540
   58SAPC    HY 4322   6.770   7.250   6.281 -0.7969 -1.1406  0.6237
   58SAPC   O31 4323   6.898   7.135   6.152  0.5226 -0.3977  0.1115
   58SAPC   C31 4324   7.030   7.163   6.128  0.6765  0.4238  0.3547
   58SAPC   O32 4325   7.112   7.199   6.212 -0.0693  0.2705 -0.4249
   58SAPC   C32 4326   7.054   7.149   5.977 -0.2646  0.0509 -0.1722
   58SAPC   H2X 4327   6.951   7.135   5.938 -0.6440  0.9126  0.4849
   58SAPC   H2Y 4328   7.113   7.059   5.949  4.1494  2.3241  0.9002
   58SAPC   C23 4329   7.068   6.782   6.262  0.9155  0.4622  0.3050
   58SAPC   H3R 4330   7.161   6.722   6.256  0.2297 -0.5293 -0.9636
   58SAPC   H3S 4331   7.108   6.883   6.286  0.0872  1.0667 -0.7434
   58SAPC   C24 4332   7.005   6.771   6.109  0.4511 -0.5890 -1.0067
   58SAPC   H4R 4333   7.074   6.812   6.033  1.4732 -0.2128  0.1036
   58SAPC   H4S 4334   6.911   6.829   6.096 -0.0994 -1.0610  0.6211
   58SAPC   C25 4335   6.947   6.634   6.075 -0.6645 -0.6691 -0.3692
   58SAPC   H5R 4336   6.899   6.587   6.162 -1.9877  0.2230 -0.6004
   58SAPC   C26 4337   6.959   6.573   5.957  0.8634 -0.3384  0.1135
   58SAPC   H6R 4338   6.900   6.481   5.940  2.3373 -0.9610 -2.1298
   58SAPC   C27 4339   7.029   6.615   5.834 -0.1621 -0.0243 -0.1519
   58SAPC   H7R 4340   7.035   6.524   5.770  1.4830 -0.5789  0.7281
   58SAPC   H7S 4341   7.130   6.660   5.848 -0.4948  0.5133  0.5481
   58SAPC   C28 4342   6.940   6.715   5.761  0.1731 -0.4109  0.8418
   58SAPC   H8R 4343   6.836   6.724   5.796 -0.0127 -0.7768  0.3889
   58SAPC   C29 4344   6.977   6.820   5.679  0.5600  0.6854  0.3203
   58SAPC   H9R 4345   6.903   6.863   5.610 -0.3300 -3.0697 -1.3184
   58SAPC  C210 4346   7.116   6.843   5.617  0.3943 -0.1848  0.0138
   58SAPC  H10R 4347   7.196   6.791   5.675  0.4872  0.6296  0.6316
   58SAPC  H10S 4348   7.147   6.947   5.641 -2.3995  0.9783 -0.9885
   58SAPC  C211 4349   7.144   6.815   5.475  0.3764 -0.0398  0.6064
   58SAPC  H11R 4350   7.127   6.711   5.444 -1.6407 -0.2882  2.2740
   58SAPC  C212 4351   7.192   6.901   5.385 -1.4763  0.7529 -0.0865
   58SAPC  H12R 4352   7.220   6.861   5.286 -2.3399  3.2326 -1.4250
   58SAPC  C213 4353   7.218   7.049   5.415  0.3748  0.8406  0.0598
   58SAPC  H13R 4354   7.291   7.061   5.498 -0.0674  0.2836  0.5418
   58SAPC  H13S 4355   7.122   7.100   5.440 -0.5891 -1.6933  1.9324
   58SAPC  C214 4356   7.278   7.124   5.300 -0.1946 -0.1923  0.4936
   58SAPC  H14R 4357   7.374   7.170   5.326 -1.1421  2.0030  0.3276
   58SAPC  C215 4358   7.231   7.152   5.180  0.0910  0.0645 -0.1181
   58SAPC  H15R 4359   7.290   7.213   5.111 -0.7992  1.8023  0.5890
   58SAPC  C216 4360   7.105   7.103   5.111  0.3936  0.1952  0.3979
   58SAPC  H16R 4361   7.023   7.070   5.178 -0.9200  0.8510 -0.8422
   58SAPC  H16S 4362   7.124   7.017   5.042  0.9383  2.7098 -2.8202
   58SAPC  C217 4363   7.053   7.221   5.027 -0.0051 -0.1968  0.8410
   58SAPC  H17R 4364   7.050   7.308   5.096  0.0124  1.7212 -1.4561
   58SAPC  H17S 4365   6.948   7.194   5.004 -0.2951  2.0091 -0.7950
   58SAPC  C218 4366   7.132   7.251   4.901 -0.0287  0.9108 -0.0512
   58SAPC  H18R 4367   7.141   7.153   4.850 -0.1703  0.7407  0.2464
   58SAPC  H18S 4368   7.238   7.277   4.923 -0.6903  2.2593  1.7733
   58SAPC  C219 4369   7.065   7.351   4.804  0.2715 -0.7620 -0.2404
   58SAPC  H19R 4370   7.027   7.442   4.855  3.1270  0.2457  0.2441
   58SAPC  H19S 4371   6.966   7.312   4.770 -0.0951 -1.6280  1.6864
   58SAPC  C220 4372   7.150   7.389   4.679  0.7060 -0.2522 -0.2200
   58SAPC  H20R 4373   7.093   7.455   4.610 -0.4862 -1.6355 -0.6175
   58SAPC  H20S 4374   7.164   7.294   4.623 -0.2515 -1.8740  2.0784
   58SAPC  H20T 4375   7.250   7.427   4.708  0.7607 -1.3631  1.1630
   58SAPC   C33 4376   7.111   7.277   5.920  0.3477 -0.4198  0.1231
   58SAPC   H3X 4377   7.213   7.294   5.960  0.6968  0.2132 -1.0069
   58SAPC   H3Y 4378   7.049   7.365   5.949  1.1929 -0.4853  2.3076
   58SAPC   C34 4379   7.132   7.279   5.774  0.1337 -0.1698 -0.5949
   58SAPC   H4X 4380   7.032   7.276   5.725 -0.3787 -1.3998  0.4714
   58SAPC   H4Y 4381   7.187   7.188   5.742 -0.1528 -0.7965  0.6251
   58SAPC   C35 4382   7.213   7.402   5.718 -0.2205  0.2430  0.3223
   58SAPC   H5X 4383   7.318   7.397   5.752  0.0793 -0.5688 -0.6948
   58SAPC   H5Y 4384   7.171   7.502   5.743 -2.8230 -0.1207 -2.0719
   58SAPC   C36 4385   7.208   7.398   5.566 -0.3853 -0.3804  0.1163
   58SAPC   H6X 4386   7.104   7.411   5.529 -0.4758  0.3050  0.6053
   58SAPC   H6Y 4387   7.234   7.301   5.519  1.3717  0.2027 -0.1832
   58SAPC   C37 4388   7.288   7.508   5.498 -0.2326  0.2526 -0.0086
   58SAPC   H7X 4389   7.394   7.504   5.530  0.9736 -0.0479 -3.5382
   58SAPC   H7Y 4390   7.240   7.603   5.530  1.4017  1.1187 -0.0708
   58SAPC   C38 4391   7.266   7.480   5.352 -0.1981  0.2510 -0.2738
   58SAPC   H8X 4392   7.160   7.503   5.330  0.2703  1.8266 -0.9553
   58SAPC   H8Y 4393   7.307   7.377   5.342 -1.7569 -0.6008  1.3682
   58SAPC   C39 4394   7.346   7.579   5.269  0.5350  0.2332  0.1390
   58SAPC   H9X 4395   7.453   7.562   5.295  0.1311 -0.9825  1.1229
   58SAPC   H9Y 4396   7.327   7.684   5.298  0.2642 -0.0310  0.9453
   58SAPC  C310 4397   7.313   7.555   5.120  0.3326 -0.7717 -0.3459
   58SAPC  H10X 4398   7.204   7.534   5.113 -0.2103  0.5868  2.6026
   58SAPC  H10Y 4399   7.371   7.461   5.109 -0.0188 -1.0197 -0.1191
   58SAPC  C311 4400   7.367   7.676   5.032  0.0187 -0.1657 -0.7066
   58SAPC  H11X 4401   7.469   7.700   5.068  0.5047 -0.6291 -1.7130
   58SAPC  H11Y 4402   7.311   7.768   5.056  2.1387  0.7996  0.7542
   58SAPC  C312 4403   7.371   7.654   4.878 -0.4344 -0.1149 -0.6078
   58SAPC  H12X 4404   7.272   7.623   4.839  0.2313 -1.1528 -1.5768
   58SAPC  H12Y 4405   7.433   7.562   4.871  0.8537  0.6072  0.7077
   58SAPC  C313 4406   7.440   7.774   4.798 -0.4007 -0.0998 -0.0154
   58SAPC  H13X 4407   7.512   7.823   4.867  0.3164 -0.7010 -0.3236
   58SAPC  H13Y 4408   7.371   7.855   4.767  1.4858  1.9817  0.9891
   58SAPC  C314 4409   7.511   7.708   4.678 -0.0896  0.2277  0.7505
   58SAPC  H14X 4410   7.442   7.661   4.605 -0.1794 -0.5659  1.3420
   58SAPC  H14Y 4411   7.581   7.626   4.704  0.3603  0.5586  0.6110
   58SAPC  C315 4412   7.605   7.814   4.616 -0.5358 -0.0375 -0.2148
   58SAPC  H15X 4413   7.672   7.852   4.697 -0.2471 -1.2233  0.1257
   58SAPC  H15Y 4414   7.547   7.902   4.582 -1.9475 -1.3138 -1.2182
   58SAPC  C316 4415   7.673   7.759   4.495 -0.8766 -0.1671 -0.3694
   58SAPC  H16X 4416   7.597   7.710   4.431 -1.1989  0.5844 -0.5727
   58SAPC  H16Y 4417   7.753   7.686   4.521  1.7521  2.0259 -1.6980
   58SAPC  C317 4418   7.741   7.865   4.411 -0.5603  0.6207 -0.2083
   58SAPC  H17X 4419   7.825   7.819   4.355 -0.7951 -0.0809  0.0175
   58SAPC  H17Y 4420   7.789   7.942   4.476 -4.2575  2.4161  0.7116
   58SAPC  C318 4421   7.648   7.943   4.312 -0.6059 -0.1531 -0.3774
   58SAPC  H18X 4422   7.717   8.000   4.246  0.5410 -0.8565  0.1833
   58SAPC  H18Y 4423   7.577   8.010   4.365 -0.2249 -0.0487  0.0021
   58SAPC  H18Z 4424   7.597   7.866   4.249 -2.5015  0.8887 -0.1775
   59SAPC     N 4425   6.904   5.666   6.870  0.0111  0.3962  0.2727
   59SAPC   C12 4426   6.933   5.793   6.788 -0.0482 -0.3392 -0.0807
   59SAPC  H12A 4427   6.900   5.875   6.850  1.6338  1.1336 -1.0020
   59SAPC  H12B 4428   6.883   5.790   6.692 -0.0120 -1.8492 -0.0693
   59SAPC   C13 4429   6.979   5.672   7.008 -0.5245 -0.2812  0.0693
   59SAPC  H13A 4430   7.082   5.702   6.994 -0.4001 -0.9648 -0.5583
   59SAPC  H13B 4431   6.931   5.754   7.058  1.9316  1.5719 -0.4326
   59SAPC  H13C 4432   6.965   5.580   7.064  2.1872 -0.6116  0.3364
   59SAPC   C14 4433   6.762   5.664   6.902 -0.8407  0.1125  0.1482
   59SAPC  H14A 4434   6.740   5.743   6.973 -1.9820  0.5459 -0.6688
   59SAPC  H14B 4435   6.697   5.687   6.819 -2.1257  1.8373  1.5428
   59SAPC  H14C 4436   6.732   5.568   6.941 -2.6761 -0.6044 -2.7170
   59SAPC   C15 4437   6.962   5.552   6.794  0.5086 -0.3906  0.6854
   59SAPC  H15A 4438   6.983   5.467   6.858 -0.6447 -1.8352 -0.7780
   59SAPC  H15B 4439   6.889   5.511   6.726 -0.7395  3.1577 -0.3005
   59SAPC  H15C 4440   7.043   5.576   6.727 -0.1455  0.6427  0.2533
   59SAPC   C11 4441   7.082   5.830   6.755 -0.1280  0.2337  0.3583
   59SAPC  H11A 4442   7.138   5.829   6.851  1.3457 -1.1957 -0.4658
   59SAPC  H11B 4443   7.079   5.932   6.710 -0.5477  0.0840  0.0358
   59SAPC     P 4444   7.287   5.727   6.625 -0.2448  0.2791  0.2307
   59SAPC   O13 4445   7.375   5.825   6.700 -1.2137 -0.1755  0.3420
   59SAPC   O14 4446   7.325   5.589   6.635 -0.3710 -0.0743  0.0526
   59SAPC   O12 4447   7.136   5.744   6.664 -0.5320  0.4242  0.1006
   59SAPC   O11 4448   7.295   5.768   6.475 -0.5431  0.4221  0.5602
   59SAPC    C1 4449   7.230   5.881   6.430  0.0704 -0.7439  0.0522
   59SAPC    HA 4450   7.218   5.960   6.507 -2.1223 -0.5184 -0.4419
   59SAPC    HB 4451   7.273   5.924   6.337  0.8557 -0.2238  0.6432
   59SAPC    C2 4452   7.082   5.854   6.384 -0.1873 -0.0099 -0.4104
   59SAPC    HS 4453   7.027   5.823   6.476 -1.2150  1.3713 -0.5375
   59SAPC   O21 4454   7.096   5.751   6.278 -0.8188  0.5192 -0.2492
   59SAPC   C21 4455   6.997   5.663   6.285  0.1811 -0.2342  0.8519
   59SAPC   O22 4456   6.912   5.661   6.375 -0.6423 -0.3017 -0.4000
   59SAPC   C22 4457   7.004   5.565   6.172  0.1381 -0.6231  0.0904
   59SAPC   H2R 4458   7.108   5.537   6.144 -0.2753 -2.2077  0.0605
   59SAPC   H2S 4459   6.941   5.477   6.195  0.2672 -0.7408 -0.0039
   59SAPC    C3 4460   7.010   5.973   6.319 -0.2133  0.7519 -0.6881
   59SAPC    HX 4461   7.088   6.014   6.251 -0.1891  1.5153 -0.2144
   59SAPC    HY 4462   6.984   6.053   6.392  2.0023 -0.0415  1.0901
   59SAPC   O31 4463   6.906   5.934   6.239 -0.4146  0.8751 -0.1085
   59SAPC   C31 4464   6.844   6.033   6.181  0.3615  0.3446  0.1744
   59SAPC   O32 4465   6.880   6.148   6.172  0.2929 -0.0847 -0.2897
   59SAPC   C32 4466   6.725   5.967   6.108  0.1206 -0.5332 -0.7305
   59SAPC   H2X 4467   6.639   5.955   6.176  2.4419 -0.6369  2.3796
   59SAPC   H2Y 4468   6.758   5.869   6.069  2.3159 -0.6137  1.0903
   59SAPC   C23 4469   6.955   5.639   6.047  1.0165 -0.0645  0.6811
   59SAPC   H3R 4470   7.005   5.737   6.031  0.8324 -0.1731 -0.6602
   59SAPC   H3S 4471   6.848   5.668   6.037  0.7458 -1.5750 -1.5710
   59SAPC   C24 4472   6.980   5.566   5.917  0.0127  0.5115 -0.4690
   59SAPC   H4R 4473   7.086   5.534   5.908 -0.1416  0.2481 -1.3995
   59SAPC   H4S 4474   6.961   5.636   5.833  1.5086 -0.8615 -2.0196
   59SAPC   C25 4475   6.886   5.446   5.906  0.3932 -0.3542 -0.4839
   59SAPC   H5R 4476   6.785   5.486   5.891  1.2659  3.4391  2.2407
   59SAPC   C26 4477   6.903   5.315   5.896  0.2283  0.0798  0.2303
   59SAPC   H6R 4478   6.812   5.253   5.889  0.4751 -0.3034  0.4244
   59SAPC   C27 4479   7.022   5.228   5.892  0.1960  0.1886 -0.1931
   59SAPC   H7R 4480   7.117   5.285   5.889  0.9898 -1.1046 -0.7841
   59SAPC   H7S 4481   7.023   5.159   5.805  1.6210 -0.2237  0.1113
   59SAPC   C28 4482   7.040   5.160   6.030  0.1112 -0.4156  0.2081
   59SAPC   H8R 4483   7.064   5.227   6.114  0.4034 -1.1406  0.7194
   59SAPC   C29 4484   7.018   5.033   6.054 -0.1034  0.7845  0.4299
   59SAPC   H9R 4485   7.024   5.002   6.159 -1.3619 -0.4482  0.1640
   59SAPC  C210 4486   6.974   4.920   5.961  0.3228 -0.2556  0.1484
   59SAPC  H10R 4487   6.976   4.951   5.854  2.8426 -0.3834  0.1027
   59SAPC  H10S 4488   6.867   4.894   5.974  0.1984 -0.1873 -0.6426
   59SAPC  C211 4489   7.051   4.789   5.985  0.2260 -0.4978 -0.0857
   59SAPC  H11R 4490   7.029   4.748   6.085 -0.3597  0.3883  0.1684
   59SAPC  C212 4491   7.151   4.740   5.908  0.2000 -0.6224  0.0610
   59SAPC  H12R 4492   7.200   4.647   5.942 -1.9301 -1.6598  0.5119
   59SAPC  C213 4493   7.190   4.792   5.776  0.4255 -0.5948 -0.4304
   59SAPC  H13R 4494   7.292   4.760   5.747  1.1365 -0.5457  1.8364
   59SAPC  H13S 4495   7.200   4.903   5.780  0.4682 -0.6145  0.0996
   59SAPC  C214 4496   7.093   4.758   5.671  0.2649 -0.4639  0.1002
   59SAPC  H14R 4497   6.987   4.744   5.698  0.0262  0.3501 -0.3940
   59SAPC  C215 4498   7.112   4.761   5.540 -0.8961 -0.1674  0.3496
   59SAPC  H15R 4499   7.028   4.721   5.481 -0.5415 -1.1035  0.4568
   59SAPC  C216 4500   7.247   4.783   5.463 -0.2308 -0.2738  0.1687
   59SAPC  H16R 4501   7.248   4.688   5.406  1.0043  0.6893 -1.4966
   59SAPC  H16S 4502   7.338   4.783   5.526 -0.8839  1.5365  1.1947
   59SAPC  C217 4503   7.251   4.889   5.357 -0.7429  0.7901 -0.0021
   59SAPC  H17R 4504   7.351   4.893   5.310  1.3497 -0.0969  3.9751
   59SAPC  H17S 4505   7.233   4.989   5.402 -2.8380  0.4411  0.0342
   59SAPC  C218 4506   7.142   4.874   5.246 -0.2547 -0.4694  0.3392
   59SAPC  H18R 4507   7.038   4.892   5.282 -0.5564  2.3355 -1.6270
   59SAPC  H18S 4508   7.148   4.764   5.229  2.2266 -0.3951  0.4121
   59SAPC  C219 4509   7.162   4.968   5.125  0.2141 -0.1660  0.8363
   59SAPC  H19R 4510   7.158   5.067   5.175 -0.4617  0.5779 -0.6472
   59SAPC  H19S 4511   7.078   4.974   5.054  1.6834 -1.6497 -1.1402
   59SAPC  C220 4512   7.289   4.935   5.041 -0.3231 -0.6745 -0.1059
   59SAPC  H20R 4513   7.380   4.944   5.104 -0.9541  1.6420  0.5672
   59SAPC  H20S 4514   7.300   4.999   4.951  2.3054 -0.6167  0.2043
   59SAPC  H20T 4515   7.280   4.833   4.998 -1.8062 -0.9394  0.7652
   59SAPC   C33 4516   6.664   6.067   6.008 -0.2285 -1.0516 -0.1292
   59SAPC   H3X 4517   6.657   6.164   6.062  1.3807 -0.3340 -1.1309
   59SAPC   H3Y 4518   6.560   6.033   5.989 -0.5902  0.8441 -1.9211
   59SAPC   C34 4519   6.734   6.095   5.881  0.0646 -0.4106  0.2534
   59SAPC   H4X 4520   6.716   6.009   5.813  1.0920 -0.7366  0.3666
   59SAPC   H4Y 4521   6.841   6.120   5.896  0.8089 -0.0975 -4.1745
   59SAPC   C35 4522   6.681   6.223   5.810 -0.4674  0.5057  0.0312
   59SAPC   H5X 4523   6.692   6.304   5.885  1.4308  0.8490 -0.5572
   59SAPC   H5Y 4524   6.577   6.231   5.772  0.4320 -0.5171 -2.9372
   59SAPC   C36 4525   6.769   6.241   5.687  0.8495 -0.2553  0.3394
   59SAPC   H6X 4526   6.755   6.149   5.626 -3.5603  0.9751 -0.8852
   59SAPC   H6Y 4527   6.877   6.254   5.710  0.9757  0.7943 -0.7259
   59SAPC   C37 4528   6.735   6.354   5.591 -0.3070  0.0403  0.1413
   59SAPC   H7X 4529   6.702   6.449   5.638  0.3045  0.5663 -0.4735
   59SAPC   H7Y 4530   6.658   6.314   5.522  1.9432 -0.2016 -2.4204
   59SAPC   C38 4531   6.851   6.388   5.489 -0.0446 -0.3824 -0.1985
   59SAPC   H8X 4532   6.875   6.289   5.444  0.6496  0.0837 -0.8933
   59SAPC   H8Y 4533   6.945   6.411   5.544 -0.7631  2.0210  0.1409
   59SAPC   C39 4534   6.836   6.501   5.389  0.1026  1.0577  0.3118
   59SAPC   H9X 4535   6.831   6.603   5.432 -1.4755  1.1393  0.0061
   59SAPC   H9Y 4536   6.732   6.490   5.351  0.4563 -2.3856  0.0234
   59SAPC  C310 4537   6.935   6.505   5.266  0.2818 -0.4289  0.7154
   59SAPC  H10X 4538   6.926   6.402   5.224 -0.0015  0.3504 -1.2840
   59SAPC  H10Y 4539   7.040   6.522   5.297 -0.3818  1.3907  2.1397
   59SAPC  C311 4540   6.905   6.605   5.159 -0.0350 -0.7231 -0.5226
   59SAPC  H11X 4541   6.910   6.711   5.193  0.8187 -0.9019 -0.0619
   59SAPC  H11Y 4542   6.806   6.587   5.111  0.1113 -1.9902 -0.3717
   59SAPC  C312 4543   6.996   6.599   5.041 -0.4252 -0.3638 -0.2974
   59SAPC  H12X 4544   6.993   6.509   4.976 -0.4998  0.6000 -1.6666
   59SAPC  H12Y 4545   7.100   6.606   5.079 -0.8502 -0.3087  0.9136
   59SAPC  C313 4546   6.991   6.729   4.956  0.0838 -0.4916  0.3053
   59SAPC  H13X 4547   7.007   6.824   5.012 -2.1581  0.3157 -0.3071
   59SAPC  H13Y 4548   6.889   6.749   4.916 -0.1174  1.2732  1.5813
   59SAPC  C314 4549   7.084   6.706   4.835  0.2883 -0.3553  0.1605
   59SAPC  H14X 4550   7.081   6.596   4.815  0.8251  0.0155 -2.3549
   59SAPC  H14Y 4551   7.190   6.726   4.863  0.0278 -0.2508  1.0964
   59SAPC  C315 4552   7.029   6.786   4.713 -0.4478  0.6503  0.2081
   59SAPC  H15X 4553   6.924   6.757   4.691 -0.8428  2.4785 -0.4960
   59SAPC  H15Y 4554   7.086   6.761   4.621 -1.0322  1.7475 -0.4624
   59SAPC  C316 4555   7.036   6.930   4.732 -0.2696  0.9396  0.4726
   59SAPC  H16X 4556   7.146   6.948   4.742 -0.2361  2.3808 -1.7233
   59SAPC  H16Y 4557   6.984   6.968   4.822  0.2336  1.2894  0.6196
   59SAPC  C317 4558   6.998   7.008   4.602  0.4727 -0.6727  0.3852
   59SAPC  H17X 4559   7.067   7.004   4.516 -1.6725  2.5872 -1.7403
   59SAPC  H17Y 4560   7.015   7.114   4.631 -0.5571 -0.0736 -1.0749
   59SAPC  C318 4561   6.854   6.986   4.560  0.5557  0.1830 -0.6617
   59SAPC  H18X 4562   6.863   6.885   4.514  0.0998  1.0005 -2.6543
   59SAPC  H18Y 4563   6.811   7.050   4.481 -1.8327  0.2480  0.5729
   59SAPC  H18Z 4564   6.785   6.995   4.648 -0.2158 -1.5297 -1.0348
   60SAPC     N 4565   5.048   4.886   6.961  0.0206 -0.0659  0.0500
   60SAPC   C12 4566   5.113   4.759   7.009 -0.1822 -0.0460  0.1481
   60SAPC  H12A 4567   5.084   4.754   7.113 -2.8925 -2.0948 -0.5816
   60SAPC  H12B 4568   5.219   4.747   6.995 -0.6011 -2.2998 -1.9384
   60SAPC   C13 4569   4.901   4.866   6.951 -0.1996 -0.2945 -0.6938
   60SAPC  H13A 4570   4.846   4.840   7.041 -1.4298  0.1548 -1.2826
   60SAPC  H13B 4571   4.860   4.949   6.895  1.4299 -0.0048 -1.4994
   60SAPC  H13C 4572   4.884   4.782   6.885 -0.4941  0.0882 -1.1121
   60SAPC   C14 4573   5.078   4.997   7.062  0.2870 -0.6763  0.3034
   60SAPC  H14A 4574   5.018   5.084   7.037 -0.3600 -1.7249 -2.1328
   60SAPC  H14B 4575   5.040   4.965   7.158 -1.4598  1.6416  0.4813
   60SAPC  H14C 4576   5.182   5.023   7.073  0.4710 -1.4807  0.4999
   60SAPC   C15 4577   5.115   4.927   6.836  0.6174 -0.0428 -0.4388
   60SAPC  H15A 4578   5.222   4.928   6.851  0.2871 -1.5076  3.3841
   60SAPC  H15B 4579   5.101   4.847   6.764  1.2021  0.3206 -0.9648
   60SAPC  H15C 4580   5.073   5.010   6.782 -1.0501 -2.1726 -2.6215
   60SAPC   C11 4581   5.052   4.628   6.957  0.1552 -0.0438  0.2700
   60SAPC  H11A 4582   4.945   4.618   6.986  0.4565  1.8761  2.3140
   60SAPC  H11B 4583   5.107   4.553   7.018 -0.1872 -1.2747 -0.8785
   60SAPC     P 4584   5.197   4.547   6.741 -0.8288 -0.0910  0.4014
   60SAPC   O13 4585   5.314   4.563   6.826  0.2001 -0.3171 -0.2675
   60SAPC   O14 4586   5.166   4.405   6.699  0.2186 -0.4520  0.2138
   60SAPC   O12 4587   5.072   4.615   6.813 -0.2134 -0.5750 -0.0010
   60SAPC   O11 4588   5.217   4.646   6.618  0.0090  0.0023  0.6561
   60SAPC    C1 4589   5.340   4.689   6.565  0.7522  0.8351 -0.2400
   60SAPC    HA 4590   5.360   4.781   6.625 -0.4571  1.0926 -0.2051
   60SAPC    HB 4591   5.414   4.609   6.587  0.1299  0.0948 -0.8079
   60SAPC    C2 4592   5.334   4.717   6.416  0.2265 -0.7571  0.8366
   60SAPC    HS 4593   5.256   4.795   6.403 -2.1212 -3.2900 -1.4193
   60SAPC   O21 4594   5.299   4.599   6.352 -0.0259  0.3227  0.1331
   60SAPC   C21 4595   5.171   4.591   6.316  0.4245 -0.0567 -0.1742
   60SAPC   O22 4596   5.084   4.668   6.349  0.0626 -1.0505 -0.4433
   60SAPC   C22 4597   5.144   4.467   6.232 -0.2595  0.3741 -0.1506
   60SAPC   H2R 4598   5.231   4.432   6.173 -0.9171  0.4482 -1.1942
   60SAPC   H2S 4599   5.111   4.388   6.303 -2.5915 -0.8089 -2.3765
   60SAPC    C3 4600   5.475   4.755   6.351 -0.1586 -0.7150  0.1640
   60SAPC    HX 4601   5.547   4.673   6.371  2.4850  1.0196 -1.6911
   60SAPC    HY 4602   5.521   4.841   6.405  0.8717 -1.1448 -0.0021
   60SAPC   O31 4603   5.467   4.777   6.210 -0.1187  0.2862  0.6080
   60SAPC   C31 4604   5.444   4.901   6.167  0.1566  0.7043  0.1942
   60SAPC   O32 4605   5.462   4.999   6.239 -0.2180  0.6202  0.8444
   60SAPC   C32 4606   5.382   4.903   6.025  0.8803 -0.0947  0.3264
   60SAPC   H2X 4607   5.311   4.989   6.018 -0.2455 -0.9994  0.2168
   60SAPC   H2Y 4608   5.320   4.811   6.018 -0.2600  0.6591  0.2111
   60SAPC   C23 4609   5.046   4.501   6.120  0.1795  0.2660  0.3878
   60SAPC   H3R 4610   4.962   4.565   6.154 -1.4834 -0.4483 -2.1046
   60SAPC   H3S 4611   5.002   4.403   6.089  0.5187  0.3245 -0.2927
   60SAPC   C24 4612   5.114   4.557   5.995  0.5915 -0.2505  0.1402
   60SAPC   H4R 4613   5.201   4.496   5.963  1.6410  1.7116 -0.9068
   60SAPC   H4S 4614   5.155   4.654   6.031 -0.5830 -0.2606  1.5906
   60SAPC   C25 4615   5.021   4.572   5.878  0.6568 -0.8184 -0.1093
   60SAPC   H5R 4616   4.921   4.529   5.892  1.5759 -2.3408  2.5454
   60SAPC   C26 4617   5.077   4.614   5.764 -0.0867 -0.3404  0.5667
   60SAPC   H6R 4618   5.003   4.626   5.684 -0.2950  2.0425  1.0360
   60SAPC   C27 4619   5.223   4.664   5.739 -0.1865  0.1246  0.4926
   60SAPC   H7R 4620   5.292   4.578   5.753  0.3282  0.1507 -1.5813
   60SAPC   H7S 4621   5.270   4.729   5.816  0.1702 -0.4693  0.7831
   60SAPC   C28 4622   5.239   4.725   5.595  0.4034 -0.7584  0.2494
   60SAPC   H8R 4623   5.160   4.786   5.550  1.3603  1.3609  1.2978
   60SAPC   C29 4624   5.351   4.730   5.524  0.0304  0.3898 -0.3582
   60SAPC   H9R 4625   5.353   4.786   5.430 -3.2640  2.5469  0.6743
   60SAPC  C210 4626   5.486   4.667   5.564  0.3938 -0.4684 -0.2302
   60SAPC  H10R 4627   5.489   4.563   5.526 -3.1057 -1.3186  1.4837
   60SAPC  H10S 4628   5.497   4.661   5.674  0.8931 -0.9351 -0.3012
   60SAPC  C211 4629   5.606   4.752   5.516  0.2582  0.4582 -0.4057
   60SAPC  H11R 4630   5.659   4.806   5.596 -0.7840 -1.3600  1.6245
   60SAPC  C212 4631   5.645   4.746   5.392  0.6336  0.2855 -0.0006
   60SAPC  H12R 4632   5.728   4.811   5.361  0.3554  0.0655 -1.2442
   60SAPC  C213 4633   5.590   4.670   5.280 -0.0796  0.7536 -0.1429
   60SAPC  H13R 4634   5.484   4.640   5.295 -0.2428  1.1326 -0.5156
   60SAPC  H13S 4635   5.659   4.584   5.273  1.3445  1.7883  0.6759
   60SAPC  C214 4636   5.587   4.740   5.149 -0.0180 -1.3377  0.5307
   60SAPC  H14R 4637   5.501   4.807   5.133  0.6514 -0.9338 -1.5871
   60SAPC  C215 4638   5.678   4.753   5.050 -0.2664  0.3976 -0.8635
   60SAPC  H15R 4639   5.656   4.820   4.965  0.4535  0.5761 -0.9136
   60SAPC  C216 4640   5.814   4.695   5.044 -0.4754 -0.5540  0.7782
   60SAPC  H16R 4641   5.813   4.587   5.017  0.9422 -0.1650 -1.0529
   60SAPC  H16S 4642   5.869   4.713   5.139  2.1389  2.4643 -1.0979
   60SAPC  C217 4643   5.914   4.744   4.932  0.6590 -1.0189 -0.2154
   60SAPC  H17R 4644   6.013   4.696   4.949  1.9803  0.9276 -1.9274
   60SAPC  H17S 4645   5.924   4.853   4.951  1.7871 -1.3193  1.0494
   60SAPC  C218 4646   5.873   4.720   4.788  0.1286 -0.3845 -0.4139
   60SAPC  H18R 4647   5.772   4.756   4.759  0.8988  0.4383 -2.2886
   60SAPC  H18S 4648   5.860   4.611   4.770  2.1345 -1.1527  2.1741
   60SAPC  C219 4649   5.970   4.784   4.693 -0.3605  0.2680  0.1044
   60SAPC  H19R 4650   6.070   4.737   4.702  0.1568  0.7409 -2.2884
   60SAPC  H19S 4651   5.989   4.893   4.705 -1.2920  0.5959 -1.1203
   60SAPC  C220 4652   5.927   4.750   4.550  0.2709 -0.2821  0.5149
   60SAPC  H20R 4653   5.834   4.803   4.521  1.2485  0.6284 -1.1184
   60SAPC  H20S 4654   5.904   4.641   4.547 -0.5046 -0.3809  4.6651
   60SAPC  H20T 4655   6.003   4.790   4.480  0.7734 -0.5442  0.9037
   60SAPC   C33 4656   5.479   4.904   5.903  0.3125 -0.5346  0.0624
   60SAPC   H3X 4657   5.425   4.891   5.807  1.6696  2.4798 -1.2354
   60SAPC   H3Y 4658   5.557   4.827   5.919 -1.4241 -2.3062  0.4491
   60SAPC   C34 4659   5.544   5.049   5.894 -0.0003  0.0974 -0.9432
   60SAPC   H4X 4660   5.591   5.065   5.993 -0.7702 -0.7444 -0.4251
   60SAPC   H4Y 4661   5.462   5.124   5.889  2.0062  2.4330 -0.4437
   60SAPC   C35 4662   5.641   5.064   5.773 -0.0078 -1.0928  0.1496
   60SAPC   H5X 4663   5.591   5.064   5.674 -0.9627 -0.8952  0.6161
   60SAPC   H5Y 4664   5.715   4.982   5.786  0.1874 -1.2392 -1.6481
   60SAPC   C36 4665   5.717   5.203   5.766 -0.3046  0.7560 -0.9880
   60SAPC   H6X 4666   5.762   5.210   5.867  2.5795 -0.3613 -2.0676
   60SAPC   H6Y 4667   5.630   5.265   5.736 -1.7982 -0.6168  0.2975
   60SAPC   C37 4668   5.829   5.199   5.658 -0.0871 -0.3735 -0.5827
   60SAPC   H7X 4669   5.898   5.114   5.674 -2.0294 -2.1333 -1.0447
   60SAPC   H7Y 4670   5.878   5.297   5.675 -1.5975  0.7320 -2.1686
   60SAPC   C38 4671   5.780   5.198   5.511  0.5011  0.4341 -0.5759
   60SAPC   H8X 4672   5.703   5.276   5.491  0.8852  0.8281 -0.5227
   60SAPC   H8Y 4673   5.731   5.103   5.478  0.2581  0.2163  0.3880
   60SAPC   C39 4674   5.898   5.232   5.413  0.9522  0.9037 -0.1184
   60SAPC   H9X 4675   5.966   5.146   5.432 -1.7188 -1.0227  1.3574
   60SAPC   H9Y 4676   5.943   5.326   5.452  1.8459 -0.6327  2.8690
   60SAPC  C310 4677   5.843   5.230   5.267 -0.3924 -0.4566 -0.5047
   60SAPC  H10X 4678   5.769   5.312   5.256  1.0669  0.8641 -0.8176
   60SAPC  H10Y 4679   5.788   5.135   5.249 -0.9287 -0.0186 -1.2325
   60SAPC  C311 4680   5.956   5.251   5.165 -0.0678  0.5376 -0.4488
   60SAPC  H11X 4681   5.913   5.223   5.066 -2.1154 -1.4732  0.9021
   60SAPC  H11Y 4682   6.024   5.164   5.179 -2.3246 -1.4590 -1.0956
   60SAPC  C312 4683   6.013   5.392   5.172 -0.1712  0.1624 -0.0356
   60SAPC  H12X 4684   6.115   5.399   5.216 -0.7520  0.9501  1.2332
   60SAPC  H12Y 4685   5.955   5.466   5.230  2.0266  2.6383 -0.7893
   60SAPC  C313 4686   6.044   5.444   5.032 -0.1977  0.6852 -0.0452
   60SAPC  H13X 4687   6.038   5.555   5.034 -0.7638  0.8922 -4.4368
   60SAPC  H13Y 4688   5.974   5.412   4.953 -0.3717  0.3014  0.2602
   60SAPC  C314 4689   6.189   5.406   4.995  0.3154  0.3590 -0.2699
   60SAPC  H14X 4690   6.189   5.295   4.992  0.0498  0.3576 -0.2560
   60SAPC  H14Y 4691   6.251   5.458   5.072 -0.6436  0.5635  0.3803
   60SAPC  C315 4692   6.236   5.459   4.856  0.3288  0.0207 -0.0181
   60SAPC  H15X 4693   6.197   5.561   4.834  2.9682  1.4608  1.5088
   60SAPC  H15Y 4694   6.185   5.396   4.780  1.0288 -3.2573  2.0375
   60SAPC  C316 4695   6.386   5.452   4.845 -0.2497 -0.4124 -0.0179
   60SAPC  H16X 4696   6.415   5.352   4.884  0.6693  0.3524  1.3405
   60SAPC  H16Y 4697   6.433   5.531   4.907 -0.4598 -0.0997 -0.2523
   60SAPC  C317 4698   6.445   5.469   4.704 -0.4331  0.3943  0.2550
   60SAPC  H17X 4699   6.552   5.495   4.721  0.0696  1.0631 -3.1500
   60SAPC  H17Y 4700   6.407   5.554   4.643 -1.0424 -0.0840 -0.0425
   60SAPC  C318 4701   6.437   5.343   4.619  0.0069  0.0189  0.2984
   60SAPC  H18X 4702   6.337   5.319   4.577  0.3728 -0.4793 -0.3159
   60SAPC  H18Y 4703   6.471   5.254   4.676  0.3558 -0.0753 -0.0509
   60SAPC  H18Z 4704   6.499   5.361   4.528 -0.4075  0.6664  0.1355
   61SAPC     N 4705   4.484   3.874   7.037 -0.4124 -0.8374  0.5113
   61SAPC   C12 4706   4.370   3.773   7.047  0.4512  0.5714  0.2112
   61SAPC  H12A 4707   4.283   3.820   7.090  0.1854 -0.0253  0.3453
   61SAPC  H12B 4708   4.398   3.703   7.125 -1.7815 -1.7479 -0.8983
   61SAPC   C13 4709   4.462   3.968   6.932  0.6594 -0.0201  0.0253
   61SAPC  H13A 4710   4.488   3.915   6.841  1.9541 -1.0225  0.9552
   61SAPC  H13B 4711   4.361   4.005   6.920  0.6162  0.3315  1.3942
   61SAPC  H13C 4712   4.522   4.055   6.949 -0.5290  1.2995 -2.0928
   61SAPC   C14 4713   4.494   3.941   7.172  0.3861 -0.1508 -0.5632
   61SAPC  H14A 4714   4.590   3.990   7.182 -0.1672  0.5074  2.1975
   61SAPC  H14B 4715   4.417   4.013   7.193 -0.3224 -1.2988  0.9290
   61SAPC  H14C 4716   4.488   3.872   7.254  1.3216  0.4775  0.0670
   61SAPC   C15 4717   4.614   3.801   7.020 -0.8143 -0.0049 -0.2633
   61SAPC  H15A 4718   4.629   3.733   7.102  0.9455 -0.8626 -1.2372
   61SAPC  H15B 4719   4.626   3.737   6.934 -3.6028 -0.9055 -0.0733
   61SAPC  H15C 4720   4.696   3.872   7.025 -1.8911  1.2956 -0.3434
   61SAPC   C11 4721   4.328   3.681   6.928  0.2716  0.4996  0.0787
   61SAPC  H11A 4722   4.320   3.739   6.834  0.3661 -0.9781 -0.8831
   61SAPC  H11B 4723   4.232   3.630   6.953  1.3523 -1.2967  0.8287
   61SAPC     P 4724   4.407   3.475   6.794 -0.3339  0.1966  0.0298
   61SAPC   O13 4725   4.527   3.389   6.806  0.0137 -0.3069 -0.0876
   61SAPC   O14 4726   4.276   3.409   6.797  0.4249  0.2815 -0.3173
   61SAPC   O12 4727   4.420   3.577   6.918 -0.1459  0.9595 -0.2990
   61SAPC   O11 4728   4.428   3.560   6.658 -0.0875  0.4564 -0.1106
   61SAPC    C1 4729   4.526   3.650   6.629 -0.3011 -0.4523 -0.0316
   61SAPC    HA 4730   4.530   3.728   6.708  0.9485 -0.2384 -0.2718
   61SAPC    HB 4731   4.621   3.591   6.626  0.8500  1.1631  1.8593
   61SAPC    C2 4732   4.507   3.711   6.483  0.0358 -0.4961  0.4063
   61SAPC    HS 4733   4.606   3.755   6.457 -0.4642 -0.3215 -1.2977
   61SAPC   O21 4734   4.412   3.821   6.485 -0.9174  0.0125 -0.1017
   61SAPC   C21 4735   4.447   3.934   6.541  0.9209 -0.5854 -0.1144
   61SAPC   O22 4736   4.552   3.954   6.601 -0.4501  0.2191  0.6397
   61SAPC   C22 4737   4.335   4.036   6.541  0.4834 -0.1760 -0.5725
   61SAPC   H2R 4738   4.243   3.976   6.525  0.1535  0.9508 -3.3758
   61SAPC   H2S 4739   4.336   4.091   6.637 -1.4633  0.6969 -1.0055
   61SAPC    C3 4740   4.456   3.600   6.386 -0.1603 -0.7370 -0.6184
   61SAPC    HX 4741   4.377   3.542   6.438 -0.1900 -0.3324 -0.1999
   61SAPC    HY 4742   4.535   3.527   6.359 -1.1154 -2.2342  0.4853
   61SAPC   O31 4743   4.389   3.655   6.270 -0.2748  0.2453 -0.2923
   61SAPC   C31 4744   4.473   3.692   6.181  0.8236 -0.6329  0.1158
   61SAPC   O32 4745   4.594   3.689   6.185  0.0157 -0.0913 -0.1638
   61SAPC   C32 4746   4.388   3.742   6.063  0.3643 -0.0858 -0.1516
   61SAPC   H2X 4747   4.345   3.835   6.106  0.4342 -0.1824  0.1261
   61SAPC   H2Y 4748   4.314   3.662   6.040 -1.0503  1.3173 -0.7152
   61SAPC   C23 4749   4.359   4.120   6.409 -0.2012 -0.0359 -0.8019
   61SAPC   H3R 4750   4.461   4.162   6.405  0.5209 -1.5354  0.5253
   61SAPC   H3S 4751   4.285   4.201   6.425  1.4170  1.3322  0.0447
   61SAPC   C24 4752   4.309   4.058   6.283  0.2837  0.4003 -0.3427
   61SAPC   H4R 4753   4.350   3.955   6.278 -2.6234 -0.7822 -1.8031
   61SAPC   H4S 4754   4.353   4.115   6.198  3.0230 -0.8874  0.1082
   61SAPC   C25 4755   4.164   4.038   6.257  0.3677 -1.0367  0.1647
   61SAPC   H5R 4756   4.104   4.032   6.349 -2.0629 -3.5919 -1.4119
   61SAPC   C26 4757   4.098   4.037   6.141  0.3501 -0.0176 -0.3401
   61SAPC   H6R 4758   3.988   4.030   6.148  0.0243  2.8351 -1.1361
   61SAPC   C27 4759   4.152   4.048   5.997  0.1944  0.5292  0.0261
   61SAPC   H7R 4760   4.261   4.044   5.978 -0.0613 -0.0112 -1.4918
   61SAPC   H7S 4761   4.125   4.149   5.959 -0.5829  0.4840  0.4421
   61SAPC   C28 4762   4.088   3.947   5.905  0.0306 -0.2942  0.3694
   61SAPC   H8R 4763   4.047   3.857   5.954  2.0768 -1.8982 -0.6920
   61SAPC   C29 4764   4.065   3.968   5.771 -0.4086 -0.5274 -0.2458
   61SAPC   H9R 4765   4.005   3.899   5.711 -1.2877  2.0230 -2.5134
   61SAPC  C210 4766   4.116   4.096   5.695 -0.7909 -0.0758 -0.2187
   61SAPC  H10R 4767   4.112   4.187   5.758  0.6185  1.2929 -2.0126
   61SAPC  H10S 4768   4.041   4.119   5.616 -0.1599 -0.7140 -1.0238
   61SAPC  C211 4769   4.258   4.074   5.648  0.1357  0.1380 -0.3283
   61SAPC  H11R 4770   4.336   4.067   5.725  0.3264 -1.4460 -0.6170
   61SAPC  C212 4771   4.300   4.094   5.524  0.0016  0.3906  0.7876
   61SAPC  H12R 4772   4.404   4.069   5.498  0.1679  0.0819  1.7283
   61SAPC  C213 4773   4.199   4.113   5.409 -0.2740  0.0733 -0.4442
   61SAPC  H13R 4774   4.136   4.202   5.429  1.0417  1.6074 -2.6501
   61SAPC  H13S 4775   4.120   4.035   5.403  0.7486 -1.4645  3.4358
   61SAPC  C214 4776   4.286   4.141   5.282  0.6890 -0.1188  0.3334
   61SAPC  H14R 4777   4.387   4.183   5.291  0.5027  0.3613  0.1833
   61SAPC  C215 4778   4.240   4.114   5.155 -0.2416 -0.6867 -0.8728
   61SAPC  H15R 4779   4.315   4.131   5.076  0.2320  1.3649 -0.0572
   61SAPC  C216 4780   4.111   4.068   5.105 -0.2647 -0.5814  0.5001
   61SAPC  H16R 4781   4.045   4.067   5.194 -1.1651  0.5748 -0.1104
   61SAPC  H16S 4782   4.108   3.967   5.061 -1.0070 -0.6360  0.6577
   61SAPC  C217 4783   4.053   4.174   5.009 -0.1696  0.4974 -0.0864
   61SAPC  H17R 4784   4.053   4.273   5.059  1.1045 -0.2005  1.3766
   61SAPC  H17S 4785   3.950   4.140   4.984 -0.4595  0.3505  1.2462
   61SAPC  C218 4786   4.123   4.196   4.875 -0.8519 -0.3138  0.0115
   61SAPC  H18R 4787   4.109   4.113   4.802 -0.2811 -0.1633 -0.2796
   61SAPC  H18S 4788   4.227   4.232   4.887 -0.7472 -0.0120 -1.5269
   61SAPC  C219 4789   4.063   4.323   4.813 -0.1316 -0.4789 -0.4260
   61SAPC  H19R 4790   4.082   4.409   4.881  1.3691 -1.3720  0.3294
   61SAPC  H19S 4791   3.952   4.322   4.802 -0.5207  0.6527  2.4270
   61SAPC  C220 4792   4.127   4.346   4.684 -0.3594  0.5614  0.8066
   61SAPC  H20R 4793   4.234   4.376   4.690  0.6451 -2.0259 -1.8857
   61SAPC  H20S 4794   4.086   4.418   4.610  0.9786 -0.6741 -1.2157
   61SAPC  H20T 4795   4.151   4.250   4.634  1.7257  0.8691  1.1068
   61SAPC   C33 4796   4.456   3.790   5.936 -0.7056 -0.3824 -0.2383
   61SAPC   H3X 4797   4.374   3.822   5.868 -0.8402 -0.9653 -0.3600
   61SAPC   H3Y 4798   4.511   3.708   5.884 -1.5000 -0.9072 -0.2625
   61SAPC   C34 4799   4.549   3.911   5.957  0.5096  0.4682  0.2105
   61SAPC   H4X 4800   4.640   3.887   6.016  1.2778  0.0857 -1.0933
   61SAPC   H4Y 4801   4.493   3.996   6.001 -0.6298 -0.9413  1.5550
   61SAPC   C35 4802   4.614   3.957   5.829  0.3403 -0.0977  0.1508
   61SAPC   H5X 4803   4.539   3.980   5.750  0.8884  0.8058 -0.1253
   61SAPC   H5Y 4804   4.683   3.877   5.796 -0.6585 -0.3725 -1.3514
   61SAPC   C36 4805   4.712   4.069   5.848  0.1255  0.0517 -0.5862
   61SAPC   H6X 4806   4.796   4.028   5.908 -0.5285  1.2460  1.2290
   61SAPC   H6Y 4807   4.663   4.153   5.902 -0.3104 -0.7944  0.3657
   61SAPC   C37 4808   4.771   4.120   5.712 -0.7131  0.9489 -0.1822
   61SAPC   H7X 4809   4.842   4.196   5.752 -1.5310  0.4450  2.4648
   61SAPC   H7Y 4810   4.693   4.170   5.651 -2.4144 -1.3632  0.0074
   61SAPC   C38 4811   4.846   4.015   5.636 -0.1473 -0.4192  0.2005
   61SAPC   H8X 4812   4.787   3.929   5.595  1.8466 -2.5010  1.5052
   61SAPC   H8Y 4813   4.923   3.965   5.698  0.2745  1.1998  1.0332
   61SAPC   C39 4814   4.912   4.081   5.511  0.2201  0.8478 -0.0178
   61SAPC   H9X 4815   4.995   4.152   5.530  0.5259  1.0726 -1.9817
   61SAPC   H9Y 4816   4.832   4.133   5.454 -1.6403 -1.9389 -0.1566
   61SAPC  C310 4817   4.960   3.964   5.415 -0.1075 -0.1580 -0.3163
   61SAPC  H10X 4818   4.876   3.894   5.397  1.1825 -1.9934  0.4703
   61SAPC  H10Y 4819   5.037   3.896   5.458 -0.8965  0.7704  2.8678
   61SAPC  C311 4820   5.020   4.011   5.284 -0.1936 -0.0541 -0.3903
   61SAPC  H11X 4821   5.119   4.055   5.312  0.4762 -0.7890 -1.5065
   61SAPC  H11Y 4822   4.960   4.092   5.237 -0.8374 -0.3300 -0.0416
   61SAPC  C312 4823   5.058   3.903   5.173  0.3533  0.0147  0.5043
   61SAPC  H12X 4824   4.970   3.885   5.108  1.7641  1.7660 -2.0930
   61SAPC  H12Y 4825   5.084   3.804   5.217  1.2820 -1.0280 -2.1828
   61SAPC  C313 4826   5.165   3.951   5.078  0.0107 -0.4164  0.5389
   61SAPC  H13X 4827   5.213   3.872   5.015 -1.5344 -1.0716  0.1380
   61SAPC  H13Y 4828   5.244   3.980   5.150  0.4139 -1.6826  0.6461
   61SAPC  C314 4829   5.135   4.068   4.987  0.1279  0.3926 -0.0518
   61SAPC  H14X 4830   5.221   4.139   4.991  0.9281 -0.4829 -1.1116
   61SAPC  H14Y 4831   5.065   4.130   5.048 -0.0258  0.6729 -0.5094
   61SAPC  C315 4832   5.072   4.045   4.853  0.2609 -0.1202 -0.2825
   61SAPC  H15X 4833   5.077   4.146   4.808  2.0555 -0.9288 -2.0653
   61SAPC  H15Y 4834   4.970   4.002   4.854  0.3582 -0.4624 -1.7991
   61SAPC  C316 4835   5.154   3.960   4.753  0.1492 -0.4637 -0.6108
   61SAPC  H16X 4836   5.085   3.929   4.671 -1.5242  0.6529  0.3242
   61SAPC  H16Y 4837   5.185   3.863   4.797 -0.6148 -0.2380  0.4779
   61SAPC  C317 4838   5.275   4.027   4.690 -0.1049 -0.4092  0.0722
   61SAPC  H17X 4839   5.260   4.136   4.678 -3.6458 -0.8137 -0.4095
   61SAPC  H17Y 4840   5.307   3.983   4.593  0.7915  0.7896 -0.1889
   61SAPC  C318 4841   5.404   4.013   4.773 -0.2502 -0.2130 -0.0774
   61SAPC  H18X 4842   5.434   3.906   4.767 -0.1599 -0.1865 -0.0801
   61SAPC  H18Y 4843   5.392   4.047   4.878  2.4136 -1.5255  0.7213
   61SAPC  H18Z 4844   5.481   4.077   4.725 -0.6411  1.1658  1.0700
   62SAPC     N 4845   0.319   3.645   7.199 -0.6413 -0.2756  1.0672
   62SAPC   C12 4846   0.330   3.751   7.087  0.1887 -0.3689 -0.7176
   62SAPC  H12A 4847   0.435   3.773   7.087  0.2706 -0.6033  1.0225
   62SAPC  H12B 4848   0.283   3.843   7.119  2.1360  0.4471 -0.1055
   62SAPC   C13 4849   0.386   3.514   7.166 -0.1256 -0.1787  0.1710
   62SAPC  H13A 4850   0.401   3.453   7.254  0.2409 -0.4882 -0.1014
   62SAPC  H13B 4851   0.338   3.453   7.090 -1.7535  1.6365 -0.3299
   62SAPC  H13C 4852   0.484   3.536   7.127 -1.0263 -0.3195 -2.3469
   62SAPC   C14 4853   0.386   3.697   7.321  0.3988 -0.0037 -0.7395
   62SAPC  H14A 4854   0.327   3.775   7.366  0.8694  0.3230 -0.6786
   62SAPC  H14B 4855   0.412   3.621   7.393  0.9170  0.6206 -0.2432
   62SAPC  H14C 4856   0.485   3.734   7.297  1.5667 -1.2008  1.7806
   62SAPC   C15 4857   0.174   3.623   7.236  0.1402 -0.3296  0.0902
   62SAPC  H15A 4858   0.127   3.719   7.248  0.3728 -0.2404  0.2822
   62SAPC  H15B 4859   0.123   3.572   7.156 -1.8418  1.8560 -0.1412
   62SAPC  H15C 4860   0.173   3.569   7.329 -0.1970 -1.8217 -0.7487
   62SAPC   C11 4861   0.292   3.715   6.944 -0.0087  0.2253  0.3020
   62SAPC  H11A 4862   0.330   3.612   6.926 -0.7864  0.0984 -0.7074
   62SAPC  H11B 4863   0.336   3.789   6.874 -0.4687 -1.0389 -1.3841
   62SAPC     P 4864   0.065   3.606   6.855 -0.2602 -0.0998 -0.2827
   62SAPC   O13 4865   0.035   3.499   6.951  0.0093  0.5741 -0.8588
   62SAPC   O14 4866  -0.052   3.666   6.790 -0.4589 -0.3572  0.0816
   62SAPC   O12 4867   0.152   3.723   6.922  0.0172  0.3538  1.0575
   62SAPC   O11 4868   0.158   3.548   6.740 -0.4186  0.6665  0.7656
   62SAPC    C1 4869   0.120   3.422   6.677  0.0751  0.3361  0.0561
   62SAPC    HA 4870   0.208   3.356   6.664  1.8434  2.6163 -0.1721
   62SAPC    HB 4871   0.033   3.374   6.727 -0.2550  0.1270 -0.6948
   62SAPC    C2 4872   0.071   3.448   6.530 -0.6280 -0.1944  0.2754
   62SAPC    HS 4873   0.031   3.351   6.492  0.0704 -1.2959  2.1969
   62SAPC   O21 4874   0.181   3.507   6.448  0.1817 -0.2498 -0.0919
   62SAPC   C21 4875   0.255   3.410   6.391  0.1586 -0.3427 -0.0548
   62SAPC   O22 4876   0.253   3.293   6.418 -0.7158 -0.2907 -0.0895
   62SAPC   C22 4877   0.338   3.481   6.280 -0.7276  0.3436  0.1770
   62SAPC   H2R 4878   0.387   3.563   6.336  0.6007 -0.1708 -0.2003
   62SAPC   H2S 4879   0.413   3.411   6.237 -1.4307  0.8321 -1.9536
   62SAPC    C3 4880  -0.045   3.544   6.519 -0.2119 -0.5870 -0.1819
   62SAPC    HX 4881  -0.019   3.645   6.560  1.2166 -0.5476 -1.1128
   62SAPC    HY 4882  -0.134   3.503   6.571 -1.3607 -3.2572 -3.8883
   62SAPC   O31 4883  -0.077   3.570   6.378 -0.4370  0.7447  0.1775
   62SAPC   C31 4884  -0.142   3.472   6.311  0.2590 -0.8179  0.2333
   62SAPC   O32 4885  -0.167   3.368   6.362  0.5593  0.6182  0.3114
   62SAPC   C32 4886  -0.187   3.524   6.168 -0.1619 -0.0592 -0.3622
   62SAPC   H2X 4887  -0.099   3.562   6.111 -0.6828  2.2452  0.2589
   62SAPC   H2Y 4888  -0.246   3.615   6.194 -2.1164 -1.6460  1.0386
   62SAPC   C23 4889   0.254   3.538   6.164  0.8719  0.4245 -0.1318
   62SAPC   H3R 4890   0.309   3.628   6.128 -0.4856  1.4760  0.3366
   62SAPC   H3S 4891   0.158   3.581   6.200 -0.1922 -0.8852 -1.2765
   62SAPC   C24 4892   0.229   3.448   6.041  0.4589  0.6662 -0.4781
   62SAPC   H4R 4893   0.330   3.428   6.000  0.8428 -0.3664  0.9047
   62SAPC   H4S 4894   0.181   3.506   5.959 -0.7655  0.1575 -0.1322
   62SAPC   C25 4895   0.159   3.316   6.082 -0.2158  0.1149  0.3490
   62SAPC   H5R 4896   0.061   3.323   6.131 -0.2530  0.3695  0.2370
   62SAPC   C26 4897   0.194   3.191   6.058 -0.2154 -0.1794  0.3216
   62SAPC   H6R 4898   0.121   3.111   6.072 -1.1079  0.6352  0.4369
   62SAPC   C27 4899   0.322   3.146   5.972  0.6985 -0.2055 -0.0671
   62SAPC   H7R 4900   0.396   3.229   5.973  1.4436 -0.8462 -0.7586
   62SAPC   H7S 4901   0.300   3.130   5.864  0.1260  1.1473 -0.1732
   62SAPC   C28 4902   0.374   3.026   6.047  0.0432  0.0074  0.6861
   62SAPC   H8R 4903   0.451   3.037   6.125 -2.0824  2.5698  2.6159
   62SAPC   C29 4904   0.325   2.902   6.019 -0.0844  0.4075 -0.7183
   62SAPC   H9R 4905   0.362   2.818   6.079 -0.8568  1.0906  0.7648
   62SAPC  C210 4906   0.213   2.853   5.938 -0.4155 -0.8350  0.1912
   62SAPC  H10R 4907   0.156   2.930   5.882 -0.8528  0.6859  2.5784
   62SAPC  H10S 4908   0.151   2.810   6.020  0.6663 -1.4325  0.7207
   62SAPC  C211 4909   0.248   2.745   5.842  0.6144 -0.4743  0.6559
   62SAPC  H11R 4910   0.256   2.653   5.901 -0.7614 -1.2657 -0.3304
   62SAPC  C212 4911   0.280   2.753   5.708 -0.2300  0.4622  0.3850
   62SAPC  H12R 4912   0.313   2.661   5.656 -1.1727  1.2026 -1.6196
   62SAPC  C213 4913   0.283   2.877   5.624 -0.6130  0.5288 -0.5540
   62SAPC  H13R 4914   0.377   2.882   5.564 -2.0726 -0.7222 -3.1504
   62SAPC  H13S 4915   0.286   2.968   5.687 -1.2886 -0.0731  0.3706
   62SAPC  C214 4916   0.165   2.887   5.524  0.1752 -0.8657  0.3931
   62SAPC  H14R 4917   0.092   2.959   5.561 -0.2797 -1.7512  1.2414
   62SAPC  C215 4918   0.170   2.849   5.394  0.0793  0.3239  0.3115
   62SAPC  H15R 4919   0.071   2.855   5.345  0.5298  3.3032 -0.3781
   62SAPC  C216 4920   0.277   2.772   5.325 -0.3751  0.1468 -0.1064
   62SAPC  H16R 4921   0.245   2.666   5.312 -0.1147  0.1349 -0.6995
   62SAPC  H16S 4922   0.372   2.769   5.382 -0.0138  0.1870 -0.6968
   62SAPC  C217 4923   0.319   2.833   5.188  0.0032  0.5880 -0.5045
   62SAPC  H17R 4924   0.336   2.941   5.208 -2.1471  0.7835  0.4498
   62SAPC  H17S 4925   0.220   2.825   5.140 -1.1562  1.2056  1.6558
   62SAPC  C218 4926   0.432   2.759   5.109 -0.4935  0.7203 -0.0088
   62SAPC  H18R 4927   0.423   2.651   5.085  1.0880  0.5507  0.0266
   62SAPC  H18S 4928   0.527   2.763   5.167  0.3825  3.5098 -1.4410
   62SAPC  C219 4929   0.462   2.814   4.972  0.0122 -0.4615 -0.0732
   62SAPC  H19R 4930   0.363   2.817   4.920 -0.6158  0.5666  1.1334
   62SAPC  H19S 4931   0.510   2.740   4.904  1.0040  0.8024 -0.8002
   62SAPC  C220 4932   0.549   2.934   4.967 -0.2079  0.2298  0.2461
   62SAPC  H20R 4933   0.534   3.015   5.041 -0.0702  1.7947 -1.3565
   62SAPC  H20S 4934   0.536   2.984   4.868  1.8109  0.3561  0.0078
   62SAPC  H20T 4935   0.657   2.912   4.973 -0.3559 -0.2843  1.2846
   62SAPC   C33 4936  -0.267   3.428   6.082 -0.8540  0.6604 -0.2334
   62SAPC   H3X 4937  -0.350   3.391   6.146 -1.5602  1.1712 -0.8508
   62SAPC   H3Y 4938  -0.200   3.347   6.044 -2.1578 -0.5735  0.0014
   62SAPC   C34 4939  -0.342   3.490   5.963 -0.1309  0.4668  0.3379
   62SAPC   H4X 4940  -0.274   3.543   5.893 -2.2756  1.1128 -1.3445
   62SAPC   H4Y 4941  -0.407   3.571   6.003 -1.4049  0.1057 -0.9190
   62SAPC   C35 4942  -0.416   3.384   5.877 -0.2121  0.1975  0.1114
   62SAPC   H5X 4943  -0.463   3.303   5.937 -2.3729 -0.4601 -2.2740
   62SAPC   H5Y 4944  -0.337   3.342   5.812 -0.7522 -0.2768 -0.2488
   62SAPC   C36 4945  -0.525   3.446   5.796  0.4901 -0.5646  0.0250
   62SAPC   H6X 4946  -0.591   3.493   5.872  0.4841  1.5889 -1.2429
   62SAPC   H6Y 4947  -0.592   3.362   5.766 -0.7553  0.4141 -0.0372
   62SAPC   C37 4948  -0.499   3.554   5.693  0.0247 -0.5037  0.2026
   62SAPC   H7X 4949  -0.447   3.629   5.756  0.4650 -0.1591 -0.5645
   62SAPC   H7Y 4950  -0.593   3.602   5.660 -1.8476 -2.2250  2.5922
   62SAPC   C38 4951  -0.392   3.523   5.583 -0.1242  0.2781  0.7847
   62SAPC   H8X 4952  -0.423   3.428   5.535  0.2180  0.5062  0.1108
   62SAPC   H8Y 4953  -0.303   3.502   5.646  0.6513  3.1863  0.7897
   62SAPC   C39 4954  -0.357   3.637   5.478 -0.7040 -0.5865 -0.2483
   62SAPC   H9X 4955  -0.255   3.626   5.436 -0.3528  1.1337  0.0761
   62SAPC   H9Y 4956  -0.357   3.734   5.532  1.4314 -0.1417 -0.9590
   62SAPC  C310 4957  -0.462   3.650   5.363 -0.5266 -0.0502  0.4548
   62SAPC  H10X 4958  -0.491   3.756   5.347  1.9605  0.2552 -3.5049
   62SAPC  H10Y 4959  -0.548   3.584   5.384 -0.9551  0.1136 -0.6917
   62SAPC  C311 4960  -0.392   3.604   5.227  0.2656 -0.1216  0.2716
   62SAPC  H11X 4961  -0.365   3.497   5.234  0.0533 -0.4123 -2.4096
   62SAPC  H11Y 4962  -0.294   3.656   5.216 -0.0612  1.2519  2.9783
   62SAPC  C312 4963  -0.477   3.629   5.099  0.9194  0.5005  0.8678
   62SAPC  H12X 4964  -0.576   3.583   5.116  1.9798 -2.1643  0.3525
   62SAPC  H12Y 4965  -0.425   3.576   5.017  2.3002 -0.2021  2.1343
   62SAPC  C313 4966  -0.499   3.777   5.069  0.1380  0.3771 -0.7204
   62SAPC  H13X 4967  -0.393   3.811   5.076  0.1726  0.4936 -1.6323
   62SAPC  H13Y 4968  -0.558   3.835   5.143  0.6504  2.3086 -1.7292
   62SAPC  C314 4969  -0.563   3.808   4.932 -0.2660 -0.1934 -0.7428
   62SAPC  H14X 4970  -0.558   3.918   4.921  1.2227 -0.3438 -1.9289
   62SAPC  H14Y 4971  -0.668   3.772   4.941 -1.0203  1.8997 -0.6180
   62SAPC  C315 4972  -0.502   3.753   4.806  0.7527 -0.0758 -0.1119
   62SAPC  H15X 4973  -0.519   3.644   4.817  0.7241  0.0038  0.7252
   62SAPC  H15Y 4974  -0.396   3.786   4.796  0.2697  1.6205  0.0027
   62SAPC  C316 4975  -0.568   3.782   4.674  0.2149 -0.2735 -0.1461
   62SAPC  H16X 4976  -0.502   3.728   4.603 -2.1136 -0.8149 -2.0158
   62SAPC  H16Y 4977  -0.559   3.890   4.649  0.4852  0.0243  1.1881
   62SAPC  C317 4978  -0.712   3.744   4.666  0.0171 -0.7147  0.6425
   62SAPC  H17X 4979  -0.783   3.804   4.726 -0.6870  1.4070 -2.0866
   62SAPC  H17Y 4980  -0.714   3.636   4.692  1.7069 -0.4695  1.9810
   62SAPC  C318 4981  -0.764   3.765   4.522 -0.1602 -0.3266  0.2618
   62SAPC  H18X 4982  -0.758   3.873   4.498  3.7741  0.1316  2.5580
   62SAPC  H18Y 4983  -0.873   3.747   4.505 -0.2284 -1.3513  1.6477
   62SAPC  H18Z 4984  -0.702   3.699   4.457 -0.0283  0.0083  0.0434
   63SAPC     N 4985   2.205   5.070   6.443  0.1665 -0.3380 -0.8726
   63SAPC   C12 4986   2.101   4.955   6.440 -0.5724  0.2008  1.0044
   63SAPC  H12A 4987   2.151   4.862   6.415 -1.0038  0.9965 -3.9201
   63SAPC  H12B 4988   2.039   4.970   6.353 -1.1139 -1.9996  0.9480
   63SAPC   C13 4989   2.286   5.048   6.569 -0.2618  0.3650  0.2466
   63SAPC  H13A 4990   2.218   5.034   6.652 -1.0217 -2.4712 -0.7186
   63SAPC  H13B 4991   2.342   4.956   6.556  0.1239  0.8342 -1.6213
   63SAPC  H13C 4992   2.358   5.127   6.579 -1.1301  1.2140 -0.0633
   63SAPC   C14 4993   2.298   5.077   6.329 -0.0509  0.1642  0.6244
   63SAPC  H14A 4994   2.342   4.979   6.319 -0.0685  0.2489 -0.3116
   63SAPC  H14B 4995   2.247   5.095   6.236  1.8013 -0.8005 -0.6220
   63SAPC  H14C 4996   2.373   5.154   6.342  0.7048 -0.6680  1.3214
   63SAPC   C15 4997   2.132   5.202   6.455  1.0366  0.3295  0.2716
   63SAPC  H15A 4998   2.037   5.199   6.404  0.2008 -1.1366  1.8150
   63SAPC  H15B 4999   2.105   5.221   6.557  1.7335  2.0684  0.1687
   63SAPC  H15C 5000   2.191   5.280   6.408  0.7633 -0.5573 -1.6568
   63SAPC   C11 5001   2.006   4.926   6.563 -0.6107  0.0092  0.1156
   63SAPC  H11A 5002   2.075   4.925   6.650 -0.9003 -0.5565  0.3511
   63SAPC  H11B 5003   1.956   4.827   6.555 -0.5448 -0.2857  2.4924
   63SAPC     P 5004   1.760   5.018   6.615 -0.0135  0.0881  0.5134
   63SAPC   O13 5005   1.733   4.899   6.695  0.1226 -0.2551  0.3726
   63SAPC   O14 5006   1.703   5.142   6.677 -0.3680 -0.1014  0.3978
   63SAPC   O12 5007   1.915   5.034   6.584  0.1059 -0.3743 -0.4887
   63SAPC   O11 5008   1.691   4.990   6.472  0.1038 -0.5753  0.0509
   63SAPC    C1 5009   1.663   4.862   6.418  0.1895  0.0217  0.2292
   63SAPC    HA 5010   1.760   4.815   6.389  0.7965  1.4016 -0.0500
   63SAPC    HB 5011   1.610   4.800   6.493 -2.6002  1.5701 -0.3243
   63SAPC    C2 5012   1.559   4.872   6.298 -0.0132 -0.3685 -0.1505
   63SAPC    HS 5013   1.515   4.771   6.287 -1.5069  0.2899 -0.5267
   63SAPC   O21 5014   1.609   4.917   6.172  0.3672  0.0306 -0.1278
   63SAPC   C21 5015   1.696   4.831   6.126  0.3932 -0.1181 -0.0453
   63SAPC   O22 5016   1.705   4.719   6.168  0.0283 -0.4376  0.4141
   63SAPC   C22 5017   1.759   4.875   5.996 -1.1149 -0.5690  0.4183
   63SAPC   H2R 5018   1.683   4.858   5.918  0.2952 -0.5907 -1.0011
   63SAPC   H2S 5019   1.782   4.983   6.012  2.8970 -1.1770 -0.1467
   63SAPC    C3 5020   1.447   4.969   6.334 -0.2394 -0.1394 -1.1378
   63SAPC    HX 5021   1.502   5.065   6.328 -0.6408  0.0325 -2.2928
   63SAPC    HY 5022   1.403   4.954   6.435 -0.2346 -1.6220 -1.3348
   63SAPC   O31 5023   1.328   4.979   6.240 -0.4264  0.0421  0.0190
   63SAPC   C31 5024   1.252   4.869   6.235 -0.3934  0.2671  0.1564
   63SAPC   O32 5025   1.280   4.763   6.287  0.4005  0.1619 -0.0172
   63SAPC   C32 5026   1.130   4.888   6.147  0.2497  0.6924 -0.1133
   63SAPC   H2X 5027   1.115   4.998   6.133 -1.9014  0.3099 -1.1970
   63SAPC   H2Y 5028   1.053   4.846   6.215  2.5347 -2.2651  0.8461
   63SAPC   C23 5029   1.896   4.807   5.967 -0.6556 -0.0918  0.2270
   63SAPC   H3R 5030   1.919   4.828   5.861  0.8153  0.5028  0.6341
   63SAPC   H3S 5031   1.893   4.698   5.987 -1.9605  0.3366  2.8535
   63SAPC   C24 5032   2.002   4.868   6.066 -0.3927 -0.4817  0.6352
   63SAPC   H4R 5033   1.984   4.829   6.169 -0.5022  2.1198  1.6774
   63SAPC   H4S 5034   1.995   4.978   6.080  0.0723 -0.4024  0.2801
   63SAPC   C25 5035   2.145   4.826   6.032 -0.2284  0.0869 -0.0304
   63SAPC   H5R 5036   2.177   4.723   6.054  0.7242  0.4141  0.1663
   63SAPC   C26 5037   2.238   4.919   6.004  0.2561  0.2125  0.0427
   63SAPC   H6R 5038   2.340   4.882   5.986 -0.2541 -2.4380  2.0496
   63SAPC   C27 5039   2.220   5.064   5.976 -0.4723  0.8273  0.7371
   63SAPC   H7R 5040   2.202   5.116   6.073  0.1363  0.4409  1.0638
   63SAPC   H7S 5041   2.124   5.087   5.925  0.1339  0.9182 -0.3896
   63SAPC   C28 5042   2.340   5.134   5.913 -0.1313  0.3008 -0.3632
   63SAPC   H8R 5043   2.430   5.111   5.973  0.4743  2.3654 -0.4007
   63SAPC   C29 5044   2.348   5.227   5.820 -0.1972  0.4008  0.1747
   63SAPC   H9R 5045   2.448   5.240   5.776  0.4444 -2.0182  0.7924
   63SAPC  C210 5046   2.226   5.282   5.740 -0.7357  0.5974  0.0566
   63SAPC  H10R 5047   2.159   5.344   5.804 -0.6808  1.3074 -0.5549
   63SAPC  H10S 5048   2.164   5.198   5.702 -0.6806  1.1641 -1.3673
   63SAPC  C211 5049   2.266   5.381   5.624 -0.6337  0.1555 -0.0204
   63SAPC  H11R 5050   2.308   5.476   5.660  0.5133 -1.4466  3.2872
   63SAPC  C212 5051   2.251   5.353   5.488  0.2412 -0.6639 -0.4249
   63SAPC  H12R 5052   2.270   5.432   5.414 -1.4909 -1.5751 -1.9207
   63SAPC  C213 5053   2.188   5.235   5.420  0.4011 -0.2185  0.8212
   63SAPC  H13R 5054   2.173   5.151   5.491  0.3874 -1.2979 -0.4380
   63SAPC  H13S 5055   2.262   5.207   5.342  0.1396  0.9656  0.1290
   63SAPC  C214 5056   2.056   5.269   5.356 -0.3099 -0.6169  0.3760
   63SAPC  H14R 5057   1.987   5.314   5.429 -0.7307 -0.0351 -0.3687
   63SAPC  C215 5058   2.009   5.211   5.246  0.5907  0.2918 -0.0697
   63SAPC  H15R 5059   1.905   5.233   5.217 -0.1979  1.1986  3.0250
   63SAPC  C216 5060   2.076   5.114   5.150 -0.1057  0.3217 -0.0032
   63SAPC  H16R 5061   2.026   5.015   5.153 -0.1383  0.0855 -3.7411
   63SAPC  H16S 5062   2.181   5.097   5.182 -0.0954 -0.5622 -0.4938
   63SAPC  C217 5063   2.087   5.168   5.005  0.2944 -0.4982 -0.2537
   63SAPC  H17R 5064   1.984   5.178   4.967  0.8732 -1.8404 -2.3585
   63SAPC  H17S 5065   2.144   5.093   4.945  2.0638 -0.1826  0.9549
   63SAPC  C218 5066   2.172   5.295   4.996  0.1892 -0.1581  0.6662
   63SAPC  H18R 5067   2.268   5.272   5.048  1.5716 -1.5314 -2.2107
   63SAPC  H18S 5068   2.107   5.371   5.043  0.0183  0.4723 -0.5517
   63SAPC  C219 5069   2.196   5.345   4.855 -0.6104 -0.5727 -0.1516
   63SAPC  H19R 5070   2.212   5.455   4.859 -0.6496 -0.5853  0.6289
   63SAPC  H19S 5071   2.109   5.331   4.788  0.4265 -1.5738 -1.3510
   63SAPC  C220 5072   2.321   5.279   4.792  0.1931  0.1892 -0.0678
   63SAPC  H20R 5073   2.413   5.300   4.851 -0.0842  0.1296  0.3968
   63SAPC  H20S 5074   2.337   5.325   4.693 -0.5349  0.1108 -0.2265
   63SAPC  H20T 5075   2.299   5.170   4.786 -1.2616  0.3375  1.5515
   63SAPC   C33 5076   1.129   4.819   6.012  0.1074  0.2878  0.1164
   63SAPC   H3X 5077   1.043   4.855   5.951  0.6852  0.2349 -0.7593
   63SAPC   H3Y 5078   1.092   4.714   6.002  2.0519 -0.3105 -1.8015
   63SAPC   C34 5079   1.255   4.830   5.922  0.9619 -0.9595  0.7222
   63SAPC   H4X 5080   1.350   4.795   5.967  1.8978 -0.7124 -0.9602
   63SAPC   H4Y 5081   1.249   4.938   5.901 -1.2399 -1.4369 -1.6072
   63SAPC   C35 5082   1.228   4.768   5.785 -0.3928  0.3527  0.0074
   63SAPC   H5X 5083   1.165   4.831   5.719 -0.7953 -0.5887 -0.5288
   63SAPC   H5Y 5084   1.177   4.671   5.801 -1.8972  1.3954  1.8744
   63SAPC   C36 5085   1.361   4.754   5.711  0.3099 -0.2396 -0.3598
   63SAPC   H6X 5086   1.442   4.695   5.759 -1.2975 -1.4592  0.9550
   63SAPC   H6Y 5087   1.411   4.852   5.694 -0.0504  0.0704  0.2921
   63SAPC   C37 5088   1.340   4.691   5.578 -0.8267 -0.4188 -0.4466
   63SAPC   H7X 5089   1.254   4.729   5.519 -0.5451 -1.0074 -1.2555
   63SAPC   H7Y 5090   1.316   4.585   5.600 -0.1806 -0.5648 -0.4115
   63SAPC   C38 5091   1.462   4.698   5.483  0.6429  0.5326 -0.1375
   63SAPC   H8X 5092   1.555   4.685   5.542 -1.1597  1.4631  3.1895
   63SAPC   H8Y 5093   1.460   4.803   5.448  1.6663  0.6967  0.2593
   63SAPC   C39 5094   1.435   4.608   5.367 -0.3573 -0.3948 -0.3610
   63SAPC   H9X 5095   1.337   4.626   5.319 -0.5686 -1.5224 -0.3816
   63SAPC   H9Y 5096   1.422   4.513   5.424 -5.8331  1.8385  2.9177
   63SAPC  C310 5097   1.540   4.610   5.255  0.0294 -0.3585  0.1516
   63SAPC  H10X 5098   1.636   4.595   5.309 -0.4876 -0.7447  0.9786
   63SAPC  H10Y 5099   1.541   4.706   5.200  2.7172 -0.4923 -0.1968
   63SAPC  C311 5100   1.509   4.498   5.150 -0.4628 -0.0554 -0.0387
   63SAPC  H11X 5101   1.401   4.510   5.128 -0.5448 -1.0097 -0.2056
   63SAPC  H11Y 5102   1.525   4.397   5.192 -2.6022  0.0173  1.1013
   63SAPC  C312 5103   1.602   4.516   5.030  0.5034  0.7893  0.5111
   63SAPC  H12X 5104   1.709   4.492   5.050  0.0865 -1.0545  0.6908
   63SAPC  H12Y 5105   1.590   4.614   4.979  0.6512  0.9080  0.7011
   63SAPC  C313 5106   1.563   4.417   4.914  0.0313 -0.7751  0.5757
   63SAPC  H13X 5107   1.544   4.320   4.965  0.0764 -1.9582 -1.5452
   63SAPC  H13Y 5108   1.637   4.395   4.834 -2.0241  1.3088 -2.0813
   63SAPC  C314 5109   1.437   4.468   4.839  0.4675  0.1814 -0.5243
   63SAPC  H14X 5110   1.447   4.571   4.799 -1.0705  0.2524 -0.8133
   63SAPC  H14Y 5111   1.356   4.472   4.915  0.3652  0.6675 -0.6538
   63SAPC  C315 5112   1.402   4.376   4.722  0.2066 -0.0770 -0.0536
   63SAPC  H15X 5113   1.297   4.403   4.698 -0.4775 -1.5435  1.1762
   63SAPC  H15Y 5114   1.407   4.270   4.753  1.9222 -0.4166 -1.3074
   63SAPC  C316 5115   1.510   4.383   4.611  0.1239  0.0170 -0.8272
   63SAPC  H16X 5116   1.606   4.345   4.653  0.1877  2.4746  1.5195
   63SAPC  H16Y 5117   1.517   4.490   4.584  0.5021  0.0575 -0.5856
   63SAPC  C317 5118   1.486   4.313   4.484  0.2789  0.0848 -0.3774
   63SAPC  H17X 5119   1.456   4.209   4.509  1.9309 -0.8619 -2.0246
   63SAPC  H17Y 5120   1.582   4.320   4.429  0.5154  2.2428  0.2401
   63SAPC  C318 5121   1.370   4.378   4.404  0.0030 -0.6712 -0.3556
   63SAPC  H18X 5122   1.420   4.471   4.369 -2.3719  0.7220 -0.3053
   63SAPC  H18Y 5123   1.282   4.401   4.468 -0.9623 -0.7927 -1.5921
   63SAPC  H18Z 5124   1.345   4.312   4.318  2.2712  0.2497 -1.8051
   64SAPC     N 5125   6.052   5.072   6.783  0.0578 -0.1593 -0.1465
   64SAPC   C12 5126   5.957   5.169   6.712 -0.0071 -0.1786  0.3395
   64SAPC  H12A 5127   5.941   5.251   6.781  1.4329 -0.5742  1.1924
   64SAPC  H12B 5128   5.862   5.116   6.706  1.0388 -2.3201  1.5022
   64SAPC   C13 5129   5.982   5.019   6.904 -0.6661 -0.7740 -0.1134
   64SAPC  H13A 5130   5.885   4.976   6.883 -1.4311  1.4036 -1.3853
   64SAPC  H13B 5131   6.049   4.958   6.962 -0.0265  1.8463  2.1059
   64SAPC  H13C 5132   5.972   5.106   6.968  4.2818  0.7443 -0.9479
   64SAPC   C14 5133   6.066   4.957   6.687  0.0628 -0.5598  0.1547
   64SAPC  H14A 5134   6.113   4.999   6.598 -0.1496 -2.3511 -0.8422
   64SAPC  H14B 5135   6.134   4.888   6.734 -0.3870 -2.0356 -1.2722
   64SAPC  H14C 5136   5.974   4.904   6.671  0.6897 -1.6587  0.0981
   64SAPC   C15 5137   6.177   5.142   6.808 -0.7404  0.1202  0.1782
   64SAPC  H15A 5138   6.168   5.223   6.878  0.9423 -0.9189  1.7008
   64SAPC  H15B 5139   6.263   5.086   6.842  1.8223  2.4307 -2.0468
   64SAPC  H15C 5140   6.213   5.181   6.714 -0.6356 -2.6089 -0.9907
   64SAPC   C11 5141   5.996   5.233   6.574  0.4782  0.7145  0.3459
   64SAPC  H11A 5142   5.992   5.151   6.499  1.4789  1.2454 -0.2966
   64SAPC  H11B 5143   6.101   5.268   6.575  1.0270 -0.5422 -2.4452
   64SAPC     P 5144   5.953   5.496   6.557  0.0555 -0.3108  0.4021
   64SAPC   O13 5145   5.839   5.588   6.573 -0.8048 -0.1457  0.2546
   64SAPC   O14 5146   6.068   5.508   6.651  0.2784  0.1472 -0.0631
   64SAPC   O12 5147   5.899   5.341   6.546 -0.7965  0.2872  0.4186
   64SAPC   O11 5148   6.004   5.512   6.405  0.1400  0.4824  0.0264
   64SAPC    C1 5149   5.946   5.475   6.282  0.7224 -0.1627 -0.5343
   64SAPC    HA 5150   5.836   5.461   6.290  0.6927  0.1883 -0.2948
   64SAPC    HB 5151   5.953   5.560   6.210 -1.8738 -0.5904 -1.3762
   64SAPC    C2 5152   6.014   5.359   6.207  1.0597  0.1632 -0.4115
   64SAPC    HS 5153   6.014   5.277   6.282 -0.8044  0.9650  0.5282
   64SAPC   O21 5154   6.145   5.398   6.170 -0.0250  0.3079  0.1171
   64SAPC   C21 5155   6.237   5.296   6.185  0.6171  0.0013 -0.3162
   64SAPC   O22 5156   6.217   5.186   6.237  0.0800 -0.1607  0.9194
   64SAPC   C22 5157   6.369   5.350   6.133 -0.0315  0.4800  0.9189
   64SAPC   H2R 5158   6.358   5.365   6.023 -1.2158 -1.1774  0.7777
   64SAPC   H2S 5159   6.393   5.437   6.197  1.3703  1.1199 -0.3953
   64SAPC    C3 5160   5.936   5.317   6.079  0.4844 -0.1313  0.5414
   64SAPC    HX 5161   5.835   5.291   6.117 -0.4043  0.8379 -1.0320
   64SAPC    HY 5162   5.984   5.226   6.036  2.5409  1.0423  0.2395
   64SAPC   O31 5163   5.924   5.429   5.988  0.3772  0.2212  0.0745
   64SAPC   C31 5164   6.019   5.429   5.895 -0.7204 -0.2933 -0.2023
   64SAPC   O32 5165   6.105   5.349   5.879 -0.3516  0.8145 -0.1111
   64SAPC   C32 5166   5.983   5.546   5.809 -0.0544  0.1336  0.3929
   64SAPC   H2X 5167   6.017   5.642   5.855  1.9227  0.7693 -2.1622
   64SAPC   H2Y 5168   5.875   5.561   5.789  0.1647  0.9157 -0.2891
   64SAPC   C23 5169   6.485   5.253   6.143 -0.7770 -0.1585  0.8827
   64SAPC   H3R 5170   6.456   5.161   6.086  1.0751  0.2895 -0.8976
   64SAPC   H3S 5171   6.510   5.234   6.249 -1.8667 -1.7351  0.8974
   64SAPC   C24 5172   6.613   5.308   6.074  0.1878 -0.1355 -0.0444
   64SAPC   H4R 5173   6.582   5.334   5.970  0.8538 -0.3380 -0.3032
   64SAPC   H4S 5174   6.696   5.235   6.065  1.1798  0.7898  1.2588
   64SAPC   C25 5175   6.652   5.440   6.137  0.3895 -0.2808  0.5415
   64SAPC   H5R 5176   6.692   5.420   6.238 -0.0338  0.8221  0.9368
   64SAPC   C26 5177   6.625   5.567   6.097  0.0094 -0.0102 -0.3665
   64SAPC   H6R 5178   6.666   5.645   6.162  1.2315  0.3535 -1.5214
   64SAPC   C27 5179   6.551   5.608   5.964  0.6145 -0.4412 -0.4563
   64SAPC   H7R 5180   6.531   5.524   5.894  1.9231 -1.9396  0.8871
   64SAPC   H7S 5181   6.624   5.674   5.913  0.6267  0.5938  0.8632
   64SAPC   C28 5182   6.426   5.685   5.998 -0.7642 -0.1957 -0.7493
   64SAPC   H8R 5183   6.377   5.696   6.096 -0.2051 -3.5757  0.0346
   64SAPC   C29 5184   6.366   5.762   5.909  0.7293  0.1674  0.5543
   64SAPC   H9R 5185   6.275   5.817   5.937 -0.3766 -1.1635 -0.3206
   64SAPC  C210 5186   6.413   5.794   5.768  0.3433 -0.1647  0.8702
   64SAPC  H10R 5187   6.344   5.742   5.698  0.7590  1.3589 -0.7529
   64SAPC  H10S 5188   6.518   5.762   5.749  0.4668 -0.1209  1.4654
   64SAPC  C211 5189   6.396   5.943   5.750  0.4562 -0.2171  0.0093
   64SAPC  H11R 5190   6.364   5.997   5.841  1.4579 -0.8032  0.7349
   64SAPC  C212 5191   6.406   6.006   5.633  0.4860 -0.3676  0.2646
   64SAPC  H12R 5192   6.376   6.111   5.628  2.7852  0.2777 -1.9767
   64SAPC  C213 5193   6.431   5.944   5.495  0.3240 -0.0310  0.0503
   64SAPC  H13R 5194   6.350   5.955   5.419 -0.5491  1.7263  1.1887
   64SAPC  H13S 5195   6.440   5.835   5.513 -1.2645 -0.3460 -0.8665
   64SAPC  C214 5196   6.563   5.997   5.434  0.6014  0.2008  0.2162
   64SAPC  H14R 5197   6.649   6.006   5.502 -0.3390  1.5251  1.2712
   64SAPC  C215 5198   6.596   6.001   5.301  0.2062 -0.7777  0.1609
   64SAPC  H15R 5199   6.696   6.040   5.274 -0.8407 -0.7214 -4.5421
   64SAPC  C216 5200   6.501   5.977   5.181  0.5381  0.1693  0.0748
   64SAPC  H16R 5201   6.414   6.046   5.189 -0.4577 -1.0591  0.0237
   64SAPC  H16S 5202   6.453   5.881   5.207 -1.0048  1.1426  0.9478
   64SAPC  C217 5203   6.574   5.965   5.040  0.1879  0.6225  0.5642
   64SAPC  H17R 5204   6.638   5.875   5.053 -0.3392  0.2379  0.4855
   64SAPC  H17S 5205   6.630   6.057   5.012 -0.4850  0.8409 -0.0902
   64SAPC  C218 5206   6.476   5.919   4.922  0.1182 -0.1722 -0.5598
   64SAPC  H18R 5207   6.391   5.991   4.918  0.8669  1.2129  3.7832
   64SAPC  H18S 5208   6.433   5.819   4.946  1.7971 -1.0279 -0.9674
   64SAPC  C219 5209   6.545   5.924   4.785 -0.1674 -0.2453 -0.3663
   64SAPC  H19R 5210   6.647   5.887   4.811 -0.1014 -0.2998 -0.6867
   64SAPC  H19S 5211   6.548   6.028   4.748 -2.0756  0.5230  1.4656
   64SAPC  C220 5212   6.482   5.853   4.673  0.2035 -0.4254  0.4100
   64SAPC  H20R 5213   6.524   5.750   4.683  1.2308  0.0212  0.7943
   64SAPC  H20S 5214   6.514   5.890   4.573 -1.7940  2.6446  0.7888
   64SAPC  H20T 5215   6.372   5.860   4.663  0.3961  0.5872 -1.4455
   64SAPC   C33 5216   6.057   5.545   5.675  0.7790 -0.2746 -0.7525
   64SAPC   H3X 5217   6.042   5.444   5.631 -2.0561  0.3348 -1.4110
   64SAPC   H3Y 5218   6.164   5.568   5.697  0.6656  0.3885 -0.8801
   64SAPC   C34 5219   5.995   5.644   5.573 -0.4981 -0.2680 -0.2685
   64SAPC   H4X 5220   5.961   5.737   5.624 -0.8420 -0.2592 -0.5090
   64SAPC   H4Y 5221   5.901   5.592   5.543  0.1543 -1.3894 -0.3951
   64SAPC   C35 5222   6.086   5.673   5.447  0.1950 -0.8214 -0.4754
   64SAPC   H5X 5223   6.129   5.577   5.413  1.2977  0.9359 -4.6856
   64SAPC   H5Y 5224   6.172   5.732   5.485  0.3440 -1.3069 -0.0568
   64SAPC   C36 5225   6.009   5.750   5.340  0.1293  0.5677 -0.5153
   64SAPC   H6X 5226   5.948   5.828   5.391 -2.5627 -1.9099  0.3688
   64SAPC   H6Y 5227   5.938   5.688   5.280  1.4838 -0.0753 -1.5001
   64SAPC   C37 5228   6.094   5.818   5.238 -0.4194  0.4686  0.6998
   64SAPC   H7X 5229   6.141   5.734   5.182 -1.1230 -1.3750  2.7416
   64SAPC   H7Y 5230   6.177   5.879   5.280  0.4184 -0.6426  0.7145
   64SAPC   C38 5231   6.027   5.899   5.126  0.0200  0.0882 -0.9365
   64SAPC   H8X 5232   5.974   5.981   5.179 -0.5155 -0.6604 -0.2888
   64SAPC   H8Y 5233   5.951   5.835   5.077 -0.1394  0.4066 -1.1127
   64SAPC   C39 5234   6.127   5.969   5.032  0.4060 -0.0266 -0.1721
   64SAPC   H9X 5235   6.189   5.890   4.986  1.7094  0.8114  0.0889
   64SAPC   H9Y 5236   6.205   6.024   5.089 -0.7247  0.4662  0.9586
   64SAPC  C310 5237   6.062   6.065   4.932 -0.0438  0.1308  0.7319
   64SAPC  H10X 5238   6.044   6.166   4.975  0.6247 -0.3522  2.2254
   64SAPC  H10Y 5239   5.965   6.021   4.901  0.1167 -0.0918  0.5469
   64SAPC  C311 5240   6.158   6.081   4.805  0.8134 -0.2660 -0.1597
   64SAPC  H11X 5241   6.175   5.977   4.769  2.0578 -0.4125  0.7823
   64SAPC  H11Y 5242   6.246   6.140   4.838 -0.0373  1.3644 -0.7215
   64SAPC  C312 5243   6.092   6.172   4.696  0.6637 -0.0278 -0.1540
   64SAPC  H12X 5244   6.098   6.274   4.740  1.6545 -0.9444  2.0126
   64SAPC  H12Y 5245   5.983   6.152   4.687  0.3168  0.9624  1.4573
   64SAPC  C313 5246   6.152   6.184   4.553 -0.5495 -0.0711 -0.5550
   64SAPC  H13X 5247   6.195   6.085   4.529 -1.7311  0.0382 -3.6093
   64SAPC  H13Y 5248   6.237   6.254   4.550 -0.1056 -0.4241  1.6739
   64SAPC  C314 5249   6.050   6.202   4.441 -0.3088  0.5260 -0.1129
   64SAPC  H14X 5250   6.000   6.295   4.477  0.0525  1.5215 -2.0668
   64SAPC  H14Y 5251   5.970   6.125   4.449 -2.0100  2.3232  1.1282
   64SAPC  C315 5252   6.127   6.212   4.316  0.1736  0.6777  0.4312
   64SAPC  H15X 5253   6.197   6.127   4.308 -0.3396  0.3487 -0.8010
   64SAPC  H15Y 5254   6.205   6.289   4.332  0.5559  0.4093 -0.0965
   64SAPC  C316 5255   6.032   6.235   4.196  0.4607  0.0049 -0.0873
   64SAPC  H16X 5256   5.969   6.323   4.219 -0.8974 -0.9117 -0.2028
   64SAPC  H16Y 5257   5.981   6.138   4.184 -0.3835  0.7164 -3.1029
   64SAPC  C317 5258   6.107   6.261   4.067  0.2622  0.2884 -0.1641
   64SAPC  H17X 5259   6.157   6.169   4.029 -1.1065 -0.2470 -0.7256
   64SAPC  H17Y 5260   6.180   6.343   4.080 -0.6591  1.2645 -0.9664
   64SAPC  C318 5261   6.012   6.295   3.953  0.0128  0.3499  0.8320
   64SAPC  H18X 5262   6.069   6.302   3.858  0.7313  0.0412  1.2244
   64SAPC  H18Y 5263   5.956   6.388   3.976 -3.1160 -1.1737 -0.1020
   64SAPC  H18Z 5264   5.938   6.213   3.940  0.0717  0.4115  0.0989
   65SAPC     N 5265   4.967   0.070   2.191  0.1283 -0.0558  0.3369
   65SAPC   C12 5266   4.935   0.100   2.338 -0.3123 -0.4205 -0.4536
   65SAPC  H12A 5267   4.882   0.194   2.333  2.5285  1.4637  1.4846
   65SAPC  H12B 5268   5.035   0.115   2.376  0.3278 -0.1214 -2.1722
   65SAPC   C13 5269   4.845   0.071   2.110 -0.4473  1.1388  0.4968
   65SAPC  H13A 5270   4.796   0.167   2.106  0.0946  1.4905  1.7801
   65SAPC  H13B 5271   4.866   0.044   2.008 -2.6463  0.0563  0.2907
   65SAPC  H13C 5272   4.764   0.009   2.143 -0.2517  0.6645  0.0959
   65SAPC   C14 5273   5.059   0.182   2.144  0.1144 -0.4471  0.6565
   65SAPC  H14A 5274   5.021   0.281   2.159 -1.4909 -0.8910 -0.2537
   65SAPC  H14B 5275   5.158   0.186   2.187  0.1900 -0.5640  0.4973
   65SAPC  H14C 5276   5.073   0.170   2.037 -2.0368  0.7710  0.1905
   65SAPC   C15 5277   5.042  -0.058   2.184 -0.8959  1.2568  0.0731
   65SAPC  H15A 5278   5.115  -0.067   2.263 -0.8431  2.1652  0.1392
   65SAPC  H15B 5279   4.984  -0.148   2.200  0.1449  0.6002  0.2133
   65SAPC  H15C 5280   5.104  -0.073   2.097  0.6677  1.5586  1.1024
   65SAPC   C11 5281   4.855  -0.006   2.409  0.7238  0.3462 -0.2285
   65SAPC  H11A 5282   4.834   0.023   2.514  0.6831 -1.0958  0.1852
   65SAPC  H11B 5283   4.922  -0.094   2.420  0.9172  0.5874  0.5866
   65SAPC     P 5284   4.599   0.023   2.381 -0.0380  0.0299  0.3410
   65SAPC   O13 5285   4.608   0.159   2.328  0.2622 -0.5086 -0.1098
   65SAPC   O14 5286   4.492  -0.062   2.328  0.5425 -0.1837  0.5133
   65SAPC   O12 5287   4.734  -0.047   2.346 -0.5923 -0.3039 -0.8866
   65SAPC   O11 5288   4.581   0.033   2.536  0.0837  0.3672 -0.1586
   65SAPC    C1 5289   4.589  -0.084   2.617 -0.2573  0.1454  0.3609
   65SAPC    HA 5290   4.520  -0.169   2.596 -1.0600  0.4541  1.6408
   65SAPC    HB 5291   4.693  -0.122   2.609  0.3337  0.9684  3.0137
   65SAPC    C2 5292   4.570  -0.050   2.766  0.7092 -0.3602 -0.0954
   65SAPC    HS 5293   4.555  -0.144   2.824  0.0996 -1.0059 -1.2486
   65SAPC   O21 5294   4.464   0.040   2.789 -0.1208 -0.3984 -0.8339
   65SAPC   C21 5295   4.342  -0.005   2.801  0.3641  0.5009  0.1464
   65SAPC   O22 5296   4.314  -0.122   2.774 -0.3885  0.1687 -0.0646
   65SAPC   C22 5297   4.237   0.081   2.864  0.1228 -0.5237  0.4106
   65SAPC   H2R 5298   4.183   0.016   2.937 -1.0481 -1.7896 -1.5184
   65SAPC   H2S 5299   4.282   0.160   2.929 -0.0877 -0.0330 -0.0353
   65SAPC    C3 5300   4.705   0.021   2.810  0.2588  0.0850 -0.3764
   65SAPC    HX 5301   4.718   0.117   2.757  0.6590 -0.4882 -1.3464
   65SAPC    HY 5302   4.791  -0.042   2.777  0.5325 -0.1054  0.6569
   65SAPC   O31 5303   4.711   0.041   2.951  0.0356  0.3788  0.2218
   65SAPC   C31 5304   4.657   0.154   3.004 -0.2072 -0.0776  0.1298
   65SAPC   O32 5305   4.613   0.251   2.949 -0.3096 -0.6021  0.4350
   65SAPC   C32 5306   4.652   0.121   3.153 -0.1990  0.4699  0.0541
   65SAPC   H2X 5307   4.746   0.074   3.188 -0.2662 -0.3256 -0.8094
   65SAPC   H2Y 5308   4.571   0.046   3.165 -0.1108  0.3294 -0.2166
   65SAPC   C23 5309   4.121   0.150   2.773  0.0615 -0.3351  1.3293
   65SAPC   H3R 5310   4.111   0.091   2.679 -0.9773  4.5129 -2.0036
   65SAPC   H3S 5311   4.150   0.249   2.733  0.9150 -1.0712  0.0412
   65SAPC   C24 5312   3.995   0.155   2.855  0.1224  0.6931  0.5490
   65SAPC   H4R 5313   4.011   0.218   2.945  1.9588  3.0058 -1.2834
   65SAPC   H4S 5314   3.977   0.053   2.894 -3.4147  2.1732  3.4390
   65SAPC   C25 5315   3.867   0.200   2.791 -0.6972  0.5538  0.2692
   65SAPC   H5R 5316   3.868   0.291   2.729 -0.3498  2.0639  2.3845
   65SAPC   C26 5317   3.745   0.141   2.812  0.9554  0.5983 -0.1210
   65SAPC   H6R 5318   3.662   0.177   2.749  0.4280 -1.1376 -0.4613
   65SAPC   C27 5319   3.709   0.032   2.905  0.2947  0.6572  0.0275
   65SAPC   H7R 5320   3.657   0.073   2.995 -2.9857  1.4725 -2.0652
   65SAPC   H7S 5321   3.797  -0.025   2.941  2.1675  1.0431 -3.5211
   65SAPC   C28 5322   3.604  -0.069   2.853  0.6530  0.0263 -0.5501
   65SAPC   H8R 5323   3.618  -0.116   2.755 -1.8015 -1.2829 -0.3694
   65SAPC   C29 5324   3.511  -0.131   2.924  0.4548  0.5994  0.6424
   65SAPC   H9R 5325   3.452  -0.213   2.883  0.2066  2.1011 -2.2360
   65SAPC  C210 5326   3.462  -0.093   3.064 -0.8453 -0.1100 -0.1759
   65SAPC  H10R 5327   3.450   0.016   3.048 -1.7470 -0.4560 -2.2030
   65SAPC  H10S 5328   3.543  -0.105   3.139 -2.2398  0.6429  1.4948
   65SAPC  C211 5329   3.340  -0.175   3.113  0.3687 -0.6778 -0.1280
   65SAPC  H11R 5330   3.356  -0.284   3.125 -3.8145 -1.2231  2.4292
   65SAPC  C212 5331   3.229  -0.123   3.170  0.0747 -0.4815 -0.7622
   65SAPC  H12R 5332   3.152  -0.198   3.195 -2.1850  2.2224  1.0103
   65SAPC  C213 5333   3.193   0.023   3.194 -0.1463 -0.2279 -0.3416
   65SAPC  H13R 5334   3.266   0.097   3.153  1.0224 -1.0078  0.3004
   65SAPC  H13S 5335   3.188   0.040   3.304  2.8716 -0.1425 -0.1439
   65SAPC  C214 5336   3.074   0.069   3.127  0.4917  0.0903 -0.4501
   65SAPC  H14R 5337   3.084   0.095   3.020  1.4453 -1.4483 -0.7680
   65SAPC  C215 5338   2.950   0.085   3.177  0.7974  0.7037 -0.6537
   65SAPC  H15R 5339   2.873   0.119   3.107 -2.5682  1.1748  2.9616
   65SAPC  C216 5340   2.902   0.063   3.315 -0.2203 -0.0117 -0.0203
   65SAPC  H16R 5341   2.888   0.163   3.362 -2.6969 -0.5798  0.5937
   65SAPC  H16S 5342   2.974   0.004   3.376  0.4725  1.0361  0.2066
   65SAPC  C217 5343   2.768  -0.014   3.313 -0.8255 -0.0414 -0.3218
   65SAPC  H17R 5344   2.778  -0.109   3.256 -1.1009  0.2932 -0.9328
   65SAPC  H17S 5345   2.682   0.043   3.274 -2.1914  0.5700  3.2075
   65SAPC  C218 5346   2.731  -0.059   3.455  0.1418 -0.6038 -0.2385
   65SAPC  H18R 5347   2.817  -0.123   3.484  0.0154 -1.1313 -0.9769
   65SAPC  H18S 5348   2.645  -0.130   3.451 -0.7952  0.5059 -0.0872
   65SAPC  C219 5349   2.682   0.054   3.541 -0.4951 -0.5278  0.4181
   65SAPC  H19R 5350   2.597   0.103   3.488  0.4306  0.8418  0.1352
   65SAPC  H19S 5351   2.768   0.124   3.554  0.2412 -0.6858 -2.6678
   65SAPC  C220 5352   2.634   0.024   3.685  0.0073 -0.0383 -0.1621
   65SAPC  H20R 5353   2.576   0.113   3.716  0.6888  1.1216 -2.0723
   65SAPC  H20S 5354   2.712  -0.003   3.759 -2.0426 -1.9037  1.4503
   65SAPC  H20T 5355   2.544  -0.042   3.679 -1.4116  1.7084  1.1134
   65SAPC   C33 5356   4.603   0.247   3.226  0.6531  0.3237 -0.8900
   65SAPC   H3X 5357   4.502   0.275   3.190  0.0092  0.9846  1.3005
   65SAPC   H3Y 5358   4.673   0.334   3.228  1.6226 -0.4449  1.2096
   65SAPC   C34 5359   4.593   0.199   3.372  0.2872  0.3900 -0.5429
   65SAPC   H4X 5360   4.698   0.169   3.392  0.1469  0.8182  0.9430
   65SAPC   H4Y 5361   4.529   0.108   3.382  0.8148  0.0350 -0.3383
   65SAPC   C35 5362   4.538   0.305   3.464  1.2924  0.3349 -0.4577
   65SAPC   H5X 5363   4.430   0.320   3.439  1.3216  3.9472  0.9870
   65SAPC   H5Y 5364   4.578   0.405   3.439 -2.3059  2.5142  1.5869
   65SAPC   C36 5365   4.559   0.279   3.611 -0.5282  0.4245  1.0742
   65SAPC   H6X 5366   4.666   0.295   3.634 -0.2251  1.0315 -0.6275
   65SAPC   H6Y 5367   4.520   0.175   3.623  0.3153 -0.2442 -1.3893
   65SAPC   C37 5368   4.482   0.383   3.694 -0.2243 -0.0348 -0.7172
   65SAPC   H7X 5369   4.522   0.480   3.658 -0.6423  0.5438  0.3586
   65SAPC   H7Y 5370   4.501   0.367   3.802  0.3492  1.2312 -0.6091
   65SAPC   C38 5371   4.325   0.378   3.685 -0.1864  0.2970 -0.2992
   65SAPC   H8X 5372   4.294   0.411   3.583  1.3914 -0.3624 -1.0188
   65SAPC   H8Y 5373   4.293   0.466   3.745  0.5325 -0.4578  1.2420
   65SAPC   C39 5374   4.256   0.250   3.752 -0.5579  0.5414 -0.4120
   65SAPC   H9X 5375   4.319   0.160   3.734  3.0039  2.6633  0.5163
   65SAPC   H9Y 5376   4.152   0.229   3.718 -0.2671 -1.2682 -0.3039
   65SAPC  C310 5377   4.240   0.274   3.907  0.1228 -0.0135  0.3775
   65SAPC  H10X 5378   4.201   0.378   3.913  0.8267  0.3546 -1.1329
   65SAPC  H10Y 5379   4.345   0.269   3.945 -0.0936  1.0944  1.1581
   65SAPC  C311 5380   4.143   0.170   3.966 -0.2755 -0.5622 -0.4243
   65SAPC  H11X 5381   4.193   0.070   3.968 -2.8840 -1.9201  1.6283
   65SAPC  H11Y 5382   4.065   0.155   3.888  0.0447  1.9164 -1.3305
   65SAPC  C312 5383   4.082   0.200   4.103  0.2717 -0.4043  0.1484
   65SAPC  H12X 5384   4.165   0.247   4.160  1.0757 -0.8743 -0.6048
   65SAPC  H12Y 5385   4.047   0.101   4.142  1.7652 -1.5241 -1.2131
   65SAPC  C313 5386   3.954   0.288   4.091 -0.3235  0.7622  0.2294
   65SAPC  H13X 5387   3.885   0.210   4.051  1.9942  0.1373 -2.9308
   65SAPC  H13Y 5388   3.975   0.375   4.026  4.7205 -0.1366  0.2936
   65SAPC  C314 5389   3.901   0.340   4.230  0.5453 -0.6568  0.5623
   65SAPC  H14X 5390   3.953   0.437   4.236  2.1764 -1.5901  3.0707
   65SAPC  H14Y 5391   3.940   0.285   4.318  0.0706 -1.1183  0.4904
   65SAPC  C315 5392   3.750   0.349   4.217  0.1009  0.0290 -0.3075
   65SAPC  H15X 5393   3.713   0.251   4.178 -0.3855 -0.2344  0.7949
   65SAPC  H15Y 5394   3.735   0.427   4.139 -2.3080 -0.7752 -0.7099
   65SAPC  C316 5395   3.681   0.385   4.348  0.4785 -0.5006 -0.7563
   65SAPC  H16X 5396   3.716   0.325   4.435 -0.2190  2.9406  2.1312
   65SAPC  H16Y 5397   3.573   0.367   4.327  0.0246  0.8467  0.2762
   65SAPC  C317 5398   3.681   0.530   4.392  0.1306  0.1985 -0.0180
   65SAPC  H17X 5399   3.782   0.558   4.429  0.7385 -1.1595 -0.5766
   65SAPC  H17Y 5400   3.612   0.552   4.477  1.0519  0.9705  0.5490
   65SAPC  C318 5401   3.649   0.629   4.281  0.3433 -0.4829  0.0852
   65SAPC  H18X 5402   3.653   0.735   4.315  0.9605 -0.7134  0.7468
   65SAPC  H18Y 5403   3.547   0.602   4.246  0.3862 -1.1779  0.4721
   65SAPC  H18Z 5404   3.718   0.615   4.194  1.1688  1.2150  0.4281
   66SAPC     N 5405   6.557   3.146   1.841  0.2498 -0.9414  0.6923
   66SAPC   C12 5406   6.639   3.020   1.864 -0.4471  0.5264  0.0052
   66SAPC  H12A 5407   6.647   2.975   1.766  1.7531 -0.3999  0.5503
   66SAPC  H12B 5408   6.583   2.954   1.930  0.0599  1.4920  1.4542
   66SAPC   C13 5409   6.628   3.239   1.744  0.0389  0.5423  0.3691
   66SAPC  H13A 5410   6.731   3.239   1.778  0.6146 -1.9821 -1.1359
   66SAPC  H13B 5411   6.631   3.185   1.651  0.7863  0.8155  0.2243
   66SAPC  H13C 5412   6.577   3.334   1.735 -0.9546  0.0374  0.5402
   66SAPC   C14 5413   6.429   3.104   1.778 -0.2813  0.2128  0.1996
   66SAPC  H14A 5414   6.374   3.033   1.837  0.0087 -0.5383 -0.4187
   66SAPC  H14B 5415   6.363   3.185   1.750 -0.7554 -0.0804  0.4613
   66SAPC  H14C 5416   6.447   3.050   1.686 -2.6979 -0.3212 -0.0135
   66SAPC   C15 5417   6.506   3.220   1.960  0.5417 -0.8603  0.8246
   66SAPC  H15A 5418   6.430   3.164   2.011 -1.1015 -1.3403 -1.9432
   66SAPC  H15B 5419   6.595   3.245   2.016  0.6127 -0.7330  0.6574
   66SAPC  H15C 5420   6.458   3.311   1.927 -0.5742 -1.8864 -0.5148
   66SAPC   C11 5421   6.788   3.031   1.908 -0.8711 -0.1505  0.3217
   66SAPC  H11A 5422   6.838   3.104   1.841 -2.8545  1.1709  0.1852
   66SAPC  H11B 5423   6.833   2.930   1.901  0.8179  0.6034 -0.1826
   66SAPC     P 5424   6.801   2.988   2.168  0.2384 -0.2530  0.3689
   66SAPC   O13 5425   6.663   2.936   2.195  0.0678  0.0015  0.1690
   66SAPC   O14 5426   6.915   2.898   2.163 -0.0367 -0.9533 -0.4856
   66SAPC   O12 5427   6.794   3.081   2.042  0.1156 -0.1197 -0.3431
   66SAPC   O11 5428   6.837   3.094   2.275 -0.2752  0.1380 -0.5119
   66SAPC    C1 5429   6.798   3.232   2.276 -0.2168 -0.0630  0.0642
   66SAPC    HA 5430   6.858   3.289   2.203 -0.3474  0.0744  0.0647
   66SAPC    HB 5431   6.689   3.249   2.265  0.0757  1.9627 -0.0721
   66SAPC    C2 5432   6.810   3.309   2.416  0.8549  0.6097  0.5918
   66SAPC    HS 5433   6.752   3.404   2.413 -0.2905 -0.0701  0.7412
   66SAPC   O21 5434   6.949   3.344   2.446  0.2087 -0.1186  0.2754
   66SAPC   C21 5435   6.994   3.446   2.378 -0.4027 -0.7911 -0.1860
   66SAPC   O22 5436   6.935   3.517   2.301  1.0981  0.2043  0.6922
   66SAPC   C22 5437   7.136   3.471   2.441  0.0017  0.0559 -0.3497
   66SAPC   H2R 5438   7.121   3.442   2.548  0.0772 -1.3339 -0.6921
   66SAPC   H2S 5439   7.210   3.403   2.394 -0.4503 -1.0109  0.4490
   66SAPC    C3 5440   6.751   3.221   2.532 -0.2741 -0.0302 -0.0043
   66SAPC    HX 5441   6.785   3.117   2.517 -2.5155 -0.3363 -4.8154
   66SAPC    HY 5442   6.640   3.213   2.535 -0.2119 -1.5141 -0.9771
   66SAPC   O31 5443   6.792   3.276   2.662 -0.1336  0.0041  0.1037
   66SAPC   C31 5444   6.910   3.232   2.714  0.6798 -0.0627 -0.6970
   66SAPC   O32 5445   6.976   3.140   2.666  0.0527 -0.3581  0.1793
   66SAPC   C32 5446   6.945   3.324   2.835 -0.5246 -0.0747  0.0127
   66SAPC   H2X 5447   6.866   3.398   2.855 -0.1597  0.3015  0.0802
   66SAPC   H2Y 5448   7.041   3.368   2.800 -1.7130  1.2027 -1.7994
   66SAPC   C23 5449   7.176   3.620   2.425 -0.7112 -0.2593 -0.6714
   66SAPC   H3R 5450   7.091   3.683   2.459  1.2646  1.2687  1.7736
   66SAPC   H3S 5451   7.206   3.642   2.321 -0.9755 -0.3815 -0.7759
   66SAPC   C24 5452   7.296   3.655   2.516  0.1768 -1.0622  0.3630
   66SAPC   H4R 5453   7.249   3.647   2.616 -1.3213 -2.3473 -0.4125
   66SAPC   H4S 5454   7.313   3.761   2.487  3.6435 -1.6470 -0.2041
   66SAPC   C25 5455   7.422   3.575   2.505 -0.0861 -0.1036  0.5008
   66SAPC   H5R 5456   7.412   3.468   2.485 -0.5883 -0.0730  0.5693
   66SAPC   C26 5457   7.542   3.620   2.548  0.0521 -0.1326  0.1130
   66SAPC   H6R 5458   7.618   3.543   2.534  0.8198  0.7734 -0.8870
   66SAPC   C27 5459   7.577   3.759   2.598  0.0661 -0.1550 -0.0948
   66SAPC   H7R 5460   7.534   3.831   2.525 -2.0040 -3.0890 -2.0019
   66SAPC   H7S 5461   7.685   3.785   2.588 -0.5788  2.8919 -0.2156
   66SAPC   C28 5462   7.527   3.775   2.737  0.4195  0.7165 -0.4964
   66SAPC   H8R 5463   7.417   3.766   2.743  0.1600  3.1623 -0.8136
   66SAPC   C29 5464   7.599   3.784   2.850 -0.9517 -0.4247 -0.5230
   66SAPC   H9R 5465   7.541   3.800   2.943  0.9883  0.6669  0.5588
   66SAPC  C210 5466   7.755   3.792   2.858  0.6490  1.2285 -0.0157
   66SAPC  H10R 5467   7.775   3.894   2.819  2.2721  1.2461  0.8004
   66SAPC  H10S 5468   7.819   3.731   2.790 -0.3566 -0.2953  0.3545
   66SAPC  C211 5469   7.812   3.781   2.998 -0.7332 -1.0243  0.6057
   66SAPC  H11R 5470   7.789   3.695   3.062 -2.1777 -0.3261  1.0807
   66SAPC  C212 5471   7.868   3.885   3.070 -0.7238  0.4538  0.2409
   66SAPC  H12R 5472   7.920   3.853   3.161  0.5557  0.7358 -0.3728
   66SAPC  C213 5473   7.900   4.020   3.022  0.5336  0.7678 -0.4381
   66SAPC  H13R 5474   7.891   4.097   3.101  1.3817 -0.2168  0.6451
   66SAPC  H13S 5475   7.824   4.054   2.947 -0.3452 -0.0417  0.0614
   66SAPC  C214 5476   8.040   4.011   2.969  0.4090  0.7706 -0.3172
   66SAPC  H14R 5477   8.045   4.023   2.860  1.2089 -0.4490 -0.4274
   66SAPC  C215 5478   8.147   4.007   3.056 -0.2966 -0.5688  0.2101
   66SAPC  H15R 5479   8.251   4.009   3.020 -0.3758 -0.6095 -0.0239
   66SAPC  C216 5480   8.139   3.998   3.207  0.3528 -0.8027 -0.0224
   66SAPC  H16R 5481   8.036   3.993   3.246  0.3077 -0.7902 -0.1396
   66SAPC  H16S 5482   8.185   4.090   3.248  1.6420 -1.4305 -0.0005
   66SAPC  C217 5483   8.210   3.876   3.269 -0.2380 -0.0828 -0.1676
   66SAPC  H17R 5484   8.318   3.867   3.244  0.8106  2.6510  2.7461
   66SAPC  H17S 5485   8.153   3.793   3.222 -1.4978  0.5140  0.2726
   66SAPC  C218 5486   8.214   3.866   3.421  0.7020  0.4784  0.0618
   66SAPC  H18R 5487   8.259   3.770   3.455 -0.9110 -0.9959 -1.7605
   66SAPC  H18S 5488   8.112   3.885   3.461  0.6599 -0.2502  0.3151
   66SAPC  C219 5489   8.283   3.984   3.481 -0.4580 -0.1527 -0.7660
   66SAPC  H19R 5490   8.231   4.074   3.442 -0.5112  0.0590 -0.2030
   66SAPC  H19S 5491   8.389   3.984   3.449  1.2067 -2.7834  3.8509
   66SAPC  C220 5492   8.289   3.986   3.633 -0.2534 -0.2096 -0.1734
   66SAPC  H20R 5493   8.353   3.902   3.669 -0.5306  0.6776  2.5924
   66SAPC  H20S 5494   8.192   3.964   3.682  0.5649 -1.4493  0.9453
   66SAPC  H20T 5495   8.328   4.085   3.666  1.2446 -0.5757 -0.7604
   66SAPC   C33 5496   6.970   3.233   2.958  0.4880  0.1983 -0.2731
   66SAPC   H3X 5497   7.073   3.191   2.957  0.0405 -0.9449 -0.0899
   66SAPC   H3Y 5498   6.891   3.156   2.969  0.8731  0.0369  1.7384
   66SAPC   C34 5499   6.960   3.306   3.088 -0.3598  0.6249  0.3724
   66SAPC   H4X 5500   6.855   3.336   3.110 -0.8015  0.2825 -1.1630
   66SAPC   H4Y 5501   7.020   3.399   3.089  2.5914 -1.1620  1.8796
   66SAPC   C35 5502   7.013   3.224   3.210  0.4966 -0.3462  0.7524
   66SAPC   H5X 5503   6.981   3.119   3.197  3.7475 -1.4307  0.7517
   66SAPC   H5Y 5504   6.965   3.266   3.302  4.7429  2.6125  1.9521
   66SAPC   C36 5505   7.161   3.226   3.229 -0.5835 -0.0449  0.6454
   66SAPC   H6X 5506   7.202   3.328   3.216 -0.7875  0.0013  0.3791
   66SAPC   H6Y 5507   7.216   3.165   3.154 -0.3164  0.1694  0.6659
   66SAPC   C37 5508   7.207   3.174   3.370  0.6678 -0.6528  0.3634
   66SAPC   H7X 5509   7.314   3.197   3.391  0.1694  2.3281  0.0950
   66SAPC   H7Y 5510   7.191   3.064   3.380 -0.1281 -0.4851  1.0394
   66SAPC   C38 5511   7.145   3.236   3.499  0.3734  0.5493  0.7026
   66SAPC   H8X 5512   7.039   3.205   3.513  0.0001  1.5107  0.1317
   66SAPC   H8Y 5513   7.153   3.346   3.489  2.1190  0.4842  1.0841
   66SAPC   C39 5514   7.212   3.195   3.635 -0.3773 -0.3894  0.2425
   66SAPC   H9X 5515   7.321   3.187   3.619 -0.6375 -0.5886 -1.6822
   66SAPC   H9Y 5516   7.174   3.096   3.669 -1.1001 -0.1645  0.1066
   66SAPC  C310 5517   7.177   3.288   3.747 -0.1907 -0.3565 -0.0379
   66SAPC  H10X 5518   7.067   3.282   3.756 -0.1342 -1.0457  0.2388
   66SAPC  H10Y 5519   7.217   3.390   3.726 -0.6686 -0.0276  0.6397
   66SAPC  C311 5520   7.233   3.241   3.880 -0.2982 -0.4441  0.1028
   66SAPC  H11X 5521   7.190   3.143   3.911  0.7199 -1.3009 -1.0339
   66SAPC  H11Y 5522   7.202   3.312   3.959 -0.6473 -0.9043  0.3818
   66SAPC  C312 5523   7.386   3.206   3.893 -0.3037  0.1452 -0.1671
   66SAPC  H12X 5524   7.440   3.287   3.838  0.4551 -0.4474 -0.3188
   66SAPC  H12Y 5525   7.414   3.125   3.823  2.1078  1.9376 -1.4472
   66SAPC  C313 5526   7.442   3.187   4.033 -0.0326  0.2233 -1.0561
   66SAPC  H13X 5527   7.392   3.258   4.102  0.0935 -1.1049  0.4589
   66SAPC  H13Y 5528   7.553   3.198   4.032 -0.2682  4.1603  0.3007
   66SAPC  C314 5529   7.397   3.052   4.095  0.2067 -0.1777 -0.0297
   66SAPC  H14X 5530   7.446   2.977   4.029 -1.2818 -0.6812 -0.6249
   66SAPC  H14Y 5531   7.286   3.042   4.093  0.1957  0.0706 -1.1496
   66SAPC  C315 5532   7.439   3.035   4.240  0.7235  0.1216  0.1205
   66SAPC  H15X 5533   7.380   3.099   4.309  0.7650  0.7325 -0.3959
   66SAPC  H15Y 5534   7.545   3.069   4.235  1.4023 -1.6412  1.5871
   66SAPC  C316 5535   7.455   2.883   4.281  0.7627  0.1196  0.4876
   66SAPC  H16X 5536   7.518   2.830   4.206 -1.2399 -1.4438 -0.1670
   66SAPC  H16Y 5537   7.357   2.840   4.251  0.6043  1.4756 -1.1391
   66SAPC  C317 5538   7.500   2.864   4.425  0.1254 -0.3647  0.6729
   66SAPC  H17X 5539   7.430   2.918   4.493 -1.8304 -2.1082  0.1383
   66SAPC  H17Y 5540   7.604   2.904   4.421  0.5853 -1.4736  0.8802
   66SAPC  C318 5541   7.500   2.716   4.469  0.3891 -0.0913  0.3212
   66SAPC  H18X 5542   7.561   2.662   4.394 -0.6595 -0.9113  0.0331
   66SAPC  H18Y 5543   7.393   2.686   4.470  0.0460  1.0797  0.2695
   66SAPC  H18Z 5544   7.539   2.716   4.573 -0.7958  1.3785  0.8065
   67SAPC     N 5545   5.049   2.472   2.204 -0.2237 -0.5532 -0.0263
   67SAPC   C12 5546   4.927   2.458   2.111  0.2627  0.8024  0.2018
   67SAPC  H12A 5547   4.962   2.410   2.020 -0.5563 -0.2607  0.4282
   67SAPC  H12B 5548   4.889   2.555   2.084 -1.2443  0.6219  1.5350
   67SAPC   C13 5549   5.150   2.565   2.142 -0.2151 -0.3917 -0.7012
   67SAPC  H13A 5550   5.171   2.532   2.041  0.5729  0.3837 -0.7986
   67SAPC  H13B 5551   5.114   2.666   2.151  1.3394  0.0441  1.7036
   67SAPC  H13C 5552   5.244   2.575   2.195 -0.0172  0.5079 -1.2029
   67SAPC   C14 5553   5.014   2.523   2.333  0.0868 -0.5025 -0.4709
   67SAPC  H14A 5554   4.936   2.464   2.377 -0.4477  1.0969  0.8198
   67SAPC  H14B 5555   5.102   2.522   2.396  0.7880  1.7879 -1.3001
   67SAPC  H14C 5556   4.975   2.623   2.339 -0.7475 -0.6910 -2.2446
   67SAPC   C15 5557   5.109   2.334   2.212  0.2776 -0.4441  0.0215
   67SAPC  H15A 5558   5.039   2.253   2.221 -1.3523  0.8794 -0.2107
   67SAPC  H15B 5559   5.159   2.305   2.122 -1.5560  0.2212 -1.2759
   67SAPC  H15C 5560   5.185   2.323   2.288 -0.4345 -0.8223  0.7041
   67SAPC   C11 5561   4.809   2.368   2.165 -0.1216  0.1393  0.2690
   67SAPC  H11A 5562   4.722   2.379   2.096  0.4071  3.7406 -0.0240
   67SAPC  H11B 5563   4.787   2.424   2.258 -1.0007  2.0478 -1.0111
   67SAPC     P 5564   4.773   2.149   2.282  0.1706  0.2704 -0.0617
   67SAPC   O13 5565   4.740   2.019   2.223 -0.3698  0.2450  0.3864
   67SAPC   O14 5566   4.844   2.145   2.407  0.0236 -0.1282 -0.2293
   67SAPC   O12 5567   4.848   2.239   2.185 -0.5995 -0.2454  0.0369
   67SAPC   O11 5568   4.644   2.228   2.313  0.9837  0.1730  0.1017
   67SAPC    C1 5569   4.547   2.187   2.412 -0.2163 -0.3147 -0.5224
   67SAPC    HA 5570   4.447   2.226   2.380  0.3684 -1.2418 -3.9551
   67SAPC    HB 5571   4.546   2.077   2.428  2.8379 -0.4411 -0.6076
   67SAPC    C2 5572   4.571   2.236   2.552  0.2697 -0.2247 -0.0385
   67SAPC    HS 5573   4.667   2.199   2.594  0.4039 -1.3184 -1.2843
   67SAPC   O21 5574   4.459   2.209   2.633 -0.4948 -0.5326 -0.2119
   67SAPC   C21 5575   4.443   2.085   2.674 -0.8113 -0.2501 -0.0861
   67SAPC   O22 5576   4.526   1.997   2.650  0.1760  0.1982 -0.2191
   67SAPC   C22 5577   4.312   2.076   2.758  0.5906 -0.5558 -0.1331
   67SAPC   H2R 5578   4.304   2.174   2.808  1.4829 -1.8364  2.7451
   67SAPC   H2S 5579   4.230   2.074   2.682 -0.7089 -0.2993  1.2135
   67SAPC    C3 5580   4.603   2.383   2.548  0.1898 -0.4372  0.1338
   67SAPC    HX 5581   4.513   2.445   2.527 -0.0623 -1.2080 -1.1703
   67SAPC    HY 5582   4.671   2.416   2.467 -0.6182  2.4823  0.5141
   67SAPC   O31 5583   4.670   2.429   2.668  0.5218 -0.0867 -0.0850
   67SAPC   C31 5584   4.672   2.553   2.699 -0.0635 -0.3563  0.0210
   67SAPC   O32 5585   4.623   2.642   2.632 -0.0622  0.0237 -0.1523
   67SAPC   C32 5586   4.763   2.569   2.825  0.1235 -0.2819  0.2837
   67SAPC   H2X 5587   4.870   2.544   2.808  0.0641 -0.6765  0.4689
   67SAPC   H2Y 5588   4.730   2.503   2.908  0.9860 -0.8490  0.1902
   67SAPC   C23 5589   4.308   1.949   2.853  0.0037  0.3117 -0.0975
   67SAPC   H3R 5590   4.325   1.859   2.790  2.1789  0.1526  0.6466
   67SAPC   H3S 5591   4.206   1.942   2.896  0.3910  2.6176  1.4062
   67SAPC   C24 5592   4.418   1.950   2.970 -0.1344 -0.7206  0.1577
   67SAPC   H4R 5593   4.518   1.948   2.923 -0.0788 -1.1851  0.2898
   67SAPC   H4S 5594   4.406   1.855   3.026  1.4135  0.8211  3.3855
   67SAPC   C25 5595   4.414   2.065   3.064 -0.5237 -0.6685 -0.7847
   67SAPC   H5R 5596   4.396   2.164   3.020 -1.6661  0.4800  2.0276
   67SAPC   C26 5597   4.433   2.061   3.197 -0.5473  0.5919 -0.7963
   67SAPC   H6R 5598   4.430   2.155   3.255 -0.5876  1.9249 -2.8333
   67SAPC   C27 5599   4.448   1.940   3.291  0.0297  0.0401 -0.0590
   67SAPC   H7R 5600   4.539   1.975   3.346  0.5642  4.0880 -3.1078
   67SAPC   H7S 5601   4.478   1.846   3.240  3.4829  0.1165  1.4922
   67SAPC   C28 5602   4.326   1.906   3.371 -0.1112 -0.9877  0.8381
   67SAPC   H8R 5603   4.247   1.854   3.314 -0.6817  1.5319 -0.8228
   67SAPC   C29 5604   4.298   1.924   3.498 -0.0598  0.2389  0.1831
   67SAPC   H9R 5605   4.204   1.876   3.529  0.3006 -2.1793 -2.0351
   67SAPC  C210 5606   4.393   1.974   3.608 -0.0368 -0.1119  0.6488
   67SAPC  H10R 5607   4.498   1.948   3.580 -0.0425 -0.1933  0.7020
   67SAPC  H10S 5608   4.374   1.909   3.696  1.1886 -0.1232  0.9278
   67SAPC  C211 5609   4.396   2.118   3.628 -0.6595 -0.2940 -0.3186
   67SAPC  H11R 5610   4.304   2.154   3.677 -0.2908  2.8186 -1.6507
   67SAPC  C212 5611   4.495   2.207   3.601  0.2189  0.1452  0.0919
   67SAPC  H12R 5612   4.477   2.315   3.601  1.4039  0.4495 -3.0268
   67SAPC  C213 5613   4.626   2.172   3.528 -0.3883 -0.1943  0.5615
   67SAPC  H13R 5614   4.604   2.178   3.420  0.3970  0.2794  0.4168
   67SAPC  H13S 5615   4.656   2.066   3.543  1.4381  0.2484  0.3688
   67SAPC  C214 5616   4.741   2.252   3.581  1.0417  0.1068 -0.7680
   67SAPC  H14R 5617   4.747   2.240   3.690 -0.4271 -0.9120 -0.7606
   67SAPC  C215 5618   4.824   2.329   3.513  0.2701  0.0492 -0.2781
   67SAPC  H15R 5619   4.898   2.388   3.569  0.2844 -1.6171  1.5900
   67SAPC  C216 5620   4.816   2.356   3.364  0.3893 -0.5551 -0.0837
   67SAPC  H16R 5621   4.828   2.465   3.349  2.6282 -0.9067 -1.3366
   67SAPC  H16S 5622   4.720   2.317   3.324  0.1903  0.2616 -0.4257
   67SAPC  C217 5623   4.932   2.287   3.284  0.5551  0.2079 -0.3369
   67SAPC  H17R 5624   4.932   2.179   3.313  0.6909  0.1618 -0.5055
   67SAPC  H17S 5625   5.033   2.324   3.311  2.0214 -2.1968 -2.1084
   67SAPC  C218 5626   4.913   2.315   3.136  0.6079  0.2618  0.7797
   67SAPC  H18R 5627   5.012   2.299   3.088  2.2250  2.8382  2.9573
   67SAPC  H18S 5628   4.869   2.416   3.123 -4.5700 -1.5256  2.0199
   67SAPC  C219 5629   4.818   2.205   3.081 -0.1964 -0.3480 -0.5104
   67SAPC  H19R 5630   4.721   2.223   3.133 -0.3066 -1.9195 -0.1371
   67SAPC  H19S 5631   4.857   2.104   3.105  1.5407  0.9648  2.8560
   67SAPC  C220 5632   4.801   2.223   2.925  0.4695  0.0087 -0.1427
   67SAPC  H20R 5633   4.711   2.286   2.908 -1.1781 -2.3230 -0.5862
   67SAPC  H20S 5634   4.771   2.123   2.885 -1.0086  1.0491 -1.7437
   67SAPC  H20T 5635   4.885   2.263   2.865 -0.6511  2.0275 -0.4372
   67SAPC   C33 5636   4.741   2.712   2.878 -0.1816 -0.1859 -0.4136
   67SAPC   H3X 5637   4.632   2.731   2.877 -0.2440 -0.5171  0.1107
   67SAPC   H3Y 5638   4.790   2.787   2.812  1.3680 -1.3060 -0.5856
   67SAPC   C34 5639   4.806   2.732   3.020 -0.1105  0.4433  0.8583
   67SAPC   H4X 5640   4.917   2.726   3.015  0.0094  2.4861 -0.3758
   67SAPC   H4Y 5641   4.763   2.649   3.079 -0.4461  0.5902  0.8249
   67SAPC   C35 5642   4.761   2.858   3.099 -0.2366  0.3186  1.0223
   67SAPC   H5X 5643   4.650   2.849   3.106 -0.0733 -1.0457  2.3723
   67SAPC   H5Y 5644   4.779   2.947   3.034  2.3162  0.5739  1.9555
   67SAPC   C36 5645   4.826   2.861   3.241  0.3015 -0.0729 -0.2158
   67SAPC   H6X 5646   4.937   2.865   3.235  0.3455 -1.2597 -0.4871
   67SAPC   H6Y 5647   4.792   2.766   3.288 -0.0052  0.1090 -0.0668
   67SAPC   C37 5648   4.778   2.971   3.337  0.1574 -0.0117 -0.2486
   67SAPC   H7X 5649   4.668   2.985   3.339  0.3979  2.6013  3.0388
   67SAPC   H7Y 5650   4.828   3.065   3.306  0.8485  0.0071  0.8850
   67SAPC   C38 5651   4.818   2.950   3.484 -0.4177 -0.9118 -0.1869
   67SAPC   H8X 5652   4.925   2.978   3.492 -0.8053  0.5816  0.1321
   67SAPC   H8Y 5653   4.800   2.843   3.504  0.0046 -1.2718 -1.5831
   67SAPC   C39 5654   4.751   3.046   3.585  0.6112  0.6213  0.5017
   67SAPC   H9X 5655   4.644   3.021   3.600  0.5730  1.0742  1.0107
   67SAPC   H9Y 5656   4.754   3.147   3.539  2.7334  0.3899  0.0535
   67SAPC  C310 5657   4.823   3.054   3.715  0.2502  0.3208 -0.5691
   67SAPC  H10X 5658   4.796   3.142   3.777  1.4287 -0.5862  1.3255
   67SAPC  H10Y 5659   4.933   3.064   3.701  0.1332  2.3047 -0.3828
   67SAPC  C311 5660   4.805   2.932   3.802 -0.5237  0.5209  0.3309
   67SAPC  H11X 5661   4.864   2.854   3.750  0.7776  0.7416  1.4059
   67SAPC  H11Y 5662   4.697   2.907   3.810 -0.0869 -2.7597 -2.1903
   67SAPC  C312 5663   4.867   2.931   3.937  0.2173 -0.4422 -1.5194
   67SAPC  H12X 5664   4.975   2.910   3.919  0.5298  0.7937 -1.2022
   67SAPC  H12Y 5665   4.829   2.856   4.009 -0.4882  1.8867  0.6879
   67SAPC  C313 5666   4.858   3.070   4.007 -0.0217  0.6500  0.3326
   67SAPC  H13X 5667   4.751   3.100   4.003 -0.6002 -1.0460  1.6891
   67SAPC  H13Y 5668   4.917   3.153   3.964  2.3847  0.1074  2.3471
   67SAPC  C314 5669   4.895   3.067   4.159 -0.0570 -0.1975  0.2615
   67SAPC  H14X 5670   5.002   3.036   4.152  0.2123  0.9960 -1.6146
   67SAPC  H14Y 5671   4.837   2.997   4.222 -2.3897  2.2939  1.0955
   67SAPC  C315 5672   4.901   3.203   4.236  0.1401  0.5910 -0.2109
   67SAPC  H15X 5673   4.963   3.276   4.180  3.1046  0.0174  2.0667
   67SAPC  H15Y 5674   4.964   3.194   4.327  0.6240  2.9902 -0.2435
   67SAPC  C316 5675   4.768   3.259   4.291  0.1662  0.4988 -0.2496
   67SAPC  H16X 5676   4.749   3.191   4.377 -0.0965  0.2463 -0.5028
   67SAPC  H16Y 5677   4.683   3.245   4.221 -0.5831 -0.3289  0.7894
   67SAPC  C317 5678   4.771   3.407   4.338 -0.4361 -0.5170  0.3516
   67SAPC  H17X 5679   4.827   3.465   4.262 -0.1021 -0.9263  0.2836
   67SAPC  H17Y 5680   4.838   3.412   4.427  0.1632 -1.4670 -0.0249
   67SAPC  C318 5681   4.633   3.463   4.367  0.0479  0.0703  0.6334
   67SAPC  H18X 5682   4.646   3.571   4.392 -0.8028  0.7092 -1.5118
   67SAPC  H18Y 5683   4.587   3.406   4.451 -1.3524 -1.8831 -1.3637
   67SAPC  H18Z 5684   4.577   3.471   4.272  2.1486  3.4263 -0.5238
   68SAPC     N 5685   0.129   3.704   1.962 -0.1508 -0.5067 -0.1271
   68SAPC   C12 5686  -0.008   3.699   2.034 -0.3290 -0.5328  0.7098
   68SAPC  H12A 5687   0.013   3.744   2.130  3.9953 -0.7942  0.0826
   68SAPC  H12B 5688  -0.025   3.597   2.065  3.6212 -2.1230 -1.5970
   68SAPC   C13 5689   0.222   3.629   2.042 -0.3648  0.2452  0.0369
   68SAPC  H13A 5690   0.241   3.686   2.131 -2.6448  0.8824  0.1698
   68SAPC  H13B 5691   0.167   3.541   2.073  0.0216 -1.0393 -2.6139
   68SAPC  H13C 5692   0.315   3.604   1.992 -0.0729 -0.2123  0.7912
   68SAPC   C14 5693   0.124   3.653   1.822 -0.4970 -0.6885 -0.3518
   68SAPC  H14A 5694   0.044   3.698   1.765  0.3536 -1.5865 -2.3740
   68SAPC  H14B 5695   0.214   3.665   1.764 -1.0290 -2.1576 -1.5733
   68SAPC  H14C 5696   0.088   3.551   1.816  0.7560 -1.1184 -0.8827
   68SAPC   C15 5697   0.183   3.841   1.960 -0.3858  0.5960 -0.7897
   68SAPC  H15A 5698   0.122   3.904   1.896 -2.0244 -0.0807  0.0396
   68SAPC  H15B 5699   0.196   3.895   2.053 -0.6210 -0.6076 -0.0388
   68SAPC  H15C 5700   0.279   3.846   1.911  0.5777  0.1329  0.9665
   68SAPC   C11 5701  -0.125   3.779   1.971 -0.1066  0.0922  0.1125
   68SAPC  H11A 5702  -0.224   3.748   2.010 -0.5897 -3.4467 -3.3195
   68SAPC  H11B 5703  -0.144   3.744   1.868 -2.3268  1.5148 -0.0128
   68SAPC     P 5704  -0.140   3.987   2.118 -0.3087  0.0064  0.2584
   68SAPC   O13 5705  -0.060   4.110   2.129 -0.2649 -0.0058 -0.7922
   68SAPC   O14 5706  -0.281   4.014   2.131 -0.0911  0.2367  0.2409
   68SAPC   O12 5707  -0.105   3.920   1.971  0.0204  0.0653 -0.1056
   68SAPC   O11 5708  -0.097   3.876   2.224  0.3035  0.5881  0.2359
   68SAPC    C1 5709  -0.206   3.793   2.286 -0.0538 -0.0101 -0.1628
   68SAPC    HA 5710  -0.309   3.822   2.254  0.3359  1.5878 -0.0689
   68SAPC    HB 5711  -0.188   3.687   2.258  0.8136  0.0484  0.1526
   68SAPC    C2 5712  -0.214   3.811   2.443  0.3156 -0.5308 -0.2493
   68SAPC    HS 5713  -0.276   3.902   2.457 -0.2265 -0.9415  0.0701
   68SAPC   O21 5714  -0.089   3.813   2.511  0.3519 -0.2698  0.0473
   68SAPC   C21 5715  -0.070   3.914   2.592 -0.4904 -0.8189  0.3507
   68SAPC   O22 5716  -0.154   3.991   2.627 -0.2968 -0.5770 -0.0629
   68SAPC   C22 5717   0.074   3.899   2.653 -0.0813 -0.3741 -0.1416
   68SAPC   H2R 5718   0.140   3.876   2.567  0.0172  0.2002 -0.2206
   68SAPC   H2S 5719   0.117   3.993   2.693  0.6948  0.2124 -2.2250
   68SAPC    C3 5720  -0.298   3.695   2.504  0.3414 -0.1816 -0.4344
   68SAPC    HX 5721  -0.256   3.600   2.466  1.0368  0.1015 -0.3943
   68SAPC    HY 5722  -0.404   3.718   2.479  0.2160 -2.2999 -2.0993
   68SAPC   O31 5723  -0.283   3.699   2.651  0.1415  0.3357  0.2883
   68SAPC   C31 5724  -0.362   3.606   2.705  0.0071 -0.1904 -0.4437
   68SAPC   O32 5725  -0.439   3.534   2.644  0.4037  0.2562 -0.0191
   68SAPC   C32 5726  -0.358   3.614   2.858 -0.5217  0.2512 -0.5906
   68SAPC   H2X 5727  -0.445   3.669   2.901  0.3044  0.1450  1.3208
   68SAPC   H2Y 5728  -0.272   3.677   2.888 -0.4304 -0.1096 -0.0873
   68SAPC   C23 5729   0.077   3.789   2.764 -0.6656  0.3939  0.0570
   68SAPC   H3R 5730   0.184   3.785   2.795  0.0665 -0.4062 -2.3717
   68SAPC   H3S 5731   0.047   3.699   2.706 -3.4170  3.1483 -3.2411
   68SAPC   C24 5732  -0.014   3.820   2.891 -0.3417 -1.0495 -0.0609
   68SAPC   H4R 5733  -0.117   3.841   2.854 -0.0800  0.8190  0.1412
   68SAPC   H4S 5734   0.017   3.911   2.948 -1.3933 -0.9551  0.4007
   68SAPC   C25 5735  -0.013   3.698   2.980  0.4181  0.7967 -0.7043
   68SAPC   H5R 5736  -0.038   3.610   2.919 -0.5743  0.7639 -0.2676
   68SAPC   C26 5737   0.001   3.680   3.119 -0.2594  0.1866 -0.2841
   68SAPC   H6R 5738   0.008   3.580   3.164  0.2638  1.2266  2.1253
   68SAPC   C27 5739   0.037   3.790   3.220  1.0258  0.1679  0.1626
   68SAPC   H7R 5740  -0.060   3.793   3.274 -1.5463 -1.1018 -3.9006
   68SAPC   H7S 5741   0.058   3.881   3.160 -0.9666  0.3491 -0.3356
   68SAPC   C28 5742   0.154   3.761   3.310 -0.4859  1.4238  0.4346
   68SAPC   H8R 5743   0.248   3.727   3.264 -0.8711 -0.3053  0.8509
   68SAPC   C29 5744   0.159   3.774   3.439 -0.1468  0.1600 -0.2930
   68SAPC   H9R 5745   0.243   3.728   3.494 -0.2008 -1.2275 -1.3156
   68SAPC  C210 5746   0.039   3.815   3.532 -0.7901  0.3761 -0.4831
   68SAPC  H10R 5747   0.019   3.736   3.607  1.7525 -1.0250 -1.1685
   68SAPC  H10S 5748  -0.057   3.843   3.484  0.1142  1.2748 -1.8500
   68SAPC  C211 5749   0.083   3.934   3.614 -0.7586  0.3867 -0.0938
   68SAPC  H11R 5750   0.121   4.015   3.552 -2.7998  0.7068 -1.0145
   68SAPC  C212 5751   0.085   3.940   3.750 -0.0650  0.6201  0.6782
   68SAPC  H12R 5752   0.113   4.038   3.793 -1.6488  1.0563  0.7975
   68SAPC  C213 5753   0.044   3.828   3.848 -0.0068 -0.7693  1.3274
   68SAPC  H13R 5754  -0.024   3.755   3.799  1.3858 -1.3819  0.2443
   68SAPC  H13S 5755  -0.007   3.874   3.936 -1.2827  0.9388 -0.2213
   68SAPC  C214 5756   0.165   3.748   3.874 -0.4087  0.3091  0.2226
   68SAPC  H14R 5757   0.234   3.729   3.791 -0.2936 -1.1863  0.6328
   68SAPC  C215 5758   0.194   3.702   3.998  0.0936 -0.1081  1.4670
   68SAPC  H15R 5759   0.292   3.652   4.006  0.8647  1.0056 -0.4683
   68SAPC  C216 5760   0.119   3.715   4.128 -0.0245  0.2073 -0.5300
   68SAPC  H16R 5761   0.167   3.645   4.199  1.0438  2.8187  1.5033
   68SAPC  H16S 5762   0.013   3.687   4.113 -0.1691 -0.3566  1.2767
   68SAPC  C217 5763   0.135   3.863   4.184 -0.0807  0.4542  0.2119
   68SAPC  H17R 5764   0.120   3.936   4.102  0.6874  0.1849 -0.1739
   68SAPC  H17S 5765   0.241   3.863   4.218  0.7124  0.1312 -2.1432
   68SAPC  C218 5766   0.048   3.886   4.310  0.6200 -0.1823 -0.3468
   68SAPC  H18R 5767   0.074   3.809   4.385 -2.2387 -1.8771 -0.9545
   68SAPC  H18S 5768  -0.052   3.854   4.274  0.3085  0.0266  0.3110
   68SAPC  C219 5769   0.038   4.027   4.366  0.5533  0.4886 -0.5037
   68SAPC  H19R 5770  -0.043   4.024   4.442  1.3730  0.7557  0.4061
   68SAPC  H19S 5771   0.003   4.096   4.287  0.6948  1.6743  0.4408
   68SAPC  C220 5772   0.170   4.062   4.436  0.2753  0.1104 -0.0682
   68SAPC  H20R 5773   0.153   4.133   4.519  3.5227  0.2257  0.6542
   68SAPC  H20S 5774   0.244   4.101   4.362 -0.5327  0.0912 -0.9063
   68SAPC  H20T 5775   0.205   3.968   4.484  1.6613 -0.2539 -1.6802
   68SAPC   C33 5776  -0.348   3.477   2.925  0.1942  0.3521 -0.4843
   68SAPC   H3X 5777  -0.255   3.423   2.897 -0.7447 -2.2906  1.1088
   68SAPC   H3Y 5778  -0.435   3.413   2.900 -0.7491 -0.5700  4.1809
   68SAPC   C34 5779  -0.349   3.488   3.080  0.0238 -0.2075 -0.4181
   68SAPC   H4X 5780  -0.451   3.515   3.115  0.2299  0.7153 -0.5091
   68SAPC   H4Y 5781  -0.280   3.565   3.121  1.0205 -0.8928 -0.7664
   68SAPC   C35 5782  -0.318   3.356   3.153 -0.1193 -0.2682  0.4926
   68SAPC   H5X 5783  -0.242   3.293   3.103  1.3592  1.8056 -0.0254
   68SAPC   H5Y 5784  -0.409   3.294   3.168 -0.1705 -0.5697 -0.9386
   68SAPC   C36 5785  -0.259   3.370   3.294  1.1378 -0.2546 -0.1407
   68SAPC   H6X 5786  -0.173   3.441   3.298 -0.1032  1.2774  3.1689
   68SAPC   H6Y 5787  -0.228   3.268   3.325 -1.4417 -1.1372 -0.2819
   68SAPC   C37 5788  -0.361   3.416   3.401 -0.1668 -0.3538  0.1632
   68SAPC   H7X 5789  -0.462   3.376   3.378 -0.8393 -0.1594  2.5888
   68SAPC   H7Y 5790  -0.371   3.525   3.385 -0.1132 -0.1063  1.7330
   68SAPC   C38 5791  -0.303   3.390   3.539  0.6040  0.0566  0.3551
   68SAPC   H8X 5792  -0.266   3.285   3.547  0.7421  0.1393  0.8779
   68SAPC   H8Y 5793  -0.381   3.409   3.615 -0.7445  1.4111 -1.3076
   68SAPC   C39 5794  -0.180   3.469   3.572 -0.0515 -0.6673 -0.9175
   68SAPC   H9X 5795  -0.216   3.573   3.584 -0.0496 -0.7961  0.3586
   68SAPC   H9Y 5796  -0.111   3.472   3.485 -0.0648  1.5442 -0.8899
   68SAPC  C310 5797  -0.100   3.434   3.698 -0.3681  0.1324  0.4703
   68SAPC  H10X 5798  -0.001   3.483   3.696  0.6379 -1.8152  0.8487
   68SAPC  H10Y 5799  -0.071   3.328   3.690  0.1992  0.4171 -2.1756
   68SAPC  C311 5800  -0.184   3.450   3.825 -0.6321 -0.4587  0.1616
   68SAPC  H11X 5801  -0.275   3.386   3.821 -0.4177 -0.7283 -0.6941
   68SAPC  H11Y 5802  -0.225   3.554   3.825 -2.6030 -1.1753 -1.1046
   68SAPC  C312 5803  -0.102   3.424   3.950 -0.4585 -0.1569 -0.3384
   68SAPC  H12X 5804  -0.029   3.508   3.957  0.2369 -0.6003 -1.9483
   68SAPC  H12Y 5805  -0.036   3.336   3.940  0.8424  0.7619 -0.2091
   68SAPC  C313 5806  -0.186   3.398   4.072  0.0077  0.0835 -0.0459
   68SAPC  H13X 5807  -0.264   3.324   4.047  1.4125 -1.2345 -0.6975
   68SAPC  H13Y 5808  -0.235   3.496   4.091 -0.7367 -0.2146 -0.4122
   68SAPC  C314 5809  -0.101   3.365   4.194 -0.0547 -0.1922 -0.3852
   68SAPC  H14X 5810  -0.047   3.458   4.220 -2.3146  0.9228  0.5371
   68SAPC  H14Y 5811  -0.032   3.279   4.179 -2.1160 -1.9324 -0.4511
   68SAPC  C315 5812  -0.184   3.326   4.318 -0.5258  0.1613 -0.0285
   68SAPC  H15X 5813  -0.242   3.236   4.286  1.5914 -0.6599 -1.7718
   68SAPC  H15Y 5814  -0.261   3.405   4.325 -1.2178  0.1055 -4.1950
   68SAPC  C316 5815  -0.114   3.294   4.459  0.4198  0.1816  0.4662
   68SAPC  H16X 5816  -0.063   3.381   4.505 -0.5347  1.0949 -0.1954
   68SAPC  H16Y 5817  -0.037   3.214   4.445  1.2849  1.0416  0.2329
   68SAPC  C317 5818  -0.213   3.247   4.569  0.5439  0.0097  0.3269
   68SAPC  H17X 5819  -0.280   3.168   4.529  0.0502  0.1161  0.9241
   68SAPC  H17Y 5820  -0.282   3.333   4.579 -0.2165 -0.3494 -1.4438
   68SAPC  C318 5821  -0.158   3.197   4.709 -0.4727  0.0083 -0.0238
   68SAPC  H18X 5822  -0.230   3.201   4.793  3.0756  0.5806  3.2564
   68SAPC  H18Y 5823  -0.073   3.262   4.738  0.4517 -1.6871  1.2265
   68SAPC  H18Z 5824  -0.116   3.094   4.705 -0.8290 -0.2790  2.3113
   69SAPC     N 5825   4.077   5.833   2.422 -0.7459  0.2128 -0.1998
   69SAPC   C12 5826   4.226   5.840   2.436 -0.7651  0.2759  0.2984
   69SAPC  H12A 5827   4.267   5.894   2.351 -1.2224 -1.3362 -0.9961
   69SAPC  H12B 5828   4.278   5.747   2.449 -0.7601  0.3654  0.9175
   69SAPC   C13 5829   4.046   5.732   2.313 -0.4569 -0.1496  0.1213
   69SAPC  H13A 5830   4.115   5.650   2.325 -0.1618 -0.2223 -1.8005
   69SAPC  H13B 5831   3.947   5.694   2.333  0.1718 -1.0965  1.6263
   69SAPC  H13C 5832   4.071   5.778   2.219  3.2284  1.6813  1.8030
   69SAPC   C14 5833   4.020   5.785   2.553 -0.1005 -0.3405  1.0138
   69SAPC  H14A 5834   4.062   5.688   2.576  1.4939 -0.4986 -1.9887
   69SAPC  H14B 5835   4.042   5.852   2.634 -0.6153 -1.7180  2.3520
   69SAPC  H14C 5836   3.913   5.776   2.540  0.0958 -0.3392 -0.8937
   69SAPC   C15 5837   4.020   5.966   2.368  0.4208 -0.2269  0.3898
   69SAPC  H15A 5838   4.026   6.046   2.440  0.8976 -1.1283  1.3760
   69SAPC  H15B 5839   4.068   5.999   2.277  0.4527  2.8527  1.3930
   69SAPC  H15C 5840   3.917   5.945   2.344  0.4557 -0.7939  0.7137
   69SAPC   C11 5841   4.280   5.930   2.557 -0.3339  0.3722  0.3826
   69SAPC  H11A 5842   4.390   5.931   2.549 -0.1037  1.9538  2.7403
   69SAPC  H11B 5843   4.254   5.866   2.644 -2.7829 -1.3223 -1.4383
   69SAPC     P 5844   4.287   6.191   2.546  0.0765 -0.3382 -0.0224
   69SAPC   O13 5845   4.424   6.173   2.493  0.0155  0.1790  0.2122
   69SAPC   O14 5846   4.197   6.289   2.478 -0.9236  0.5234  0.3495
   69SAPC   O12 5847   4.209   6.052   2.552  0.1008  0.1918  0.4118
   69SAPC   O11 5848   4.288   6.223   2.694 -0.3263  0.6218 -0.3794
   69SAPC    C1 5849   4.188   6.168   2.784 -0.4765  0.9722 -0.1918
   69SAPC    HA 5850   4.086   6.157   2.743  0.2468  0.7003 -1.9958
   69SAPC    HB 5851   4.226   6.065   2.802 -2.0221 -0.0215 -2.2584
   69SAPC    C2 5852   4.202   6.231   2.922 -0.0526 -0.7593 -0.0849
   69SAPC    HS 5853   4.128   6.186   2.992 -0.9710 -0.1911 -0.6568
   69SAPC   O21 5854   4.174   6.370   2.903 -0.3660  0.1860  0.0538
   69SAPC   C21 5855   4.051   6.404   2.910 -0.1370 -0.8558 -0.0069
   69SAPC   O22 5856   3.956   6.328   2.931 -0.0643 -0.4591  0.5003
   69SAPC   C22 5857   4.044   6.556   2.895 -0.2272 -0.3879 -0.0064
   69SAPC   H2R 5858   4.138   6.597   2.939  1.4514 -1.1443 -2.6744
   69SAPC   H2S 5859   4.044   6.578   2.787 -3.0197 -0.1149 -0.0168
   69SAPC    C3 5860   4.348   6.218   2.972  0.0785 -0.4900 -0.5473
   69SAPC    HX 5861   4.417   6.252   2.892  1.2701 -2.4844 -0.4509
   69SAPC    HY 5862   4.369   6.109   2.980 -1.9591 -0.9619 -1.0790
   69SAPC   O31 5863   4.369   6.284   3.099  0.1932 -0.0427 -0.1964
   69SAPC   C31 5864   4.411   6.415   3.084 -0.3199 -0.5225 -0.5785
   69SAPC   O32 5865   4.421   6.472   2.976 -0.3825  0.3314 -0.3522
   69SAPC   C32 5866   4.432   6.480   3.219  0.2425  0.1998 -0.6483
   69SAPC   H2X 5867   4.461   6.408   3.299 -0.1584  1.6973  0.9083
   69SAPC   H2Y 5868   4.337   6.532   3.242  0.1393 -0.2181 -0.0973
   69SAPC   C23 5869   3.939   6.628   2.981  0.1546  0.8563  0.3657
   69SAPC   H3R 5870   3.838   6.606   2.940  0.3999  0.3280  0.0283
   69SAPC   H3S 5871   3.958   6.736   2.969  1.3566  0.5860 -0.2923
   69SAPC   C24 5872   3.941   6.583   3.131 -0.2517  0.3052 -0.1977
   69SAPC   H4R 5873   3.968   6.475   3.134 -0.1854  0.3058 -0.5984
   69SAPC   H4S 5874   3.841   6.591   3.179 -0.1967  0.7736 -0.1545
   69SAPC   C25 5875   4.037   6.658   3.217 -0.0076  0.8113  0.1201
   69SAPC   H5R 5876   4.091   6.742   3.170  0.6709  0.2573 -0.1100
   69SAPC   C26 5877   4.074   6.636   3.348  0.0121 -0.0667 -0.3487
   69SAPC   H6R 5878   4.153   6.700   3.389  1.8277 -3.4041  1.7719
   69SAPC   C27 5879   4.032   6.528   3.440  0.0793 -0.0416  0.2858
   69SAPC   H7R 5880   4.123   6.483   3.487  0.1762 -2.0919 -1.7133
   69SAPC   H7S 5881   3.976   6.452   3.382  0.3936  0.1524 -0.2740
   69SAPC   C28 5882   3.939   6.595   3.542 -0.2460 -0.1563 -0.4540
   69SAPC   H8R 5883   3.836   6.611   3.506 -0.4903  0.6540  0.5469
   69SAPC   C29 5884   3.967   6.638   3.661 -0.0507 -0.4528 -0.1657
   69SAPC   H9R 5885   3.887   6.684   3.720  1.6990  2.4640  0.0921
   69SAPC  C210 5886   4.093   6.605   3.743  0.0636 -0.0820  0.2708
   69SAPC  H10R 5887   4.143   6.697   3.781 -1.5034  0.0986  2.0566
   69SAPC  H10S 5888   4.159   6.562   3.665 -1.1243  2.8976 -2.6565
   69SAPC  C211 5889   4.071   6.515   3.859  0.4744 -0.0818  0.0285
   69SAPC  H11R 5890   4.087   6.408   3.841 -0.5323 -0.0437 -1.2130
   69SAPC  C212 5891   4.044   6.562   3.988 -0.5614  0.0590  0.1953
   69SAPC  H12R 5892   4.010   6.492   4.066  3.1809  0.5315  2.4941
   69SAPC  C213 5893   4.030   6.708   4.032 -0.5927 -0.5586  0.5306
   69SAPC  H13R 5894   4.021   6.773   3.942 -1.7401 -1.5952 -0.1366
   69SAPC  H13S 5895   4.130   6.744   4.066  0.4531  0.4745 -3.0878
   69SAPC  C214 5896   3.928   6.734   4.146  0.2934 -0.2254  0.3163
   69SAPC  H14R 5897   3.825   6.710   4.114  0.9160 -1.3165 -0.9368
   69SAPC  C215 5898   3.949   6.753   4.274  0.0372  0.4340  0.5715
   69SAPC  H15R 5899   3.860   6.779   4.333 -0.5796 -1.6466  0.6551
   69SAPC  C216 5900   4.082   6.786   4.339 -0.7506  0.1649 -0.9895
   69SAPC  H16R 5901   4.151   6.835   4.267 -0.8199 -0.3915 -1.4481
   69SAPC  H16S 5902   4.131   6.696   4.382 -0.4629 -0.2631 -2.1579
   69SAPC  C217 5903   4.068   6.886   4.456  0.1596 -0.0255 -0.0864
   69SAPC  H17R 5904   3.980   6.952   4.445  0.3228  0.3432  0.7384
   69SAPC  H17S 5905   4.151   6.960   4.454  0.1489  0.1620  2.4241
   69SAPC  C218 5906   4.091   6.825   4.601  0.1871  0.9081 -0.1915
   69SAPC  H18R 5907   4.178   6.758   4.604 -1.5520 -1.5288 -1.2346
   69SAPC  H18S 5908   4.001   6.761   4.617  0.3436  0.6404 -0.3835
   69SAPC  C219 5909   4.092   6.926   4.713  0.6440  0.2724 -0.1765
   69SAPC  H19R 5910   3.988   6.959   4.735  0.4571 -1.3072  1.6248
   69SAPC  H19S 5911   4.155   7.013   4.685  0.6000  0.7148  1.0101
   69SAPC  C220 5912   4.155   6.872   4.842  0.2796  0.0259 -0.2913
   69SAPC  H20R 5913   4.261   6.850   4.818  0.6342  1.6636 -0.3054
   69SAPC  H20S 5914   4.093   6.788   4.883 -1.3995  1.1413 -0.4592
   69SAPC  H20T 5915   4.161   6.953   4.918  1.6430  3.3524 -3.6826
   69SAPC   C33 5916   4.545   6.590   3.207  0.4570 -0.0150  0.8377
   69SAPC   H3X 5917   4.534   6.646   3.111 -0.1941  1.0668  1.5234
   69SAPC   H3Y 5918   4.644   6.540   3.207  0.1822 -0.7134 -1.4212
   69SAPC   C34 5919   4.506   6.697   3.309  0.2810  0.1981  0.6495
   69SAPC   H4X 5920   4.415   6.756   3.286  2.0526  3.2285  0.8897
   69SAPC   H4Y 5921   4.585   6.773   3.288  0.1265  0.0285 -0.6627
   69SAPC   C35 5922   4.508   6.645   3.454  0.6758 -0.1620  0.1522
   69SAPC   H5X 5923   4.610   6.602   3.467  1.1490  0.6993 -0.6581
   69SAPC   H5Y 5924   4.425   6.570   3.457 -0.8123  1.3042 -1.8268
   69SAPC   C36 5925   4.479   6.748   3.561  0.2124  0.7378 -0.2621
   69SAPC   H6X 5926   4.377   6.790   3.547  0.2057  0.8581  0.1275
   69SAPC   H6Y 5927   4.561   6.822   3.545  2.0879 -1.4948 -1.6022
   69SAPC   C37 5928   4.484   6.685   3.702  0.5160  0.1316 -0.0348
   69SAPC   H7X 5929   4.565   6.610   3.715  1.1050  1.1527  3.2566
   69SAPC   H7Y 5930   4.387   6.631   3.703  1.1070 -1.0064 -1.4050
   69SAPC   C38 5931   4.486   6.783   3.823  0.1567  0.4050 -1.0749
   69SAPC   H8X 5932   4.391   6.839   3.807 -0.2255 -0.2086 -0.9767
   69SAPC   H8Y 5933   4.582   6.838   3.818  0.6988 -0.5359 -1.2834
   69SAPC   C39 5934   4.465   6.729   3.960  0.1609  0.1416  0.3197
   69SAPC   H9X 5935   4.550   6.662   3.987 -0.1801 -0.3203  0.2556
   69SAPC   H9Y 5936   4.374   6.666   3.973 -0.3113  0.5800 -0.7527
   69SAPC  C310 5937   4.460   6.836   4.071  0.1265  0.0915 -0.2545
   69SAPC  H10X 5938   4.358   6.880   4.061 -0.4543 -1.4378 -1.3460
   69SAPC  H10Y 5939   4.530   6.920   4.048  3.0141 -2.4811 -1.6053
   69SAPC  C311 5940   4.486   6.789   4.217  0.0865 -0.1778  0.1832
   69SAPC  H11X 5941   4.592   6.757   4.229  0.7984  2.0623  0.3255
   69SAPC  H11Y 5942   4.410   6.711   4.236 -1.1001  1.3356  2.1536
   69SAPC  C312 5943   4.469   6.912   4.311 -0.2317  0.0108 -0.4846
   69SAPC  H12X 5944   4.377   6.972   4.298  0.3525  1.6380  2.2235
   69SAPC  H12Y 5945   4.548   6.981   4.273 -0.4866 -0.1183 -1.2877
   69SAPC  C313 5946   4.499   6.870   4.462 -0.0579 -0.2147  0.2917
   69SAPC  H13X 5947   4.603   6.836   4.478 -0.0785  0.4319  2.0325
   69SAPC  H13Y 5948   4.424   6.790   4.480  0.4313 -0.5651  0.8157
   69SAPC  C314 5949   4.486   6.991   4.562 -0.5485  0.0373  0.1282
   69SAPC  H14X 5950   4.483   6.959   4.669  1.4082  0.6935  0.4155
   69SAPC  H14Y 5951   4.393   7.046   4.535  0.0166  1.9879  1.9654
   69SAPC  C315 5952   4.599   7.093   4.556 -0.5345  0.2594 -0.2476
   69SAPC  H15X 5953   4.561   7.191   4.594 -2.8507 -0.5491 -0.3422
   69SAPC  H15Y 5954   4.631   7.095   4.450  0.5111  1.8535  0.0567
   69SAPC  C316 5955   4.712   7.048   4.645 -0.1870  0.4507 -0.0930
   69SAPC  H16X 5956   4.707   6.939   4.627  0.6084  0.5598 -1.0898
   69SAPC  H16Y 5957   4.692   7.069   4.752  0.6400  1.6488 -0.1561
   69SAPC  C317 5958   4.851   7.099   4.610  0.6367  0.4850  0.3128
   69SAPC  H17X 5959   4.864   7.090   4.500 -0.4078  0.0798  0.2089
   69SAPC  H17Y 5960   4.918   7.016   4.641  0.5009 -1.4553 -3.8274
   69SAPC  C318 5961   4.889   7.228   4.677 -0.5036 -0.4993 -0.0732
   69SAPC  H18X 5962   4.876   7.219   4.786  0.5222 -0.0172  0.1034
   69SAPC  H18Y 5963   4.817   7.308   4.649  0.4207  0.6975  0.8690
   69SAPC  H18Z 5964   4.993   7.253   4.646  0.5132 -2.6142  1.4022
   70SAPC     N 5965   6.290   4.590   1.914 -0.3071 -0.4209 -0.1749
   70SAPC   C12 5966   6.362   4.586   2.055 -0.0237  0.6835 -0.4114
   70SAPC  H12A 5967   6.285   4.568   2.129 -0.9813  0.6005 -1.4077
   70SAPC  H12B 5968   6.391   4.689   2.074  0.1039  0.4402  0.8040
   70SAPC   C13 5969   6.386   4.612   1.801  0.0103 -0.0521 -0.5124
   70SAPC  H13A 5970   6.440   4.705   1.811 -0.4121  0.2924 -1.3552
   70SAPC  H13B 5971   6.455   4.530   1.801  0.6177  0.3957  1.4945
   70SAPC  H13C 5972   6.330   4.621   1.709  0.2102  0.5976 -0.5809
   70SAPC   C14 5973   6.224   4.457   1.905 -0.7329  0.0132  0.2479
   70SAPC  H14A 5974   6.285   4.376   1.942 -1.5617 -0.2401  1.0922
   70SAPC  H14B 5975   6.142   4.443   1.973  0.5276  1.0517  2.0853
   70SAPC  H14C 5976   6.198   4.442   1.801  1.3632  0.0597 -0.3459
   70SAPC   C15 5977   6.192   4.694   1.916  0.2100  0.5897 -0.1896
   70SAPC  H15A 5978   6.235   4.791   1.935 -0.6635  1.3191 -1.7005
   70SAPC  H15B 5979   6.148   4.695   1.817  3.6388  0.9161 -1.8776
   70SAPC  H15C 5980   6.111   4.692   1.988  2.3372 -0.6665  2.3333
   70SAPC   C11 5981   6.480   4.495   2.076 -0.3991 -0.5434  0.6312
   70SAPC  H11A 5982   6.448   4.389   2.063 -1.5769 -0.3079  1.4206
   70SAPC  H11B 5983   6.510   4.501   2.183  1.3422  0.0969  0.1368
   70SAPC     P 5984   6.702   4.635   2.019  0.1072  0.0694  0.0941
   70SAPC   O13 5985   6.807   4.609   1.918  0.3043 -0.1982 -0.6670
   70SAPC   O14 5986   6.638   4.767   2.008  0.4759 -0.2178 -0.1211
   70SAPC   O12 5987   6.593   4.527   1.998 -0.4068  0.5730  0.4665
   70SAPC   O11 5988   6.765   4.610   2.161 -0.2123  0.2540 -0.0414
   70SAPC    C1 5989   6.813   4.480   2.200 -0.2610 -0.2522 -0.0464
   70SAPC    HA 5990   6.754   4.399   2.151  2.5707 -0.7012 -3.1488
   70SAPC    HB 5991   6.917   4.465   2.163  1.9398  2.0509  4.4227
   70SAPC    C2 5992   6.817   4.470   2.355  0.6838 -0.1894  0.3081
   70SAPC    HS 5993   6.716   4.501   2.388 -1.2243 -1.5846 -3.6673
   70SAPC   O21 5994   6.917   4.559   2.389  0.2159 -0.6726 -0.0133
   70SAPC   C21 5995   6.900   4.620   2.509  0.6045  0.1692  0.3428
   70SAPC   O22 5996   6.801   4.626   2.584  0.3214  0.5368 -0.1131
   70SAPC   C22 5997   7.027   4.697   2.545 -0.3491 -0.1187 -0.4996
   70SAPC   H2R 5998   7.112   4.633   2.509  1.1434  1.2729  0.4137
   70SAPC   H2S 5999   7.029   4.786   2.479 -1.0498  0.6013  0.4468
   70SAPC    C3 6000   6.843   4.323   2.394 -0.1484  0.5124 -0.1189
   70SAPC    HX 6001   6.942   4.300   2.348  0.8448  2.1719  1.0616
   70SAPC    HY 6002   6.775   4.248   2.349  2.0709 -1.5562 -0.2069
   70SAPC   O31 6003   6.853   4.296   2.535  0.0888 -0.8147 -0.9916
   70SAPC   C31 6004   6.730   4.315   2.600  0.4541  0.3526  0.2049
   70SAPC   O32 6005   6.628   4.341   2.544  0.8103 -0.1826 -0.5342
   70SAPC   C32 6006   6.753   4.286   2.749  0.0034  0.3408 -0.2876
   70SAPC   H2X 6007   6.860   4.300   2.775 -0.1264 -0.7654  0.9556
   70SAPC   H2Y 6008   6.743   4.176   2.756 -1.0392  0.1830 -2.8984
   70SAPC   C23 6009   7.051   4.729   2.692  0.0257  0.3327 -0.1041
   70SAPC   H3R 6010   6.960   4.783   2.725 -0.7600 -0.4736 -0.8842
   70SAPC   H3S 6011   7.140   4.794   2.699 -0.0874  0.5343 -0.4900
   70SAPC   C24 6012   7.079   4.604   2.788  0.1959  0.6683  0.3415
   70SAPC   H4R 6013   6.993   4.534   2.787  0.0895  0.7982  0.0388
   70SAPC   H4S 6014   7.076   4.641   2.892  0.3916  0.6031  0.3709
   70SAPC   C25 6015   7.206   4.537   2.757 -0.4289  0.1366  0.0970
   70SAPC   H5R 6016   7.204   4.466   2.673 -0.1364  0.8753 -0.5400
   70SAPC   C26 6017   7.326   4.559   2.822  0.2901 -0.3403 -0.2407
   70SAPC   H6R 6018   7.415   4.503   2.789  0.8507  1.1313 -1.3144
   70SAPC   C27 6019   7.350   4.656   2.933  0.0476  0.4609  0.3110
   70SAPC   H7R 6020   7.299   4.615   3.023 -0.0185 -2.0057 -0.7488
   70SAPC   H7S 6021   7.300   4.747   2.895  1.8344  0.7028 -1.6493
   70SAPC   C28 6022   7.499   4.691   2.958  0.2535 -0.1689 -1.0589
   70SAPC   H8R 6023   7.556   4.695   2.864 -0.4665  0.0003 -1.5014
   70SAPC   C29 6024   7.567   4.709   3.077  0.5303 -0.3506 -0.2342
   70SAPC   H9R 6025   7.672   4.741   3.072  0.6560 -0.6578  0.3309
   70SAPC  C210 6026   7.501   4.691   3.211  0.1371  1.3300 -0.1383
   70SAPC  H10R 6027   7.393   4.720   3.213 -0.3110 -0.2202 -0.3754
   70SAPC  H10S 6028   7.551   4.753   3.289 -0.4599  1.0073  0.5130
   70SAPC  C211 6029   7.507   4.544   3.247  0.5519 -0.0645 -0.1723
   70SAPC  H11R 6030   7.451   4.484   3.174  1.0123  2.6337 -2.9774
   70SAPC  C212 6031   7.582   4.485   3.339 -0.3586  0.6476  0.5692
   70SAPC  H12R 6032   7.590   4.376   3.337 -1.7940  0.5255 -2.5072
   70SAPC  C213 6033   7.675   4.556   3.436 -0.1120  0.0728 -0.4977
   70SAPC  H13R 6034   7.716   4.653   3.401 -0.0410  0.3805  0.4037
   70SAPC  H13S 6035   7.765   4.495   3.456 -0.6220 -1.2525 -2.0565
   70SAPC  C214 6036   7.605   4.591   3.566 -0.3732  0.0538 -0.2796
   70SAPC  H14R 6037   7.521   4.658   3.547 -0.7031  0.1054  1.2611
   70SAPC  C215 6038   7.624   4.543   3.692  0.1162  0.1601 -0.3424
   70SAPC  H15R 6039   7.564   4.585   3.774 -1.4670  0.9293 -1.8420
   70SAPC  C216 6040   7.720   4.432   3.718  1.1316  0.0870 -0.8551
   70SAPC  H16R 6041   7.822   4.477   3.719  0.2747  2.3258 -3.3834
   70SAPC  H16S 6042   7.704   4.344   3.651 -2.2505  1.1674 -1.6754
   70SAPC  C217 6043   7.691   4.399   3.868  0.5855 -0.1621  0.0486
   70SAPC  H17R 6044   7.719   4.292   3.878 -0.5433 -0.4810 -0.0673
   70SAPC  H17S 6045   7.581   4.401   3.887  0.6873 -0.8297  0.8144
   70SAPC  C218 6046   7.770   4.476   3.968  0.1300  0.2196  0.1307
   70SAPC  H18R 6047   7.728   4.579   3.973 -0.8172 -0.2005  1.5406
   70SAPC  H18S 6048   7.875   4.486   3.934  0.0743 -2.3794 -1.0354
   70SAPC  C219 6049   7.760   4.414   4.109  0.1465  0.3888 -0.1163
   70SAPC  H19R 6050   7.833   4.331   4.118 -0.0341  0.2096 -0.2975
   70SAPC  H19S 6051   7.661   4.367   4.124  1.1750 -2.4801 -1.5102
   70SAPC  C220 6052   7.769   4.518   4.225  0.6360  0.0886 -0.0818
   70SAPC  H20R 6053   7.867   4.496   4.272  0.9436 -2.5263 -1.7691
   70SAPC  H20S 6054   7.694   4.499   4.304  0.6980  1.9086  0.4719
   70SAPC  H20T 6055   7.765   4.625   4.194  1.5280 -0.0156 -0.5978
   70SAPC   C33 6056   6.662   4.366   2.848  0.3786  0.3878  0.2293
   70SAPC   H3X 6057   6.555   4.340   2.839  0.6353 -0.6792  0.1026
   70SAPC   H3Y 6058   6.670   4.477   2.845  0.5714  0.3804  0.4726
   70SAPC   C34 6059   6.705   4.325   2.983 -0.7149  1.0106  0.7371
   70SAPC   H4X 6060   6.692   4.214   2.976 -1.6826  1.1549 -0.0172
   70SAPC   H4Y 6061   6.635   4.362   3.060 -1.9500 -0.5080  0.3983
   70SAPC   C35 6062   6.837   4.388   3.030  0.1221 -0.3658 -0.4100
   70SAPC   H5X 6063   6.819   4.497   3.022 -0.2759 -0.4522 -0.7688
   70SAPC   H5Y 6064   6.922   4.347   2.971 -0.1887 -1.3753 -0.1852
   70SAPC   C36 6065   6.858   4.349   3.178 -0.3955 -0.2227  0.2086
   70SAPC   H6X 6066   6.882   4.241   3.180 -1.4040 -0.4425  0.6804
   70SAPC   H6Y 6067   6.768   4.362   3.241 -1.1595  0.9800 -1.0594
   70SAPC   C37 6068   6.970   4.435   3.253 -0.7525 -0.6696 -0.0604
   70SAPC   H7X 6069   7.040   4.472   3.175 -0.6831  1.6591  1.0135
   70SAPC   H7Y 6070   6.931   4.524   3.306  1.4192  0.6321 -0.5526
   70SAPC   C38 6071   7.047   4.348   3.354 -0.0367 -0.6183  0.2965
   70SAPC   H8X 6072   7.105   4.274   3.293  0.1562 -1.3516  1.3466
   70SAPC   H8Y 6073   6.966   4.295   3.408 -1.7439  0.3432 -1.2174
   70SAPC   C39 6074   7.144   4.430   3.435  0.3392 -0.3930 -0.5588
   70SAPC   H9X 6075   7.097   4.519   3.482  2.0078  0.0381  0.3547
   70SAPC   H9Y 6076   7.228   4.466   3.372 -0.3277  0.3939 -1.0290
   70SAPC  C310 6077   7.199   4.353   3.554  0.5617 -0.9163 -0.5373
   70SAPC  H10X 6078   7.114   4.301   3.603  1.2785 -1.9572 -0.3640
   70SAPC  H10Y 6079   7.249   4.430   3.617  1.1335 -1.1891 -0.6558
   70SAPC  C311 6080   7.304   4.252   3.528  0.1709  1.3915  0.3501
   70SAPC  H11X 6081   7.398   4.308   3.506  0.0372  0.4801 -3.1351
   70SAPC  H11Y 6082   7.282   4.188   3.440  2.6645  1.2794 -0.2685
   70SAPC  C312 6083   7.321   4.154   3.648  0.1647  0.5372 -0.2851
   70SAPC  H12X 6084   7.388   4.071   3.617 -0.6557  0.3675 -1.6669
   70SAPC  H12Y 6085   7.227   4.096   3.659  0.7053 -0.1654  0.7702
   70SAPC  C313 6086   7.372   4.210   3.788  0.0044  0.1285 -0.5624
   70SAPC  H13X 6087   7.311   4.301   3.808  0.6317  0.4998 -0.3329
   70SAPC  H13Y 6088   7.472   4.256   3.776  0.0183  0.2457 -0.0139
   70SAPC  C314 6089   7.362   4.099   3.902 -0.2517 -0.3475  1.6518
   70SAPC  H14X 6090   7.416   4.007   3.871  0.8536  0.4699  1.1062
   70SAPC  H14Y 6091   7.259   4.063   3.924 -0.3155 -0.1182  1.7370
   70SAPC  C315 6092   7.425   4.136   4.034 -0.3109 -0.4469  0.4217
   70SAPC  H15X 6093   7.375   4.226   4.075 -0.3184 -0.3462  0.1927
   70SAPC  H15Y 6094   7.531   4.165   4.020  0.2466 -0.7163  3.2915
   70SAPC  C316 6095   7.433   4.012   4.129 -0.4686  0.3198  0.0776
   70SAPC  H16X 6096   7.504   3.945   4.075  0.8285  1.3200  0.4697
   70SAPC  H16Y 6097   7.332   3.968   4.128 -0.1615 -0.4933 -2.7557
   70SAPC  C317 6098   7.472   4.061   4.271 -0.6873 -0.4547  0.2997
   70SAPC  H17X 6099   7.416   4.152   4.303  1.5536  0.7469  0.9939
   70SAPC  H17Y 6100   7.578   4.093   4.261 -0.1916 -2.5555 -2.0826
   70SAPC  C318 6101   7.437   3.960   4.380 -0.4530  0.4229  0.6492
   70SAPC  H18X 6102   7.337   3.917   4.358 -0.2285  0.0182  0.3982
   70SAPC  H18Y 6103   7.444   4.004   4.482  0.4345  0.0181  0.7797
   70SAPC  H18Z 6104   7.511   3.876   4.385  1.9905  2.4967  1.5110
   71SAPC     N 6105   1.613   4.075   2.050 -0.0184 -0.4093  0.4541
   71SAPC   C12 6106   1.636   4.182   2.157  0.7771  0.4734 -0.1014
   71SAPC  H12A 6107   1.605   4.278   2.121  2.2940  0.4203 -1.6810
   71SAPC  H12B 6108   1.740   4.203   2.181  0.3312  1.6734  0.9002
   71SAPC   C13 6109   1.695   4.112   1.927  0.6880 -0.2933 -0.0215
   71SAPC  H13A 6110   1.685   4.212   1.888 -2.4600 -1.4735 -2.7481
   71SAPC  H13B 6111   1.799   4.102   1.954  0.7778 -1.6272 -0.7395
   71SAPC  H13C 6112   1.672   4.044   1.846  1.5372 -1.2969  0.5562
   71SAPC   C14 6113   1.657   3.938   2.080 -0.3960  0.1617 -0.8099
   71SAPC  H14A 6114   1.752   3.953   2.131 -0.3286  0.2954 -0.9751
   71SAPC  H14B 6115   1.589   3.898   2.154  1.6342  0.9527  1.6567
   71SAPC  H14C 6116   1.661   3.875   1.993 -0.2137 -1.5136  0.3511
   71SAPC   C15 6117   1.471   4.079   2.006 -0.9079 -0.0911  0.4563
   71SAPC  H15A 6118   1.442   4.005   1.934  0.0548  0.1035 -0.1476
   71SAPC  H15B 6119   1.416   4.075   2.099 -0.1895 -0.5425  0.8711
   71SAPC  H15C 6120   1.443   4.176   1.966 -1.5230 -0.1659  0.7001
   71SAPC   C11 6121   1.568   4.150   2.296 -0.0662  0.2958  0.4114
   71SAPC  H11A 6122   1.611   4.219   2.372  0.9264  1.5164 -1.1925
   71SAPC  H11B 6123   1.595   4.047   2.330 -2.0844 -0.5133 -0.3274
   71SAPC     P 6124   1.306   4.235   2.360 -0.0185 -0.2069  0.0154
   71SAPC   O13 6125   1.344   4.377   2.370 -0.5750 -0.6746 -0.3013
   71SAPC   O14 6126   1.174   4.214   2.292 -0.3297 -0.1206  0.2240
   71SAPC   O12 6127   1.419   4.150   2.288 -0.6206  0.1383  0.0896
   71SAPC   O11 6128   1.311   4.180   2.499 -0.3063  0.0624 -0.0993
   71SAPC    C1 6129   1.311   4.040   2.531 -0.2739 -0.7923  0.6591
   71SAPC    HA 6130   1.404   3.989   2.498  0.2376 -0.2865  1.2966
   71SAPC    HB 6131   1.317   4.038   2.642 -0.6776  0.5601  0.7235
   71SAPC    C2 6132   1.189   3.969   2.487 -0.6165  0.7317 -0.2722
   71SAPC    HS 6133   1.196   3.978   2.377 -0.2562  0.4181 -0.2748
   71SAPC   O21 6134   1.076   4.035   2.549 -0.4135  0.7488  0.4401
   71SAPC   C21 6135   0.963   4.026   2.474  0.3634 -0.6158 -0.0229
   71SAPC   O22 6136   0.951   3.973   2.365  0.5723 -0.2136 -0.1803
   71SAPC   C22 6137   0.857   4.100   2.551 -0.1286 -0.1166 -0.2676
   71SAPC   H2R 6138   0.828   4.037   2.637  1.0663 -0.0549  0.2088
   71SAPC   H2S 6139   0.902   4.188   2.604  1.5170 -0.8147 -0.4500
   71SAPC    C3 6140   1.190   3.819   2.524  0.3413 -0.3737  0.1030
   71SAPC    HX 6141   1.271   3.780   2.459  2.1660  2.0643  0.7649
   71SAPC    HY 6142   1.099   3.773   2.480 -0.8062  1.6755  0.2110
   71SAPC   O31 6143   1.206   3.795   2.661 -0.3622 -0.4148 -0.2769
   71SAPC   C31 6144   1.292   3.704   2.702  0.1490 -0.1035  0.2607
   71SAPC   O32 6145   1.375   3.652   2.625 -0.3446  0.5574 -0.1724
   71SAPC   C32 6146   1.279   3.676   2.847 -0.3757  0.4135  0.5357
   71SAPC   H2X 6147   1.180   3.626   2.856 -0.5539  0.6780  0.0869
   71SAPC   H2Y 6148   1.290   3.773   2.900 -0.9928  1.4864 -1.2348
   71SAPC   C23 6149   0.744   4.137   2.465  0.4761  0.3293  0.1670
   71SAPC   H3R 6150   0.692   4.046   2.429  0.5511  1.4713 -3.2601
   71SAPC   H3S 6151   0.776   4.195   2.376 -1.6718  0.1560 -0.7966
   71SAPC   C24 6152   0.637   4.229   2.530  0.7609 -0.7936  0.1922
   71SAPC   H4R 6153   0.675   4.331   2.509  0.8914 -1.3477 -2.7970
   71SAPC   H4S 6154   0.616   4.208   2.637 -2.0924 -1.1038 -0.3573
   71SAPC   C25 6155   0.514   4.215   2.440 -0.8148  0.1950 -0.6395
   71SAPC   H5R 6156   0.541   4.227   2.333 -0.8346 -2.8906 -1.0865
   71SAPC   C26 6157   0.391   4.179   2.486 -0.0768 -0.2087  0.0389
   71SAPC   H6R 6158   0.307   4.187   2.415  0.9324  2.7207 -0.9649
   71SAPC   C27 6159   0.353   4.162   2.634 -0.1259 -0.1606  0.2037
   71SAPC   H7R 6160   0.246   4.190   2.650  0.1744  0.3528  1.4072
   71SAPC   H7S 6161   0.409   4.244   2.683 -0.4999 -0.1478  0.6134
   71SAPC   C28 6162   0.387   4.032   2.697  0.8848  0.6724 -0.2522
   71SAPC   H8R 6163   0.409   3.957   2.620  1.9933  1.5339 -0.8102
   71SAPC   C29 6164   0.400   4.024   2.830 -0.7605 -0.0512  0.4462
   71SAPC   H9R 6165   0.434   3.924   2.861 -0.7951 -0.4144 -0.6441
   71SAPC  C210 6166   0.380   4.136   2.926  0.4486  0.4226 -0.5024
   71SAPC  H10R 6167   0.283   4.186   2.905  0.6396  2.2415  2.4067
   71SAPC  H10S 6168   0.464   4.207   2.913  1.6721 -1.0691 -1.0681
   71SAPC  C211 6169   0.374   4.080   3.069  0.0394  0.6866  0.1614
   71SAPC  H11R 6170   0.273   4.052   3.104 -0.2317  1.7787  0.2938
   71SAPC  C212 6171   0.473   4.059   3.155 -0.4961 -0.3822 -0.2455
   71SAPC  H12R 6172   0.466   4.009   3.253  1.1544 -0.2379 -0.0181
   71SAPC  C213 6173   0.621   4.066   3.116  0.0302  0.0713 -0.6095
   71SAPC  H13R 6174   0.621   4.109   3.013 -0.3949 -2.2115 -1.6110
   71SAPC  H13S 6175   0.658   3.964   3.096  3.3658  1.1539 -0.5840
   71SAPC  C214 6176   0.721   4.144   3.198  0.2455 -0.4076 -0.0068
   71SAPC  H14R 6177   0.772   4.227   3.148 -1.5911  1.3001  0.8268
   71SAPC  C215 6178   0.767   4.102   3.318 -1.0072 -0.5234  0.5361
   71SAPC  H15R 6179   0.834   4.167   3.377 -0.5630 -0.3660 -0.1242
   71SAPC  C216 6180   0.724   3.975   3.385  0.4962 -0.3199 -0.1133
   71SAPC  H16R 6181   0.751   3.897   3.311 -1.5826 -0.8126 -0.4179
   71SAPC  H16S 6182   0.614   3.971   3.402  0.0284 -0.5247 -2.8060
   71SAPC  C217 6183   0.814   3.955   3.515 -0.5480  0.1775 -0.5076
   71SAPC  H17R 6184   0.921   3.980   3.497 -0.2502 -1.0325 -0.5075
   71SAPC  H17S 6185   0.807   3.845   3.527 -1.3255 -0.1671 -3.3322
   71SAPC  C218 6186   0.765   4.027   3.640  0.1868  0.1856  0.7595
   71SAPC  H18R 6187   0.663   3.987   3.657  0.4390 -0.6847  0.3281
   71SAPC  H18S 6188   0.766   4.136   3.622  3.0275  0.3064  1.1956
   71SAPC  C219 6189   0.859   3.989   3.756 -0.0436 -0.1848  0.2735
   71SAPC  H19R 6190   0.883   3.881   3.771  0.3904  0.0317  1.1814
   71SAPC  H19S 6191   0.811   4.022   3.850  0.9362 -2.5863  1.7245
   71SAPC  C220 6192   0.996   4.055   3.747 -0.2838  0.0726 -0.2588
   71SAPC  H20R 6193   0.990   4.165   3.752  0.2150  0.1946 -1.8486
   71SAPC  H20S 6194   1.056   4.030   3.657  0.2793  0.7707 -0.0794
   71SAPC  H20T 6195   1.050   4.005   3.830 -3.7254 -1.1517  1.4338
   71SAPC   C33 6196   1.382   3.572   2.897  0.5311  0.0192 -0.4602
   71SAPC   H3X 6197   1.485   3.612   2.888  0.6633  1.0637  3.5615
   71SAPC   H3Y 6198   1.379   3.478   2.838  1.1858 -0.3108  0.0175
   71SAPC   C34 6199   1.372   3.541   3.040  0.1307  0.0222 -0.6900
   71SAPC   H4X 6200   1.267   3.517   3.069 -0.3635  1.7239 -0.9464
   71SAPC   H4Y 6201   1.397   3.636   3.092  0.8110  0.3119 -1.5251
   71SAPC   C35 6202   1.468   3.437   3.109  0.1553 -0.4094 -0.2163
   71SAPC   H5X 6203   1.574   3.465   3.094  0.6914 -2.0849  0.2348
   71SAPC   H5Y 6204   1.444   3.340   3.060  1.0303 -0.3575 -0.7667
   71SAPC   C36 6205   1.460   3.425   3.265  0.4126 -0.0931  0.2111
   71SAPC   H6X 6206   1.502   3.515   3.316 -0.3242  0.4660 -0.1535
   71SAPC   H6Y 6207   1.517   3.333   3.288 -1.2652 -1.2672 -0.1125
   71SAPC   C37 6208   1.318   3.402   3.314  0.2812  0.4519 -0.2450
   71SAPC   H7X 6209   1.268   3.321   3.257 -1.6788  0.9003  0.7492
   71SAPC   H7Y 6210   1.258   3.495   3.304 -1.6255 -0.7639 -0.6319
   71SAPC   C38 6211   1.338   3.371   3.468  0.7848  0.1950 -0.0610
   71SAPC   H8X 6212   1.411   3.445   3.507  0.3765  0.5146  0.1007
   71SAPC   H8Y 6213   1.384   3.270   3.478  0.5054  0.1505  0.8449
   71SAPC   C39 6214   1.210   3.378   3.551  0.3461 -0.0316 -0.4072
   71SAPC   H9X 6215   1.232   3.308   3.634 -0.7499 -0.7683 -0.7065
   71SAPC   H9Y 6216   1.124   3.327   3.503  0.3782 -0.3888 -0.0927
   71SAPC  C310 6217   1.176   3.514   3.617  0.0220  0.5254  0.0588
   71SAPC  H10X 6218   1.139   3.575   3.532 -0.2456  0.6353  0.2515
   71SAPC  H10Y 6219   1.264   3.571   3.653 -0.3215  1.0644  0.0626
   71SAPC  C311 6220   1.066   3.519   3.733 -0.5349 -0.3444  0.4812
   71SAPC  H11X 6221   1.070   3.426   3.794  0.9368  0.6910  2.0865
   71SAPC  H11Y 6222   0.973   3.535   3.675  0.2249 -0.5873 -0.8522
   71SAPC  C312 6223   1.083   3.649   3.818  0.1438  0.4959 -0.3473
   71SAPC  H12X 6224   0.988   3.664   3.875  0.8112 -0.7054  1.1463
   71SAPC  H12Y 6225   1.093   3.737   3.750  0.3706  0.5466 -0.2490
   71SAPC  C313 6226   1.195   3.638   3.918  0.3608  0.0162 -0.8038
   71SAPC  H13X 6227   1.282   3.618   3.852  0.5786 -0.3351 -0.4164
   71SAPC  H13Y 6228   1.183   3.557   3.993  0.1318 -0.3352 -1.2173
   71SAPC  C314 6229   1.213   3.777   3.987 -0.2930  0.3967  0.2245
   71SAPC  H14X 6230   1.217   3.850   3.903 -0.1411 -0.2960 -0.3765
   71SAPC  H14Y 6231   1.316   3.788   4.026 -0.2243 -0.2504  0.2363
   71SAPC  C315 6232   1.104   3.807   4.091 -0.0451  0.6328 -0.3664
   71SAPC  H15X 6233   1.081   3.727   4.164 -1.8711  1.5403  0.1123
   71SAPC  H15Y 6234   1.006   3.836   4.048  0.2863  1.3622 -0.6552
   71SAPC  C316 6235   1.145   3.931   4.166  0.1043 -0.4068  0.0889
   71SAPC  H16X 6236   1.169   4.014   4.096  3.5605 -1.3132  0.0161
   71SAPC  H16Y 6237   1.221   3.904   4.243 -0.2875 -2.1365 -0.0952
   71SAPC  C317 6238   1.031   3.987   4.248 -0.1304  0.7973 -0.1877
   71SAPC  H17X 6239   0.995   3.905   4.313  1.5745 -0.2441 -0.4941
   71SAPC  H17Y 6240   0.945   4.011   4.182 -0.7342 -1.4117 -0.2625
   71SAPC  C318 6241   1.089   4.098   4.346  0.2283  0.0403  0.2414
   71SAPC  H18X 6242   1.163   4.050   4.414 -0.2127 -1.5216 -0.3309
   71SAPC  H18Y 6243   1.006   4.128   4.414 -0.8831  0.0361 -1.0563
   71SAPC  H18Z 6244   1.124   4.182   4.282 -0.6157 -0.5780 -1.0808
   72SAPC     N 6245   6.180   1.011   2.080  0.2027  0.3416  0.1348
   72SAPC   C12 6246   6.120   1.027   2.218 -0.4872  0.1534 -0.2912
   72SAPC  H12A 6247   6.054   1.112   2.226  0.0158  0.6044 -0.8176
   72SAPC  H12B 6248   6.198   1.046   2.291 -0.2902  0.3604 -0.5516
   72SAPC   C13 6249   6.282   0.900   2.070  0.2402  0.2641  0.0182
   72SAPC  H13A 6250   6.358   0.917   2.145  0.8843 -0.7220 -0.3881
   72SAPC  H13B 6251   6.237   0.805   2.097 -2.5647  1.6606  0.6374
   72SAPC  H13C 6252   6.338   0.896   1.977  2.7109 -0.9722  1.4620
   72SAPC   C14 6253   6.074   0.976   1.979 -0.0372 -0.5810 -0.3426
   72SAPC  H14A 6254   6.004   1.059   1.981 -0.5027 -0.9787  0.4496
   72SAPC  H14B 6255   6.109   0.963   1.878 -3.9408 -0.3791 -1.8899
   72SAPC  H14C 6256   6.011   0.896   2.015  0.2608 -0.7393 -0.1732
   72SAPC   C15 6257   6.247   1.140   2.038 -0.2875 -0.2107  0.2484
   72SAPC  H15A 6258   6.167   1.207   2.013 -0.3332  0.3186  1.7339
   72SAPC  H15B 6259   6.301   1.192   2.116  0.2210  0.4642 -0.5488
   72SAPC  H15C 6260   6.319   1.124   1.959 -0.4270  0.6646 -0.0573
   72SAPC   C11 6261   6.041   0.906   2.283 -0.4746  0.2412 -0.6224
   72SAPC  H11A 6262   6.033   0.944   2.387  2.5656 -1.0718  0.2020
   72SAPC  H11B 6263   6.106   0.816   2.294 -0.4204  0.5005  1.7705
   72SAPC     P 6264   5.789   0.967   2.243 -0.3317 -0.4391 -0.2072
   72SAPC   O13 6265   5.804   1.091   2.161 -0.4002 -0.3295  0.4617
   72SAPC   O14 6266   5.671   0.882   2.206  0.0330 -0.2183 -0.4050
   72SAPC   O12 6267   5.921   0.882   2.221  0.4951  0.4585  1.3431
   72SAPC   O11 6268   5.794   1.000   2.393  0.0930 -0.0687  0.7288
   72SAPC    C1 6269   5.805   0.917   2.507  0.2296  0.5191 -0.5917
   72SAPC    HA 6270   5.827   0.814   2.473  0.7880  1.0496 -1.8940
   72SAPC    HB 6271   5.883   0.948   2.580  0.0188  0.6390 -0.4156
   72SAPC    C2 6272   5.677   0.912   2.588 -0.3679  0.3285  0.3298
   72SAPC    HS 6273   5.604   0.893   2.507  1.5433  2.0250 -1.9326
   72SAPC   O21 6274   5.657   1.040   2.654  0.4682  0.1465  0.5352
   72SAPC   C21 6275   5.534   1.067   2.689 -0.1077 -0.0657 -0.6195
   72SAPC   O22 6276   5.433   1.005   2.664  0.0751 -0.4095  0.1242
   72SAPC   C22 6277   5.543   1.200   2.763 -0.1280  0.4347 -0.1973
   72SAPC   H2R 6278   5.600   1.171   2.854 -1.5799 -2.7122 -0.1681
   72SAPC   H2S 6279   5.602   1.274   2.705 -0.3324 -0.1382 -1.1576
   72SAPC    C3 6280   5.666   0.800   2.699 -0.1596 -0.4697 -0.1819
   72SAPC    HX 6281   5.648   0.701   2.652 -0.5116 -0.8878  0.7923
   72SAPC    HY 6282   5.571   0.821   2.753 -0.8046 -0.0494 -1.4499
   72SAPC   O31 6283   5.788   0.814   2.787 -0.4610 -0.1928 -0.2949
   72SAPC   C31 6284   5.787   0.720   2.880 -0.1992 -0.4104 -0.0051
   72SAPC   O32 6285   5.702   0.633   2.889  0.1823 -0.2906 -0.6992
   72SAPC   C32 6286   5.916   0.727   2.954 -0.4162 -0.8818 -0.3484
   72SAPC   H2X 6287   5.940   0.833   2.977  0.7759 -0.9393 -1.2386
   72SAPC   H2Y 6288   5.999   0.694   2.888  0.4322 -0.0809  0.2864
   72SAPC   C23 6289   5.405   1.249   2.809 -0.4359  0.2217  0.4339
   72SAPC   H3R 6290   5.334   1.208   2.734 -0.7683 -1.2615  1.5296
   72SAPC   H3S 6291   5.405   1.359   2.827  1.9970  0.1834  1.0746
   72SAPC   C24 6292   5.359   1.184   2.943 -0.1410  0.5989 -0.4019
   72SAPC   H4R 6293   5.384   1.076   2.928  1.2619  1.2528 -3.6311
   72SAPC   H4S 6294   5.249   1.190   2.951 -0.8947 -3.0552 -4.3814
   72SAPC   C25 6295   5.429   1.248   3.063 -0.0241 -0.0416 -0.5237
   72SAPC   H5R 6296   5.438   1.357   3.050  0.0149 -0.2491 -2.5450
   72SAPC   C26 6297   5.448   1.189   3.186 -0.6436 -0.3711  0.0001
   72SAPC   H6R 6298   5.511   1.244   3.257 -0.5749 -0.5480  0.0789
   72SAPC   C27 6299   5.420   1.046   3.215  0.6294  0.5342  0.8056
   72SAPC   H7R 6300   5.450   1.018   3.319 -0.7570 -1.0308  0.8269
   72SAPC   H7S 6301   5.477   0.982   3.144 -0.7579  0.4731 -0.2891
   72SAPC   C28 6302   5.277   1.004   3.206  0.2120  0.2795  0.3027
   72SAPC   H8R 6303   5.211   1.068   3.266  0.5199  0.2341  0.6941
   72SAPC   C29 6304   5.214   0.895   3.154 -0.9858  0.8289  0.3520
   72SAPC   H9R 6305   5.105   0.884   3.160 -0.8461 -0.0434  1.5445
   72SAPC  C210 6306   5.290   0.788   3.080 -0.2952 -0.4042  0.5792
   72SAPC  H10R 6307   5.277   0.701   3.148 -0.0305 -0.2563  0.8211
   72SAPC  H10S 6308   5.398   0.813   3.080 -0.3472  0.1509  3.4002
   72SAPC  C211 6309   5.225   0.762   2.947 -0.3157 -0.7764  0.0798
   72SAPC  H11R 6310   5.278   0.814   2.865 -0.2313 -1.2364 -0.1672
   72SAPC  C212 6311   5.127   0.676   2.918  0.2535 -0.6132 -0.2386
   72SAPC  H12R 6312   5.106   0.649   2.813 -2.3920 -1.9790  0.5240
   72SAPC  C213 6313   5.055   0.593   3.021 -0.4205 -0.1206 -0.0841
   72SAPC  H13R 6314   5.031   0.657   3.108  0.1090 -0.5287  0.3718
   72SAPC  H13S 6315   5.119   0.508   3.053 -0.3476 -0.0365 -0.0081
   72SAPC  C214 6316   4.931   0.532   2.966 -0.9130 -0.5187  0.1043
   72SAPC  H14R 6317   4.944   0.450   2.894  0.0692  0.2220 -0.6001
   72SAPC  C215 6318   4.801   0.563   3.005 -0.1365 -0.1085  0.0119
   72SAPC  H15R 6319   4.714   0.508   2.966  0.6197 -2.6369  1.6206
   72SAPC  C216 6320   4.762   0.691   3.088  0.4207  0.4699  0.3466
   72SAPC  H16R 6321   4.680   0.748   3.040 -0.6092  0.0310  1.5256
   72SAPC  H16S 6322   4.849   0.757   3.102  1.4356 -0.6928 -0.2861
   72SAPC  C217 6323   4.698   0.665   3.233 -0.7881 -0.3712 -0.3865
   72SAPC  H17R 6324   4.790   0.635   3.288  0.6179 -2.8125 -3.7261
   72SAPC  H17S 6325   4.625   0.582   3.227 -1.0385 -0.1603 -0.2597
   72SAPC  C218 6326   4.654   0.783   3.318  0.4192 -0.1793  0.1067
   72SAPC  H18R 6327   4.580   0.850   3.269  0.9870  1.3408  1.2597
   72SAPC  H18S 6328   4.742   0.847   3.341  0.8771 -0.8968  0.4064
   72SAPC  C219 6329   4.605   0.736   3.454  0.0620  0.6336 -0.3945
   72SAPC  H19R 6330   4.519   0.671   3.428 -0.0193  0.8319 -0.6173
   72SAPC  H19S 6331   4.558   0.818   3.512 -0.7225  0.7915 -1.2427
   72SAPC  C220 6332   4.707   0.655   3.548 -0.1836  0.0323 -0.7276
   72SAPC  H20R 6333   4.708   0.549   3.515 -0.0781  1.0926 -4.6749
   72SAPC  H20S 6334   4.675   0.675   3.652 -0.6348 -1.8926 -0.4739
   72SAPC  H20T 6335   4.807   0.699   3.526 -0.8256  2.0238  0.1008
   72SAPC   C33 6336   5.912   0.647   3.082 -0.2100 -0.5076 -0.0820
   72SAPC   H3X 6337   6.012   0.605   3.102  0.4051  1.0876  0.3345
   72SAPC   H3Y 6338   5.855   0.553   3.065  0.1027 -0.4111 -1.7943
   72SAPC   C34 6339   5.847   0.726   3.195  0.3627  0.4036 -0.1292
   72SAPC   H4X 6340   5.748   0.766   3.165 -0.8310 -1.5929  0.9327
   72SAPC   H4Y 6341   5.918   0.808   3.216  0.1627  0.2479  1.2226
   72SAPC   C35 6342   5.843   0.647   3.330  0.1054  0.2117  0.2214
   72SAPC   H5X 6343   5.950   0.615   3.336 -0.3462 -1.5390 -0.6520
   72SAPC   H5Y 6344   5.786   0.553   3.319  1.8706 -0.9658  0.5747
   72SAPC   C36 6345   5.794   0.718   3.456  0.2531 -0.1010  0.6230
   72SAPC   H6X 6346   5.689   0.752   3.438  0.2876 -0.2752  0.0718
   72SAPC   H6Y 6347   5.850   0.813   3.466 -0.7042  0.1859  5.1329
   72SAPC   C37 6348   5.802   0.631   3.575 -0.2164 -0.2341  0.0274
   72SAPC   H7X 6349   5.897   0.574   3.572 -0.9897 -1.5511 -2.9356
   72SAPC   H7Y 6350   5.726   0.550   3.569 -0.3622 -0.3791  2.6229
   72SAPC   C38 6351   5.779   0.718   3.705 -0.2013 -0.0174  1.0206
   72SAPC   H8X 6352   5.675   0.752   3.684 -0.1807 -0.7379 -0.4364
   72SAPC   H8Y 6353   5.845   0.806   3.693 -1.2290  0.4847 -1.7510
   72SAPC   C39 6354   5.788   0.640   3.842 -0.3766  0.4651 -0.3281
   72SAPC   H9X 6355   5.884   0.583   3.847  0.0140  1.2464  2.3100
   72SAPC   H9Y 6356   5.707   0.564   3.834  0.3453 -0.1032 -4.3001
   72SAPC  C310 6357   5.777   0.714   3.975  0.4433 -0.4064  0.5221
   72SAPC  H10X 6358   5.869   0.776   3.985 -1.1887  1.8557  2.5990
   72SAPC  H10Y 6359   5.775   0.648   4.064 -0.3422 -1.7533 -0.4409
   72SAPC  C311 6360   5.662   0.812   3.981 -0.0392  0.0630  0.6570
   72SAPC  H11X 6361   5.651   0.872   3.888  4.0377  0.7351  0.3976
   72SAPC  H11Y 6362   5.681   0.888   4.060 -0.7166  0.4536  0.4500
   72SAPC  C312 6363   5.525   0.741   3.990  0.0896 -0.1490  0.6217
   72SAPC  H12X 6364   5.527   0.666   4.072  0.9653  0.8448  1.5438
   72SAPC  H12Y 6365   5.519   0.675   3.900 -0.8486  1.3561 -0.4584
   72SAPC  C313 6366   5.407   0.834   4.000 -0.4853 -0.0097 -0.0563
   72SAPC  H13X 6367   5.404   0.920   3.930 -1.1979 -0.0518 -0.0813
   72SAPC  H13Y 6368   5.406   0.876   4.103  1.3885  0.1346 -0.0589
   72SAPC  C314 6369   5.262   0.770   3.998  0.0843  0.1138  0.2057
   72SAPC  H14X 6370   5.256   0.704   4.088  0.5980 -1.0516 -0.5878
   72SAPC  H14Y 6371   5.269   0.703   3.909  0.8734  0.0373  0.3220
   72SAPC  C315 6372   5.155   0.876   3.983  0.9875  0.0980 -0.0837
   72SAPC  H15X 6373   5.172   0.937   3.892  1.4310  0.9674  0.5571
   72SAPC  H15Y 6374   5.157   0.948   4.069 -1.2460  0.6607 -0.4305
   72SAPC  C316 6375   5.010   0.817   3.981  0.4550 -0.2323 -0.0958
   72SAPC  H16X 6376   4.981   0.782   4.082  0.4924  0.0185  0.0039
   72SAPC  H16Y 6377   5.003   0.732   3.910 -1.4403  0.5417 -0.8932
   72SAPC  C317 6378   4.907   0.919   3.923  0.2913  0.5259  0.0085
   72SAPC  H17X 6379   4.929   1.019   3.968 -2.2532  1.0207  0.3381
   72SAPC  H17Y 6380   4.804   0.896   3.958  0.1078 -0.8764 -1.3496
   72SAPC  C318 6381   4.910   0.920   3.770  0.7781  0.0925 -0.3339
   72SAPC  H18X 6382   4.875   1.016   3.726 -0.0657  0.6220  1.3635
   72SAPC  H18Y 6383   4.846   0.834   3.742  1.8113 -0.5401 -0.7835
   72SAPC  H18Z 6384   5.013   0.898   3.736  0.7966  2.4451 -2.0305
   73SLPC     N 6385   1.011   3.470   6.891 -0.4490 -0.6117  0.4698
   73SLPC   C13 6386   0.903   3.532   6.972 -0.1914 -0.2786  0.7629
   73SLPC  H13A 6387   0.845   3.596   6.907 -0.2818 -0.2540  0.8687
   73SLPC  H13B 6388   0.841   3.449   7.004  0.4713 -1.1429 -0.1457
   73SLPC  H13C 6389   0.953   3.582   7.054  0.1061 -3.2158  2.5449
   73SLPC   C14 6390   0.958   3.435   6.754 -0.0217  0.5555 -0.0320
   73SLPC  H14A 6391   0.912   3.519   6.703 -1.6405 -0.7681 -0.8360
   73SLPC  H14B 6392   1.027   3.390   6.684  0.4884  2.2684 -0.6910
   73SLPC  H14C 6393   0.879   3.363   6.769  1.1035 -0.9986 -1.2553
   73SLPC   C15 6394   1.067   3.353   6.949 -0.1756  0.0525  0.1014
   73SLPC  H15A 6395   1.132   3.378   7.031  0.7659  0.2872 -0.6926
   73SLPC  H15B 6396   0.992   3.280   6.975  0.1564 -0.6535 -0.8779
   73SLPC  H15C 6397   1.128   3.302   6.875  0.1515  1.0672 -0.3466
   73SLPC   C12 6398   1.123   3.578   6.867  0.3481 -0.1723  0.3048
   73SLPC  H12A 6399   1.213   3.524   6.841  1.2813  1.1324  0.7149
   73SLPC  H12B 6400   1.151   3.628   6.958  0.5439 -0.4636  0.4066
   73SLPC   C11 6401   1.080   3.690   6.762 -0.1007  0.3877  0.3252
   73SLPC  H11A 6402   1.075   3.653   6.657 -0.1575  3.4862 -0.8567
   73SLPC  H11B 6403   1.156   3.771   6.766 -0.6147  0.9529 -0.7631
   73SLPC     P 6404   0.848   3.789   6.681  0.0289 -0.5478  0.1712
   73SLPC   O13 6405   0.720   3.797   6.752  0.5685 -0.1941 -0.1948
   73SLPC   O14 6406   0.896   3.905   6.614 -0.4147 -0.3933  0.3994
   73SLPC   O12 6407   0.955   3.745   6.797 -0.3569 -0.4929 -0.1770
   73SLPC   O11 6408   0.842   3.666   6.581  0.4685 -0.4969  0.0571
   73SLPC    C1 6409   0.816   3.690   6.441 -0.2177 -0.1093 -0.0926
   73SLPC    HA 6410   0.731   3.758   6.423 -1.1048 -1.1954 -0.1444
   73SLPC    HB 6411   0.906   3.727   6.386 -0.8298 -0.6387 -1.5041
   73SLPC    C2 6412   0.780   3.562   6.369  0.0825  0.1492  0.6251
   73SLPC    HS 6413   0.867   3.492   6.372  1.4314  1.8007  1.8879
   73SLPC   O21 6414   0.748   3.596   6.232 -0.2424 -0.3949 -0.3139
   73SLPC   C21 6415   0.766   3.498   6.142  0.3211 -0.5923 -0.4708
   73SLPC   O22 6416   0.813   3.388   6.165  0.0876  0.1767  0.4110
   73SLPC   C22 6417   0.729   3.541   6.002 -0.3989 -0.0484 -0.0747
   73SLPC   H2R 6418   0.671   3.635   6.000 -3.3232 -1.6827  1.3013
   73SLPC   H2S 6419   0.820   3.542   5.938 -0.3041 -1.9478 -0.0383
   73SLPC    C3 6420   0.660   3.492   6.442 -0.5865 -0.7186  0.1258
   73SLPC    HX 6421   0.577   3.567   6.447 -0.1401 -0.2907  1.5387
   73SLPC    HY 6422   0.689   3.467   6.546 -1.0046 -0.9072  0.2006
   73SLPC   O31 6423   0.611   3.373   6.379 -0.0419  0.1674 -0.3456
   73SLPC   C31 6424   0.676   3.261   6.395 -0.6880  0.4725 -0.3604
   73SLPC   O32 6425   0.770   3.237   6.470 -0.1075 -0.5809 -0.2108
   73SLPC   C32 6426   0.616   3.155   6.307 -0.0809 -0.4738  0.1798
   73SLPC   H2X 6427   0.584   3.196   6.209  0.2884 -1.2094 -0.2568
   73SLPC   H2Y 6428   0.524   3.116   6.355  0.9954 -1.3903  1.5599
   73SLPC   C23 6429   0.645   3.437   5.929  0.6678  0.4974  0.1852
   73SLPC   H3R 6430   0.557   3.407   5.990 -0.7429  1.2256 -1.3797
   73SLPC   H3S 6431   0.707   3.346   5.917  0.3994  0.2175  0.9116
   73SLPC   C24 6432   0.586   3.478   5.794  0.1038  0.1374  0.7089
   73SLPC   H4R 6433   0.661   3.547   5.751  2.3310 -1.3628  1.9954
   73SLPC   H4S 6434   0.486   3.526   5.803  0.6030  1.3713 -0.0472
   73SLPC   C25 6435   0.572   3.353   5.703 -0.4589  0.1645 -0.2592
   73SLPC   H5R 6436   0.514   3.272   5.753  0.4270 -1.1016 -1.2033
   73SLPC   H5S 6437   0.677   3.317   5.687 -0.4742  0.3705 -0.8360
   73SLPC   C26 6438   0.508   3.385   5.566  0.1468  0.0643 -0.8457
   73SLPC   H6R 6439   0.554   3.478   5.525  2.0400 -0.7180 -0.5777
   73SLPC   H6S 6440   0.400   3.411   5.573 -0.0707 -0.7982 -0.9337
   73SLPC   C27 6441   0.522   3.278   5.455  0.3284 -0.9141 -0.0520
   73SLPC   H7R 6442   0.473   3.189   5.499  0.0559 -0.8537 -0.2325
   73SLPC   H7S 6443   0.631   3.267   5.437  0.6584  3.1605 -1.7962
   73SLPC   C28 6444   0.440   3.330   5.331  0.2431 -0.0045 -0.7181
   73SLPC   H8R 6445   0.454   3.440   5.336  0.1172 -0.0470  2.8063
   73SLPC   H8S 6446   0.333   3.310   5.352  0.2254  0.3547 -0.4570
   73SLPC   C29 6447   0.491   3.265   5.205 -0.3137 -0.4545 -0.0592
   73SLPC   H9R 6448   0.503   3.156   5.217 -0.4830 -0.5903 -1.0446
   73SLPC  C210 6449   0.512   3.318   5.082  0.8723  0.5274 -0.2645
   73SLPC  H10R 6450   0.548   3.257   4.998 -4.2912 -3.7805  0.1575
   73SLPC  C211 6451   0.498   3.463   5.045  1.0079  0.4342 -0.0008
   73SLPC  H11R 6452   0.576   3.489   4.971  0.2293  0.9595 -0.6624
   73SLPC  H11S 6453   0.527   3.522   5.134  2.6500 -0.7223  0.2708
   73SLPC  C212 6454   0.361   3.498   5.004  0.6376 -0.5700  0.1603
   73SLPC  H12R 6455   0.301   3.541   5.085  0.2829  0.8784 -0.8186
   73SLPC  C213 6456   0.312   3.461   4.883  0.1714 -0.1265 -0.2220
   73SLPC  H13R 6457   0.210   3.492   4.860 -0.1206 -0.2591  0.8173
   73SLPC  C214 6458   0.379   3.401   4.764 -0.1026 -0.3840 -0.6306
   73SLPC  H14R 6459   0.309   3.335   4.709  0.9888 -0.3949 -2.0637
   73SLPC  H14S 6460   0.459   3.330   4.792 -0.2369 -0.9573 -1.6584
   73SLPC  C215 6461   0.438   3.503   4.660 -0.1546 -0.0194 -0.5367
   73SLPC  H15R 6462   0.503   3.443   4.593  1.2913 -0.8375  1.4974
   73SLPC  H15S 6463   0.513   3.576   4.696  1.0301  1.5101 -5.3587
   73SLPC  C216 6464   0.331   3.600   4.594 -0.7153  0.0895 -0.4209
   73SLPC  H16R 6465   0.387   3.669   4.527  1.1295  0.0783  1.0363
   73SLPC  H16S 6466   0.290   3.660   4.678  1.2912  0.1527  0.5680
   73SLPC  C217 6467   0.224   3.525   4.519 -0.1155 -0.2005 -0.5373
   73SLPC  H17R 6468   0.142   3.592   4.484 -1.2976  0.3465  2.9477
   73SLPC  H17S 6469   0.175   3.463   4.597 -2.0380  1.4625 -0.3626
   73SLPC  C218 6470   0.277   3.444   4.404 -0.2280  0.6579 -0.3069
   73SLPC  H18R 6471   0.346   3.510   4.348 -0.9441  1.2475 -0.5175
   73SLPC  H18S 6472   0.198   3.409   4.334  0.3586  0.2380 -0.7666
   73SLPC  H18T 6473   0.332   3.351   4.430  1.4031  1.4372 -0.8202
   73SLPC   C33 6474   0.695   3.021   6.302  0.1943 -1.1137  0.3399
   73SLPC   H3X 6475   0.634   2.938   6.261 -1.3361 -0.6930  1.6414
   73SLPC   H3Y 6476   0.747   3.005   6.399 -0.1697 -1.0681  0.5438
   73SLPC   C34 6477   0.807   3.038   6.194  0.2202  0.2503 -0.4549
   73SLPC   H4X 6478   0.875   2.953   6.217  0.5799  0.8459  0.7609
   73SLPC   H4Y 6479   0.868   3.129   6.207 -1.5404  1.4003  0.2308
   73SLPC   C35 6480   0.751   3.021   6.050  0.9441  0.7498  0.3896
   73SLPC   H5X 6481   0.708   3.120   6.025  1.1546  0.4377 -1.3551
   73SLPC   H5Y 6482   0.669   2.947   6.060  1.3901  0.4714  2.2846
   73SLPC   C36 6483   0.853   2.993   5.940  0.2001  0.5394  0.3905
   73SLPC   H6X 6484   0.903   2.897   5.965  1.9838  0.6821 -2.3020
   73SLPC   H6Y 6485   0.932   3.070   5.931  1.6489 -0.9673 -0.2605
   73SLPC   C37 6486   0.780   2.984   5.807  0.1291  0.2762  0.2226
   73SLPC   H7X 6487   0.729   3.081   5.789  1.8291  1.0356 -0.8233
   73SLPC   H7Y 6488   0.705   2.905   5.823 -0.0038  0.4694  0.5548
   73SLPC   C38 6489   0.872   2.937   5.698 -0.2216  0.1037 -0.3039
   73SLPC   H8X 6490   0.926   2.848   5.735 -1.0010  0.1553  1.0195
   73SLPC   H8Y 6491   0.946   3.015   5.669 -2.4030  2.9417  1.1465
   73SLPC   C39 6492   0.810   2.898   5.562  0.0937 -0.5449 -0.3934
   73SLPC   H9X 6493   0.735   2.978   5.542  1.0960  0.9946  1.6513
   73SLPC   H9Y 6494   0.750   2.806   5.581 -0.5039 -0.0242  0.3025
   73SLPC  C310 6495   0.905   2.896   5.444  0.4928 -0.2412  0.3580
   73SLPC  H10X 6496   0.972   2.808   5.458 -0.0702 -0.4918  1.6419
   73SLPC  H10Y 6497   0.971   2.985   5.434  0.3099 -0.0754  0.6124
   73SLPC  C311 6498   0.824   2.858   5.311 -0.7272  0.4454 -0.4293
   73SLPC  H11X 6499   0.755   2.942   5.289 -1.7656 -0.2562  0.0909
   73SLPC  H11Y 6500   0.761   2.769   5.328 -1.3521  0.8725 -0.4645
   73SLPC  C312 6501   0.918   2.843   5.193 -0.2198 -0.6568 -0.5799
   73SLPC  H12X 6502   0.842   2.829   5.114 -1.4205  1.4411  0.1267
   73SLPC  H12Y 6503   0.988   2.760   5.215  1.5076  0.9650  0.3708
   73SLPC  C313 6504   0.996   2.972   5.156 -0.4367 -0.0703  0.9697
   73SLPC  H13X 6505   1.063   3.007   5.237  2.0701 -0.0158 -1.0009
   73SLPC  H13Y 6506   0.913   3.044   5.137 -2.2414 -2.1919  0.3123
   73SLPC  C314 6507   1.085   2.959   5.022  0.5680  0.0945  0.3995
   73SLPC  H14X 6508   1.129   3.059   5.001 -1.9804  1.1911 -0.1300
   73SLPC  H14Y 6509   1.024   2.920   4.937  1.8143 -2.4456  0.5723
   73SLPC  C315 6510   1.216   2.882   5.038  0.0084 -0.0978  0.0183
   73SLPC  H15X 6511   1.199   2.772   5.039  1.5510 -0.3756  2.1005
   73SLPC  H15Y 6512   1.257   2.898   5.140  1.7726 -1.7945 -0.3635
   73SLPC  C316 6513   1.312   2.926   4.926 -0.2083  0.0244 -0.6490
   73SLPC  H16X 6514   1.409   2.881   4.957 -0.5703  0.4732  1.2544
   73SLPC  H16Y 6515   1.342   3.032   4.936  1.8472 -0.3502 -2.1464
   73SLPC  C317 6516   1.269   2.872   4.786  0.6784  0.2584  0.2668
   73SLPC  H17X 6517   1.174   2.926   4.766 -0.4860 -1.0645  1.8761
   73SLPC  H17Y 6518   1.244   2.766   4.809  0.4807 -0.1413 -1.6787
   73SLPC  C318 6519   1.377   2.887   4.678  0.2508  0.2126 -0.1275
   73SLPC  H18X 6520   1.473   2.884   4.733  0.3996 -1.4282 -0.4175
   73SLPC  H18Y 6521   1.356   2.975   4.613  2.3193 -0.0395 -1.2213
   73SLPC  H18Z 6522   1.361   2.793   4.621 -0.7807 -0.5552  1.3542
   74SLPC     N 6523   1.895   2.711   7.201 -0.3861 -0.1279 -0.3153
   74SLPC   C13 6524   1.827   2.845   7.196  1.1097 -0.1139 -0.4242
   74SLPC  H13A 6525   1.843   2.900   7.288 -1.6671 -0.7617  0.5306
   74SLPC  H13B 6526   1.852   2.897   7.105  0.5196 -1.6539 -1.5000
   74SLPC  H13C 6527   1.721   2.832   7.183  1.0759  0.5880 -0.9239
   74SLPC   C14 6528   1.818   2.628   7.302 -0.1807 -0.1903  0.4223
   74SLPC  H14A 6529   1.813   2.689   7.392  2.0913 -0.3102  0.6755
   74SLPC  H14B 6530   1.720   2.613   7.258 -0.1672  2.8687 -0.9187
   74SLPC  H14C 6531   1.868   2.534   7.321  1.7523  1.1380  2.3793
   74SLPC   C15 6532   2.041   2.717   7.249  0.2173  0.6071  0.2604
   74SLPC  H15A 6533   2.042   2.744   7.353  2.0922  0.6235  0.2693
   74SLPC  H15B 6534   2.077   2.616   7.244 -2.7067 -0.5405  0.3100
   74SLPC  H15C 6535   2.100   2.774   7.178  0.0486 -0.1041 -0.4737
   74SLPC   C12 6536   1.883   2.656   7.054 -0.1678  0.1489  0.2180
   74SLPC  H12A 6537   1.786   2.689   7.019 -1.6111 -1.7388  2.2074
   74SLPC  H12B 6538   1.894   2.550   7.065  2.3283  0.4909  1.9515
   74SLPC   C11 6539   1.990   2.700   6.949 -0.2446  0.1437 -0.6019
   74SLPC  H11A 6540   1.987   2.811   6.946  0.8589  0.2155  0.2792
   74SLPC  H11B 6541   1.942   2.657   6.858 -0.5992 -0.7830  0.0111
   74SLPC     P 6542   2.180   2.524   6.917  0.0832  0.1641  0.0731
   74SLPC   O13 6543   2.331   2.536   6.937  0.2641 -0.2211  0.0449
   74SLPC   O14 6544   2.110   2.401   6.966 -0.8284 -0.0530  0.2775
   74SLPC   O12 6545   2.115   2.651   6.977 -0.0655  0.3534 -0.0772
   74SLPC   O11 6546   2.133   2.538   6.767 -1.1257  0.1035 -0.3574
   74SLPC    C1 6547   2.209   2.610   6.664 -0.4037 -0.4147 -0.6244
   74SLPC    HA 6548   2.227   2.718   6.687  1.6132 -0.6333 -1.0760
   74SLPC    HB 6549   2.310   2.568   6.646 -0.5081 -1.1581  0.4432
   74SLPC    C2 6550   2.128   2.630   6.534 -0.8055  0.4639  0.0085
   74SLPC    HS 6551   2.029   2.675   6.555 -1.8592 -1.7564  0.1349
   74SLPC   O21 6552   2.107   2.500   6.475  0.7093 -0.1311 -0.5175
   74SLPC   C21 6553   2.012   2.495   6.378  0.7609  0.3097  0.0629
   74SLPC   O22 6554   1.915   2.573   6.370 -0.2311  0.1788 -0.8085
   74SLPC   C22 6555   2.032   2.367   6.288  0.4322  0.2452 -0.1628
   74SLPC   H2R 6556   2.134   2.334   6.318  0.2833  0.5140  0.6840
   74SLPC   H2S 6557   1.950   2.303   6.327 -0.7596  1.6118 -0.3726
   74SLPC    C3 6558   2.213   2.720   6.431 -0.0063  0.1998 -0.0996
   74SLPC    HX 6559   2.316   2.679   6.420 -0.0161  0.1660 -0.0661
   74SLPC    HY 6560   2.210   2.819   6.480  1.7313  0.0720  0.3045
   74SLPC   O31 6561   2.150   2.719   6.301  0.0071  0.2034  0.1216
   74SLPC   C31 6562   2.074   2.821   6.275 -0.3731  0.7104  0.1954
   74SLPC   O32 6563   2.046   2.912   6.353  0.6123  0.3452 -0.1608
   74SLPC   C32 6564   2.036   2.821   6.130  0.0511 -0.2036  0.3275
   74SLPC   H2X 6565   1.977   2.909   6.096 -0.4729 -0.4007  0.7097
   74SLPC   H2Y 6566   1.977   2.728   6.117 -1.0133  0.6452 -1.4184
   74SLPC   C23 6567   2.015   2.386   6.141 -0.1408 -0.1778 -0.3045
   74SLPC   H3R 6568   2.085   2.458   6.093  0.6156 -0.9944 -0.4532
   74SLPC   H3S 6569   1.918   2.440   6.132  0.4244  1.7446  3.2896
   74SLPC   C24 6570   2.013   2.266   6.051 -0.4656 -0.1901 -0.0404
   74SLPC   H4R 6571   1.927   2.200   6.075  0.7447 -1.7143  0.2637
   74SLPC   H4S 6572   2.105   2.204   6.059 -0.1150  0.4220  0.7967
   74SLPC   C25 6573   1.981   2.306   5.906 -0.4179 -0.0803  0.3244
   74SLPC   H5R 6574   2.033   2.404   5.891 -1.8300  0.4013 -1.9680
   74SLPC   H5S 6575   1.873   2.318   5.884 -0.6836  1.4990  2.2723
   74SLPC   C26 6576   2.052   2.229   5.790 -0.2622  0.0563 -0.3715
   74SLPC   H6R 6577   2.047   2.118   5.790  0.1463 -0.0128 -2.5064
   74SLPC   H6S 6578   2.160   2.252   5.781 -0.0464  0.9593  3.2542
   74SLPC   C27 6579   1.992   2.264   5.652  0.1041 -0.4065 -0.1862
   74SLPC   H7R 6580   2.030   2.365   5.626  0.2048 -0.2048  0.7379
   74SLPC   H7S 6581   1.882   2.272   5.667  0.4499  1.0950  1.9565
   74SLPC   C28 6582   2.007   2.158   5.540  0.6267  0.9791  0.0331
   74SLPC   H8R 6583   1.965   2.061   5.575  1.2197  0.1312 -1.5041
   74SLPC   H8S 6584   2.116   2.147   5.524  0.4034 -1.5659 -0.1817
   74SLPC   C29 6585   1.929   2.211   5.419 -0.7983  0.3451  0.1206
   74SLPC   H9R 6586   1.832   2.262   5.432 -1.0959 -0.1343 -0.1540
   74SLPC  C210 6587   1.968   2.202   5.293  0.3969 -0.0688  0.2689
   74SLPC  H10R 6588   1.897   2.240   5.218 -0.1639 -2.7604 -0.6797
   74SLPC  C211 6589   2.096   2.137   5.246 -0.3054  0.0603  0.5861
   74SLPC  H11R 6590   2.085   2.096   5.143 -0.7799 -0.4195  0.8235
   74SLPC  H11S 6591   2.116   2.048   5.309 -1.0953  0.9155  2.0901
   74SLPC  C212 6592   2.221   2.217   5.253 -0.9691  0.1281 -0.9466
   74SLPC  H12R 6593   2.226   2.294   5.332  0.4312 -0.2765 -0.6081
   74SLPC  C213 6594   2.325   2.214   5.169 -0.0979  0.1526  0.1335
   74SLPC  H13R 6595   2.413   2.272   5.198  1.2569 -2.4966  1.7062
   74SLPC  C214 6596   2.344   2.124   5.048 -0.5312  0.0457  0.1983
   74SLPC  H14R 6597   2.251   2.065   5.032  0.6888 -2.1443  0.7152
   74SLPC  H14S 6598   2.425   2.049   5.065  0.9702  1.4016 -0.7005
   74SLPC  C215 6599   2.368   2.211   4.914  0.4529  0.0845 -0.0383
   74SLPC  H15R 6600   2.462   2.269   4.925  0.4824  0.1932 -0.7806
   74SLPC  H15S 6601   2.282   2.281   4.907  0.0384 -0.5717 -2.4997
   74SLPC  C216 6602   2.374   2.120   4.789  0.8852 -0.2436 -0.4213
   74SLPC  H16R 6603   2.277   2.068   4.776  0.8481 -0.8316  1.7730
   74SLPC  H16S 6604   2.441   2.038   4.824  1.2216 -0.5281 -1.6935
   74SLPC  C217 6605   2.440   2.170   4.666  1.6887  0.3089  0.3433
   74SLPC  H17R 6606   2.473   2.086   4.601 -0.5768  0.2691 -0.8901
   74SLPC  H17S 6607   2.521   2.241   4.692 -0.4260  2.7913  0.6309
   74SLPC  C218 6608   2.353   2.270   4.587  0.9852  0.8426  0.6229
   74SLPC  H18R 6609   2.297   2.341   4.651 -1.5594 -1.8380  1.5810
   74SLPC  H18S 6610   2.270   2.212   4.542  1.4202 -0.1805  1.0814
   74SLPC  H18T 6611   2.406   2.335   4.515  0.2157  1.6004  0.7313
   74SLPC   C33 6612   2.154   2.807   6.026 -0.6634 -0.1157  0.4543
   74SLPC   H3X 6613   2.236   2.742   6.062  0.9755  1.7027  0.1702
   74SLPC   H3Y 6614   2.201   2.906   6.011 -2.4905  0.4658 -2.2426
   74SLPC   C34 6615   2.104   2.751   5.887  0.1187 -0.4123  0.8331
   74SLPC   H4X 6616   2.013   2.813   5.870  1.4069  1.4938  0.6030
   74SLPC   H4Y 6617   2.065   2.648   5.905  0.4515 -0.8531 -0.7876
   74SLPC   C35 6618   2.197   2.757   5.765  0.6616 -0.1156  0.5266
   74SLPC   H5X 6619   2.294   2.720   5.802  1.0559 -0.3297 -0.6779
   74SLPC   H5Y 6620   2.208   2.863   5.735 -1.1181 -0.3448 -1.1703
   74SLPC   C36 6621   2.144   2.684   5.646  0.3514  0.3889  0.5049
   74SLPC   H6X 6622   2.038   2.708   5.623 -0.4921 -2.4746  0.9743
   74SLPC   H6Y 6623   2.143   2.572   5.650  0.9302  0.3870  0.6345
   74SLPC   C37 6624   2.231   2.702   5.524 -0.9143 -0.3210  0.3993
   74SLPC   H7X 6625   2.333   2.687   5.568 -0.7542  2.3956  1.1193
   74SLPC   H7Y 6626   2.213   2.808   5.498 -0.2735  0.0303  1.3331
   74SLPC   C38 6627   2.201   2.614   5.401 -0.5328 -0.4766  0.1228
   74SLPC   H8X 6628   2.096   2.580   5.391 -0.0215 -1.8093 -1.0956
   74SLPC   H8Y 6629   2.263   2.525   5.428 -0.8835  0.1262  3.3841
   74SLPC   C39 6630   2.248   2.680   5.271 -1.7637  0.4336 -0.3341
   74SLPC   H9X 6631   2.358   2.697   5.261 -1.8464  2.6185  1.6801
   74SLPC   H9Y 6632   2.213   2.785   5.265  1.5904  1.7327  0.4422
   74SLPC  C310 6633   2.205   2.607   5.143  0.3959  0.3060  0.1391
   74SLPC  H10X 6634   2.095   2.594   5.153  0.4185 -1.3377 -1.2144
   74SLPC  H10Y 6635   2.259   2.510   5.136  1.6699  0.9427  0.7082
   74SLPC  C311 6636   2.224   2.684   5.010 -0.1867  0.3349  0.4321
   74SLPC  H11X 6637   2.212   2.618   4.922  2.3984 -1.6197  1.4101
   74SLPC  H11Y 6638   2.331   2.713   4.999 -0.2660 -0.0895 -1.9431
   74SLPC  C312 6639   2.139   2.810   4.995  0.5637 -0.2412  1.2173
   74SLPC  H12X 6640   2.138   2.860   5.094  1.3760  0.7695  0.7337
   74SLPC  H12Y 6641   2.038   2.772   4.968 -0.1509  1.5158  1.3316
   74SLPC  C313 6642   2.189   2.913   4.889 -0.6003  0.0691 -0.2052
   74SLPC  H13X 6643   2.298   2.930   4.905 -0.7723  0.8641  0.1688
   74SLPC  H13Y 6644   2.126   3.001   4.915 -1.9889 -1.2013  0.8681
   74SLPC  C314 6645   2.173   2.855   4.739  0.4762  0.2437 -0.2690
   74SLPC  H14X 6646   2.070   2.815   4.736 -0.4546  2.0723  2.6202
   74SLPC  H14Y 6647   2.244   2.772   4.723  0.7154 -0.2548  2.7976
   74SLPC  C315 6648   2.182   2.955   4.629  0.4823  0.3930  0.3558
   74SLPC  H15X 6649   2.227   3.052   4.659  0.4174  0.3791  0.4947
   74SLPC  H15Y 6650   2.077   2.981   4.604  1.0904  1.4967 -1.2550
   74SLPC  C316 6651   2.271   2.903   4.510  0.2559 -0.6920 -0.1444
   74SLPC  H16X 6652   2.226   2.808   4.473  1.8725 -0.6340 -2.4588
   74SLPC  H16Y 6653   2.374   2.891   4.550  1.6310  1.5683 -2.6685
   74SLPC  C317 6654   2.278   3.007   4.402  0.6461 -0.3603  0.8051
   74SLPC  H17X 6655   2.298   3.109   4.440 -0.6112  1.6548 -3.3677
   74SLPC  H17Y 6656   2.175   3.015   4.362  0.3209  0.7664  1.8194
   74SLPC  C318 6657   2.374   2.987   4.287  0.0814 -0.2593 -0.4343
   74SLPC  H18X 6658   2.376   3.081   4.229  3.8976  0.6103  0.7794
   74SLPC  H18Y 6659   2.341   2.914   4.210 -0.1694 -0.1517 -0.4294
   74SLPC  H18Z 6660   2.480   2.962   4.311  0.0473 -1.4122 -1.3771
   75SLPC     N 6661   3.666   3.970   6.760 -0.0467 -0.2177  0.1374
   75SLPC   C13 6662   3.701   3.962   6.614  0.1103  0.6547 -0.2371
   75SLPC  H13A 6663   3.771   3.884   6.588 -0.3850  0.7048 -1.8481
   75SLPC  H13B 6664   3.610   3.961   6.555 -0.4647 -1.6434  0.6106
   75SLPC  H13C 6665   3.740   4.059   6.584 -0.7222  1.2569  0.5815
   75SLPC   C14 6666   3.794   3.978   6.837  0.4677  0.0306 -0.1474
   75SLPC  H14A 6667   3.771   3.983   6.942 -0.4816  1.9475 -0.4001
   75SLPC  H14B 6668   3.841   3.881   6.837  0.5920  0.0376  2.1035
   75SLPC  H14C 6669   3.865   4.054   6.809  1.6947 -1.1521 -0.3425
   75SLPC   C15 6670   3.594   3.843   6.782  0.3282  0.3001  0.3780
   75SLPC  H15A 6671   3.657   3.756   6.767  0.0538 -0.0434  1.1630
   75SLPC  H15B 6672   3.569   3.836   6.887  1.1111  0.6377  0.5943
   75SLPC  H15C 6673   3.509   3.824   6.718  0.3469 -0.5482  0.5832
   75SLPC   C12 6674   3.584   4.088   6.780  0.3857 -0.6231  0.1310
   75SLPC  H12A 6675   3.636   4.182   6.771 -0.3835 -0.0922  1.0761
   75SLPC  H12B 6676   3.546   4.088   6.881  0.4044  1.9489  0.1906
   75SLPC   C11 6677   3.449   4.102   6.698 -0.1542 -0.3908  0.5301
   75SLPC  H11A 6678   3.474   4.117   6.591  1.8938  2.4030  1.2989
   75SLPC  H11B 6679   3.401   4.200   6.720 -1.9300 -0.4917 -2.3280
   75SLPC     P 6680   3.263   3.990   6.835  0.4117 -0.1194 -0.0908
   75SLPC   O13 6681   3.295   3.860   6.903  0.6100  0.6315 -0.1498
   75SLPC   O14 6682   3.268   4.114   6.917 -0.2194 -0.4442  0.2086
   75SLPC   O12 6683   3.350   4.003   6.705 -0.2622  0.7017  0.0177
   75SLPC   O11 6684   3.116   3.981   6.773  0.0950  0.0243  0.4079
   75SLPC    C1 6685   3.082   3.879   6.683 -0.7770 -0.3605 -0.0246
   75SLPC    HA 6686   3.143   3.787   6.692  0.5277  0.4935  0.1987
   75SLPC    HB 6687   2.988   3.840   6.727 -0.8534 -0.2798 -0.1160
   75SLPC    C2 6688   3.058   3.939   6.539 -0.4869  0.3416  0.8454
   75SLPC    HS 6689   3.003   3.865   6.476 -3.9505  2.1098  1.5390
   75SLPC   O21 6690   3.179   3.990   6.477  0.8236 -0.1638  0.7801
   75SLPC   C21 6691   3.270   3.891   6.456 -0.3265 -0.0464  0.0986
   75SLPC   O22 6692   3.268   3.774   6.484  0.2991  0.1987 -0.6929
   75SLPC   C22 6693   3.393   3.962   6.395  0.2012  0.5579  0.3232
   75SLPC   H2R 6694   3.369   4.065   6.362 -0.7646  0.6657  1.2991
   75SLPC   H2S 6695   3.473   3.957   6.471 -0.8524  2.7838  1.6864
   75SLPC    C3 6696   2.957   4.056   6.545 -0.6515 -0.1615  0.3184
   75SLPC    HX 6697   3.004   4.143   6.594  1.5339 -0.3444 -1.3360
   75SLPC    HY 6698   2.876   4.028   6.616  0.9885 -0.8233  1.9790
   75SLPC   O31 6699   2.910   4.104   6.417 -0.0274  0.4056 -0.1626
   75SLPC   C31 6700   2.800   4.035   6.370 -0.4831  0.0200 -0.6227
   75SLPC   O32 6701   2.760   3.933   6.429  0.1680 -0.1735  0.2493
   75SLPC   C32 6702   2.725   4.107   6.257 -0.6389  0.0857  0.0693
   75SLPC   H2X 6703   2.806   4.120   6.182  1.2385  0.3947  2.0436
   75SLPC   H2Y 6704   2.700   4.210   6.291 -2.8152 -0.1410 -0.6655
   75SLPC   C23 6705   3.453   3.879   6.272 -0.0679 -0.1242  0.0504
   75SLPC   H3R 6706   3.414   3.911   6.173  0.5977  1.3042  0.2090
   75SLPC   H3S 6707   3.430   3.772   6.288 -0.9313 -0.4774 -2.9430
   75SLPC   C24 6708   3.613   3.886   6.261  0.0206 -0.7668 -0.7675
   75SLPC   H4R 6709   3.643   3.824   6.174 -0.6170  0.5232 -1.9323
   75SLPC   H4S 6710   3.649   3.851   6.361 -0.6674  0.7949  0.0619
   75SLPC   C25 6711   3.664   4.030   6.231  0.0756 -0.5077 -0.6902
   75SLPC   H5R 6712   3.772   4.027   6.207  0.0576 -0.3313 -0.7892
   75SLPC   H5S 6713   3.664   4.084   6.328 -1.8579 -0.2961 -0.7699
   75SLPC   C26 6714   3.589   4.108   6.111  0.3142 -0.0505 -0.1623
   75SLPC   H6R 6715   3.530   4.183   6.168  0.3385  0.7613 -1.1730
   75SLPC   H6S 6716   3.514   4.039   6.065  1.1719 -2.0660  1.3416
   75SLPC   C27 6717   3.671   4.177   6.001 -0.2047  0.4808  0.2004
   75SLPC   H7R 6718   3.760   4.234   6.035 -0.8054  0.5159  1.8096
   75SLPC   H7S 6719   3.608   4.252   5.947  0.3716  0.7517 -0.1014
   75SLPC   C28 6720   3.725   4.073   5.899  0.8555 -0.6289 -0.2719
   75SLPC   H8R 6721   3.763   3.986   5.957 -1.0711 -0.9825  0.5377
   75SLPC   H8S 6722   3.801   4.127   5.838 -0.7972  1.9322 -0.2120
   75SLPC   C29 6723   3.616   4.042   5.802  0.2437 -0.4359 -0.8853
   75SLPC   H9R 6724   3.517   4.014   5.841  0.0815 -1.5842 -2.0725
   75SLPC  C210 6725   3.610   4.059   5.672  0.1390 -0.0459  0.0396
   75SLPC  H10R 6726   3.519   4.022   5.622 -0.8830  0.9295  1.1459
   75SLPC  C211 6727   3.714   4.100   5.574 -0.1250 -0.2297  0.0181
   75SLPC  H11R 6728   3.701   4.041   5.481  2.0782 -0.8971  0.0867
   75SLPC  H11S 6729   3.813   4.061   5.608  1.1534  2.0360 -0.9300
   75SLPC  C212 6730   3.722   4.248   5.545 -0.2704  0.7877 -0.5564
   75SLPC  H12R 6731   3.694   4.319   5.624  1.4867  0.0229  0.8239
   75SLPC  C213 6732   3.762   4.300   5.435 -0.4529  0.4877  0.4196
   75SLPC  H13R 6733   3.749   4.409   5.425  0.4698  0.5388 -0.3427
   75SLPC  C214 6734   3.795   4.224   5.311  0.1715  0.3260  0.3900
   75SLPC  H14R 6735   3.872   4.148   5.337 -0.4341 -0.4078  0.0629
   75SLPC  H14S 6736   3.843   4.296   5.241  1.5694 -1.6079 -0.7492
   75SLPC  C215 6737   3.680   4.161   5.229 -0.1065 -0.2016  0.9544
   75SLPC  H15R 6738   3.616   4.091   5.286  0.1588  0.3049  1.8907
   75SLPC  H15S 6739   3.728   4.081   5.168 -1.5874 -1.3238  1.2227
   75SLPC  C216 6740   3.611   4.265   5.136 -0.7419 -0.6463 -0.5552
   75SLPC  H16R 6741   3.677   4.301   5.054  1.3434 -0.0583  1.2698
   75SLPC  H16S 6742   3.575   4.344   5.207  0.8372 -0.3500 -0.0455
   75SLPC  C217 6743   3.482   4.201   5.086  0.0525  0.8409  0.3930
   75SLPC  H17R 6744   3.410   4.193   5.170  0.1853  0.0358  0.4320
   75SLPC  H17S 6745   3.506   4.100   5.047 -0.4013  0.7478  0.3467
   75SLPC  C218 6746   3.419   4.283   4.970  0.1307  0.3008  0.4320
   75SLPC  H18R 6747   3.316   4.247   4.950  0.6514 -0.4329 -1.0060
   75SLPC  H18S 6748   3.481   4.256   4.883 -0.8326 -0.2593 -0.1012
   75SLPC  H18T 6749   3.423   4.393   4.984 -1.0820  0.2369  1.5364
   75SLPC   C33 6750   2.609   4.039   6.186  0.7883  0.4698 -0.3365
   75SLPC   H3X 6751   2.521   4.035   6.254  1.3050 -1.7805  0.3092
   75SLPC   H3Y 6752   2.638   3.934   6.165  0.4301  0.3926 -0.4577
   75SLPC   C34 6753   2.567   4.099   6.049 -0.0284 -0.4017 -0.0098
   75SLPC   H4X 6754   2.648   4.093   5.974  0.3609  1.6370  0.1910
   75SLPC   H4Y 6755   2.554   4.209   6.054  0.1675 -0.3670 -0.2286
   75SLPC   C35 6756   2.441   4.032   5.997  0.2817 -0.4099  0.4179
   75SLPC   H5X 6757   2.363   4.041   6.075  0.8580  3.2968  0.7698
   75SLPC   H5Y 6758   2.445   3.923   5.974 -0.0265 -0.5949  1.2247
   75SLPC   C36 6759   2.371   4.110   5.881 -0.3387 -0.4871  0.0048
   75SLPC   H6X 6760   2.344   4.210   5.923 -0.9077 -0.7532  0.2859
   75SLPC   H6Y 6761   2.272   4.067   5.858 -0.5429  1.1915 -2.6901
   75SLPC   C37 6762   2.456   4.112   5.749 -0.0612 -0.0002 -0.7034
   75SLPC   H7X 6763   2.457   4.008   5.709  0.5589  0.6839 -2.5492
   75SLPC   H7Y 6764   2.564   4.135   5.765 -0.0561 -1.0045  1.0273
   75SLPC   C38 6765   2.402   4.217   5.650 -0.1446 -0.5570 -0.3751
   75SLPC   H8X 6766   2.409   4.322   5.684  1.4481  0.4846 -3.5624
   75SLPC   H8Y 6767   2.296   4.192   5.624 -0.2040 -2.3122  1.3579
   75SLPC   C39 6768   2.490   4.197   5.523 -0.2892 -0.1537  0.1233
   75SLPC   H9X 6769   2.491   4.088   5.498 -1.2693 -0.2634  0.5267
   75SLPC   H9Y 6770   2.591   4.228   5.557  0.4124 -0.6321 -1.4141
   75SLPC  C310 6771   2.445   4.278   5.402 -0.4452  0.8161  0.5405
   75SLPC  H10X 6772   2.452   4.387   5.420 -2.6488  1.2516 -0.9369
   75SLPC  H10Y 6773   2.344   4.247   5.369  0.5301 -2.9786  0.6044
   75SLPC  C311 6774   2.545   4.241   5.289  0.5705  0.4918 -0.7241
   75SLPC  H11X 6775   2.565   4.132   5.278 -1.0475 -0.0203  0.8675
   75SLPC  H11Y 6776   2.640   4.295   5.305  0.1161  1.3890 -0.9575
   75SLPC  C312 6777   2.497   4.301   5.155  0.6596 -0.1013  0.3083
   75SLPC  H12X 6778   2.448   4.399   5.172 -0.8092 -1.0553  1.8370
   75SLPC  H12Y 6779   2.416   4.235   5.117  0.4816  0.0586  0.4040
   75SLPC  C313 6780   2.609   4.309   5.050 -0.0933  0.1175 -0.0391
   75SLPC  H13X 6781   2.624   4.206   5.012 -3.1749  0.2828 -2.1444
   75SLPC  H13Y 6782   2.705   4.349   5.087  0.4118 -0.7547 -0.3899
   75SLPC  C314 6783   2.570   4.390   4.929 -0.4625  0.0818 -0.8249
   75SLPC  H14X 6784   2.659   4.414   4.866  1.6782 -1.1898  1.5526
   75SLPC  H14Y 6785   2.534   4.490   4.961  0.5509  0.1721  0.1002
   75SLPC  C315 6786   2.468   4.320   4.840  0.1423 -0.4414 -0.7685
   75SLPC  H15X 6787   2.373   4.313   4.896  0.1231 -0.7417 -0.8386
   75SLPC  H15Y 6788   2.499   4.219   4.807  0.6070 -0.5350 -0.0727
   75SLPC  C316 6789   2.432   4.403   4.712  0.0372 -0.4942 -0.1794
   75SLPC  H16X 6790   2.521   4.416   4.646 -1.3168  0.3507 -1.9376
   75SLPC  H16Y 6791   2.408   4.507   4.743 -0.1874 -0.8504  0.9072
   75SLPC  C317 6792   2.324   4.340   4.634  0.5061  0.1064  0.3363
   75SLPC  H17X 6793   2.242   4.331   4.707  0.3409  0.7101  0.2312
   75SLPC  H17Y 6794   2.361   4.244   4.591 -1.7419 -0.0266 -1.4906
   75SLPC  C318 6795   2.277   4.422   4.505 -0.5173 -1.0404 -0.3516
   75SLPC  H18X 6796   2.363   4.437   4.436 -0.3374 -0.8588 -0.0936
   75SLPC  H18Y 6797   2.224   4.518   4.523 -1.0636 -0.8015 -2.9064
   75SLPC  H18Z 6798   2.197   4.376   4.443 -1.3424  0.8187 -0.7465
   76SLPC     N 6799   6.180   3.644   7.142 -0.1170 -1.0411  0.5066
   76SLPC   C13 6800   6.320   3.608   7.174 -0.1273  0.4006 -0.1301
   76SLPC  H13A 6801   6.360   3.664   7.257  2.8140 -1.5446 -0.0528
   76SLPC  H13B 6802   6.324   3.504   7.203  0.3987  0.6574  0.7526
   76SLPC  H13C 6803   6.384   3.632   7.090 -2.0562  2.3922 -1.1380
   76SLPC   C14 6804   6.164   3.790   7.135 -0.8037  0.5179  0.3647
   76SLPC  H14A 6805   6.214   3.841   7.054 -0.8509  2.7875  1.6914
   76SLPC  H14B 6806   6.063   3.824   7.112 -0.9848  2.0803  3.0665
   76SLPC  H14C 6807   6.198   3.834   7.227 -0.6941 -0.7758  0.9522
   76SLPC   C15 6808   6.084   3.583   7.236  0.1016  0.2840  0.4122
   76SLPC  H15A 6809   5.986   3.605   7.197  1.5611  2.4893 -2.4371
   76SLPC  H15B 6810   6.101   3.477   7.237  0.1953  0.2933  0.0529
   76SLPC  H15C 6811   6.084   3.615   7.339 -1.2832 -1.9474  1.1591
   76SLPC   C12 6812   6.151   3.584   7.000 -1.1243 -0.9442 -0.2279
   76SLPC  H12A 6813   6.183   3.481   7.006 -0.8641 -0.7857  1.6328
   76SLPC  H12B 6814   6.211   3.634   6.925  1.2953 -2.4851  0.5815
   76SLPC   C11 6815   6.004   3.587   6.948  0.2248 -0.3386  0.0209
   76SLPC  H11A 6816   5.933   3.525   7.007  0.2757 -0.2669  0.1588
   76SLPC  H11B 6817   5.990   3.530   6.854  1.5571 -1.4769  0.4790
   76SLPC     P 6818   5.973   3.814   6.816 -0.0592 -0.0935  0.2436
   76SLPC   O13 6819   5.882   3.935   6.836  0.1788 -0.1545 -0.4552
   76SLPC   O14 6820   6.118   3.837   6.803  0.3569 -0.2619  0.4894
   76SLPC   O12 6821   5.943   3.719   6.940 -0.1648  0.6119 -0.1529
   76SLPC   O11 6822   5.918   3.722   6.694 -0.6683  0.3932 -0.6510
   76SLPC    C1 6823   5.790   3.657   6.712 -0.5669  0.5145  0.7157
   76SLPC    HA 6824   5.795   3.547   6.699  2.0078  0.7605 -1.1362
   76SLPC    HB 6825   5.743   3.675   6.811 -0.8829 -0.2612  0.7180
   76SLPC    C2 6826   5.691   3.703   6.603  0.7773  0.6161  0.3620
   76SLPC    HS 6827   5.606   3.631   6.612  0.6929  0.1719 -2.7968
   76SLPC   O21 6828   5.742   3.690   6.472  0.2258  0.2194  0.1747
   76SLPC   C21 6829   5.748   3.563   6.423 -0.4731  0.4531 -0.1773
   76SLPC   O22 6830   5.689   3.470   6.467  0.2699 -0.0600 -0.4283
   76SLPC   C22 6831   5.849   3.558   6.305  0.0915 -0.0961  0.0181
   76SLPC   H2R 6832   5.804   3.629   6.232 -0.0255 -0.4597 -0.2684
   76SLPC   H2S 6833   5.950   3.595   6.334  1.3924 -2.5564 -1.0694
   76SLPC    C3 6834   5.634   3.842   6.630  0.5311  0.0315 -0.1457
   76SLPC    HX 6835   5.723   3.909   6.628  0.9243 -0.5038 -1.5225
   76SLPC    HY 6836   5.579   3.852   6.726  0.4719 -0.0106 -0.1758
   76SLPC   O31 6837   5.553   3.883   6.521 -0.0761 -0.3045  0.6132
   76SLPC   C31 6838   5.416   3.861   6.522  0.3472 -0.5322 -0.0645
   76SLPC   O32 6839   5.366   3.794   6.610 -0.0273 -0.4130 -0.4219
   76SLPC   C32 6840   5.354   3.923   6.398 -0.0017 -0.0445  0.4950
   76SLPC   H2X 6841   5.341   4.032   6.414 -1.3312  0.1030 -1.2320
   76SLPC   H2Y 6842   5.248   3.891   6.394 -0.6681  1.9426  1.2095
   76SLPC   C23 6843   5.859   3.413   6.231  0.1011  1.0390  0.1517
   76SLPC   H3R 6844   5.753   3.388   6.211  0.4055 -0.1907  0.0276
   76SLPC   H3S 6845   5.888   3.337   6.306 -2.0265 -0.8742 -0.8421
   76SLPC   C24 6846   5.947   3.400   6.103 -0.4644 -0.4658 -0.0355
   76SLPC   H4R 6847   5.964   3.295   6.071  1.6932  0.3443 -1.8290
   76SLPC   H4S 6848   6.044   3.451   6.125 -2.8340  4.6250  0.1728
   76SLPC   C25 6849   5.889   3.485   5.986  1.1126 -0.6352 -0.0334
   76SLPC   H5R 6850   5.884   3.591   6.021 -1.8589 -1.0283  1.0299
   76SLPC   H5S 6851   5.784   3.453   5.970  1.2231 -0.9744 -0.0893
   76SLPC   C26 6852   5.968   3.489   5.859 -0.2484  0.6366  0.4060
   76SLPC   H6R 6853   5.981   3.387   5.815 -0.8218  0.4590  0.6434
   76SLPC   H6S 6854   6.070   3.526   5.883  0.2892  0.4459 -1.4252
   76SLPC   C27 6855   5.906   3.576   5.745  0.0542 -0.0692 -0.4856
   76SLPC   H7R 6856   5.881   3.671   5.796 -1.4651 -0.5557 -0.2587
   76SLPC   H7S 6857   5.807   3.536   5.713 -0.3849  0.1150  0.6133
   76SLPC   C28 6858   5.999   3.608   5.628 -0.1347 -0.4494 -1.0026
   76SLPC   H8R 6859   6.001   3.513   5.571  2.0485 -1.5248  0.7255
   76SLPC   H8S 6860   6.099   3.621   5.673  0.0433 -0.3729 -1.4205
   76SLPC   C29 6861   5.953   3.713   5.537 -0.4100 -1.0230 -0.2947
   76SLPC   H9R 6862   5.861   3.685   5.482 -1.7312 -1.6088  2.0926
   76SLPC  C210 6863   6.012   3.826   5.503 -0.5022 -0.3669 -0.4511
   76SLPC  H10R 6864   5.956   3.888   5.431  0.2866  0.8991  0.0027
   76SLPC  C211 6865   6.139   3.890   5.554  0.2343  0.4208 -0.2727
   76SLPC  H11R 6866   6.231   3.832   5.533 -1.6334 -2.8117 -0.2206
   76SLPC  H11S 6867   6.113   3.890   5.663 -1.7290 -3.1841 -0.5994
   76SLPC  C212 6868   6.159   4.034   5.526  0.4984  0.0836  0.0286
   76SLPC  H12R 6869   6.130   4.107   5.602 -1.3257  0.8454 -1.3259
   76SLPC  C213 6870   6.203   4.092   5.411 -0.1775  0.1543  0.1847
   76SLPC  H13R 6871   6.206   4.202   5.413 -0.3168  0.2965 -2.7553
   76SLPC  C214 6872   6.245   4.022   5.284  0.6306 -0.2581  0.8513
   76SLPC  H14R 6873   6.221   3.914   5.285  2.2130 -0.7879 -2.7900
   76SLPC  H14S 6874   6.352   4.030   5.256  0.2449 -1.8184 -1.2846
   76SLPC  C215 6875   6.185   4.079   5.151 -0.0122 -0.1357 -0.2387
   76SLPC  H15R 6876   6.233   4.045   5.057  1.9200  1.4732  0.0871
   76SLPC  H15S 6877   6.185   4.190   5.149  0.1855 -0.0690  1.5779
   76SLPC  C216 6878   6.037   4.030   5.135  0.2367  0.5295 -0.1013
   76SLPC  H16R 6879   5.973   4.069   5.218 -1.1035  0.3030 -0.9949
   76SLPC  H16S 6880   6.015   3.922   5.143  0.8568  0.3794 -0.3802
   76SLPC  C217 6881   5.960   4.071   5.008 -0.1318 -0.2531 -0.7060
   76SLPC  H17R 6882   5.971   4.181   4.995 -0.1675 -0.1162  0.3721
   76SLPC  H17S 6883   5.855   4.051   5.037  0.5188 -0.7883  1.4463
   76SLPC  C218 6884   5.999   3.996   4.884  0.5555 -0.6402  0.3310
   76SLPC  H18R 6885   6.102   4.019   4.850 -0.2394  1.8584 -0.6302
   76SLPC  H18S 6886   5.928   4.019   4.801  1.8928 -0.4928 -0.8089
   76SLPC  H18T 6887   5.988   3.887   4.905  0.5074 -0.6854  0.0780
   76SLPC   C33 6888   5.418   3.888   6.259 -0.1171  0.5878 -0.3926
   76SLPC   H3X 6889   5.425   3.778   6.256  0.7545  0.5878  0.7639
   76SLPC   H3Y 6890   5.521   3.928   6.247 -0.6462  1.5335 -2.1174
   76SLPC   C34 6891   5.343   3.931   6.130 -0.9307  0.5204 -0.3110
   76SLPC   H4X 6892   5.245   3.879   6.122  0.2094 -2.2898  2.0838
   76SLPC   H4Y 6893   5.386   3.898   6.033 -1.1087  3.2673 -1.4262
   76SLPC   C35 6894   5.340   4.083   6.125 -0.6132  0.3168  0.3596
   76SLPC   H5X 6895   5.442   4.127   6.129 -1.6424  3.0536 -0.9617
   76SLPC   H5Y 6896   5.306   4.117   6.225  2.5131  3.1012  0.6530
   76SLPC   C36 6897   5.255   4.141   6.011 -0.4604  0.0145 -0.4976
   76SLPC   H6X 6898   5.220   4.247   6.015 -2.5147 -0.5842 -1.3491
   76SLPC   H6Y 6899   5.159   4.086   6.001  0.1561 -0.7927 -2.5664
   76SLPC   C37 6900   5.326   4.132   5.874 -0.8177 -0.2418 -0.3685
   76SLPC   H7X 6901   5.333   4.024   5.848  2.3100  0.2472 -2.0243
   76SLPC   H7Y 6902   5.425   4.178   5.892 -1.4333  0.8584  0.3804
   76SLPC   C38 6903   5.264   4.208   5.755  0.2795 -0.4236 -0.7727
   76SLPC   H8X 6904   5.272   4.315   5.785 -4.1986  0.7510 -2.8269
   76SLPC   H8Y 6905   5.154   4.199   5.751  0.1158  1.4618 -1.5141
   76SLPC   C39 6906   5.326   4.159   5.629  0.4109 -0.2337 -0.1839
   76SLPC   H9X 6907   5.288   4.062   5.591 -2.6071  0.0834  1.6792
   76SLPC   H9Y 6908   5.432   4.141   5.655 -0.2192 -1.0401  2.0808
   76SLPC  C310 6909   5.333   4.267   5.512 -0.0200  1.0426  0.0858
   76SLPC  H10X 6910   5.388   4.356   5.548 -1.8054  1.3129  2.3393
   76SLPC  H10Y 6911   5.228   4.285   5.480  0.3624  0.9365 -1.3328
   76SLPC  C311 6912   5.402   4.208   5.386 -0.4272 -0.3902 -0.3696
   76SLPC  H11X 6913   5.332   4.129   5.349 -0.8433 -0.1515 -0.1000
   76SLPC  H11Y 6914   5.495   4.157   5.419  1.1159  0.5782 -2.9007
   76SLPC  C312 6915   5.432   4.314   5.271 -0.3325 -0.0771 -0.2060
   76SLPC  H12X 6916   5.481   4.406   5.309  2.4510 -1.3760 -0.4385
   76SLPC  H12Y 6917   5.336   4.355   5.231 -0.7412 -1.2678 -0.4920
   76SLPC  C313 6918   5.518   4.251   5.169  0.2038 -0.2243  0.8495
   76SLPC  H13X 6919   5.465   4.158   5.142 -0.0228  0.4003 -1.0350
   76SLPC  H13Y 6920   5.615   4.221   5.215 -0.3183  1.4750  3.2963
   76SLPC  C314 6921   5.538   4.332   5.039 -0.1244  0.1754 -0.4270
   76SLPC  H14X 6922   5.583   4.425   5.080 -0.1265 -0.5754  1.3665
   76SLPC  H14Y 6923   5.447   4.366   4.984 -0.2751  0.3640 -0.0650
   76SLPC  C315 6924   5.645   4.263   4.946  0.1034 -0.4888  0.1970
   76SLPC  H15X 6925   5.608   4.166   4.906 -0.1429  0.6553 -2.5625
   76SLPC  H15Y 6926   5.740   4.247   5.002  0.4795 -3.0689 -1.0065
   76SLPC  C316 6927   5.664   4.352   4.819  0.2384  0.4024  0.1976
   76SLPC  H16X 6928   5.679   4.457   4.852  0.9746  0.8390 -1.4249
   76SLPC  H16Y 6929   5.576   4.349   4.751 -1.0607  1.1114  1.7815
   76SLPC  C317 6930   5.788   4.316   4.734  0.6428 -0.1660  0.2186
   76SLPC  H17X 6931   5.786   4.206   4.719 -0.9747 -0.0173 -0.9606
   76SLPC  H17Y 6932   5.884   4.326   4.788  2.5171 -1.3725 -2.6446
   76SLPC  C318 6933   5.784   4.386   4.599 -0.0063  0.0811  0.1401
   76SLPC  H18X 6934   5.878   4.382   4.540 -0.5133 -0.7851 -0.6274
   76SLPC  H18Y 6935   5.758   4.490   4.626 -1.3932 -0.5444  1.3926
   76SLPC  H18Z 6936   5.706   4.343   4.532  0.6493  1.4267 -1.5647
   77SLPC     N 6937   6.063   2.649   7.218 -0.1033 -0.7093 -0.5413
   77SLPC   C13 6938   5.949   2.640   7.309 -0.2174 -0.4418 -0.2829
   77SLPC  H13A 6939   5.920   2.743   7.325 -1.1638 -0.5051 -1.4786
   77SLPC  H13B 6940   5.861   2.592   7.269  1.3448 -1.9377 -2.1724
   77SLPC  H13C 6941   5.969   2.599   7.407  1.8214  1.2529  0.0934
   77SLPC   C14 6942   6.167   2.736   7.264 -0.7836  0.2160 -0.3132
   77SLPC  H14A 6943   6.126   2.835   7.274 -1.6930 -0.1540 -0.3341
   77SLPC  H14B 6944   6.211   2.712   7.360  0.4200 -0.9453 -1.1159
   77SLPC  H14C 6945   6.248   2.759   7.196  1.3767 -1.1607  1.6375
   77SLPC   C15 6946   6.021   2.701   7.088  0.5879 -0.2625  0.3507
   77SLPC  H15A 6947   5.984   2.802   7.085 -0.1329 -0.5356 -0.3053
   77SLPC  H15B 6948   6.101   2.698   7.016 -0.3227 -1.5805 -0.6505
   77SLPC  H15C 6949   5.938   2.637   7.063  0.1027 -0.2848  1.8657
   77SLPC   C12 6950   6.116   2.509   7.189  0.6270  0.1847  0.1942
   77SLPC  H12A 6951   6.194   2.479   7.258  0.4563 -1.6404 -0.3548
   77SLPC  H12B 6952   6.174   2.507   7.098  1.3831 -1.8219  0.6544
   77SLPC   C11 6953   6.020   2.381   7.170  0.3045 -1.4378 -0.3969
   77SLPC  H11A 6954   5.978   2.367   7.272 -1.0452  0.7272 -0.5854
   77SLPC  H11B 6955   6.082   2.292   7.145  1.3239 -0.8598 -0.0249
   77SLPC     P 6956   5.798   2.312   7.051  0.0927 -0.0959 -0.1863
   77SLPC   O13 6957   5.824   2.183   7.114  0.8797 -0.2891  0.0064
   77SLPC   O14 6958   5.677   2.382   7.097 -0.0390 -0.2090 -0.4509
   77SLPC   O12 6959   5.925   2.409   7.068 -0.1735 -0.0783 -0.6378
   77SLPC   O11 6960   5.789   2.298   6.897  0.1140  0.0424  0.0772
   77SLPC    C1 6961   5.838   2.400   6.813  0.7265  0.5013  0.5419
   77SLPC    HA 6962   5.871   2.492   6.865 -0.8955  1.9780 -0.9098
   77SLPC    HB 6963   5.918   2.355   6.750  1.2429  0.6880  1.0594
   77SLPC    C2 6964   5.729   2.444   6.709  0.3276 -0.6425 -0.7169
   77SLPC    HS 6965   5.647   2.503   6.757  0.5479 -1.4357  0.6905
   77SLPC   O21 6966   5.671   2.330   6.655  0.0547  0.0035 -0.2486
   77SLPC   C21 6967   5.565   2.338   6.580  0.1321  0.2844  0.1449
   77SLPC   O22 6968   5.501   2.439   6.558 -0.4895  0.0280 -0.1738
   77SLPC   C22 6969   5.528   2.201   6.528  0.0679 -0.4687  0.0248
   77SLPC   H2R 6970   5.627   2.152   6.518 -0.0852 -0.9966  1.0190
   77SLPC   H2S 6971   5.473   2.140   6.602 -0.0805 -1.3906 -0.8278
   77SLPC    C3 6972   5.794   2.533   6.596 -0.6151 -0.6109  0.3983
   77SLPC    HX 6973   5.851   2.615   6.646  0.7121 -1.1537 -0.1653
   77SLPC    HY 6974   5.714   2.584   6.539  0.1767 -1.3381 -1.4393
   77SLPC   O31 6975   5.874   2.455   6.509 -0.0502 -0.2349  0.4455
   77SLPC   C31 6976   5.895   2.502   6.389  0.3673  0.1835 -0.3186
   77SLPC   O32 6977   5.864   2.613   6.350 -0.1288  0.5567 -0.1048
   77SLPC   C32 6978   5.970   2.402   6.300  0.6467  0.4139 -0.2887
   77SLPC   H2X 6979   5.936   2.300   6.326  0.5697 -0.2076 -2.6150
   77SLPC   H2Y 6980   6.079   2.404   6.321  0.7198  1.4423 -0.6723
   77SLPC   C23 6981   5.474   2.192   6.385  0.4142  0.4583  0.2126
   77SLPC   H3R 6982   5.491   2.096   6.333  1.0916 -0.5025  2.0927
   77SLPC   H3S 6983   5.520   2.269   6.318  1.7751  0.6690  1.3272
   77SLPC   C24 6984   5.320   2.210   6.392 -0.4176  0.1458  0.4123
   77SLPC   H4R 6985   5.294   2.314   6.419 -2.0659 -0.7031  2.4095
   77SLPC   H4S 6986   5.294   2.133   6.468 -1.9981 -1.0843 -1.2858
   77SLPC   C25 6987   5.239   2.170   6.261  0.7634 -0.2985  0.1661
   77SLPC   H5R 6988   5.266   2.245   6.183  1.0188  0.0812  0.6121
   77SLPC   H5S 6989   5.133   2.183   6.293  1.1624  0.4186  1.2291
   77SLPC   C26 6990   5.256   2.027   6.209  0.6641 -0.3961  0.1370
   77SLPC   H6R 6991   5.227   1.949   6.283 -0.0097 -0.0686  0.2224
   77SLPC   H6S 6992   5.365   2.025   6.184  0.5027  2.6858 -1.2899
   77SLPC   C27 6993   5.178   2.000   6.087  0.9872 -0.2735  0.7127
   77SLPC   H7R 6994   5.156   2.090   6.026 -3.1125 -1.4279  0.1632
   77SLPC   H7S 6995   5.073   1.972   6.110  0.7649  0.3409  0.4654
   77SLPC   C28 6996   5.252   1.884   6.016  0.2774  0.6954  0.0722
   77SLPC   H8R 6997   5.239   1.799   6.086  1.9317 -1.2969 -1.9100
   77SLPC   H8S 6998   5.361   1.905   6.008  0.0816  1.6221 -0.2770
   77SLPC   C29 6999   5.188   1.866   5.882 -0.2161 -0.0784 -0.1522
   77SLPC   H9R 7000   5.105   1.794   5.879 -0.1663 -0.2655  1.7044
   77SLPC  C210 7001   5.201   1.947   5.778  1.0420 -0.2160  1.0370
   77SLPC  H10R 7002   5.151   1.929   5.683  1.7832 -0.2434  0.6430
   77SLPC  C211 7003   5.279   2.074   5.771 -0.4284 -0.3668 -0.0431
   77SLPC  H11R 7004   5.298   2.110   5.874  3.4307  0.2915 -0.7913
   77SLPC  H11S 7005   5.225   2.158   5.721  0.3126 -0.7198 -1.4907
   77SLPC  C212 7006   5.420   2.054   5.717  0.6579 -0.0014 -0.6664
   77SLPC  H12R 7007   5.499   2.059   5.794  0.0395  0.1649 -0.0320
   77SLPC  C213 7008   5.449   2.020   5.589  0.1736  0.3623  0.4164
   77SLPC  H13R 7009   5.555   2.015   5.562  0.0877 -1.4720  0.2996
   77SLPC  C214 7010   5.347   2.009   5.474  0.4509 -0.0203 -1.2207
   77SLPC  H14R 7011   5.259   2.066   5.508  0.4515 -0.7468  0.0367
   77SLPC  H14S 7012   5.318   1.902   5.472  2.3054 -0.7543 -6.5696
   77SLPC  C215 7013   5.393   2.050   5.330  0.2425  0.7505 -0.0120
   77SLPC  H15R 7014   5.477   1.983   5.301 -0.9135  0.3793 -2.8175
   77SLPC  H15S 7015   5.432   2.154   5.333 -2.1438  1.7908 -1.5938
   77SLPC  C216 7016   5.279   2.048   5.230 -0.3152 -0.4466 -0.0803
   77SLPC  H16R 7017   5.201   2.122   5.257  0.2369 -0.1494  0.7679
   77SLPC  H16S 7018   5.240   1.948   5.203  1.1818 -0.7789 -1.1120
   77SLPC  C217 7019   5.325   2.107   5.099  0.2672 -0.2822  0.6020
   77SLPC  H17R 7020   5.364   2.022   5.040  0.7815  0.5351 -0.2701
   77SLPC  H17S 7021   5.402   2.187   5.111 -1.1232  1.3803 -0.9886
   77SLPC  C218 7022   5.211   2.172   5.021 -0.1480  0.8223  0.5750
   77SLPC  H18R 7023   5.229   2.240   4.936 -0.4989 -0.6480 -0.7163
   77SLPC  H18S 7024   5.153   2.233   5.093  1.5970  0.4009  2.4557
   77SLPC  H18T 7025   5.142   2.092   4.986 -1.4063  0.5773  3.3290
   77SLPC   C33 7026   5.949   2.427   6.148 -0.2057 -0.1265 -0.1423
   77SLPC   H3X 7027   6.023   2.368   6.090 -1.0541 -1.0758 -0.2951
   77SLPC   H3Y 7028   5.981   2.529   6.119 -0.6010 -0.0565 -0.3363
   77SLPC   C34 7029   5.807   2.397   6.096 -0.4752  0.1697 -1.0322
   77SLPC   H4X 7030   5.747   2.475   6.147 -0.3032 -1.0794  1.2051
   77SLPC   H4Y 7031   5.766   2.298   6.125  0.3018  0.0912 -0.1563
   77SLPC   C35 7032   5.786   2.429   5.951  0.0350 -0.5199 -0.1413
   77SLPC   H5X 7033   5.869   2.399   5.883  0.1192  0.6298 -0.5630
   77SLPC   H5Y 7034   5.778   2.539   5.940  1.1687 -0.6442 -3.3668
   77SLPC   C36 7035   5.649   2.379   5.893 -0.0704 -0.3216  0.5283
   77SLPC   H6X 7036   5.571   2.414   5.965 -0.2157 -0.4145  0.4172
   77SLPC   H6Y 7037   5.651   2.268   5.888  0.4212 -0.3033  0.2241
   77SLPC   C37 7038   5.632   2.445   5.751  0.7005  0.2873  0.5534
   77SLPC   H7X 7039   5.642   2.555   5.761  2.6472  0.1045  0.9633
   77SLPC   H7Y 7040   5.526   2.424   5.725  0.5850  1.7334 -0.2520
   77SLPC   C38 7041   5.724   2.397   5.635 -0.3122  0.3120  0.4278
   77SLPC   H8X 7042   5.714   2.287   5.641  0.8383  0.2933  2.9946
   77SLPC   H8Y 7043   5.829   2.425   5.658  0.8368 -2.0214 -1.4786
   77SLPC   C39 7044   5.698   2.440   5.491 -0.0334 -0.6397 -0.0345
   77SLPC   H9X 7045   5.735   2.545   5.488  0.9877 -1.0178 -0.9933
   77SLPC   H9Y 7046   5.590   2.454   5.469  0.1400  1.1995  0.0977
   77SLPC  C310 7047   5.760   2.357   5.384  0.8352 -1.3452 -0.2395
   77SLPC  H10X 7048   5.690   2.271   5.391 -2.1017  0.8373 -0.7070
   77SLPC  H10Y 7049   5.860   2.316   5.409  0.8907 -0.4930  1.0173
   77SLPC  C311 7050   5.750   2.407   5.243  0.5329  0.3381  0.5177
   77SLPC  H11X 7051   5.830   2.483   5.239  0.2172  0.6378 -0.9443
   77SLPC  H11Y 7052   5.659   2.469   5.229  1.2134  0.9260 -1.9649
   77SLPC  C312 7053   5.750   2.292   5.144  0.0394  0.0616  0.3839
   77SLPC  H12X 7054   5.659   2.234   5.173 -0.5450  0.1510 -1.1663
   77SLPC  H12Y 7055   5.841   2.230   5.159 -0.2423 -0.4660 -0.0528
   77SLPC  C313 7056   5.725   2.321   4.998  0.7470 -0.4726  0.7475
   77SLPC  H13X 7057   5.821   2.337   4.945  0.6338 -1.7814  0.1089
   77SLPC  H13Y 7058   5.671   2.417   4.991  0.7157 -0.5280  0.2408
   77SLPC  C314 7059   5.652   2.208   4.926 -0.2653 -0.8118  0.5986
   77SLPC  H14X 7060   5.555   2.178   4.970 -1.5131  1.3295 -0.5177
   77SLPC  H14Y 7061   5.718   2.119   4.924  0.3613 -0.3555 -1.1351
   77SLPC  C315 7062   5.638   2.250   4.777  0.4919 -0.2670  0.5256
   77SLPC  H15X 7063   5.742   2.265   4.741  0.0286  0.8629 -0.4013
   77SLPC  H15Y 7064   5.592   2.351   4.767 -1.6351 -1.3653 -2.0612
   77SLPC  C316 7065   5.566   2.154   4.684 -0.1522  0.2411 -0.1650
   77SLPC  H16X 7066   5.476   2.113   4.734 -0.2323  0.9003  0.2343
   77SLPC  H16Y 7067   5.632   2.065   4.680  0.2402  0.3905  1.9388
   77SLPC  C317 7068   5.543   2.188   4.541  0.8169  0.3122  0.3647
   77SLPC  H17X 7069   5.626   2.154   4.475 -0.1205 -2.7131  0.6280
   77SLPC  H17Y 7070   5.533   2.299   4.540 -1.9159  0.1595  1.7104
   77SLPC  C318 7071   5.416   2.132   4.482  0.2887 -0.5233  0.5565
   77SLPC  H18X 7072   5.422   2.022   4.469  1.6253 -0.2521 -1.6064
   77SLPC  H18Y 7073   5.403   2.163   4.376 -2.7718  1.4011  1.3655
   77SLPC  H18Z 7074   5.326   2.174   4.533  0.5865 -0.6943  1.2290
   78SLPC     N 7075   6.059   0.071   6.925  0.5101 -0.1127  0.5238
   78SLPC   C13 7076   6.188   0.002   6.968 -0.4291  0.1773  0.1179
   78SLPC  H13A 7077   6.164  -0.098   7.002  1.4812 -0.6309 -0.7631
   78SLPC  H13B 7078   6.249  -0.009   6.880  1.2903  3.1539  0.8142
   78SLPC  H13C 7079   6.245   0.061   7.039 -0.6472  1.1008 -0.4690
   78SLPC   C14 7080   6.086   0.209   6.883  0.0409 -0.0504 -0.1026
   78SLPC  H14A 7081   6.113   0.261   6.974 -0.0302 -3.0536  1.8057
   78SLPC  H14B 7082   6.171   0.223   6.819  0.5321  0.7388  0.7049
   78SLPC  H14C 7083   6.005   0.264   6.838  0.2482 -0.3682 -0.8748
   78SLPC   C15 7084   5.965   0.067   7.043 -0.2048 -0.0110 -0.1662
   78SLPC  H15A 7085   6.006   0.114   7.132  0.3457  0.5061 -0.6889
   78SLPC  H15B 7086   5.876   0.120   7.013  0.4063  2.8115  2.4425
   78SLPC  H15C 7087   5.943  -0.036   7.070  0.2627 -0.3316 -0.9622
   78SLPC   C12 7088   5.994  -0.007   6.808 -0.2103 -0.8129 -0.0447
   78SLPC  H12A 7089   5.895   0.035   6.797 -0.5472 -1.6867 -0.4261
   78SLPC  H12B 7090   5.977  -0.111   6.831 -0.0897 -0.6436  0.8589
   78SLPC   C11 7091   6.066   0.008   6.675 -0.9623 -0.6898 -0.4842
   78SLPC  H11A 7092   6.073   0.114   6.641  0.6797 -0.7439 -0.4059
   78SLPC  H11B 7093   6.006  -0.048   6.600 -2.6446  2.0510 -1.3533
   78SLPC     P 7094   6.335   0.011   6.631  0.1057 -0.2781  0.0996
   78SLPC   O13 7095   6.321   0.160   6.662 -0.1458 -0.1507  0.5553
   78SLPC   O14 7096   6.444  -0.062   6.696 -0.2325 -0.1048  0.0901
   78SLPC   O12 7097   6.200  -0.047   6.683  0.2707  0.2406  0.4939
   78SLPC   O11 7098   6.330  -0.012   6.476 -0.1557  0.2817 -0.3362
   78SLPC    C1 7099   6.296  -0.144   6.439 -0.9979  0.2338  0.2598
   78SLPC    HA 7100   6.385  -0.211   6.440 -2.9753 -2.7402 -2.4328
   78SLPC    HB 7101   6.210  -0.192   6.491 -0.0547 -2.0838 -0.2150
   78SLPC    C2 7102   6.251  -0.137   6.292  0.1295 -0.0886  0.1674
   78SLPC    HS 7103   6.242  -0.242   6.257  2.9934 -1.0704  2.0518
   78SLPC   O21 7104   6.335  -0.050   6.208 -0.1661  0.9772 -0.4371
   78SLPC   C21 7105   6.450  -0.100   6.174  0.2028 -0.5397  0.1182
   78SLPC   O22 7106   6.481  -0.211   6.190 -0.4008  0.3363 -0.4464
   78SLPC   C22 7107   6.531   0.009   6.099 -0.1272  0.1591 -0.0026
   78SLPC   H2R 7108   6.487   0.110   6.115 -0.2478  0.3265 -1.2766
   78SLPC   H2S 7109   6.637   0.010   6.133  0.2138  2.0179 -0.9650
   78SLPC    C3 7110   6.116  -0.064   6.294  0.3672  0.7693 -0.5234
   78SLPC    HX 7111   6.134   0.030   6.351  3.9210 -0.5754  0.8542
   78SLPC    HY 7112   6.042  -0.131   6.344  1.9660  0.2460  1.2514
   78SLPC   O31 7113   6.064  -0.043   6.155 -0.0416  0.3022 -0.4349
   78SLPC   C31 7114   6.060   0.082   6.109  0.0433 -0.5792 -0.7174
   78SLPC   O32 7115   6.083   0.187   6.169  0.2756 -0.1666 -0.3630
   78SLPC   C32 7116   6.037   0.081   5.955  0.2721  0.1450 -0.4238
   78SLPC   H2X 7117   5.928   0.086   5.936  0.0967 -0.2480  0.4536
   78SLPC   H2Y 7118   6.076  -0.015   5.915 -1.2230  0.1706 -2.0564
   78SLPC   C23 7119   6.531  -0.016   5.948 -0.5744  0.4650  0.2019
   78SLPC   H3R 7120   6.429  -0.005   5.906 -0.1340 -2.1628 -1.8801
   78SLPC   H3S 7121   6.569  -0.120   5.932  1.1414  1.3207 -1.8025
   78SLPC   C24 7122   6.631   0.084   5.875  0.4549  0.1122  0.0761
   78SLPC   H4R 7123   6.734   0.055   5.906 -0.0613 -3.0273 -0.8106
   78SLPC   H4S 7124   6.606   0.187   5.911  0.8374  0.1561  0.2221
   78SLPC   C25 7125   6.621   0.074   5.723  0.1647  0.2231  0.2361
   78SLPC   H5R 7126   6.511   0.075   5.705 -0.3650 -0.4189  2.9140
   78SLPC   H5S 7127   6.672  -0.015   5.679  0.2314 -0.0606  0.8761
   78SLPC   C26 7128   6.672   0.194   5.659 -0.9944 -0.3347  0.1607
   78SLPC   H6R 7129   6.783   0.198   5.659 -0.9005 -1.3067  2.4541
   78SLPC   H6S 7130   6.646   0.284   5.720 -0.9946 -1.3087  1.6458
   78SLPC   C27 7131   6.636   0.209   5.511  0.2179  0.1025  0.4861
   78SLPC   H7R 7132   6.528   0.226   5.491 -0.0651 -2.6287 -0.7566
   78SLPC   H7S 7133   6.654   0.111   5.463  0.4337  0.4368 -0.1260
   78SLPC   C28 7134   6.720   0.314   5.439  0.4696 -0.1012 -0.4369
   78SLPC   H8R 7135   6.704   0.300   5.330  1.3325  0.0281 -0.5911
   78SLPC   H8S 7136   6.826   0.284   5.453 -0.1353 -1.5048  1.8003
   78SLPC   C29 7137   6.710   0.455   5.480 -0.0014 -0.4162  0.5957
   78SLPC   H9R 7138   6.743   0.482   5.582 -3.8747  2.5526  1.3004
   78SLPC  C210 7139   6.663   0.557   5.406 -0.6101  0.1748  0.3183
   78SLPC  H10R 7140   6.679   0.655   5.454  1.8203 -0.9981  2.0845
   78SLPC  C211 7141   6.609   0.555   5.259 -0.3189  0.3399  0.2909
   78SLPC  H11R 7142   6.561   0.653   5.239 -1.1282 -0.3469 -1.3611
   78SLPC  H11S 7143   6.524   0.484   5.267 -2.0268  1.9442 -2.1250
   78SLPC  C212 7144   6.708   0.520   5.149  0.0562  0.3417 -0.1441
   78SLPC  H12R 7145   6.813   0.519   5.182  0.1586 -0.6820 -0.4826
   78SLPC  C213 7146   6.681   0.490   5.016  0.1819 -0.8921  0.2111
   78SLPC  H13R 7147   6.768   0.459   4.957  1.3580  0.3128  1.2266
   78SLPC  C214 7148   6.554   0.497   4.946  0.4014 -0.0304 -0.4952
   78SLPC  H14R 7149   6.477   0.551   5.005  1.3989  2.5643 -1.4017
   78SLPC  H14S 7150   6.502   0.402   4.924 -3.7117  2.1097 -1.0219
   78SLPC  C215 7151   6.578   0.582   4.822 -0.6423 -0.5125 -0.0371
   78SLPC  H15R 7152   6.627   0.678   4.846  1.6107 -2.0196  1.7430
   78SLPC  H15S 7153   6.480   0.608   4.776 -1.8426  0.1718  2.7209
   78SLPC  C216 7154   6.659   0.514   4.706 -0.6371 -0.8230  0.6540
   78SLPC  H16R 7155   6.650   0.405   4.686  2.1276 -0.4388 -4.1349
   78SLPC  H16S 7156   6.764   0.527   4.738  0.3741 -1.7789 -2.0146
   78SLPC  C217 7157   6.638   0.575   4.565  0.5420 -0.1352  0.0130
   78SLPC  H17R 7158   6.630   0.685   4.581 -1.2054 -0.1000 -0.8040
   78SLPC  H17S 7159   6.539   0.535   4.533  0.8943 -1.9051  1.0356
   78SLPC  C218 7160   6.745   0.532   4.455 -0.2384  0.1667 -0.4667
   78SLPC  H18R 7161   6.709   0.575   4.360  1.0524 -1.7893 -1.9115
   78SLPC  H18S 7162   6.754   0.421   4.448  2.9960  0.3825 -0.9987
   78SLPC  H18T 7163   6.847   0.568   4.479  0.3422 -1.5702 -0.1919
   78SLPC   C33 7164   6.119   0.177   5.875  0.3693 -0.2943 -0.0516
   78SLPC   H3X 7165   6.226   0.185   5.903  0.9889 -1.1566 -2.0367
   78SLPC   H3Y 7166   6.088   0.281   5.897  3.1967  0.2346  1.9409
   78SLPC   C34 7167   6.123   0.152   5.723 -0.2801 -0.2448  0.0765
   78SLPC   H4X 7168   6.018   0.135   5.693 -1.0014  0.9293  1.7231
   78SLPC   H4Y 7169   6.175   0.057   5.698  0.7615  0.2073  0.4686
   78SLPC   C35 7170   6.186   0.262   5.652 -0.2691 -0.0506  0.6334
   78SLPC   H5X 7171   6.292   0.277   5.682  0.3253  1.6589 -1.9764
   78SLPC   H5Y 7172   6.138   0.356   5.684 -0.5561  0.3434 -0.8567
   78SLPC   C36 7173   6.182   0.245   5.498 -0.1331 -0.1613 -0.5677
   78SLPC   H6X 7174   6.074   0.233   5.474 -1.2284  1.4206  2.9201
   78SLPC   H6Y 7175   6.242   0.161   5.457  0.9595  1.2894 -2.0656
   78SLPC   C37 7176   6.227   0.368   5.406  0.3450  0.0619  0.8550
   78SLPC   H7X 7177   6.329   0.399   5.436  2.3955 -1.7912 -3.3916
   78SLPC   H7Y 7178   6.147   0.437   5.441 -0.4665 -1.3563  1.9074
   78SLPC   C38 7179   6.219   0.329   5.258 -0.2979  0.3440 -0.3289
   78SLPC   H8X 7180   6.120   0.278   5.259  0.1227 -0.4918  0.5323
   78SLPC   H8Y 7181   6.304   0.261   5.236  0.1004  0.4280  0.9121
   78SLPC   C39 7182   6.218   0.453   5.166 -0.4721  0.5822  0.6330
   78SLPC   H9X 7183   6.323   0.490   5.169  0.0748 -0.9573  1.0907
   78SLPC   H9Y 7184   6.149   0.534   5.202 -3.7389 -2.6896  2.4203
   78SLPC  C310 7185   6.180   0.421   5.015 -0.3256 -0.5659  0.5520
   78SLPC  H10X 7186   6.087   0.362   5.019 -0.7292 -0.1009 -1.1420
   78SLPC  H10Y 7187   6.260   0.351   4.983 -0.1987 -1.2930  2.3153
   78SLPC  C311 7188   6.169   0.549   4.935 -0.1514 -1.0511 -0.2288
   78SLPC  H11X 7189   6.259   0.614   4.927 -0.8368 -0.0964 -0.2565
   78SLPC  H11Y 7190   6.097   0.620   4.980  1.4492  0.5198 -0.0494
   78SLPC  C312 7191   6.128   0.514   4.792  0.4887 -0.1468  0.1432
   78SLPC  H12X 7192   6.043   0.446   4.809  0.3900  0.1498  0.8447
   78SLPC  H12Y 7193   6.214   0.456   4.751  1.2308 -0.7313  2.4016
   78SLPC  C313 7194   6.092   0.637   4.702  0.3116 -0.9800  0.4551
   78SLPC  H13X 7195   6.083   0.603   4.596 -0.3829 -0.9691  0.5068
   78SLPC  H13Y 7196   6.180   0.704   4.714 -0.3459 -0.2862  1.4395
   78SLPC  C314 7197   5.963   0.708   4.751 -0.6375  0.7298 -0.9007
   78SLPC  H14X 7198   5.986   0.767   4.842 -0.3473 -0.9382  0.1402
   78SLPC  H14Y 7199   5.903   0.618   4.775  0.6461  0.1859  0.3968
   78SLPC  C315 7200   5.894   0.791   4.644  0.1087 -0.5097 -0.4474
   78SLPC  H15X 7201   5.784   0.775   4.651  0.1563 -1.2145 -1.0865
   78SLPC  H15Y 7202   5.939   0.751   4.550 -0.3760 -1.3679 -0.3249
   78SLPC  C316 7203   5.921   0.942   4.665  0.2557  0.4581  0.4249
   78SLPC  H16X 7204   6.025   0.948   4.626 -0.2393 -1.7126 -1.4121
   78SLPC  H16Y 7205   5.914   0.978   4.770 -0.0765  0.2833  0.4632
   78SLPC  C317 7206   5.846   1.033   4.572  0.1114 -0.6727  0.4316
   78SLPC  H17X 7207   5.877   1.136   4.600 -2.8610  0.1640  0.9107
   78SLPC  H17Y 7208   5.737   1.023   4.590  0.0832  2.2938  2.6417
   78SLPC  C318 7209   5.875   1.021   4.427  0.3700 -0.4263  0.5074
   78SLPC  H18X 7210   5.983   1.021   4.404  0.1949 -0.0857 -0.4028
   78SLPC  H18Y 7211   5.829   1.110   4.378 -1.2748 -0.2165  2.3296
   78SLPC  H18Z 7212   5.833   0.933   4.373 -0.7501  0.0754  0.5292
   79SLPC     N 7213   5.413   5.253   6.617 -0.1704  0.3165  0.2319
   79SLPC   C13 7214   5.481   5.362   6.545  0.5264 -0.0217  0.7572
   79SLPC  H13A 7215   5.407   5.410   6.482 -0.8596 -1.5824  1.1244
   79SLPC  H13B 7216   5.511   5.438   6.615  0.2813 -0.5076  1.4026
   79SLPC  H13C 7217   5.558   5.331   6.476  0.7282  1.3271  0.3383
   79SLPC   C14 7218   5.386   5.133   6.522 -0.6571  0.2282  0.5421
   79SLPC  H14A 7219   5.479   5.078   6.530 -0.7985 -0.1491 -0.2888
   79SLPC  H14B 7220   5.302   5.069   6.542 -2.1775  1.3263 -1.8408
   79SLPC  H14C 7221   5.383   5.165   6.419  1.9538  3.4342  1.2732
   79SLPC   C15 7222   5.280   5.310   6.662 -0.3927  0.2469  0.2888
   79SLPC  H15A 7223   5.285   5.392   6.732  1.0217  0.9024 -0.5586
   79SLPC  H15B 7224   5.229   5.362   6.583 -1.6020  0.4696  1.1791
   79SLPC  H15C 7225   5.210   5.233   6.693 -3.0748  1.7283 -1.6395
   79SLPC   C12 7226   5.497   5.215   6.735  0.3453 -0.7808 -0.3400
   79SLPC  H12A 7227   5.492   5.302   6.799 -0.0339 -0.6399 -0.5567
   79SLPC  H12B 7228   5.601   5.215   6.706  1.2058  0.6887  2.3920
   79SLPC   C11 7229   5.453   5.083   6.812 -0.0848 -0.6139  0.2870
   79SLPC  H11A 7230   5.343   5.089   6.827 -0.1673 -0.2902 -0.3898
   79SLPC  H11B 7231   5.500   5.088   6.912 -0.6038  2.6399  0.4741
   79SLPC     P 7232   5.640   4.922   6.717  0.4135 -0.6312  0.0438
   79SLPC   O13 7233   5.711   5.034   6.644  0.0613 -0.1257  0.6129
   79SLPC   O14 7234   5.705   4.883   6.845 -0.1281 -0.1297  0.4270
   79SLPC   O12 7235   5.494   4.964   6.748 -0.2340 -0.4531 -0.2809
   79SLPC   O11 7236   5.615   4.798   6.627 -0.2728  0.0636 -0.1482
   79SLPC    C1 7237   5.695   4.684   6.606 -0.6187  0.5837  0.4473
   79SLPC    HA 7238   5.721   4.640   6.705  1.7400 -1.4543 -0.9896
   79SLPC    HB 7239   5.637   4.612   6.544  0.7074 -0.8433  0.8112
   79SLPC    C2 7240   5.822   4.700   6.527 -0.3200 -0.1300 -0.5234
   79SLPC    HS 7241   5.884   4.771   6.586 -1.6906 -1.7776  3.1995
   79SLPC   O21 7242   5.787   4.767   6.402 -0.6507  0.3429  0.0150
   79SLPC   C21 7243   5.883   4.828   6.344  0.3472  0.9485 -0.3678
   79SLPC   O22 7244   5.989   4.854   6.394  0.1533  0.2597 -0.2427
   79SLPC   C22 7245   5.838   4.853   6.205 -0.0310  0.2538 -0.2415
   79SLPC   H2R 7246   5.829   4.756   6.152 -2.5520  0.2111  0.1225
   79SLPC   H2S 7247   5.736   4.895   6.223 -0.4004 -1.1164  1.0887
   79SLPC    C3 7248   5.895   4.558   6.531 -0.4126 -0.1199 -0.0821
   79SLPC    HX 7249   5.815   4.484   6.511 -0.5566 -0.1911  0.7533
   79SLPC    HY 7250   5.944   4.540   6.629  0.3274 -3.2430 -0.9191
   79SLPC   O31 7251   5.993   4.540   6.433 -0.3784  1.0464  0.3230
   79SLPC   C31 7252   6.108   4.597   6.452 -0.0702 -0.2218  0.5677
   79SLPC   O32 7253   6.126   4.683   6.537  0.3176 -0.0252  0.0217
   79SLPC   C32 7254   6.211   4.542   6.362  0.5900 -0.3508 -0.6223
   79SLPC   H2X 7255   6.310   4.541   6.413 -1.1067 -1.0834  2.9382
   79SLPC   H2Y 7256   6.211   4.619   6.282  2.0588  1.6940  1.2329
   79SLPC   C23 7257   5.939   4.935   6.128  0.6682 -0.0351 -0.0675
   79SLPC   H3R 7258   6.042   4.905   6.158 -0.1108 -0.5762  2.2341
   79SLPC   H3S 7259   5.918   5.034   6.175 -2.1655  0.1776 -1.5909
   79SLPC   C24 7260   5.925   4.918   5.980 -0.5118  0.2676 -0.4585
   79SLPC   H4R 7261   5.994   4.993   5.934  1.8414 -1.8710 -0.6377
   79SLPC   H4S 7262   5.826   4.956   5.947 -1.8672  0.2073  3.0673
   79SLPC   C25 7263   5.984   4.791   5.915  1.0805  0.8836 -0.4567
   79SLPC   H5R 7264   5.923   4.706   5.954  1.0010 -0.1387 -2.6202
   79SLPC   H5S 7265   6.090   4.772   5.942  1.0269 -0.4848 -1.0876
   79SLPC   C26 7266   5.953   4.797   5.770  0.4736 -0.7316 -0.4857
   79SLPC   H6R 7267   5.970   4.904   5.747 -0.4865 -0.1697  1.1767
   79SLPC   H6S 7268   5.846   4.771   5.752  0.0463  0.7884 -0.2833
   79SLPC   C27 7269   6.049   4.716   5.682 -0.0468 -0.7787 -0.2782
   79SLPC   H7R 7270   6.022   4.608   5.688 -1.7221 -0.3303  0.8235
   79SLPC   H7S 7271   6.148   4.724   5.731 -0.6838  1.9280  0.7636
   79SLPC   C28 7272   6.047   4.755   5.535  0.1171  0.7619 -0.4605
   79SLPC   H8R 7273   5.940   4.761   5.505  0.4767 -0.7901 -2.2669
   79SLPC   H8S 7274   6.101   4.668   5.491 -1.0076 -0.7835  1.0667
   79SLPC   C29 7275   6.116   4.882   5.507  0.6168  1.5727 -0.1875
   79SLPC   H9R 7276   6.129   4.948   5.594  1.4571  1.4826 -0.2453
   79SLPC  C210 7277   6.167   4.915   5.385  0.3617 -0.1778  0.1358
   79SLPC  H10R 7278   6.226   5.006   5.369 -0.1575  0.2792  0.7397
   79SLPC  C211 7279   6.154   4.832   5.262 -0.1558  0.4941  0.7920
   79SLPC  H11R 7280   6.066   4.855   5.199 -0.9910 -3.0099  0.4553
   79SLPC  H11S 7281   6.131   4.726   5.290 -1.0324  0.4423 -0.0761
   79SLPC  C212 7282   6.281   4.828   5.185 -0.1556  0.5514 -0.0837
   79SLPC  H12R 7283   6.348   4.746   5.213  0.2853  1.1011  0.4965
   79SLPC  C213 7284   6.310   4.901   5.086 -0.5431 -0.0978  0.3501
   79SLPC  H13R 7285   6.408   4.889   5.040 -1.4818  0.7215 -2.0036
   79SLPC  C214 7286   6.247   5.025   5.034  0.2835  0.2844 -0.0192
   79SLPC  H14R 7287   6.311   5.115   5.041  1.4255 -0.3582 -1.4942
   79SLPC  H14S 7288   6.153   5.051   5.088  1.2352  0.6944  1.4947
   79SLPC  C215 7289   6.211   5.013   4.886  0.7771 -0.4653  0.5094
   79SLPC  H15R 7290   6.156   5.102   4.849  4.0424  0.8399 -1.6402
   79SLPC  H15S 7291   6.141   4.928   4.869  0.8768 -0.9065  2.1056
   79SLPC  C216 7292   6.336   4.990   4.791 -0.1257  0.6429  0.6906
   79SLPC  H16R 7293   6.365   4.886   4.815  0.5438  0.8411  0.7688
   79SLPC  H16S 7294   6.421   5.061   4.806 -0.7049  1.6365 -0.5491
   79SLPC  C217 7295   6.298   5.012   4.644 -0.2593  0.2010  0.0387
   79SLPC  H17R 7296   6.276   5.120   4.639  0.9550  0.4814  0.3934
   79SLPC  H17S 7297   6.207   4.950   4.625 -0.5840  0.6010  0.2699
   79SLPC  C218 7298   6.407   4.977   4.543 -0.2194 -0.3802  0.3881
   79SLPC  H18R 7299   6.486   5.055   4.536 -0.4932 -0.1117  0.2420
   79SLPC  H18S 7300   6.365   4.972   4.441  0.9815  1.0811 -0.2133
   79SLPC  H18T 7301   6.444   4.876   4.569  2.3090  0.6247  1.0413
   79SLPC   C33 7302   6.177   4.404   6.288  0.8852 -0.1909  0.2955
   79SLPC   H3X 7303   6.072   4.396   6.254  0.9663 -1.0255  0.2083
   79SLPC   H3Y 7304   6.184   4.319   6.360  0.7328  0.9793  1.7197
   79SLPC   C34 7305   6.268   4.356   6.177  0.3392  0.2576  0.3406
   79SLPC   H4X 7306   6.278   4.246   6.167  0.7215  0.3278 -0.1094
   79SLPC   H4Y 7307   6.376   4.378   6.196 -0.1648  1.8358  1.5980
   79SLPC   C35 7308   6.248   4.423   6.042 -0.3267  0.0955 -0.0585
   79SLPC   H5X 7309   6.287   4.527   6.044 -1.6523  0.6626 -1.5287
   79SLPC   H5Y 7310   6.137   4.429   6.032 -0.2560 -1.0096 -2.0558
   79SLPC   C36 7311   6.312   4.358   5.919  0.2047 -0.8941 -0.7067
   79SLPC   H6X 7312   6.278   4.253   5.911 -1.4765 -0.4051 -0.3621
   79SLPC   H6Y 7313   6.422   4.346   5.928  0.1834 -0.3715  0.5805
   79SLPC   C37 7314   6.293   4.435   5.784 -0.0061  0.6591  0.2224
   79SLPC   H7X 7315   6.330   4.540   5.786  1.1270  0.2709  0.3561
   79SLPC   H7Y 7316   6.187   4.429   5.754  0.4674  0.4425 -1.4790
   79SLPC   C38 7317   6.357   4.362   5.663  0.0446 -0.1728  0.4724
   79SLPC   H8X 7318   6.304   4.266   5.644 -1.9586  0.8733  0.4012
   79SLPC   H8Y 7319   6.462   4.334   5.686 -0.2359 -2.5488 -0.8266
   79SLPC   C39 7320   6.336   4.435   5.536  0.7059  0.4141 -0.2385
   79SLPC   H9X 7321   6.366   4.542   5.535  1.7204  0.1524 -2.2474
   79SLPC   H9Y 7322   6.230   4.424   5.506  0.2639 -0.2978  1.4146
   79SLPC  C310 7323   6.416   4.366   5.425 -0.1118  0.2867 -0.3807
   79SLPC  H10X 7324   6.387   4.259   5.425  1.4036 -0.1547  1.2864
   79SLPC  H10Y 7325   6.524   4.354   5.446 -0.2651  1.3484  1.1987
   79SLPC  C311 7326   6.386   4.430   5.289 -0.0399  0.2265 -0.1622
   79SLPC  H11X 7327   6.396   4.541   5.295  1.0159  0.1101  0.4252
   79SLPC  H11Y 7328   6.280   4.405   5.267 -0.4276  0.9468  0.7775
   79SLPC  C312 7329   6.475   4.377   5.180  0.2103 -0.2645 -0.4238
   79SLPC  H12X 7330   6.482   4.267   5.183  0.1138 -0.2808 -0.7087
   79SLPC  H12Y 7331   6.577   4.415   5.203 -0.4539  1.5828 -0.3294
   79SLPC  C313 7332   6.452   4.440   5.042  0.0316  0.4200 -0.1074
   79SLPC  H13X 7333   6.540   4.397   4.990  0.7770  1.2953  0.4005
   79SLPC  H13Y 7334   6.466   4.550   5.036  0.7084  0.2512 -3.1004
   79SLPC  C314 7335   6.323   4.396   4.966 -0.2160 -0.3341 -0.8280
   79SLPC  H14X 7336   6.231   4.433   5.015  0.1756  0.1301 -0.4323
   79SLPC  H14Y 7337   6.322   4.285   4.968  2.9566 -0.4825  2.1630
   79SLPC  C315 7338   6.325   4.438   4.812 -0.3610 -0.2031 -0.2293
   79SLPC  H15X 7339   6.405   4.385   4.756 -0.7542 -1.2457  0.1715
   79SLPC  H15Y 7340   6.349   4.546   4.798  0.4327 -0.3818 -0.3035
   79SLPC  C316 7341   6.192   4.410   4.739 -0.1455 -0.3007 -0.5653
   79SLPC  H16X 7342   6.141   4.507   4.760 -2.9143 -2.0395  1.5831
   79SLPC  H16Y 7343   6.136   4.335   4.798 -0.7850  1.6064  1.3906
   79SLPC  C317 7344   6.190   4.378   4.584 -0.0739 -0.3838  0.0377
   79SLPC  H17X 7345   6.088   4.370   4.540  0.2839  0.0262 -0.8864
   79SLPC  H17Y 7346   6.243   4.283   4.562  2.2351  0.8721 -0.1495
   79SLPC  C318 7347   6.272   4.487   4.508 -0.7412  0.2247  0.8233
   79SLPC  H18X 7348   6.282   4.465   4.399  2.4946 -0.2427  1.1242
   79SLPC  H18Y 7349   6.377   4.499   4.541 -0.0029  1.1748 -1.6611
   79SLPC  H18Z 7350   6.221   4.585   4.518  1.9103  1.6627  1.1672
   80SLPC     N 7351   2.983   0.183   6.859 -0.3098 -0.5480  0.5884
   80SLPC   C13 7352   2.877   0.109   6.792 -0.2531 -0.3893 -0.6951
   80SLPC  H13A 7353   2.825   0.176   6.725  2.3653  3.1121  0.4594
   80SLPC  H13B 7354   2.930   0.037   6.732  0.4458 -1.6485  1.3107
   80SLPC  H13C 7355   2.815   0.050   6.858 -0.6622 -1.9467 -2.4196
   80SLPC   C14 7356   2.925   0.271   6.965 -0.4159  0.6451 -0.6824
   80SLPC  H14A 7357   2.865   0.343   6.912  0.5484  2.4847  0.6081
   80SLPC  H14B 7358   2.855   0.212   7.023 -0.8218 -0.0163 -1.7987
   80SLPC  H14C 7359   2.997   0.334   7.015 -2.4876  2.1297  0.5565
   80SLPC   C15 7360   3.052   0.273   6.758 -0.8460 -0.0177 -1.4701
   80SLPC  H15A 7361   2.986   0.339   6.703 -1.6056  0.6552  0.2029
   80SLPC  H15B 7362   3.122   0.339   6.807 -0.3949 -0.0394 -2.0700
   80SLPC  H15C 7363   3.118   0.216   6.694  2.0763 -0.1796  1.4604
   80SLPC   C12 7364   3.075   0.086   6.927 -0.2030 -0.5511 -0.5245
   80SLPC  H12A 7365   3.011   0.024   6.988 -1.5770 -0.2857 -1.6432
   80SLPC  H12B 7366   3.143   0.135   6.996 -0.1898 -1.2662 -0.0135
   80SLPC   C11 7367   3.159   0.002   6.840 -0.3847  0.4334  0.1184
   80SLPC  H11A 7368   3.227  -0.055   6.906 -0.6324 -2.0420 -1.6008
   80SLPC  H11B 7369   3.222   0.064   6.773  0.6614 -1.0109 -0.2730
   80SLPC     P 7370   3.143  -0.191   6.655  0.1655  0.4737  0.2886
   80SLPC   O13 7371   3.244  -0.279   6.722 -0.0204 -0.2198 -0.2504
   80SLPC   O14 7372   3.026  -0.260   6.588 -0.3023  0.0967 -0.3423
   80SLPC   O12 7373   3.083  -0.090   6.756 -0.5640 -0.2208  0.1878
   80SLPC   O11 7374   3.213  -0.094   6.556 -0.8477  0.8613  0.1993
   80SLPC    C1 7375   3.149   0.014   6.484  0.0638  0.1582  0.1008
   80SLPC    HA 7376   3.045   0.025   6.523  0.1097 -1.8959  0.9485
   80SLPC    HB 7377   3.212   0.105   6.489 -1.1898  0.9880  2.1073
   80SLPC    C2 7378   3.148  -0.021   6.331  0.1133 -0.2061  0.1991
   80SLPC    HS 7379   3.100  -0.120   6.326  1.7466 -1.0414  0.3229
   80SLPC   O21 7380   3.286  -0.021   6.287  0.0363 -0.0553 -0.1591
   80SLPC   C21 7381   3.310  -0.099   6.189  0.4082  0.3567  0.3185
   80SLPC   O22 7382   3.225  -0.161   6.128 -0.1907  0.2704  0.0658
   80SLPC   C22 7383   3.455  -0.102   6.159  0.4531  0.3346 -0.1050
   80SLPC   H2R 7384   3.477   0.000   6.122  2.8168  0.1451  0.6255
   80SLPC   H2S 7385   3.509  -0.117   6.255  0.8770  1.5655 -0.1400
   80SLPC    C3 7386   3.065   0.097   6.263  0.7580  0.0620  0.4188
   80SLPC    HX 7387   3.124   0.189   6.284 -1.9997  2.1166 -0.2801
   80SLPC    HY 7388   2.965   0.118   6.306  0.6822  1.0147 -0.1812
   80SLPC   O31 7389   3.056   0.067   6.122 -0.3068  0.4582  0.3384
   80SLPC   C31 7390   2.960  -0.014   6.099 -0.2915 -0.3354 -0.0144
   80SLPC   O32 7391   2.883  -0.064   6.178  0.6632 -0.0948 -0.1021
   80SLPC   C32 7392   2.974  -0.044   5.942 -0.0198 -0.2405 -0.5879
   80SLPC   H2X 7393   3.070  -0.092   5.915  0.6505  0.7225  0.0402
   80SLPC   H2Y 7394   2.976   0.060   5.904  1.3215  0.1331  0.4230
   80SLPC   C23 7395   3.487  -0.223   6.065 -0.1020  0.0143 -0.3704
   80SLPC   H3R 7396   3.445  -0.320   6.100 -0.5913  0.1826 -0.4771
   80SLPC   H3S 7397   3.597  -0.236   6.064 -0.1905 -1.0182  1.0329
   80SLPC   C24 7398   3.448  -0.196   5.926  0.4355 -0.1363  0.9656
   80SLPC   H4R 7399   3.475  -0.093   5.894  1.1154 -1.5173 -3.6195
   80SLPC   H4S 7400   3.338  -0.206   5.913  0.3809  0.6753  0.7469
   80SLPC   C25 7401   3.518  -0.289   5.831 -0.0119 -0.1865  0.0164
   80SLPC   H5R 7402   3.499  -0.394   5.864 -0.1062 -0.4985 -1.0089
   80SLPC   H5S 7403   3.626  -0.269   5.850 -0.1375  0.0683  0.4840
   80SLPC   C26 7404   3.488  -0.275   5.684  0.6709  1.3907  0.2678
   80SLPC   H6R 7405   3.383  -0.305   5.666  1.4866 -1.8837  0.2506
   80SLPC   H6S 7406   3.558  -0.339   5.626 -0.7187 -1.9331  1.9678
   80SLPC   C27 7407   3.491  -0.130   5.637  0.3212  0.5970 -0.4468
   80SLPC   H7R 7408   3.577  -0.078   5.685 -0.5610  1.5744  0.0972
   80SLPC   H7S 7409   3.397  -0.086   5.675 -2.5957 -3.3263 -2.3617
   80SLPC   C28 7410   3.494  -0.121   5.483  0.5749 -0.3516  0.0074
   80SLPC   H8R 7411   3.414  -0.187   5.444  0.9964 -0.2163 -1.1239
   80SLPC   H8S 7412   3.585  -0.174   5.450  0.1592 -1.7781  1.0647
   80SLPC   C29 7413   3.493   0.014   5.430 -0.9489 -0.3608 -0.3984
   80SLPC   H9R 7414   3.482   0.097   5.502  1.4716  0.4825 -0.8985
   80SLPC  C210 7415   3.521   0.044   5.310 -0.4320  0.3203  0.4283
   80SLPC  H10R 7416   3.513   0.149   5.277  0.9825  1.1465  2.5133
   80SLPC  C211 7417   3.560  -0.058   5.203  0.4735 -0.0257 -0.2189
   80SLPC  H11R 7418   3.525  -0.021   5.104 -0.8666 -1.1591 -0.1962
   80SLPC  H11S 7419   3.521  -0.157   5.233  1.9694 -0.0359  1.8586
   80SLPC  C212 7420   3.710  -0.076   5.197  0.1539 -0.1796 -0.3047
   80SLPC  H12R 7421   3.754  -0.119   5.288  1.0224 -1.9733 -1.5153
   80SLPC  C213 7422   3.795  -0.028   5.107  0.3143  0.0703  0.1055
   80SLPC  H13R 7423   3.898  -0.065   5.115  0.1100 -1.4936 -3.0321
   80SLPC  C214 7424   3.761   0.049   4.977 -0.1632  0.2239 -1.1505
   80SLPC  H14R 7425   3.852   0.095   4.932  0.0485 -1.6874 -2.8238
   80SLPC  H14S 7426   3.685   0.128   4.991  1.8469  1.9825  0.5957
   80SLPC  C215 7427   3.709  -0.058   4.878 -0.1653 -0.7837 -0.2840
   80SLPC  H15R 7428   3.631  -0.119   4.928  0.5187  0.3960  2.4038
   80SLPC  H15S 7429   3.790  -0.124   4.840 -0.7867 -0.5711 -2.0818
   80SLPC  C216 7430   3.658   0.010   4.749 -0.2733  0.6015 -0.0463
   80SLPC  H16R 7431   3.738   0.064   4.694 -1.9067  3.1244 -0.1196
   80SLPC  H16S 7432   3.584   0.088   4.780 -2.6267 -1.7455  0.5781
   80SLPC  C217 7433   3.588  -0.085   4.652  0.1252 -0.2933 -0.0796
   80SLPC  H17R 7434   3.538  -0.031   4.569  0.2935 -0.7937 -0.5114
   80SLPC  H17S 7435   3.523  -0.159   4.702  0.8348 -0.4843  0.5766
   80SLPC  C218 7436   3.693  -0.169   4.577 -0.8192  0.3470  0.4124
   80SLPC  H18R 7437   3.728  -0.248   4.646  0.6961  1.5168  1.0384
   80SLPC  H18S 7438   3.783  -0.107   4.554  0.4433 -0.8304  1.9352
   80SLPC  H18T 7439   3.651  -0.212   4.484 -1.4882 -1.6881  1.6011
   80SLPC   C33 7440   2.843  -0.111   5.888  0.1743 -0.1363  0.1109
   80SLPC   H3X 7441   2.756  -0.044   5.901 -0.7072 -1.4487  1.1409
   80SLPC   H3Y 7442   2.825  -0.209   5.936  0.1750  0.2607  0.9325
   80SLPC   C34 7443   2.851  -0.147   5.742 -0.0008  0.2533  0.0943
   80SLPC   H4X 7444   2.766  -0.217   5.726 -0.4099  0.5939  0.7008
   80SLPC   H4Y 7445   2.947  -0.200   5.731 -0.1724  0.0060 -0.2140
   80SLPC   C35 7446   2.847  -0.028   5.637 -0.3300 -0.5104 -0.2121
   80SLPC   H5X 7447   2.914   0.055   5.668 -1.9088  1.1800 -1.1113
   80SLPC   H5Y 7448   2.745   0.015   5.628 -0.1458 -0.3853 -2.2667
   80SLPC   C36 7449   2.883  -0.074   5.496  0.1343  0.4478  1.0849
   80SLPC   H6X 7450   2.981  -0.127   5.494  0.3668  0.8677 -1.0873
   80SLPC   H6Y 7451   2.897   0.021   5.440  3.4480 -0.5580 -0.0090
   80SLPC   C37 7452   2.775  -0.168   5.426 -0.0615  0.0410 -0.7291
   80SLPC   H7X 7453   2.675  -0.120   5.431 -1.3143 -2.3222 -1.7367
   80SLPC   H7Y 7454   2.758  -0.264   5.479 -0.2164 -0.3776 -1.5240
   80SLPC   C38 7455   2.803  -0.192   5.280 -0.1392  0.3595  0.1175
   80SLPC   H8X 7456   2.902  -0.239   5.263 -0.4489  0.3497 -1.8423
   80SLPC   H8Y 7457   2.804  -0.099   5.220 -0.5503  0.0631 -0.3568
   80SLPC   C39 7458   2.684  -0.272   5.218  0.4307  0.4767 -0.4288
   80SLPC   H9X 7459   2.589  -0.216   5.231  0.0575 -0.1980 -0.2123
   80SLPC   H9Y 7460   2.682  -0.371   5.267 -0.2386  0.3483 -0.7001
   80SLPC  C310 7461   2.685  -0.318   5.075  0.3067  0.0121  0.6273
   80SLPC  H10X 7462   2.768  -0.390   5.058  0.3114  0.1068  0.2224
   80SLPC  H10Y 7463   2.717  -0.240   5.002  1.5899 -0.8294  0.2399
   80SLPC  C311 7464   2.558  -0.396   5.031  0.1816  0.0296 -0.7410
   80SLPC  H11X 7465   2.485  -0.312   5.031  0.0372 -0.0709  0.6312
   80SLPC  H11Y 7466   2.528  -0.448   5.124 -0.8988  0.0629 -1.0524
   80SLPC  C312 7467   2.559  -0.478   4.905 -0.1752  0.1442  0.4282
   80SLPC  H12X 7468   2.630  -0.561   4.926  0.9562  0.6958 -1.0161
   80SLPC  H12Y 7469   2.603  -0.423   4.819 -0.8661 -0.7044 -0.5025
   80SLPC  C313 7470   2.419  -0.517   4.862 -0.6679  0.1541  0.2922
   80SLPC  H13X 7471   2.360  -0.423   4.862  1.8190  1.8510 -1.7533
   80SLPC  H13Y 7472   2.383  -0.595   4.932  1.0531 -1.4757 -0.5455
   80SLPC  C314 7473   2.428  -0.584   4.719  0.3653  0.4839 -0.6638
   80SLPC  H14X 7474   2.482  -0.681   4.723 -0.9197 -0.3737 -2.2932
   80SLPC  H14Y 7475   2.495  -0.524   4.655 -0.8905  1.5463 -1.0337
   80SLPC  C315 7476   2.288  -0.593   4.655  0.2983  0.2082 -0.8685
   80SLPC  H15X 7477   2.240  -0.493   4.649 -2.0431 -0.7602  0.3668
   80SLPC  H15Y 7478   2.235  -0.668   4.716 -0.7741  1.5231 -0.1235
   80SLPC  C316 7479   2.303  -0.651   4.514  0.1965  0.5612 -0.0449
   80SLPC  H16X 7480   2.360  -0.747   4.514  2.7514  2.0039 -0.4024
   80SLPC  H16Y 7481   2.369  -0.586   4.453  1.3739 -0.6253 -0.0722
   80SLPC  C317 7482   2.159  -0.675   4.461 -0.2852  0.0137  1.1111
   80SLPC  H17X 7483   2.120  -0.571   4.465 -0.0725  0.2055 -0.9439
   80SLPC  H17Y 7484   2.106  -0.740   4.534  1.1299 -0.7768  1.4707
   80SLPC  C318 7485   2.154  -0.739   4.317  0.0838 -0.4662  0.0062
   80SLPC  H18X 7486   2.218  -0.830   4.309 -1.8893 -1.8452 -1.2380
   80SLPC  H18Y 7487   2.180  -0.665   4.238  0.0523 -0.6011 -0.1319
   80SLPC  H18Z 7488   2.052  -0.773   4.290  0.9608 -1.7314 -1.9658
   81SLPC     N 7489   5.515   5.763   2.254  0.9483  0.8867  0.2670
   81SLPC   C13 7490   5.405   5.858   2.284  0.4754 -0.3847  0.2603
   81SLPC  H13A 7491   5.436   5.961   2.273  0.0183 -0.2291  0.4221
   81SLPC  H13B 7492   5.322   5.840   2.218 -0.1237  0.0053  0.8952
   81SLPC  H13C 7493   5.366   5.851   2.385  0.1444 -0.2013  0.1453
   81SLPC   C14 7494   5.586   5.820   2.132  0.1372 -0.4470  0.6107
   81SLPC  H14A 7495   5.652   5.749   2.084  0.7024  1.3536 -1.4845
   81SLPC  H14B 7496   5.522   5.841   2.048  0.9157 -0.4745 -0.0068
   81SLPC  H14C 7497   5.630   5.914   2.162 -2.6668  0.1825  3.2250
   81SLPC   C15 7498   5.460   5.635   2.202  0.1764 -0.5490 -0.7564
   81SLPC  H15A 7499   5.397   5.585   2.274 -0.6207 -0.2458 -1.2426
   81SLPC  H15B 7500   5.397   5.646   2.115 -3.1038  2.7143  1.7234
   81SLPC  H15C 7501   5.545   5.571   2.183  0.6682  0.1435 -0.9310
   81SLPC   C12 7502   5.620   5.743   2.362 -0.0020 -0.3100  0.5138
   81SLPC  H12A 7503   5.645   5.843   2.394 -0.9375 -0.0081  0.3435
   81SLPC  H12B 7504   5.708   5.704   2.313 -1.2599  0.7650 -2.9631
   81SLPC   C11 7505   5.590   5.646   2.477  0.1024 -0.1701 -0.4549
   81SLPC  H11A 7506   5.486   5.662   2.514 -0.3444 -2.2471 -0.6424
   81SLPC  H11B 7507   5.657   5.664   2.563  0.3425  0.9297 -0.8602
   81SLPC     P 7508   5.738   5.433   2.410  0.5367  0.3805 -0.6135
   81SLPC   O13 7509   5.719   5.308   2.347 -0.1094  0.0379  0.4859
   81SLPC   O14 7510   5.839   5.523   2.362 -0.1823  0.0121 -0.2070
   81SLPC   O12 7511   5.593   5.513   2.426 -0.2241 -0.0142 -0.6932
   81SLPC   O11 7512   5.778   5.391   2.559 -0.4621 -0.3134  0.1813
   81SLPC    C1 7513   5.695   5.323   2.658 -0.2908 -0.8411 -0.0254
   81SLPC    HA 7514   5.620   5.256   2.611 -0.7296 -1.4966  1.5462
   81SLPC    HB 7515   5.766   5.263   2.718  0.5347 -0.2730 -0.4125
   81SLPC    C2 7516   5.625   5.421   2.751 -0.8955  0.4481  0.1363
   81SLPC    HS 7517   5.576   5.494   2.683 -0.4119 -0.6096 -1.4294
   81SLPC   O21 7518   5.719   5.492   2.839  0.3044  0.2523  0.3593
   81SLPC   C21 7519   5.664   5.595   2.895 -0.4297 -0.3533 -0.0884
   81SLPC   O22 7520   5.559   5.648   2.862 -0.2270  0.1824 -0.2402
   81SLPC   C22 7521   5.764   5.649   2.990 -0.2319  0.0092  0.1604
   81SLPC   H2R 7522   5.819   5.566   3.039 -0.3843 -0.3970 -0.3483
   81SLPC   H2S 7523   5.833   5.712   2.931  0.1075 -1.8130 -1.4861
   81SLPC    C3 7524   5.501   5.351   2.820 -0.0565 -0.0544  0.4035
   81SLPC    HX 7525   5.444   5.300   2.740  1.2632  0.4886 -0.9292
   81SLPC    HY 7526   5.441   5.433   2.865  2.9685  1.6694  1.6197
   81SLPC   O31 7527   5.529   5.267   2.927  0.3542 -0.3508 -0.1913
   81SLPC   C31 7528   5.558   5.143   2.903  1.2070  0.3610 -0.0774
   81SLPC   O32 7529   5.573   5.089   2.798  0.1010  0.1643  0.5561
   81SLPC   C32 7530   5.557   5.069   3.042 -0.1780  0.3224 -0.7692
   81SLPC   H2X 7531   5.639   4.994   3.045 -1.4349 -1.1995 -2.0746
   81SLPC   H2Y 7532   5.469   5.001   3.045 -0.1277  0.2120  3.0349
   81SLPC   C23 7533   5.700   5.738   3.101 -0.2904  0.4660  0.3028
   81SLPC   H3R 7534   5.638   5.670   3.162 -0.1302 -0.6363 -0.7253
   81SLPC   H3S 7535   5.630   5.810   3.052  1.6248  0.1566 -3.2279
   81SLPC   C24 7536   5.788   5.803   3.205 -0.8558 -0.2923  0.1390
   81SLPC   H4R 7537   5.726   5.854   3.282 -0.6933 -0.4767  0.3958
   81SLPC   H4S 7538   5.852   5.876   3.150  2.1356 -1.1303  2.2391
   81SLPC   C25 7539   5.878   5.701   3.287  0.7883  0.5029  0.6514
   81SLPC   H5R 7540   5.946   5.655   3.212 -1.1990  0.5146 -1.2542
   81SLPC   H5S 7541   5.820   5.613   3.321  2.2855 -0.2412  1.3978
   81SLPC   C26 7542   5.967   5.752   3.403  0.3932  0.5443 -0.3472
   81SLPC   H6R 7543   5.902   5.808   3.474 -4.1282 -0.5485 -3.1553
   81SLPC   H6S 7544   6.049   5.821   3.375  1.3953 -1.2981 -2.2764
   81SLPC   C27 7545   6.024   5.621   3.469  0.2784 -0.2785 -0.5333
   81SLPC   H7R 7546   6.089   5.664   3.548 -0.5389 -1.6401  0.9430
   81SLPC   H7S 7547   6.090   5.571   3.395 -0.0141 -0.5410 -0.6233
   81SLPC   C28 7548   5.935   5.523   3.549 -0.1959 -0.0824 -0.4355
   81SLPC   H8R 7549   5.849   5.497   3.484  2.3117 -2.1438 -3.1576
   81SLPC   H8S 7550   5.896   5.592   3.627  1.4394  0.2310  0.1287
   81SLPC   C29 7551   6.008   5.401   3.596 -0.0690 -0.9329 -0.3585
   81SLPC   H9R 7552   6.062   5.347   3.517 -0.1899 -1.6341  0.0322
   81SLPC  C210 7553   6.018   5.366   3.726 -0.0956  0.0592 -0.1683
   81SLPC  H10R 7554   6.079   5.275   3.743 -0.4262 -0.4693 -1.6398
   81SLPC  C211 7555   5.951   5.443   3.840 -0.1630 -0.3181 -0.8839
   81SLPC  H11R 7556   5.908   5.371   3.913 -0.9119  0.5793 -0.4158
   81SLPC  H11S 7557   5.857   5.496   3.813 -0.5026 -0.5549 -0.1909
   81SLPC  C212 7558   6.043   5.543   3.908 -0.0937 -0.0323  0.4821
   81SLPC  H12R 7559   6.059   5.633   3.846  2.9111 -0.3508  0.6386
   81SLPC  C213 7560   6.085   5.545   4.034 -0.4220  1.0022 -0.0544
   81SLPC  H13R 7561   6.135   5.636   4.071 -3.2468  1.3745  3.4306
   81SLPC  C214 7562   6.057   5.447   4.144 -0.5107 -0.7532  0.2345
   81SLPC  H14R 7563   6.080   5.344   4.112  0.4610 -0.0319 -1.5362
   81SLPC  H14S 7564   5.951   5.445   4.178 -0.2165  0.7355  1.3313
   81SLPC  C215 7565   6.142   5.486   4.267  0.5263 -0.5371  0.0653
   81SLPC  H15R 7566   6.246   5.513   4.238 -0.0835 -0.0573 -1.7731
   81SLPC  H15S 7567   6.139   5.393   4.327 -1.1225 -0.6751 -0.1899
   81SLPC  C216 7568   6.088   5.595   4.356  0.0404 -0.7570  0.5062
   81SLPC  H16R 7569   5.991   5.557   4.395 -0.4671 -2.0687 -1.7988
   81SLPC  H16S 7570   6.069   5.688   4.299  2.2743 -0.8517 -0.5214
   81SLPC  C217 7571   6.187   5.634   4.471 -0.3425 -0.2836 -0.2614
   81SLPC  H17R 7572   6.279   5.688   4.440 -1.1231  2.8315  2.3021
   81SLPC  H17S 7573   6.215   5.533   4.508  1.5955  0.4351  0.3627
   81SLPC  C218 7574   6.119   5.709   4.589  0.6437 -1.0468 -0.4753
   81SLPC  H18R 7575   6.184   5.711   4.679  1.6976 -1.7444 -1.2069
   81SLPC  H18S 7576   6.027   5.658   4.622  0.3329  1.0385  2.2313
   81SLPC  H18T 7577   6.100   5.812   4.551  0.3173 -0.7879  0.3660
   81SLPC   C33 7578   5.568   5.159   3.170  0.3245 -0.0868  0.4983
   81SLPC   H3X 7579   5.485   5.231   3.155  0.5888 -0.0578 -0.9064
   81SLPC   H3Y 7580   5.664   5.214   3.165  1.3376 -1.7337  0.9999
   81SLPC   C34 7581   5.551   5.073   3.301  0.1155 -0.3327  0.0745
   81SLPC   H4X 7582   5.636   5.004   3.319 -1.4951 -2.4720 -0.2485
   81SLPC   H4Y 7583   5.459   5.012   3.304  0.9409 -1.5739  1.4798
   81SLPC   C35 7584   5.540   5.162   3.428 -0.2793 -0.2859  0.3431
   81SLPC   H5X 7585   5.462   5.116   3.493  0.5082 -0.8013  0.9398
   81SLPC   H5Y 7586   5.512   5.266   3.400 -1.1344 -0.5376  0.2491
   81SLPC   C36 7587   5.676   5.177   3.495  0.3311  0.3765 -0.1539
   81SLPC   H6X 7588   5.753   5.217   3.427  1.2417 -3.4852 -1.6657
   81SLPC   H6Y 7589   5.713   5.078   3.531  0.0572 -0.0045 -0.9024
   81SLPC   C37 7590   5.674   5.251   3.623  0.0895 -0.4057 -1.0410
   81SLPC   H7X 7591   5.644   5.356   3.604 -0.4562 -0.4354 -0.3717
   81SLPC   H7Y 7592   5.778   5.251   3.663 -0.4075  0.4403  0.3348
   81SLPC   C38 7593   5.573   5.190   3.730  0.4163 -0.2276  0.4612
   81SLPC   H8X 7594   5.563   5.080   3.726  1.5415 -0.3464  0.6015
   81SLPC   H8Y 7595   5.473   5.222   3.693  1.4748  0.8402 -1.6990
   81SLPC   C39 7596   5.600   5.236   3.869 -0.2160  0.1834 -0.5868
   81SLPC   H9X 7597   5.641   5.339   3.871 -0.7896  0.5178 -3.0117
   81SLPC   H9Y 7598   5.685   5.176   3.907 -0.2834 -0.1746 -0.9962
   81SLPC  C310 7599   5.475   5.238   3.964 -0.1889 -0.2114  0.7373
   81SLPC  H10X 7600   5.502   5.245   4.071  1.2448 -1.0413  0.4521
   81SLPC  H10Y 7601   5.426   5.142   3.937  0.0848 -0.0475 -0.4159
   81SLPC  C311 7602   5.375   5.353   3.929  0.2707  0.6315  0.4658
   81SLPC  H11X 7603   5.346   5.331   3.824  0.3532 -0.8770  0.7328
   81SLPC  H11Y 7604   5.417   5.455   3.945 -2.1753  1.6933  0.4646
   81SLPC  C312 7605   5.254   5.338   4.016  0.1191 -0.1156 -0.0855
   81SLPC  H12X 7606   5.192   5.251   3.987  0.9919  0.1255 -3.0310
   81SLPC  H12Y 7607   5.176   5.415   3.999 -1.2035 -1.4845 -0.4367
   81SLPC  C313 7608   5.281   5.346   4.167 -0.0218  0.1655 -0.2172
   81SLPC  H13X 7609   5.363   5.416   4.192  0.6701 -1.1769  1.4331
   81SLPC  H13Y 7610   5.312   5.250   4.213  0.7628 -0.5684 -2.1451
   81SLPC  C314 7611   5.157   5.398   4.245  0.6205 -0.5968 -0.4808
   81SLPC  H14X 7612   5.121   5.492   4.200 -0.3186 -1.2774 -1.1890
   81SLPC  H14Y 7613   5.188   5.423   4.349 -1.6580 -2.3824  0.7264
   81SLPC  C315 7614   5.051   5.285   4.249  0.3097 -0.2154  0.2126
   81SLPC  H15X 7615   5.019   5.250   4.149 -1.4385 -1.6346  1.1939
   81SLPC  H15Y 7616   4.966   5.332   4.304  1.8741  1.7883  1.0028
   81SLPC  C316 7617   5.103   5.168   4.334  0.0378 -0.4256  0.1852
   81SLPC  H16X 7618   5.144   5.198   4.432  0.2872 -0.3155  0.0480
   81SLPC  H16Y 7619   5.173   5.097   4.283 -0.6418 -0.6344 -0.4826
   81SLPC  C317 7620   4.994   5.067   4.374 -0.6717  1.3185  0.0261
   81SLPC  H17X 7621   4.946   5.030   4.281 -0.3940  2.4384 -0.5892
   81SLPC  H17Y 7622   4.908   5.120   4.420 -1.2041 -0.5332  1.2830
   81SLPC  C318 7623   5.059   4.959   4.462 -0.3534  0.9279  0.2528
   81SLPC  H18X 7624   5.158   4.922   4.425 -1.2020 -1.9686  0.6708
   81SLPC  H18Y 7625   4.980   4.882   4.456  0.1701  0.4205 -0.2822
   81SLPC  H18Z 7626   5.088   5.001   4.561  1.2538  1.5862 -0.4561
   82SLPC     N 7627   1.776   4.714   1.773  0.6231  0.9008  0.1055
   82SLPC   C13 7628   1.764   4.860   1.814 -0.6499 -0.4998  0.0217
   82SLPC  H13A 7629   1.855   4.915   1.795  0.2435 -2.3243 -1.3463
   82SLPC  H13B 7630   1.697   4.905   1.742  0.3218  1.7136  0.4236
   82SLPC  H13C 7631   1.736   4.884   1.915  0.1180  0.4425  0.0263
   82SLPC   C14 7632   1.800   4.703   1.626 -0.1992 -0.4074 -0.1486
   82SLPC  H14A 7633   1.796   4.600   1.595 -0.4817 -0.1976 -0.8117
   82SLPC  H14B 7634   1.724   4.756   1.572 -1.3118  1.1064  2.6710
   82SLPC  H14C 7635   1.901   4.721   1.590 -0.6677 -0.5988 -1.6206
   82SLPC   C15 7636   1.642   4.653   1.799  0.6569  0.0959  0.2409
   82SLPC  H15A 7637   1.556   4.714   1.777  0.2858 -0.8413 -0.9928
   82SLPC  H15B 7638   1.630   4.557   1.751 -2.5390  1.8013 -2.8313
   82SLPC  H15C 7639   1.633   4.636   1.906  0.7527 -1.0389  0.0755
   82SLPC   C12 7640   1.882   4.641   1.857 -0.4037  0.4628 -0.2726
   82SLPC  H12A 7641   1.976   4.648   1.805 -1.9122  0.1130 -3.2383
   82SLPC  H12B 7642   1.861   4.535   1.848  0.7656  0.2245 -0.3215
   82SLPC   C11 7643   1.900   4.679   2.004  0.3051 -0.6184 -0.5528
   82SLPC  H11A 7644   1.919   4.788   2.010  1.4240 -0.8902  1.8953
   82SLPC  H11B 7645   1.992   4.637   2.050  0.0456  0.8980  1.4899
   82SLPC     P 7646   1.732   4.505   2.106  0.4569  0.0447  0.4330
   82SLPC   O13 7647   1.609   4.488   2.032  0.0278  0.2310  0.5387
   82SLPC   O14 7648   1.840   4.409   2.082  0.4794  0.6286  0.1040
   82SLPC   O12 7649   1.785   4.649   2.079  0.3127 -0.4764 -0.1411
   82SLPC   O11 7650   1.701   4.517   2.266  0.5361  0.1139 -0.4011
   82SLPC    C1 7651   1.786   4.574   2.367 -0.5858  0.2221  0.0106
   82SLPC    HA 7652   1.861   4.642   2.321 -0.4873  0.4107  0.4446
   82SLPC    HB 7653   1.731   4.652   2.425 -0.1851  1.0021 -0.6363
   82SLPC    C2 7654   1.838   4.461   2.457 -0.0343  0.9211  0.6678
   82SLPC    HS 7655   1.867   4.376   2.391  0.2598  0.4633  1.3765
   82SLPC   O21 7656   1.732   4.412   2.540 -0.2358 -0.6444 -0.1367
   82SLPC   C21 7657   1.748   4.288   2.589 -0.7415 -0.5282 -0.2121
   82SLPC   O22 7658   1.846   4.219   2.576 -0.0510  1.2394  0.1278
   82SLPC   C22 7659   1.637   4.250   2.679  0.1084 -0.1933  0.4413
   82SLPC   H2R 7660   1.618   4.338   2.743  1.5651  0.2697  0.2821
   82SLPC   H2S 7661   1.546   4.227   2.620  0.2311 -0.2497  0.2734
   82SLPC    C3 7662   1.962   4.502   2.545  0.5310  0.1448  0.3658
   82SLPC    HX 7663   2.027   4.555   2.473 -2.6293  1.3874 -1.8215
   82SLPC    HY 7664   2.007   4.404   2.573 -1.3477 -1.5391 -1.9917
   82SLPC   O31 7665   1.915   4.584   2.655  0.5567  0.4209  0.3398
   82SLPC   C31 7666   2.021   4.623   2.730  0.0378  0.3437 -0.1983
   82SLPC   O32 7667   2.135   4.591   2.709  0.6764 -0.2239 -0.0094
   82SLPC   C32 7668   1.974   4.712   2.850  0.1695  0.9942 -0.0528
   82SLPC   H2X 7669   1.867   4.688   2.865  0.3389  0.4587  0.3345
   82SLPC   H2Y 7670   1.983   4.816   2.813  0.5365  0.2399 -2.2440
   82SLPC   C23 7671   1.670   4.126   2.761  0.3321  0.3813  0.4705
   82SLPC   H3R 7672   1.763   4.138   2.820  0.7784  0.1380 -0.1752
   82SLPC   H3S 7673   1.667   4.035   2.697 -0.0163 -0.1839  1.2626
   82SLPC   C24 7674   1.560   4.110   2.874 -0.8510  0.1909  0.4635
   82SLPC   H4R 7675   1.497   4.022   2.846 -0.2909 -0.2739  0.6412
   82SLPC   H4S 7676   1.509   4.207   2.889  0.6055  1.2953 -1.2588
   82SLPC   C25 7677   1.623   4.087   3.007  0.5329  0.1685 -0.6164
   82SLPC   H5R 7678   1.542   4.113   3.079  1.6247  0.5352  0.5189
   82SLPC   H5S 7679   1.707   4.150   3.042  1.2461 -0.9282 -0.3051
   82SLPC   C26 7680   1.654   3.941   3.045 -0.3788  0.4441 -0.2628
   82SLPC   H6R 7681   1.743   3.900   2.992 -0.9113 -1.3356  0.1786
   82SLPC   H6S 7682   1.571   3.874   3.013 -0.2859  0.4363 -0.4954
   82SLPC   C27 7683   1.696   3.924   3.196  0.5760 -0.4492  0.4440
   82SLPC   H7R 7684   1.619   3.968   3.262  1.5871  0.2938  1.1535
   82SLPC   H7S 7685   1.785   3.984   3.223  1.2450 -1.1125 -0.2228
   82SLPC   C28 7686   1.703   3.774   3.231  0.5353  0.2774  0.0028
   82SLPC   H8R 7687   1.786   3.722   3.178 -0.1140 -1.5830  0.7108
   82SLPC   H8S 7688   1.605   3.728   3.202 -1.2631  3.0276  1.3152
   82SLPC   C29 7689   1.714   3.752   3.376 -0.3388  0.8910 -0.0888
   82SLPC   H9R 7690   1.634   3.800   3.434  0.4208  0.3991  1.4236
   82SLPC  C210 7691   1.803   3.676   3.445 -0.3755  0.1429 -0.6868
   82SLPC  H10R 7692   1.810   3.700   3.552  0.8579  0.1099 -0.7393
   82SLPC  C211 7693   1.916   3.590   3.406  0.5189 -0.2399 -0.1247
   82SLPC  H11R 7694   1.931   3.606   3.297  2.0560 -2.4271 -0.3027
   82SLPC  H11S 7695   1.888   3.483   3.415  0.4412 -0.2655 -0.6103
   82SLPC  C212 7696   2.043   3.607   3.480  0.6376 -0.4657 -0.6769
   82SLPC  H12R 7697   2.108   3.685   3.437  0.7676 -0.0853  0.1826
   82SLPC  C213 7698   2.073   3.560   3.601  0.6122 -0.1829  0.1620
   82SLPC  H13R 7699   2.163   3.593   3.657  0.1109  0.5176  0.5768
   82SLPC  C214 7700   1.983   3.474   3.684 -0.2009  0.3396  0.1678
   82SLPC  H14R 7701   1.936   3.405   3.610  0.5909 -0.9936  0.8790
   82SLPC  H14S 7702   1.901   3.526   3.739 -2.2834 -1.1300 -1.3878
   82SLPC  C215 7703   2.063   3.368   3.773 -0.0480  0.0758  0.5313
   82SLPC  H15R 7704   2.131   3.297   3.720  1.2770  1.7469 -0.0958
   82SLPC  H15S 7705   1.987   3.305   3.824  2.0476 -3.3909 -0.2902
   82SLPC  C216 7706   2.145   3.435   3.886 -0.0868  0.0709  0.7343
   82SLPC  H16R 7707   2.080   3.515   3.928 -0.7003 -0.0893  0.0961
   82SLPC  H16S 7708   2.238   3.479   3.843  0.5563 -2.4171 -0.6069
   82SLPC  C217 7709   2.189   3.334   3.989 -0.0226  0.2730  0.2676
   82SLPC  H17R 7710   2.099   3.286   4.033  1.9844 -3.0269  1.0845
   82SLPC  H17S 7711   2.227   3.396   4.072  0.3936  1.7352 -0.9648
   82SLPC  C218 7712   2.295   3.238   3.952 -0.4725  0.1736 -0.1946
   82SLPC  H18R 7713   2.255   3.160   3.884 -0.6928  0.0020  0.1307
   82SLPC  H18S 7714   2.330   3.186   4.043  3.2690  2.4742 -0.1028
   82SLPC  H18T 7715   2.384   3.289   3.909  1.4201 -1.3859  1.7070
   82SLPC   C33 7716   2.051   4.697   2.981  0.1130 -0.4624  0.3834
   82SLPC   H3X 7717   2.051   4.796   3.031  3.1236  0.0697 -0.4336
   82SLPC   H3Y 7718   2.159   4.679   2.959 -0.1144 -1.5083  0.0691
   82SLPC   C34 7719   1.991   4.581   3.060 -0.2540 -0.3077  0.5674
   82SLPC   H4X 7720   1.977   4.489   2.999 -0.4062 -0.4246  0.7783
   82SLPC   H4Y 7721   1.888   4.601   3.096  0.7328 -0.6413  3.9931
   82SLPC   C35 7722   2.068   4.534   3.184  0.1545  0.2247 -0.9751
   82SLPC   H5X 7723   2.171   4.511   3.148  0.0593 -1.7332 -0.1084
   82SLPC   H5Y 7724   2.026   4.447   3.238  0.4517  0.0155 -1.0829
   82SLPC   C36 7725   2.085   4.652   3.286  0.0183  0.1175  0.3273
   82SLPC   H6X 7726   1.993   4.672   3.345  0.7029 -0.7562  1.7389
   82SLPC   H6Y 7727   2.123   4.746   3.241 -1.3608  0.4193 -0.2358
   82SLPC   C37 7728   2.178   4.603   3.399 -0.0097  1.0426 -0.0333
   82SLPC   H7X 7729   2.273   4.559   3.362  1.5354  2.5235  1.9390
   82SLPC   H7Y 7730   2.120   4.522   3.449 -0.5933  1.9540  0.8004
   82SLPC   C38 7731   2.213   4.717   3.495 -0.1539  0.6340 -0.2498
   82SLPC   H8X 7732   2.124   4.770   3.536  0.5213  1.1487  0.5696
   82SLPC   H8Y 7733   2.278   4.793   3.445  1.1547  0.1199  0.6397
   82SLPC   C39 7734   2.301   4.665   3.609 -0.1405  0.0878  0.8512
   82SLPC   H9X 7735   2.392   4.625   3.560 -0.7013 -0.9064  0.5945
   82SLPC   H9Y 7736   2.253   4.578   3.658 -1.9774 -0.5162 -1.8589
   82SLPC  C310 7737   2.331   4.770   3.713 -0.3929 -0.4176 -0.3311
   82SLPC  H10X 7738   2.360   4.865   3.663  0.8802 -0.5019  0.1931
   82SLPC  H10Y 7739   2.425   4.739   3.765 -0.1771 -0.2161 -0.5969
   82SLPC  C311 7740   2.227   4.791   3.824 -0.3451 -0.1927  0.8887
   82SLPC  H11X 7741   2.195   4.695   3.871 -0.6295 -0.4799  0.1226
   82SLPC  H11Y 7742   2.133   4.832   3.782  0.1711  1.2051  1.0294
   82SLPC  C312 7743   2.277   4.889   3.936  0.2737 -0.0113 -0.4543
   82SLPC  H12X 7744   2.257   4.992   3.899 -1.2120  0.1162  0.5923
   82SLPC  H12Y 7745   2.388   4.885   3.946  0.3573 -2.1345 -1.6535
   82SLPC  C313 7746   2.204   4.863   4.065 -0.4564 -0.6322  0.1747
   82SLPC  H13X 7747   2.236   4.764   4.104 -1.2803 -0.7052  0.6767
   82SLPC  H13Y 7748   2.094   4.852   4.057 -0.5517  1.3320 -2.9812
   82SLPC  C314 7749   2.244   4.973   4.169  0.7320 -0.9906 -0.3250
   82SLPC  H14X 7750   2.229   5.070   4.117  3.4697 -0.7953 -0.8651
   82SLPC  H14Y 7751   2.351   4.977   4.199  0.6067  2.9097  0.1602
   82SLPC  C315 7752   2.158   4.972   4.296 -0.3073 -0.5006  0.2737
   82SLPC  H15X 7753   2.174   4.877   4.351  0.9054 -0.3186  0.2496
   82SLPC  H15Y 7754   2.052   4.971   4.262 -0.5953  6.1653 -0.2443
   82SLPC  C316 7755   2.165   5.101   4.376 -0.2185 -0.2549  0.3219
   82SLPC  H16X 7756   2.172   5.188   4.307 -1.5607  1.5676  2.3672
   82SLPC  H16Y 7757   2.256   5.100   4.441  1.9245  0.6219 -2.4378
   82SLPC  C317 7758   2.039   5.125   4.459  0.3963  0.3547 -0.7297
   82SLPC  H17X 7759   1.948   5.134   4.396 -0.0405 -0.6509 -0.2678
   82SLPC  H17Y 7760   2.056   5.217   4.520  2.1258 -0.7983  0.6411
   82SLPC  C318 7761   2.025   5.015   4.567 -0.4278  0.3425 -0.2601
   82SLPC  H18X 7762   2.123   4.976   4.601 -0.9649 -0.0508  0.8667
   82SLPC  H18Y 7763   1.972   4.922   4.537  0.5736  0.6350 -3.3464
   82SLPC  H18Z 7764   1.977   5.068   4.652 -0.9892  2.0222 -1.5466
   83SLPC     N 7765   5.647   4.177   2.211  0.2531 -0.7525 -0.7830
   83SLPC   C13 7766   5.695   4.274   2.313 -0.3706  0.1966 -0.6032
   83SLPC  H13A 7767   5.793   4.247   2.350 -1.2319 -0.4392  1.3655
   83SLPC  H13B 7768   5.700   4.373   2.271 -1.0410 -0.3114 -1.9184
   83SLPC  H13C 7769   5.636   4.286   2.403  0.9374  2.1279  0.0672
   83SLPC   C14 7770   5.740   4.186   2.093 -0.6247 -0.2262 -0.6251
   83SLPC  H14A 7771   5.708   4.120   2.015 -1.1109 -1.3371  0.4861
   83SLPC  H14B 7772   5.751   4.282   2.043  2.5145  0.8360  1.7058
   83SLPC  H14C 7773   5.839   4.159   2.128 -0.9889  0.7301  1.3087
   83SLPC   C15 7774   5.511   4.196   2.182 -0.0128 -0.4613 -0.0022
   83SLPC  H15A 7775   5.490   4.284   2.124 -0.4014 -0.6243 -0.1093
   83SLPC  H15B 7776   5.484   4.113   2.119  2.8476 -2.5932  1.3310
   83SLPC  H15C 7777   5.462   4.186   2.277  1.5647 -0.3356  0.8718
   83SLPC   C12 7778   5.650   4.035   2.270 -0.0404 -0.4822 -0.5122
   83SLPC  H12A 7779   5.617   4.027   2.373 -1.0847  1.1013 -0.6780
   83SLPC  H12B 7780   5.753   4.009   2.283  0.4550  0.9642 -1.3346
   83SLPC   C11 7781   5.587   3.921   2.190 -0.7908  0.0413  0.2716
   83SLPC  H11A 7782   5.648   3.832   2.217  2.4599  2.4218  1.3113
   83SLPC  H11B 7783   5.608   3.945   2.083  2.0205  1.9186  1.1497
   83SLPC     P 7784   5.383   3.768   2.208  0.2619 -0.6756 -0.4638
   83SLPC   O13 7785   5.235   3.767   2.195 -0.9967 -0.0078 -0.4725
   83SLPC   O14 7786   5.445   3.684   2.108  0.1056 -0.5416 -0.0345
   83SLPC   O12 7787   5.441   3.913   2.211 -0.3196  0.0360  0.0937
   83SLPC   O11 7788   5.410   3.710   2.351 -0.5851 -0.4300 -0.4178
   83SLPC    C1 7789   5.416   3.571   2.378 -0.0120  0.2400 -0.0023
   83SLPC    HA 7790   5.319   3.523   2.353 -0.0773  0.3164  0.1060
   83SLPC    HB 7791   5.493   3.514   2.321 -1.3683 -1.1774 -0.4951
   83SLPC    C2 7792   5.455   3.539   2.523  0.2826 -0.1078 -0.7110
   83SLPC    HS 7793   5.435   3.432   2.544  1.3365 -0.1319  0.2751
   83SLPC   O21 7794   5.377   3.619   2.617  0.5462  0.1033  0.7503
   83SLPC   C21 7795   5.246   3.628   2.607 -0.8326  0.4520  0.0599
   83SLPC   O22 7796   5.172   3.546   2.553  0.1588  0.2319 -0.0262
   83SLPC   C22 7797   5.193   3.752   2.676 -0.3847  0.0354  0.1079
   83SLPC   H2R 7798   5.253   3.839   2.641  0.8541 -0.5527  0.6951
   83SLPC   H2S 7799   5.089   3.768   2.641 -1.0439 -1.3739  1.2975
   83SLPC    C3 7800   5.608   3.569   2.543 -0.1351  0.5978 -0.6490
   83SLPC    HX 7801   5.625   3.677   2.523 -1.5714  1.3680  1.9099
   83SLPC    HY 7802   5.650   3.502   2.465  0.3470 -1.0099  0.9266
   83SLPC   O31 7803   5.660   3.531   2.675  0.2857  0.6044 -0.1105
   83SLPC   C31 7804   5.634   3.611   2.769  0.7133  0.2222 -0.1932
   83SLPC   O32 7805   5.595   3.728   2.755  0.3832  0.1778 -0.1305
   83SLPC   C32 7806   5.656   3.547   2.904 -0.2047  0.4975 -0.0730
   83SLPC   H2X 7807   5.758   3.504   2.894 -0.7142 -1.2206  1.5909
   83SLPC   H2Y 7808   5.588   3.460   2.914 -1.3201  1.4332  0.8736
   83SLPC   C23 7809   5.227   3.742   2.827  0.7823  0.7355 -0.0139
   83SLPC   H3R 7810   5.243   3.843   2.870  1.8680  0.7786 -0.4893
   83SLPC   H3S 7811   5.329   3.706   2.853 -0.3141 -1.7294  1.2430
   83SLPC   C24 7812   5.133   3.656   2.905 -0.5129 -0.2503 -0.2011
   83SLPC   H4R 7813   5.123   3.558   2.855  1.3961 -0.7396  0.2879
   83SLPC   H4S 7814   5.027   3.687   2.922 -0.4045  1.0805 -1.7163
   83SLPC   C25 7815   5.179   3.632   3.054 -0.1394  0.5515  1.2337
   83SLPC   H5R 7816   5.286   3.607   3.046 -0.1831  0.7132 -0.0767
   83SLPC   H5S 7817   5.125   3.544   3.095  1.0976 -0.9332 -0.1906
   83SLPC   C26 7818   5.165   3.749   3.149 -0.2830  0.4814 -0.5461
   83SLPC   H6R 7819   5.057   3.771   3.163 -0.1173  1.3223 -0.5169
   83SLPC   H6S 7820   5.211   3.833   3.092  0.3160  1.4500  1.2601
   83SLPC   C27 7821   5.258   3.730   3.267  0.0124 -0.3899  0.2138
   83SLPC   H7R 7822   5.364   3.742   3.235  0.1986 -1.0377  0.5742
   83SLPC   H7S 7823   5.249   3.631   3.316 -0.5292 -0.7434 -0.5827
   83SLPC   C28 7824   5.256   3.837   3.385  0.0558  0.5788 -0.3823
   83SLPC   H8R 7825   5.231   3.935   3.339 -1.7448  0.7522  0.8534
   83SLPC   H8S 7826   5.356   3.839   3.434 -0.1951 -2.9380  0.5404
   83SLPC   C29 7827   5.133   3.808   3.471 -0.0038  0.2179 -0.5151
   83SLPC   H9R 7828   5.043   3.783   3.414  1.8720  0.1356 -3.6749
   83SLPC  C210 7829   5.127   3.824   3.611  0.2707 -0.0018 -0.9148
   83SLPC  H10R 7830   5.029   3.804   3.657 -0.6290  0.4158 -2.5910
   83SLPC  C211 7831   5.244   3.858   3.705 -0.0786  0.4588  0.2120
   83SLPC  H11R 7832   5.301   3.765   3.729 -2.1566 -0.7244  0.8943
   83SLPC  H11S 7833   5.192   3.878   3.801  2.6661 -1.0085  2.1295
   83SLPC  C212 7834   5.328   3.972   3.667  0.1494  0.4637  0.3138
   83SLPC  H12R 7835   5.310   4.014   3.566  2.2361  0.8970  0.0714
   83SLPC  C213 7836   5.423   4.027   3.739  0.4868 -0.2822 -0.9743
   83SLPC  H13R 7837   5.476   4.112   3.695 -0.3424  0.2465 -0.9781
   83SLPC  C214 7838   5.471   3.985   3.871  0.4743 -0.0914 -0.1915
   83SLPC  H14R 7839   5.579   3.961   3.866  0.4150 -0.5902  0.6796
   83SLPC  H14S 7840   5.416   3.894   3.903 -0.2107  0.1032 -0.7893
   83SLPC  C215 7841   5.458   4.095   3.978 -0.1737  0.1149 -0.1494
   83SLPC  H15R 7842   5.353   4.131   3.988 -0.6718 -1.7879  2.0594
   83SLPC  H15S 7843   5.525   4.180   3.951 -1.1393  0.5731 -1.2056
   83SLPC  C216 7844   5.489   4.055   4.121  0.4927 -0.2595  0.8718
   83SLPC  H16R 7845   5.586   4.004   4.137  0.9338  1.1688  3.1448
   83SLPC  H16S 7846   5.415   3.974   4.139 -1.7581  1.4718 -0.0920
   83SLPC  C217 7847   5.460   4.170   4.218 -0.1814 -0.9035  0.6685
   83SLPC  H17R 7848   5.370   4.229   4.189  0.3691 -0.3288  0.1048
   83SLPC  H17S 7849   5.548   4.237   4.206 -1.2380  0.5170  0.5524
   83SLPC  C218 7850   5.455   4.151   4.368 -0.0300 -0.2985  0.3124
   83SLPC  H18R 7851   5.429   4.239   4.431 -3.4501 -1.9082  1.4084
   83SLPC  H18S 7852   5.560   4.129   4.398  0.1469  1.1019  0.7899
   83SLPC  H18T 7853   5.375   4.079   4.397  0.1565 -1.5206 -1.9827
   83SLPC   C33 7854   5.647   3.652   3.015 -0.1446 -0.2457 -0.4104
   83SLPC   H3X 7855   5.541   3.687   3.017 -0.1881 -0.3511 -0.7205
   83SLPC   H3Y 7856   5.712   3.741   3.004  0.0542 -0.3370  0.0193
   83SLPC   C34 7857   5.680   3.593   3.152  0.9753  0.3038  0.2299
   83SLPC   H4X 7858   5.776   3.537   3.148  1.0075  0.2149  1.5869
   83SLPC   H4Y 7859   5.605   3.515   3.175  1.2060 -0.2779 -0.9068
   83SLPC   C35 7860   5.666   3.689   3.276 -0.6232 -0.3987  0.0561
   83SLPC   H5X 7861   5.564   3.731   3.262 -1.6438 -3.1881 -1.6179
   83SLPC   H5Y 7862   5.740   3.766   3.247 -0.8986 -0.3761 -0.6012
   83SLPC   C36 7863   5.681   3.617   3.406 -0.1010  0.2516 -0.0135
   83SLPC   H6X 7864   5.774   3.556   3.404 -0.8262 -0.9723  1.3709
   83SLPC   H6Y 7865   5.593   3.552   3.425  0.5133 -0.9911 -1.1922
   83SLPC   C37 7866   5.690   3.705   3.529  0.0672 -0.4434  0.1842
   83SLPC   H7X 7867   5.607   3.778   3.527  2.2332  2.1604 -1.8829
   83SLPC   H7Y 7868   5.785   3.759   3.512 -0.0168 -0.4768 -0.3911
   83SLPC   C38 7869   5.700   3.603   3.648  0.7286 -0.5941  0.9940
   83SLPC   H8X 7870   5.793   3.545   3.629  0.4444 -0.6299 -0.4718
   83SLPC   H8Y 7871   5.616   3.532   3.636  0.8822 -0.5182 -0.9511
   83SLPC   C39 7872   5.701   3.680   3.775  1.0127 -0.4396 -0.0709
   83SLPC   H9X 7873   5.602   3.729   3.777  1.6799  0.9769 -0.2342
   83SLPC   H9Y 7874   5.776   3.762   3.771  0.2939  0.1739 -2.4994
   83SLPC  C310 7875   5.709   3.590   3.910  0.4570  0.1342 -0.0101
   83SLPC  H10X 7876   5.807   3.539   3.923  0.6954  0.4343 -0.5648
   83SLPC  H10Y 7877   5.633   3.510   3.898 -0.6520  1.2813 -1.0954
   83SLPC  C311 7878   5.696   3.680   4.033 -0.1772 -0.3333 -0.4116
   83SLPC  H11X 7879   5.606   3.742   4.016 -0.0285 -0.3968 -1.4597
   83SLPC  H11Y 7880   5.789   3.739   4.046 -0.3153 -0.5813  2.2465
   83SLPC  C312 7881   5.666   3.605   4.157 -0.2798  0.7768 -0.1369
   83SLPC  H12X 7882   5.742   3.524   4.161 -1.3870 -0.2720  0.3309
   83SLPC  H12Y 7883   5.564   3.563   4.165 -0.5305  1.6128  1.3873
   83SLPC  C313 7884   5.681   3.678   4.287  0.1199 -0.2408  0.5172
   83SLPC  H13X 7885   5.616   3.767   4.304 -0.5621 -0.7437  0.5710
   83SLPC  H13Y 7886   5.777   3.734   4.276 -1.4468  2.3928 -0.6889
   83SLPC  C314 7887   5.683   3.592   4.412  0.5020 -0.3235  0.7475
   83SLPC  H14X 7888   5.766   3.519   4.406  1.4156  0.7665 -0.1653
   83SLPC  H14Y 7889   5.592   3.530   4.393  0.4715  0.3801 -1.6620
   83SLPC  C315 7890   5.673   3.673   4.539  0.4908  0.3548 -0.0206
   83SLPC  H15X 7891   5.581   3.735   4.545 -0.7189 -1.4533  1.0946
   83SLPC  H15Y 7892   5.769   3.730   4.546  1.2808 -0.7790 -1.2646
   83SLPC  C316 7893   5.659   3.575   4.661  0.2029 -0.4067  0.6539
   83SLPC  H16X 7894   5.689   3.623   4.757  2.8114 -0.2964 -0.1394
   83SLPC  H16Y 7895   5.721   3.484   4.646 -2.0663 -1.9798  0.2758
   83SLPC  C317 7896   5.516   3.514   4.684  0.0043 -0.5910 -0.2434
   83SLPC  H17X 7897   5.463   3.476   4.594  0.2007 -2.4398  0.3693
   83SLPC  H17Y 7898   5.458   3.605   4.710  0.8318  0.4628 -1.8769
   83SLPC  C318 7899   5.505   3.416   4.796 -0.3375  1.1380  0.2368
   83SLPC  H18X 7900   5.568   3.326   4.779 -0.3014  1.1818  0.1414
   83SLPC  H18Y 7901   5.397   3.388   4.807  0.0356  0.1156  1.6647
   83SLPC  H18Z 7902   5.531   3.465   4.892 -1.9504 -2.3832  2.7296
   84SLPC     N 7903   3.142   0.775   2.457  0.2853  0.3449  0.6078
   84SLPC   C13 7904   3.217   0.836   2.343 -0.1853 -0.1388 -0.1277
   84SLPC  H13A 7905   3.315   0.791   2.332  1.0651  1.1170  4.0902
   84SLPC  H13B 7906   3.156   0.836   2.254  0.2718 -0.7674 -0.4561
   84SLPC  H13C 7907   3.238   0.940   2.360  0.5187 -0.1074 -1.0468
   84SLPC   C14 7908   3.113   0.636   2.416  0.3840 -0.1510 -0.3778
   84SLPC  H14A 7909   3.028   0.628   2.351 -0.7127  2.3461  0.6007
   84SLPC  H14B 7910   3.201   0.587   2.377  0.8660  0.2702  0.1518
   84SLPC  H14C 7911   3.091   0.573   2.501  4.1723 -1.0765  0.0959
   84SLPC   C15 7912   3.017   0.862   2.479 -0.4564  0.1621 -0.4667
   84SLPC  H15A 7913   2.967   0.874   2.384  0.7459  0.2149 -1.1066
   84SLPC  H15B 7914   2.946   0.821   2.549 -1.1035 -3.1955 -2.8563
   84SLPC  H15C 7915   3.044   0.964   2.503  1.0118 -0.2796 -0.1685
   84SLPC   C12 7916   3.233   0.779   2.578 -0.0228 -0.3800  0.4522
   84SLPC  H12A 7917   3.181   0.754   2.669  1.3671  0.6465  1.5629
   84SLPC  H12B 7918   3.257   0.882   2.598 -2.9263  0.4318  0.1361
   84SLPC   C11 7919   3.366   0.699   2.576  0.5500  0.9161  0.1659
   84SLPC  H11A 7920   3.327   0.596   2.559  2.5520  0.0212  0.6672
   84SLPC  H11B 7921   3.411   0.696   2.678 -0.2932 -2.2505  0.5382
   84SLPC     P 7922   3.563   0.639   2.415  0.4859  0.3755 -0.2996
   84SLPC   O13 7923   3.500   0.508   2.387  0.6290 -0.6906  0.4245
   84SLPC   O14 7924   3.644   0.706   2.306 -0.7846  0.1628 -1.2451
   84SLPC   O12 7925   3.450   0.742   2.466 -0.6542 -0.4687 -0.6634
   84SLPC   O11 7926   3.652   0.622   2.546 -0.0261  0.0290  0.3984
   84SLPC    C1 7927   3.705   0.739   2.609  0.4091  0.8457 -0.3900
   84SLPC    HA 7928   3.765   0.797   2.536 -0.2503 -0.3956 -1.9653
   84SLPC    HB 7929   3.622   0.804   2.645 -0.4353 -0.5890  0.3042
   84SLPC    C2 7930   3.791   0.705   2.738 -0.0173  0.1782  0.2765
   84SLPC    HS 7931   3.729   0.681   2.827 -0.7217  0.9993  0.0239
   84SLPC   O21 7932   3.870   0.822   2.758  0.2107 -0.1891 -0.3465
   84SLPC   C21 7933   3.803   0.916   2.823  0.8137 -0.1938  0.1968
   84SLPC   O22 7934   3.684   0.921   2.832 -0.7829 -0.5706 -0.3123
   84SLPC   C22 7935   3.895   1.000   2.923  0.3178  0.2807  0.2284
   84SLPC   H2R 7936   3.910   0.925   3.004  2.6185  1.3171  0.8355
   84SLPC   H2S 7937   3.989   1.008   2.864  0.2165  2.6452  0.2844
   84SLPC    C3 7938   3.875   0.577   2.709  0.3355  0.2676  0.6473
   84SLPC    HX 7939   3.913   0.609   2.610  0.0990 -1.6088 -0.0892
   84SLPC    HY 7940   3.810   0.489   2.690 -0.0274  0.5539  0.5541
   84SLPC   O31 7941   3.966   0.539   2.813 -0.3147  0.4463 -0.8460
   84SLPC   C31 7942   4.100   0.567   2.792  0.8665  0.1593  0.6510
   84SLPC   O32 7943   4.153   0.590   2.686  0.1265  0.6040  0.1793
   84SLPC   C32 7944   4.166   0.532   2.920 -0.5079 -0.0152 -0.2917
   84SLPC   H2X 7945   4.273   0.518   2.896 -0.0010 -0.0514  1.7895
   84SLPC   H2Y 7946   4.141   0.426   2.944 -1.0992  0.3061  0.5634
   84SLPC   C23 7947   3.846   1.138   2.969  0.4924  0.0647  0.2779
   84SLPC   H3R 7948   3.746   1.163   2.928  1.0045 -0.1627 -1.1432
   84SLPC   H3S 7949   3.919   1.205   2.919  1.6288 -0.6256  0.9915
   84SLPC   C24 7950   3.840   1.151   3.123  0.5051  0.0317  0.1316
   84SLPC   H4R 7951   3.940   1.166   3.169  0.6679  3.1248 -0.9710
   84SLPC   H4S 7952   3.798   1.058   3.167 -1.7908 -0.5153 -2.8998
   84SLPC   C25 7953   3.754   1.271   3.169  0.1185 -0.1527  0.2099
   84SLPC   H5R 7954   3.671   1.287   3.097  0.0109 -0.7441  0.2021
   84SLPC   H5S 7955   3.823   1.358   3.170  1.9980 -1.5786  2.2564
   84SLPC   C26 7956   3.695   1.258   3.309  0.0893 -0.5067  0.1350
   84SLPC   H6R 7957   3.615   1.181   3.309 -0.2250 -0.1812 -0.2993
   84SLPC   H6S 7958   3.659   1.354   3.350  1.9601 -0.3950  1.6642
   84SLPC   C27 7959   3.804   1.219   3.414  0.1599  0.4177  0.1620
   84SLPC   H7R 7960   3.891   1.285   3.397 -0.8404  2.0140  1.0000
   84SLPC   H7S 7961   3.832   1.113   3.393 -1.4797 -0.7047  2.9655
   84SLPC   C28 7962   3.744   1.231   3.558  0.1124  0.7740  1.4969
   84SLPC   H8R 7963   3.658   1.160   3.558 -0.9719  1.9143 -1.9953
   84SLPC   H8S 7964   3.697   1.331   3.569 -2.0121 -0.0787  0.6147
   84SLPC   C29 7965   3.848   1.211   3.667 -1.0837  0.0760 -0.2251
   84SLPC   H9R 7966   3.954   1.214   3.636 -0.7282 -1.8897  0.6519
   84SLPC  C210 7967   3.822   1.213   3.799  0.4268 -0.0813 -0.6907
   84SLPC  H10R 7968   3.913   1.196   3.860 -0.3746  1.6999  1.0868
   84SLPC  C211 7969   3.687   1.224   3.866 -0.3981  0.0516 -0.1561
   84SLPC  H11R 7970   3.606   1.191   3.798 -0.1411 -2.1808  0.5365
   84SLPC  H11S 7971   3.661   1.331   3.885 -1.3849  0.1939 -1.9875
   84SLPC  C212 7972   3.684   1.132   3.980  0.2726  0.4756 -1.4507
   84SLPC  H12R 7973   3.652   1.033   3.944  0.6390 -0.4987  0.7676
   84SLPC  C213 7974   3.663   1.154   4.113  0.4040  0.1316  0.6054
   84SLPC  H13R 7975   3.640   1.073   4.183  0.7637  1.2824  2.0967
   84SLPC  C214 7976   3.657   1.288   4.165  0.0527 -0.2157 -0.0420
   84SLPC  H14R 7977   3.549   1.300   4.190  0.0085 -1.2900  0.3315
   84SLPC  H14S 7978   3.690   1.369   4.096  0.6526 -0.0053  0.4813
   84SLPC  C215 7979   3.740   1.322   4.292 -0.3524 -0.4955  0.2402
   84SLPC  H15R 7980   3.716   1.427   4.320 -2.4973 -0.7055 -0.6370
   84SLPC  H15S 7981   3.846   1.315   4.261 -0.4709 -2.0108  0.0841
   84SLPC  C216 7982   3.731   1.222   4.409  0.1703  0.3612 -0.0372
   84SLPC  H16R 7983   3.806   1.245   4.488  1.8988  1.4309 -1.8609
   84SLPC  H16S 7984   3.765   1.124   4.368  0.9144  0.9384 -0.8348
   84SLPC  C217 7985   3.598   1.197   4.483  0.3619 -1.1184  0.9726
   84SLPC  H17R 7986   3.565   1.091   4.488  0.2024 -1.1189  0.1913
   84SLPC  H17S 7987   3.528   1.251   4.415  0.8196  0.7683  1.9294
   84SLPC  C218 7988   3.575   1.251   4.621 -0.2584 -0.1606  0.5687
   84SLPC  H18R 7989   3.642   1.195   4.689  0.2106  1.3965  1.4432
   84SLPC  H18S 7990   3.472   1.237   4.663 -0.2068  1.4455  1.3291
   84SLPC  H18T 7991   3.609   1.357   4.627 -0.7127 -0.0498  1.4391
   84SLPC   C33 7992   4.124   0.629   3.030 -0.5734 -0.1720 -0.3388
   84SLPC   H3X 7993   4.018   0.603   3.047 -0.8537  0.4502 -1.0785
   84SLPC   H3Y 7994   4.119   0.735   2.996 -1.6508  0.4979  1.7266
   84SLPC   C34 7995   4.192   0.631   3.168  0.6278  0.7415 -0.1600
   84SLPC   H4X 7996   4.127   0.669   3.250  1.8424 -0.0769  1.2078
   84SLPC   H4Y 7997   4.269   0.711   3.163 -1.8294  3.3145  0.1904
   84SLPC   C35 7998   4.253   0.495   3.217  0.5224  0.0054 -0.5052
   84SLPC   H5X 7999   4.294   0.513   3.318  2.0514 -3.6381 -0.3133
   84SLPC   H5Y 8000   4.340   0.450   3.165  0.5970 -3.2303  2.0947
   84SLPC   C36 8001   4.145   0.393   3.233  0.2550 -0.2395  0.1138
   84SLPC   H6X 8002   4.083   0.370   3.143  2.0874 -0.0655 -1.2623
   84SLPC   H6Y 8003   4.063   0.424   3.301 -0.5185 -1.9250 -0.0044
   84SLPC   C37 8004   4.205   0.265   3.271 -0.1716  0.0972  0.1755
   84SLPC   H7X 8005   4.232   0.268   3.379  1.1394  1.5404 -0.1544
   84SLPC   H7Y 8006   4.305   0.245   3.225  1.0430  2.1935  1.7444
   84SLPC   C38 8007   4.092   0.159   3.265  0.1461 -0.0560  0.0231
   84SLPC   H8X 8008   4.149   0.068   3.294 -1.4875 -0.5879  1.7973
   84SLPC   H8Y 8009   4.056   0.145   3.161 -2.7472  1.4717  0.7257
   84SLPC   C39 8010   3.976   0.172   3.357 -0.1372 -0.0040 -0.4833
   84SLPC   H9X 8011   3.918   0.265   3.340  0.7451  0.5102 -0.7239
   84SLPC   H9Y 8012   3.999   0.176   3.465  1.4986  1.8370 -0.8439
   84SLPC  C310 8013   3.885   0.055   3.336 -0.4741  0.4020 -0.1756
   84SLPC  H10X 8014   3.940  -0.036   3.364 -0.0500  1.6094  3.4781
   84SLPC  H10Y 8015   3.866   0.045   3.227 -2.3210 -0.8483  0.2075
   84SLPC  C311 8016   3.753   0.069   3.409 -0.4898  0.6730 -0.0517
   84SLPC  H11X 8017   3.710  -0.031   3.385  0.0806  0.4835 -0.2998
   84SLPC  H11Y 8018   3.698   0.150   3.357 -1.7184 -0.0675  0.0717
   84SLPC  C312 8019   3.759   0.085   3.557  0.0444  0.3741 -0.1423
   84SLPC  H12X 8020   3.788   0.190   3.575 -0.0026 -0.0273  2.7744
   84SLPC  H12Y 8021   3.831   0.015   3.606 -1.0275 -2.8150 -2.6988
   84SLPC  C313 8022   3.622   0.046   3.628  0.2689 -0.7170 -0.5556
   84SLPC  H13X 8023   3.649   0.021   3.733  0.3573  4.5446  0.9550
   84SLPC  H13Y 8024   3.574  -0.046   3.587 -2.0366 -0.0208  0.4263
   84SLPC  C314 8025   3.509   0.153   3.635 -0.1252 -0.4682 -0.5840
   84SLPC  H14X 8026   3.496   0.195   3.533  0.0493 -1.3468 -0.9789
   84SLPC  H14Y 8027   3.549   0.231   3.703  0.6691  0.5716 -2.1870
   84SLPC  C315 8028   3.372   0.099   3.681 -0.3447 -0.0452 -0.0790
   84SLPC  H15X 8029   3.308   0.182   3.716 -1.9135 -0.9245 -0.7356
   84SLPC  H15Y 8030   3.383   0.026   3.764 -4.0554 -0.7387 -0.0317
   84SLPC  C316 8031   3.281   0.026   3.577 -0.2082  0.1702 -0.3187
   84SLPC  H16X 8032   3.336  -0.050   3.517 -1.0915  0.1232 -1.0933
   84SLPC  H16Y 8033   3.224   0.095   3.511 -2.5313 -2.8171 -1.6628
   84SLPC  C317 8034   3.171  -0.061   3.644  0.0456  0.7694 -0.0987
   84SLPC  H17X 8035   3.224  -0.128   3.715  2.4987  0.8001 -1.7658
   84SLPC  H17Y 8036   3.119  -0.116   3.562  0.9492  2.5229 -1.9341
   84SLPC  C318 8037   3.068   0.015   3.723  0.2160  0.2086  0.3510
   84SLPC  H18X 8038   3.015   0.085   3.655 -0.9922  0.3335  1.3839
   84SLPC  H18Y 8039   3.112   0.082   3.801  0.1134 -1.3081  1.7546
   84SLPC  H18Z 8040   2.992  -0.056   3.762 -1.0703 -0.1330 -2.5617
   85SLPC     N 8041   2.515   3.779   2.120 -0.1064  0.1754 -0.5495
   85SLPC   C13 8042   2.532   3.636   2.169  0.1947 -0.2623 -0.1831
   85SLPC  H13A 8043   2.439   3.583   2.182  0.0038  0.1190  0.0287
   85SLPC  H13B 8044   2.593   3.582   2.098 -1.0146  0.3717 -1.7977
   85SLPC  H13C 8045   2.599   3.628   2.253 -0.9711  0.0664  0.8051
   85SLPC   C14 8046   2.415   3.838   2.214  0.2950  0.7340 -0.8955
   85SLPC  H14A 8047   2.391   3.939   2.183  0.6601  0.7835 -1.0172
   85SLPC  H14B 8048   2.325   3.779   2.228  0.1941  0.4353 -2.5970
   85SLPC  H14C 8049   2.447   3.847   2.316 -2.0457 -1.1877  0.1089
   85SLPC   C15 8050   2.458   3.773   1.982  0.2962 -0.3557  0.0729
   85SLPC  H15A 8051   2.454   3.868   1.931 -2.2543  0.4279  1.5600
   85SLPC  H15B 8052   2.515   3.701   1.925 -0.6073 -2.1446  1.3439
   85SLPC  H15C 8053   2.359   3.730   1.975 -1.0203  2.4752 -0.3721
   85SLPC   C12 8054   2.640   3.866   2.127  0.8303  0.4162  0.2636
   85SLPC  H12A 8055   2.622   3.963   2.082 -1.0788 -0.9043 -2.0643
   85SLPC  H12B 8056   2.716   3.817   2.069 -0.8283  0.1118 -1.8031
   85SLPC   C11 8057   2.693   3.883   2.266 -0.3600 -0.3307  0.3980
   85SLPC  H11A 8058   2.610   3.923   2.328 -1.2168 -1.1547 -0.1784
   85SLPC  H11B 8059   2.770   3.963   2.263 -3.1456  2.6059  0.8903
   85SLPC     P 8060   2.734   3.706   2.455 -0.0520 -0.1232 -0.3152
   85SLPC   O13 8061   2.665   3.579   2.461  1.0458  0.4191  0.1895
   85SLPC   O14 8062   2.869   3.709   2.516 -0.0049  0.1731 -0.3828
   85SLPC   O12 8063   2.744   3.760   2.307 -0.0504 -0.0342 -0.1721
   85SLPC   O11 8064   2.641   3.807   2.531  0.2555  0.1903  0.3765
   85SLPC    C1 8065   2.698   3.931   2.584  0.1263  0.5224  0.6386
   85SLPC    HA 8066   2.808   3.926   2.600 -0.0907 -1.1238  1.9272
   85SLPC    HB 8067   2.668   4.013   2.515 -5.5703 -2.1529 -0.6233
   85SLPC    C2 8068   2.626   3.969   2.717  0.9465 -0.2549  0.1563
   85SLPC    HS 8069   2.673   4.060   2.761 -0.4421  1.6257 -2.0201
   85SLPC   O21 8070   2.632   3.857   2.806 -0.0110 -0.6214 -0.1169
   85SLPC   C21 8071   2.691   3.877   2.924 -0.1661  0.0682  0.0858
   85SLPC   O22 8072   2.732   3.976   2.969  0.3160  0.1725  0.5507
   85SLPC   C22 8073   2.680   3.739   3.009 -0.2636 -0.9911  0.0292
   85SLPC   H2R 8074   2.577   3.699   3.001 -0.5824  0.1574 -5.0234
   85SLPC   H2S 8075   2.754   3.669   2.964 -1.0906 -1.8462 -0.0295
   85SLPC    C3 8076   2.473   4.007   2.685 -1.0345 -0.1218 -0.2563
   85SLPC    HX 8077   2.427   3.913   2.648 -0.8040 -0.5841  0.5879
   85SLPC    HY 8078   2.464   4.089   2.611 -1.5348 -0.3687 -0.4748
   85SLPC   O31 8079   2.407   4.051   2.810  0.0572 -0.2307 -0.5819
   85SLPC   C31 8080   2.343   3.961   2.875  0.5644 -0.2603  0.0645
   85SLPC   O32 8081   2.331   3.841   2.852 -0.1127 -0.2734  0.0269
   85SLPC   C32 8082   2.290   4.027   3.002 -0.2122  0.3085 -0.2571
   85SLPC   H2X 8083   2.235   4.120   2.978  0.3388  1.2265  1.7582
   85SLPC   H2Y 8084   2.376   4.069   3.059 -0.8384  0.5002  0.5834
   85SLPC   C23 8085   2.721   3.769   3.155  0.1459 -0.5227  0.1254
   85SLPC   H3R 8086   2.801   3.846   3.164  0.6341 -0.8834 -0.9503
   85SLPC   H3S 8087   2.753   3.674   3.202 -2.4285 -1.3194  0.3917
   85SLPC   C24 8088   2.599   3.813   3.237  0.0622 -0.4352  0.4749
   85SLPC   H4R 8089   2.530   3.728   3.258  0.1665 -0.6151  0.1089
   85SLPC   H4S 8090   2.540   3.887   3.179 -0.9238  0.4065  2.4772
   85SLPC   C25 8091   2.633   3.874   3.382  0.3603  0.1153  0.8202
   85SLPC   H5R 8092   2.710   3.810   3.430  1.8631  1.3942  0.2061
   85SLPC   H5S 8093   2.676   3.973   3.356 -2.5054  2.1508  3.0830
   85SLPC   C26 8094   2.508   3.888   3.470  0.0136  0.4701 -0.7128
   85SLPC   H6R 8095   2.468   3.786   3.484 -0.8781  0.9196  0.1330
   85SLPC   H6S 8096   2.427   3.952   3.429 -0.4975 -1.5030 -2.9702
   85SLPC   C27 8097   2.537   3.945   3.614 -0.5193  0.3238 -0.5417
   85SLPC   H7R 8098   2.606   4.032   3.604 -0.6717  0.6823  1.2933
   85SLPC   H7S 8099   2.587   3.875   3.685  0.9573  1.5983 -0.2685
   85SLPC   C28 8100   2.411   3.987   3.691  0.0721 -0.6808 -0.3170
   85SLPC   H8R 8101   2.343   3.900   3.687  0.3139 -0.8928  0.1383
   85SLPC   H8S 8102   2.362   4.074   3.641 -1.5992 -0.8960  0.8612
   85SLPC   C29 8103   2.428   4.021   3.840  0.3446  0.4116  0.2097
   85SLPC   H9R 8104   2.493   4.107   3.860  0.4018  0.2880  0.5750
   85SLPC  C210 8105   2.380   3.952   3.937  1.2021  0.3517 -0.3185
   85SLPC  H10R 8106   2.414   3.989   4.035 -1.2147  0.4285  0.5545
   85SLPC  C211 8107   2.289   3.829   3.940 -1.1365  0.1425 -0.2960
   85SLPC  H11R 8108   2.282   3.777   3.842  2.6739  0.5783 -0.9819
   85SLPC  H11S 8109   2.187   3.856   3.974 -2.7541 -2.4947 -2.6238
   85SLPC  C212 8110   2.339   3.719   4.031 -0.2376 -0.8075 -0.1544
   85SLPC  H12R 8111   2.438   3.680   4.004 -0.1051 -1.3042  1.0233
   85SLPC  C213 8112   2.284   3.690   4.149  0.2092 -0.0432  0.0520
   85SLPC  H13R 8113   2.341   3.622   4.214 -2.9511 -3.4762 -0.4058
   85SLPC  C214 8114   2.152   3.732   4.204  1.0361  0.2152 -0.1942
   85SLPC  H14R 8115   2.100   3.657   4.267 -0.0483  1.2165  0.1427
   85SLPC  H14S 8116   2.081   3.756   4.122 -0.6021  2.1131  1.6539
   85SLPC  C215 8117   2.159   3.856   4.292  0.1591 -0.8150 -0.2210
   85SLPC  H15R 8118   2.057   3.899   4.304  0.6649  0.0683  1.2436
   85SLPC  H15S 8119   2.208   3.940   4.238 -0.7155  1.0798  1.7395
   85SLPC  C216 8120   2.235   3.836   4.421 -0.0939  0.1026 -0.5388
   85SLPC  H16R 8121   2.326   3.776   4.400  0.7853  1.3356 -0.3570
   85SLPC  H16S 8122   2.191   3.779   4.504 -0.2777 -0.9758 -1.3566
   85SLPC  C217 8123   2.274   3.977   4.470 -0.4326 -0.1407  0.2195
   85SLPC  H17R 8124   2.266   4.060   4.397 -0.6867 -0.5964 -0.2745
   85SLPC  H17S 8125   2.376   3.968   4.514 -0.9293 -4.2866  0.8761
   85SLPC  C218 8126   2.180   4.017   4.580  0.2513 -0.9750 -0.3487
   85SLPC  H18R 8127   2.079   4.048   4.543  0.9070 -0.6490 -1.9143
   85SLPC  H18S 8128   2.215   4.099   4.647  0.3022  0.1419 -1.7056
   85SLPC  H18T 8129   2.154   3.929   4.643 -2.0523 -0.9060 -1.0940
   85SLPC   C33 8130   2.202   3.931   3.084 -0.1387  0.1630  0.1078
   85SLPC   H3X 8131   2.259   3.837   3.098 -0.3722 -0.1611 -1.0408
   85SLPC   H3Y 8132   2.102   3.903   3.044 -0.9899 -0.2952  2.3967
   85SLPC   C34 8133   2.179   3.991   3.224  0.2371  0.4180  0.6695
   85SLPC   H4X 8134   2.277   4.014   3.272 -0.0744  1.4880  0.7983
   85SLPC   H4Y 8135   2.130   3.907   3.279 -2.8149  0.6312 -1.5290
   85SLPC   C35 8136   2.092   4.121   3.232 -0.8345  0.1127 -0.5276
   85SLPC   H5X 8137   1.993   4.104   3.186 -0.6822  1.4888 -1.3986
   85SLPC   H5Y 8138   2.138   4.194   3.162  3.4965  0.8356  2.6759
   85SLPC   C36 8139   2.081   4.183   3.369  0.4921  0.3699 -0.1633
   85SLPC   H6X 8140   2.009   4.267   3.381  1.2566  0.8555  1.1934
   85SLPC   H6Y 8141   2.171   4.241   3.400  0.1050  1.3154 -0.7556
   85SLPC   C37 8142   2.032   4.078   3.472  0.0395  0.2227 -0.3505
   85SLPC   H7X 8143   2.108   3.999   3.485 -0.2226 -0.0771 -0.6353
   85SLPC   H7Y 8144   1.933   4.032   3.449  2.2850 -4.8676 -1.1420
   85SLPC   C38 8145   2.013   4.148   3.613  0.1045 -0.2123 -0.4832
   85SLPC   H8X 8146   1.919   4.207   3.605 -1.0032 -1.9049 -0.3751
   85SLPC   H8Y 8147   2.087   4.230   3.622  0.0820 -0.2278 -0.1177
   85SLPC   C39 8148   2.013   4.052   3.734 -0.5890 -0.2922  0.0200
   85SLPC   H9X 8149   2.021   4.124   3.818  4.3243  1.4359 -1.5922
   85SLPC   H9Y 8150   2.110   4.000   3.746 -1.5179 -2.3024 -0.6482
   85SLPC  C310 8151   1.895   3.954   3.735 -0.0165  0.3682 -0.4196
   85SLPC  H10X 8152   1.917   3.878   3.656 -1.5244 -0.0058 -0.5178
   85SLPC  H10Y 8153   1.805   4.010   3.702  0.8927  1.2420 -1.4934
   85SLPC  C311 8154   1.867   3.901   3.877  0.3126 -0.7782 -0.1654
   85SLPC  H11X 8155   1.875   3.978   3.957  0.7257 -1.9044  0.8973
   85SLPC  H11Y 8156   1.955   3.836   3.895  1.5014  1.2520  1.9675
   85SLPC  C312 8157   1.727   3.847   3.902  0.1932  0.0193 -0.0025
   85SLPC  H12X 8158   1.655   3.932   3.906 -0.7437 -0.7756  0.2997
   85SLPC  H12Y 8159   1.728   3.793   3.999  0.1042 -0.0631 -0.0470
   85SLPC  C313 8160   1.671   3.737   3.798  0.0971  0.1756 -0.3108
   85SLPC  H13X 8161   1.742   3.651   3.795  1.2121  1.0290  0.7623
   85SLPC  H13Y 8162   1.664   3.786   3.699  0.5468  0.9186  0.0217
   85SLPC  C314 8163   1.535   3.681   3.826 -0.2237  0.6696 -0.7303
   85SLPC  H14X 8164   1.474   3.666   3.734 -0.8049 -2.1574  0.0207
   85SLPC  H14Y 8165   1.475   3.750   3.889 -1.7741  1.1989 -2.7065
   85SLPC  C315 8166   1.551   3.539   3.892  0.1600 -0.3259  0.4078
   85SLPC  H15X 8167   1.452   3.511   3.935 -0.9656  1.6941 -0.6583
   85SLPC  H15Y 8168   1.630   3.540   3.969 -1.1686 -1.3787  1.8445
   85SLPC  C316 8169   1.578   3.424   3.786 -1.0485 -0.6494 -0.5499
   85SLPC  H16X 8170   1.671   3.453   3.733  0.1321 -1.6402  0.8895
   85SLPC  H16Y 8171   1.490   3.409   3.720 -1.0988 -2.5960 -0.1032
   85SLPC  C317 8172   1.618   3.289   3.849 -0.5100  0.2406 -0.1724
   85SLPC  H17X 8173   1.528   3.228   3.872  0.0803 -0.4493  0.3205
   85SLPC  H17Y 8174   1.677   3.308   3.941  0.5528 -2.4620 -0.2268
   85SLPC  C318 8175   1.698   3.206   3.753 -0.6054 -0.1031  0.2611
   85SLPC  H18X 8176   1.740   3.128   3.820  0.2816 -0.1751 -0.3531
   85SLPC  H18Y 8177   1.781   3.262   3.704 -1.2774  2.3987  1.7833
   85SLPC  H18Z 8178   1.634   3.151   3.681 -2.0924  1.6178  0.1871
   86SLPC     N 8179   3.961   3.252   2.323  0.1643  0.6767  0.5701
   86SLPC   C13 8180   4.105   3.250   2.276  0.0706  0.0193 -0.3644
   86SLPC  H13A 8181   4.149   3.156   2.307 -0.8694 -0.3572 -0.1331
   86SLPC  H13B 8182   4.106   3.256   2.168 -2.7550 -2.5670 -0.6852
   86SLPC  H13C 8183   4.161   3.333   2.315 -1.4681  0.4485  1.0784
   86SLPC   C14 8184   3.887   3.142   2.255 -0.5235  0.3746  0.3201
   86SLPC  H14A 8185   3.935   3.048   2.275  1.1624  1.1745  0.1933
   86SLPC  H14B 8186   3.782   3.138   2.283 -0.7464 -0.8369 -0.6303
   86SLPC  H14C 8187   3.886   3.150   2.148 -0.3018  0.1300  0.2988
   86SLPC   C15 8188   3.910   3.382   2.283 -0.2672  0.8460  0.3785
   86SLPC  H15A 8189   3.805   3.373   2.260 -0.0956 -1.8821  0.3702
   86SLPC  H15B 8190   3.929   3.462   2.352  3.0566  1.3692 -0.9343
   86SLPC  H15C 8191   3.957   3.402   2.187 -1.1269  1.1816  0.0098
   86SLPC   C12 8192   3.963   3.227   2.471 -1.2303  0.0950  0.3429
   86SLPC  H12A 8193   3.867   3.236   2.520 -0.9632  0.7745  0.7515
   86SLPC  H12B 8194   4.020   3.309   2.511  1.5879 -0.6941 -1.7648
   86SLPC   C11 8195   4.011   3.088   2.513 -0.2475 -0.1980 -0.6166
   86SLPC  H11A 8196   3.946   3.007   2.472  2.0304 -1.6926 -1.4898
   86SLPC  H11B 8197   4.003   3.082   2.623  1.4911 -0.9157 -0.5055
   86SLPC     P 8198   4.268   3.012   2.558 -0.5312 -0.0033  0.5947
   86SLPC   O13 8199   4.352   2.945   2.452 -0.4959  0.5223 -0.2885
   86SLPC   O14 8200   4.328   3.121   2.636 -0.0621 -0.1914 -0.2980
   86SLPC   O12 8201   4.144   3.066   2.475  0.2376  0.5118  0.3771
   86SLPC   O11 8202   4.204   2.904   2.648  0.6613 -0.3509 -0.0484
   86SLPC    C1 8203   4.281   2.785   2.686  0.8476 -0.6594  0.0927
   86SLPC    HA 8204   4.240   2.702   2.625  0.1129 -0.8242  0.7922
   86SLPC    HB 8205   4.388   2.800   2.661  0.0811  1.6711 -2.2081
   86SLPC    C2 8206   4.279   2.761   2.839  0.3117  0.1032 -0.6096
   86SLPC    HS 8207   4.177   2.776   2.879 -0.4169 -0.8877 -1.9846
   86SLPC   O21 8208   4.374   2.852   2.910  0.2789 -0.4472 -0.4043
   86SLPC   C21 8209   4.321   2.965   2.940 -0.0299 -0.2205  0.2539
   86SLPC   O22 8210   4.205   3.001   2.935 -0.0143 -0.3871 -0.5897
   86SLPC   C22 8211   4.432   3.068   2.971  0.2605 -0.8461  0.2618
   86SLPC   H2R 8212   4.524   3.039   2.914 -0.3331 -1.1473 -0.5620
   86SLPC   H2S 8213   4.388   3.153   2.914  1.7001 -1.0651 -1.2684
   86SLPC    C3 8214   4.305   2.609   2.878 -0.5125 -0.0589  0.9491
   86SLPC    HX 8215   4.400   2.580   2.829  0.8836  2.5786  1.9343
   86SLPC    HY 8216   4.224   2.546   2.836 -0.0792 -0.7062  1.0691
   86SLPC   O31 8217   4.301   2.594   3.017 -0.4203 -0.2598 -0.3920
   86SLPC   C31 8218   4.374   2.500   3.077  0.8346  0.2597  0.5525
   86SLPC   O32 8219   4.433   2.412   3.018  0.0598  0.7868 -0.7044
   86SLPC   C32 8220   4.374   2.532   3.227 -0.7461 -0.7971  0.1579
   86SLPC   H2X 8221   4.419   2.450   3.288  1.2452  0.6211  0.7212
   86SLPC   H2Y 8222   4.266   2.544   3.250 -0.5492  0.8980  0.3301
   86SLPC   C23 8223   4.450   3.099   3.122  0.2505  0.0139 -0.2043
   86SLPC   H3R 8224   4.518   3.020   3.160 -0.8885  0.5697  3.3547
   86SLPC   H3S 8225   4.352   3.101   3.175 -0.0374  1.1833 -0.7322
   86SLPC   C24 8226   4.520   3.242   3.156  0.2769 -0.2037  0.5736
   86SLPC   H4R 8227   4.459   3.319   3.103  0.1542  0.7107  1.9923
   86SLPC   H4S 8228   4.615   3.252   3.100  0.3277  0.9262  0.8392
   86SLPC   C25 8229   4.532   3.292   3.301  1.2236 -0.3689 -0.1944
   86SLPC   H5R 8230   4.557   3.400   3.299 -3.6042  1.0883  1.7132
   86SLPC   H5S 8231   4.614   3.242   3.357 -0.6250  0.5595  3.7201
   86SLPC   C26 8232   4.409   3.279   3.391  0.3132 -0.2047  0.1814
   86SLPC   H6R 8233   4.356   3.183   3.374  1.2548 -0.5438 -0.9892
   86SLPC   H6S 8234   4.332   3.357   3.372 -0.9357 -1.2371  0.8552
   86SLPC   C27 8235   4.422   3.302   3.540  0.0326  0.3370  0.4239
   86SLPC   H7R 8236   4.481   3.217   3.580 -0.9557 -1.2724 -1.3509
   86SLPC   H7S 8237   4.321   3.292   3.585 -0.2050 -2.2079 -0.5450
   86SLPC   C28 8238   4.502   3.430   3.550  0.0472  0.1824  0.0346
   86SLPC   H8R 8239   4.459   3.503   3.478 -0.2678 -0.8130 -0.7955
   86SLPC   H8S 8240   4.609   3.407   3.530 -0.5826 -2.3904 -0.7880
   86SLPC   C29 8241   4.477   3.479   3.690  0.3258 -0.2005 -0.2499
   86SLPC   H9R 8242   4.374   3.511   3.713  1.4048  0.8841  3.7167
   86SLPC  C210 8243   4.575   3.504   3.781  0.3952 -0.1481  0.0743
   86SLPC  H10R 8244   4.541   3.559   3.870 -1.5432  1.7527 -1.7043
   86SLPC  C211 8245   4.724   3.497   3.770  0.0626  0.6300 -0.1883
   86SLPC  H11R 8246   4.752   3.440   3.678 -0.9794  0.3493 -0.3460
   86SLPC  H11S 8247   4.763   3.427   3.846 -1.7150  0.6072  0.7485
   86SLPC  C212 8248   4.796   3.625   3.768 -0.1882 -0.0290 -0.4621
   86SLPC  H12R 8249   4.823   3.663   3.668 -0.4754  0.6902 -0.2728
   86SLPC  C213 8250   4.869   3.671   3.869 -0.3574  0.5374 -0.2249
   86SLPC  H13R 8251   4.922   3.767   3.860  1.5548 -0.3484  1.0245
   86SLPC  C214 8252   4.861   3.605   4.011  0.5269 -0.5230  0.7034
   86SLPC  H14R 8253   4.932   3.524   4.039  3.2135  2.0507  1.9033
   86SLPC  H14S 8254   4.755   3.572   4.021  0.6576 -1.2543 -0.1605
   86SLPC  C215 8255   4.882   3.717   4.115  0.2017 -0.2667 -0.9622
   86SLPC  H15R 8256   4.845   3.675   4.211  1.4310 -0.0248 -0.3714
   86SLPC  H15S 8257   4.829   3.811   4.086  2.2002  0.0774 -3.9094
   86SLPC  C216 8258   5.029   3.764   4.133  0.5082  0.0809  0.4717
   86SLPC  H16R 8259   5.031   3.845   4.210  0.5325  0.2454  0.2978
   86SLPC  H16S 8260   5.075   3.799   4.039 -0.6283 -0.4007 -0.2833
   86SLPC  C217 8261   5.117   3.656   4.199 -0.3247  0.4155 -0.0485
   86SLPC  H17R 8262   5.135   3.578   4.122 -1.7261  0.0304 -0.0045
   86SLPC  H17S 8263   5.049   3.608   4.273 -2.2034 -1.9444 -3.0671
   86SLPC  C218 8264   5.246   3.711   4.259  0.1700  0.1878  0.6881
   86SLPC  H18R 8265   5.302   3.629   4.309 -0.0623  0.8623  2.1197
   86SLPC  H18S 8266   5.230   3.792   4.334  0.3636  2.4388 -1.5858
   86SLPC  H18T 8267   5.312   3.756   4.182 -2.6095  0.7496 -1.5597
   86SLPC   C33 8268   4.427   2.672   3.250 -0.6212 -0.7422  0.1490
   86SLPC   H3X 8269   4.371   2.745   3.188 -0.5770  0.4757  1.4685
   86SLPC   H3Y 8270   4.535   2.674   3.226 -0.1233 -0.9643  2.1826
   86SLPC   C34 8271   4.418   2.721   3.397 -0.7358  0.3230  0.1630
   86SLPC   H4X 8272   4.312   2.748   3.419  0.1736  3.9740  0.5905
   86SLPC   H4Y 8273   4.479   2.813   3.409  0.2724  0.0213 -2.2080
   86SLPC   C35 8274   4.475   2.631   3.510 -0.2024 -0.1181 -0.0754
   86SLPC   H5X 8275   4.576   2.596   3.479 -0.1369  1.4564 -1.8779
   86SLPC   H5Y 8276   4.405   2.545   3.522 -0.3670  0.0280  0.0158
   86SLPC   C36 8277   4.505   2.692   3.650 -0.0622 -0.1815  0.2574
   86SLPC   H6X 8278   4.422   2.741   3.704  0.3323  0.7149  0.0745
   86SLPC   H6Y 8279   4.594   2.759   3.639  0.2982 -0.7990 -0.6775
   86SLPC   C37 8280   4.564   2.586   3.743 -0.7389 -0.4659  1.1183
   86SLPC   H7X 8281   4.663   2.561   3.700  0.2617 -0.8989  3.4982
   86SLPC   H7Y 8282   4.503   2.494   3.733 -0.5745 -0.4612 -0.1283
   86SLPC   C38 8283   4.590   2.622   3.886  0.4259  0.1900  0.1365
   86SLPC   H8X 8284   4.488   2.623   3.931  0.6420 -0.6196  0.6533
   86SLPC   H8Y 8285   4.630   2.726   3.892  0.3175  0.2497 -0.1410
   86SLPC   C39 8286   4.683   2.524   3.958 -0.7972  0.1926  0.7777
   86SLPC   H9X 8287   4.733   2.558   4.051  0.0523  0.9121  0.0735
   86SLPC   H9Y 8288   4.764   2.507   3.884  0.5675  0.8368  2.0736
   86SLPC  C310 8289   4.612   2.397   3.995 -0.0793 -0.3545  0.1783
   86SLPC  H10X 8290   4.566   2.374   3.897  0.3675  2.4746 -0.7862
   86SLPC  H10Y 8291   4.541   2.421   4.077  0.8052 -0.1026  0.8836
   86SLPC  C311 8292   4.714   2.289   4.036  0.5141  0.1874 -0.0210
   86SLPC  H11X 8293   4.804   2.302   3.972  0.9288 -0.7719  0.3433
   86SLPC  H11Y 8294   4.665   2.192   4.013 -1.8130  1.1702  0.4824
   86SLPC  C312 8295   4.754   2.298   4.189  0.4366  0.0980  0.2351
   86SLPC  H12X 8296   4.668   2.284   4.258 -0.4216 -1.0207 -1.0142
   86SLPC  H12Y 8297   4.817   2.386   4.213  1.4031 -0.8229  1.2152
   86SLPC  C313 8298   4.852   2.180   4.222  0.4575 -0.7469 -0.9870
   86SLPC  H13X 8299   4.947   2.179   4.165  1.9753  1.5068  1.2624
   86SLPC  H13Y 8300   4.786   2.094   4.198 -0.5498  0.1876 -1.6860
   86SLPC  C314 8301   4.876   2.167   4.369  0.2296  0.2309 -0.0983
   86SLPC  H14X 8302   4.782   2.148   4.425 -1.2038 -0.1122 -2.4929
   86SLPC  H14Y 8303   4.910   2.264   4.413 -2.0770  1.0776 -0.0285
   86SLPC  C315 8304   4.984   2.067   4.407  0.6970 -0.3331 -0.0164
   86SLPC  H15X 8305   5.076   2.103   4.355 -0.1091  0.5432 -0.8941
   86SLPC  H15Y 8306   4.964   1.964   4.373  3.2564 -1.3647  1.3254
   86SLPC  C316 8307   5.007   2.050   4.552 -0.4049  0.3368 -0.5000
   86SLPC  H16X 8308   4.911   2.029   4.604 -1.2129 -1.8229 -2.6922
   86SLPC  H16Y 8309   5.063   2.138   4.592 -0.0435 -0.7282  1.4560
   86SLPC  C317 8310   5.089   1.923   4.580 -0.2099  0.2616  0.1919
   86SLPC  H17X 8311   5.172   1.940   4.508 -1.0726 -0.9822 -1.1204
   86SLPC  H17Y 8312   5.043   1.831   4.540  1.5367  0.9720 -4.0020
   86SLPC  C318 8313   5.150   1.918   4.725 -0.3500  0.4376 -0.1185
   86SLPC  H18X 8314   5.235   1.986   4.745  0.2385 -0.6792  1.4857
   86SLPC  H18Y 8315   5.201   1.819   4.724  0.6999  0.9423  1.0924
   86SLPC  H18Z 8316   5.076   1.921   4.808  0.4558 -0.5112  0.6635
   87SLPC     N 8317   6.796   1.408   2.098 -0.2396  0.3488 -0.4912
   87SLPC   C13 8318   6.684   1.330   2.031 -0.1638  0.2948 -0.3249
   87SLPC  H13A 8319   6.725   1.278   1.945  1.4711 -0.8937  1.1131
   87SLPC  H13B 8320   6.638   1.257   2.096  1.7054 -0.8646 -0.2255
   87SLPC  H13C 8321   6.598   1.392   2.011  0.8895  2.4511  1.3566
   87SLPC   C14 8322   6.732   1.506   2.193  0.0558 -0.0565  0.2512
   87SLPC  H14A 8323   6.661   1.571   2.145 -0.5988  0.5435  1.9655
   87SLPC  H14B 8324   6.691   1.459   2.281  1.6002 -1.2482  0.3847
   87SLPC  H14C 8325   6.809   1.569   2.234  1.5203 -1.4135 -0.3141
   87SLPC   C15 8326   6.862   1.485   1.989 -0.4351 -0.0551  0.8645
   87SLPC  H15A 8327   6.906   1.415   1.919  0.6408 -0.2238  1.6864
   87SLPC  H15B 8328   6.793   1.552   1.941  0.8427  1.1737  0.6877
   87SLPC  H15C 8329   6.937   1.543   2.040  1.1292 -0.6724 -0.6413
   87SLPC   C12 8330   6.896   1.317   2.165  0.1503 -0.2084 -0.2971
   87SLPC  H12A 8331   6.935   1.255   2.086 -1.3674  0.1261 -1.3615
   87SLPC  H12B 8332   6.845   1.251   2.234 -0.4864  0.2457 -0.3169
   87SLPC   C11 8333   7.000   1.389   2.255 -0.8301  0.5682  0.6974
   87SLPC  H11A 8334   7.066   1.324   2.316  1.1453  1.0300 -0.8231
   87SLPC  H11B 8335   6.940   1.452   2.324  0.5489  1.8282  0.7903
   87SLPC     P 8336   7.167   1.601   2.215  0.1405  0.1468 -0.0392
   87SLPC   O13 8337   7.279   1.606   2.119 -0.4906  0.0155  0.1877
   87SLPC   O14 8338   7.068   1.710   2.207 -0.0909  0.0992 -0.2959
   87SLPC   O12 8339   7.089   1.466   2.170 -0.4373 -0.3628  0.3702
   87SLPC   O11 8340   7.224   1.560   2.363  0.4724 -0.7608  0.9217
   87SLPC    C1 8341   7.151   1.626   2.467 -0.3247 -0.3101 -0.0387
   87SLPC    HA 8342   7.198   1.725   2.487 -0.6909 -0.3602  1.2034
   87SLPC    HB 8343   7.041   1.637   2.454 -0.3798  0.9313  1.1931
   87SLPC    C2 8344   7.188   1.549   2.595  0.7216 -0.1793 -1.2109
   87SLPC    HS 8345   7.127   1.593   2.677 -1.5504 -2.2671 -1.6800
   87SLPC   O21 8346   7.322   1.584   2.630  0.2463 -0.0364  0.3726
   87SLPC   C21 8347   7.357   1.581   2.755  0.4597  0.8021  0.2234
   87SLPC   O22 8348   7.284   1.553   2.848  0.8678 -0.1291 -0.1247
   87SLPC   C22 8349   7.507   1.613   2.774 -0.7054  0.2168 -0.0182
   87SLPC   H2R 8350   7.559   1.553   2.697  1.3615  1.4007  0.4006
   87SLPC   H2S 8351   7.506   1.724   2.761 -0.3778  0.0324 -1.9551
   87SLPC    C3 8352   7.166   1.394   2.590 -0.0647 -0.2971 -1.6407
   87SLPC    HX 8353   7.249   1.340   2.539  1.6356 -2.0039  2.4621
   87SLPC    HY 8354   7.076   1.386   2.526 -1.6763  1.0481  0.3083
   87SLPC   O31 8355   7.146   1.324   2.720  0.0743 -0.2479  0.1527
   87SLPC   C31 8356   7.023   1.358   2.772 -0.2656  0.1444 -0.5489
   87SLPC   O32 8357   6.927   1.399   2.709 -0.2896  0.2570  0.4949
   87SLPC   C32 8358   7.034   1.344   2.929 -0.4438  0.0644  0.7270
   87SLPC   H2X 8359   7.116   1.411   2.962 -0.0786  0.4292 -0.8729
   87SLPC   H2Y 8360   7.070   1.240   2.945 -1.6857 -0.6638 -0.9211
   87SLPC   C23 8361   7.562   1.581   2.913  0.5274  0.1546 -0.2127
   87SLPC   H3R 8362   7.544   1.474   2.936 -0.7777  0.0618 -1.5300
   87SLPC   H3S 8363   7.501   1.643   2.982 -0.3863  0.9968 -1.7227
   87SLPC   C24 8364   7.715   1.612   2.922  0.3694 -0.3482  0.0755
   87SLPC   H4R 8365   7.733   1.710   2.873  0.5806 -0.3042  0.2399
   87SLPC   H4S 8366   7.765   1.534   2.860 -0.2896 -3.4556  3.1283
   87SLPC   C25 8367   7.772   1.604   3.068 -0.8389 -0.1649  0.1075
   87SLPC   H5R 8368   7.766   1.705   3.114 -1.1058  2.0568 -4.2906
   87SLPC   H5S 8369   7.883   1.595   3.075 -0.8994  0.1387  2.3468
   87SLPC   C26 8370   7.709   1.502   3.157 -0.0002  0.9163 -0.5637
   87SLPC   H6R 8371   7.711   1.404   3.104  0.6122  0.8273 -0.3831
   87SLPC   H6S 8372   7.600   1.522   3.171 -0.4505 -1.2575 -0.5508
   87SLPC   C27 8373   7.766   1.504   3.298 -0.2430  0.0834  0.2463
   87SLPC   H7R 8374   7.750   1.611   3.323  0.8655  0.5311 -0.8644
   87SLPC   H7S 8375   7.875   1.488   3.287 -0.2908  1.1096 -2.5027
   87SLPC   C28 8376   7.701   1.400   3.388 -0.4083 -0.1481 -0.0112
   87SLPC   H8R 8377   7.715   1.301   3.339 -0.7714  0.1582 -0.7500
   87SLPC   H8S 8378   7.592   1.412   3.401 -0.7879  1.2238 -3.3329
   87SLPC   C29 8379   7.767   1.409   3.523 -0.0949  0.2218  0.7412
   87SLPC   H9R 8380   7.862   1.353   3.529  1.2654  2.2786 -0.1815
   87SLPC  C210 8381   7.715   1.471   3.629 -0.5720  0.5258  1.2568
   87SLPC  H10R 8382   7.763   1.471   3.728  0.8987  1.2159  0.5806
   87SLPC  C211 8383   7.605   1.573   3.606 -0.3999 -0.6722 -0.0369
   87SLPC  H11R 8384   7.535   1.551   3.689  0.2915 -2.1362  0.1857
   87SLPC  H11S 8385   7.538   1.554   3.520  0.1306  0.8161 -0.8278
   87SLPC  C212 8386   7.644   1.718   3.611 -0.3524  0.2726  0.2917
   87SLPC  H12R 8387   7.726   1.746   3.679  0.7326 -0.9116 -0.4740
   87SLPC  C213 8388   7.588   1.814   3.531 -0.1346 -0.0348  0.3071
   87SLPC  H13R 8389   7.624   1.918   3.541 -0.3559  0.2620 -1.5763
   87SLPC  C214 8390   7.475   1.789   3.428  0.4563  0.3841 -0.3421
   87SLPC  H14R 8391   7.379   1.842   3.449 -0.9937 -1.9582 -0.7480
   87SLPC  H14S 8392   7.432   1.687   3.430 -0.5663  0.7728 -1.4211
   87SLPC  C215 8393   7.507   1.821   3.280 -0.4760  0.2245 -0.1797
   87SLPC  H15R 8394   7.576   1.739   3.251  1.3129  1.8345 -0.6692
   87SLPC  H15S 8395   7.556   1.920   3.279 -0.0802  0.0313 -0.3762
   87SLPC  C216 8396   7.378   1.841   3.196  0.1183  0.2090  0.6301
   87SLPC  H16R 8397   7.409   1.826   3.091 -2.3064 -1.6417  0.0865
   87SLPC  H16S 8398   7.341   1.943   3.219  0.6406  0.7982 -1.0334
   87SLPC  C217 8399   7.271   1.729   3.205  0.5444  0.8370 -0.0788
   87SLPC  H17R 8400   7.242   1.717   3.311  1.3092 -2.6655 -0.1355
   87SLPC  H17S 8401   7.315   1.636   3.164  0.7509  0.6829  0.4877
   87SLPC  C218 8402   7.139   1.760   3.133 -0.4933 -0.4367 -0.0739
   87SLPC  H18R 8403   7.082   1.843   3.180 -0.1378  0.5641 -1.3520
   87SLPC  H18S 8404   7.081   1.666   3.128  0.2083 -0.8488 -0.7619
   87SLPC  H18T 8405   7.148   1.799   3.029 -4.2954  0.5754 -0.1629
   87SLPC   C33 8406   6.900   1.382   3.001  0.4654  0.6243 -0.6129
   87SLPC   H3X 8407   6.819   1.307   2.984  0.6266  0.3834 -0.3319
   87SLPC   H3Y 8408   6.862   1.479   2.965  1.7916  1.1968 -0.5220
   87SLPC   C34 8409   6.925   1.393   3.152 -0.1409 -0.4874 -0.7189
   87SLPC   H4X 8410   7.001   1.470   3.175 -1.4356 -0.1168  2.9889
   87SLPC   H4Y 8411   6.962   1.292   3.179  3.5009  0.8824 -0.0684
   87SLPC   C35 8412   6.803   1.429   3.233 -0.6043  0.0179 -0.0663
   87SLPC   H5X 8413   6.722   1.355   3.216 -1.0474  0.9990 -2.7428
   87SLPC   H5Y 8414   6.759   1.523   3.194 -1.8816 -0.4887  0.1188
   87SLPC   C36 8415   6.833   1.458   3.377  0.9116  0.7333 -0.4420
   87SLPC   H6X 8416   6.910   1.536   3.392  0.2977  1.2478  0.0918
   87SLPC   H6Y 8417   6.867   1.365   3.428  2.9664  1.5985 -0.1381
   87SLPC   C37 8418   6.701   1.491   3.458 -0.1766 -0.0686  0.3323
   87SLPC   H7X 8419   6.629   1.420   3.412  0.7376  0.3753 -1.9249
   87SLPC   H7Y 8420   6.664   1.595   3.446 -1.7575 -0.1466  3.6170
   87SLPC   C38 8421   6.729   1.464   3.609 -0.3094  0.3450  0.0737
   87SLPC   H8X 8422   6.799   1.542   3.645  0.7498  0.2293 -1.6290
   87SLPC   H8Y 8423   6.784   1.375   3.646 -1.4058  1.0107  3.7592
   87SLPC   C39 8424   6.592   1.461   3.682  0.3263  0.1632 -0.4802
   87SLPC   H9X 8425   6.532   1.389   3.622  1.2794 -0.3648 -0.8119
   87SLPC   H9Y 8426   6.544   1.562   3.675 -1.9790 -0.7932  0.4122
   87SLPC  C310 8427   6.592   1.415   3.834  0.2283  0.3821 -0.6689
   87SLPC  H10X 8428   6.605   1.305   3.831 -1.5079 -0.0281  2.3845
   87SLPC  H10Y 8429   6.494   1.450   3.874  0.4770 -0.6010  0.8734
   87SLPC  C311 8430   6.701   1.483   3.923  0.2222  0.3652 -0.1508
   87SLPC  H11X 8431   6.802   1.447   3.896 -0.2234 -1.0568 -0.0102
   87SLPC  H11Y 8432   6.695   1.437   4.024  1.1743  1.0752  0.2447
   87SLPC  C312 8433   6.698   1.639   3.942 -0.1481 -0.3311 -1.0200
   87SLPC  H12X 8434   6.591   1.658   3.968  0.7827  0.0832  3.0673
   87SLPC  H12Y 8435   6.732   1.698   3.855  0.8243  0.9939  0.2202
   87SLPC  C313 8436   6.786   1.682   4.057 -0.2591 -0.2204 -0.5353
   87SLPC  H13X 8437   6.894   1.696   4.038 -0.5008  0.8683 -1.1831
   87SLPC  H13Y 8438   6.780   1.604   4.136 -0.4753 -3.0671 -3.1815
   87SLPC  C314 8439   6.736   1.818   4.097  0.3507 -0.1730 -1.1499
   87SLPC  H14X 8440   6.632   1.813   4.136  0.6962  0.0539 -0.1637
   87SLPC  H14Y 8441   6.736   1.867   3.997 -1.3180 -2.2744 -2.2708
   87SLPC  C315 8442   6.819   1.905   4.192  0.1548  0.4387 -0.2653
   87SLPC  H15X 8443   6.856   1.835   4.270  0.0305  0.7712  0.0939
   87SLPC  H15Y 8444   6.750   1.966   4.254 -2.4637 -2.1518 -0.4118
   87SLPC  C316 8445   6.939   1.987   4.135  0.3824  0.2421  0.8310
   87SLPC  H16X 8446   6.906   2.067   4.065 -0.0670 -0.0737  0.6818
   87SLPC  H16Y 8447   7.001   1.923   4.069 -0.0422 -0.1929  0.8498
   87SLPC  C317 8448   7.026   2.053   4.245  0.0553  0.7239  0.1258
   87SLPC  H17X 8449   7.043   1.968   4.315 -1.1299  0.9720  0.7462
   87SLPC  H17Y 8450   6.964   2.131   4.295  2.0005  1.0837  2.1382
   87SLPC  C318 8451   7.157   2.111   4.183 -0.0273  0.2366  0.3488
   87SLPC  H18X 8452   7.227   2.158   4.255  0.3768  0.5085 -0.2182
   87SLPC  H18Y 8453   7.118   2.188   4.113  1.0327 -0.1216 -0.6714
   87SLPC  H18Z 8454   7.203   2.023   4.133 -1.6769 -0.3411 -0.2230
   88SLPC     N 8455   0.671   3.823   2.154  0.0417 -0.2731 -0.3810
   88SLPC   C13 8456   0.659   3.963   2.101  0.2971 -1.0518 -0.1238
   88SLPC  H13A 8457   0.656   4.043   2.174 -2.4912  1.1935 -2.4227
   88SLPC  H13B 8458   0.734   3.982   2.027  1.7000 -1.2552  1.2042
   88SLPC  H13C 8459   0.564   3.987   2.054  0.1585  1.7739  1.3609
   88SLPC   C14 8460   0.635   3.726   2.043 -0.2584 -0.2790 -0.4426
   88SLPC  H14A 8461   0.632   3.622   2.071 -0.6998 -0.1457  0.0295
   88SLPC  H14B 8462   0.533   3.752   2.019  0.7211  3.5227 -1.2471
   88SLPC  H14C 8463   0.701   3.754   1.963  1.0093 -2.2574 -0.1535
   88SLPC   C15 8464   0.578   3.811   2.260  0.7994 -0.2698  0.1412
   88SLPC  H15A 8465   0.584   3.713   2.305  1.5427  1.2989  3.8039
   88SLPC  H15B 8466   0.592   3.885   2.337 -1.0966 -0.1844  0.4599
   88SLPC  H15C 8467   0.475   3.816   2.226  0.9467 -2.6131 -0.8467
   88SLPC   C12 8468   0.808   3.786   2.190  0.8918 -0.5209 -0.0982
   88SLPC  H12A 8469   0.849   3.863   2.254  0.4359  0.3473 -0.8238
   88SLPC  H12B 8470   0.866   3.790   2.099 -0.1010 -1.8767 -0.8184
   88SLPC   C11 8471   0.833   3.652   2.256 -0.1322 -0.2367  0.0848
   88SLPC  H11A 8472   0.797   3.577   2.182 -2.2833 -0.5834  1.4081
   88SLPC  H11B 8473   0.782   3.640   2.354 -0.4248 -1.1917 -0.1700
   88SLPC     P 8474   1.033   3.493   2.291  0.2666 -0.0077 -0.3349
   88SLPC   O13 8475   0.964   3.404   2.190  1.0728 -0.0151 -0.2627
   88SLPC   O14 8476   1.178   3.503   2.274  0.9577 -0.5929 -0.3387
   88SLPC   O12 8477   0.977   3.637   2.269  0.1714  0.2051 -0.1168
   88SLPC   O11 8478   0.985   3.457   2.433 -0.4961 -0.4319 -0.1224
   88SLPC    C1 8479   1.042   3.513   2.560 -0.3874 -0.0976  0.4671
   88SLPC    HA 8480   1.148   3.541   2.547 -0.7609  1.7445  1.1524
   88SLPC    HB 8481   0.984   3.606   2.574  0.2841  0.2298  1.0836
   88SLPC    C2 8482   1.029   3.406   2.668  0.0856 -0.2819  0.5200
   88SLPC    HS 8483   1.058   3.471   2.754 -1.2548  1.1771 -0.0839
   88SLPC   O21 8484   1.136   3.316   2.636  0.8407 -0.1602  0.2818
   88SLPC   C21 8485   1.200   3.274   2.742  0.2984  0.9498 -0.4580
   88SLPC   O22 8486   1.163   3.299   2.855 -0.1195  0.2973  0.4306
   88SLPC   C22 8487   1.321   3.188   2.699 -0.3898  0.4813 -0.2859
   88SLPC   H2R 8488   1.278   3.095   2.656 -1.1059  0.8700 -0.4280
   88SLPC   H2S 8489   1.381   3.240   2.621 -0.0681  0.7410  0.1298
   88SLPC    C3 8490   0.891   3.344   2.687  0.3901  0.5742  1.0275
   88SLPC    HX 8491   0.876   3.277   2.600  2.2600  1.6191 -0.1711
   88SLPC    HY 8492   0.812   3.421   2.695  1.5765  1.6973  2.8741
   88SLPC   O31 8493   0.891   3.254   2.801  0.5755 -0.8843 -0.7342
   88SLPC   C31 8494   0.849   3.307   2.918 -0.0530 -0.4346  0.3137
   88SLPC   O32 8495   0.835   3.427   2.938 -0.0557  0.2256 -0.0914
   88SLPC   C32 8496   0.798   3.185   3.003 -0.4657 -0.2126 -0.1623
   88SLPC   H2X 8497   0.861   3.098   2.977  0.6867  0.7170 -0.5445
   88SLPC   H2Y 8498   0.689   3.173   2.984 -0.2052 -2.6480 -0.3690
   88SLPC   C23 8499   1.392   3.140   2.826 -0.3895 -0.3519  0.2131
   88SLPC   H3R 8500   1.323   3.087   2.895 -1.4485  1.6891  0.7919
   88SLPC   H3S 8501   1.439   3.230   2.871 -1.6464  0.3948  0.1022
   88SLPC   C24 8502   1.501   3.034   2.796  0.5239  0.1957 -0.2978
   88SLPC   H4R 8503   1.576   3.083   2.730 -0.9275  1.6793 -0.9409
   88SLPC   H4S 8504   1.441   2.956   2.743 -2.5407  0.9900  1.7238
   88SLPC   C25 8505   1.571   2.980   2.915 -0.0296 -0.6923 -0.6745
   88SLPC   H5R 8506   1.643   2.902   2.880 -0.4381 -2.0378  1.2892
   88SLPC   H5S 8507   1.498   2.919   2.973  1.3847 -1.8812 -0.0740
   88SLPC   C26 8508   1.642   3.082   3.013  0.0583  0.4284 -0.3822
   88SLPC   H6R 8509   1.565   3.141   3.067 -0.4080  1.7474 -2.3504
   88SLPC   H6S 8510   1.706   3.159   2.965  0.1380  1.4023  1.2474
   88SLPC   C27 8511   1.711   2.998   3.119 -0.7352  0.2104  0.1816
   88SLPC   H7R 8512   1.803   2.945   3.088 -0.9772 -0.5388  0.7059
   88SLPC   H7S 8513   1.640   2.913   3.130 -2.3094  1.1815 -1.7783
   88SLPC   C28 8514   1.742   3.076   3.255 -0.2015  0.2199  0.7718
   88SLPC   H8R 8515   1.804   3.016   3.324  2.6369  2.1209  0.0670
   88SLPC   H8S 8516   1.646   3.106   3.303 -0.1287  0.8493  0.5440
   88SLPC   C29 8517   1.821   3.204   3.229  0.4429 -0.0096 -0.1363
   88SLPC   H9R 8518   1.757   3.285   3.190  0.7074 -0.5883 -1.8623
   88SLPC  C210 8519   1.944   3.228   3.277 -0.5689 -0.1827 -0.5679
   88SLPC  H10R 8520   1.983   3.329   3.257  2.5837 -1.1296  0.2728
   88SLPC  C211 8521   2.037   3.133   3.333 -0.0973 -0.1719 -0.8269
   88SLPC  H11R 8522   2.001   3.031   3.306  2.0284 -1.0634 -0.5920
   88SLPC  H11S 8523   2.031   3.130   3.444  2.8025 -1.8915 -0.5996
   88SLPC  C212 8524   2.178   3.149   3.295  0.6412  0.0381 -0.5193
   88SLPC  H12R 8525   2.189   3.185   3.192  1.5416  1.0178 -0.0962
   88SLPC  C213 8526   2.284   3.139   3.374  0.3595  0.1026 -0.1543
   88SLPC  H13R 8527   2.388   3.148   3.338  0.3024  0.2797 -0.2751
   88SLPC  C214 8528   2.281   3.116   3.522  0.4477 -0.1608  0.1759
   88SLPC  H14R 8529   2.187   3.147   3.572 -1.5072 -2.1401 -2.0378
   88SLPC  H14S 8530   2.366   3.159   3.579  0.0946 -0.1881  0.7250
   88SLPC  C215 8531   2.287   2.963   3.538 -0.1499 -0.1946  0.2672
   88SLPC  H15R 8532   2.360   2.911   3.472  0.3267  1.7125 -0.7763
   88SLPC  H15S 8533   2.189   2.911   3.533 -0.6921  0.7406  0.9426
   88SLPC  C216 8534   2.334   2.928   3.684 -0.2592  0.6861  0.2859
   88SLPC  H16R 8535   2.265   2.965   3.763 -1.0047  1.2583 -0.6213
   88SLPC  H16S 8536   2.430   2.981   3.701 -1.1634  2.7160 -0.6994
   88SLPC  C217 8537   2.339   2.775   3.704  0.0116 -0.4479  0.5240
   88SLPC  H17R 8538   2.439   2.744   3.666  0.7079  1.5639  0.6043
   88SLPC  H17S 8539   2.261   2.719   3.647 -1.1482  1.5309  0.0956
   88SLPC  C218 8540   2.344   2.732   3.854  0.0330  0.7764 -0.2724
   88SLPC  H18R 8541   2.338   2.621   3.862 -2.1325  0.7565 -1.3773
   88SLPC  H18S 8542   2.263   2.780   3.912 -1.2864  0.1776 -1.5569
   88SLPC  H18T 8543   2.439   2.769   3.898  0.2866  1.2205 -1.1624
   88SLPC   C33 8544   0.818   3.213   3.157  0.1594 -0.2284 -0.0645
   88SLPC   H3X 8545   0.763   3.307   3.179  0.9760  0.1466  0.4326
   88SLPC   H3Y 8546   0.926   3.226   3.175  0.3503  1.1603 -1.8899
   88SLPC   C34 8547   0.752   3.112   3.252 -0.2119 -0.3683  0.1307
   88SLPC   H4X 8548   0.776   3.009   3.218 -0.3775  0.0932 -1.4717
   88SLPC   H4Y 8549   0.644   3.112   3.229 -0.4683 -1.4699  1.2773
   88SLPC   C35 8550   0.774   3.136   3.398 -0.3138 -0.0128 -0.5681
   88SLPC   H5X 8551   0.697   3.068   3.440 -0.8138  0.6208 -0.4464
   88SLPC   H5Y 8552   0.753   3.240   3.430 -0.0390 -0.3392  0.7187
   88SLPC   C36 8553   0.914   3.092   3.454 -0.7215  0.2151  0.4740
   88SLPC   H6X 8554   0.999   3.155   3.418 -0.1438 -0.3510  0.8267
   88SLPC   H6Y 8555   0.935   2.999   3.397 -0.4446  1.0085 -0.7510
   88SLPC   C37 8556   0.905   3.048   3.595 -0.5277  0.3506  0.0583
   88SLPC   H7X 8557   0.991   2.982   3.619 -1.8570 -1.2517  0.6289
   88SLPC   H7Y 8558   0.816   2.997   3.638 -0.4132 -0.5141 -0.7059
   88SLPC   C38 8559   0.932   3.161   3.702 -0.1544 -0.3747 -0.5394
   88SLPC   H8X 8560   0.851   3.236   3.701 -0.9868 -1.0294  3.1994
   88SLPC   H8Y 8561   1.021   3.212   3.658 -1.4437 -0.3961 -3.4099
   88SLPC   C39 8562   0.954   3.095   3.837  0.1612  0.7687 -0.3727
   88SLPC   H9X 8563   1.023   3.008   3.830 -2.0647 -0.9689 -2.3081
   88SLPC   H9Y 8564   0.860   3.056   3.882 -0.4504  0.7432 -1.6314
   88SLPC  C310 8565   1.008   3.195   3.934 -0.1465  0.0568  0.3144
   88SLPC  H10X 8566   0.954   3.291   3.922 -0.0763  0.0323 -0.2383
   88SLPC  H10Y 8567   1.112   3.225   3.912  0.6863 -3.1486 -0.8125
   88SLPC  C311 8568   0.992   3.167   4.081  0.0851  0.1327 -0.3296
   88SLPC  H11X 8569   1.036   3.067   4.099 -0.0264 -0.1813 -1.6720
   88SLPC  H11Y 8570   0.885   3.161   4.112  0.1859 -1.6047 -0.2013
   88SLPC  C312 8571   1.061   3.265   4.170 -0.7571 -0.3713 -0.5436
   88SLPC  H12X 8572   1.020   3.368   4.158  0.6832  0.8809  3.4859
   88SLPC  H12Y 8573   1.167   3.262   4.138 -1.0834 -2.9060 -1.6143
   88SLPC  C313 8574   1.065   3.223   4.314 -0.0173 -0.1106 -0.1068
   88SLPC  H13X 8575   1.146   3.284   4.360 -0.1184 -1.2810  1.7268
   88SLPC  H13Y 8576   1.102   3.119   4.321  2.3804  0.6898  0.0072
   88SLPC  C314 8577   0.933   3.234   4.391  0.0988  0.2468 -0.6267
   88SLPC  H14X 8578   0.852   3.178   4.338 -2.4145  1.4599  1.6607
   88SLPC  H14Y 8579   0.900   3.339   4.400  0.9244  0.4240  0.4703
   88SLPC  C315 8580   0.951   3.187   4.533 -0.0766  0.5909  0.0837
   88SLPC  H15X 8581   1.029   3.247   4.585  0.5592 -0.8240  0.8071
   88SLPC  H15Y 8582   1.004   3.090   4.538  2.3775  1.8582  0.3676
   88SLPC  C316 8583   0.819   3.192   4.608  0.3700 -0.1945 -0.4408
   88SLPC  H16X 8584   0.740   3.151   4.542 -0.1396  2.2533 -1.4646
   88SLPC  H16Y 8585   0.783   3.295   4.627  0.8632 -0.2267  0.7845
   88SLPC  C317 8586   0.820   3.120   4.742 -0.4331 -0.0054 -0.4358
   88SLPC  H17X 8587   0.877   3.025   4.747 -0.0059  0.3252  2.8248
   88SLPC  H17Y 8588   0.711   3.103   4.754 -0.2161 -0.2767  1.3447
   88SLPC  C318 8589   0.849   3.205   4.866  0.0047 -0.1332  1.0598
   88SLPC  H18X 8590   0.769   3.282   4.871  0.6835  0.6614  0.1247
   88SLPC  H18Y 8591   0.953   3.242   4.863  0.3252 -1.0512  0.2443
   88SLPC  H18Z 8592   0.824   3.126   4.940 -1.4782 -0.7359 -0.0215
   89SAPE     N 8593   0.906   2.557   6.597  0.1835  0.0758 -0.4032
   89SAPE   HN1 8594   0.923   2.584   6.498  0.1160 -1.0221 -0.7277
   89SAPE   HN2 8595   0.818   2.502   6.587 -0.1905 -0.3796  3.6869
   89SAPE   HN3 8596   0.889   2.642   6.654  1.1931 -1.1171  1.8116
   89SAPE   C12 8597   1.012   2.467   6.652 -0.0023 -0.7617 -0.4360
   89SAPE  H12A 8598   1.003   2.464   6.763 -1.5192  0.3796 -0.4976
   89SAPE  H12B 8599   1.108   2.518   6.628 -1.4024  1.0700 -2.4853
   89SAPE   C11 8600   1.010   2.320   6.604 -0.2925  0.3920  0.2298
   89SAPE  H11A 8601   1.090   2.260   6.653  0.0612  0.0892 -0.6990
   89SAPE  H11B 8602   1.034   2.314   6.496 -2.6540  0.7960 -0.3836
   89SAPE     P 8603   0.760   2.239   6.550 -0.0162 -0.2830  0.2492
   89SAPE   O13 8604   0.697   2.109   6.581  0.2165 -0.5978 -0.2649
   89SAPE   O14 8605   0.685   2.366   6.567  0.6026 -0.0159 -0.7098
   89SAPE   O12 8606   0.888   2.253   6.640  0.3013  0.1247  0.2522
   89SAPE   O11 8607   0.824   2.241   6.407  0.0020 -0.0153  0.1010
   89SAPE    C1 8608   0.876   2.126   6.342  0.2629  0.0660  0.6674
   89SAPE    HA 8609   0.986   2.138   6.331  0.2374  2.2873  2.2148
   89SAPE    HB 8610   0.854   2.030   6.392  0.6565 -1.1068 -1.3236
   89SAPE    C2 8611   0.819   2.120   6.193 -0.3449  0.5803 -0.5367
   89SAPE    HS 8612   0.866   2.027   6.155 -0.4230 -0.4202  1.6743
   89SAPE   O21 8613   0.844   2.239   6.112  0.5351 -0.3654  0.4270
   89SAPE   C21 8614   0.967   2.244   6.055  0.0884 -0.3929 -1.2076
   89SAPE   O22 8615   1.048   2.157   6.066 -0.0604 -0.3286 -0.1383
   89SAPE   C22 8616   0.970   2.374   5.975  0.1812 -0.1589 -0.0212
   89SAPE   H2R 8617   0.899   2.355   5.891 -0.1673 -1.0238  0.4441
   89SAPE   H2S 8618   0.932   2.457   6.038  1.1230  1.5218 -1.5875
   89SAPE    C3 8619   0.671   2.088   6.194 -0.0871 -1.0819 -0.6969
   89SAPE    HX 8620   0.615   2.178   6.229  1.0908 -1.2832  1.9341
   89SAPE    HY 8621   0.662   2.004   6.267  0.2511 -0.3302  0.2408
   89SAPE   O31 8622   0.629   2.035   6.070  0.3965 -0.0597 -0.0131
   89SAPE   C31 8623   0.518   2.072   6.021 -0.2376  0.1696  0.6023
   89SAPE   O32 8624   0.456   2.174   6.045  0.0731  0.4986 -0.1819
   89SAPE   C32 8625   0.469   1.969   5.923 -0.4311  0.1177  0.1512
   89SAPE   H2X 8626   0.523   1.873   5.938  0.4032  0.3397 -1.2418
   89SAPE   H2Y 8627   0.511   2.002   5.825  0.6448 -0.5011  0.3941
   89SAPE   C23 8628   1.116   2.420   5.925  0.2131  0.6824 -0.4081
   89SAPE   H3R 8629   1.147   2.336   5.858  5.0014 -0.0613  2.2909
   89SAPE   H3S 8630   1.177   2.414   6.018 -1.9444 -1.9534  0.9880
   89SAPE   C24 8631   1.118   2.557   5.853  0.2672  0.2650  0.5956
   89SAPE   H4R 8632   1.225   2.584   5.842  0.4446 -0.6951 -0.1581
   89SAPE   H4S 8633   1.077   2.640   5.914 -1.0084  1.5789 -1.9116
   89SAPE   C25 8634   1.050   2.574   5.721  0.0723  0.3494  0.1084
   89SAPE   H5R 8635   0.949   2.618   5.723  0.0541  0.4266 -1.5012
   89SAPE   C26 8636   1.096   2.539   5.601  0.3661  0.6610 -0.4869
   89SAPE   H6R 8637   1.032   2.555   5.514 -1.8259 -5.1380 -0.3604
   89SAPE   C27 8638   1.221   2.469   5.559 -0.4051 -0.1866 -0.5506
   89SAPE   H7R 8639   1.193   2.385   5.493 -2.1540 -0.5894  0.6267
   89SAPE   H7S 8640   1.281   2.438   5.647 -0.0603 -0.2839 -0.8223
   89SAPE   C28 8641   1.303   2.570   5.486  0.3542 -0.0293  0.0104
   89SAPE   H8R 8642   1.300   2.665   5.541 -1.6754 -0.2718  0.4264
   89SAPE   C29 8643   1.340   2.571   5.353 -0.4368  0.2962  0.0654
   89SAPE   H9R 8644   1.396   2.657   5.315  2.7647 -0.4634  2.7246
   89SAPE  C210 8645   1.338   2.452   5.258  0.2255  0.9868  0.2772
   89SAPE  H10R 8646   1.304   2.355   5.299  2.0148 -0.0984 -0.6674
   89SAPE  H10S 8647   1.442   2.420   5.234  0.5352  1.8842  0.4054
   89SAPE  C211 8648   1.252   2.481   5.138  0.4020  0.7782 -0.1386
   89SAPE  H11R 8649   1.144   2.484   5.156  0.1915  1.9028 -1.4313
   89SAPE  C212 8650   1.291   2.489   5.009 -0.5701 -0.1292  0.1280
   89SAPE  H12R 8651   1.222   2.506   4.925 -0.7341  0.9431  0.4654
   89SAPE  C213 8652   1.439   2.484   4.976  0.3442  0.3768 -0.7551
   89SAPE  H13R 8653   1.460   2.375   4.974 -2.3871 -0.2492  0.5447
   89SAPE  H13S 8654   1.488   2.525   5.067 -3.9960 -1.1842  2.6358
   89SAPE  C214 8655   1.472   2.562   4.852 -1.0692  0.0857  0.0808
   89SAPE  H14R 8656   1.494   2.669   4.861  1.7430 -0.5238  1.5538
   89SAPE  C215 8657   1.452   2.517   4.725 -0.7501 -0.4414 -0.1562
   89SAPE  H15R 8658   1.492   2.579   4.643 -0.1151 -0.1936  0.3383
   89SAPE  C216 8659   1.398   2.381   4.689  0.4199 -0.7107 -0.1104
   89SAPE  H16R 8660   1.318   2.391   4.613 -0.6325  1.4117  1.1829
   89SAPE  H16S 8661   1.347   2.349   4.782 -1.4653  2.3360  0.0401
   89SAPE  C217 8662   1.502   2.278   4.651  0.1291  0.1168 -0.0473
   89SAPE  H17R 8663   1.582   2.274   4.728  0.3146 -1.8937 -0.2880
   89SAPE  H17S 8664   1.541   2.305   4.550  2.6388  2.2810  1.4008
   89SAPE  C218 8665   1.436   2.142   4.634  0.4176  0.6484  0.3606
   89SAPE  H18R 8666   1.331   2.149   4.596  0.7103 -1.7359 -1.0835
   89SAPE  H18S 8667   1.438   2.090   4.732 -0.6497 -1.4161 -0.6475
   89SAPE  C219 8668   1.511   2.054   4.538  0.0776  0.6889 -0.2061
   89SAPE  H19R 8669   1.619   2.048   4.562 -0.3659 -1.6659  1.5784
   89SAPE  H19S 8670   1.508   2.101   4.437  1.6177  0.2863 -0.4628
   89SAPE  C220 8671   1.451   1.911   4.534 -0.2342  0.3552  0.0743
   89SAPE  H20R 8672   1.486   1.848   4.618  0.2099  1.2172  0.5511
   89SAPE  H20S 8673   1.475   1.856   4.440 -0.1865 -1.0821  0.9030
   89SAPE  H20T 8674   1.340   1.912   4.535 -0.2773 -0.5666  2.2301
   89SAPE   C33 8675   0.311   1.973   5.893 -0.0738 -0.1958  0.1798
   89SAPE   H3X 8676   0.283   2.075   5.858 -2.5167 -0.8237  0.1661
   89SAPE   H3Y 8677   0.259   1.971   5.991 -1.7892 -2.2813 -0.7165
   89SAPE   C34 8678   0.247   1.869   5.803 -0.3897  0.1025 -0.2981
   89SAPE   H4X 8679   0.138   1.891   5.800 -0.6148 -0.8943  0.1671
   89SAPE   H4Y 8680   0.267   1.774   5.857 -1.0079 -0.0746 -0.3791
   89SAPE   C35 8681   0.327   1.848   5.673  0.2914 -0.1516 -0.0999
   89SAPE   H5X 8682   0.423   1.804   5.706  1.5571  0.8407 -2.1997
   89SAPE   H5Y 8683   0.362   1.949   5.642  0.5916  0.3779  1.8482
   89SAPE   C36 8684   0.228   1.808   5.571  0.5600 -0.5835  0.8962
   89SAPE   H6X 8685   0.145   1.882   5.570  0.8541 -0.0834  3.8658
   89SAPE   H6Y 8686   0.184   1.711   5.603 -1.1950 -0.1190 -0.0047
   89SAPE   C37 8687   0.284   1.807   5.423  0.9660  0.4878 -0.0459
   89SAPE   H7X 8688   0.381   1.753   5.433  0.0070 -1.2186  0.5575
   89SAPE   H7Y 8689   0.296   1.913   5.391  1.3541  1.2753  2.5126
   89SAPE   C38 8690   0.192   1.724   5.328 -0.9416 -0.1859 -0.2998
   89SAPE   H8X 8691   0.099   1.778   5.303 -1.5514 -0.5439  1.1148
   89SAPE   H8Y 8692   0.169   1.628   5.379 -0.9200 -1.6831 -2.9387
   89SAPE   C39 8693   0.270   1.682   5.199 -0.2393  0.5133  0.1284
   89SAPE   H9X 8694   0.368   1.634   5.217  0.4357  0.8131 -2.4399
   89SAPE   H9Y 8695   0.300   1.782   5.162 -2.8949  0.6397 -2.0054
   89SAPE  C310 8696   0.174   1.610   5.103 -0.4434 -0.5122  0.8257
   89SAPE  H10X 8697   0.080   1.670   5.101 -0.5270 -0.6554  0.0879
   89SAPE  H10Y 8698   0.157   1.507   5.141  1.2016 -1.3185 -0.5041
   89SAPE  C311 8699   0.221   1.586   4.957 -0.4245  0.3825 -0.1730
   89SAPE  H11X 8700   0.314   1.527   4.944 -2.3344 -2.8037 -0.5382
   89SAPE  H11Y 8701   0.242   1.683   4.907  1.8902 -1.1596 -2.4835
   89SAPE  C312 8702   0.109   1.513   4.878 -0.6183 -0.3694  0.1232
   89SAPE  H12X 8703   0.015   1.510   4.938 -0.4458 -1.8637  0.3689
   89SAPE  H12Y 8704   0.157   1.413   4.887  1.8058  0.7180  0.0876
   89SAPE  C313 8705   0.096   1.558   4.729 -0.3101 -0.8085 -0.5658
   89SAPE  H13X 8706   0.197   1.584   4.690 -0.0436  1.2269  1.2775
   89SAPE  H13Y 8707   0.050   1.659   4.726 -1.5650 -1.3731 -1.4013
   89SAPE  C314 8708   0.006   1.472   4.638 -0.4187 -0.1288  0.4593
   89SAPE  H14X 8709  -0.022   1.539   4.554  3.0510 -0.0260 -0.7854
   89SAPE  H14Y 8710  -0.086   1.458   4.699 -1.8325  3.0269 -0.7025
   89SAPE  C315 8711   0.068   1.342   4.578  0.9657 -0.1748  0.0906
   89SAPE  H15X 8712   0.084   1.278   4.667 -2.1844  0.1206  1.0078
   89SAPE  H15Y 8713   0.163   1.364   4.525  0.9764  4.3254  1.5536
   89SAPE  C316 8714  -0.032   1.272   4.478  0.1875 -0.0189 -0.2142
   89SAPE  H16X 8715   0.021   1.183   4.437  0.4983 -1.0354  2.2511
   89SAPE  H16Y 8716  -0.052   1.345   4.396 -0.0574  0.6594  0.4323
   89SAPE  C317 8717  -0.167   1.235   4.538  0.3522  0.3536 -0.6943
   89SAPE  H17X 8718  -0.234   1.323   4.532  1.2410  1.0321 -0.7841
   89SAPE  H17Y 8719  -0.147   1.197   4.640 -2.4168 -0.1288 -0.2596
   89SAPE  C318 8720  -0.249   1.126   4.471  0.6659 -0.0828 -0.3075
   89SAPE  H18X 8721  -0.213   1.022   4.454  0.4005  0.1510 -2.6288
   89SAPE  H18Y 8722  -0.291   1.160   4.374 -1.5497 -1.0045  0.2536
   89SAPE  H18Z 8723  -0.344   1.108   4.526  0.5785  1.9896  0.2910
   90SAPE     N 8724   4.036   2.426   6.904 -0.3211 -0.4748  0.1419
   90SAPE   HN1 8725   3.971   2.396   6.828  0.2834  0.3771 -0.7287
   90SAPE   HN2 8726   4.057   2.525   6.883 -0.6943 -0.8008 -1.9797
   90SAPE   HN3 8727   4.129   2.379   6.909  1.5774  2.9690  0.1452
   90SAPE   C12 8728   3.971   2.408   7.037 -0.9177  0.2442 -0.2724
   90SAPE  H12A 8729   3.899   2.325   7.021  0.9874 -2.0072  2.0480
   90SAPE  H12B 8730   3.920   2.503   7.063  0.8949  1.2766 -0.3107
   90SAPE   C11 8731   4.068   2.379   7.151 -0.9647 -0.3211  0.4370
   90SAPE  H11A 8732   4.007   2.378   7.244 -2.4382 -0.4848 -0.4842
   90SAPE  H11B 8733   4.142   2.461   7.163 -2.7924  1.1939  2.1143
   90SAPE     P 8734   4.275   2.225   7.073  0.4627 -0.0099 -0.0799
   90SAPE   O13 8735   4.372   2.285   7.175 -0.5043 -0.7207  0.1543
   90SAPE   O14 8736   4.289   2.083   7.038  0.0908 -0.2523  0.1335
   90SAPE   O12 8737   4.127   2.252   7.126 -0.0792 -0.2041 -1.2709
   90SAPE   O11 8738   4.277   2.314   6.936  0.8211 -0.8290 -0.2581
   90SAPE    C1 8739   4.362   2.428   6.925 -0.0175 -0.7878 -0.6813
   90SAPE    HA 8740   4.312   2.523   6.953 -1.0872 -1.4801 -0.1456
   90SAPE    HB 8741   4.464   2.412   6.964 -0.3988 -1.4263  0.0902
   90SAPE    C2 8742   4.401   2.434   6.771  0.5316 -0.0370  0.5768
   90SAPE    HS 8743   4.315   2.471   6.710  0.1563 -0.5235  0.8061
   90SAPE   O21 8744   4.444   2.301   6.732  0.0523 -0.0224 -0.0056
   90SAPE   C21 8745   4.358   2.228   6.668 -0.2844 -0.4853 -0.0537
   90SAPE   O22 8746   4.239   2.259   6.648 -0.5947 -0.0499 -0.3726
   90SAPE   C22 8747   4.432   2.100   6.636  0.4914 -0.0287 -0.4551
   90SAPE   H2R 8748   4.539   2.104   6.667 -0.0617 -4.0372  2.7859
   90SAPE   H2S 8749   4.379   2.020   6.691 -1.1233  0.2615 -1.5176
   90SAPE    C3 8750   4.511   2.546   6.746  0.0009 -0.1745 -0.1208
   90SAPE    HX 8751   4.600   2.513   6.804 -1.6753 -0.9921  2.1102
   90SAPE    HY 8752   4.476   2.645   6.781  0.3082  1.0193 -2.9239
   90SAPE   O31 8753   4.533   2.568   6.611 -0.1678 -0.5619  0.1359
   90SAPE   C31 8754   4.631   2.494   6.548 -0.3923 -0.3794 -0.4431
   90SAPE   O32 8755   4.708   2.421   6.603  0.2511  0.1050 -0.5760
   90SAPE   C32 8756   4.622   2.492   6.399 -0.2972 -1.0887 -0.1677
   90SAPE   H2X 8757   4.668   2.397   6.363  2.8360  0.1512  0.2010
   90SAPE   H2Y 8758   4.677   2.571   6.344 -3.7074  1.1758 -0.6037
   90SAPE   C23 8759   4.434   2.055   6.491 -0.1280  0.2848  0.9441
   90SAPE   H3R 8760   4.479   2.139   6.433 -1.2331  0.2442 -0.0278
   90SAPE   H3S 8761   4.330   2.033   6.457 -0.3503  2.0726  0.4033
   90SAPE   C24 8762   4.515   1.926   6.469  1.0624  0.0008  0.0746
   90SAPE   H4R 8763   4.499   1.888   6.366 -1.7349  0.0242  0.4228
   90SAPE   H4S 8764   4.462   1.851   6.531 -1.5426  1.5395 -0.1222
   90SAPE   C25 8765   4.664   1.944   6.493 -0.5733 -0.0855  0.8207
   90SAPE   H5R 8766   4.695   1.907   6.592  0.8685  1.4648  0.9960
   90SAPE   C26 8767   4.753   1.975   6.396  0.6218 -0.7687  0.3992
   90SAPE   H6R 8768   4.859   1.994   6.414  0.5204  0.1880  0.0086
   90SAPE   C27 8769   4.718   2.032   6.258  0.0283  0.7061  0.1634
   90SAPE   H7R 8770   4.793   2.111   6.233  1.7048 -1.4694 -2.1013
   90SAPE   H7S 8771   4.615   2.073   6.258  0.7583  2.6827  0.8363
   90SAPE   C28 8772   4.734   1.921   6.154 -0.0035 -0.2664 -0.4511
   90SAPE   H8R 8773   4.738   1.815   6.180 -2.0461 -0.4677 -0.8186
   90SAPE   C29 8774   4.747   1.942   6.020 -0.3536  0.0472  0.0496
   90SAPE   H9R 8775   4.753   1.848   5.963 -0.2548 -2.4077  3.7852
   90SAPE  C210 8776   4.756   2.076   5.941 -0.0893  0.7248  0.4802
   90SAPE  H10R 8777   4.853   2.079   5.888  0.1546  0.6699  0.9154
   90SAPE  H10S 8778   4.765   2.161   6.011 -0.3795  1.2186 -0.0729
   90SAPE  C211 8779   4.635   2.094   5.848  0.1327  0.4426 -0.3423
   90SAPE  H11R 8780   4.543   2.148   5.875 -0.1429  0.9144 -2.0581
   90SAPE  C212 8781   4.633   2.044   5.719 -0.2379 -0.4608  0.1213
   90SAPE  H12R 8782   4.545   2.047   5.654  0.4423 -1.1673 -0.8575
   90SAPE  C213 8783   4.734   1.959   5.647 -0.8525 -0.1569  0.0212
   90SAPE  H13R 8784   4.679   1.919   5.560 -0.5327  1.7120 -1.1102
   90SAPE  H13S 8785   4.761   1.867   5.702 -2.0427 -0.1785  0.5860
   90SAPE  C214 8786   4.856   2.032   5.612  0.1104 -0.6306  0.2422
   90SAPE  H14R 8787   4.928   2.046   5.694 -0.0267 -1.6934  0.5533
   90SAPE  C215 8788   4.903   2.061   5.490  0.4206 -0.0020  0.0546
   90SAPE  H15R 8789   4.998   2.116   5.487 -0.2220  1.2093  0.7394
   90SAPE  C216 8790   4.841   2.041   5.345 -1.0907 -0.1514 -0.1309
   90SAPE  H16R 8791   4.850   2.131   5.281  0.9585 -0.8579 -0.9334
   90SAPE  H16S 8792   4.735   2.021   5.368 -0.9208  0.0572  0.8595
   90SAPE  C217 8793   4.904   1.933   5.259 -0.0578 -0.1129 -0.2960
   90SAPE  H17R 8794   4.919   1.843   5.324  0.3880 -0.5737 -1.0246
   90SAPE  H17S 8795   5.001   1.975   5.227 -0.4292  1.4371  0.5452
   90SAPE  C218 8796   4.825   1.894   5.133  0.3313 -0.1066 -0.0186
   90SAPE  H18R 8797   4.739   1.828   5.156 -0.0461 -0.7637 -2.9946
   90SAPE  H18S 8798   4.896   1.841   5.066  0.1841 -1.1858  0.6478
   90SAPE  C219 8799   4.772   2.020   5.054 -0.2740 -0.4975 -1.2434
   90SAPE  H19R 8800   4.864   2.081   5.036 -0.0867 -0.6453 -0.8076
   90SAPE  H19S 8801   4.704   2.075   5.122  2.4036  0.8092  0.5511
   90SAPE  C220 8802   4.703   1.988   4.923 -0.3477 -0.2307  0.2939
   90SAPE  H20R 8803   4.598   1.958   4.943 -1.0687 -0.3840 -3.0979
   90SAPE  H20S 8804   4.753   1.897   4.883 -0.7883 -0.4085  0.1408
   90SAPE  H20T 8805   4.719   2.077   4.859  1.9918 -0.1271  0.9233
   90SAPE   C33 8806   4.479   2.495   6.346  0.5795  0.2105  0.4807
   90SAPE   H3X 8807   4.437   2.598   6.350 -1.8649 -0.5860 -1.5625
   90SAPE   H3Y 8808   4.404   2.422   6.383 -1.1727  0.1130 -2.8656
   90SAPE   C34 8809   4.475   2.451   6.197 -0.9118 -0.1266 -0.3092
   90SAPE   H4X 8810   4.503   2.344   6.188 -1.5501 -0.1819 -2.0764
   90SAPE   H4Y 8811   4.547   2.509   6.135  2.0856 -2.9638  0.2444
   90SAPE   C35 8812   4.341   2.463   6.135 -1.0054  0.2727  0.2051
   90SAPE   H5X 8813   4.295   2.565   6.133 -2.3594 -0.3044  0.7805
   90SAPE   H5Y 8814   4.270   2.407   6.199  0.7344 -1.2637  0.8907
   90SAPE   C36 8815   4.343   2.391   5.993 -0.3617  0.3028 -0.1865
   90SAPE   H6X 8816   4.243   2.354   5.962  0.7888 -2.5593 -0.7819
   90SAPE   H6Y 8817   4.421   2.312   5.995  0.8001  1.4149 -0.0472
   90SAPE   C37 8818   4.371   2.490   5.880 -0.1937 -0.3137  0.2879
   90SAPE   H7X 8819   4.473   2.534   5.887  0.4244 -1.5865 -0.4207
   90SAPE   H7Y 8820   4.302   2.576   5.896  1.6209  1.2686  0.1047
   90SAPE   C38 8821   4.353   2.427   5.740  0.0160 -0.0319  0.2486
   90SAPE   H8X 8822   4.256   2.375   5.729 -0.6939  1.4659 -0.9411
   90SAPE   H8Y 8823   4.432   2.352   5.715 -0.5174  0.5447 -4.0007
   90SAPE   C39 8824   4.354   2.519   5.614  0.2176  0.2157  0.4096
   90SAPE   H9X 8825   4.448   2.577   5.609 -0.3391  1.1021  0.0425
   90SAPE   H9Y 8826   4.262   2.581   5.615  0.1463  0.1410 -0.5701
   90SAPE  C310 8827   4.341   2.454   5.477  0.2492 -0.2580  0.6643
   90SAPE  H10X 8828   4.255   2.386   5.488  0.1691  0.0276  1.9530
   90SAPE  H10Y 8829   4.427   2.387   5.455 -0.2215 -0.6729  0.0706
   90SAPE  C311 8830   4.314   2.549   5.369  0.1519  0.1896  0.1408
   90SAPE  H11X 8831   4.392   2.626   5.356  1.2142 -0.8716  0.0101
   90SAPE  H11Y 8832   4.226   2.606   5.405 -1.4417 -2.3165  0.4951
   90SAPE  C312 8833   4.282   2.487   5.229  0.2190 -0.7077  0.0577
   90SAPE  H12X 8834   4.181   2.440   5.235 -1.3862  2.2705 -1.1988
   90SAPE  H12Y 8835   4.356   2.406   5.213 -0.1335 -1.4995  2.0927
   90SAPE  C313 8836   4.287   2.595   5.115 -0.3134  0.7257  0.0023
   90SAPE  H13X 8837   4.383   2.650   5.121 -0.0460  0.0850  2.7220
   90SAPE  H13Y 8838   4.200   2.660   5.138 -0.0919  0.8919  0.3696
   90SAPE  C314 8839   4.264   2.536   4.973 -0.2873 -0.2374  0.0511
   90SAPE  H14X 8840   4.160   2.496   4.971  0.3159 -1.9010 -2.3039
   90SAPE  H14Y 8841   4.328   2.446   4.967  3.0558  1.7571  2.4462
   90SAPE  C315 8842   4.294   2.641   4.862  0.1699 -0.0276 -1.0716
   90SAPE  H15X 8843   4.295   2.580   4.769 -1.0987  0.3302 -1.3418
   90SAPE  H15Y 8844   4.392   2.687   4.884 -1.1436  1.6965  1.7142
   90SAPE  C316 8845   4.195   2.759   4.851  0.4948  0.4210 -0.3485
   90SAPE  H16X 8846   4.175   2.803   4.950  0.3140 -2.1435  0.8450
   90SAPE  H16Y 8847   4.093   2.720   4.832 -1.0057  3.1335  1.5357
   90SAPE  C317 8848   4.225   2.858   4.732 -0.1886  0.7511 -0.0676
   90SAPE  H17X 8849   4.214   2.805   4.635 -1.3328  1.2990 -0.2530
   90SAPE  H17Y 8850   4.332   2.882   4.748  0.2901 -0.5308 -1.1227
   90SAPE  C318 8851   4.138   2.979   4.736 -0.4155  0.0953 -0.3884
   90SAPE  H18X 8852   4.170   3.039   4.823 -1.6158  1.1196 -0.6337
   90SAPE  H18Y 8853   4.034   2.959   4.770 -0.4293 -0.7419 -0.8819
   90SAPE  H18Z 8854   4.132   3.045   4.647 -1.4578 -0.7948 -1.0088
   91SAPE     N 8855   0.615   5.413   6.642  0.3414 -0.0350  0.1240
   91SAPE   HN1 8856   0.563   5.500   6.618  1.9005  0.6655 -0.8663
   91SAPE   HN2 8857   0.570   5.367   6.724  0.1206  0.3102  0.1977
   91SAPE   HN3 8858   0.714   5.431   6.665  0.2328 -0.4348  0.9608
   91SAPE   C12 8859   0.586   5.320   6.528 -0.5084 -0.0563  0.4246
   91SAPE  H12A 8860   0.677   5.284   6.476  0.7775 -0.4429  2.8423
   91SAPE  H12B 8861   0.517   5.379   6.464  0.3251  1.9327  1.2690
   91SAPE   C11 8862   0.519   5.187   6.586  0.3701  0.8161  0.6585
   91SAPE  H11A 8863   0.492   5.130   6.494  3.6030  0.8310 -0.4153
   91SAPE  H11B 8864   0.423   5.215   6.634  0.3082  1.2078  0.3171
   91SAPE     P 8865   0.686   4.983   6.631 -0.1774  0.2561 -0.1441
   91SAPE   O13 8866   0.827   4.993   6.675 -0.0424  0.0606 -0.1237
   91SAPE   O14 8867   0.613   4.864   6.684  0.5164 -0.0058 -0.2245
   91SAPE   O12 8868   0.605   5.114   6.674 -0.3713 -0.1295  0.2285
   91SAPE   O11 8869   0.683   4.981   6.470  0.5162  0.3283 -0.7711
   91SAPE    C1 8870   0.790   4.924   6.398 -0.0455  0.3706 -0.4383
   91SAPE    HA 8871   0.883   4.925   6.459 -0.2230  0.4229 -0.1644
   91SAPE    HB 8872   0.774   4.823   6.354 -0.6835  1.3019 -2.4838
   91SAPE    C2 8873   0.804   5.012   6.275 -0.2694  0.8615 -0.4599
   91SAPE    HS 8874   0.883   4.964   6.213  0.4712  2.5712 -0.9206
   91SAPE   O21 8875   0.839   5.147   6.309 -0.0295  0.1936 -0.2738
   91SAPE   C21 8876   0.959   5.176   6.342  0.8712  0.0447 -0.1661
   91SAPE   O22 8877   1.054   5.099   6.341  0.6509 -0.5101  0.1049
   91SAPE   C22 8878   0.961   5.332   6.339 -1.0568  0.1349  0.6711
   91SAPE   H2R 8879   0.881   5.354   6.265  1.0616 -1.4615 -2.3004
   91SAPE   H2S 8880   0.929   5.355   6.443 -2.6880  1.3449 -0.0468
   91SAPE    C3 8881   0.671   5.006   6.204 -0.4233 -0.3075  0.6787
   91SAPE    HX 8882   0.602   5.077   6.256  1.2523  1.5232  0.4888
   91SAPE    HY 8883   0.634   4.902   6.214 -0.4464 -0.3065  0.6059
   91SAPE   O31 8884   0.693   5.039   6.064 -0.0347  0.4841  0.0133
   91SAPE   C31 8885   0.578   5.059   5.993  0.3109  0.8510  0.3034
   91SAPE   O32 8886   0.465   5.049   6.034  0.3670  0.3013  0.0694
   91SAPE   C32 8887   0.602   5.074   5.846  0.0173  0.5768 -0.1956
   91SAPE   H2X 8888   0.619   4.972   5.807 -0.0743  0.0814  1.0218
   91SAPE   H2Y 8889   0.689   5.143   5.837  0.2353  0.3477  0.1364
   91SAPE   C23 8890   1.102   5.401   6.318  0.7516  0.4417  0.2169
   91SAPE   H3R 8891   1.165   5.356   6.398  0.0805  0.5946  0.8408
   91SAPE   H3S 8892   1.079   5.507   6.343 -2.9949 -0.1182 -0.2552
   91SAPE   C24 8893   1.162   5.390   6.177  0.9294  0.1901  0.2912
   91SAPE   H4R 8894   1.192   5.285   6.156  1.8094  1.1491 -4.2904
   91SAPE   H4S 8895   1.249   5.458   6.177 -0.4636  2.0599  0.1556
   91SAPE   C25 8896   1.052   5.434   6.072  0.3047  0.9879 -0.2513
   91SAPE   H5R 8897   1.000   5.529   6.092 -1.0313 -0.1936  2.3721
   91SAPE   C26 8898   1.028   5.371   5.957  0.1389 -0.5627  0.3123
   91SAPE   H6R 8899   0.951   5.414   5.891  2.7831  2.1819 -1.2668
   91SAPE   C27 8900   1.088   5.248   5.893 -0.6513  0.0267  0.2589
   91SAPE   H7R 8901   1.156   5.198   5.965 -0.3317  2.0524  1.4597
   91SAPE   H7S 8902   1.159   5.288   5.818 -0.5106 -0.4823  0.1248
   91SAPE   C28 8903   0.993   5.162   5.820  0.2019  0.3345 -0.2943
   91SAPE   H8R 8904   0.932   5.099   5.886  1.0335  0.5965  0.7378
   91SAPE   C29 8905   0.960   5.152   5.693  0.2755 -0.1216  0.7730
   91SAPE   H9R 8906   0.896   5.073   5.651 -0.4657  0.3039  1.0875
   91SAPE  C210 8907   1.033   5.233   5.593 -0.3384  0.2341 -0.7812
   91SAPE  H10R 8908   1.140   5.201   5.597 -0.6432 -0.7433  0.4108
   91SAPE  H10S 8909   1.052   5.339   5.622 -0.7035  0.3656 -1.0201
   91SAPE  C211 8910   0.971   5.239   5.457  0.0152  0.6241  0.6762
   91SAPE  H11R 8911   0.875   5.286   5.433 -0.9630 -1.4529  0.2993
   91SAPE  C212 8912   1.016   5.164   5.355 -0.4490 -0.2774  0.2870
   91SAPE  H12R 8913   0.959   5.181   5.262 -0.1581  2.4849  0.5182
   91SAPE  C213 8914   1.142   5.087   5.343  0.0114  0.2999  0.4067
   91SAPE  H13R 8915   1.214   5.098   5.427  0.3825 -1.9128  0.4395
   91SAPE  H13S 8916   1.206   5.122   5.259 -0.2396  0.0459  0.1087
   91SAPE  C214 8917   1.102   4.940   5.328  0.1697 -0.4534  0.7625
   91SAPE  H14R 8918   1.022   4.903   5.394 -0.9671  0.1200 -0.2583
   91SAPE  C215 8919   1.148   4.856   5.238  0.2959 -0.0735 -0.1070
   91SAPE  H15R 8920   1.102   4.756   5.234 -0.4765  0.2177  0.9789
   91SAPE  C216 8921   1.268   4.871   5.141 -0.2879  0.5500 -0.7484
   91SAPE  H16R 8922   1.320   4.773   5.149 -2.2441 -0.7505 -2.8948
   91SAPE  H16S 8923   1.340   4.950   5.171  0.4831 -0.6983  0.8983
   91SAPE  C217 8924   1.231   4.888   4.992 -0.0266 -0.4451 -0.5621
   91SAPE  H17R 8925   1.312   4.932   4.931 -0.5379  3.1931  1.1368
   91SAPE  H17S 8926   1.151   4.965   4.990 -0.9218 -1.2464  1.3854
   91SAPE  C218 8927   1.193   4.759   4.925 -0.5253  0.3469  0.8844
   91SAPE  H18R 8928   1.100   4.728   4.978 -1.1128  1.0727  0.3117
   91SAPE  H18S 8929   1.279   4.689   4.930 -0.0837  0.8426  0.3282
   91SAPE  C219 8930   1.178   4.782   4.772 -0.2278 -0.4651 -0.4505
   91SAPE  H19R 8931   1.195   4.683   4.724  3.5055  0.3223 -1.0975
   91SAPE  H19S 8932   1.268   4.841   4.744 -0.5205 -0.7249 -2.0024
   91SAPE  C220 8933   1.052   4.850   4.731  0.2499  0.5333 -0.3741
   91SAPE  H20R 8934   1.055   4.954   4.769  2.2076  0.5314 -0.4295
   91SAPE  H20S 8935   0.968   4.795   4.779 -0.8836  1.8427 -0.7971
   91SAPE  H20T 8936   1.031   4.847   4.621 -1.8548 -1.6843 -0.0071
   91SAPE   C33 8937   0.491   5.138   5.769 -0.2763 -0.2319 -0.7887
   91SAPE   H3X 8938   0.457   5.237   5.808  0.8920 -0.8415  1.9736
   91SAPE   H3Y 8939   0.398   5.078   5.760  0.6478 -2.1289  1.5779
   91SAPE   C34 8940   0.547   5.172   5.632  0.2124 -0.6710  0.1068
   91SAPE   H4X 8941   0.573   5.078   5.580 -0.0266 -1.4706  1.3701
   91SAPE   H4Y 8942   0.642   5.228   5.644 -0.0915  0.1334 -1.0850
   91SAPE   C35 8943   0.450   5.249   5.546  0.0338 -0.4502  0.5581
   91SAPE   H5X 8944   0.421   5.342   5.600 -1.5559 -0.3409 -0.4224
   91SAPE   H5Y 8945   0.360   5.187   5.530  0.5685 -1.2923  0.7577
   91SAPE   C36 8946   0.514   5.286   5.407  0.7336  0.1000 -0.2860
   91SAPE   H6X 8947   0.525   5.199   5.338  0.3244 -0.8387  0.7923
   91SAPE   H6Y 8948   0.618   5.318   5.430 -0.1014  1.0543  2.6850
   91SAPE   C37 8949   0.437   5.390   5.328 -0.3086  0.8611 -0.2655
   91SAPE   H7X 8950   0.331   5.359   5.321 -0.0112 -0.2878  0.1968
   91SAPE   H7Y 8951   0.474   5.395   5.224  0.8002  2.1726  0.1591
   91SAPE   C38 8952   0.450   5.528   5.385 -0.4865 -0.1349 -0.3638
   91SAPE   H8X 8953   0.556   5.562   5.393 -0.6669  0.0392  1.8907
   91SAPE   H8Y 8954   0.390   5.532   5.478  0.0869  1.5868 -0.0288
   91SAPE   C39 8955   0.397   5.649   5.300  0.1998  0.0875 -0.7198
   91SAPE   H9X 8956   0.419   5.746   5.351 -2.4097  1.0682 -1.2874
   91SAPE   H9Y 8957   0.286   5.640   5.301  0.1338  0.8651  0.0760
   91SAPE  C310 8958   0.445   5.655   5.149 -0.3386  0.2370 -0.6022
   91SAPE  H10X 8959   0.382   5.722   5.087  1.0213  1.9728 -0.2005
   91SAPE  H10Y 8960   0.449   5.552   5.109  0.5339 -1.5811  3.6804
   91SAPE  C311 8961   0.588   5.721   5.139 -0.0347  0.4761  0.7966
   91SAPE  H11X 8962   0.650   5.664   5.211  0.4306 -0.5030 -0.3305
   91SAPE  H11Y 8963   0.587   5.829   5.164 -0.9891  1.7043 -3.6539
   91SAPE  C312 8964   0.652   5.722   4.998 -1.0744 -0.0054 -0.3048
   91SAPE  H12X 8965   0.640   5.617   4.965 -0.6566 -0.1426 -0.0344
   91SAPE  H12Y 8966   0.763   5.725   4.996 -1.0723  0.2677 -2.3814
   91SAPE  C313 8967   0.610   5.826   4.897 -0.3663 -0.2549 -0.2672
   91SAPE  H13X 8968   0.500   5.843   4.893 -0.2568  1.9204  2.6477
   91SAPE  H13Y 8969   0.644   5.797   4.795  0.9547 -0.6687  0.2791
   91SAPE  C314 8970   0.686   5.957   4.923  0.8092  0.1988  0.3200
   91SAPE  H14X 8971   0.794   5.930   4.919  1.0127  1.0132  0.3123
   91SAPE  H14Y 8972   0.660   5.998   5.023 -1.5106 -2.5431  1.0019
   91SAPE  C315 8973   0.672   6.061   4.810 -0.2676 -0.1186 -0.0017
   91SAPE  H15X 8974   0.672   6.012   4.710 -1.9898  1.1693 -0.7046
   91SAPE  H15Y 8975   0.761   6.127   4.814  0.9753 -1.7941  1.5466
   91SAPE  C316 8976   0.558   6.152   4.829  0.1745  0.2828  0.3102
   91SAPE  H16X 8977   0.577   6.220   4.915 -0.1366  2.3538 -1.1788
   91SAPE  H16Y 8978   0.463   6.099   4.849 -1.0054  1.3469 -2.0257
   91SAPE  C317 8979   0.547   6.251   4.717  0.0730  0.2231 -0.0259
   91SAPE  H17X 8980   0.543   6.193   4.622  0.1151  1.0525 -0.5509
   91SAPE  H17Y 8981   0.640   6.312   4.719  2.0855 -2.3772 -3.2304
   91SAPE  C318 8982   0.418   6.330   4.729  0.5846 -0.9296  0.1118
   91SAPE  H18X 8983   0.440   6.428   4.682 -1.7101 -1.0576 -1.3790
   91SAPE  H18Y 8984   0.404   6.354   4.836  0.7630  0.8967 -0.2386
   91SAPE  H18Z 8985   0.327   6.281   4.688 -0.0616  0.3659 -0.0565
   92SAPE     N 8986   1.925   3.644   6.697 -0.3451  0.4905 -0.2849
   92SAPE   HN1 8987   1.957   3.696   6.782  1.9362 -0.8201 -0.2641
   92SAPE   HN2 8988   2.003   3.624   6.632  0.3331  1.7968  0.0999
   92SAPE   HN3 8989   1.854   3.708   6.655 -0.0001  1.5099  0.6291
   92SAPE   C12 8990   1.850   3.521   6.739 -0.0334  0.2527 -0.6786
   92SAPE  H12A 8991   1.851   3.517   6.850  0.3607 -1.9234 -0.7153
   92SAPE  H12B 8992   1.893   3.431   6.692  0.6978  1.4084 -2.3050
   92SAPE   C11 8993   1.697   3.514   6.701  0.0691  0.0262 -0.3049
   92SAPE  H11A 8994   1.650   3.426   6.749  0.4570  0.7699  1.5486
   92SAPE  H11B 8995   1.693   3.510   6.590  0.9240 -0.0474 -0.3366
   92SAPE     P 8996   1.475   3.656   6.707 -0.1434 -0.2178  0.5668
   92SAPE   O13 8997   1.397   3.533   6.742 -0.4250  0.0066 -0.2376
   92SAPE   O14 8998   1.423   3.783   6.755  0.1334 -0.0492  0.3478
   92SAPE   O12 8999   1.626   3.634   6.743 -0.4168  0.4018 -0.3931
   92SAPE   O11 9000   1.479   3.668   6.547 -0.7928 -0.2798 -0.8264
   92SAPE    C1 9001   1.415   3.567   6.470  0.0920  0.3581 -0.1373
   92SAPE    HA 9002   1.470   3.554   6.375 -2.4835 -0.1005 -1.6582
   92SAPE    HB 9003   1.422   3.466   6.515  1.7648  0.3370 -0.3822
   92SAPE    C2 9004   1.269   3.599   6.442 -0.0966  0.8158  0.3094
   92SAPE    HS 9005   1.214   3.592   6.539  1.7413 -0.5170  1.3277
   92SAPE   O21 9006   1.234   3.501   6.344 -0.2428 -0.5589 -0.3067
   92SAPE   C21 9007   1.209   3.379   6.385  0.2390  0.8633  0.2617
   92SAPE   O22 9008   1.207   3.342   6.504  0.7577 -0.2832  0.4424
   92SAPE   C22 9009   1.161   3.296   6.267 -0.6452 -0.3355  1.1904
   92SAPE   H2R 9010   1.050   3.302   6.272 -0.9761 -2.0851 -1.7558
   92SAPE   H2S 9011   1.206   3.347   6.179  0.4797 -1.7935  0.8835
   92SAPE    C3 9012   1.249   3.744   6.387 -0.4140 -0.1180 -0.0619
   92SAPE    HX 9013   1.293   3.819   6.456  1.1615 -0.5035 -0.6095
   92SAPE    HY 9014   1.140   3.764   6.379 -0.0895  1.9926  0.1413
   92SAPE   O31 9015   1.308   3.749   6.255 -0.0561 -0.1287 -0.2837
   92SAPE   C31 9016   1.352   3.873   6.220  0.2065  0.3892 -0.1553
   92SAPE   O32 9017   1.346   3.971   6.293 -0.1845  0.9460 -0.4669
   92SAPE   C32 9018   1.418   3.876   6.080 -0.0306  0.5137  0.0322
   92SAPE   H2X 9019   1.415   3.772   6.041  2.3779  0.9236 -1.4396
   92SAPE   H2Y 9020   1.524   3.903   6.098  0.5877 -0.6716 -1.5268
   92SAPE   C23 9021   1.198   3.149   6.276  0.2476  0.4418 -1.2964
   92SAPE   H3R 9022   1.136   3.102   6.355  0.8601  0.8357 -0.5737
   92SAPE   H3S 9023   1.299   3.132   6.319  0.1078  1.2284 -0.6340
   92SAPE   C24 9024   1.194   3.083   6.141 -0.5047  0.0141  0.7434
   92SAPE   H4R 9025   1.260   3.140   6.071  0.2819 -1.0893  0.5544
   92SAPE   H4S 9026   1.097   3.109   6.094  0.7634  1.3407 -1.3569
   92SAPE   C25 9027   1.223   2.936   6.151  0.2400 -0.1223  0.1970
   92SAPE   H5R 9028   1.183   2.882   6.238 -1.9512 -1.0701 -1.3100
   92SAPE   C26 9029   1.280   2.861   6.055  0.5370  0.2226 -0.0102
   92SAPE   H6R 9030   1.297   2.755   6.079 -0.7753 -0.5121 -2.0305
   92SAPE   C27 9031   1.330   2.910   5.918 -0.6888 -0.6076 -0.2439
   92SAPE   H7R 9032   1.420   2.849   5.897  0.3008 -0.7701  3.6601
   92SAPE   H7S 9033   1.364   3.016   5.921 -0.9226 -0.5516  1.5034
   92SAPE   C28 9034   1.216   2.899   5.813 -0.4376  1.0453  0.0497
   92SAPE   H8R 9035   1.120   2.864   5.855  1.7014 -3.6007  1.8052
   92SAPE   C29 9036   1.243   2.900   5.678 -0.3579 -0.3118 -0.7147
   92SAPE   H9R 9037   1.147   2.889   5.625 -0.9036 -0.2373  0.2222
   92SAPE  C210 9038   1.362   2.951   5.604  0.3465  0.3775 -0.1293
   92SAPE  H10R 9039   1.409   2.860   5.561 -2.3600 -0.4678 -1.4867
   92SAPE  H10S 9040   1.434   2.994   5.678  0.5023 -1.9937  1.1824
   92SAPE  C211 9041   1.315   3.055   5.504 -0.4985  0.6405 -0.2761
   92SAPE  H11R 9042   1.250   3.021   5.422 -1.2998  1.6482 -0.0699
   92SAPE  C212 9043   1.361   3.182   5.492  0.9075  0.5273  0.0475
   92SAPE  H12R 9044   1.320   3.241   5.409  2.2746 -1.6206 -2.3208
   92SAPE  C213 9045   1.459   3.254   5.578 -0.0576  0.5209  0.6120
   92SAPE  H13R 9046   1.508   3.200   5.662 -0.6885 -0.9684  0.0453
   92SAPE  H13S 9047   1.408   3.341   5.626 -1.0805 -0.0498  0.5793
   92SAPE  C214 9048   1.574   3.320   5.498  0.0880 -0.0275 -0.0562
   92SAPE  H14R 9049   1.569   3.430   5.498  0.2768 -0.0114 -0.8975
   92SAPE  C215 9050   1.657   3.263   5.408 -0.2347 -0.6139 -0.2197
   92SAPE  H15R 9051   1.733   3.327   5.359 -1.0102  0.0293 -0.6106
   92SAPE  C216 9052   1.659   3.117   5.382 -0.4305  0.9595  0.2591
   92SAPE  H16R 9053   1.609   3.070   5.469 -2.5090 -1.1526 -1.9432
   92SAPE  H16S 9054   1.759   3.071   5.364 -1.1260 -0.0552 -1.1911
   92SAPE  C217 9055   1.589   3.068   5.255 -0.3887  0.4937 -0.1907
   92SAPE  H17R 9056   1.482   3.086   5.280 -0.4829  0.1464 -0.3407
   92SAPE  H17S 9057   1.608   2.959   5.251  0.5161  0.6185  0.5184
   92SAPE  C218 9058   1.633   3.136   5.127  0.2958 -0.0636 -0.2281
   92SAPE  H18R 9059   1.660   3.241   5.152  1.8965  0.1526 -2.5263
   92SAPE  H18S 9060   1.552   3.138   5.051  1.7529  3.1635 -1.8986
   92SAPE  C219 9061   1.753   3.069   5.057  0.2197  1.2266  0.5654
   92SAPE  H19R 9062   1.834   3.039   5.126 -0.2113  0.7100  0.8551
   92SAPE  H19S 9063   1.798   3.142   4.987  0.4926  0.9687  0.4700
   92SAPE  C220 9064   1.712   2.949   4.974 -0.6926  0.2544  0.1804
   92SAPE  H20R 9065   1.803   2.893   4.943 -0.1359  2.3310 -2.2608
   92SAPE  H20S 9066   1.647   2.959   4.884 -1.1435 -1.7796  0.2332
   92SAPE  H20T 9067   1.651   2.877   5.034 -1.2506  2.3697  2.2903
   92SAPE   C33 9068   1.333   3.955   5.975  0.4352  0.0404  0.4107
   92SAPE   H3X 9069   1.334   4.063   5.998  0.3903  0.2307 -0.4522
   92SAPE   H3Y 9070   1.228   3.919   5.968  0.6601 -0.3250 -4.4588
   92SAPE   C34 9071   1.393   3.945   5.835  0.1810  0.7562  0.0366
   92SAPE   H4X 9072   1.504   3.951   5.839  0.4732 -2.5883 -0.3765
   92SAPE   H4Y 9073   1.351   4.022   5.767 -0.0162  1.4082  0.8720
   92SAPE   C35 9074   1.359   3.808   5.770  0.3899  0.7575  0.0702
   92SAPE   H5X 9075   1.250   3.794   5.790 -0.2439  3.4472 -1.0794
   92SAPE   H5Y 9076   1.412   3.726   5.823  0.6539 -1.6221 -3.5880
   92SAPE   C36 9077   1.386   3.797   5.619  0.6391  0.7207  0.1792
   92SAPE   H6X 9078   1.492   3.818   5.593  1.3156 -2.1511  0.2536
   92SAPE   H6Y 9079   1.322   3.872   5.567  0.0299 -1.0627 -1.7881
   92SAPE   C37 9080   1.348   3.654   5.556 -0.2637 -0.8435  0.4396
   92SAPE   H7X 9081   1.247   3.621   5.587 -1.5660  0.5152 -2.1044
   92SAPE   H7Y 9082   1.431   3.585   5.582  0.7192  0.8468  2.1104
   92SAPE   C38 9083   1.343   3.668   5.398 -0.1835  0.4325 -0.0316
   92SAPE   H8X 9084   1.446   3.701   5.372  0.7146 -2.1992 -0.1042
   92SAPE   H8Y 9085   1.261   3.737   5.372  1.7680  3.1480  0.6048
   92SAPE   C39 9086   1.315   3.527   5.330  0.3615 -0.1849  0.1419
   92SAPE   H9X 9087   1.225   3.493   5.386  0.7775 -0.0666  0.8941
   92SAPE   H9Y 9088   1.395   3.456   5.359  0.4840  0.0354  0.3574
   92SAPE  C310 9089   1.303   3.538   5.169  0.2926  0.1930 -0.8197
   92SAPE  H10X 9090   1.393   3.598   5.142  0.6726 -0.2022 -0.4621
   92SAPE  H10Y 9091   1.214   3.598   5.140  0.1640  0.6672  0.4885
   92SAPE  C311 9092   1.315   3.409   5.089  0.1059 -0.3528  0.7007
   92SAPE  H11X 9093   1.246   3.325   5.111 -2.1533  1.4090  0.7185
   92SAPE  H11Y 9094   1.414   3.375   5.125  0.2901  1.7617  2.4404
   92SAPE  C312 9095   1.322   3.430   4.938 -0.0066 -0.0432  0.4604
   92SAPE  H12X 9096   1.361   3.336   4.892  0.4098  0.4634 -0.2309
   92SAPE  H12Y 9097   1.414   3.483   4.908  1.1337 -2.5263 -0.7877
   92SAPE  C313 9098   1.192   3.482   4.871 -0.1764 -0.7813 -0.0200
   92SAPE  H13X 9099   1.186   3.586   4.911  3.2928 -1.1608  1.8291
   92SAPE  H13Y 9100   1.101   3.424   4.899 -2.5272  0.9585 -3.2442
   92SAPE  C314 9101   1.211   3.474   4.717 -0.2967 -0.4489  0.4314
   92SAPE  H14X 9102   1.109   3.473   4.674 -0.2661 -1.8783  0.3395
   92SAPE  H14Y 9103   1.256   3.377   4.689  0.1174 -1.0250  2.8269
   92SAPE  C315 9104   1.287   3.583   4.642  0.2202  0.7969 -0.0404
   92SAPE  H15X 9105   1.393   3.584   4.676 -0.0420 -0.5319  0.8959
   92SAPE  H15Y 9106   1.247   3.684   4.664  0.7330  0.5679  2.1206
   92SAPE  C316 9107   1.284   3.560   4.484  0.4974 -0.1985  0.0381
   92SAPE  H16X 9108   1.180   3.573   4.447  0.3973  1.2036  0.7651
   92SAPE  H16Y 9109   1.304   3.451   4.474  2.9178  0.2005 -0.1082
   92SAPE  C317 9110   1.379   3.641   4.409 -0.0939  0.0044  0.7241
   92SAPE  H17X 9111   1.479   3.669   4.448  0.0831  3.7805 -1.8477
   92SAPE  H17Y 9112   1.333   3.742   4.409 -1.1619 -0.4328  2.3265
   92SAPE  C318 9113   1.400   3.602   4.264 -0.5435 -0.3480  0.2550
   92SAPE  H18X 9114   1.445   3.501   4.262 -0.8130 -0.4642 -0.8888
   92SAPE  H18Y 9115   1.465   3.679   4.218 -0.0418 -1.1122 -0.3336
   92SAPE  H18Z 9116   1.303   3.603   4.209 -0.6397 -0.7368  0.4154
   93SAPE     N 9117   3.471   4.637   7.201  0.3513  0.3264 -0.0702
   93SAPE   HN1 9118   3.419   4.608   7.286  1.6954  0.2959  0.7753
   93SAPE   HN2 9119   3.479   4.741   7.206 -0.0878  0.3145  2.0267
   93SAPE   HN3 9120   3.411   4.615   7.119  1.8788  1.1418 -1.4612
   93SAPE   C12 9121   3.598   4.547   7.200  0.9261  0.4736 -0.4434
   93SAPE  H12A 9122   3.565   4.444   7.172 -0.8483  0.6175  0.9261
   93SAPE  H12B 9123   3.634   4.554   7.304  1.4986  2.8888 -0.7625
   93SAPE   C11 9124   3.701   4.599   7.101  0.0193 -0.3612  0.1713
   93SAPE  H11A 9125   3.802   4.584   7.144  1.1861 -0.3728 -2.4193
   93SAPE  H11B 9126   3.687   4.705   7.071  1.6893 -0.5054 -1.2904
   93SAPE     P 9127   3.609   4.524   6.862  0.3511  0.2511  0.1702
   93SAPE   O13 9128   3.648   4.405   6.779  0.3072  0.0818 -0.0494
   93SAPE   O14 9129   3.470   4.533   6.906 -0.1446 -0.3409  0.3373
   93SAPE   O12 9130   3.703   4.516   6.986 -0.1704  0.6409 -0.2242
   93SAPE   O11 9131   3.660   4.653   6.790 -0.1103  0.2392  0.6976
   93SAPE    C1 9132   3.800   4.692   6.778  0.0993  0.3744  0.4478
   93SAPE    HA 9133   3.802   4.795   6.820 -0.8949  0.8330 -0.5565
   93SAPE    HB 9134   3.860   4.629   6.847 -0.7433  0.0656  0.9233
   93SAPE    C2 9135   3.852   4.692   6.634 -0.3633  0.6011  0.5512
   93SAPE    HS 9136   3.953   4.737   6.642  0.2150 -0.4292 -0.5717
   93SAPE   O21 9137   3.763   4.770   6.550 -0.3650 -0.4064 -0.1659
   93SAPE   C21 9138   3.796   4.903   6.562  0.0061 -0.2726  0.1899
   93SAPE   O22 9139   3.890   4.947   6.631 -0.0472 -0.0522  0.3563
   93SAPE   C22 9140   3.707   4.987   6.473  0.3000  0.6594 -0.1855
   93SAPE   H2R 9141   3.615   4.928   6.457 -0.0642  1.3565 -0.7194
   93SAPE   H2S 9142   3.675   5.081   6.523 -3.4755  0.9058 -2.6698
   93SAPE    C3 9143   3.881   4.559   6.572  0.1486  0.3127 -0.3500
   93SAPE    HX 9144   3.785   4.514   6.542  0.0634 -0.0584  0.4459
   93SAPE    HY 9145   3.915   4.486   6.649  0.3180 -0.0520 -0.7658
   93SAPE   O31 9146   3.957   4.575   6.448  0.1963 -0.9983  0.9717
   93SAPE   C31 9147   3.935   4.491   6.350 -0.4151  0.8166 -0.0365
   93SAPE   O32 9148   3.859   4.395   6.353  0.0172 -0.0136 -0.1085
   93SAPE   C32 9149   4.045   4.519   6.243  0.0989 -0.5175 -0.6685
   93SAPE   H2X 9150   4.141   4.522   6.299 -0.0598 -0.0294 -0.4094
   93SAPE   H2Y 9151   4.027   4.621   6.204  0.8059  0.1303  0.6154
   93SAPE   C23 9152   3.777   5.031   6.344 -0.1690  0.5583  0.5648
   93SAPE   H3R 9153   3.777   4.941   6.279 -0.6294  1.0714 -0.1711
   93SAPE   H3S 9154   3.883   5.055   6.364 -0.4445  2.9210 -0.4134
   93SAPE   C24 9155   3.711   5.148   6.257 -0.6896  0.4334 -0.8764
   93SAPE   H4R 9156   3.769   5.155   6.162 -0.2111  1.2823 -0.5272
   93SAPE   H4S 9157   3.723   5.246   6.308 -1.5070  0.4144 -0.6384
   93SAPE   C25 9158   3.567   5.135   6.224 -0.1375 -0.0086 -0.5381
   93SAPE   H5R 9159   3.506   5.108   6.311 -0.3782  0.2822 -0.6143
   93SAPE   C26 9160   3.495   5.149   6.118  0.0484 -0.0652  1.0540
   93SAPE   H6R 9161   3.390   5.117   6.126 -0.1647  0.3864  0.2048
   93SAPE   C27 9162   3.555   5.203   5.990  0.4737 -0.2859  0.2854
   93SAPE   H7R 9163   3.666   5.198   5.994  0.5021 -0.4236 -0.5691
   93SAPE   H7S 9164   3.525   5.308   5.967  0.9242 -0.0646  0.6838
   93SAPE   C28 9165   3.515   5.124   5.862  0.0847  0.0474 -0.4330
   93SAPE   H8R 9166   3.437   5.046   5.862  0.0636  0.0585  0.6842
   93SAPE   C29 9167   3.574   5.139   5.746 -0.1896  0.5970  0.4885
   93SAPE   H9R 9168   3.545   5.073   5.663 -0.4010  0.7188  0.4668
   93SAPE  C210 9169   3.690   5.230   5.716 -0.9319  0.3792  0.3919
   93SAPE  H10R 9170   3.759   5.222   5.803 -4.0334 -2.5662  2.8142
   93SAPE  H10S 9171   3.645   5.332   5.711  0.3292  0.8981 -1.2830
   93SAPE  C211 9172   3.772   5.196   5.589  0.3744  0.3029 -0.9151
   93SAPE  H11R 9173   3.877   5.178   5.617 -0.9934 -2.4578  3.5567
   93SAPE  C212 9174   3.728   5.195   5.463  0.0558  0.4704 -0.9549
   93SAPE  H12R 9175   3.802   5.167   5.387  3.7714  0.5516  2.3124
   93SAPE  C213 9176   3.588   5.215   5.414  0.1038  0.0417  0.0246
   93SAPE  H13R 9177   3.595   5.292   5.334  1.7130 -0.6488 -0.5498
   93SAPE  H13S 9178   3.534   5.251   5.504  0.7707 -0.5193  0.6669
   93SAPE  C214 9179   3.533   5.079   5.367 -0.3818 -0.6628  0.6616
   93SAPE  H14R 9180   3.522   4.997   5.439  1.9201 -0.7538  0.9719
   93SAPE  C215 9181   3.493   5.063   5.245  0.3054  0.4557 -0.7949
   93SAPE  H15R 9182   3.450   4.965   5.219 -0.4849  0.7150 -0.4934
   93SAPE  C216 9183   3.491   5.169   5.132 -0.1440  0.1846  0.0899
   93SAPE  H16R 9184   3.587   5.178   5.076 -0.5815  0.4938 -0.6204
   93SAPE  H16S 9185   3.465   5.271   5.167 -2.3837  0.5781 -2.4527
   93SAPE  C217 9186   3.381   5.139   5.022 -0.1619 -0.4229  0.4438
   93SAPE  H17R 9187   3.386   5.220   4.947  1.2990 -0.6973  0.2139
   93SAPE  H17S 9188   3.279   5.128   5.065 -0.0622  0.5002  0.9341
   93SAPE  C218 9189   3.414   5.009   4.941  0.1321 -0.3430  0.6679
   93SAPE  H18R 9190   3.404   4.920   5.006 -0.3889  0.3320  1.5250
   93SAPE  H18S 9191   3.524   5.006   4.923  0.3157  0.6850  1.5411
   93SAPE  C219 9192   3.311   4.991   4.830  0.3988  0.2570 -0.8727
   93SAPE  H19R 9193   3.295   5.086   4.774 -1.0955  1.5565  1.5788
   93SAPE  H19S 9194   3.214   4.970   4.878  1.0120 -1.7674 -0.4353
   93SAPE  C220 9195   3.346   4.876   4.730  0.5213 -0.8912 -0.2570
   93SAPE  H20R 9196   3.343   4.774   4.774  0.9958 -0.7476  0.1237
   93SAPE  H20S 9197   3.448   4.891   4.689  0.8395  0.0656  0.8028
   93SAPE  H20T 9198   3.280   4.897   4.644  0.8935  1.4489 -0.0510
   93SAPE   C33 9199   4.071   4.419   6.131  0.1712  0.8100  0.1884
   93SAPE   H3X 9200   3.975   4.376   6.094 -0.0684  0.8765  0.7191
   93SAPE   H3Y 9201   4.138   4.341   6.172 -1.5374 -1.2588 -0.7069
   93SAPE   C34 9202   4.130   4.497   6.015  0.4207 -0.7535  0.1595
   93SAPE   H4X 9203   4.233   4.523   6.048  1.1007 -1.4024 -1.3475
   93SAPE   H4Y 9204   4.070   4.590   6.006 -0.7905 -1.6969 -2.6198
   93SAPE   C35 9205   4.131   4.436   5.876  0.1261  0.0511 -0.1599
   93SAPE   H5X 9206   4.050   4.361   5.868 -0.9097  0.7644  2.4837
   93SAPE   H5Y 9207   4.230   4.386   5.875  0.7272  1.1240  1.2549
   93SAPE   C36 9208   4.127   4.543   5.765  0.9241  0.2254  0.4378
   93SAPE   H6X 9209   4.228   4.589   5.760  0.3274  1.4924 -0.5135
   93SAPE   H6Y 9210   4.061   4.628   5.792  0.5650  0.0391  0.1543
   93SAPE   C37 9211   4.122   4.478   5.617 -0.3334 -0.3234 -0.0084
   93SAPE   H7X 9212   4.042   4.401   5.605  1.4449 -2.0411 -1.3024
   93SAPE   H7Y 9213   4.217   4.423   5.606 -0.8469 -0.9212 -1.8022
   93SAPE   C38 9214   4.109   4.578   5.510 -0.0228  0.0770  0.2835
   93SAPE   H8X 9215   4.199   4.641   5.510 -1.5278  2.3359 -0.2710
   93SAPE   H8Y 9216   4.025   4.647   5.532 -0.5548 -0.1790 -0.8555
   93SAPE   C39 9217   4.081   4.509   5.380  0.2899  0.1058  0.0916
   93SAPE   H9X 9218   3.971   4.497   5.378  0.3812 -0.6112 -0.7266
   93SAPE   H9Y 9219   4.130   4.411   5.364  1.7517  0.7966  0.1209
   93SAPE  C310 9220   4.113   4.590   5.248 -0.3154  0.3653  0.9964
   93SAPE  H10X 9221   4.073   4.694   5.254 -0.5351  0.4037 -0.7706
   93SAPE  H10Y 9222   4.048   4.548   5.168 -0.4647  0.3486  1.1247
   93SAPE  C311 9223   4.257   4.569   5.202  0.1360 -0.4501 -0.2617
   93SAPE  H11X 9224   4.274   4.469   5.157  1.9006 -0.6461  0.7458
   93SAPE  H11Y 9225   4.330   4.582   5.285  1.0433 -0.7225 -0.9959
   93SAPE  C312 9226   4.291   4.676   5.104  0.8846 -0.3997  0.3606
   93SAPE  H12X 9227   4.304   4.775   5.151  0.4570 -0.0183 -0.3130
   93SAPE  H12Y 9228   4.209   4.679   5.030  1.1242  2.9467  0.1091
   93SAPE  C313 9229   4.421   4.635   5.031 -0.1155 -0.4999 -0.0415
   93SAPE  H13X 9230   4.502   4.602   5.099 -0.5651  1.7595  1.6995
   93SAPE  H13Y 9231   4.465   4.725   4.983  0.1370 -1.5795 -1.9204
   93SAPE  C314 9232   4.410   4.540   4.915  0.4031  0.1152 -0.1799
   93SAPE  H14X 9233   4.342   4.571   4.833  0.7300 -0.3873 -0.6502
   93SAPE  H14Y 9234   4.361   4.447   4.951 -0.3825 -0.1371 -1.8235
   93SAPE  C315 9235   4.549   4.498   4.858  0.8505  0.2442 -0.6100
   93SAPE  H15X 9236   4.612   4.472   4.945  1.3767 -0.6088 -1.2322
   93SAPE  H15Y 9237   4.598   4.585   4.810  1.4743  1.7192  2.4569
   93SAPE  C316 9238   4.547   4.373   4.769  0.7482 -0.0400  0.2275
   93SAPE  H16X 9239   4.506   4.392   4.668 -0.8332  3.5996  1.4164
   93SAPE  H16Y 9240   4.478   4.299   4.815  1.7007 -0.4846  0.9801
   93SAPE  C317 9241   4.688   4.303   4.754  0.0490  0.1523 -0.4951
   93SAPE  H17X 9242   4.676   4.217   4.685 -2.4827  0.1058 -0.1017
   93SAPE  H17Y 9243   4.724   4.264   4.852 -1.6428  1.3824  0.6940
   93SAPE  C318 9244   4.793   4.397   4.702 -0.3196 -0.0617 -0.7723
   93SAPE  H18X 9245   4.754   4.462   4.621 -0.7354  3.2200  1.8368
   93SAPE  H18Y 9246   4.887   4.353   4.664  0.3709  0.9711 -0.3199
   93SAPE  H18Z 9247   4.830   4.461   4.786 -0.6421 -2.7078  1.5379
   94SAPE     N 9248   2.095   4.411   6.472 -0.0656  0.2705 -0.4942
   94SAPE   HN1 9249   2.162   4.429   6.549 -0.9388 -0.1865  0.3970
   94SAPE   HN2 9250   2.006   4.376   6.513  1.6038 -0.2828  2.9648
   94SAPE   HN3 9251   2.138   4.331   6.420 -0.3487  0.5550 -1.1803
   94SAPE   C12 9252   2.082   4.526   6.373  0.6271  0.1012  0.9885
   94SAPE  H12A 9253   2.008   4.599   6.412 -0.1990  0.6539 -1.4154
   94SAPE  H12B 9254   2.047   4.495   6.272  2.5933 -0.9194  0.5671
   94SAPE   C11 9255   2.211   4.605   6.367  0.3235 -0.6776  0.0478
   94SAPE  H11A 9256   2.216   4.663   6.272  0.3733 -2.3555 -1.0136
   94SAPE  H11B 9257   2.298   4.538   6.357  0.2169 -0.8618  0.3561
   94SAPE     P 9258   2.317   4.665   6.602  0.2493  0.2435  0.0600
   94SAPE   O13 9259   2.315   4.780   6.696 -0.2060 -0.0622 -0.2585
   94SAPE   O14 9260   2.265   4.539   6.654  0.4186 -0.0722 -0.4589
   94SAPE   O12 9261   2.230   4.694   6.477 -0.0079  0.1631 -0.2092
   94SAPE   O11 9262   2.462   4.653   6.539 -0.3400 -0.1171  0.1387
   94SAPE    C1 9263   2.532   4.779   6.512  0.1686 -0.1272  0.3027
   94SAPE    HA 9264   2.468   4.855   6.462  0.1405  0.6814  1.5104
   94SAPE    HB 9265   2.573   4.835   6.599  0.0248 -1.0220  0.9615
   94SAPE    C2 9266   2.651   4.753   6.412  0.6955 -0.0129  0.1071
   94SAPE    HS 9267   2.691   4.847   6.368  1.4597 -0.2495  0.2801
   94SAPE   O21 9268   2.597   4.663   6.316  0.2779  0.1932  0.8906
   94SAPE   C21 9269   2.528   4.727   6.224 -0.2299  0.4987  0.1737
   94SAPE   O22 9270   2.495   4.844   6.230  0.2283  0.1117 -0.0722
   94SAPE   C22 9271   2.519   4.631   6.105  0.7775 -0.5383  0.1536
   94SAPE   H2R 9272   2.431   4.565   6.119  0.0170 -0.0093 -1.8449
   94SAPE   H2S 9273   2.503   4.695   6.016  2.2642  0.8115  0.8077
   94SAPE    C3 9274   2.773   4.685   6.479  0.2518  0.7063  0.4854
   94SAPE    HX 9275   2.743   4.599   6.543 -1.7611  1.3527  0.4858
   94SAPE    HY 9276   2.813   4.758   6.553  0.5060  2.0447 -0.9282
   94SAPE   O31 9277   2.873   4.655   6.384  0.0722  0.4080 -0.4032
   94SAPE   C31 9278   2.875   4.531   6.333  0.1141  0.6331 -0.5755
   94SAPE   O32 9279   2.804   4.436   6.369  0.7186 -0.5299 -0.0581
   94SAPE   C32 9280   2.989   4.508   6.241  0.1096 -0.2404  0.0082
   94SAPE   H2X 9281   3.066   4.584   6.266  2.7871 -2.8973  0.5504
   94SAPE   H2Y 9282   2.954   4.528   6.137  0.0929 -1.4093 -0.2304
   94SAPE   C23 9283   2.639   4.538   6.077 -0.4012 -0.8658 -0.6175
   94SAPE   H3R 9284   2.670   4.470   6.159  1.0791  0.4945  0.0155
   94SAPE   H3S 9285   2.729   4.604   6.074 -0.5876 -0.1937  3.2868
   94SAPE   C24 9286   2.635   4.469   5.939 -0.0933 -0.0720  0.1848
   94SAPE   H4R 9287   2.616   4.549   5.865  2.8048 -0.4921 -1.1643
   94SAPE   H4S 9288   2.550   4.398   5.930 -1.4213  1.4164  0.4081
   94SAPE   C25 9289   2.767   4.396   5.896 -0.1161  0.2584  0.7566
   94SAPE   H5R 9290   2.808   4.323   5.968 -2.6380 -0.9734  1.0672
   94SAPE   C26 9291   2.828   4.411   5.772 -0.4165 -0.3884 -0.3037
   94SAPE   H6R 9292   2.922   4.354   5.778 -1.1978 -1.5484  2.3876
   94SAPE   C27 9293   2.805   4.508   5.656  0.9957 -0.1470 -0.0548
   94SAPE   H7R 9294   2.896   4.570   5.660  0.5095  0.5443  0.7812
   94SAPE   H7S 9295   2.725   4.585   5.667  0.1034 -0.9906 -0.4711
   94SAPE   C28 9296   2.822   4.450   5.517  0.8967  0.8290  0.1017
   94SAPE   H8R 9297   2.863   4.348   5.514 -0.6374  0.1978 -0.4491
   94SAPE   C29 9298   2.779   4.511   5.405 -0.2525 -0.2516  0.1254
   94SAPE   H9R 9299   2.796   4.457   5.311 -0.5569  1.2999 -0.8470
   94SAPE  C210 9300   2.701   4.643   5.402 -0.2067 -0.0087 -0.8675
   94SAPE  H10R 9301   2.763   4.733   5.422 -1.0680  0.0397  1.8663
   94SAPE  H10S 9302   2.626   4.640   5.483  2.0321 -0.4873  1.3263
   94SAPE  C211 9303   2.646   4.651   5.266 -0.3118  0.0623 -0.3375
   94SAPE  H11R 9304   2.607   4.554   5.235 -0.7400 -0.3966  1.5065
   94SAPE  C212 9305   2.662   4.761   5.177  0.2098 -0.4448  0.5888
   94SAPE  H12R 9306   2.613   4.749   5.079 -1.7130 -2.0324  1.6806
   94SAPE  C213 9307   2.713   4.899   5.199  0.2729 -0.3132 -0.3126
   94SAPE  H13R 9308   2.774   4.922   5.109  1.5942  0.7234  0.7892
   94SAPE  H13S 9309   2.785   4.898   5.284  0.8842 -0.5639 -0.8244
   94SAPE  C214 9310   2.608   5.003   5.231 -0.1291  0.0231 -0.0058
   94SAPE  H14R 9311   2.537   5.023   5.149  0.0868 -0.4231 -0.3088
   94SAPE  C215 9312   2.587   5.081   5.335 -0.0141 -0.4687 -0.1006
   94SAPE  H15R 9313   2.508   5.156   5.322 -0.5939 -0.9613  0.5235
   94SAPE  C216 9314   2.671   5.086   5.466  0.3086 -0.3650 -0.2728
   94SAPE  H16R 9315   2.659   5.189   5.506 -2.1410 -0.2129 -1.1831
   94SAPE  H16S 9316   2.774   5.048   5.452  0.0837 -2.3917  2.6844
   94SAPE  C217 9317   2.600   5.015   5.582  0.3287 -0.5160 -0.1786
   94SAPE  H17R 9318   2.586   4.909   5.551 -0.9543 -0.4089 -0.0156
   94SAPE  H17S 9319   2.500   5.051   5.614  0.8068 -1.8603  3.2691
   94SAPE  C218 9320   2.701   5.012   5.692  0.0804 -0.6414  0.3616
   94SAPE  H18R 9321   2.718   5.118   5.723 -0.4467 -0.4118 -0.1376
   94SAPE  H18S 9322   2.803   4.980   5.662  0.6457  0.7792  0.6752
   94SAPE  C219 9323   2.653   4.928   5.808 -0.1625 -0.0001  0.1246
   94SAPE  H19R 9324   2.620   4.828   5.774 -1.6858  1.0930 -1.8092
   94SAPE  H19S 9325   2.562   4.981   5.844  0.0281 -0.8092  1.9301
   94SAPE  C220 9326   2.753   4.920   5.929 -0.3929  0.2786  0.5629
   94SAPE  H20R 9327   2.822   4.833   5.928 -0.6546  0.0709 -0.3088
   94SAPE  H20S 9328   2.710   4.906   6.031  2.0774 -0.1919  1.6213
   94SAPE  H20T 9329   2.809   5.016   5.922 -1.2864  0.7681 -0.0810
   94SAPE   C33 9330   3.043   4.364   6.250  0.0225  0.8330 -0.1935
   94SAPE   H3X 9331   2.969   4.290   6.214  0.8655 -0.2974  0.3303
   94SAPE   H3Y 9332   3.073   4.351   6.357  1.9172 -1.9054 -0.9369
   94SAPE   C34 9333   3.158   4.340   6.171 -0.7974  0.2668 -0.7216
   94SAPE   H4X 9334   3.184   4.233   6.188 -1.7945  0.3393  1.5827
   94SAPE   H4Y 9335   3.235   4.408   6.214  0.3080 -1.6126  0.4152
   94SAPE   C35 9336   3.140   4.365   6.018 -0.5723 -0.6154  0.0218
   94SAPE   H5X 9337   3.100   4.464   5.990  0.0856 -0.1222  0.7824
   94SAPE   H5Y 9338   3.066   4.295   5.975 -0.4120  0.2214 -1.6691
   94SAPE   C36 9339   3.270   4.352   5.934 -0.0565 -0.1322  0.8141
   94SAPE   H6X 9340   3.303   4.250   5.966 -2.1525 -0.8237  0.9178
   94SAPE   H6Y 9341   3.354   4.418   5.964 -2.5767  3.4873  0.4574
   94SAPE   C37 9342   3.239   4.356   5.786 -0.2925 -0.2611  0.6077
   94SAPE   H7X 9343   3.197   4.455   5.757  0.5394 -0.3732 -1.0637
   94SAPE   H7Y 9344   3.165   4.279   5.755 -1.4580  0.9196  0.3601
   94SAPE   C38 9345   3.360   4.330   5.701  0.0708  0.1571 -0.0591
   94SAPE   H8X 9346   3.409   4.235   5.731  1.1209  0.5983 -0.3336
   94SAPE   H8Y 9347   3.426   4.417   5.724  0.6520  0.1201 -1.4431
   94SAPE   C39 9348   3.340   4.327   5.548  0.1796 -0.2371  0.2821
   94SAPE   H9X 9349   3.263   4.251   5.524 -0.2875  0.9511 -2.2218
   94SAPE   H9Y 9350   3.436   4.288   5.508 -1.2279 -0.7131 -2.9887
   94SAPE  C310 9351   3.290   4.455   5.496  0.5048 -0.7397  0.6713
   94SAPE  H10X 9352   3.364   4.532   5.527 -0.2133  1.0628 -1.7806
   94SAPE  H10Y 9353   3.193   4.470   5.547  0.0834 -1.3382  0.0778
   94SAPE  C311 9354   3.285   4.459   5.342 -0.5640 -0.0840 -0.3076
   94SAPE  H11X 9355   3.216   4.378   5.309 -0.7249 -0.4841  0.9252
   94SAPE  H11Y 9356   3.384   4.448   5.293 -0.1696  0.5033  0.3424
   94SAPE  C312 9357   3.225   4.592   5.297  0.0108  0.1892  0.1309
   94SAPE  H12X 9358   3.294   4.674   5.326 -1.3417  0.7235  2.0872
   94SAPE  H12Y 9359   3.121   4.604   5.336  0.4470  0.3958  1.2528
   94SAPE  C313 9360   3.205   4.607   5.148  0.1350 -0.1076  0.8772
   94SAPE  H13X 9361   3.292   4.563   5.097  0.1390  2.5993 -1.7230
   94SAPE  H13Y 9362   3.200   4.717   5.130 -0.7810 -0.2642  0.1013
   94SAPE  C314 9363   3.079   4.534   5.093  0.8250  0.2871 -0.2758
   94SAPE  H14X 9364   2.989   4.563   5.151  0.5246  0.0049 -0.6058
   94SAPE  H14Y 9365   3.102   4.426   5.100  1.7586  0.4067 -1.3037
   94SAPE  C315 9366   3.050   4.558   4.945 -0.5936 -0.2689  0.1242
   94SAPE  H15X 9367   2.991   4.474   4.903  1.5142 -0.4710 -2.7218
   94SAPE  H15Y 9368   3.140   4.554   4.880 -0.2817  0.8784  0.4605
   94SAPE  C316 9369   2.988   4.696   4.927 -0.9973 -1.2259  0.5698
   94SAPE  H16X 9370   3.070   4.769   4.941 -1.8892 -0.2269  0.7425
   94SAPE  H16Y 9371   2.919   4.732   5.007 -1.9558  2.8958 -1.7790
   94SAPE  C317 9372   2.920   4.726   4.789  0.3610  0.1914 -0.4024
   94SAPE  H17X 9373   2.831   4.660   4.795 -1.1983  2.0648 -1.7074
   94SAPE  H17Y 9374   2.992   4.689   4.712  0.5093  0.7948 -0.5572
   94SAPE  C318 9375   2.879   4.868   4.762  0.1994  0.2037 -1.3474
   94SAPE  H18X 9376   2.955   4.945   4.785 -2.2364  1.8154  2.1914
   94SAPE  H18Y 9377   2.803   4.894   4.838  2.6689 -0.7963  1.6446
   94SAPE  H18Z 9378   2.841   4.873   4.657  1.2025 -3.4780 -2.0432
   95SAPE     N 9379   6.444   4.406   6.783  0.7058  0.1811  0.1564
   95SAPE   HN1 9380   6.357   4.460   6.798  0.8916  0.9303 -1.3074
   95SAPE   HN2 9381   6.417   4.307   6.797 -0.2073  0.2852 -0.7559
   95SAPE   HN3 9382   6.512   4.406   6.862  0.2035 -2.0118  0.6431
   95SAPE   C12 9383   6.519   4.447   6.659  0.0349 -0.3916  0.4132
   95SAPE  H12A 9384   6.485   4.388   6.571  1.0458  0.1841 -0.4004
   95SAPE  H12B 9385   6.626   4.442   6.688  0.1252 -1.6411 -0.1003
   95SAPE   C11 9386   6.483   4.595   6.613 -0.4433 -0.2818  0.6230
   95SAPE  H11A 9387   6.373   4.599   6.602 -0.2793  0.2471 -1.1781
   95SAPE  H11B 9388   6.523   4.608   6.509 -1.9226  0.7286  0.1418
   95SAPE     P 9389   6.663   4.769   6.689  0.0550 -0.3154 -0.0833
   95SAPE   O13 9390   6.652   4.895   6.611  0.4864  0.4737 -0.2342
   95SAPE   O14 9391   6.712   4.781   6.829 -0.1643 -0.1122  0.1796
   95SAPE   O12 9392   6.517   4.697   6.707  0.2490 -0.0954 -0.8839
   95SAPE   O11 9393   6.748   4.671   6.609 -0.6314  0.1933 -0.0461
   95SAPE    C1 9394   6.859   4.718   6.522 -0.6618  1.1267  0.3064
   95SAPE    HA 9395   6.876   4.828   6.520  1.1672  0.8592 -0.5591
   95SAPE    HB 9396   6.949   4.668   6.562  0.1244  0.9843 -1.5275
   95SAPE    C2 9397   6.840   4.675   6.373 -1.0408 -0.3615  0.5446
   95SAPE    HS 9398   6.917   4.718   6.305  1.4298 -2.2917  1.9555
   95SAPE   O21 9399   6.711   4.714   6.328 -0.1435  0.0968  0.1492
   95SAPE   C21 9400   6.693   4.839   6.307  0.9386  0.7951  0.3336
   95SAPE   O22 9401   6.774   4.928   6.299  0.1246 -0.2359  0.2914
   95SAPE   C22 9402   6.544   4.878   6.295  0.1800  0.2691  0.2346
   95SAPE   H2R 9403   6.485   4.840   6.381 -1.0791  1.0854 -0.2532
   95SAPE   H2S 9404   6.558   4.988   6.290  2.1975  0.0184 -1.0494
   95SAPE    C3 9405   6.855   4.516   6.352 -0.5762  0.2978  0.2561
   95SAPE    HX 9406   6.787   4.465   6.424  0.0991  0.8952  1.3400
   95SAPE    HY 9407   6.954   4.486   6.392 -0.3906  2.0465  1.1836
   95SAPE   O31 9408   6.837   4.471   6.212 -0.5371  0.0779  0.1321
   95SAPE   C31 9409   6.714   4.418   6.192  0.5533  0.0207 -0.1056
   95SAPE   O32 9410   6.635   4.381   6.279 -0.4069  0.5607  0.7878
   95SAPE   C32 9411   6.688   4.405   6.038  0.2027  0.6579  0.9778
   95SAPE   H2X 9412   6.621   4.486   6.003  0.7293  0.5172 -0.4306
   95SAPE   H2Y 9413   6.636   4.307   6.041 -1.2212  1.4281  3.5985
   95SAPE   C23 9414   6.487   4.817   6.165 -0.3938 -0.5859 -0.3587
   95SAPE   H3R 9415   6.378   4.838   6.168 -1.0009 -3.3950  0.7695
   95SAPE   H3S 9416   6.502   4.706   6.162  2.7282 -0.2809  0.8252
   95SAPE   C24 9417   6.549   4.880   6.037  0.3215  0.2212  0.5595
   95SAPE   H4R 9418   6.651   4.839   6.019 -0.4539 -1.7064  0.3241
   95SAPE   H4S 9419   6.562   4.990   6.045  2.9129  0.5739 -4.4145
   95SAPE   C25 9420   6.470   4.859   5.907 -0.0520  0.7162 -0.5121
   95SAPE   H5R 9421   6.371   4.905   5.903 -0.3649  0.3458  1.6142
   95SAPE   C26 9422   6.502   4.790   5.793 -0.2781  0.7883  0.9725
   95SAPE   H6R 9423   6.437   4.805   5.706  0.1058  1.9896  0.8705
   95SAPE   C27 9424   6.641   4.743   5.754 -0.8712  0.0417  0.1219
   95SAPE   H7R 9425   6.629   4.668   5.674 -1.7327  0.7088 -0.3973
   95SAPE   H7S 9426   6.684   4.689   5.840  2.5595  0.3924 -1.2360
   95SAPE   C28 9427   6.731   4.849   5.695  0.8626  0.0681 -1.2755
   95SAPE   H8R 9428   6.775   4.905   5.780 -1.6217 -0.7323  0.6435
   95SAPE   C29 9429   6.747   4.885   5.563 -0.3166 -0.2741  0.0420
   95SAPE   H9R 9430   6.811   4.969   5.534 -0.1533 -0.0960  0.8711
   95SAPE  C210 9431   6.674   4.828   5.442 -0.6236  0.8487 -0.2957
   95SAPE  H10R 9432   6.603   4.750   5.475 -2.4907  2.8301  0.6281
   95SAPE  H10S 9433   6.754   4.784   5.379 -0.1010  2.6335 -0.9340
   95SAPE  C211 9434   6.610   4.936   5.360 -0.1264 -0.0554  1.0685
   95SAPE  H11R 9435   6.527   4.991   5.407  0.0530  0.0664  1.2437
   95SAPE  C212 9436   6.653   4.984   5.234  0.1626  0.2486  0.4826
   95SAPE  H12R 9437   6.618   5.083   5.203  0.6665  0.1095 -0.5614
   95SAPE  C213 9438   6.771   4.948   5.152  0.0220 -0.3778 -0.0319
   95SAPE  H13R 9439   6.851   4.887   5.200  1.6004  1.3353 -0.3780
   95SAPE  H13S 9440   6.824   5.043   5.132  1.3221 -0.9217  0.6769
   95SAPE  C214 9441   6.730   4.879   5.020 -0.2861 -0.4220 -0.7311
   95SAPE  H14R 9442   6.724   4.769   5.021  2.0449 -0.7186 -3.5181
   95SAPE  C215 9443   6.709   4.951   4.910 -0.3618  0.2096  0.7773
   95SAPE  H15R 9444   6.690   4.898   4.815 -0.7526  1.1497  0.3087
   95SAPE  C216 9445   6.725   5.101   4.894 -0.5436  0.4550 -0.4637
   95SAPE  H16R 9446   6.822   5.135   4.935 -0.9176  1.1836 -0.1489
   95SAPE  H16S 9447   6.652   5.154   4.959 -0.2177 -0.7755  0.9452
   95SAPE  C217 9448   6.714   5.138   4.744  0.2077  0.3540 -0.4913
   95SAPE  H17R 9449   6.682   5.244   4.730  0.0072  0.5744  1.3980
   95SAPE  H17S 9450   6.627   5.086   4.698  0.5230  1.4646 -2.4630
   95SAPE  C218 9451   6.839   5.106   4.663 -0.1146 -0.5392  0.1178
   95SAPE  H18R 9452   6.882   5.006   4.688  0.9597  0.1308  1.0930
   95SAPE  H18S 9453   6.929   5.168   4.684 -0.6501 -0.0208  0.9605
   95SAPE  C219 9454   6.805   5.106   4.518  0.9425 -0.2200 -0.0197
   95SAPE  H19R 9455   6.758   5.203   4.493 -0.6930 -0.8057  0.6162
   95SAPE  H19S 9456   6.732   5.022   4.519  0.5322  0.0787  2.5848
   95SAPE  C220 9457   6.917   5.070   4.428  0.0269 -0.1855  0.1797
   95SAPE  H20R 9458   6.986   5.157   4.429 -0.4962  0.2927  2.6341
   95SAPE  H20S 9459   6.884   5.048   4.324 -2.4563  0.7970  0.6862
   95SAPE  H20T 9460   6.978   4.982   4.460 -0.3667  0.1758  2.0193
   95SAPE   C33 9461   6.807   4.424   5.938  0.4535 -0.2137  0.1124
   95SAPE   H3X 9462   6.890   4.370   5.987  0.2792  0.6045  1.3699
   95SAPE   H3Y 9463   6.841   4.530   5.943 -0.7718  0.1576  2.3460
   95SAPE   C34 9464   6.780   4.379   5.793  1.0830  0.1762 -0.6727
   95SAPE   H4X 9465   6.683   4.423   5.761  0.3998 -0.4658  0.4424
   95SAPE   H4Y 9466   6.762   4.269   5.797  0.6474  0.2882  1.2280
   95SAPE   C35 9467   6.894   4.409   5.697  0.0847 -0.7441 -0.3438
   95SAPE   H5X 9468   6.984   4.349   5.725  0.9315  0.6571  0.0275
   95SAPE   H5Y 9469   6.917   4.516   5.712 -2.1274 -0.4893  1.8320
   95SAPE   C36 9470   6.845   4.365   5.558 -0.2368 -0.8319  0.5229
   95SAPE   H6X 9471   6.737   4.389   5.548 -0.2468 -0.8091  0.6789
   95SAPE   H6Y 9472   6.854   4.255   5.553 -0.3088 -0.9311  2.0588
   95SAPE   C37 9473   6.913   4.440   5.437 -0.3645  0.3950 -0.2193
   95SAPE   H7X 9474   7.024   4.442   5.439 -0.2554  3.6196 -2.3227
   95SAPE   H7Y 9475   6.884   4.546   5.446  1.0885  0.9858 -1.7966
   95SAPE   C38 9476   6.868   4.391   5.297  0.2031 -0.0111 -0.7037
   95SAPE   H8X 9477   6.760   4.364   5.303  0.4465 -0.7160  1.2991
   95SAPE   H8Y 9478   6.913   4.294   5.268 -1.4191  0.0742 -4.0293
   95SAPE   C39 9479   6.889   4.497   5.186  0.1202  0.1824 -0.5693
   95SAPE   H9X 9480   6.975   4.566   5.202 -0.2813  1.0627 -2.0131
   95SAPE   H9Y 9481   6.807   4.572   5.180 -1.1119 -1.1642 -1.0704
   95SAPE  C310 9482   6.890   4.431   5.042 -0.3276 -0.2612 -0.2217
   95SAPE  H10X 9483   6.792   4.381   5.028  0.0130 -0.7655 -0.9107
   95SAPE  H10Y 9484   6.974   4.359   5.044  0.2860  0.3904 -1.3040
   95SAPE  C311 9485   6.902   4.531   4.927  0.3789 -0.0398 -0.8349
   95SAPE  H11X 9486   7.004   4.575   4.930 -0.1061  1.1020 -0.6525
   95SAPE  H11Y 9487   6.833   4.615   4.946 -0.1241  0.2400 -3.5213
   95SAPE  C312 9488   6.883   4.479   4.786 -0.5122 -0.1736 -0.4755
   95SAPE  H12X 9489   6.915   4.373   4.779 -0.9243 -0.5133  2.0296
   95SAPE  H12Y 9490   6.943   4.546   4.721 -1.4001 -0.3764 -1.5419
   95SAPE  C313 9491   6.739   4.480   4.741  0.5761  0.9986 -0.6483
   95SAPE  H13X 9492   6.678   4.566   4.777 -0.2790 -0.0769  0.5920
   95SAPE  H13Y 9493   6.691   4.392   4.788  0.1342  1.9938  0.8360
   95SAPE  C314 9494   6.728   4.473   4.591 -0.0321 -0.3165  0.3877
   95SAPE  H14X 9495   6.829   4.489   4.549  0.4165 -2.2093  0.6683
   95SAPE  H14Y 9496   6.660   4.559   4.568 -1.3231 -1.2134  0.7069
   95SAPE  C315 9497   6.665   4.345   4.544 -0.2472  0.0664 -0.0926
   95SAPE  H15X 9498   6.555   4.347   4.557 -0.4071  1.6025 -1.4426
   95SAPE  H15Y 9499   6.691   4.249   4.593 -0.7650 -2.3209 -4.0917
   95SAPE  C316 9500   6.691   4.323   4.399 -0.1777  0.6163  0.6527
   95SAPE  H16X 9501   6.800   4.304   4.389 -0.6551 -1.8508 -0.5193
   95SAPE  H16Y 9502   6.663   4.410   4.334  3.6857  1.0893 -0.6270
   95SAPE  C317 9503   6.617   4.198   4.336  0.1778 -0.0702  0.0521
   95SAPE  H17X 9504   6.665   4.108   4.381  0.9781  0.3334  0.0364
   95SAPE  H17Y 9505   6.653   4.197   4.231  2.3750  1.2907  0.7148
   95SAPE  C318 9506   6.465   4.202   4.356 -0.7276 -0.1922  0.4434
   95SAPE  H18X 9507   6.422   4.301   4.381 -0.4897 -0.4714  2.0364
   95SAPE  H18Y 9508   6.447   4.139   4.446  0.4492 -1.6725 -0.3254
   95SAPE  H18Z 9509   6.406   4.162   4.271 -1.5507  1.8144  0.0054
   96SAPE     N 9510   1.891   6.875   6.386  0.1942  0.2179  0.2415
   96SAPE   HN1 9511   1.853   6.789   6.430  0.2503 -1.9764 -3.5256
   96SAPE   HN2 9512   1.839   6.874   6.296 -0.6986  0.8335  0.7371
   96SAPE   HN3 9513   1.993   6.855   6.390 -0.1145 -1.4697  0.2377
   96SAPE   C12 9514   1.861   7.002   6.469  0.4849  0.5379 -0.0280
   96SAPE  H12A 9515   1.898   7.085   6.405  0.5270 -1.8518 -3.3878
   96SAPE  H12B 9516   1.920   7.005   6.564 -2.2117  0.1177  1.7630
   96SAPE   C11 9517   1.710   7.015   6.503  0.9488 -0.5577  0.9215
   96SAPE  H11A 9518   1.685   6.924   6.562 -0.8977 -0.3479  0.4968
   96SAPE  H11B 9519   1.657   6.992   6.408  0.7912 -2.1827  1.3695
   96SAPE     P 9520   1.645   7.265   6.468  0.2996  0.0201 -0.2189
   96SAPE   O13 9521   1.499   7.246   6.437  0.3442 -0.3821 -0.1926
   96SAPE   O14 9522   1.691   7.385   6.543  0.4825 -0.3072 -0.6190
   96SAPE   O12 9523   1.682   7.148   6.558 -0.3623  0.1322  0.0778
   96SAPE   O11 9524   1.742   7.249   6.346  0.6547 -0.2411  0.3279
   96SAPE    C1 9525   1.694   7.218   6.216 -0.5020 -0.1879 -0.4379
   96SAPE    HA 9526   1.628   7.129   6.214 -2.4063  1.1553 -0.5847
   96SAPE    HB 9527   1.635   7.304   6.178  0.3612  0.6078 -0.0301
   96SAPE    C2 9528   1.805   7.201   6.102 -0.5325  0.1286  0.4124
   96SAPE    HS 9529   1.869   7.115   6.129 -0.8181 -0.6073 -1.1203
   96SAPE   O21 9530   1.884   7.315   6.091  0.3143 -0.3756  0.2037
   96SAPE   C21 9531   1.990   7.331   6.173 -0.2153 -0.0538 -0.6612
   96SAPE   O22 9532   2.066   7.243   6.216  0.0082  0.2121 -0.2167
   96SAPE   C22 9533   2.003   7.479   6.213 -0.0478  0.1214  0.0656
   96SAPE   H2R 9534   1.995   7.534   6.117  2.7019  0.0607 -0.2635
   96SAPE   H2S 9535   1.913   7.495   6.277  0.9931  0.8464  1.3994
   96SAPE    C3 9536   1.746   7.176   5.963  0.1974  0.5263  0.0486
   96SAPE    HX 9537   1.697   7.275   5.948 -1.6360 -0.2498  0.6178
   96SAPE    HY 9538   1.679   7.088   5.971  3.1092 -1.8738 -0.3015
   96SAPE   O31 9539   1.842   7.158   5.853  0.1649  0.5209  0.0455
   96SAPE   C31 9540   1.890   7.037   5.838 -0.6875 -0.0808 -0.0141
   96SAPE   O32 9541   1.873   6.947   5.919  0.0655 -0.8488 -0.3318
   96SAPE   C32 9542   1.977   7.029   5.711  0.0790 -0.4140  0.0657
   96SAPE   H2X 9543   1.998   6.920   5.700 -0.3768 -0.5598  0.5855
   96SAPE   H2Y 9544   2.067   7.091   5.730  0.0364 -0.3379  0.0171
   96SAPE   C23 9545   2.131   7.514   6.286 -0.9927 -0.0974  0.2747
   96SAPE   H3R 9546   2.155   7.434   6.359  2.6614  0.0935 -0.5201
   96SAPE   H3S 9547   2.112   7.595   6.360 -4.3002 -1.4783  1.0921
   96SAPE   C24 9548   2.242   7.564   6.200 -0.3425  0.6777 -0.4005
   96SAPE   H4R 9549   2.303   7.619   6.274 -0.7829  2.7173 -1.4905
   96SAPE   H4S 9550   2.207   7.647   6.135 -1.5885 -0.0502 -0.7018
   96SAPE   C25 9551   2.329   7.454   6.140  0.1619 -0.4556  0.5147
   96SAPE   H5R 9552   2.398   7.402   6.208  1.6782  2.3629  1.2661
   96SAPE   C26 9553   2.353   7.422   6.011  0.4491 -0.4974  0.1908
   96SAPE   H6R 9554   2.410   7.333   5.985 -1.6895 -1.7320 -0.5693
   96SAPE   C27 9555   2.289   7.490   5.892  0.2058 -0.8604  0.5199
   96SAPE   H7R 9556   2.364   7.478   5.812  1.7344  3.1511  1.1037
   96SAPE   H7S 9557   2.274   7.599   5.907 -0.9407 -1.0016  0.5596
   96SAPE   C28 9558   2.155   7.437   5.855 -0.1889 -0.2242 -0.0818
   96SAPE   H8R 9559   2.068   7.468   5.913  0.4406 -0.3226  0.9411
   96SAPE   C29 9560   2.130   7.370   5.732 -0.4791  0.2617 -0.5043
   96SAPE   H9R 9561   2.030   7.330   5.708 -0.0400 -0.9097 -0.4431
   96SAPE  C210 9562   2.240   7.328   5.642 -0.1722 -0.6314 -0.0860
   96SAPE  H10R 9563   2.197   7.242   5.587 -4.4199  2.3382 -1.9728
   96SAPE  H10S 9564   2.326   7.296   5.704 -0.8987 -0.7744  0.8802
   96SAPE  C211 9565   2.266   7.442   5.547 -0.0969  0.4652 -0.4116
   96SAPE  H11R 9566   2.337   7.517   5.585  1.5212 -0.8234 -0.7704
   96SAPE  C212 9567   2.209   7.455   5.426 -0.1834  0.5952  0.4028
   96SAPE  H12R 9568   2.250   7.537   5.365  2.7615 -1.7143 -1.0144
   96SAPE  C213 9569   2.104   7.374   5.358 -0.1412  0.9413 -0.3791
   96SAPE  H13R 9570   2.045   7.316   5.433 -1.0320  1.5718 -0.5685
   96SAPE  H13S 9571   2.151   7.301   5.289 -1.3328  2.0622 -2.4645
   96SAPE  C214 9572   2.006   7.462   5.280  0.0140 -0.1047  0.2277
   96SAPE  H14R 9573   1.933   7.511   5.345  0.7685  2.0073 -0.4109
   96SAPE  C215 9574   1.989   7.481   5.148 -0.1478  0.6676  0.1158
   96SAPE  H15R 9575   1.908   7.550   5.119 -1.6454 -0.7452  0.7673
   96SAPE  C216 9576   2.052   7.409   5.034 -0.4498 -0.0158 -0.4661
   96SAPE  H16R 9577   1.966   7.387   4.966 -2.1290  2.9759  0.4923
   96SAPE  H16S 9578   2.097   7.314   5.069 -0.4492 -0.0673 -0.6086
   96SAPE  C217 9579   2.158   7.480   4.949  0.0459 -0.5050 -0.1443
   96SAPE  H17R 9580   2.243   7.522   5.007  1.4611 -0.4311 -2.1543
   96SAPE  H17S 9581   2.106   7.567   4.902 -1.6852 -1.1601  0.4923
   96SAPE  C218 9582   2.214   7.395   4.840 -0.6441  0.3074  0.2855
   96SAPE  H18R 9583   2.139   7.349   4.771  0.0047 -1.7476  0.9012
   96SAPE  H18S 9584   2.258   7.304   4.885  0.0492  0.1907 -0.6075
   96SAPE  C219 9585   2.333   7.458   4.774 -0.5800  0.1489  0.6480
   96SAPE  H19R 9586   2.416   7.467   4.847 -0.1843  0.8464  0.1209
   96SAPE  H19S 9587   2.305   7.562   4.750 -0.6878 -0.1652 -0.6597
   96SAPE  C220 9588   2.382   7.385   4.651  0.1445  0.0384  0.6750
   96SAPE  H20R 9589   2.323   7.380   4.557 -0.3541 -0.3179  0.9980
   96SAPE  H20S 9590   2.398   7.280   4.684 -4.3806 -0.4792  1.9086
   96SAPE  H20T 9591   2.475   7.431   4.611 -1.4060  2.1142 -0.7841
   96SAPE   C33 9592   1.893   7.066   5.582 -0.0293  0.0121  0.0602
   96SAPE   H3X 9593   1.870   7.175   5.586  1.8450  0.5520 -1.8234
   96SAPE   H3Y 9594   1.800   7.006   5.585  0.5701 -0.9251  2.0756
   96SAPE   C34 9595   1.978   7.044   5.457 -0.1915  0.0572 -0.3817
   96SAPE   H4X 9596   1.986   6.933   5.453  0.8629  0.1279 -0.4032
   96SAPE   H4Y 9597   2.083   7.079   5.462  0.6748 -2.2164 -1.1378
   96SAPE   C35 9598   1.906   7.071   5.324  0.7493  0.6935 -0.2090
   96SAPE   H5X 9599   1.891   7.180   5.305  1.6060  0.7433 -0.6127
   96SAPE   H5Y 9600   1.804   7.028   5.335  0.2251  2.1981  1.3332
   96SAPE   C36 9601   1.991   7.019   5.205 -0.1837 -0.6364 -0.3174
   96SAPE   H6X 9602   1.984   6.908   5.202 -2.0516 -0.5415 -1.5872
   96SAPE   H6Y 9603   2.096   7.053   5.210 -0.3092 -0.3941  1.8047
   96SAPE   C37 9604   1.916   7.065   5.079  0.6302  0.1379 -0.3000
   96SAPE   H7X 9605   1.892   7.173   5.079 -2.8664 -0.4556  2.2361
   96SAPE   H7Y 9606   1.817   7.013   5.085  0.8885 -0.3295  0.0758
   96SAPE   C38 9607   1.987   7.024   4.951 -0.2387 -0.2866 -0.6053
   96SAPE   H8X 9608   1.988   6.913   4.948  1.0993 -0.4346  2.2774
   96SAPE   H8Y 9609   2.091   7.062   4.952 -0.8777  1.5764 -0.7764
   96SAPE   C39 9610   1.923   7.071   4.818 -0.2278 -0.1992  0.1374
   96SAPE   H9X 9611   1.907   7.180   4.814  0.8809 -0.0361 -0.5254
   96SAPE   H9Y 9612   1.825   7.018   4.815  0.6301 -1.8809  0.0932
   96SAPE  C310 9613   2.001   7.024   4.693  0.1793  0.2390 -0.5667
   96SAPE  H10X 9614   2.101   7.071   4.698  0.5346 -0.5691  0.2576
   96SAPE  H10Y 9615   1.947   7.071   4.608 -0.8542 -0.5666 -0.3856
   96SAPE  C311 9616   2.020   6.873   4.673 -0.0714 -0.3836  0.0302
   96SAPE  H11X 9617   1.921   6.829   4.698 -0.6106  1.2082  0.8259
   96SAPE  H11Y 9618   2.091   6.844   4.754  0.4573  1.0751  0.1200
   96SAPE  C312 9619   2.082   6.845   4.541 -0.2044  0.2940 -0.1003
   96SAPE  H12X 9620   2.171   6.912   4.533  0.6184 -0.8749 -1.1062
   96SAPE  H12Y 9621   2.021   6.865   4.450  1.1398  0.5939 -0.9833
   96SAPE  C313 9622   2.136   6.696   4.540 -0.2159  0.1019 -0.8722
   96SAPE  H13X 9623   2.061   6.634   4.593 -0.7116 -1.2454 -3.0350
   96SAPE  H13Y 9624   2.222   6.707   4.610  0.3378 -1.7795 -1.1955
   96SAPE  C314 9625   2.177   6.631   4.410 -0.0554 -0.4048  0.2082
   96SAPE  H14X 9626   2.084   6.611   4.353  0.1247 -0.0570 -0.2113
   96SAPE  H14Y 9627   2.217   6.529   4.429 -1.3029 -1.0046 -0.3019
   96SAPE  C315 9628   2.269   6.704   4.313 -0.0465 -0.3686  0.8564
   96SAPE  H15X 9629   2.241   6.811   4.308  1.7279  0.1504  1.2555
   96SAPE  H15Y 9630   2.254   6.644   4.221  0.5396 -0.6469  0.9342
   96SAPE  C316 9631   2.422   6.681   4.344  0.2590  0.1146  0.5059
   96SAPE  H16X 9632   2.465   6.581   4.322 -1.0287 -0.3457 -0.0329
   96SAPE  H16Y 9633   2.435   6.684   4.455  0.7513 -0.2742  0.4618
   96SAPE  C317 9634   2.510   6.782   4.278 -0.1295 -0.3302  0.3712
   96SAPE  H17X 9635   2.617   6.762   4.302  0.0919 -1.8098 -1.6541
   96SAPE  H17Y 9636   2.492   6.885   4.318  2.0889 -0.0481  0.7780
   96SAPE  C318 9637   2.479   6.793   4.132 -0.6016 -0.2044 -0.8497
   96SAPE  H18X 9638   2.471   6.691   4.088 -1.6973 -1.0994  1.2706
   96SAPE  H18Y 9639   2.554   6.854   4.077 -1.5093  0.2782 -1.5841
   96SAPE  H18Z 9640   2.381   6.839   4.105 -0.3003  0.3069 -1.0932
   97SAPE     N 9641   2.713   1.796   7.014  0.3770 -0.4047 -0.3454
   97SAPE   HN1 9642   2.737   1.760   7.109  0.6382 -0.5707 -0.4744
   97SAPE   HN2 9643   2.680   1.894   7.023  1.5013 -0.0253 -0.2492
   97SAPE   HN3 9644   2.646   1.734   6.963  1.2438 -0.5694 -1.3110
   97SAPE   C12 9645   2.839   1.789   6.928 -1.4500 -0.0787  0.3675
   97SAPE  H12A 9646   2.913   1.724   6.979 -0.9441  0.7279  0.6685
   97SAPE  H12B 9647   2.875   1.890   6.900 -0.0502 -0.5887  0.2466
   97SAPE   C11 9648   2.804   1.724   6.797 -0.7694  0.6875  0.3862
   97SAPE  H11A 9649   2.780   1.616   6.804  1.9595  0.0406  0.8673
   97SAPE  H11B 9650   2.895   1.724   6.734  0.1348  2.9582  1.5809
   97SAPE     P 9651   2.700   1.917   6.654  0.3077  0.2501  0.1894
   97SAPE   O13 9652   2.563   1.926   6.587  0.2142 -0.3373 -0.3634
   97SAPE   O14 9653   2.744   2.020   6.747  0.6235 -0.7156  0.5964
   97SAPE   O12 9654   2.691   1.783   6.745  0.3158 -0.6964  0.0515
   97SAPE   O11 9655   2.813   1.870   6.559  0.3007  0.1695  0.5520
   97SAPE    C1 9656   2.780   1.804   6.439  0.4836  0.0582  0.0651
   97SAPE    HA 9657   2.756   1.697   6.459 -1.1699  0.4231  0.1297
   97SAPE    HB 9658   2.688   1.849   6.396 -0.9590 -3.2721 -0.6248
   97SAPE    C2 9659   2.895   1.807   6.332 -0.0711 -0.3829 -0.9528
   97SAPE    HS 9660   2.988   1.762   6.372  0.8479  3.1010  1.2524
   97SAPE   O21 9661   2.925   1.947   6.321  0.6764  0.0997 -0.1773
   97SAPE   C21 9662   3.008   1.997   6.233  0.0542 -0.1461 -0.2929
   97SAPE   O22 9663   3.084   1.939   6.159 -0.0752  0.3354 -0.3761
   97SAPE   C22 9664   2.987   2.141   6.227  0.4348  0.4222 -0.4425
   97SAPE   H2R 9665   3.024   2.190   6.319  0.4024 -0.5977  0.1257
   97SAPE   H2S 9666   3.049   2.188   6.147  2.9951 -0.7144  0.7819
   97SAPE    C3 9667   2.854   1.733   6.195 -0.2628  0.1399 -0.2925
   97SAPE    HX 9668   2.937   1.737   6.121  0.8475 -1.7777  0.7559
   97SAPE    HY 9669   2.766   1.788   6.155 -0.2523  1.4675  1.4276
   97SAPE   O31 9670   2.827   1.593   6.212  0.1930 -0.2981  0.4378
   97SAPE   C31 9671   2.929   1.508   6.193 -0.5289 -0.4941 -0.5144
   97SAPE   O32 9672   3.048   1.539   6.172 -0.2532 -0.0388 -0.5020
   97SAPE   C32 9673   2.884   1.367   6.192 -0.5501  0.6924  0.3364
   97SAPE   H2X 9674   2.813   1.344   6.274  1.4467 -2.2910  1.4023
   97SAPE   H2Y 9675   2.973   1.304   6.211 -1.0216 -0.0480  0.1451
   97SAPE   C23 9676   2.842   2.179   6.195 -0.1299  0.4623  0.5427
   97SAPE   H3R 9677   2.840   2.290   6.202  0.3967  0.8076 -2.9844
   97SAPE   H3S 9678   2.783   2.137   6.280  1.7772 -2.9863  0.3751
   97SAPE   C24 9679   2.804   2.131   6.054  0.3885 -0.5254  0.5261
   97SAPE   H4R 9680   2.699   2.161   6.037  0.5498 -0.8043 -1.1196
   97SAPE   H4S 9681   2.790   2.020   6.059 -0.1299 -0.6495 -2.3033
   97SAPE   C25 9682   2.892   2.181   5.937  0.5798 -0.1416 -0.6430
   97SAPE   H5R 9683   2.912   2.289   5.932  2.0033 -0.4161 -1.4229
   97SAPE   C26 9684   2.938   2.110   5.829  0.0601  0.8345  0.0593
   97SAPE   H6R 9685   3.004   2.154   5.754  0.0123 -2.0763 -1.8562
   97SAPE   C27 9686   2.918   1.959   5.806 -0.6175  0.5607  0.1547
   97SAPE   H7R 9687   2.849   1.944   5.720  1.1140 -0.1911 -1.1778
   97SAPE   H7S 9688   2.853   1.912   5.882 -2.5724 -0.2043 -1.8747
   97SAPE   C28 9689   3.044   1.892   5.761  0.5351  0.4918  0.2656
   97SAPE   H8R 9690   3.096   1.848   5.847 -1.0183  1.2676  1.6791
   97SAPE   C29 9691   3.071   1.868   5.628 -0.1850  0.2418 -0.2647
   97SAPE   H9R 9692   3.168   1.822   5.602  0.3684  1.4413 -0.4018
   97SAPE  C210 9693   2.990   1.914   5.509  0.4053  0.0614 -0.1207
   97SAPE  H10R 9694   2.919   1.996   5.534  0.3677  0.5291 -1.6916
   97SAPE  H10S 9695   2.923   1.827   5.493  0.2136  0.2443 -0.3195
   97SAPE  C211 9696   3.068   1.969   5.398  0.3366  0.0277 -1.2706
   97SAPE  H11R 9697   3.148   2.043   5.413 -0.6086  1.0799 -1.3376
   97SAPE  C212 9698   3.050   1.932   5.271  0.3920 -0.1807  0.7641
   97SAPE  H12R 9699   3.112   1.985   5.198 -0.7247 -0.5962 -0.5096
   97SAPE  C213 9700   2.955   1.834   5.216 -0.4420 -0.0971 -0.0445
   97SAPE  H13R 9701   2.886   1.896   5.156 -1.1292 -0.5959  0.2251
   97SAPE  H13S 9702   2.898   1.787   5.299 -0.0231  1.4684  1.1897
   97SAPE  C214 9703   3.021   1.728   5.132 -0.3349  0.4946  0.1969
   97SAPE  H14R 9704   3.078   1.654   5.190 -1.1767 -2.4521 -2.4336
   97SAPE  C215 9705   3.009   1.695   4.998 -0.1153  0.4771  1.0417
   97SAPE  H15R 9706   3.068   1.612   4.958 -1.7548  0.2770 -1.1362
   97SAPE  C216 9707   2.932   1.775   4.899 -0.1540  0.2136  0.0538
   97SAPE  H16R 9708   2.841   1.819   4.944 -1.0025  1.5387 -2.7437
   97SAPE  H16S 9709   2.895   1.720   4.810 -2.4730 -0.5143  1.3913
   97SAPE  C217 9710   3.003   1.905   4.851  0.2451 -0.2757 -0.2795
   97SAPE  H17R 9711   3.104   1.876   4.814  0.8342 -0.9678  1.7490
   97SAPE  H17S 9712   3.024   1.962   4.944 -1.6581 -0.8553  0.5556
   97SAPE  C218 9713   2.927   1.991   4.746  0.1205  0.8845  0.0077
   97SAPE  H18R 9714   2.915   1.924   4.659  0.8051 -1.6808  1.7633
   97SAPE  H18S 9715   2.990   2.080   4.725 -0.6486  1.3967 -0.1796
   97SAPE  C219 9716   2.786   2.041   4.797  0.5248  0.8166  0.0859
   97SAPE  H19R 9717   2.735   1.944   4.814  0.4669  0.4046 -2.1107
   97SAPE  H19S 9718   2.741   2.095   4.711 -0.1152 -0.4098 -0.3788
   97SAPE  C220 9719   2.785   2.134   4.916  0.0802  0.0910  0.0121
   97SAPE  H20R 9720   2.696   2.201   4.916  1.6135  2.2404 -0.5703
   97SAPE  H20S 9721   2.874   2.200   4.912 -0.2722  0.5290 -1.2059
   97SAPE  H20T 9722   2.768   2.074   5.008 -1.7175  2.3448  1.2632
   97SAPE   C33 9723   2.825   1.333   6.059 -0.2398 -0.6620 -0.2464
   97SAPE   H3X 9724   2.747   1.411   6.041  2.0281  1.8922  0.2611
   97SAPE   H3Y 9725   2.786   1.230   6.042 -2.9819  0.6316 -2.8366
   97SAPE   C34 9726   2.917   1.356   5.942  0.0750 -0.5829 -0.0474
   97SAPE   H4X 9727   2.983   1.266   5.940 -0.1338 -0.7257 -1.2457
   97SAPE   H4Y 9728   2.974   1.451   5.951  0.9162 -1.0144 -0.6761
   97SAPE   C35 9729   2.853   1.347   5.801 -0.8512 -1.0030 -0.1019
   97SAPE   H5X 9730   2.935   1.365   5.728 -0.7184  1.9130  0.6547
   97SAPE   H5Y 9731   2.785   1.434   5.788 -0.9300 -1.1171 -0.4822
   97SAPE   C36 9732   2.769   1.222   5.766  0.8327  0.5684  0.0741
   97SAPE   H6X 9733   2.699   1.214   5.852  0.8090 -0.3557 -0.0173
   97SAPE   H6Y 9734   2.827   1.127   5.761  1.4592  0.8689  1.3755
   97SAPE   C37 9735   2.696   1.239   5.629  0.2490  0.4155  0.0244
   97SAPE   H7X 9736   2.622   1.321   5.646  0.2198  0.6383 -1.1073
   97SAPE   H7Y 9737   2.628   1.154   5.606 -2.2391  1.5250  2.5604
   97SAPE   C38 9738   2.798   1.258   5.514  0.4333  0.9982  0.5596
   97SAPE   H8X 9739   2.875   1.178   5.525  0.7979  1.3694  0.7325
   97SAPE   H8Y 9740   2.842   1.357   5.538  1.3347  0.5739  0.7073
   97SAPE   C39 9741   2.735   1.258   5.376 -0.3100  0.3002  0.5012
   97SAPE   H9X 9742   2.649   1.328   5.366 -0.2655  0.6105  2.0025
   97SAPE   H9Y 9743   2.697   1.155   5.358 -0.9046  0.4731  0.7222
   97SAPE  C310 9744   2.847   1.283   5.279  0.3860 -0.0474  0.1291
   97SAPE  H10X 9745   2.909   1.191   5.288 -0.4134 -0.5840  0.2176
   97SAPE  H10Y 9746   2.923   1.360   5.304  1.7679 -0.5327 -2.2217
   97SAPE  C311 9747   2.796   1.307   5.140 -0.3858  0.3219  0.5635
   97SAPE  H11X 9748   2.735   1.400   5.133  2.0962  2.2905  2.8812
   97SAPE  H11Y 9749   2.735   1.217   5.118 -1.5183  1.3703 -0.7799
   97SAPE  C312 9750   2.914   1.315   5.040  0.3773 -0.2090 -0.6255
   97SAPE  H12X 9751   2.985   1.231   5.056 -0.0865 -0.1296  2.3524
   97SAPE  H12Y 9752   2.979   1.405   5.045  0.1322 -0.0023 -1.1642
   97SAPE  C313 9753   2.856   1.298   4.901  0.4610 -0.8644  0.3716
   97SAPE  H13X 9754   2.770   1.368   4.905  2.0613  1.1819  0.5048
   97SAPE  H13Y 9755   2.809   1.197   4.897 -0.4132 -0.4819  0.7662
   97SAPE  C314 9756   2.961   1.329   4.792  0.0316 -0.7788  0.0401
   97SAPE  H14X 9757   2.978   1.439   4.794  0.1094 -0.7711 -0.6980
   97SAPE  H14Y 9758   2.912   1.318   4.693  0.2716 -0.7685 -0.0812
   97SAPE  C315 9759   3.077   1.228   4.788  0.2213 -0.5533 -0.0335
   97SAPE  H15X 9760   3.033   1.127   4.803 -1.8524 -0.3620 -3.6000
   97SAPE  H15Y 9761   3.142   1.258   4.873 -2.1071  3.7389  0.5281
   97SAPE  C316 9762   3.167   1.230   4.664  0.3500  0.1488  0.0136
   97SAPE  H16X 9763   3.258   1.172   4.690 -0.7806 -1.5206  0.4038
   97SAPE  H16Y 9764   3.193   1.336   4.643 -1.5219  0.7761  0.6440
   97SAPE  C317 9765   3.101   1.178   4.539  1.1152 -0.2101 -0.1724
   97SAPE  H17X 9766   3.010   1.238   4.516  0.0787 -1.2229  1.0859
   97SAPE  H17Y 9767   3.071   1.072   4.551 -0.2347  0.1509 -0.1940
   97SAPE  C318 9768   3.190   1.176   4.416  0.4560 -1.0737  0.3205
   97SAPE  H18X 9769   3.289   1.133   4.442  1.8333  0.1386 -2.5508
   97SAPE  H18Y 9770   3.201   1.281   4.382  1.5379 -0.7272  1.6147
   97SAPE  H18Z 9771   3.144   1.115   4.335 -3.6791  1.7441  0.2027
   98SAPE     N 9772   4.128   0.905   6.998 -0.5255 -0.3334  0.4831
   98SAPE   HN1 9773   4.121   0.815   7.049 -3.3353 -0.9314 -0.7744
   98SAPE   HN2 9774   4.161   0.985   7.056  2.1464 -0.1958 -1.0684
   98SAPE   HN3 9775   4.036   0.918   6.950 -0.1569  0.8716  0.0552
   98SAPE   C12 9776   4.233   0.909   6.889 -0.7103 -0.1696  0.2325
   98SAPE  H12A 9777   4.274   1.011   6.877 -1.6388  0.1604 -0.2597
   98SAPE  H12B 9778   4.190   0.891   6.788  1.1856 -2.2085 -0.2950
   98SAPE   C11 9779   4.353   0.814   6.893  0.8440 -0.1107 -0.3880
   98SAPE  H11A 9780   4.411   0.841   6.984 -1.1635 -0.7863  1.1659
   98SAPE  H11B 9781   4.419   0.825   6.804 -0.3745  0.5148 -1.2335
   98SAPE     P 9782   4.386   0.554   6.833 -0.0220  0.0767 -0.2951
   98SAPE   O13 9783   4.525   0.536   6.874  0.3770 -0.0699 -0.4649
   98SAPE   O14 9784   4.300   0.436   6.843 -0.0801  0.2310  0.3677
   98SAPE   O12 9785   4.315   0.678   6.910 -0.3171  0.2410  0.0184
   98SAPE   O11 9786   4.389   0.611   6.685 -0.0831 -0.2454 -0.3290
   98SAPE    C1 9787   4.267   0.621   6.606 -0.2020  0.2053 -0.3175
   98SAPE    HA 9788   4.184   0.560   6.649 -0.9575  0.7000 -1.0530
   98SAPE    HB 9789   4.237   0.728   6.603  1.0688  0.5516 -1.6302
   98SAPE    C2 9790   4.274   0.556   6.462  0.4860 -0.3908 -0.0951
   98SAPE    HS 9791   4.179   0.502   6.443 -0.1178  0.1547  1.2158
   98SAPE   O21 9792   4.382   0.464   6.454 -0.3882  0.6542 -0.3869
   98SAPE   C21 9793   4.350   0.342   6.515  0.5835 -0.4960 -0.7548
   98SAPE   O22 9794   4.235   0.314   6.552 -1.3061 -0.4651  0.3534
   98SAPE   C22 9795   4.462   0.248   6.526  0.2381  0.3365 -0.1940
   98SAPE   H2R 9796   4.527   0.258   6.437  0.1995 -0.8368 -0.3608
   98SAPE   H2S 9797   4.523   0.273   6.616 -0.4316  1.4997 -0.0374
   98SAPE    C3 9798   4.291   0.663   6.358 -0.2705  0.4031 -0.1730
   98SAPE    HX 9799   4.393   0.709   6.356  1.3693 -2.9118 -2.1026
   98SAPE    HY 9800   4.229   0.752   6.381 -0.6140  0.7284 -2.1683
   98SAPE   O31 9801   4.274   0.601   6.228 -0.7124 -0.1182 -0.4555
   98SAPE   C31 9802   4.176   0.642   6.159 -0.0030  0.0294  0.2822
   98SAPE   O32 9803   4.097   0.727   6.191  0.6270  0.7699  0.3581
   98SAPE   C32 9804   4.183   0.575   6.021  0.0143 -0.0027 -0.5766
   98SAPE   H2X 9805   4.207   0.469   6.043 -0.8064 -0.0259  0.2690
   98SAPE   H2Y 9806   4.255   0.634   5.961 -0.2244  0.2387 -0.6300
   98SAPE   C23 9807   4.432   0.097   6.507  0.8127  0.7309 -0.0304
   98SAPE   H3R 9808   4.357   0.051   6.576  1.0176  1.4125  0.6580
   98SAPE   H3S 9809   4.522   0.043   6.541  0.0536 -1.3547 -1.1541
   98SAPE   C24 9810   4.424   0.048   6.364  0.3871 -0.4021  1.1725
   98SAPE   H4R 9811   4.418  -0.062   6.348  0.8627 -0.2029 -0.5018
   98SAPE   H4S 9812   4.515   0.079   6.309  1.5794 -1.6535  2.3634
   98SAPE   C25 9813   4.293   0.105   6.311  0.3094 -0.0306 -0.3833
   98SAPE   H5R 9814   4.215   0.106   6.388  0.0206 -0.1037 -0.6766
   98SAPE   C26 9815   4.279   0.168   6.188 -0.4991 -0.2824  0.1133
   98SAPE   H6R 9816   4.184   0.213   6.157 -0.0800  0.7984  0.3564
   98SAPE   C27 9817   4.375   0.162   6.071 -0.1557  0.2891  0.6332
   98SAPE   H7R 9818   4.314   0.151   5.979 -0.3862  0.8262  0.7145
   98SAPE   H7S 9819   4.435   0.069   6.081 -0.7471 -0.0907  0.6968
   98SAPE   C28 9820   4.456   0.282   6.096  0.1265  0.0665  0.9592
   98SAPE   H8R 9821   4.497   0.298   6.197  1.3816  0.6653  0.3720
   98SAPE   C29 9822   4.484   0.369   5.998  0.1987 -0.2875 -0.6840
   98SAPE   H9R 9823   4.562   0.443   6.020  1.4265 -1.9442  0.8359
   98SAPE  C210 9824   4.436   0.353   5.856  0.2722 -0.0139  0.2138
   98SAPE  H10R 9825   4.455   0.443   5.794  1.1252  0.1204  0.6555
   98SAPE  H10S 9826   4.327   0.340   5.866  0.3826 -0.3187  1.1306
   98SAPE  C211 9827   4.499   0.230   5.785 -0.5142 -0.3877 -0.0300
   98SAPE  H11R 9828   4.532   0.147   5.850  1.0121 -0.0620 -0.3465
   98SAPE  C212 9829   4.546   0.228   5.657 -0.3009  0.3978 -0.5420
   98SAPE  H12R 9830   4.584   0.136   5.609  0.4807  1.5337 -2.2384
   98SAPE  C213 9831   4.539   0.337   5.557 -0.3465  0.6995 -0.0568
   98SAPE  H13R 9832   4.434   0.365   5.536 -1.3314 -1.3080  1.7398
   98SAPE  H13S 9833   4.568   0.282   5.465  0.3965 -0.5779  0.9041
   98SAPE  C214 9834   4.640   0.451   5.570  0.1823  0.2104  0.2713
   98SAPE  H14R 9835   4.693   0.444   5.666 -2.8942 -0.1439  2.0423
   98SAPE  C215 9836   4.638   0.560   5.496 -0.0511  0.5371 -0.2253
   98SAPE  H15R 9837   4.715   0.632   5.527  0.0719 -0.0660  0.9419
   98SAPE  C216 9838   4.567   0.577   5.364  0.0567  0.1130  0.4047
   98SAPE  H16R 9839   4.514   0.674   5.351 -2.0447 -0.9951  0.2771
   98SAPE  H16S 9840   4.477   0.511   5.356 -0.1600  0.1377  2.2297
   98SAPE  C217 9841   4.656   0.541   5.247 -0.4646 -0.6047 -0.2069
   98SAPE  H17R 9842   4.690   0.436   5.265  0.1154 -0.3277  0.3470
   98SAPE  H17S 9843   4.742   0.610   5.232  0.7815 -1.5024  2.3126
   98SAPE  C218 9844   4.578   0.541   5.116  0.6812 -0.3010 -0.3019
   98SAPE  H18R 9845   4.537   0.644   5.107  0.6716 -0.1599  1.1971
   98SAPE  H18S 9846   4.493   0.470   5.124 -0.4153  1.2006  2.9116
   98SAPE  C219 9847   4.668   0.517   4.999 -0.2290  0.5173  0.2360
   98SAPE  H19R 9848   4.719   0.424   5.031 -1.7815  0.4516  2.8674
   98SAPE  H19S 9849   4.746   0.595   4.983 -0.3276  0.8289  1.2009
   98SAPE  C220 9850   4.583   0.483   4.875  0.0799 -0.7727  0.5351
   98SAPE  H20R 9851   4.616   0.545   4.788  0.0437  1.3332  1.9538
   98SAPE  H20S 9852   4.477   0.513   4.887 -0.0273  0.1062 -1.9439
   98SAPE  H20T 9853   4.603   0.379   4.842  1.6343  0.5214 -3.1677
   98SAPE   C33 9854   4.044   0.575   5.953 -0.6436 -0.2244  0.2809
   98SAPE   H3X 9855   3.998   0.676   5.950  0.3047  0.2148  0.1577
   98SAPE   H3Y 9856   3.981   0.510   6.018 -0.5740 -0.0522  0.5233
   98SAPE   C34 9857   4.047   0.514   5.813 -0.4452  0.1138  0.7398
   98SAPE   H4X 9858   4.094   0.413   5.811 -0.8605 -0.0886 -1.3173
   98SAPE   H4Y 9859   4.119   0.577   5.756 -1.1708 -0.5327 -0.9740
   98SAPE   C35 9860   3.910   0.490   5.746  0.0745  0.3013  0.3515
   98SAPE   H5X 9861   3.849   0.583   5.758 -0.9794 -0.3023 -0.2140
   98SAPE   H5Y 9862   3.862   0.404   5.796 -1.2848  0.6710 -0.2819
   98SAPE   C36 9863   3.918   0.461   5.594  0.4955  0.0870  0.4867
   98SAPE   H6X 9864   3.980   0.370   5.579 -1.3561 -0.9371 -1.4356
   98SAPE   H6Y 9865   3.975   0.544   5.549  1.7229 -0.4578  0.9821
   98SAPE   C37 9866   3.780   0.448   5.525  0.2692 -0.0401  0.0759
   98SAPE   H7X 9867   3.718   0.523   5.578 -0.5506 -1.2187  0.8489
   98SAPE   H7Y 9868   3.734   0.352   5.558 -0.6867  1.0704  2.1393
   98SAPE   C38 9869   3.789   0.459   5.373  0.2902  0.8779  0.3459
   98SAPE   H8X 9870   3.871   0.398   5.330 -1.1583 -0.3731 -0.7366
   98SAPE   H8Y 9871   3.806   0.567   5.349 -2.3190  0.7495 -2.7379
   98SAPE   C39 9872   3.658   0.417   5.308  0.0434 -0.4789 -0.1981
   98SAPE   H9X 9873   3.579   0.464   5.370 -0.6116  0.3549 -1.6378
   98SAPE   H9Y 9874   3.644   0.307   5.320  2.0368 -0.9303 -1.4816
   98SAPE  C310 9875   3.652   0.440   5.155  0.5327  0.5433  0.1565
   98SAPE  H10X 9876   3.743   0.387   5.120  1.1889  1.3797  0.5640
   98SAPE  H10Y 9877   3.664   0.550   5.149 -1.0829  0.7925  0.9031
   98SAPE  C311 9878   3.524   0.394   5.086 -0.4841  0.6390  0.0290
   98SAPE  H11X 9879   3.443   0.467   5.105 -0.5620 -0.0349  2.8721
   98SAPE  H11Y 9880   3.486   0.296   5.124 -1.6343 -0.0413 -2.6572
   98SAPE  C312 9881   3.558   0.400   4.936 -0.1414  0.7482  0.3304
   98SAPE  H12X 9882   3.631   0.317   4.925  1.0445  1.6808  0.8396
   98SAPE  H12Y 9883   3.592   0.501   4.906 -0.4923  0.2153 -2.0318
   98SAPE  C313 9884   3.439   0.364   4.840  0.6881 -0.7010 -0.0962
   98SAPE  H13X 9885   3.359   0.440   4.848  1.3430  0.2964 -2.2888
   98SAPE  H13Y 9886   3.389   0.269   4.869 -1.7603  1.0565  1.9206
   98SAPE  C314 9887   3.477   0.359   4.697 -0.6198  0.3432 -0.2602
   98SAPE  H14X 9888   3.529   0.267   4.665 -1.5820 -0.3194  0.0359
   98SAPE  H14Y 9889   3.553   0.438   4.679 -0.1694  0.4486  1.8631
   98SAPE  C315 9890   3.367   0.410   4.605  0.4486 -0.0854  0.4806
   98SAPE  H15X 9891   3.411   0.411   4.503 -1.8735  1.1483 -0.5858
   98SAPE  H15Y 9892   3.323   0.511   4.619  0.6785  0.2469 -1.0424
   98SAPE  C316 9893   3.235   0.330   4.599  0.5488  0.8528 -0.3013
   98SAPE  H16X 9894   3.164   0.389   4.537  2.7812  1.6386 -2.2496
   98SAPE  H16Y 9895   3.182   0.325   4.696 -0.4195  1.3631 -0.7904
   98SAPE  C317 9896   3.240   0.191   4.527  0.2614  0.5340 -0.8114
   98SAPE  H17X 9897   3.144   0.138   4.536 -0.4209  1.6667 -1.2051
   98SAPE  H17Y 9898   3.304   0.126   4.591  0.2800  0.2807 -1.0872
   98SAPE  C318 9899   3.286   0.188   4.382 -0.4688  0.3399 -0.2377
   98SAPE  H18X 9900   3.378   0.247   4.362 -0.0798 -0.9259 -2.6957
   98SAPE  H18Y 9901   3.209   0.232   4.314 -0.9153  3.2299  1.9401
   98SAPE  H18Z 9902   3.300   0.084   4.343 -0.4596  0.4469 -0.5253
   99SAPE     N 9903   2.465   1.120   6.731  0.2499  0.5120 -0.8527
   99SAPE   HN1 9904   2.535   1.050   6.763  1.3806  1.1547 -1.8239
   99SAPE   HN2 9905   2.447   1.181   6.813  0.9681 -1.3220  0.7283
   99SAPE   HN3 9906   2.374   1.076   6.709  0.5366 -0.3713 -0.2954
   99SAPE   C12 9907   2.511   1.216   6.635  0.1974 -1.1912  0.1022
   99SAPE  H12A 9908   2.419   1.278   6.632  0.4003 -0.6610  2.6246
   99SAPE  H12B 9909   2.539   1.165   6.540 -0.3765  1.3290 -1.4961
   99SAPE   C11 9910   2.644   1.288   6.683 -0.2069 -0.2826  0.0133
   99SAPE  H11A 9911   2.602   1.381   6.727  2.1400  0.7691  0.1409
   99SAPE  H11B 9912   2.688   1.330   6.590 -0.1057 -0.1207  0.1345
   99SAPE     P 9913   2.845   1.130   6.700 -0.3858 -0.0402 -0.4002
   99SAPE   O13 9914   2.944   1.220   6.631 -0.2505 -0.0614  0.5671
   99SAPE   O14 9915   2.900   1.040   6.804  0.7799 -0.2491  0.4982
   99SAPE   O12 9916   2.732   1.226   6.768 -0.0702  0.4707  0.3206
   99SAPE   O11 9917   2.757   1.055   6.588 -0.1844 -0.1066 -0.4832
   99SAPE    C1 9918   2.803   0.937   6.524  0.1572  0.8697 -0.1131
   99SAPE    HA 9919   2.903   0.945   6.477  0.5927  0.3489  0.7053
   99SAPE    HB 9920   2.794   0.849   6.592 -1.2436  0.7559 -0.4024
   99SAPE    C2 9921   2.722   0.909   6.396 -0.1410  0.1192 -0.3235
   99SAPE    HS 9922   2.616   0.891   6.424 -1.0185  2.3630 -1.8414
   99SAPE   O21 9923   2.785   0.793   6.340  0.1568  0.2314 -0.3807
   99SAPE   C21 9924   2.701   0.714   6.268 -0.0151 -1.1731 -0.2111
   99SAPE   O22 9925   2.581   0.734   6.253 -0.4010  0.3848  0.0296
   99SAPE   C22 9926   2.778   0.590   6.232 -0.7310  0.5989 -0.5495
   99SAPE   H2R 9927   2.869   0.624   6.177 -0.0844  0.5559  0.4647
   99SAPE   H2S 9928   2.813   0.551   6.330 -2.3455  2.8515  1.0342
   99SAPE    C3 9929   2.729   1.029   6.296 -0.0027  0.2058  0.3330
   99SAPE    HX 9930   2.828   1.037   6.247  0.0788  0.7848  0.5920
   99SAPE    HY 9931   2.719   1.123   6.354  0.8219  0.5734 -0.1087
   99SAPE   O31 9932   2.648   1.012   6.178  0.6917 -0.2331  0.7871
   99SAPE   C31 9933   2.523   1.046   6.198 -0.4335 -0.3146  0.0614
   99SAPE   O32 9934   2.473   1.086   6.300 -0.3681 -0.0223 -0.2670
   99SAPE   C32 9935   2.458   1.060   6.057  0.3861  0.1752 -0.3762
   99SAPE   H2X 9936   2.456   1.165   6.021  1.2733 -0.1023 -1.3041
   99SAPE   H2Y 9937   2.350   1.034   6.066  0.4156 -0.4893 -1.6180
   99SAPE   C23 9938   2.717   0.475   6.153  0.6845  0.6086  0.1118
   99SAPE   H3R 9939   2.663   0.510   6.062 -1.1784 -1.5947  0.2678
   99SAPE   H3S 9940   2.636   0.428   6.212 -0.9408  2.0147 -0.8946
   99SAPE   C24 9941   2.809   0.363   6.096  0.6417 -0.7145  0.2918
   99SAPE   H4R 9942   2.753   0.274   6.058  0.8172 -1.6131  2.0300
   99SAPE   H4S 9943   2.866   0.317   6.179  1.1779 -1.8465 -0.6665
   99SAPE   C25 9944   2.906   0.403   5.988  0.0172  0.5935 -0.4566
   99SAPE   H5R 9945   3.005   0.418   6.034  1.0021 -2.1170 -1.4408
   99SAPE   C26 9946   2.912   0.382   5.855  0.0416  0.5843 -0.0639
   99SAPE   H6R 9947   2.995   0.427   5.799  1.6314 -0.8670  1.0342
   99SAPE   C27 9948   2.794   0.343   5.767  0.6683 -0.0612  0.0257
   99SAPE   H7R 9949   2.719   0.279   5.818  1.3852  0.7459  2.2038
   99SAPE   H7S 9950   2.832   0.278   5.685  0.3013  0.8922 -0.9243
   99SAPE   C28 9951   2.739   0.478   5.715  0.6258 -0.0413 -0.4031
   99SAPE   H8R 9952   2.750   0.564   5.783  1.3662  0.2827 -0.9276
   99SAPE   C29 9953   2.664   0.495   5.600 -0.6179 -0.2290 -0.4945
   99SAPE   H9R 9954   2.651   0.600   5.568 -0.5283  0.0070  0.2237
   99SAPE  C210 9955   2.628   0.391   5.503 -0.0081 -0.2794  0.1430
   99SAPE  H10R 9956   2.518   0.375   5.510 -0.2411 -0.0077 -1.9913
   99SAPE  H10S 9957   2.672   0.290   5.520  0.1477  0.0744  1.9992
   99SAPE  C211 9958   2.652   0.435   5.355 -0.4669  0.3880 -0.4426
   99SAPE  H11R 9959   2.752   0.478   5.344 -0.3911  0.9137  1.8284
   99SAPE  C212 9960   2.589   0.391   5.245  0.0728  0.0123  0.8315
   99SAPE  H12R 9961   2.621   0.444   5.154 -1.1666 -0.1144  0.3162
   99SAPE  C213 9962   2.449   0.325   5.232  0.3832 -0.2987 -0.1845
   99SAPE  H13R 9963   2.375   0.403   5.258  0.9408  0.0835  0.2617
   99SAPE  H13S 9964   2.443   0.248   5.311 -0.3166 -2.7121 -2.4446
   99SAPE  C214 9965   2.399   0.264   5.101  0.1380  0.1661 -0.0154
   99SAPE  H14R 9966   2.312   0.316   5.058  0.6619  0.0551 -1.2437
   99SAPE  C215 9967   2.455   0.164   5.025 -0.3312  0.0471  0.0402
   99SAPE  H15R 9968   2.403   0.140   4.931  1.3485  0.6814 -1.1028
   99SAPE  C216 9969   2.591   0.104   5.052 -0.4084  0.6495 -0.0650
   99SAPE  H16R 9970   2.579  -0.007   5.056  1.6849  0.4119  1.4987
   99SAPE  H16S 9971   2.623   0.130   5.155 -1.9668  0.9881  0.3619
   99SAPE  C217 9972   2.699   0.110   4.942 -0.4674 -0.5839 -0.6887
   99SAPE  H17R 9973   2.792   0.070   4.989  0.7677  0.5974 -2.0118
   99SAPE  H17S 9974   2.720   0.216   4.917 -1.6427 -0.2280 -0.2136
   99SAPE  C218 9975   2.637   0.048   4.812 -0.8170  0.6292 -0.9950
   99SAPE  H18R 9976   2.540   0.089   4.775 -0.7216  2.1222  0.2977
   99SAPE  H18S 9977   2.621  -0.055   4.850  0.9485  0.3898 -0.8333
   99SAPE  C219 9978   2.742   0.050   4.705 -0.2426 -0.1681 -0.2579
   99SAPE  H19R 9979   2.841   0.021   4.746 -0.3631  1.2803  1.1257
   99SAPE  H19S 9980   2.750   0.157   4.675 -1.5198 -0.1497 -0.6302
   99SAPE  C220 9981   2.699  -0.024   4.580  0.0231  0.6011 -0.2484
   99SAPE  H20R 9982   2.596  -0.003   4.543 -0.2596  0.6223  0.5320
   99SAPE  H20S 9983   2.694  -0.134   4.599  0.8797  0.9432  2.3625
   99SAPE  H20T 9984   2.769  -0.004   4.497 -0.4810  0.1658 -0.7901
   99SAPE   C33 9985   2.515   0.962   5.960  0.7852 -0.1200  0.2589
   99SAPE   H3X 9986   2.522   0.860   6.003  1.7722  0.2344  0.9675
   99SAPE   H3Y 9987   2.618   0.995   5.936  0.3911  0.0613 -1.3419
   99SAPE   C34 9988   2.430   0.965   5.826 -0.7058 -0.0632 -0.1923
   99SAPE   H4X 9989   2.412   1.072   5.802 -2.1504 -0.1842  0.2557
   99SAPE   H4Y 9990   2.335   0.910   5.844 -0.6161 -0.3624 -0.6337
   99SAPE   C35 9991   2.507   0.899   5.711 -0.8213  0.8398 -0.2363
   99SAPE   H5X 9992   2.540   0.796   5.737 -2.1091  0.0240 -1.7035
   99SAPE   H5Y 9993   2.602   0.955   5.697  0.2456  0.4084  3.8602
   99SAPE   C36 9994   2.423   0.894   5.579  0.2367 -0.1464  0.0535
   99SAPE   H6X 9995   2.374   0.990   5.551  2.6661  1.3309  0.5768
   99SAPE   H6Y 9996   2.339   0.822   5.580  0.5311 -0.4869  0.3948
   99SAPE   C37 9997   2.502   0.873   5.449  0.0572 -0.9342 -0.0332
   99SAPE   H7X 9998   2.536   0.767   5.442  1.2132 -0.5526 -0.5285
   99SAPE   H7Y 9999   2.596   0.933   5.441  0.7935 -2.2084 -1.4803
   99SAPE   C3810000   2.423   0.904   5.322 -0.4165 -0.5202 -0.6605
   99SAPE   H8X10001   2.391   1.010   5.306 -1.2072 -1.0405 -2.8466
   99SAPE   H8Y10002   2.328   0.849   5.335 -0.9942  0.6669  0.4278
   99SAPE   C3910003   2.499   0.863   5.194  0.2804 -0.4274 -0.2659
   99SAPE   H9X10004   2.524   0.756   5.204 -1.3265 -0.6633  1.9131
   99SAPE   H9Y10005   2.585   0.931   5.176 -0.7834  0.4059 -2.7581
   99SAPE  C31010006   2.401   0.875   5.074 -0.1859 -0.0766 -0.6654
   99SAPE  H10X10007   2.350   0.973   5.062 -0.2934 -0.3013 -2.3859
   99SAPE  H10Y10008   2.321   0.798   5.088  0.9599 -1.1897 -0.0797
   99SAPE  C31110009   2.468   0.853   4.934 -0.1847  0.4407 -0.6127
   99SAPE  H11X10010   2.390   0.831   4.857 -0.0636  0.4066 -0.7261
   99SAPE  H11Y10011   2.526   0.759   4.949 -1.2575  0.2101  2.8517
   99SAPE  C31210012   2.557   0.978   4.888  1.0255  0.1388 -0.3191
   99SAPE  H12X10013   2.641   0.982   4.960  0.1265  0.9270  0.7156
   99SAPE  H12Y10014   2.500   1.073   4.893  0.9048  0.0362  0.4162
   99SAPE  C31310015   2.625   0.961   4.751 -0.7893  0.2362  0.6665
   99SAPE  H13X10016   2.664   1.060   4.719  0.9561 -1.0674 -1.5301
   99SAPE  H13Y10017   2.543   0.935   4.680 -2.4509  2.2617  1.7394
   99SAPE  C31410018   2.734   0.851   4.749  0.3932 -0.1723 -0.4706
   99SAPE  H14X10019   2.760   0.822   4.853  0.5057 -1.7728 -0.9183
   99SAPE  H14Y10020   2.823   0.894   4.697  0.9081  0.3198  0.7585
   99SAPE  C31510021   2.683   0.730   4.668 -0.4674 -0.4937 -0.5703
   99SAPE  H15X10022   2.640   0.785   4.582 -2.4223 -0.4701  0.3620
   99SAPE  H15Y10023   2.606   0.676   4.728  1.3620 -1.9613  0.5519
   99SAPE  C31610024   2.789   0.640   4.613 -0.0363 -0.0404  0.1074
   99SAPE  H16X10025   2.879   0.692   4.572  0.0967 -1.6229 -1.7423
   99SAPE  H16Y10026   2.755   0.577   4.527  1.5552  0.9529 -1.3119
   99SAPE  C31710027   2.846   0.535   4.708 -0.2853 -0.0692 -0.1742
   99SAPE  H17X10028   2.888   0.582   4.799 -1.5634 -0.4747  0.6481
   99SAPE  H17Y10029   2.924   0.478   4.654  0.7608  0.4734  0.7078
   99SAPE  C31810030   2.747   0.430   4.751 -0.5826 -0.7201 -0.0131
   99SAPE  H18X10031   2.801   0.351   4.807 -0.6318 -1.5357 -1.0879
   99SAPE  H18Y10032   2.691   0.378   4.670 -0.7748  2.3132 -2.0131
   99SAPE  H18Z10033   2.677   0.485   4.818  0.4923 -0.8448  1.2484
  100SAPE     N10034   0.834   6.563   6.606 -0.4803  0.2676  0.1031
  100SAPE   HN110035   0.880   6.633   6.669  0.4767 -0.9956  0.8748
  100SAPE   HN210036   0.909   6.509   6.559 -0.9764 -0.9954  0.7319
  100SAPE   HN310037   0.786   6.611   6.528  2.4620  1.5497 -1.0894
  100SAPE   C1210038   0.725   6.479   6.666  0.2110 -0.2917 -0.2835
  100SAPE  H12A10039   0.639   6.538   6.704  0.4403  0.2301 -0.5575
  100SAPE  H12B10040   0.769   6.422   6.750 -0.6085  1.4761  1.4376
  100SAPE   C1110041   0.670   6.384   6.555 -0.0484  0.0206  0.5353
  100SAPE  H11A10042   0.626   6.444   6.472  1.2009  1.5029  0.9011
  100SAPE  H11B10043   0.585   6.333   6.604 -1.2849  1.3251 -0.1476
  100SAPE     P10044   0.711   6.148   6.456  0.1317  0.2671  0.1335
  100SAPE   O1310045   0.814   6.044   6.473 -0.2464  0.2158  0.3511
  100SAPE   O1410046   0.578   6.116   6.517 -0.7359 -0.2382 -0.3359
  100SAPE   O1210047   0.767   6.289   6.512 -0.3985  0.1317  0.2385
  100SAPE   O1110048   0.692   6.167   6.301  0.0716 -0.4221 -0.0313
  100SAPE    C110049   0.809   6.185   6.219  0.8107 -1.1575 -0.0047
  100SAPE    HA10050   0.898   6.128   6.252  1.5486  0.3807  0.7493
  100SAPE    HB10051   0.783   6.167   6.112  1.2830 -2.6853  0.1140
  100SAPE    C210052   0.856   6.337   6.212 -0.0494 -0.2933 -0.4378
  100SAPE    HS10053   0.875   6.372   6.315 -0.5987 -2.0274  0.2842
  100SAPE   O2110054   0.751   6.417   6.154 -0.1131 -0.3038  0.1674
  100SAPE   C2110055   0.764   6.546   6.181  0.9016 -0.5117  0.1907
  100SAPE   O2210056   0.847   6.595   6.253  0.0917 -0.5389  0.2067
  100SAPE   C2210057   0.661   6.640   6.108  0.8585  0.3588 -0.7589
  100SAPE   H2R10058   0.565   6.588   6.127  1.9900 -1.5720 -0.0836
  100SAPE   H2S10059   0.657   6.727   6.177 -0.0410 -1.2851  1.3620
  100SAPE    C310060   0.984   6.355   6.117 -0.7492  0.1160  0.0329
  100SAPE    HX10061   1.074   6.307   6.161  0.5410 -0.3250 -2.8777
  100SAPE    HY10062   1.018   6.461   6.109  0.5272 -0.1563  1.2699
  100SAPE   O3110063   0.956   6.299   5.982  0.2976 -0.2146  0.0296
  100SAPE   C3110064   0.999   6.366   5.883  0.4333 -0.8765  0.3511
  100SAPE   O3210065   1.087   6.453   5.881 -0.3319 -0.0150  0.2298
  100SAPE   C3210066   0.927   6.312   5.757 -0.6935 -0.8981 -0.0115
  100SAPE   H2X10067   0.818   6.303   5.776 -1.0018 -0.1526 -1.3417
  100SAPE   H2Y10068   0.972   6.210   5.755  2.2624  0.3171 -1.6370
  100SAPE   C2310069   0.704   6.648   5.963  0.0145  0.0559 -0.2383
  100SAPE   H3R10070   0.676   6.547   5.928  0.1520 -0.4003  0.9281
  100SAPE   H3S10071   0.813   6.663   5.955  0.4499 -1.1176  2.4119
  100SAPE   C2410072   0.627   6.750   5.878  0.6556 -0.5298 -0.4928
  100SAPE   H4R10073   0.518   6.742   5.898  0.7399 -1.7061 -0.4243
  100SAPE   H4S10074   0.659   6.722   5.776  0.3972 -2.2505 -0.1340
  100SAPE   C2510075   0.668   6.895   5.910  0.7584 -0.4854 -0.0431
  100SAPE   H5R10076   0.701   6.903   6.015 -0.4046 -1.7501  0.4514
  100SAPE   C2610077   0.666   7.003   5.821  0.3141  0.0745 -0.1429
  100SAPE   H6R10078   0.699   7.101   5.860 -0.2797  0.2971 -0.1859
  100SAPE   C2710079   0.617   7.003   5.677 -0.8033 -0.0584  0.1089
  100SAPE   H7R10080   0.512   6.967   5.667 -0.4751 -0.4690 -2.6068
  100SAPE   H7S10081   0.674   6.933   5.611 -2.1356  1.1314 -2.4630
  100SAPE   C2810082   0.615   7.140   5.619 -0.6857 -0.5609 -0.9357
  100SAPE   H8R10083   0.572   7.214   5.688  1.6700 -0.6206  0.6809
  100SAPE   C2910084   0.670   7.173   5.499  0.8349  0.0089  0.2651
  100SAPE   H9R10085   0.668   7.281   5.477  1.4120  0.3477  1.7276
  100SAPE  C21010086   0.729   7.088   5.398 -0.4347  0.4262  0.1746
  100SAPE  H10R10087   0.655   7.015   5.358 -0.6131  0.2709  0.7725
  100SAPE  H10S10088   0.800   7.019   5.448 -0.3580 -0.1470 -0.7015
  100SAPE  C21110089   0.796   7.166   5.287  0.9905 -0.4435 -0.5062
  100SAPE  H11R10090   0.856   7.250   5.325  2.6382 -1.9712  0.4745
  100SAPE  C21210091   0.794   7.128   5.159  0.1628 -0.2477  0.0003
  100SAPE  H12R10092   0.844   7.187   5.081 -2.5245  2.4452  0.1535
  100SAPE  C21310093   0.715   7.017   5.094 -0.1905 -0.0120 -0.0180
  100SAPE  H13R10094   0.610   7.052   5.109 -0.1023  1.8135 -2.8797
  100SAPE  H13S10095   0.731   6.919   5.144  0.1580  0.4800  0.8584
  100SAPE  C21410096   0.744   6.985   4.945  0.3167  0.0082  0.9247
  100SAPE  H14R10097   0.825   6.912   4.934 -1.0039 -1.3859 -0.0427
  100SAPE  C21510098   0.680   7.029   4.829  0.5289  0.0470 -0.5230
  100SAPE  H15R10099   0.703   6.997   4.726  0.0864 -2.0721 -0.0114
  100SAPE  C21610100   0.571   7.127   4.844  0.6575 -0.1564 -0.1583
  100SAPE  H16R10101   0.552   7.159   4.948 -0.2189  1.7243 -0.8536
  100SAPE  H16S10102   0.475   7.081   4.812 -0.3436  0.1137  2.3080
  100SAPE  C21710103   0.594   7.262   4.770 -0.5482  0.2157 -0.3795
  100SAPE  H17R10104   0.689   7.305   4.806 -2.1364  1.8876  2.0448
  100SAPE  H17S10105   0.519   7.337   4.802  1.1968  1.8184  0.1221
  100SAPE  C21810106   0.596   7.243   4.614 -0.6942  0.1653 -0.3092
  100SAPE  H18R10107   0.495   7.208   4.584 -0.8497  1.0897 -0.8962
  100SAPE  H18S10108   0.658   7.152   4.594 -0.5801 -0.2071  1.5332
  100SAPE  C21910109   0.644   7.373   4.553 -0.9295 -0.1128 -0.3439
  100SAPE  H19R10110   0.750   7.386   4.582 -0.9131 -0.0444 -0.4341
  100SAPE  H19S10111   0.591   7.456   4.605  1.8488  1.3186  0.4287
  100SAPE  C22010112   0.604   7.390   4.412  0.5708  0.2792 -0.1644
  100SAPE  H20R10113   0.622   7.299   4.350 -0.9167 -1.0214  1.2243
  100SAPE  H20S10114   0.656   7.476   4.365 -0.1891  0.8131 -0.0419
  100SAPE  H20T10115   0.495   7.409   4.408  0.4823 -0.3403 -2.1194
  100SAPE   C3310116   0.947   6.385   5.620 -0.0643  0.1479 -0.4655
  100SAPE   H3X10117   0.914   6.310   5.546 -0.2065  0.2488 -0.5055
  100SAPE   H3Y10118   1.052   6.404   5.590  0.1941 -0.4557  0.0324
  100SAPE   C3410119   0.853   6.505   5.609  0.1126 -0.7383 -0.8092
  100SAPE   H4X10120   0.890   6.580   5.682  0.4126  0.6360 -2.3116
  100SAPE   H4Y10121   0.748   6.480   5.636  0.1136  0.8095  0.7726
  100SAPE   C3510122   0.850   6.571   5.466  0.2273  0.3835 -0.0555
  100SAPE   H5X10123   0.829   6.488   5.396 -0.6509 -1.6282  2.4117
  100SAPE   H5Y10124   0.949   6.614   5.444  0.4378 -0.8019 -1.5993
  100SAPE   C3610125   0.743   6.683   5.459  0.4227 -0.4876  0.1401
  100SAPE   H6X10126   0.757   6.747   5.369 -1.0701 -1.2537 -0.6638
  100SAPE   H6Y10127   0.772   6.749   5.544  0.6513 -0.2580 -0.1162
  100SAPE   C3710128   0.599   6.637   5.473 -0.0317 -0.5263 -1.0038
  100SAPE   H7X10129   0.542   6.732   5.466  0.5216  0.1331  1.9876
  100SAPE   H7Y10130   0.575   6.586   5.568  0.4745  0.4736 -0.3216
  100SAPE   C3810131   0.550   6.555   5.353  0.3087  0.3737  0.6385
  100SAPE   H8X10132   0.441   6.535   5.367  0.5453 -0.7892  0.9698
  100SAPE   H8Y10133   0.601   6.457   5.371 -1.3384 -0.6264  0.0762
  100SAPE   C3910134   0.579   6.618   5.224  0.2233  0.5910 -0.4108
  100SAPE   H9X10135   0.689   6.614   5.212  0.1123 -2.0838 -1.1642
  100SAPE   H9Y10136   0.539   6.722   5.224 -1.1542  0.1207  1.5302
  100SAPE  C31010137   0.510   6.548   5.102 -0.4252 -0.3122  0.4777
  100SAPE  H10X10138   0.402   6.561   5.122  0.0658  1.3322  2.2773
  100SAPE  H10Y10139   0.534   6.439   5.105 -0.6663 -0.3544  2.8805
  100SAPE  C31110140   0.548   6.623   4.970  0.5722  0.3771  0.5059
  100SAPE  H11X10141   0.501   6.724   4.971 -1.4246 -0.5189 -0.0118
  100SAPE  H11Y10142   0.493   6.570   4.890 -2.0359  0.8028  1.8891
  100SAPE  C31210143   0.709   6.627   4.949  0.6155 -0.2464  0.0394
  100SAPE  H12X10144   0.739   6.521   4.964 -1.0080 -0.7738 -0.2836
  100SAPE  H12Y10145   0.769   6.690   5.019 -0.4663 -0.0384  0.7947
  100SAPE  C31310146   0.762   6.656   4.805 -0.0103  0.2054 -0.1703
  100SAPE  H13X10147   0.754   6.763   4.775 -0.1811 -0.1683 -1.5245
  100SAPE  H13Y10148   0.680   6.615   4.742 -0.2986  0.5769 -0.0451
  100SAPE  C31410149   0.897   6.588   4.793 -0.1259  0.9588  0.1228
  100SAPE  H14X10150   0.883   6.478   4.785 -1.0157  0.7029  3.5175
  100SAPE  H14Y10151   0.961   6.600   4.883  1.8810 -1.8495 -0.7566
  100SAPE  C31510152   0.975   6.638   4.675 -0.1062 -0.5784 -0.4704
  100SAPE  H15X10153   1.002   6.744   4.694 -1.0670 -0.5412  0.9152
  100SAPE  H15Y10154   0.914   6.641   4.582 -0.8135 -0.8956 -0.0331
  100SAPE  C31610155   1.099   6.551   4.643  0.0469  0.0465 -0.2586
  100SAPE  H16X10156   1.076   6.445   4.618  1.5456 -0.4107  0.1862
  100SAPE  H16Y10157   1.157   6.542   4.737  0.1053  0.1244 -0.2868
  100SAPE  C31710158   1.186   6.608   4.533  0.3907 -0.3105  0.4443
  100SAPE  H17X10159   1.273   6.541   4.523  0.0941 -0.6253 -0.0489
  100SAPE  H17Y10160   1.229   6.706   4.564 -0.6360  0.0476  0.7824
  100SAPE  C31810161   1.112   6.628   4.397 -0.3686 -0.5997  0.6026
  100SAPE  H18X10162   1.059   6.724   4.417  0.5715 -0.4333  2.4749
  100SAPE  H18Y10163   1.034   6.552   4.376 -0.9931 -0.2012  1.4364
  100SAPE  H18Z10164   1.184   6.631   4.313 -0.9165 -0.6490  0.1191
  101SAPE     N10165   5.616   0.665   6.817  0.6698  0.4622 -0.1944
  101SAPE   HN110166   5.697   0.640   6.877 -0.7172 -2.4152  0.6363
  101SAPE   HN210167   5.571   0.574   6.795 -0.2630  0.9470 -0.3650
  101SAPE   HN310168   5.653   0.698   6.725 -1.1208 -1.9906 -1.9322
  101SAPE   C1210169   5.509   0.751   6.875 -0.8952  0.6461  0.1150
  101SAPE  H12A10170   5.475   0.707   6.971 -0.9295 -0.4093 -0.3689
  101SAPE  H12B10171   5.419   0.759   6.810 -0.9485 -0.3717  0.0514
  101SAPE   C1110172   5.567   0.895   6.905  0.3052 -0.3211  0.2218
  101SAPE  H11A10173   5.665   0.872   6.952  0.9652 -1.0413 -1.4264
  101SAPE  H11B10174   5.503   0.956   6.972  0.3426  1.0567 -0.9368
  101SAPE     P10175   5.490   1.060   6.716  0.1686  0.6296  0.2805
  101SAPE   O1310176   5.373   1.066   6.792 -0.3385  0.4199 -0.5536
  101SAPE   O1410177   5.546   1.183   6.661 -0.3991  0.4633  0.7604
  101SAPE   O1210178   5.597   0.970   6.785 -0.1029  0.0832 -0.1693
  101SAPE   O1110179   5.459   0.968   6.588  0.0844  0.3617  0.3943
  101SAPE    C110180   5.349   0.989   6.506 -0.1069  0.3859 -0.3879
  101SAPE    HA10181   5.333   1.099   6.500  0.8411  0.5222 -0.6853
  101SAPE    HB10182   5.375   0.951   6.404 -0.3877 -0.8361 -0.0172
  101SAPE    C210183   5.215   0.924   6.551 -0.3806 -0.6534 -0.1737
  101SAPE    HS10184   5.225   0.910   6.661  1.1925  0.9046 -0.0731
  101SAPE   O2110185   5.192   0.808   6.470 -0.5435  0.4842 -0.6722
  101SAPE   C2110186   5.255   0.691   6.510  0.9081 -0.3194 -0.0398
  101SAPE   O2210187   5.324   0.680   6.613  0.0712  0.8676  0.1165
  101SAPE   C2210188   5.206   0.583   6.404  0.0960 -0.0797  0.4121
  101SAPE   H2R10189   5.138   0.510   6.454  0.2453  0.2296  1.0858
  101SAPE   H2S10190   5.150   0.627   6.319 -0.8110  0.5398  1.2938
  101SAPE    C310191   5.077   1.013   6.539  0.1101 -0.2101  0.8401
  101SAPE    HX10192   5.083   1.090   6.619 -0.2750  1.2712 -0.5112
  101SAPE    HY10193   4.995   0.949   6.578 -0.4970  0.6304  0.9672
  101SAPE   O3110194   5.047   1.066   6.407  0.1802 -0.3298  0.2132
  101SAPE   C3110195   5.089   1.184   6.378 -0.2954 -0.0621  0.6878
  101SAPE   O3210196   5.144   1.272   6.448  0.5711  0.0606  0.5907
  101SAPE   C3210197   5.049   1.210   6.230  0.5475 -0.1735 -0.0550
  101SAPE   H2X10198   5.109   1.301   6.208  0.9792  0.3299  2.7677
  101SAPE   H2Y10199   4.940   1.230   6.227  0.4498 -0.1788  2.1080
  101SAPE   C2310200   5.328   0.510   6.344 -0.5072  0.1615 -0.2566
  101SAPE   H3R10201   5.298   0.408   6.312 -0.3868  0.2980 -0.8107
  101SAPE   H3S10202   5.387   0.492   6.436 -0.6987  1.1001  0.0621
  101SAPE   C2410203   5.403   0.600   6.244 -0.5413 -0.3702 -0.4835
  101SAPE   H4R10204   5.464   0.674   6.301  0.4486 -0.8016 -0.9645
  101SAPE   H4S10205   5.317   0.647   6.192 -2.0421 -0.2924  1.9076
  101SAPE   C2510206   5.505   0.535   6.148 -0.0974 -0.1567 -0.0961
  101SAPE   H5R10207   5.584   0.475   6.196 -0.5669 -0.1564  0.7054
  101SAPE   C2610208   5.489   0.512   6.015 -0.6525  0.2042  0.0738
  101SAPE   H6R10209   5.564   0.451   5.964 -0.5384 -0.2350  0.7479
  101SAPE   C2710210   5.380   0.559   5.930 -0.2208  0.0568 -0.8619
  101SAPE   H7R10211   5.357   0.664   5.957 -0.2749  0.6019 -2.8865
  101SAPE   H7S10212   5.287   0.499   5.944  0.7513 -1.5440 -0.9379
  101SAPE   C2810213   5.410   0.553   5.780 -0.2640 -0.0076  0.3549
  101SAPE   H8R10214   5.406   0.652   5.733  0.2189 -0.7471 -1.3295
  101SAPE   C2910215   5.451   0.447   5.704 -0.1215 -0.1806 -0.5039
  101SAPE   H9R10216   5.469   0.451   5.596  0.1122 -0.3439 -0.4732
  101SAPE  C21010217   5.465   0.309   5.764  0.0678  0.3150 -0.1152
  101SAPE  H10R10218   5.399   0.244   5.703 -1.8070  1.1510  0.9377
  101SAPE  H10S10219   5.428   0.296   5.868 -1.4494 -1.7190 -0.8405
  101SAPE  C21110220   5.613   0.279   5.757 -0.2181  0.4736  0.1031
  101SAPE  H11R10221   5.672   0.339   5.828 -2.5664  1.6191  1.2411
  101SAPE  C21210222   5.674   0.188   5.680 -0.3185 -0.2915  0.4467
  101SAPE  H12R10223   5.782   0.171   5.689 -0.8023 -2.8698  2.8266
  101SAPE  C21310224   5.611   0.097   5.584 -0.1752 -0.2279  0.2885
  101SAPE  H13R10225   5.511   0.064   5.618  0.2660 -0.9656  0.8950
  101SAPE  H13S10226   5.679   0.010   5.594  1.6290  1.0926  0.1421
  101SAPE  C21410227   5.609   0.147   5.441  0.4049 -0.1390 -0.2205
  101SAPE  H14R10228   5.710   0.151   5.398  0.0717  1.6954 -0.9305
  101SAPE  C21510229   5.502   0.189   5.369  0.5404 -0.4898  0.1931
  101SAPE  H15R10230   5.512   0.237   5.271 -0.3517  1.8652  1.1909
  101SAPE  C21610231   5.356   0.195   5.427 -0.1655  0.4970 -0.4158
  101SAPE  H16R10232   5.335   0.295   5.470 -0.4799  0.2840 -0.0661
  101SAPE  H16S10233   5.334   0.121   5.507  0.0262  0.9420  0.0498
  101SAPE  C21710234   5.247   0.187   5.320 -0.3647  0.4832  0.2279
  101SAPE  H17R10235   5.259   0.094   5.260 -0.6066 -0.1745  1.1674
  101SAPE  H17S10236   5.248   0.279   5.258 -0.0920  0.7308  0.5924
  101SAPE  C21810237   5.111   0.180   5.393 -0.1482  0.7821 -0.2034
  101SAPE  H18R10238   5.103   0.270   5.458  0.2494  0.9644 -0.4069
  101SAPE  H18S10239   5.120   0.084   5.448  1.0392  2.2962  2.4678
  101SAPE  C21910240   4.993   0.181   5.294  0.0586  0.5286 -0.1733
  101SAPE  H19R10241   5.008   0.088   5.235  1.4182  0.6634 -0.0746
  101SAPE  H19S10242   5.012   0.258   5.217  0.9160  1.4527  0.9221
  101SAPE  C22010243   4.855   0.179   5.351  0.2171 -0.4640 -0.2727
  101SAPE  H20R10244   4.845   0.095   5.423 -0.0848 -1.4404 -1.4243
  101SAPE  H20S10245   4.778   0.168   5.272 -0.4605 -2.9186  0.6191
  101SAPE  H20T10246   4.834   0.271   5.410 -2.0647 -0.7381 -0.5722
  101SAPE   C3310247   5.098   1.096   6.134 -0.4224  0.8572 -0.7098
  101SAPE   H3X10248   5.047   1.092   6.035  0.7368 -0.8847 -1.2892
  101SAPE   H3Y10249   5.052   1.013   6.191  0.4379  0.9212  0.0892
  101SAPE   C3410250   5.255   1.088   6.115 -0.3643  0.0866  0.3621
  101SAPE   H4X10251   5.279   1.001   6.049  1.4739  2.9003 -3.0384
  101SAPE   H4Y10252   5.312   1.071   6.209  1.4711 -1.3430 -0.9271
  101SAPE   C3510253   5.304   1.217   6.048 -0.5395 -0.3187  0.0089
  101SAPE   H5X10254   5.408   1.209   6.012 -0.7184  0.4679 -0.7339
  101SAPE   H5Y10255   5.303   1.299   6.123 -0.7436 -0.0319 -0.2995
  101SAPE   C3610256   5.219   1.264   5.927 -0.0249 -0.5973 -0.4282
  101SAPE   H6X10257   5.277   1.345   5.877 -1.2972  1.0608  0.6514
  101SAPE   H6Y10258   5.125   1.310   5.964 -0.3483  2.9348 -4.8635
  101SAPE   C3710259   5.182   1.159   5.820  0.5782 -0.2550 -0.3121
  101SAPE   H7X10260   5.119   1.080   5.865  1.0312 -0.4349  0.0166
  101SAPE   H7Y10261   5.273   1.103   5.788  0.8486  0.9049 -1.6837
  101SAPE   C3810262   5.124   1.212   5.693 -0.5995 -0.1125  0.2889
  101SAPE   H8X10263   5.200   1.270   5.635 -0.4511 -0.7664 -0.1746
  101SAPE   H8Y10264   5.042   1.281   5.724  0.8484  1.5932  0.5188
  101SAPE   C3910265   5.068   1.099   5.601  0.0210 -0.6486 -0.5346
  101SAPE   H9X10266   4.970   1.070   5.644  0.2514  1.0652  1.2712
  101SAPE   H9Y10267   5.126   1.005   5.596 -0.3709 -0.8941 -0.4741
  101SAPE  C31010268   5.055   1.153   5.463 -0.0611 -0.5014 -0.0960
  101SAPE  H10X10269   5.148   1.197   5.421  0.6408 -0.0863  1.8134
  101SAPE  H10Y10270   4.974   1.228   5.478 -0.6144 -1.1334  0.1429
  101SAPE  C31110271   4.996   1.061   5.349 -0.2781 -0.0512 -0.3847
  101SAPE  H11X10272   4.901   1.016   5.383  0.0176 -1.0287 -0.8021
  101SAPE  H11Y10273   5.064   0.974   5.334 -0.1539 -0.1842  0.8049
  101SAPE  C31210274   4.964   1.132   5.220  0.4223  0.1271  0.6241
  101SAPE  H12X10275   5.033   1.215   5.193 -0.7697  0.4356 -1.8534
  101SAPE  H12Y10276   4.862   1.177   5.230  0.1769  0.1058 -1.2639
  101SAPE  C31310277   4.942   1.017   5.110 -0.7811 -0.6961 -0.0594
  101SAPE  H13X10278   4.873   0.939   5.151 -0.5869 -1.4942 -1.2205
  101SAPE  H13Y10279   5.037   0.961   5.100 -0.9836 -0.9288 -0.6974
  101SAPE  C31410280   4.890   1.064   4.977 -0.2168 -0.3752 -0.1405
  101SAPE  H14X10281   4.944   1.157   4.945  3.3049 -1.8736  0.9045
  101SAPE  H14Y10282   4.783   1.085   4.998 -0.7337 -2.4467 -0.5110
  101SAPE  C31510283   4.901   0.962   4.861 -0.6069  0.0739 -0.5033
  101SAPE  H15X10284   4.860   0.861   4.882  0.4698 -0.5164 -1.1279
  101SAPE  H15Y10285   5.006   0.941   4.830  0.4723 -1.1179  3.4033
  101SAPE  C31610286   4.817   1.015   4.743  0.0892 -0.1199  0.6684
  101SAPE  H16X10287   4.859   1.106   4.696  0.7815 -0.5788  0.3993
  101SAPE  H16Y10288   4.720   1.040   4.792 -0.4502  0.6911 -0.7698
  101SAPE  C31710289   4.788   0.910   4.642  0.0344 -0.2900 -0.4936
  101SAPE  H17X10290   4.709   0.947   4.573  0.8643  1.3088 -0.6336
  101SAPE  H17Y10291   4.747   0.815   4.683 -0.1267  0.0147  0.0648
  101SAPE  C31810292   4.920   0.883   4.560  0.6767  0.1557 -0.3200
  101SAPE  H18X10293   4.987   0.821   4.624 -0.2709  0.2781  0.8266
  101SAPE  H18Y10294   4.973   0.976   4.532  2.2229 -0.4972  0.3110
  101SAPE  H18Z10295   4.905   0.831   4.463  2.8301  2.3188 -1.9492
  102SAPE     N10296   3.416   2.429   6.703  0.4580 -0.4689 -0.2050
  102SAPE   HN110297   3.447   2.433   6.604 -2.3023  2.1764 -1.0959
  102SAPE   HN210298   3.324   2.477   6.707  0.7336  0.0696 -0.1238
  102SAPE   HN310299   3.484   2.477   6.766  0.1697 -0.9784  0.5111
  102SAPE   C1210300   3.392   2.289   6.735  0.0766  0.2222 -0.2949
  102SAPE  H12A10301   3.304   2.261   6.674 -1.0816  0.5243  1.1935
  102SAPE  H12B10302   3.363   2.279   6.841 -1.5957  2.8514 -0.4204
  102SAPE   C1110303   3.514   2.196   6.702 -0.6504  0.1648  0.3258
  102SAPE  H11A10304   3.519   2.169   6.594  1.0852  1.2549  0.0920
  102SAPE  H11B10305   3.491   2.094   6.741 -1.3233 -0.3322 -1.2733
  102SAPE     P10306   3.763   2.156   6.773 -0.1802  0.0410 -0.0152
  102SAPE   O1310307   3.880   2.245   6.776  0.6195 -0.1620  0.2194
  102SAPE   O1410308   3.742   2.086   6.899 -0.4310  0.0529 -0.0325
  102SAPE   O1210309   3.639   2.249   6.749 -0.2289 -0.0253  0.1283
  102SAPE   O1110310   3.781   2.064   6.650  0.5914  0.6868 -0.2201
  102SAPE    C110311   3.778   1.920   6.667  0.8627 -0.1301  0.2616
  102SAPE    HA10312   3.872   1.880   6.712  0.3110 -0.3839  1.2172
  102SAPE    HB10313   3.691   1.895   6.732  0.4413  3.6829  1.4215
  102SAPE    C210314   3.744   1.861   6.518 -0.5279 -0.1597 -0.3217
  102SAPE    HS10315   3.770   1.753   6.515  2.2636  0.3885  0.7519
  102SAPE   O2110316   3.810   1.937   6.422 -0.2168 -0.0337  0.0376
  102SAPE   C2110317   3.945   1.920   6.414  0.6177  0.4150 -0.5497
  102SAPE   O2210318   4.006   1.826   6.461  0.0786  0.2721 -0.4684
  102SAPE   C2210319   4.020   2.035   6.348  0.3965 -0.2808 -0.3502
  102SAPE   H2R10320   3.952   2.096   6.284 -2.2051 -0.2433  2.2645
  102SAPE   H2S10321   4.075   2.085   6.430  1.1613 -0.9131 -0.4699
  102SAPE    C310322   3.589   1.846   6.485 -0.3671 -0.6387 -0.5718
  102SAPE    HX10323   3.533   1.939   6.509 -0.5321 -0.6526 -0.8948
  102SAPE    HY10324   3.551   1.769   6.556 -0.2027 -0.0072  0.2203
  102SAPE   O3110325   3.567   1.787   6.363  0.2254  0.2586 -0.1008
  102SAPE   C3110326   3.535   1.874   6.261 -0.2313  0.5057  0.1257
  102SAPE   O3210327   3.531   1.997   6.273  1.0663  0.0255 -0.1748
  102SAPE   C3210328   3.507   1.799   6.135  0.8330 -0.3971 -0.0845
  102SAPE   H2X10329   3.397   1.789   6.123  0.7479  0.5702 -0.1696
  102SAPE   H2Y10330   3.558   1.701   6.132  0.2174 -0.7088 -0.6502
  102SAPE   C2310331   4.127   1.966   6.253  0.1523 -0.1836  0.0108
  102SAPE   H3R10332   4.082   1.887   6.189  1.0130  0.7603 -1.8414
  102SAPE   H3S10333   4.205   1.925   6.321  1.4928  1.5380 -0.4212
  102SAPE   C2410334   4.198   2.067   6.160  0.4523 -0.7873  0.1304
  102SAPE   H4R10335   4.249   2.155   6.205  0.3043  0.6143 -2.2616
  102SAPE   H4S10336   4.114   2.110   6.101  0.8060 -0.8276 -0.4131
  102SAPE   C2510337   4.308   2.003   6.075  0.5249 -0.1896  0.1789
  102SAPE   H5R10338   4.386   1.952   6.133 -1.5489 -1.1303  2.3596
  102SAPE   C2610339   4.298   1.990   5.940 -0.0996 -0.4607 -0.2350
  102SAPE   H6R10340   4.379   1.933   5.891  0.3189  0.0056 -0.0918
  102SAPE   C2710341   4.187   2.043   5.854 -0.0948 -0.3477  0.1904
  102SAPE   H7R10342   4.177   2.149   5.886 -0.3889  0.7396 -3.1097
  102SAPE   H7S10343   4.091   1.996   5.882  0.2155 -0.2377  1.4830
  102SAPE   C2810344   4.212   2.050   5.702  0.1972  0.4174  0.1163
  102SAPE   H8R10345   4.314   2.017   5.676 -0.0637 -3.2934  2.8584
  102SAPE   C2910346   4.124   2.081   5.599 -0.4499  0.2754  0.1786
  102SAPE   H9R10347   4.152   2.088   5.493  0.9620  2.1730  0.6153
  102SAPE  C21010348   3.986   2.125   5.623 -0.5271  0.3574 -0.1111
  102SAPE  H10R10349   3.985   2.221   5.679 -0.6371 -0.2347  0.9231
  102SAPE  H10S10350   3.937   2.055   5.694  1.4257  0.9264  1.9077
  102SAPE  C21110351   3.906   2.133   5.490 -0.8251  0.3450 -0.5645
  102SAPE  H11R10352   3.870   2.035   5.456 -0.4280 -0.4946  1.3093
  102SAPE  C21210353   3.888   2.228   5.398 -0.5700 -0.0812 -0.1664
  102SAPE  H12R10354   3.809   2.203   5.326 -0.4706 -1.9354  0.3111
  102SAPE  C21310355   3.947   2.368   5.395 -0.6112  0.5435  0.2649
  102SAPE  H13R10356   3.995   2.374   5.295  0.3806 -1.9367  0.5323
  102SAPE  H13S10357   4.030   2.377   5.468 -0.9344  0.2807  0.6718
  102SAPE  C21410358   3.842   2.481   5.413  0.4237  0.2927  0.0442
  102SAPE  H14R10359   3.783   2.475   5.505 -0.5709 -1.0621 -0.6400
  102SAPE  C21510360   3.798   2.574   5.320  0.3142  0.0605 -0.5030
  102SAPE  H15R10361   3.717   2.642   5.352  1.3213  0.2915  1.7722
  102SAPE  C21610362   3.841   2.579   5.178 -1.2322  0.5419 -0.6230
  102SAPE  H16R10363   3.950   2.556   5.174 -1.1723  0.8876 -1.1697
  102SAPE  H16S10364   3.831   2.682   5.138  1.8907  0.9834 -0.4851
  102SAPE  C21710365   3.774   2.473   5.092  0.9055 -0.0951  0.4806
  102SAPE  H17R10366   3.664   2.486   5.091  0.7340 -1.2343 -1.6705
  102SAPE  H17S10367   3.787   2.374   5.140  0.0312  0.8846  2.8818
  102SAPE  C21810368   3.815   2.466   4.945  0.0969 -0.3961 -0.0099
  102SAPE  H18R10369   3.911   2.411   4.931 -0.9087 -2.8438  1.9164
  102SAPE  H18S10370   3.828   2.570   4.908 -0.1194 -0.9117 -1.6171
  102SAPE  C21910371   3.715   2.385   4.850 -0.2125  0.2136  0.3297
  102SAPE  H19R10372   3.727   2.412   4.743  1.7870 -4.1957 -0.7967
  102SAPE  H19S10373   3.614   2.420   4.880  0.1899  0.1509  1.8397
  102SAPE  C22010374   3.720   2.234   4.842 -0.3319 -0.3974  0.2879
  102SAPE  H20R10375   3.697   2.185   4.939  1.1892 -2.5211 -0.3430
  102SAPE  H20S10376   3.824   2.207   4.813 -0.5399  0.9810 -2.0362
  102SAPE  H20T10377   3.648   2.207   4.762  2.7035  1.9677 -3.6606
  102SAPE   C3310378   3.554   1.880   6.011 -0.1626 -0.3127  0.4806
  102SAPE   H3X10379   3.656   1.915   6.039 -0.5901 -1.0387  3.2057
  102SAPE   H3Y10380   3.489   1.969   5.999 -0.7110 -0.6421  0.9643
  102SAPE   C3410381   3.549   1.791   5.884 -0.2725  0.0994  0.3586
  102SAPE   H4X10382   3.455   1.736   5.864 -0.5393  0.9517 -0.8740
  102SAPE   H4Y10383   3.629   1.715   5.898 -1.7787 -1.7569 -0.7099
  102SAPE   C3510384   3.580   1.861   5.752  0.1382  0.4435 -0.3285
  102SAPE   H5X10385   3.630   1.792   5.682 -0.7509 -0.6976  0.1209
  102SAPE   H5Y10386   3.647   1.950   5.754  0.2563  0.3447  0.2926
  102SAPE   C3610387   3.457   1.903   5.678  0.0393 -0.3346  0.1179
  102SAPE   H6X10388   3.415   1.984   5.742 -0.3524 -1.3094  1.1293
  102SAPE   H6Y10389   3.393   1.815   5.659  1.6265 -1.6575  0.6250
  102SAPE   C3710390   3.486   1.966   5.545  0.4042 -0.4949  0.1765
  102SAPE   H7X10391   3.588   2.010   5.541  0.2870 -0.3149 -1.6732
  102SAPE   H7Y10392   3.422   2.056   5.532  1.5018  0.1667 -0.8735
  102SAPE   C3810393   3.473   1.868   5.429  0.0937 -0.8791  0.1515
  102SAPE   H8X10394   3.369   1.830   5.419  0.5342 -2.1518  0.2224
  102SAPE   H8Y10395   3.547   1.785   5.437  1.2777  0.2743  1.8117
  102SAPE   C3910396   3.530   1.930   5.292  0.5894  0.5473  0.0006
  102SAPE   H9X10397   3.531   2.041   5.306  0.6845  0.4205  0.9983
  102SAPE   H9Y10398   3.465   1.881   5.216  0.4070  1.5337 -0.4995
  102SAPE  C31010399   3.664   1.870   5.269 -0.5559  0.3071  0.4579
  102SAPE  H10X10400   3.668   1.760   5.261  0.0455  0.3951 -0.7647
  102SAPE  H10Y10401   3.729   1.894   5.356 -1.9214 -1.9823  2.2361
  102SAPE  C31110402   3.726   1.927   5.141  0.1474  0.0786  0.1445
  102SAPE  H11X10403   3.747   2.034   5.158  1.8425 -0.3481  0.8674
  102SAPE  H11Y10404   3.649   1.916   5.061  0.6589  1.9638 -0.6484
  102SAPE  C31210405   3.859   1.856   5.106  0.3464  0.5122  0.8839
  102SAPE  H12X10406   3.830   1.758   5.062  0.8779  0.0066  1.6482
  102SAPE  H12Y10407   3.933   1.840   5.187  2.4150  0.9079 -0.8359
  102SAPE  C31310408   3.940   1.925   4.987 -0.1720  0.7176  0.0607
  102SAPE  H13X10409   3.893   1.927   4.886 -0.8534  0.5512  0.3675
  102SAPE  H13Y10410   4.022   1.851   4.974  1.2062  1.7735  2.1168
  102SAPE  C31410411   3.996   2.061   5.026 -0.3399 -0.3363 -0.2148
  102SAPE  H14X10412   3.915   2.128   5.061 -0.3007 -0.5768  0.3558
  102SAPE  H14Y10413   4.047   2.103   4.937  0.2473  1.0551  0.7522
  102SAPE  C31510414   4.097   2.056   5.142 -0.6153  0.1687 -0.4255
  102SAPE  H15X10415   4.045   2.023   5.235 -0.4522 -0.9126 -0.7155
  102SAPE  H15Y10416   4.125   2.163   5.158 -2.7369  1.0124 -1.8939
  102SAPE  C31610417   4.230   1.973   5.110 -0.0751  0.5659  0.6080
  102SAPE  H16X10418   4.285   2.015   5.023  0.2726 -0.4820  0.3178
  102SAPE  H16Y10419   4.205   1.866   5.093  4.6806 -1.2379  3.0660
  102SAPE  C31710420   4.328   1.968   5.228  0.0840 -0.3605  0.0285
  102SAPE  H17X10421   4.414   1.900   5.212 -0.0281 -0.4530 -0.1770
  102SAPE  H17Y10422   4.272   1.919   5.311  0.1776  2.0205  1.6181
  102SAPE  C31810423   4.376   2.106   5.279 -0.3949  0.4825 -0.1426
  102SAPE  H18X10424   4.295   2.180   5.295 -1.4563 -0.4006 -1.1871
  102SAPE  H18Y10425   4.446   2.157   5.209 -0.1843 -0.5617 -0.7206
  102SAPE  H18Z10426   4.421   2.098   5.380 -1.0850 -1.6681  0.0516
  103SAPE     N10427   4.055   3.977   2.347  0.0593  0.0667 -0.6271
  103SAPE   HN110428   3.993   3.913   2.401  2.0228  1.5437  3.8701
  103SAPE   HN210429   4.113   4.034   2.412  0.2154  2.0054 -2.3635
  103SAPE   HN310430   4.007   4.050   2.291  0.0137 -0.0119 -0.6906
  103SAPE   C1210431   4.133   3.905   2.242 -0.2015 -0.0312 -0.7093
  103SAPE  H12A10432   4.238   3.939   2.252 -0.1744  0.6325 -2.7540
  103SAPE  H12B10433   4.092   3.943   2.146 -0.9233  0.8268 -0.0734
  103SAPE   C1110434   4.132   3.752   2.262  0.3058 -0.2026  0.1634
  103SAPE  H11A10435   4.181   3.694   2.181  0.5783  1.6789 -1.0658
  103SAPE  H11B10436   4.035   3.697   2.255  1.3860 -2.1889  0.1359
  103SAPE     P10437   4.182   3.573   2.461  0.1215 -0.2264 -0.1991
  103SAPE   O1310438   4.044   3.531   2.485 -0.4219  0.0797 -0.2891
  103SAPE   O1410439   4.262   3.477   2.382  0.4760  0.3155 -0.3062
  103SAPE   O1210440   4.181   3.716   2.390 -0.0980 -0.0257  0.0313
  103SAPE   O1110441   4.244   3.598   2.609  0.3485 -0.1662 -0.3238
  103SAPE    C110442   4.221   3.716   2.689  0.3582  0.6220 -0.4020
  103SAPE    HA10443   4.191   3.812   2.641 -0.1981  0.9184  0.5181
  103SAPE    HB10444   4.160   3.689   2.778  0.2102 -0.0145 -0.6968
  103SAPE    C210445   4.358   3.761   2.755  0.1920  0.3722  0.0844
  103SAPE    HS10446   4.428   3.772   2.669  1.0134  0.0084  0.6924
  103SAPE   O2110447   4.401   3.660   2.842  0.2098  0.1646  0.2345
  103SAPE   C2110448   4.524   3.649   2.862 -0.1165  0.0045  0.4663
  103SAPE   O2210449   4.612   3.720   2.809 -0.0072  0.1377 -0.2232
  103SAPE   C2210450   4.543   3.527   2.951 -0.7709 -0.8315 -0.6320
  103SAPE   H2R10451   4.477   3.531   3.040  1.8175 -0.2627  1.3439
  103SAPE   H2S10452   4.514   3.444   2.882  1.0704  0.8542 -3.6789
  103SAPE    C310453   4.350   3.900   2.843 -0.3513  0.6569 -0.6929
  103SAPE    HX10454   4.317   3.978   2.771 -0.9789  1.5001  0.4713
  103SAPE    HY10455   4.457   3.922   2.864 -0.1075  0.1295 -1.3350
  103SAPE   O3110456   4.278   3.890   2.965 -0.3494  0.3403 -0.3516
  103SAPE   C3110457   4.156   3.931   2.963  0.0404 -0.7151 -0.0690
  103SAPE   O3210458   4.104   3.990   2.869 -0.2930  0.0426 -0.0018
  103SAPE   C3210459   4.085   3.908   3.099  0.3142 -0.8089  0.5109
  103SAPE   H2X10460   4.170   3.941   3.163 -0.4220  4.4821 -0.7693
  103SAPE   H2Y10461   4.073   3.799   3.115  1.1410 -1.0898 -0.6724
  103SAPE   C2310462   4.694   3.509   2.983  0.4222  0.8200  0.3649
  103SAPE   H3R10463   4.759   3.545   2.900 -2.2882  2.6592 -1.1080
  103SAPE   H3S10464   4.730   3.404   2.992  0.4468  0.8002  0.0473
  103SAPE   C2410465   4.745   3.581   3.101  0.0750 -0.3466 -0.0953
  103SAPE   H4R10466   4.855   3.566   3.103  0.2080  0.5873 -0.0437
  103SAPE   H4S10467   4.710   3.521   3.187 -0.7135 -1.4616 -1.1659
  103SAPE   C2510468   4.718   3.723   3.103 -0.0151 -0.4762  0.3015
  103SAPE   H5R10469   4.771   3.772   3.019  0.6744 -0.7297  0.5800
  103SAPE   C2610470   4.636   3.787   3.188  0.4857 -0.0772 -0.2770
  103SAPE   H6R10471   4.633   3.897   3.182  1.0685 -0.0999 -1.2192
  103SAPE   C2710472   4.552   3.727   3.299 -0.0636 -0.0302 -0.6706
  103SAPE   H7R10473   4.538   3.617   3.290  2.6379 -0.7914  2.7185
  103SAPE   H7S10474   4.450   3.772   3.299 -0.7250 -1.4307  1.1205
  103SAPE   C2810475   4.628   3.746   3.426 -0.4776 -1.4111  0.5418
  103SAPE   H8R10476   4.720   3.686   3.434  0.2180 -0.5080 -0.3644
  103SAPE   C2910477   4.596   3.840   3.516 -0.3155 -0.9899 -0.6752
  103SAPE   H9R10478   4.655   3.845   3.609 -2.8909  3.7317  1.0606
  103SAPE  C21010479   4.469   3.924   3.523 -0.2353 -0.3411 -0.2113
  103SAPE  H10R10480   4.422   3.921   3.422  0.4667 -0.1344 -0.5537
  103SAPE  H10S10481   4.493   4.030   3.541 -0.3353 -0.6079  1.6471
  103SAPE  C21110482   4.384   3.865   3.639  0.1594 -0.5202  0.3987
  103SAPE  H11R10483   4.308   3.791   3.611  0.0803 -0.5932  0.7890
  103SAPE  C21210484   4.396   3.889   3.766 -0.0197 -0.4177 -0.5167
  103SAPE  H12R10485   4.322   3.844   3.833  1.5396 -0.4262  1.2957
  103SAPE  C21310486   4.508   3.963   3.833  0.1583  0.2670  0.2412
  103SAPE  H13R10487   4.459   4.039   3.897  2.8990  0.5560  2.1765
  103SAPE  H13S10488   4.576   3.995   3.752 -1.0420 -2.0118 -1.7963
  103SAPE  C21410489   4.581   3.867   3.923  0.6247  0.0922 -0.1960
  103SAPE  H14R10490   4.649   3.795   3.876  0.5212  0.1276 -0.4040
  103SAPE  C21510491   4.574   3.861   4.059  0.3566 -0.3267  0.0689
  103SAPE  H15R10492   4.635   3.786   4.111 -0.4790 -0.8922  0.2496
  103SAPE  C21610493   4.500   3.948   4.157 -0.4969 -0.1366  0.3332
  103SAPE  H16R10494   4.457   3.869   4.222 -1.5282  1.0187  1.0997
  103SAPE  H16S10495   4.418   4.008   4.114 -1.1999 -1.3998 -0.1567
  103SAPE  C21710496   4.592   4.046   4.232 -0.2580 -0.0939 -0.8811
  103SAPE  H17R10497   4.651   4.104   4.158 -0.2603 -0.1635 -0.9374
  103SAPE  H17S10498   4.670   3.995   4.293  0.3919  0.6674 -1.0606
  103SAPE  C21810499   4.515   4.146   4.320  0.5282 -0.4150 -0.3093
  103SAPE  H18R10500   4.476   4.095   4.411  0.1005  0.0937 -0.2017
  103SAPE  H18S10501   4.449   4.209   4.256  1.6293  1.2710  0.1595
  103SAPE  C21910502   4.610   4.254   4.378 -0.3191 -0.3668  0.2132
  103SAPE  H19R10503   4.697   4.212   4.432  0.7954  0.3490 -0.9817
  103SAPE  H19S10504   4.541   4.306   4.448 -1.9519  0.1869 -1.6946
  103SAPE  C22010505   4.665   4.352   4.275  0.1432 -0.1010 -0.6339
  103SAPE  H20R10506   4.580   4.404   4.226  0.2885  0.9374  0.1700
  103SAPE  H20S10507   4.740   4.309   4.206  0.9573 -1.0349  0.7728
  103SAPE  H20T10508   4.729   4.427   4.327 -0.3847 -0.2042  0.1844
  103SAPE   C3310509   3.955   3.992   3.121  0.5832 -0.2162 -0.3435
  103SAPE   H3X10510   3.879   3.967   3.044 -0.1288  1.2412 -0.1411
  103SAPE   H3Y10511   3.979   4.095   3.089 -0.6374 -0.4560 -2.1983
  103SAPE   C3410512   3.884   3.998   3.264 -0.3661 -0.1462  0.2940
  103SAPE   H4X10513   3.848   3.899   3.298  0.6369 -0.5165  0.3244
  103SAPE   H4Y10514   3.799   4.067   3.246  1.9480  2.2168 -2.7688
  103SAPE   C3510515   3.977   4.056   3.370  0.0633  0.8181  0.0947
  103SAPE   H5X10516   3.980   4.167   3.365 -0.6522  1.1273  3.8138
  103SAPE   H5Y10517   4.086   4.043   3.350  0.1032  1.5756 -0.2077
  103SAPE   C3610518   3.943   4.018   3.511  0.1519 -0.4357  0.6246
  103SAPE   H6X10519   4.017   4.060   3.583  0.5101 -0.2632  0.1597
  103SAPE   H6Y10520   3.944   3.907   3.520  0.2658 -0.4665  0.2555
  103SAPE   C3710521   3.802   4.060   3.549 -0.4417  0.0358 -0.2893
  103SAPE   H7X10522   3.723   4.012   3.488  0.9625 -0.3996 -1.8203
  103SAPE   H7Y10523   3.791   4.170   3.534  2.3327  0.4149 -0.1392
  103SAPE   C3810524   3.783   4.035   3.699  0.3935  0.1681  0.2369
  103SAPE   H8X10525   3.876   4.073   3.748  0.4087 -0.5316  0.7742
  103SAPE   H8Y10526   3.775   3.924   3.708 -0.1840  0.0787 -1.1167
  103SAPE   C3910527   3.656   4.098   3.767  0.0296 -0.2761 -0.4129
  103SAPE   H9X10528   3.570   4.033   3.737 -1.0994  0.4734  1.0360
  103SAPE   H9Y10529   3.646   4.206   3.746 -0.6243 -0.0864  0.7520
  103SAPE  C31010530   3.682   4.100   3.924  0.0320 -0.3031  0.5177
  103SAPE  H10X10531   3.772   4.164   3.932 -0.7899  0.9807 -0.2122
  103SAPE  H10Y10532   3.719   3.997   3.947 -2.3469 -1.4941 -0.6457
  103SAPE  C31110533   3.584   4.154   4.020 -0.5595  0.1959  0.1262
  103SAPE  H11X10534   3.574   4.263   4.003 -1.3236  0.0794 -0.2359
  103SAPE  H11Y10535   3.618   4.137   4.124 -1.5491  1.0473  0.6161
  103SAPE  C31210536   3.455   4.081   4.006  0.0152 -0.2810  0.2440
  103SAPE  H12X10537   3.469   3.973   4.029 -0.8951 -0.9432 -2.0977
  103SAPE  H12Y10538   3.417   4.079   3.902 -0.2433 -1.9279  0.3541
  103SAPE  C31310539   3.346   4.150   4.094  0.2960  1.0043 -0.4616
  103SAPE  H13X10540   3.248   4.127   4.047  0.6791 -0.1553 -0.7282
  103SAPE  H13Y10541   3.368   4.258   4.098 -0.5335  1.1457  2.0569
  103SAPE  C31410542   3.362   4.103   4.241  0.2310  1.0728 -0.4791
  103SAPE  H14X10543   3.460   4.133   4.284 -0.7296  0.3418  2.4547
  103SAPE  H14Y10544   3.340   3.994   4.234 -1.6556  1.3560  0.4904
  103SAPE  C31510545   3.261   4.171   4.337 -0.2018  0.3550 -0.6717
  103SAPE  H15X10546   3.225   4.083   4.393  3.4078  0.1166  1.5647
  103SAPE  H15Y10547   3.175   4.217   4.284  0.8374  1.4753 -1.4642
  103SAPE  C31610548   3.320   4.260   4.455  0.0416 -0.1768 -0.0609
  103SAPE  H16X10549   3.415   4.311   4.429 -1.1214  1.9363 -0.4296
  103SAPE  H16Y10550   3.346   4.197   4.543  0.0280 -0.8169 -0.5086
  103SAPE  C31710551   3.213   4.366   4.501 -0.5200  0.2693  0.6205
  103SAPE  H17X10552   3.111   4.324   4.488  0.0251 -0.2540 -3.1383
  103SAPE  H17Y10553   3.219   4.446   4.424 -0.9839  1.7636  2.0819
  103SAPE  C31810554   3.242   4.434   4.635 -0.0718  0.1776  0.1605
  103SAPE  H18X10555   3.241   4.360   4.718 -2.5094 -1.0154 -0.8060
  103SAPE  H18Y10556   3.171   4.515   4.663 -1.1541 -0.5772 -0.3078
  103SAPE  H18Z10557   3.347   4.470   4.631 -0.1585  0.4043 -0.0780
  104SAPE     N10558   3.137   4.336   2.271 -0.0732  0.7947 -0.3277
  104SAPE   HN110559   3.197   4.250   2.266 -0.7026  0.0776  2.7097
  104SAPE   HN210560   3.048   4.306   2.314  0.4179  0.0591  0.2073
  104SAPE   HN310561   3.119   4.368   2.173 -0.1024 -0.3859 -0.7311
  104SAPE   C1210562   3.206   4.445   2.352  0.6754 -0.5746  0.5768
  104SAPE  H12A10563   3.307   4.454   2.307  0.1788 -0.3537 -0.5635
  104SAPE  H12B10564   3.219   4.410   2.456 -0.1889  1.2929  1.3637
  104SAPE   C1110565   3.124   4.566   2.337  0.0940  0.3821 -0.2343
  104SAPE  H11A10566   3.099   4.583   2.231  0.5220  1.0617 -0.2355
  104SAPE  H11B10567   3.178   4.648   2.390 -0.7768  0.7340  0.1231
  104SAPE     P10568   2.908   4.680   2.400  0.1263  0.0674  0.3147
  104SAPE   O1310569   2.968   4.785   2.483  0.5606  0.8310  0.1897
  104SAPE   O1410570   2.876   4.703   2.257  0.2049  0.2590  0.1042
  104SAPE   O1210571   2.999   4.548   2.405  0.1767  0.1490 -0.4031
  104SAPE   O1110572   2.776   4.634   2.473 -0.0369  0.0024  0.4814
  104SAPE    C110573   2.754   4.497   2.502 -0.9763 -0.4441 -0.4211
  104SAPE    HA10574   2.669   4.452   2.446 -1.4402 -2.0288  1.4383
  104SAPE    HB10575   2.838   4.428   2.478 -0.9628 -1.7415  2.8654
  104SAPE    C210576   2.735   4.486   2.660 -1.0202  0.4720 -0.1877
  104SAPE    HS10577   2.644   4.544   2.687 -0.2103  1.1055  1.3284
  104SAPE   O2110578   2.856   4.535   2.728  0.0329  0.2386  0.0348
  104SAPE   C2110579   2.828   4.599   2.842 -0.3761 -0.3636 -0.1005
  104SAPE   O2210580   2.722   4.638   2.891 -0.8198 -0.1605  0.2589
  104SAPE   C2210581   2.968   4.626   2.905 -0.2699  0.1892 -0.4056
  104SAPE   H2R10582   3.011   4.525   2.922 -0.4311  0.0177 -1.0029
  104SAPE   H2S10583   3.022   4.683   2.827  0.8055  0.2745  0.3827
  104SAPE    C310584   2.709   4.340   2.702 -0.3642  0.4445  0.1324
  104SAPE    HX10585   2.808   4.303   2.669  0.7536  2.6135  0.8411
  104SAPE    HY10586   2.626   4.306   2.637  0.0980  1.2531 -0.9219
  104SAPE   O3110587   2.696   4.324   2.845 -0.3617  0.2929 -0.2782
  104SAPE   C3110588   2.577   4.334   2.896  0.3966 -0.2755  0.2068
  104SAPE   O3210589   2.479   4.347   2.825  0.0018 -0.2153  0.5753
  104SAPE   C3210590   2.582   4.330   3.048  0.1083  0.5245 -0.3496
  104SAPE   H2X10591   2.684   4.357   3.083  1.2608 -1.2076 -2.1582
  104SAPE   H2Y10592   2.562   4.224   3.076 -0.6323  0.4392 -1.1524
  104SAPE   C2310593   2.962   4.710   3.037 -0.0746 -0.0571  0.3059
  104SAPE   H3R10594   3.062   4.719   3.084  0.9302 -0.2658 -1.6854
  104SAPE   H3S10595   2.898   4.653   3.108  2.1459 -1.6618  1.1305
  104SAPE   C2410596   2.905   4.850   3.023 -0.1589  0.3332  0.6284
  104SAPE   H4R10597   2.877   4.885   3.125 -0.6475  1.7293  0.0504
  104SAPE   H4S10598   2.806   4.850   2.971  0.0740 -2.0648  0.0973
  104SAPE   C2510599   2.998   4.948   2.953 -0.6412 -0.6887 -0.4176
  104SAPE   H5R10600   3.029   4.930   2.850  0.4279 -0.2412 -0.1817
  104SAPE   C2610601   3.033   5.069   3.006  1.0377  0.5489 -0.1645
  104SAPE   H6R10602   3.104   5.131   2.950 -0.6409  0.3022 -2.7161
  104SAPE   C2710603   3.013   5.119   3.150  0.4383 -0.0172 -0.1892
  104SAPE   H7R10604   3.102   5.179   3.178  0.3029 -1.4332  3.7979
  104SAPE   H7S10605   3.012   5.035   3.222 -1.8534 -0.5377 -0.7508
  104SAPE   C2810606   2.891   5.204   3.180 -0.8547 -0.2003 -0.4360
  104SAPE   H8R10607   2.791   5.157   3.178 -0.3721 -1.2595 -0.7204
  104SAPE   C2910608   2.885   5.330   3.215 -0.2346  0.1603  0.1784
  104SAPE   H9R10609   2.785   5.374   3.229 -1.1275 -1.6458 -0.1822
  104SAPE  C21010610   2.998   5.427   3.213 -0.1581 -0.2722  1.0783
  104SAPE  H10R10611   3.082   5.392   3.149  0.1093  0.9637  0.7298
  104SAPE  H10S10612   3.021   5.437   3.322 -3.1564  1.6508  1.6557
  104SAPE  C21110613   2.968   5.569   3.159  0.0748  0.4011 -0.1927
  104SAPE  H11R10614   2.977   5.565   3.049  1.6112 -0.7473 -0.0673
  104SAPE  C21210615   2.935   5.682   3.220 -0.2719 -0.1668  0.4896
  104SAPE  H12R10616   2.902   5.769   3.163  1.8009 -0.2677 -0.9880
  104SAPE  C21310617   2.914   5.693   3.366  0.7420  1.2223  0.3137
  104SAPE  H13R10618   3.009   5.709   3.422  1.0832 -0.5719  0.3178
  104SAPE  H13S10619   2.885   5.593   3.404  2.0670  1.3560  1.8129
  104SAPE  C21410620   2.808   5.792   3.404  0.0132 -0.0681 -0.3591
  104SAPE  H14R10621   2.733   5.815   3.326 -1.2058  2.0357  1.3105
  104SAPE  C21510622   2.803   5.870   3.515 -0.1598 -0.6899 -0.2609
  104SAPE  H15R10623   2.718   5.940   3.521  0.0169 -0.1769 -2.6693
  104SAPE  C21610624   2.885   5.881   3.643  0.4475  0.0937  0.0777
  104SAPE  H16R10625   2.940   5.977   3.635  0.0511  0.1461 -2.7583
  104SAPE  H16S10626   2.966   5.805   3.652  1.3537  0.8550 -1.3587
  104SAPE  C21710627   2.785   5.880   3.764 -0.3640 -0.2001 -0.4348
  104SAPE  H17R10628   2.743   5.780   3.790  0.2002 -0.3313 -0.0070
  104SAPE  H17S10629   2.701   5.950   3.741 -0.9342 -1.1876 -1.4677
  104SAPE  C21810630   2.858   5.919   3.896 -0.0600  0.4258  0.4128
  104SAPE  H18R10631   2.920   6.011   3.882  1.7436 -0.9474 -1.2516
  104SAPE  H18S10632   2.920   5.831   3.925 -1.3742 -0.0789  1.8652
  104SAPE  C21910633   2.764   5.945   4.011 -0.4544 -0.8165  0.0060
  104SAPE  H19R10634   2.695   6.025   3.976 -0.2993 -0.9902 -0.7256
  104SAPE  H19S10635   2.832   5.980   4.091 -0.0651  0.3724 -0.8134
  104SAPE  C22010636   2.680   5.829   4.056 -0.2845  0.2939  0.1017
  104SAPE  H20R10637   2.743   5.756   4.112 -0.0578  0.7669  0.4655
  104SAPE  H20S10638   2.636   5.784   3.965  0.8181  0.4478 -0.5188
  104SAPE  H20T10639   2.589   5.852   4.115 -0.3078  1.5848 -0.4244
  104SAPE   C3310640   2.465   4.416   3.108  1.5104  0.2552 -0.0195
  104SAPE   H3X10641   2.448   4.381   3.212  0.0423  0.1441 -0.2745
  104SAPE   H3Y10642   2.368   4.386   3.063  1.6927 -0.0285 -0.2204
  104SAPE   C3410643   2.472   4.569   3.099 -0.2144  0.0757  0.2363
  104SAPE   H4X10644   2.377   4.622   3.124  1.1053  1.5804  2.4248
  104SAPE   H4Y10645   2.498   4.589   2.993 -0.0622  0.0735  0.2726
  104SAPE   C3510646   2.580   4.628   3.200  0.4168  0.3376 -1.2900
  104SAPE   H5X10647   2.682   4.593   3.174  0.7078 -0.8545  1.1206
  104SAPE   H5Y10648   2.551   4.589   3.300  0.0662  1.9641 -0.7314
  104SAPE   C3610649   2.567   4.783   3.215 -0.2273  0.1659 -0.4280
  104SAPE   H6X10650   2.458   4.804   3.212 -0.0200  1.8335  1.3023
  104SAPE   H6Y10651   2.618   4.829   3.128 -1.0556 -0.6056 -1.3403
  104SAPE   C3710652   2.627   4.833   3.352  0.3160 -0.3776  0.7138
  104SAPE   H7X10653   2.736   4.821   3.337  0.0988  0.6698 -2.3132
  104SAPE   H7Y10654   2.578   4.780   3.437 -0.7814  0.8621  0.8813
  104SAPE   C3810655   2.588   4.980   3.394 -0.5214 -0.8126  0.2908
  104SAPE   H8X10656   2.485   4.979   3.435 -1.0894 -1.9496 -1.0738
  104SAPE   H8Y10657   2.598   5.037   3.298 -1.8744  0.3435  0.8002
  104SAPE   C3910658   2.690   5.031   3.503  0.0816  0.2035 -0.1864
  104SAPE   H9X10659   2.794   5.041   3.465 -0.0438  0.8610 -0.3795
  104SAPE   H9Y10660   2.688   4.957   3.585  4.2971 -0.3997 -0.3947
  104SAPE  C31010661   2.653   5.164   3.565  0.1795 -0.8837  0.3278
  104SAPE  H10X10662   2.547   5.149   3.597 -0.6272  0.0495 -1.6935
  104SAPE  H10Y10663   2.653   5.248   3.492  1.9152 -1.4342 -0.3446
  104SAPE  C31110664   2.731   5.201   3.693 -0.6266  0.5179 -0.6862
  104SAPE  H11X10665   2.782   5.299   3.681 -1.9821  2.0062  3.6515
  104SAPE  H11Y10666   2.799   5.119   3.724 -0.4128  0.1389 -2.0968
  104SAPE  C31210667   2.647   5.211   3.821  0.1558 -0.0206  1.0210
  104SAPE  H12X10668   2.716   5.218   3.908  2.4229 -0.0118 -0.7194
  104SAPE  H12Y10669   2.591   5.116   3.837  0.0490  0.1407  1.6379
  104SAPE  C31310670   2.566   5.339   3.810  0.2217 -0.7068 -0.1688
  104SAPE  H13X10671   2.515   5.340   3.711  0.4903 -0.4501 -0.3084
  104SAPE  H13Y10672   2.631   5.427   3.828  1.4021 -1.8462  1.4401
  104SAPE  C31410673   2.466   5.351   3.929  0.4254  0.5250  0.4836
  104SAPE  H14X10674   2.415   5.253   3.932 -0.4296  0.9632  3.6304
  104SAPE  H14Y10675   2.393   5.430   3.901 -1.2181 -1.9844 -3.0265
  104SAPE  C31510676   2.534   5.396   4.057 -0.0717  0.3445 -0.5709
  104SAPE  H15X10677   2.582   5.495   4.048  0.2498  0.4033  1.4091
  104SAPE  H15Y10678   2.620   5.329   4.079 -0.0887  0.7689  0.8587
  104SAPE  C31610679   2.446   5.409   4.178 -0.2582  0.7114  0.1596
  104SAPE  H16X10680   2.410   5.313   4.221 -0.5256  0.9192  0.4074
  104SAPE  H16Y10681   2.352   5.462   4.150  0.3096  0.8606 -1.5932
  104SAPE  C31710682   2.525   5.465   4.295 -0.0534 -0.3621 -0.1087
  104SAPE  H17X10683   2.545   5.572   4.274  2.0241 -0.9273 -1.2838
  104SAPE  H17Y10684   2.623   5.412   4.302 -0.1099 -0.2982  2.2487
  104SAPE  C31810685   2.451   5.463   4.427  0.5768  0.5244  0.6700
  104SAPE  H18X10686   2.421   5.360   4.456 -2.7328  1.6694  1.7391
  104SAPE  H18Y10687   2.350   5.508   4.433  0.5427  0.9091 -1.7559
  104SAPE  H18Z10688   2.519   5.497   4.509  0.2651  0.0459  1.1369
  105SAPE     N10689   0.040   1.926   2.325 -0.0335 -0.5761  0.1317
  105SAPE   HN110690   0.001   1.868   2.401  1.0352  1.2514  2.1873
  105SAPE   HN210691  -0.048   1.964   2.283 -0.8678  0.3144  2.5134
  105SAPE   HN310692   0.084   1.863   2.256 -0.1782 -1.8638  1.1754
  105SAPE   C1210693   0.119   2.029   2.384 -0.1451  0.3350  0.2005
  105SAPE  H12A10694   0.182   1.982   2.462 -3.5443 -0.3542  2.7697
  105SAPE  H12B10695   0.056   2.106   2.434 -0.4776  0.1214  0.1110
  105SAPE   C1110696   0.209   2.097   2.277  0.2898  0.5493 -0.2308
  105SAPE  H11A10697   0.247   2.192   2.319 -1.3343  1.5223 -0.8872
  105SAPE  H11B10698   0.143   2.127   2.193 -1.4382  1.0010  1.2342
  105SAPE     P10699   0.415   2.058   2.133 -0.1845 -0.2789 -0.0017
  105SAPE   O1310700   0.435   1.962   2.017  0.1067 -0.0176 -0.4606
  105SAPE   O1410701   0.391   2.201   2.096  1.1925 -0.4239 -0.0487
  105SAPE   O1210702   0.309   2.008   2.234  0.1645 -0.1666 -0.1228
  105SAPE   O1110703   0.555   2.062   2.216 -0.3720 -0.3451  0.2738
  105SAPE    C110704   0.582   1.963   2.312  0.0495  0.7974 -0.2462
  105SAPE    HA10705   0.517   1.873   2.317  0.3204  0.6539  0.8844
  105SAPE    HB10706   0.687   1.928   2.301 -0.2464  0.0201 -0.6664
  105SAPE    C210707   0.586   2.017   2.461 -0.1939  0.2481 -0.0387
  105SAPE    HS10708   0.480   2.020   2.494  0.1752 -0.0190  1.2247
  105SAPE   O2110709   0.657   2.146   2.463 -0.1338 -0.2187  0.0622
  105SAPE   C2110710   0.593   2.233   2.542  0.5355  0.0057 -0.0452
  105SAPE   O2210711   0.480   2.226   2.580  0.9041 -0.1198  0.3456
  105SAPE   C2210712   0.689   2.347   2.554  0.6380  0.5836 -0.4946
  105SAPE   H2R10713   0.773   2.311   2.618  1.7872  1.2879 -1.5649
  105SAPE   H2S10714   0.738   2.377   2.459  2.2162  1.1607  0.4615
  105SAPE    C310715   0.650   1.907   2.557 -0.0760 -0.0696  0.1843
  105SAPE    HX10716   0.756   1.885   2.532 -0.0548 -0.3101  0.4778
  105SAPE    HY10717   0.591   1.814   2.549 -0.1775  0.1574 -2.7394
  105SAPE   O3110718   0.645   1.953   2.692  0.0409  0.7949 -0.3287
  105SAPE   C3110719   0.766   1.993   2.747 -0.4285  0.6197  0.1877
  105SAPE   O3210720   0.867   2.006   2.683 -0.3683 -0.0289  0.1004
  105SAPE   C3210721   0.740   2.010   2.901  0.4650 -0.2865 -0.4636
  105SAPE   H2X10722   0.754   1.912   2.952  0.4845 -0.3420 -0.5752
  105SAPE   H2Y10723   0.637   2.050   2.909  0.0918 -0.7631 -2.3137
  105SAPE   C2310724   0.604   2.468   2.613 -1.1205  0.2424 -0.2757
  105SAPE   H3R10725   0.499   2.479   2.576 -2.0990 -1.9706  1.6076
  105SAPE   H3S10726   0.656   2.560   2.580 -1.1354 -0.2062 -1.6499
  105SAPE   C2410727   0.582   2.453   2.769  0.2360 -0.8542  0.2671
  105SAPE   H4R10728   0.664   2.398   2.819  0.0294 -1.6989 -0.2997
  105SAPE   H4S10729   0.489   2.393   2.780 -0.7482  0.5564 -0.0571
  105SAPE   C2510730   0.547   2.581   2.834  0.6345  0.1201 -0.0785
  105SAPE   H5R10731   0.463   2.630   2.784 -0.1856 -1.9740 -0.8266
  105SAPE   C2610732   0.613   2.646   2.930 -0.3540 -0.6224 -0.1819
  105SAPE   H6R10733   0.571   2.743   2.960 -1.5249 -1.4573  0.9938
  105SAPE   C2710734   0.725   2.602   3.013 -0.7688  0.1198  0.0039
  105SAPE   H7R10735   0.789   2.541   2.946 -3.2738 -2.9687  0.2090
  105SAPE   H7S10736   0.684   2.533   3.090 -0.9695  0.5167  0.2542
  105SAPE   C2810737   0.813   2.700   3.086 -0.3805 -0.1910 -0.3130
  105SAPE   H8R10738   0.836   2.796   3.036  0.6367 -0.0490  0.3966
  105SAPE   C2910739   0.875   2.676   3.203  0.2220  0.2087  0.0444
  105SAPE   H9R10740   0.923   2.760   3.256 -0.4977 -0.6440  2.1683
  105SAPE  C21010741   0.868   2.549   3.280  0.3562 -0.5988 -0.3148
  105SAPE  H10R10742   0.829   2.463   3.222 -0.8659 -0.7121  0.6243
  105SAPE  H10S10743   0.790   2.562   3.358  1.5149 -0.5578  0.8789
  105SAPE  C21110744   1.005   2.513   3.338  0.4333  1.4492 -0.2348
  105SAPE  H11R10745   1.080   2.493   3.260  0.3515  1.1801 -0.2428
  105SAPE  C21210746   1.045   2.522   3.464 -0.5457 -0.2285  0.0743
  105SAPE  H12R10747   1.147   2.489   3.487 -0.6263 -0.4891  0.0618
  105SAPE  C21310748   0.973   2.568   3.586 -0.2669  0.1141 -0.0969
  105SAPE  H13R10749   0.896   2.490   3.603 -0.1553  0.0593  0.1623
  105SAPE  H13S10750   0.913   2.654   3.550 -1.8957 -1.0537 -0.3034
  105SAPE  C21410751   1.066   2.608   3.703  0.4465 -0.1228  0.1057
  105SAPE  H14R10752   1.139   2.683   3.666 -0.0368 -0.0614 -0.7471
  105SAPE  C21510753   1.060   2.574   3.837  0.3599 -0.1032  0.0717
  105SAPE  H15R10754   1.130   2.618   3.909  1.5936  2.8859 -2.7538
  105SAPE  C21610755   0.965   2.480   3.896 -0.4997  0.2500  0.0500
  105SAPE  H16R10756   0.904   2.437   3.813  1.6797 -1.9649 -0.5282
  105SAPE  H16S10757   0.896   2.520   3.973 -1.5934 -1.0922 -0.1840
  105SAPE  C21710758   1.043   2.356   3.956 -0.0433 -0.1734 -0.4670
  105SAPE  H17R10759   1.122   2.330   3.883  1.2003  3.0371 -0.4494
  105SAPE  H17S10760   0.970   2.273   3.963  1.3765 -1.4439 -0.3179
  105SAPE  C21810761   1.100   2.368   4.098 -0.0155 -0.0260  0.0519
  105SAPE  H18R10762   1.022   2.411   4.164 -0.5607 -2.0733  0.8231
  105SAPE  H18S10763   1.179   2.446   4.097  0.1192 -0.1330 -2.0850
  105SAPE  C21910764   1.167   2.232   4.138  0.4957  0.3763 -0.9577
  105SAPE  H19R10765   1.239   2.194   4.063  0.1533  0.9876 -1.5973
  105SAPE  H19S10766   1.083   2.161   4.156  0.4366  0.6919  0.1225
  105SAPE  C22010767   1.221   2.223   4.284 -0.3091 -0.5701  1.0541
  105SAPE  H20R10768   1.151   2.246   4.368 -2.0535 -2.0794  0.0837
  105SAPE  H20S10769   1.306   2.294   4.288 -0.3035 -0.5798  1.1101
  105SAPE  H20T10770   1.262   2.123   4.308  0.5980 -0.7721 -1.1204
  105SAPE   C3310771   0.848   2.105   2.958 -0.2879  0.4816  0.0357
  105SAPE   H3X10772   0.832   2.206   2.913 -0.8499  0.8450  1.0199
  105SAPE   H3Y10773   0.944   2.057   2.930 -1.6090  0.4074 -5.6430
  105SAPE   C3410774   0.846   2.117   3.108  0.6278  0.0108 -0.5503
  105SAPE   H4X10775   0.932   2.184   3.133  0.9143 -0.4427 -0.2945
  105SAPE   H4Y10776   0.868   2.022   3.161  1.1344  0.9451  0.9932
  105SAPE   C3510777   0.711   2.184   3.160 -0.5734 -0.2336  0.0401
  105SAPE   H5X10778   0.626   2.113   3.150 -1.9250  1.1510  1.1228
  105SAPE   H5Y10779   0.695   2.269   3.091 -1.9549 -1.2459 -0.9465
  105SAPE   C3610780   0.716   2.227   3.303 -0.4465 -0.0110  0.2569
  105SAPE   H6X10781   0.803   2.292   3.326  0.2402 -0.2328 -1.6080
  105SAPE   H6Y10782   0.724   2.138   3.370 -2.1599 -0.8003 -0.5298
  105SAPE   C3710783   0.601   2.312   3.357  0.4912  0.0616  0.5295
  105SAPE   H7X10784   0.515   2.244   3.338  0.5893  0.2621 -0.7049
  105SAPE   H7Y10785   0.588   2.399   3.289  2.1293 -0.4301 -0.4549
  105SAPE   C3810786   0.601   2.347   3.508  0.3168  0.1787 -0.6276
  105SAPE   H8X10787   0.504   2.394   3.534  0.4541  0.6242 -0.8982
  105SAPE   H8Y10788   0.672   2.431   3.527 -1.7094  1.7305  0.4380
  105SAPE   C3910789   0.608   2.213   3.597 -1.1555 -0.3554 -0.1617
  105SAPE   H9X10790   0.697   2.151   3.575  0.2527  1.1038  1.1588
  105SAPE   H9Y10791   0.521   2.155   3.559  0.5783 -3.0520 -0.2608
  105SAPE  C31010792   0.599   2.229   3.747  0.6900  0.2655 -0.4698
  105SAPE  H10X10793   0.682   2.290   3.789  1.1674 -0.6225 -0.1121
  105SAPE  H10Y10794   0.603   2.131   3.798 -2.0091 -0.2039 -1.0391
  105SAPE  C31110795   0.466   2.303   3.774  0.3136  0.1114 -0.2450
  105SAPE  H11X10796   0.397   2.218   3.754  0.2668 -0.2890  1.4459
  105SAPE  H11Y10797   0.439   2.393   3.715  1.8741  0.3338 -0.6465
  105SAPE  C31210798   0.464   2.331   3.924 -0.8657 -0.4135  0.2618
  105SAPE  H12X10799   0.503   2.252   3.993  0.7994  1.2308  1.3030
  105SAPE  H12Y10800   0.359   2.351   3.952 -0.5621  2.1009 -0.1906
  105SAPE  C31310801   0.545   2.464   3.959 -0.4948  0.2797  1.1538
  105SAPE  H13X10802   0.502   2.542   3.893  1.1509 -0.2439 -0.6219
  105SAPE  H13Y10803   0.653   2.451   3.935 -1.2762 -1.1228 -2.1872
  105SAPE  C31410804   0.522   2.506   4.108  0.4053 -0.2301  0.1842
  105SAPE  H14X10805   0.420   2.550   4.105  0.5397  0.3142  2.2738
  105SAPE  H14Y10806   0.599   2.582   4.131 -1.0550  1.0792  0.9570
  105SAPE  C31510807   0.543   2.395   4.210 -0.3293 -0.5924 -0.5518
  105SAPE  H15X10808   0.470   2.312   4.202 -1.6183  0.3497  0.9814
  105SAPE  H15Y10809   0.514   2.455   4.299  2.2643  1.0307 -0.6664
  105SAPE  C31610810   0.681   2.359   4.223 -0.3597  0.2581 -0.6299
  105SAPE  H16X10811   0.744   2.441   4.262  1.0900 -0.5671 -1.1406
  105SAPE  H16Y10812   0.726   2.340   4.123  2.7025 -0.8624  0.8587
  105SAPE  C31710813   0.704   2.239   4.312 -0.5664 -0.1981  0.4296
  105SAPE  H17X10814   0.639   2.158   4.273  2.1590 -1.9368 -0.8446
  105SAPE  H17Y10815   0.678   2.272   4.414  0.8086  0.2986  0.6391
  105SAPE  C31810816   0.846   2.179   4.317  0.4203  0.8907  0.4798
  105SAPE  H18X10817   0.849   2.092   4.386 -0.6458  0.9093  0.5657
  105SAPE  H18Y10818   0.927   2.250   4.346  1.4648  0.2573 -0.7950
  105SAPE  H18Z10819   0.879   2.132   4.222  0.5877 -1.9285  1.8193
  106SAPE     N10820   0.500   5.927   2.153 -0.3447 -0.3969  0.3876
  106SAPE   HN110821   0.506   5.868   2.067  1.4089 -1.2826  1.0576
  106SAPE   HN210822   0.478   6.023   2.121  4.3792  1.3610  1.5162
  106SAPE   HN310823   0.590   5.938   2.205  0.3275  2.0642 -1.0966
  106SAPE   C1210824   0.389   5.867   2.240  0.5792 -0.6652 -0.1272
  106SAPE  H12A10825   0.298   5.872   2.176 -0.0146 -1.5562  0.6114
  106SAPE  H12B10826   0.377   5.926   2.333  1.2510  0.3336 -0.6568
  106SAPE   C1110827   0.421   5.723   2.284 -0.7051 -0.1855  0.7656
  106SAPE  H11A10828   0.341   5.667   2.335 -0.8741  0.6272  1.4160
  106SAPE  H11B10829   0.500   5.729   2.362  1.6131 -0.2073 -1.4516
  106SAPE     P10830   0.600   5.556   2.179  0.1009 -0.2737  0.0828
  106SAPE   O1310831   0.560   5.427   2.122 -0.0989  0.2930 -0.0525
  106SAPE   O1410832   0.716   5.616   2.114  0.1152  0.3914 -0.2570
  106SAPE   O1210833   0.469   5.655   2.164 -0.1487 -0.1296 -0.1595
  106SAPE   O1110834   0.629   5.548   2.328  0.3221 -0.4903 -0.1362
  106SAPE    C110835   0.753   5.495   2.372 -0.2252 -0.1607 -0.7352
  106SAPE    HA10836   0.756   5.386   2.353 -0.0030 -0.5067  1.1222
  106SAPE    HB10837   0.841   5.543   2.323  1.2283  0.1268  1.9809
  106SAPE    C210838   0.764   5.510   2.530 -0.1711 -0.3299 -0.3731
  106SAPE    HS10839   0.676   5.458   2.573  0.6308 -0.9164  0.5829
  106SAPE   O2110840   0.774   5.651   2.577 -0.1395 -0.1776  0.2914
  106SAPE   C2110841   0.661   5.709   2.612 -0.1732 -0.0472 -0.3557
  106SAPE   O2210842   0.552   5.661   2.611  0.2868  0.1257 -0.6267
  106SAPE   C2210843   0.695   5.854   2.658 -0.3088 -0.3755 -0.5519
  106SAPE   H2R10844   0.767   5.895   2.585 -0.5311 -0.1303 -0.6344
  106SAPE   H2S10845   0.593   5.898   2.649  0.0765  0.9394  1.0430
  106SAPE    C310846   0.898   5.446   2.580  0.5002  0.0335 -0.2107
  106SAPE    HX10847   0.984   5.504   2.540  1.3246  0.3024  1.8255
  106SAPE    HY10848   0.900   5.342   2.539  0.7457  0.1163 -0.4088
  106SAPE   O3110849   0.913   5.430   2.719  0.0021  0.5046 -0.2064
  106SAPE   C3110850   0.958   5.530   2.800 -0.0429  0.7774  0.4186
  106SAPE   O3210851   1.000   5.638   2.765 -0.0242  0.1846  0.4325
  106SAPE   C3210852   0.958   5.483   2.945  0.3268 -0.5660  0.0534
  106SAPE   H2X10853   1.063   5.487   2.981  0.1969  1.2707  0.3378
  106SAPE   H2Y10854   0.923   5.378   2.950 -3.0367  0.5278  2.5710
  106SAPE   C2310855   0.742   5.855   2.803 -0.0298  0.0064 -0.3058
  106SAPE   H3R10856   0.851   5.838   2.812 -0.2358 -0.7847  0.8191
  106SAPE   H3S10857   0.687   5.785   2.869  2.0193  2.2332  4.1872
  106SAPE   C2410858   0.718   5.996   2.863 -0.2023  0.6388  0.2082
  106SAPE   H4R10859   0.775   6.060   2.792  0.6268 -0.6687 -0.3284
  106SAPE   H4S10860   0.766   6.004   2.963  0.4791 -2.3628  0.1988
  106SAPE   C2510861   0.571   6.036   2.872  0.3368  0.5074  0.6875
  106SAPE   H5R10862   0.527   6.068   2.776 -1.6381 -2.3343  0.4916
  106SAPE   C2610863   0.504   6.035   2.995  0.5492  0.4858  0.3894
  106SAPE   H6R10864   0.400   6.071   2.994  0.9303  1.7695  2.1381
  106SAPE   C2710865   0.556   5.986   3.129 -0.0624  0.9392  0.0294
  106SAPE   H7R10866   0.659   5.944   3.120 -1.0276 -1.9467  1.0245
  106SAPE   H7S10867   0.491   5.914   3.184  1.7792 -0.6523  0.2301
  106SAPE   C2810868   0.567   6.110   3.212 -0.2231  0.5662  0.4705
  106SAPE   H8R10869   0.624   6.192   3.166 -0.7668 -0.0491 -1.3896
  106SAPE   C2910870   0.517   6.141   3.332  0.5029  0.2142  0.5148
  106SAPE   H9R10871   0.533   6.244   3.366  2.0882  0.0344  0.4128
  106SAPE  C21010872   0.441   6.046   3.424  0.3608 -0.5880  0.6885
  106SAPE  H10R10873   0.380   5.979   3.360  0.7185 -1.8835  1.6612
  106SAPE  H10S10874   0.369   6.109   3.480  0.1507 -0.4473  0.2714
  106SAPE  C21110875   0.528   5.971   3.516  0.4133 -0.0248 -0.8783
  106SAPE  H11R10876   0.590   5.892   3.470 -0.8605 -2.1783  0.8932
  106SAPE  C21210877   0.526   5.967   3.650  0.0562  0.0412 -0.8818
  106SAPE  H12R10878   0.601   5.906   3.701 -0.9115 -1.2847 -0.9809
  106SAPE  C21310879   0.443   6.054   3.741 -0.4423  0.0196 -0.6522
  106SAPE  H13R10880   0.364   6.111   3.687 -0.6392 -0.9623 -1.4330
  106SAPE  H13S10881   0.508   6.135   3.779 -1.8169  0.5486  0.6401
  106SAPE  C21410882   0.385   5.972   3.848  0.2906  0.1526 -0.1402
  106SAPE  H14R10883   0.291   5.918   3.828  0.1019  0.3484  0.1981
  106SAPE  C21510884   0.437   5.952   3.969  0.4198  1.2778  0.2173
  106SAPE  H15R10885   0.384   5.878   4.031  0.5228  0.3753 -0.7382
  106SAPE  C21610886   0.562   6.011   4.035 -0.9321 -0.3000  0.2291
  106SAPE  H16R10887   0.604   6.096   3.978  0.2843 -0.2148  1.2044
  106SAPE  H16S10888   0.646   5.943   4.060 -1.2973  0.0241  2.5829
  106SAPE  C21710889   0.528   6.044   4.176  0.1538 -0.0808 -0.2646
  106SAPE  H17R10890   0.446   6.119   4.175  1.9486  2.0831 -3.4915
  106SAPE  H17S10891   0.615   6.086   4.231  0.6887 -2.1261  0.5602
  106SAPE  C21810892   0.499   5.928   4.267  0.2214 -0.0518  0.0768
  106SAPE  H18R10893   0.585   5.859   4.279  1.4909  1.3256 -0.8486
  106SAPE  H18S10894   0.405   5.877   4.235 -2.8102  3.2278  2.8969
  106SAPE  C21910895   0.469   5.982   4.411 -0.1029  0.3097 -0.1312
  106SAPE  H19R10896   0.363   6.014   4.410  0.1239  1.1063 -0.0576
  106SAPE  H19S10897   0.530   6.074   4.428 -0.7294  0.6020  0.5943
  106SAPE  C22010898   0.498   5.880   4.524 -0.2910  0.4958  0.1899
  106SAPE  H20R10899   0.605   5.852   4.515 -0.4403 -0.2302  0.6373
  106SAPE  H20S10900   0.444   5.784   4.516  0.5543  0.1220 -1.3830
  106SAPE  H20T10901   0.479   5.925   4.624 -0.4559 -0.1117  0.4383
  106SAPE   C3310902   0.880   5.586   3.032  0.1232  0.2072  0.2946
  106SAPE   H3X10903   0.773   5.574   3.006  0.1861 -0.1068  0.1712
  106SAPE   H3Y10904   0.901   5.695   3.027  1.5876 -0.1111 -2.5715
  106SAPE   C3410905   0.883   5.548   3.178  1.6127  0.0939  0.2102
  106SAPE   H4X10906   0.896   5.438   3.172  0.9688  0.0945 -2.2297
  106SAPE   H4Y10907   0.789   5.552   3.237  2.5176 -1.0200  1.8327
  106SAPE   C3510908   0.994   5.612   3.257 -0.5497 -0.1325 -0.2408
  106SAPE   H5X10909   0.991   5.723   3.256  1.3685 -0.0528 -2.3057
  106SAPE   H5Y10910   1.086   5.577   3.208 -0.4792 -0.8319  0.3810
  106SAPE   C3610911   1.007   5.567   3.405 -0.4792 -0.3708 -0.0244
  106SAPE   H6X10912   1.109   5.582   3.447 -0.4746 -0.4813  0.0071
  106SAPE   H6Y10913   0.984   5.458   3.396 -0.6777 -0.4804  1.4633
  106SAPE   C3710914   0.901   5.641   3.491  0.1532 -0.0113 -0.0348
  106SAPE   H7X10915   0.802   5.639   3.440 -0.0226  0.0338  0.3022
  106SAPE   H7Y10916   0.940   5.744   3.506  2.0554 -0.9303  1.8611
  106SAPE   C3810917   0.871   5.594   3.636 -0.3029 -0.0084  0.1304
  106SAPE   H8X10918   0.965   5.575   3.690 -0.0093  0.4984 -0.1858
  106SAPE   H8Y10919   0.822   5.495   3.623 -2.3068  1.0058 -0.5898
  106SAPE   C3910920   0.772   5.685   3.712 -0.5133  0.0668  0.1086
  106SAPE   H9X10921   0.679   5.704   3.653 -0.2117 -0.3994 -0.5301
  106SAPE   H9Y10922   0.817   5.784   3.733  3.7820 -1.8788  1.0159
  106SAPE  C31010923   0.717   5.620   3.835 -0.0738  0.5965 -0.6027
  106SAPE  H10X10924   0.690   5.515   3.811 -1.9065  1.1120 -0.9352
  106SAPE  H10Y10925   0.628   5.673   3.875  1.7901  2.6725  1.0560
  106SAPE  C31110926   0.813   5.631   3.956  0.1942  1.2476  0.4730
  106SAPE  H11X10927   0.834   5.738   3.977  2.0886  0.9564  0.3114
  106SAPE  H11Y10928   0.911   5.582   3.934 -1.6058 -2.3123 -0.3654
  106SAPE  C31210929   0.754   5.573   4.088  0.5396  0.0822 -0.0190
  106SAPE  H12X10930   0.730   5.465   4.076  1.4096 -0.4440  2.5092
  106SAPE  H12Y10931   0.657   5.626   4.103  0.2424  0.0197 -1.5099
  106SAPE  C31310932   0.838   5.614   4.212  0.0572  0.8920 -0.3434
  106SAPE  H13X10933   0.861   5.722   4.208 -0.0640  0.9030 -0.7857
  106SAPE  H13Y10934   0.933   5.557   4.219 -0.2895  0.2450 -0.7877
  106SAPE  C31410935   0.764   5.588   4.349 -0.1770  0.1883 -0.1470
  106SAPE  H14X10936   0.716   5.488   4.337 -0.2874  0.3471 -1.1089
  106SAPE  H14Y10937   0.684   5.665   4.353  0.3219  0.8521 -1.9335
  106SAPE  C31510938   0.862   5.583   4.470 -0.6231 -0.0268  0.2866
  106SAPE  H15X10939   0.916   5.680   4.471 -0.8398  0.1090  2.1900
  106SAPE  H15Y10940   0.931   5.496   4.472 -0.7567 -0.1736 -0.7573
  106SAPE  C31610941   0.790   5.583   4.605 -0.4905  0.3099  0.3484
  106SAPE  H16X10942   0.723   5.495   4.595 -1.3195  0.8571  1.0019
  106SAPE  H16Y10943   0.729   5.676   4.615 -2.1073 -0.8092  1.3171
  106SAPE  C31710944   0.876   5.559   4.732  0.8678  0.1282  0.4701
  106SAPE  H17X10945   0.933   5.463   4.727  0.2775 -0.1532 -1.1739
  106SAPE  H17Y10946   0.812   5.550   4.823  0.2612  0.7744  0.1108
  106SAPE  C31810947   0.974   5.672   4.760  0.0331 -0.0645  0.3646
  106SAPE  H18X10948   0.922   5.758   4.806  1.6210  1.2723 -0.2497
  106SAPE  H18Y10949   1.016   5.704   4.663 -0.6556 -0.7420 -0.1672
  106SAPE  H18Z10950   1.050   5.638   4.834 -0.4779  0.3414  1.0836
  107SAPE     N10951   2.751   1.425   2.125 -0.3453  0.0554  0.6687
  107SAPE   HN110952   2.738   1.383   2.220  3.0932 -1.2420  0.6989
  107SAPE   HN210953   2.764   1.527   2.140 -1.0645  0.4378 -1.1109
  107SAPE   HN310954   2.667   1.407   2.068 -1.4423  1.0742  1.8839
  107SAPE   C1210955   2.870   1.357   2.060  0.3727  0.2677 -0.1504
  107SAPE  H12A10956   2.898   1.416   1.970  3.6537 -0.6731  0.1449
  107SAPE  H12B10957   2.850   1.250   2.038 -0.4041  0.0905  1.2520
  107SAPE   C1110958   2.983   1.347   2.163  0.0860  0.3032 -0.1802
  107SAPE  H11A10959   3.014   1.452   2.181 -0.5379  0.0572  2.8567
  107SAPE  H11B10960   3.072   1.299   2.116  0.5377  1.2934 -0.3647
  107SAPE     P10961   3.048   1.263   2.391  0.0870 -0.0479 -0.3866
  107SAPE   O1310962   2.997   1.189   2.509 -0.3763 -0.1001  0.0072
  107SAPE   O1410963   3.171   1.203   2.330 -0.0138 -0.2910 -0.0155
  107SAPE   O1210964   2.941   1.273   2.282  0.1955  0.8762  0.2613
  107SAPE   O1110965   3.085   1.413   2.421  0.4218  0.2264  0.6287
  107SAPE    C110966   3.201   1.458   2.480 -0.5610 -0.4063  0.2512
  107SAPE    HA10967   3.289   1.411   2.431 -0.0133 -1.7448  2.4031
  107SAPE    HB10968   3.210   1.568   2.462  0.8126 -0.2435  1.6807
  107SAPE    C210969   3.200   1.444   2.640  0.4401  0.5697 -0.2026
  107SAPE    HS10970   3.201   1.336   2.666  1.5404  0.6265  0.0435
  107SAPE   O2110971   3.082   1.514   2.687 -0.2549  0.4283  0.4674
  107SAPE   C2110972   3.027   1.447   2.790 -0.3623 -0.1270 -0.5185
  107SAPE   O2210973   3.061   1.337   2.827  0.2135  0.3850 -0.4830
  107SAPE   C2210974   2.929   1.535   2.862 -0.6286  0.2044  1.4032
  107SAPE   H2R10975   2.856   1.586   2.795  0.9567  1.5780  0.6394
  107SAPE   H2S10976   2.871   1.470   2.930  0.3097 -0.1695  1.8588
  107SAPE    C310977   3.329   1.501   2.700  0.0640 -0.4022  0.0865
  107SAPE    HX10978   3.345   1.603   2.661  2.1097  0.0924  1.9943
  107SAPE    HY10979   3.414   1.442   2.659 -0.2589 -0.1804 -0.9232
  107SAPE   O3110980   3.325   1.490   2.836  0.4309 -0.0109  0.3320
  107SAPE   C3110981   3.379   1.382   2.898 -0.4279 -0.4038  0.2974
  107SAPE   O3210982   3.430   1.289   2.837  0.3127  0.2696  0.3743
  107SAPE   C3210983   3.379   1.395   3.051 -0.7123  0.1743 -0.1392
  107SAPE   H2X10984   3.413   1.297   3.091  2.6899  0.0861 -2.7976
  107SAPE   H2Y10985   3.271   1.417   3.066 -0.9552 -0.2840 -1.1255
  107SAPE   C2310986   3.005   1.637   2.948  0.5276 -0.2938 -0.5173
  107SAPE   H3R10987   3.082   1.672   2.876 -0.2146 -3.2154 -2.9334
  107SAPE   H3S10988   3.068   1.588   3.025  1.2909 -1.1638 -1.6648
  107SAPE   C2410989   2.926   1.762   2.992  0.2454 -0.5662  0.5221
  107SAPE   H4R10990   2.892   1.804   2.894 -1.9162  0.2992  1.5699
  107SAPE   H4S10991   2.994   1.841   3.031  2.1033 -1.1373 -1.3646
  107SAPE   C2510992   2.809   1.725   3.072 -0.5270 -0.0247  0.1316
  107SAPE   H5R10993   2.714   1.722   3.017 -0.6841 -0.3959  0.4195
  107SAPE   C2610994   2.809   1.711   3.205 -0.0739  0.4361  0.6312
  107SAPE   H6R10995   2.707   1.692   3.244  0.0754 -0.3309  0.6658
  107SAPE   C2710996   2.914   1.747   3.307 -0.3929  1.1499  0.0665
  107SAPE   H7R10997   3.006   1.733   3.247 -1.1535 -0.2447 -0.8307
  107SAPE   H7S10998   2.921   1.666   3.383  0.2951 -0.2758 -1.4531
  107SAPE   C2810999   2.921   1.880   3.362 -0.1317 -0.3762 -0.3543
  107SAPE   H8R11000   2.902   1.954   3.283 -1.8283  0.0358  0.4007
  107SAPE   C2911001   2.958   1.917   3.489 -0.0386  0.2081  0.1922
  107SAPE   H9R11002   2.975   2.025   3.505  2.4280 -0.3138  1.5668
  107SAPE  C21011003   3.000   1.829   3.602  0.4397  1.0115  0.2740
  107SAPE  H10R11004   3.107   1.803   3.589 -0.1875 -0.8861 -1.6582
  107SAPE  H10S11005   2.952   1.729   3.604  0.2983  1.0806  2.0780
  107SAPE  C21111006   2.967   1.888   3.730 -0.4670 -0.0613  0.1610
  107SAPE  H11R11007   2.860   1.896   3.755 -0.1241 -1.9161  2.6726
  107SAPE  C21211008   3.063   1.926   3.825  0.8236 -0.1293 -0.0920
  107SAPE  H12R11009   3.024   1.969   3.919  3.0753  1.8605  0.0104
  107SAPE  C21311010   3.208   1.909   3.826  0.4951  0.4821 -0.0238
  107SAPE  H13R11011   3.234   1.856   3.732  0.1820 -0.5351  0.4520
  107SAPE  H13S11012   3.215   1.837   3.909 -2.0452  1.0288  0.7583
  107SAPE  C21411013   3.302   2.027   3.836 -0.2124 -0.1203  0.0195
  107SAPE  H14R11014   3.330   2.075   3.741 -1.0152  0.5185  0.0924
  107SAPE  C21511015   3.339   2.075   3.959  0.1083  0.5017  0.2069
  107SAPE  H15R11016   3.387   2.173   3.969 -1.4725  1.2628  0.7900
  107SAPE  C21611017   3.300   2.025   4.095  0.3553  0.0249 -0.3537
  107SAPE  H16R11018   3.309   1.914   4.100 -1.5522 -0.2025 -1.1102
  107SAPE  H16S11019   3.192   2.045   4.111  0.4645  1.9448 -1.6683
  107SAPE  C21711020   3.391   2.088   4.203 -0.7223 -0.0458  0.5178
  107SAPE  H17R11021   3.367   2.196   4.218 -0.5992 -0.1965  1.9809
  107SAPE  H17S11022   3.495   2.075   4.166 -1.6610 -2.1597 -1.6697
  107SAPE  C21811023   3.385   2.011   4.337  0.8169  0.1167 -0.1538
  107SAPE  H18R11024   3.459   1.931   4.358 -0.1004 -0.7459 -0.1278
  107SAPE  H18S11025   3.280   1.976   4.339  0.1539  1.9680  2.3419
  107SAPE  C21911026   3.406   2.107   4.455  0.2921 -0.3582  0.0808
  107SAPE  H19R11027   3.345   2.200   4.458  2.8415  1.4086  0.3819
  107SAPE  H19S11028   3.507   2.144   4.430  1.0892 -2.3329  0.1749
  107SAPE  C22011029   3.401   2.034   4.589 -0.5086  0.4296 -1.1253
  107SAPE  H20R11030   3.449   2.095   4.669 -0.4803 -0.4747 -0.4351
  107SAPE  H20S11031   3.464   1.943   4.577 -0.5130  0.3936 -0.8810
  107SAPE  H20T11032   3.301   2.014   4.632  1.1816 -2.1179  1.9734
  107SAPE   C3311033   3.458   1.516   3.101  0.5022 -0.2679 -0.6270
  107SAPE   H3X11034   3.419   1.610   3.056 -2.0325 -0.5634  0.7791
  107SAPE   H3Y11035   3.567   1.501   3.085  0.4771 -0.0140 -1.0690
  107SAPE   C3411036   3.431   1.532   3.247  0.0450 -0.5109 -0.1259
  107SAPE   H4X11037   3.469   1.443   3.302  2.2992  0.1624 -0.4871
  107SAPE   H4Y11038   3.321   1.532   3.266  0.2689 -0.4135  1.2848
  107SAPE   C3511039   3.487   1.661   3.298 -0.1765 -0.1124  0.4442
  107SAPE   H5X11040   3.458   1.745   3.231  0.8113  1.1941  1.6118
  107SAPE   H5Y11041   3.597   1.648   3.296 -0.1625 -1.3725  3.8830
  107SAPE   C3611042   3.448   1.713   3.436 -0.7634  0.1010 -0.8523
  107SAPE   H6X11043   3.339   1.695   3.448 -0.7725 -1.3790 -2.7772
  107SAPE   H6Y11044   3.477   1.820   3.441 -1.1445  0.1701  0.4480
  107SAPE   C3711045   3.522   1.636   3.543  0.0720  0.3423 -0.0341
  107SAPE   H7X11046   3.622   1.608   3.503 -0.3523 -0.1419 -0.7815
  107SAPE   H7Y11047   3.476   1.542   3.581  0.9370  0.7972  2.2922
  107SAPE   C3811048   3.531   1.728   3.668  0.0786  0.7337 -0.0003
  107SAPE   H8X11049   3.427   1.742   3.705  0.1437  2.7740 -0.4823
  107SAPE   H8Y11050   3.568   1.829   3.640 -1.9068  1.4746 -0.1501
  107SAPE   C3911051   3.604   1.670   3.788 -0.4852  0.4048  0.0868
  107SAPE   H9X11052   3.707   1.641   3.759 -0.3049 -0.5091  1.5920
  107SAPE   H9Y11053   3.551   1.580   3.824 -0.8268 -0.4136 -2.2921
  107SAPE  C31011054   3.610   1.760   3.911  0.3175  0.3563 -0.4244
  107SAPE  H10X11055   3.511   1.809   3.916  0.6101  0.8563  0.6835
  107SAPE  H10Y11056   3.687   1.840   3.907  1.6323 -0.8306  0.1844
  107SAPE  C31111057   3.649   1.690   4.038 -0.2212  0.6648  0.0927
  107SAPE  H11X11058   3.735   1.620   4.029  1.1512  1.9521  2.2028
  107SAPE  H11Y11059   3.568   1.617   4.058 -0.7148  1.5519  1.5324
  107SAPE  C31211060   3.675   1.793   4.153 -0.1753 -0.2213 -0.0437
  107SAPE  H12X11061   3.583   1.842   4.191 -0.3842  1.5280 -2.5772
  107SAPE  H12Y11062   3.728   1.880   4.109  0.7326 -0.8711 -0.2631
  107SAPE  C31311063   3.770   1.733   4.261 -0.6334 -0.0612 -1.3117
  107SAPE  H13X11064   3.868   1.710   4.213 -2.5353 -1.5824 -4.8378
  107SAPE  H13Y11065   3.738   1.629   4.285  0.3849 -0.7970 -2.9612
  107SAPE  C31411066   3.768   1.826   4.386  0.0658 -0.2620  0.7565
  107SAPE  H14X11067   3.677   1.800   4.444  0.5867  0.0013  1.7162
  107SAPE  H14Y11068   3.774   1.934   4.358 -0.5430 -0.4364 -0.0847
  107SAPE  C31511069   3.875   1.776   4.488 -0.1437 -0.5781 -0.1198
  107SAPE  H15X11070   3.884   1.665   4.480  0.9924 -0.5203  0.1386
  107SAPE  H15Y11071   3.849   1.792   4.594  2.7230  0.2203  0.5659
  107SAPE  C31611072   4.012   1.846   4.471  0.2801 -0.4558 -0.2894
  107SAPE  H16X11073   3.982   1.950   4.445 -3.1050 -0.9591  1.0441
  107SAPE  H16Y11074   4.065   1.807   4.382 -1.1812  2.3320 -2.5288
  107SAPE  C31711075   4.096   1.839   4.598 -0.4144  0.4916 -0.1546
  107SAPE  H17X11076   4.201   1.818   4.567 -0.2622  0.7450  0.1795
  107SAPE  H17Y11077   4.057   1.757   4.663 -0.9889  1.5654  0.8877
  107SAPE  C31811078   4.094   1.973   4.672  0.3760 -0.6493 -0.3988
  107SAPE  H18X11079   4.176   1.969   4.747  0.8629 -1.0598 -0.9454
  107SAPE  H18Y11080   3.999   1.984   4.727  1.3698 -0.9622  1.4564
  107SAPE  H18Z11081   4.111   2.056   4.599  1.4850  0.2704  0.8483
  108SAPE     N11082   1.646   2.144   2.023 -0.8843 -0.1481  0.0402
  108SAPE   HN111083   1.569   2.213   2.022 -0.7685 -0.0066 -1.7135
  108SAPE   HN211084   1.714   2.185   1.956 -1.1753 -0.8713 -0.7222
  108SAPE   HN311085   1.622   2.049   1.988  1.3444 -0.2221 -1.4759
  108SAPE   C1211086   1.721   2.124   2.149  0.5086  0.5875  0.8644
  108SAPE  H12A11087   1.823   2.089   2.126  0.0692 -0.4887  0.4995
  108SAPE  H12B11088   1.668   2.046   2.207  0.4776 -0.0566 -0.0128
  108SAPE   C1111089   1.721   2.245   2.245 -0.4233  0.6174 -0.9458
  108SAPE  H11A11090   1.779   2.212   2.334 -1.7431 -0.2773 -0.3918
  108SAPE  H11B11091   1.620   2.277   2.279 -0.2904 -0.2977  0.3886
  108SAPE     P11092   1.730   2.497   2.170 -0.0748 -0.2195 -0.0905
  108SAPE   O1311093   1.837   2.589   2.186 -0.0113  0.4045 -0.4972
  108SAPE   O1411094   1.650   2.499   2.047 -0.4760  0.2402  1.0218
  108SAPE   O1211095   1.792   2.355   2.185  0.2081  0.2817 -0.1678
  108SAPE   O1111096   1.636   2.501   2.302  0.2506  0.4384 -0.6080
  108SAPE    C111097   1.543   2.609   2.309 -0.0689 -0.2432  0.5324
  108SAPE    HA11098   1.590   2.701   2.351 -0.7292 -0.1222  1.0066
  108SAPE    HB11099   1.504   2.638   2.209 -1.4268  0.0462  1.1280
  108SAPE    C211100   1.413   2.573   2.385 -0.2981  0.4162  0.0723
  108SAPE    HS11101   1.338   2.654   2.395 -1.1051 -0.5725  2.8669
  108SAPE   O2111102   1.439   2.531   2.523 -0.4174 -0.1643  0.3686
  108SAPE   C2111103   1.492   2.623   2.601 -0.7493 -0.9733  0.3323
  108SAPE   O2211104   1.500   2.743   2.578  0.1642  0.0332  0.5499
  108SAPE   C2211105   1.559   2.568   2.730 -0.1161 -0.0604  0.1388
  108SAPE   H2R11106   1.546   2.457   2.730  0.5493 -0.1538 -0.6134
  108SAPE   H2S11107   1.665   2.592   2.704 -0.5960  1.4398 -0.5089
  108SAPE    C311108   1.343   2.451   2.324 -0.0514  0.0448  0.6117
  108SAPE    HX11109   1.404   2.358   2.318 -0.9689 -0.6885  2.0877
  108SAPE    HY11110   1.315   2.488   2.223 -0.1668  1.5392  1.1781
  108SAPE   O3111111   1.219   2.418   2.389 -0.1059 -0.2754  1.0032
  108SAPE   C3111112   1.204   2.310   2.451 -0.0136  0.0277  0.1502
  108SAPE   O3211113   1.291   2.226   2.473  0.2251 -0.3432  0.3273
  108SAPE   C3211114   1.063   2.296   2.516  0.0294 -0.0912 -0.3693
  108SAPE   H2X11115   1.027   2.199   2.475 -1.2909  1.1676 -2.3404
  108SAPE   H2Y11116   0.988   2.372   2.487 -0.8990 -0.5150  0.8773
  108SAPE   C2311117   1.517   2.630   2.869 -0.2616 -0.2840 -0.5942
  108SAPE   H3R11118   1.410   2.607   2.886 -0.1949 -3.9532 -3.7326
  108SAPE   H3S11119   1.531   2.740   2.862  0.6739 -0.4781 -2.4434
  108SAPE   C2411120   1.602   2.587   2.990  0.4715  0.5206 -0.3071
  108SAPE   H4R11121   1.614   2.477   3.001 -3.0008  0.0008 -0.7508
  108SAPE   H4S11122   1.559   2.618   3.087  0.5175 -0.5984  0.0946
  108SAPE   C2511123   1.734   2.655   2.985  0.1775  0.1836 -0.1780
  108SAPE   H5R11124   1.771   2.666   2.882 -0.3711  0.4435 -0.3550
  108SAPE   C2611125   1.814   2.674   3.092 -0.6426 -0.0911  0.3877
  108SAPE   H6R11126   1.905   2.735   3.082 -0.6938  0.2932  2.0127
  108SAPE   C2711127   1.774   2.662   3.235 -0.2996 -0.1839 -0.2245
  108SAPE   H7R11128   1.677   2.611   3.251  1.0340 -2.6404  0.5856
  108SAPE   H7S11129   1.761   2.762   3.282  2.5089 -0.5595  1.5868
  108SAPE   C2811130   1.884   2.591   3.321  0.1210  0.0406  0.2743
  108SAPE   H8R11131   1.944   2.512   3.275  3.0329  0.0440  3.6841
  108SAPE   C2911132   1.917   2.616   3.444 -0.7219 -0.7522 -0.1653
  108SAPE   H9R11133   2.003   2.559   3.481 -0.3922  0.3582  0.8570
  108SAPE  C21011134   1.855   2.720   3.542 -0.5780 -0.5500 -0.4331
  108SAPE  H10R11135   1.757   2.752   3.500 -0.7083 -1.7367 -1.0819
  108SAPE  H10S11136   1.922   2.807   3.560  1.7906 -2.3660  0.0641
  108SAPE  C21111137   1.846   2.663   3.678  0.8942  0.1964 -0.2208
  108SAPE  H11R11138   1.853   2.553   3.677 -1.7296 -0.0417  0.2479
  108SAPE  C21211139   1.847   2.729   3.794  0.2553 -0.2297  0.0113
  108SAPE  H12R11140   1.807   2.671   3.879 -0.3015  1.0187  0.6324
  108SAPE  C21311141   1.840   2.876   3.828  0.0916 -0.8452  0.4030
  108SAPE  H13R11142   1.765   2.902   3.906 -1.7581  1.8468 -2.0599
  108SAPE  H13S11143   1.800   2.924   3.736 -3.0471 -0.6501  1.7276
  108SAPE  C21411144   1.978   2.936   3.862 -0.4885 -0.2118  0.3748
  108SAPE  H14R11145   2.037   2.950   3.770 -1.6483 -0.7724 -0.4984
  108SAPE  C21511146   2.032   2.972   3.978 -0.0356 -0.0801  0.7994
  108SAPE  H15R11147   2.139   2.997   3.984 -0.5012  3.2687 -1.9912
  108SAPE  C21611148   1.955   2.972   4.104 -0.0195  0.2721 -0.5167
  108SAPE  H16R11149   2.027   2.943   4.183 -0.2055  0.4819 -0.2659
  108SAPE  H16S11150   1.867   2.905   4.114 -0.3567  0.9040  1.1173
  108SAPE  C21711151   1.903   3.112   4.149 -0.0236 -0.0808  0.3207
  108SAPE  H17R11152   1.851   3.175   4.072 -1.5155 -0.9824  0.5534
  108SAPE  H17S11153   1.996   3.172   4.154 -1.0451  1.9314 -2.2201
  108SAPE  C21811154   1.832   3.122   4.282  0.1472 -0.3706 -1.0231
  108SAPE  H18R11155   1.884   3.050   4.348 -0.1534 -1.2846 -1.7616
  108SAPE  H18S11156   1.730   3.082   4.264  0.0239 -0.0374 -1.0690
  108SAPE  C21911157   1.839   3.264   4.348 -0.0856  0.3567  0.4732
  108SAPE  H19R11158   1.759   3.257   4.425 -0.2857 -0.1498  0.2260
  108SAPE  H19S11159   1.817   3.339   4.270  0.0610 -0.8070 -0.7245
  108SAPE  C22011160   1.977   3.277   4.417  0.1733 -0.2736  0.1973
  108SAPE  H20R11161   1.998   3.381   4.448 -1.2791  0.3254 -0.7100
  108SAPE  H20S11162   2.057   3.258   4.341  0.5803  0.3697  0.4529
  108SAPE  H20T11163   1.991   3.204   4.500  0.5032 -0.0231  0.3652
  108SAPE   C3311164   1.080   2.284   2.673  0.4680 -0.2869 -0.4663
  108SAPE   H3X11165   1.146   2.196   2.691  0.5568 -0.2568 -0.6446
  108SAPE   H3Y11166   0.978   2.256   2.707  0.2634  1.6303  0.6433
  108SAPE   C3411167   1.123   2.408   2.744 -0.1094  0.0172 -1.0827
  108SAPE   H4X11168   1.054   2.490   2.713  1.7877  2.0780 -0.0794
  108SAPE   H4Y11169   1.222   2.441   2.706  0.5897  0.2827  0.8776
  108SAPE   C3511170   1.144   2.405   2.897  0.2444  0.6792  1.2466
  108SAPE   H5X11171   1.150   2.505   2.944 -2.0603  1.0511  0.8930
  108SAPE   H5Y11172   1.059   2.359   2.952  0.5585  0.3987  1.4992
  108SAPE   C3611173   1.276   2.337   2.941 -0.4705  0.8282  0.3579
  108SAPE   H6X11174   1.358   2.388   2.887 -0.0972  0.2142  0.3307
  108SAPE   H6Y11175   1.273   2.231   2.907  2.6739  0.3963  1.0991
  108SAPE   C3711176   1.281   2.349   3.096  0.0674  0.3552 -0.3283
  108SAPE   H7X11177   1.189   2.307   3.141  0.6955  1.0210  1.6589
  108SAPE   H7Y11178   1.279   2.453   3.136  1.4000 -1.1874  4.3543
  108SAPE   C3811179   1.395   2.272   3.163 -1.0563 -0.2495  0.2242
  108SAPE   H8X11180   1.493   2.305   3.122 -1.2913  0.7767  0.4845
  108SAPE   H8Y11181   1.386   2.164   3.136  0.6400 -1.0598  2.5627
  108SAPE   C3911182   1.401   2.284   3.317  0.7335 -0.3310 -0.1871
  108SAPE   H9X11183   1.474   2.206   3.349 -0.9636 -2.1534 -0.5479
  108SAPE   H9Y11184   1.303   2.251   3.358 -0.2390 -2.3242 -3.7522
  108SAPE  C31011185   1.433   2.425   3.382 -0.1955  0.3839  0.1955
  108SAPE  H10X11186   1.346   2.490   3.361 -0.5615 -0.2097 -0.1733
  108SAPE  H10Y11187   1.529   2.465   3.342  1.0847 -1.8307  0.8270
  108SAPE  C31111188   1.456   2.412   3.536  0.1320 -0.6533  0.6166
  108SAPE  H11X11189   1.378   2.339   3.565 -2.4156  0.5727 -2.5694
  108SAPE  H11Y11190   1.453   2.504   3.599  1.4000 -0.6649  0.7178
  108SAPE  C31211191   1.596   2.353   3.563  0.3870  0.2678  0.1180
  108SAPE  H12X11192   1.679   2.426   3.557  0.6672  0.1369  1.8320
  108SAPE  H12Y11193   1.611   2.264   3.498  0.3914  0.6849 -0.4644
  108SAPE  C31311194   1.630   2.306   3.707  0.9424 -0.4816  0.0472
  108SAPE  H13X11195   1.741   2.300   3.715  0.9453  0.0649  0.4472
  108SAPE  H13Y11196   1.579   2.208   3.722  2.6002 -1.5982 -1.2675
  108SAPE  C31411197   1.584   2.396   3.822  0.0021 -0.0573 -0.3610
  108SAPE  H14X11198   1.474   2.391   3.815 -0.0425  1.0026 -0.5991
  108SAPE  H14Y11199   1.615   2.501   3.804 -1.9981  0.4952 -0.7571
  108SAPE  C31511200   1.617   2.335   3.955  0.0778 -0.2936 -0.3448
  108SAPE  H15X11201   1.727   2.338   3.966 -0.1696 -0.1125  3.0067
  108SAPE  H15Y11202   1.578   2.234   3.981 -0.7295  0.3151  0.9479
  108SAPE  C31611203   1.573   2.441   4.067 -0.3443  0.1593  0.2302
  108SAPE  H16X11204   1.469   2.476   4.050 -0.9912 -0.6267  2.3039
  108SAPE  H16Y11205   1.631   2.535   4.060 -2.5299  1.5147 -1.1343
  108SAPE  C31711206   1.581   2.388   4.205 -0.2112 -0.9495 -0.0207
  108SAPE  H17X11207   1.687   2.379   4.237 -0.1167  1.3409  0.5106
  108SAPE  H17Y11208   1.528   2.291   4.216  1.1602 -1.6675  0.4442
  108SAPE  C31811209   1.512   2.481   4.305 -0.1214 -0.4553  0.0249
  108SAPE  H18X11210   1.487   2.435   4.403 -0.3553 -1.2161 -0.3826
  108SAPE  H18Y11211   1.415   2.510   4.259 -0.3355 -0.8856  0.2039
  108SAPE  H18Z11212   1.564   2.579   4.306 -2.8139  1.1256 -1.4184
  109SAPE     N11213   4.334   2.086   1.901  0.0568 -0.1885 -0.0218
  109SAPE   HN111214   4.399   2.163   1.875  0.8011 -1.7801 -3.3985
  109SAPE   HN211215   4.239   2.126   1.912  0.7700  1.6418 -0.2801
  109SAPE   HN311216   4.365   2.041   1.990 -2.7955 -0.1247  1.1138
  109SAPE   C1211217   4.334   1.988   1.797 -0.5284 -0.5845  0.1730
  109SAPE  H12A11218   4.440   1.957   1.785 -0.5846 -0.0793 -2.2831
  109SAPE  H12B11219   4.312   2.044   1.703 -0.2452 -0.3246  0.2624
  109SAPE   C1111220   4.226   1.874   1.815 -0.6426  0.8440 -0.4066
  109SAPE  H11A11221   4.241   1.800   1.733  2.3530  0.8983 -0.0412
  109SAPE  H11B11222   4.132   1.930   1.800 -0.1519  2.1887  1.2392
  109SAPE     P11223   4.113   1.767   2.027 -0.0725  0.1050  0.1784
  109SAPE   O1311224   3.999   1.739   1.934 -0.1085  0.2579  0.2298
  109SAPE   O1411225   4.153   1.654   2.115  0.1573  0.1325  0.0654
  109SAPE   O1211226   4.240   1.809   1.945 -0.0090  0.2378  0.0767
  109SAPE   O1111227   4.080   1.899   2.108 -0.0620 -0.0801 -0.1013
  109SAPE    C111228   4.148   1.918   2.230  0.4467 -0.6772  0.5666
  109SAPE    HA11229   4.257   1.900   2.216  0.3034 -1.9328  0.9353
  109SAPE    HB11230   4.138   2.025   2.260  1.7572 -0.3053 -0.2042
  109SAPE    C211231   4.093   1.827   2.346 -0.5537 -0.9855 -0.0738
  109SAPE    HS11232   4.032   1.740   2.311 -1.2022 -1.0379  1.1282
  109SAPE   O2111233   4.008   1.908   2.435  0.3297 -0.2070 -0.2657
  109SAPE   C2111234   3.896   1.939   2.378  0.1727 -0.1310  0.5076
  109SAPE   O2211235   3.856   1.907   2.265  0.2585 -0.3355  0.5909
  109SAPE   C2211236   3.817   2.029   2.476 -0.2594 -0.0925  0.0852
  109SAPE   H2R11237   3.882   2.063   2.559  1.3886 -0.9706 -0.7918
  109SAPE   H2S11238   3.779   2.123   2.431 -1.1037  0.7999  2.5306
  109SAPE    C311239   4.215   1.765   2.425  0.3701  0.4238 -0.1060
  109SAPE    HX11240   4.285   1.849   2.449  0.9565 -0.4301  1.2367
  109SAPE    HY11241   4.286   1.699   2.370 -0.6355 -2.4251  1.8400
  109SAPE   O3111242   4.168   1.711   2.551 -0.1046  0.5214 -0.1715
  109SAPE   C3111243   4.125   1.584   2.547 -0.7656  0.3541 -0.4635
  109SAPE   O3211244   4.115   1.522   2.445  0.2112  0.3128  0.0219
  109SAPE   C3211245   4.093   1.537   2.687  0.3198 -0.2141 -0.3630
  109SAPE   H2X11246   4.087   1.427   2.692 -2.8481 -0.0707  2.5976
  109SAPE   H2Y11247   4.002   1.600   2.699  3.2098  4.7551 -1.4513
  109SAPE   C2311248   3.695   1.961   2.532  0.6370  0.7208  0.2533
  109SAPE   H3R11249   3.632   1.911   2.454 -1.6997  2.0045  1.2061
  109SAPE   H3S11250   3.633   2.035   2.587 -0.3136 -1.5835  2.4705
  109SAPE   C2411251   3.737   1.859   2.639  0.2741  0.2114  0.2112
  109SAPE   H4R11252   3.778   1.923   2.719  0.3039 -1.0133  1.2052
  109SAPE   H4S11253   3.818   1.791   2.606  1.9598  0.1008  4.0798
  109SAPE   C2511254   3.622   1.785   2.700 -0.8553  0.9286  0.7067
  109SAPE   H5R11255   3.538   1.778   2.630 -0.3619 -0.8660  0.2507
  109SAPE   C2611256   3.619   1.707   2.813  0.7965 -0.0629  0.1526
  109SAPE   H6R11257   3.518   1.670   2.835  1.0503 -0.6143  0.4038
  109SAPE   C2711258   3.719   1.685   2.921 -0.2085  0.0375 -0.0813
  109SAPE   H7R11259   3.812   1.658   2.866  1.0540  2.1461  0.9103
  109SAPE   H7S11260   3.693   1.594   2.978 -0.1180 -0.5977 -1.0306
  109SAPE   C2811261   3.745   1.798   3.019  0.5544  0.1257  1.1023
  109SAPE   H8R11262   3.696   1.895   3.001  1.8030  0.4952 -0.5956
  109SAPE   C2911263   3.820   1.792   3.128 -0.0289  0.0575 -0.7430
  109SAPE   H9R11264   3.820   1.886   3.185 -1.0089 -0.0876 -0.4781
  109SAPE  C21011265   3.900   1.680   3.192 -0.4263  0.6336 -0.0523
  109SAPE  H10R11266   4.005   1.713   3.204  0.0297 -0.8862  0.4038
  109SAPE  H10S11267   3.902   1.585   3.134  0.2936 -0.6473  1.9719
  109SAPE  C21111268   3.858   1.616   3.329  0.7516  0.0417 -0.2836
  109SAPE  H11R11269   3.811   1.517   3.324  2.9047 -1.0459  0.2390
  109SAPE  C21211270   3.893   1.674   3.448  0.2746  0.2496 -0.2512
  109SAPE  H12R11271   3.859   1.626   3.541 -1.2757  1.3090 -0.2305
  109SAPE  C21311272   3.949   1.811   3.460 -0.1481  0.0222  0.2537
  109SAPE  H13R11273   4.000   1.848   3.368  1.2454 -1.6843  0.2963
  109SAPE  H13S11274   4.025   1.803   3.540  0.7198 -1.2457 -0.6613
  109SAPE  C21411275   3.848   1.911   3.508 -0.3296 -0.2071 -0.1222
  109SAPE  H14R11276   3.748   1.889   3.468 -0.2800  0.3101 -0.5480
  109SAPE  C21511277   3.859   2.002   3.610 -0.2758 -0.0109 -0.0633
  109SAPE  H15R11278   3.764   2.044   3.647  0.5217  0.1234  1.9294
  109SAPE  C21611279   3.979   2.044   3.691  0.2920  0.2574 -0.3603
  109SAPE  H16R11280   3.972   2.154   3.709  0.3234  0.2870 -0.5302
  109SAPE  H16S11281   4.071   2.032   3.630  0.3596 -0.0641 -0.1938
  109SAPE  C21711282   3.986   1.966   3.820  0.3764 -0.1374 -0.5393
  109SAPE  H17R11283   4.000   1.857   3.807  0.1561 -0.1940 -0.2957
  109SAPE  H17S11284   3.896   1.991   3.880  0.8845  2.2456 -0.6618
  109SAPE  C21811285   4.105   2.020   3.904  0.0438  0.3280 -1.0050
  109SAPE  H18R11286   4.116   2.131   3.907 -0.4308  0.3624 -0.3077
  109SAPE  H18S11287   4.192   1.967   3.860 -0.0672 -0.0597 -0.7685
  109SAPE  C21911288   4.100   1.968   4.048 -0.1088 -0.6908  0.2058
  109SAPE  H19R11289   4.111   1.858   4.035 -1.7343 -0.8043 -0.3771
  109SAPE  H19S11290   4.006   1.996   4.099  1.2430  0.0087  2.4610
  109SAPE  C22011291   4.207   2.025   4.142  0.8569 -0.1073  0.6865
  109SAPE  H20R11292   4.192   1.974   4.239  2.1590 -1.5068  0.2032
  109SAPE  H20S11293   4.183   2.132   4.153  0.2209 -0.1074 -0.5184
  109SAPE  H20T11294   4.312   2.008   4.109  0.8344  0.9728  0.0079
  109SAPE   C3311295   4.201   1.581   2.792 -0.7486  0.9894 -0.2620
  109SAPE   H3X11296   4.206   1.692   2.794 -0.6318  0.9730  0.5304
  109SAPE   H3Y11297   4.297   1.542   2.752 -1.3370  0.2171 -0.9486
  109SAPE   C3411298   4.156   1.530   2.925  0.7328 -0.0151  0.2098
  109SAPE   H4X11299   4.144   1.421   2.910  0.9487  0.1369 -1.2060
  109SAPE   H4Y11300   4.060   1.572   2.961  0.7091 -1.0236  1.4025
  109SAPE   C3511301   4.266   1.560   3.031  1.1776 -0.3743  0.3944
  109SAPE   H5X11302   4.251   1.669   3.051 -1.2074 -0.7131  0.7393
  109SAPE   H5Y11303   4.373   1.553   3.001  1.8110 -1.9233  2.7656
  109SAPE   C3611304   4.238   1.475   3.152 -0.3459 -0.6563 -0.5877
  109SAPE   H6X11305   4.252   1.368   3.124  1.1599 -1.0126  1.3067
  109SAPE   H6Y11306   4.130   1.487   3.179 -0.2329 -0.5562 -0.1623
  109SAPE   C3711307   4.320   1.510   3.284  1.0350  0.1975  0.4666
  109SAPE   H7X11308   4.359   1.614   3.275  1.4748  0.2651  2.6019
  109SAPE   H7Y11309   4.409   1.444   3.278 -0.1612 -1.4339 -0.3705
  109SAPE   C3811310   4.244   1.486   3.423 -0.8318 -0.1711 -0.2533
  109SAPE   H8X11311   4.204   1.383   3.433  1.9888 -1.3507  0.0151
  109SAPE   H8Y11312   4.151   1.546   3.419 -2.0919 -2.1290 -1.9370
  109SAPE   C3911313   4.331   1.526   3.541  0.2165 -0.6575 -0.7679
  109SAPE   H9X11314   4.356   1.633   3.522 -0.9975 -0.3475 -0.7126
  109SAPE   H9Y11315   4.420   1.460   3.546 -0.3433 -1.3728 -0.1159
  109SAPE  C31011316   4.282   1.520   3.686  0.1186 -0.1280  0.4020
  109SAPE  H10X11317   4.207   1.602   3.689  0.8415  0.5671 -0.2969
  109SAPE  H10Y11318   4.363   1.553   3.754  0.7757 -2.5655  0.9026
  109SAPE  C31111319   4.235   1.385   3.736 -0.3941  0.3411  0.0187
  109SAPE  H11X11320   4.310   1.306   3.712 -1.6001 -1.0308  0.6266
  109SAPE  H11Y11321   4.146   1.356   3.676  0.8235  0.9828 -2.2250
  109SAPE  C31211322   4.215   1.383   3.884  0.0828  0.5359 -0.6581
  109SAPE  H12X11323   4.303   1.423   3.938 -0.2429  0.6201 -0.1775
  109SAPE  H12Y11324   4.199   1.277   3.913  0.7873  0.0312 -2.0607
  109SAPE  C31311325   4.091   1.461   3.925 -0.6607 -0.7689  0.0955
  109SAPE  H13X11326   4.006   1.432   3.859 -2.0456 -0.8344  1.8257
  109SAPE  H13Y11327   4.115   1.566   3.902 -0.3429 -1.0111 -0.6776
  109SAPE  C31411328   4.039   1.454   4.065 -0.2859  0.3360 -0.7948
  109SAPE  H14X11329   3.996   1.352   4.077 -1.9829  1.1804  0.8945
  109SAPE  H14Y11330   3.964   1.536   4.071 -0.4629  0.0318  2.8273
  109SAPE  C31511331   4.155   1.473   4.164  0.1808 -0.3066 -0.2196
  109SAPE  H15X11332   4.215   1.561   4.131 -1.4153 -0.3093 -3.5167
  109SAPE  H15Y11333   4.220   1.383   4.159  1.9183  0.8811 -0.1004
  109SAPE  C31611334   4.113   1.500   4.309  0.2304  0.1892 -0.3103
  109SAPE  H16X11335   4.043   1.425   4.352  0.9086 -0.2292  0.0984
  109SAPE  H16Y11336   4.062   1.599   4.313  2.1794  1.2296  0.5398
  109SAPE  C31711337   4.233   1.503   4.406 -0.0116  0.7116  0.3077
  109SAPE  H17X11338   4.216   1.552   4.504 -1.2229  2.5063 -0.7450
  109SAPE  H17Y11339   4.312   1.568   4.364 -0.2201  0.8454  0.1193
  109SAPE  C31811340   4.288   1.360   4.434 -0.2969 -0.8703 -0.3945
  109SAPE  H18X11341   4.295   1.295   4.344  2.2655 -1.0174 -0.1585
  109SAPE  H18Y11342   4.222   1.311   4.509  0.7326 -2.5266 -0.4961
  109SAPE  H18Z11343   4.381   1.370   4.494 -0.7834 -2.7532  0.7654
  110SAPE     N11344   5.907   5.078   2.304 -0.0565 -0.4045 -0.1407
  110SAPE   HN111345   5.816   5.030   2.316 -0.7985  0.8202 -0.6596
  110SAPE   HN211346   5.884   5.174   2.270 -1.4836 -0.5950  0.2087
  110SAPE   HN311347   5.968   5.036   2.231 -0.8712  0.9309 -1.6441
  110SAPE   C1211348   5.978   5.094   2.438  0.4010 -0.3650  0.3093
  110SAPE  H12A11349   6.026   4.994   2.446  2.9627  0.5980 -1.5969
  110SAPE  H12B11350   5.907   5.115   2.521 -0.1875 -0.9311 -0.0387
  110SAPE   C1111351   6.088   5.200   2.428  0.4699  0.3525  0.3871
  110SAPE  H11A11352   6.142   5.197   2.524  0.8647  0.2836  0.1653
  110SAPE  H11B11353   6.037   5.298   2.418  0.6888  0.6594  2.1435
  110SAPE     P11354   6.309   5.256   2.281 -0.0742  0.0969 -0.0813
  110SAPE   O1311355   6.380   5.182   2.170  0.2400  0.2047  0.0087
  110SAPE   O1411356   6.275   5.398   2.252  0.1987  0.3475 -0.1289
  110SAPE   O1211357   6.180   5.171   2.319  0.3279  0.1621  0.2523
  110SAPE   O1111358   6.405   5.251   2.411  0.1440 -0.2781  0.1433
  110SAPE    C111359   6.503   5.151   2.440 -0.0940  0.1741 -0.5502
  110SAPE    HA11360   6.583   5.153   2.363  0.4633  3.0918  0.0027
  110SAPE    HB11361   6.548   5.170   2.540 -2.2246  0.7030  0.3733
  110SAPE    C211362   6.436   5.011   2.459  0.6412 -0.4751  0.5077
  110SAPE    HS11363   6.380   4.995   2.365  0.5449  1.6361  0.1518
  110SAPE   O2111364   6.346   5.015   2.573  0.0528  0.5636  0.1234
  110SAPE   C2111365   6.257   4.918   2.578  0.9406 -0.3223  0.8855
  110SAPE   O2211366   6.218   4.848   2.482  0.7165 -0.3772 -0.1937
  110SAPE   C2211367   6.196   4.906   2.721 -0.3800  0.3677  0.3701
  110SAPE   H2R11368   6.275   4.874   2.792 -1.5764  1.4888  2.2742
  110SAPE   H2S11369   6.169   5.007   2.759 -0.0437  0.8382 -0.5995
  110SAPE    C311370   6.541   4.901   2.469  0.4554 -0.3355  0.0164
  110SAPE    HX11371   6.505   4.801   2.436  0.5074 -0.5832  0.6937
  110SAPE    HY11372   6.620   4.934   2.398  0.4319 -1.1761 -0.4108
  110SAPE   O3111373   6.614   4.906   2.592 -0.4008 -0.1867  0.5437
  110SAPE   C3111374   6.568   4.831   2.692  0.3613 -0.0457  0.7901
  110SAPE   O3211375   6.477   4.753   2.684 -0.3287  0.4051 -0.5921
  110SAPE   C3211376   6.640   4.865   2.819  0.3026  0.3170 -0.2717
  110SAPE   H2X11377   6.656   4.975   2.826 -0.6696  0.3621  1.9555
  110SAPE   H2Y11378   6.741   4.819   2.812  1.1481  2.0158 -0.0377
  110SAPE   C2311379   6.075   4.818   2.731 -0.1527 -0.4223  0.2343
  110SAPE   H3R11380   6.099   4.709   2.727 -5.3736 -1.8123 -1.5613
  110SAPE   H3S11381   6.007   4.834   2.644 -4.2494 -1.0665  3.0225
  110SAPE   C2411382   5.993   4.837   2.854  0.3569  0.8445  0.0255
  110SAPE   H4R11383   6.054   4.809   2.942 -1.6682 -0.6971  1.0199
  110SAPE   H4S11384   5.920   4.753   2.854 -0.4368  1.5221  1.0317
  110SAPE   C2511385   5.920   4.967   2.861 -0.0086  0.4957 -0.2207
  110SAPE   H5R11386   5.859   4.991   2.773  0.8616 -4.5469 -2.5406
  110SAPE   C2611387   5.931   5.059   2.960  0.2843  0.5043 -0.0705
  110SAPE   H6R11388   5.869   5.149   2.951  2.2971  1.8056 -2.3035
  110SAPE   C2711389   6.023   5.056   3.078 -0.1084 -0.0723 -0.8405
  110SAPE   H7R11390   6.031   5.165   3.098  1.3660 -0.5651  1.6277
  110SAPE   H7S11391   6.119   5.008   3.051 -0.2831 -0.8631 -0.1044
  110SAPE   C2811392   5.972   4.976   3.192  0.1044  0.0617  0.4629
  110SAPE   H8R11393   5.893   4.903   3.167  3.0190 -1.9770 -3.8404
  110SAPE   C2911394   6.001   4.981   3.324 -0.0113 -0.8276 -0.3045
  110SAPE   H9R11395   5.944   4.938   3.407  0.6337  1.7348  1.5902
  110SAPE  C21011396   6.115   5.070   3.373  0.7463  0.0914 -0.1303
  110SAPE  H10R11397   6.089   5.114   3.472 -1.5925 -1.3474 -0.0231
  110SAPE  H10S11398   6.144   5.147   3.299  1.1143 -0.5112 -0.6178
  110SAPE  C21111399   6.229   4.980   3.397  0.1313  0.2483  0.5774
  110SAPE  H11R11400   6.248   4.896   3.329 -1.6412  0.6509 -0.4554
  110SAPE  C21211401   6.310   4.978   3.503 -0.0534  0.6175  0.2111
  110SAPE  H12R11402   6.384   4.898   3.517 -1.4936 -0.5534  1.4205
  110SAPE  C21311403   6.312   5.077   3.615 -0.0358  0.2280 -0.1369
  110SAPE  H13R11404   6.381   5.035   3.691  0.8523  2.9187  0.6559
  110SAPE  H13S11405   6.209   5.094   3.653  0.4185 -1.3724  2.0333
  110SAPE  C21411406   6.370   5.210   3.578 -0.1163  0.1301  0.0253
  110SAPE  H14R11407   6.407   5.220   3.475  1.0150 -0.1449  0.3935
  110SAPE  C21511408   6.394   5.300   3.665  0.7962 -0.5844  0.1463
  110SAPE  H15R11409   6.434   5.397   3.633  0.3002 -0.6998 -0.8852
  110SAPE  C21611410   6.358   5.304   3.812 -0.0184 -0.3913  0.4602
  110SAPE  H16R11411   6.299   5.211   3.830  0.4901 -1.0205 -1.0213
  110SAPE  H16S11412   6.288   5.390   3.827  1.2667  1.0351 -1.3230
  110SAPE  C21711413   6.482   5.313   3.903  0.2528  0.3823 -0.1485
  110SAPE  H17R11414   6.557   5.390   3.876  0.8111 -0.2537 -0.4492
  110SAPE  H17S11415   6.541   5.219   3.900  0.5622  0.5833 -0.4050
  110SAPE  C21811416   6.437   5.335   4.046  0.0798 -0.2111 -0.1400
  110SAPE  H18R11417   6.385   5.245   4.085 -1.9277  1.2958  0.8210
  110SAPE  H18S11418   6.375   5.425   4.030  0.6585  0.0647 -0.8491
  110SAPE  C21911419   6.560   5.366   4.143  0.8885 -0.6132  0.7846
  110SAPE  H19R11420   6.506   5.387   4.239  0.9736 -0.0852  0.7133
  110SAPE  H19S11421   6.608   5.460   4.111 -1.3975  0.6997  0.9882
  110SAPE  C22011422   6.666   5.259   4.177 -0.0249  0.1649  0.0561
  110SAPE  H20R11423   6.772   5.293   4.190 -0.1275  0.9435 -0.9904
  110SAPE  H20S11424   6.669   5.187   4.093 -1.9108 -0.1098  0.1927
  110SAPE  H20T11425   6.621   5.211   4.266  1.8993  0.4545  1.2354
  110SAPE   C3311426   6.561   4.810   2.937 -0.5622  0.6163 -0.6303
  110SAPE   H3X11427   6.532   4.704   2.921  1.9928 -0.5601  1.7201
  110SAPE   H3Y11428   6.473   4.877   2.949 -1.0724 -0.2123  0.3722
  110SAPE   C3411429   6.649   4.820   3.059  0.2841  0.0783  0.8881
  110SAPE   H4X11430   6.695   4.921   3.060  1.9535 -0.5940 -1.1779
  110SAPE   H4Y11431   6.725   4.739   3.049  0.3138  0.3100 -1.2601
  110SAPE   C3511432   6.575   4.800   3.189  0.2489 -0.4658  0.3865
  110SAPE   H5X11433   6.491   4.729   3.176  0.4029 -0.4349 -0.9321
  110SAPE   H5Y11434   6.542   4.902   3.220  0.2014 -0.0791 -0.8615
  110SAPE   C3611435   6.665   4.751   3.303  0.0745  0.1029 -0.9149
  110SAPE   H6X11436   6.759   4.809   3.295 -0.0389  0.7327  1.5132
  110SAPE   H6Y11437   6.697   4.645   3.294 -2.1910 -0.6323 -1.0445
  110SAPE   C3711438   6.622   4.780   3.448 -0.4170  0.0983  0.4000
  110SAPE   H7X11439   6.525   4.729   3.467 -0.6247  0.6473  0.8381
  110SAPE   H7Y11440   6.612   4.889   3.468  3.1400  1.7262 -4.8604
  110SAPE   C3811441   6.722   4.726   3.554  0.2061 -0.2446 -0.3784
  110SAPE   H8X11442   6.693   4.776   3.649  0.8159  1.8145 -1.2244
  110SAPE   H8Y11443   6.828   4.755   3.545 -0.2025  2.1849  1.5415
  110SAPE   C3911444   6.706   4.576   3.576 -0.2696 -0.6536 -0.4563
  110SAPE   H9X11445   6.768   4.519   3.503 -0.0865  0.4342 -1.1706
  110SAPE   H9Y11446   6.599   4.546   3.579 -0.5796  0.4425  1.6956
  110SAPE  C31011447   6.758   4.531   3.709 -0.3468 -0.0417 -0.1082
  110SAPE  H10X11448   6.712   4.583   3.795  1.0386  0.0024  0.6267
  110SAPE  H10Y11449   6.865   4.560   3.708 -0.7178  1.5922 -2.6696
  110SAPE  C31111450   6.755   4.376   3.728  0.9235 -0.0716 -0.1447
  110SAPE  H11X11451   6.819   4.335   3.646 -0.4296 -1.4051 -0.5743
  110SAPE  H11Y11452   6.651   4.346   3.703  0.4642  1.5115 -0.1868
  110SAPE  C31211453   6.821   4.328   3.863  0.0391 -1.1580 -0.6617
  110SAPE  H12X11454   6.820   4.218   3.870  0.5654 -1.1077  0.3803
  110SAPE  H12Y11455   6.758   4.365   3.946  2.0231 -1.8571  1.2428
  110SAPE  C31311456   6.964   4.378   3.882 -0.5364  0.7768 -0.4862
  110SAPE  H13X11457   6.958   4.484   3.915  1.8787  1.0027 -0.5920
  110SAPE  H13Y11458   7.019   4.385   3.786  1.0603  1.3705  0.4258
  110SAPE  C31411459   7.053   4.295   3.973 -0.2804 -0.1417  0.7221
  110SAPE  H14X11460   7.152   4.332   3.940 -0.2698 -0.9780 -0.2598
  110SAPE  H14Y11461   7.049   4.187   3.947  0.0129  0.1692 -0.7095
  110SAPE  C31511462   7.013   4.307   4.120 -0.1477  0.5826 -0.5054
  110SAPE  H15X11463   7.077   4.237   4.178  0.0240  2.0870  1.1957
  110SAPE  H15Y11464   6.908   4.279   4.143  0.2823 -2.5799 -1.8119
  110SAPE  C31611465   7.044   4.445   4.177  0.6882  0.2551  0.0397
  110SAPE  H16X11466   6.983   4.518   4.120  2.1629  0.6418 -1.1205
  110SAPE  H16Y11467   7.152   4.471   4.164  0.9971  0.0467  1.9899
  110SAPE  C31711468   7.010   4.458   4.324  0.0991 -0.2160 -0.4945
  110SAPE  H17X11469   6.993   4.357   4.369 -1.0753  0.2307  0.1070
  110SAPE  H17Y11470   6.912   4.507   4.344 -0.9859 -2.5007  0.1251
  110SAPE  C31811471   7.120   4.519   4.406 -0.3773 -0.4067  0.0413
  110SAPE  H18X11472   7.104   4.513   4.516 -1.5775  1.5696  0.0099
  110SAPE  H18Y11473   7.135   4.622   4.367 -2.0014 -0.2138 -0.1535
  110SAPE  H18Z11474   7.217   4.468   4.388 -0.5032 -0.2811 -1.0875
  111SAPE     N11475   4.483   5.116   2.808 -0.9176 -0.3870  0.0643
  111SAPE   HN111476   4.516   5.029   2.763 -1.4936 -0.1112 -0.9424
  111SAPE   HN211477   4.382   5.132   2.784 -0.7935  1.2867  0.4825
  111SAPE   HN311478   4.516   5.205   2.766 -2.0610  0.2767  0.5066
  111SAPE   C1211479   4.504   5.109   2.958 -0.3320 -0.0082  0.6062
  111SAPE  H12A11480   4.496   5.003   2.991 -1.2670 -0.4010 -0.7977
  111SAPE  H12B11481   4.421   5.171   3.000 -1.3954 -0.1314 -1.2002
  111SAPE   C1111482   4.645   5.161   2.992  0.3799 -0.0678 -0.0665
  111SAPE  H11A11483   4.645   5.167   3.103 -0.8767  2.3664 -0.1135
  111SAPE  H11B11484   4.646   5.268   2.960  0.0786  0.0505  0.3033
  111SAPE     P11485   4.832   5.154   2.813 -0.0968  0.0441 -0.7595
  111SAPE   O1311486   4.781   5.078   2.697  0.2083 -0.6188  0.2671
  111SAPE   O1411487   4.818   5.297   2.811 -0.0697  0.0336 -0.6545
  111SAPE   O1211488   4.760   5.093   2.936  0.0999 -0.9480 -0.0187
  111SAPE   O1111489   4.991   5.115   2.836  0.5128  0.2517  0.0982
  111SAPE    C111490   5.028   5.034   2.952  0.6140 -0.1347  0.2178
  111SAPE    HA11491   4.950   4.960   2.980 -0.9408  1.0783 -0.7739
  111SAPE    HB11492   5.119   4.974   2.930 -0.8980 -2.5998  0.2200
  111SAPE    C211493   5.055   5.116   3.085 -0.5804 -0.2540  0.8598
  111SAPE    HS11494   4.951   5.137   3.119 -0.6724  1.6741 -0.5052
  111SAPE   O2111495   5.125   5.240   3.050  0.1780 -0.3945 -0.3452
  111SAPE   C2111496   5.090   5.347   3.118  0.3951  0.6402 -0.2440
  111SAPE   O2211497   5.002   5.358   3.203  0.0621  0.3919 -0.2093
  111SAPE   C2211498   5.178   5.463   3.064  0.4126  0.2224  0.1814
  111SAPE   H2R11499   5.186   5.456   2.954  0.0961 -0.7068  0.2081
  111SAPE   H2S11500   5.127   5.557   3.092  0.4755  0.1328  0.6178
  111SAPE    C311501   5.135   5.036   3.182  0.3887 -0.4074 -0.4896
  111SAPE    HX11502   5.233   5.017   3.135  0.5644  0.1934 -0.3778
  111SAPE    HY11503   5.089   4.937   3.198  0.6570 -0.2506  1.4131
  111SAPE   O3111504   5.151   5.110   3.306  0.2421 -0.1723 -0.9094
  111SAPE   C3111505   5.056   5.098   3.401  0.2005 -0.3881 -0.1618
  111SAPE   O3211506   4.945   5.051   3.381  0.2182 -0.4933 -0.1764
  111SAPE   C3211507   5.102   5.170   3.529 -0.0055  0.6989  0.1974
  111SAPE   H2X11508   5.123   5.274   3.497  1.3863  0.0618 -1.0969
  111SAPE   H2Y11509   5.204   5.132   3.552  0.1295 -0.4614 -2.0809
  111SAPE   C2311510   5.321   5.460   3.117  0.2629 -0.1515  0.2286
  111SAPE   H3R11511   5.377   5.554   3.101  0.5613 -0.0013  1.9459
  111SAPE   H3S11512   5.371   5.371   3.073  1.9660 -0.6387  2.9103
  111SAPE   C2411513   5.327   5.435   3.274 -0.0401  0.0416  0.2174
  111SAPE   H4R11514   5.432   5.425   3.308 -0.2171 -0.4387  0.6313
  111SAPE   H4S11515   5.269   5.345   3.305 -0.7101 -0.4580 -2.2575
  111SAPE   C2511516   5.263   5.546   3.350  0.0091 -0.8374  0.0891
  111SAPE   H5R11517   5.170   5.583   3.306 -1.0023  0.2311  2.8916
  111SAPE   C2611518   5.301   5.610   3.464 -0.4105  0.1425 -0.4813
  111SAPE   H6R11519   5.240   5.692   3.505 -1.5488 -0.8000 -0.2530
  111SAPE   C2711520   5.427   5.583   3.544  0.0579  0.3397  0.4899
  111SAPE   H7R11521   5.522   5.550   3.496 -0.8770  0.7180 -1.7439
  111SAPE   H7S11522   5.396   5.493   3.602 -1.8391 -0.1807 -1.2003
  111SAPE   C2811523   5.475   5.694   3.638  0.1337 -0.1778 -0.7569
  111SAPE   H8R11524   5.565   5.748   3.607  0.6192  0.6595  1.8308
  111SAPE   C2911525   5.417   5.746   3.754  0.3905 -0.2222  0.4519
  111SAPE   H9R11526   5.450   5.836   3.809  0.4486 -0.2107  0.3968
  111SAPE  C21011527   5.284   5.696   3.803  0.7008 -0.1575  0.6818
  111SAPE  H10R11528   5.300   5.663   3.908  1.6217  0.2460  0.6876
  111SAPE  H10S11529   5.255   5.603   3.750  1.5277  0.8214 -1.6485
  111SAPE  C21111530   5.181   5.802   3.793  0.8374 -0.1664 -0.1328
  111SAPE  H11R11531   5.142   5.820   3.692 -0.4365 -1.3003  0.1301
  111SAPE  C21211532   5.113   5.864   3.891  0.6427  0.0507 -1.0256
  111SAPE  H12R11533   5.048   5.947   3.860 -0.7526 -0.9186 -0.7985
  111SAPE  C21311534   5.143   5.848   4.040 -0.1521  0.5581 -0.3027
  111SAPE  H13R11535   5.143   5.739   4.063 -1.5335  0.4840 -0.5891
  111SAPE  H13S11536   5.065   5.908   4.090 -0.3358  1.7894 -1.9684
  111SAPE  C21411537   5.279   5.897   4.086  0.8222  0.3191  0.0524
  111SAPE  H14R11538   5.352   5.903   4.003  0.4462 -1.5915 -0.4721
  111SAPE  C21511539   5.318   5.898   4.216  0.1480  0.5021 -0.3181
  111SAPE  H15R11540   5.422   5.927   4.239  0.5068  1.9278 -3.2808
  111SAPE  C21611541   5.222   5.895   4.337 -0.3208 -0.3324 -0.0635
  111SAPE  H16R11542   5.141   5.824   4.315 -1.6648  0.6215  1.5769
  111SAPE  H16S11543   5.168   5.992   4.346  0.7515  0.1725  1.4297
  111SAPE  C21711544   5.301   5.857   4.462  0.0359  0.7219 -0.1596
  111SAPE  H17R11545   5.361   5.943   4.500 -0.5072  0.9005  0.2980
  111SAPE  H17S11546   5.372   5.773   4.444  0.6478  1.2206 -0.1091
  111SAPE  C21811547   5.203   5.811   4.570  0.3014  0.2477  0.3093
  111SAPE  H18R11548   5.270   5.788   4.656 -0.3163  0.6160  0.9013
  111SAPE  H18S11549   5.158   5.715   4.536 -0.9930  0.8435  0.2910
  111SAPE  C21911550   5.109   5.919   4.618  0.0440  0.1601 -0.6172
  111SAPE  H19R11551   5.046   5.967   4.540  1.3241  1.6589 -0.7930
  111SAPE  H19S11552   5.183   5.986   4.666 -1.7146  2.0001 -0.3523
  111SAPE  C22011553   5.016   5.873   4.731 -0.4173 -0.1040  1.1452
  111SAPE  H20R11554   5.097   5.834   4.797  0.4991  1.3281  0.9306
  111SAPE  H20S11555   4.948   5.789   4.706 -2.5025  1.3290  1.7159
  111SAPE  H20T11556   4.968   5.961   4.779  0.0143  0.8910 -0.1740
  111SAPE   C3311557   5.013   5.186   3.653 -0.1142 -0.5205  0.2617
  111SAPE   H3X11558   4.915   5.233   3.629  0.7843  1.2529 -0.0970
  111SAPE   H3Y11559   5.062   5.269   3.710 -1.0803  0.0339  0.3092
  111SAPE   C3411560   5.005   5.071   3.757 -0.1633 -0.1137 -0.0872
  111SAPE   H4X11561   5.108   5.046   3.790 -0.7172 -1.6401  0.5887
  111SAPE   H4Y11562   4.954   4.981   3.714 -1.7598  0.0150  1.4076
  111SAPE   C3511563   4.935   5.104   3.884 -0.1928 -0.6853 -0.2017
  111SAPE   H5X11564   4.946   5.209   3.917 -1.3534 -0.2085 -1.2737
  111SAPE   H5Y11565   4.990   5.054   3.967 -1.3761 -0.8251  0.5130
  111SAPE   C3611566   4.790   5.062   3.894 -0.7897 -0.5261 -0.3617
  111SAPE   H6X11567   4.778   4.956   3.865  0.3725 -0.9152  0.5279
  111SAPE   H6Y11568   4.738   5.125   3.818 -0.5408  0.4555  0.2555
  111SAPE   C3711569   4.738   5.098   4.025  0.2981  0.2682 -0.9328
  111SAPE   H7X11570   4.739   5.208   4.038  0.6675  0.1221  0.5042
  111SAPE   H7Y11571   4.796   5.060   4.112 -1.6747  1.6974  1.1603
  111SAPE   C3811572   4.585   5.061   4.035  0.1396 -0.6579 -0.1451
  111SAPE   H8X11573   4.565   4.952   4.029 -1.0537 -0.6141  1.9917
  111SAPE   H8Y11574   4.532   5.112   3.952 -1.1611  0.8346  1.5086
  111SAPE   C3911575   4.525   5.099   4.175  0.5158 -0.4887  0.0766
  111SAPE   H9X11576   4.598   5.089   4.258  0.6851  0.6372  0.0820
  111SAPE   H9Y11577   4.441   5.036   4.211  0.5236  0.7958  2.5364
  111SAPE  C31011578   4.464   5.234   4.168  0.1882 -1.0671  0.2599
  111SAPE  H10X11579   4.399   5.237   4.078 -1.8342  0.1604  1.6754
  111SAPE  H10Y11580   4.543   5.311   4.155 -0.2831 -0.8646 -1.7119
  111SAPE  C31111581   4.376   5.260   4.290 -0.5643  0.1495 -0.6524
  111SAPE  H11X11582   4.356   5.369   4.297  0.3685  0.2888  0.1711
  111SAPE  H11Y11583   4.430   5.245   4.387  0.1444  2.6735 -0.5611
  111SAPE  C31211584   4.241   5.185   4.289  0.1479  0.2242  0.2174
  111SAPE  H12X11585   4.257   5.078   4.267  0.4303  0.1792  0.6370
  111SAPE  H12Y11586   4.165   5.229   4.221 -0.2491  1.0477  1.1613
  111SAPE  C31311587   4.184   5.196   4.433  0.0224  0.0277  0.2556
  111SAPE  H13X11588   4.171   5.300   4.470  0.6398  0.2324 -0.0901
  111SAPE  H13Y11589   4.242   5.153   4.518 -0.3933  1.9726  1.5932
  111SAPE  C31411590   4.049   5.131   4.442 -0.0279 -0.1253 -0.8162
  111SAPE  H14X11591   4.054   5.020   4.453 -0.0188 -0.0983 -0.5339
  111SAPE  H14Y11592   3.990   5.148   4.350 -0.3747 -0.8712 -0.7413
  111SAPE  C31511593   3.960   5.189   4.564 -0.1687 -0.4923  0.1260
  111SAPE  H15X11594   3.964   5.300   4.567  1.3717 -0.4942 -0.7017
  111SAPE  H15Y11595   4.002   5.146   4.657 -1.3609  0.3961  1.0985
  111SAPE  C31611596   3.809   5.134   4.552 -0.4509  0.5883  0.5174
  111SAPE  H16X11597   3.805   5.025   4.535  2.7538  0.5071 -0.4018
  111SAPE  H16Y11598   3.761   5.179   4.462 -1.5528  1.2690  1.4154
  111SAPE  C31711599   3.728   5.192   4.672 -0.2279  0.0368  0.0541
  111SAPE  H17X11600   3.624   5.167   4.645  0.7572 -2.7126 -1.6188
  111SAPE  H17Y11601   3.748   5.301   4.671  1.4074 -0.2124  1.0057
  111SAPE  C31811602   3.758   5.144   4.810 -1.0737 -0.1589  0.6250
  111SAPE  H18X11603   3.863   5.174   4.830 -0.1978 -2.8470  0.3705
  111SAPE  H18Y11604   3.765   5.034   4.818  1.3809 -0.3247 -2.1610
  111SAPE  H18Z11605   3.696   5.192   4.889  0.2355  0.2344  1.4581
  112SAPE     N11606   3.104   6.247   2.416 -1.0045 -0.7585 -0.1978
  112SAPE   HN111607   3.128   6.181   2.340 -0.7470 -0.4228 -0.4105
  112SAPE   HN211608   3.185   6.304   2.447 -0.3152 -1.6744 -0.2858
  112SAPE   HN311609   3.074   6.194   2.500 -1.6370 -0.2620 -0.1014
  112SAPE   C1211610   2.986   6.335   2.385 -1.3473  0.4853  0.3087
  112SAPE  H12A11611   2.904   6.274   2.343 -1.7962  2.1856 -1.4928
  112SAPE  H12B11612   3.033   6.395   2.303  0.0312 -0.5099  0.3254
  112SAPE   C1111613   2.957   6.425   2.508  0.7056 -0.3259 -0.2100
  112SAPE  H11A11614   2.871   6.481   2.466  0.6625 -1.5195 -1.8515
  112SAPE  H11B11615   3.027   6.506   2.538 -1.7634  1.6646  0.4663
  112SAPE     P11616   2.782   6.350   2.686 -0.2312  0.3690 -0.3523
  112SAPE   O1311617   2.677   6.338   2.586 -0.3095 -0.2210  0.0154
  112SAPE   O1411618   2.771   6.253   2.796  0.5440 -0.6725  0.2840
  112SAPE   O1211619   2.933   6.346   2.628 -0.3562 -0.3328 -0.0540
  112SAPE   O1111620   2.793   6.501   2.740 -0.2825  0.4339  0.3351
  112SAPE    C111621   2.894   6.545   2.832  0.4371 -0.1202  0.0826
  112SAPE    HA11622   2.992   6.526   2.783 -0.1436 -0.1737 -1.0993
  112SAPE    HB11623   2.887   6.656   2.835  2.0420 -0.0125  0.7073
  112SAPE    C211624   2.877   6.492   2.977  0.5515 -0.2984 -0.2495
  112SAPE    HS11625   2.899   6.383   2.980 -1.5655 -0.8617 -2.0544
  112SAPE   O2111626   2.739   6.517   3.010 -0.5017  0.1221 -0.0616
  112SAPE   C2111627   2.669   6.422   3.070 -0.0757 -0.4983 -0.0323
  112SAPE   O2211628   2.713   6.314   3.103  0.3966 -0.1772 -0.2239
  112SAPE   C2211629   2.519   6.463   3.073 -0.0665  0.1159  0.8401
  112SAPE   H2R11630   2.519   6.557   3.131  3.0570  0.1085  0.9776
  112SAPE   H2S11631   2.496   6.473   2.964  0.0848  0.6295  0.8531
  112SAPE    C311632   2.965   6.574   3.069  0.6542 -0.5658 -0.6292
  112SAPE    HX11633   2.919   6.676   3.068  0.1929 -0.7587  0.2158
  112SAPE    HY11634   3.068   6.583   3.028  0.6519  2.6593 -0.2235
  112SAPE   O3111635   2.961   6.538   3.203 -0.6108  0.2122 -0.0670
  112SAPE   C3111636   3.050   6.447   3.239 -0.0623  0.6478  0.0614
  112SAPE   O3211637   3.132   6.399   3.164 -0.1073 -0.0205  0.1035
  112SAPE   C3211638   3.025   6.406   3.383 -0.3553  0.8345  0.1205
  112SAPE   H2X11639   3.127   6.375   3.413  0.2348  2.1296 -0.4792
  112SAPE   H2Y11640   2.957   6.318   3.383  0.1127  0.2713  4.7614
  112SAPE   C2311641   2.422   6.346   3.124 -0.5682  0.4834  0.1467
  112SAPE   H3R11642   2.451   6.247   3.082  0.3326  1.0476 -0.6161
  112SAPE   H3S11643   2.317   6.375   3.104 -1.2958 -1.1572  1.4214
  112SAPE   C2411644   2.411   6.340   3.278 -0.6736 -0.1973 -0.1878
  112SAPE   H4R11645   2.509   6.302   3.315 -0.9576 -1.4826 -0.7123
  112SAPE   H4S11646   2.336   6.266   3.315 -1.4729  0.9351  0.5286
  112SAPE   C2511647   2.376   6.471   3.334  0.0095 -0.4913 -0.3534
  112SAPE   H5R11648   2.345   6.538   3.253  2.5409  0.8578 -0.2941
  112SAPE   C2611649   2.426   6.526   3.446  0.2589 -0.1109  0.1879
  112SAPE   H6R11650   2.398   6.630   3.469 -1.7403 -0.5371 -0.1639
  112SAPE   C2711651   2.508   6.445   3.551 -0.0451  0.0545  0.8733
  112SAPE   H7R11652   2.602   6.406   3.507 -0.2175  0.3006  0.2708
  112SAPE   H7S11653   2.450   6.356   3.582  0.1688 -0.5747 -0.4428
  112SAPE   C2811654   2.540   6.536   3.667 -0.4972  0.2054  0.1525
  112SAPE   H8R11655   2.584   6.632   3.637 -1.4548  0.8589  0.7834
  112SAPE   C2911656   2.526   6.503   3.800  0.8275  0.0215 -0.2066
  112SAPE   H9R11657   2.574   6.574   3.870 -0.3504  1.1316 -0.4767
  112SAPE  C21011658   2.477   6.370   3.853 -0.0095 -0.3059 -0.0757
  112SAPE  H10R11659   2.570   6.310   3.863  0.5191  0.6100  0.6614
  112SAPE  H10S11660   2.394   6.333   3.789 -0.0425  0.0279 -0.2274
  112SAPE  C21111661   2.427   6.378   3.998 -0.2087 -0.1581 -0.0816
  112SAPE  H11R11662   2.321   6.406   3.992  0.0676  0.6268 -2.9473
  112SAPE  C21211663   2.492   6.391   4.115  0.1413 -0.0684  0.5022
  112SAPE  H12R11664   2.434   6.384   4.208  0.4836 -1.0493  0.6470
  112SAPE  C21311665   2.634   6.370   4.136  0.4077 -0.3440 -0.5861
  112SAPE  H13R11666   2.685   6.409   4.045  1.1181  1.5531  0.5670
  112SAPE  H13S11667   2.651   6.260   4.144  0.2002 -0.2856  1.3086
  112SAPE  C21411668   2.689   6.444   4.260  0.0526 -0.1709  0.5854
  112SAPE  H14R11669   2.690   6.553   4.243  1.1272 -0.0576  1.2763
  112SAPE  C21511670   2.712   6.392   4.381 -0.1136 -0.3916 -0.1911
  112SAPE  H15R11671   2.738   6.459   4.464  0.8328 -1.0353  0.0430
  112SAPE  C21611672   2.699   6.246   4.422 -0.0148  0.2339  0.4437
  112SAPE  H16R11673   2.642   6.183   4.351 -0.9095  1.2695  0.2137
  112SAPE  H16S11674   2.633   6.239   4.512  1.8459  1.1688  1.9642
  112SAPE  C21711675   2.832   6.184   4.457  0.0212 -0.5895  0.5326
  112SAPE  H17R11676   2.809   6.082   4.494 -1.3498 -0.0229  1.3212
  112SAPE  H17S11677   2.890   6.246   4.528  0.4144  2.0970 -1.9513
  112SAPE  C21811678   2.932   6.170   4.340 -0.0389 -0.1297 -0.0521
  112SAPE  H18R11679   2.949   6.277   4.318  1.0763 -0.1666  0.5489
  112SAPE  H18S11680   2.893   6.118   4.250 -0.2199 -0.6852  0.3408
  112SAPE  C21911681   3.067   6.105   4.374 -0.0301 -0.2667  0.0406
  112SAPE  H19R11682   3.043   6.004   4.415 -0.5771  0.6386  2.0938
  112SAPE  H19S11683   3.109   6.153   4.465  0.3139 -2.6988  1.2591
  112SAPE  C22011684   3.176   6.106   4.267  0.1194  0.6741 -0.0412
  112SAPE  H20R11685   3.152   6.030   4.188  0.7274 -0.0336  0.4441
  112SAPE  H20S11686   3.274   6.067   4.302  0.0972 -1.4620 -2.0565
  112SAPE  H20T11687   3.186   6.209   4.228  0.8425  1.0722  1.1467
  112SAPE   C3311688   2.981   6.518   3.480  0.3116  0.0059  1.1031
  112SAPE   H3X11689   2.892   6.575   3.448  0.6944 -0.2385 -0.4666
  112SAPE   H3Y11690   3.068   6.587   3.487  1.3842 -1.1268 -0.4137
  112SAPE   C3411691   2.970   6.460   3.624  0.0461  0.1091 -0.2465
  112SAPE   H4X11692   3.069   6.422   3.657 -0.6638 -3.2800 -1.6327
  112SAPE   H4Y11693   2.904   6.372   3.610  0.0582 -0.0265  0.4798
  112SAPE   C3511694   2.919   6.567   3.725 -0.2674 -0.0923  0.6053
  112SAPE   H5X11695   2.820   6.606   3.694 -0.7093 -0.8909  0.9796
  112SAPE   H5Y11696   2.998   6.645   3.724  0.6023 -0.9485 -0.7087
  112SAPE   C3611697   2.908   6.529   3.871  0.5284 -0.3327  0.2030
  112SAPE   H6X11698   2.832   6.449   3.881  0.3569 -0.4297 -1.5183
  112SAPE   H6Y11699   2.880   6.623   3.923 -1.3813 -0.4418 -0.5492
  112SAPE   C3711700   3.043   6.470   3.928  0.2910 -0.0022 -0.6661
  112SAPE   H7X11701   3.123   6.508   3.861  1.7433  0.2146  1.1074
  112SAPE   H7Y11702   3.041   6.358   3.928 -1.5299 -0.0202  0.9525
  112SAPE   C3811703   3.059   6.529   4.073 -0.1419  0.0252 -0.6900
  112SAPE   H8X11704   3.127   6.469   4.136  0.1803  1.6111  0.5357
  112SAPE   H8Y11705   2.960   6.542   4.123  0.4726  1.2954  0.2513
  112SAPE   C3911706   3.132   6.667   4.066 -0.7343 -0.0290 -0.2879
  112SAPE   H9X11707   3.115   6.710   3.965 -1.7806  3.0847  1.0867
  112SAPE   H9Y11708   3.241   6.660   4.089 -0.7514  2.2755  0.8042
  112SAPE  C31011709   3.079   6.776   4.156 -0.3621 -0.2333  0.2039
  112SAPE  H10X11710   2.968   6.777   4.148 -0.2442 -0.3254 -2.0648
  112SAPE  H10Y11711   3.119   6.874   4.122 -0.5522 -0.2624 -0.1104
  112SAPE  C31111712   3.133   6.772   4.299  0.2582  0.7865 -0.5214
  112SAPE  H11X11713   3.115   6.868   4.354 -1.0073 -0.0829  0.6430
  112SAPE  H11Y11714   3.240   6.747   4.304  0.7895  3.0020  1.0988
  112SAPE  C31211715   3.056   6.668   4.379  0.2749 -0.4341 -0.1120
  112SAPE  H12X11716   3.086   6.565   4.350 -0.1505 -0.1605 -1.6371
  112SAPE  H12Y11717   2.946   6.678   4.366  0.5400  1.1266 -1.5536
  112SAPE  C31311718   3.068   6.689   4.528  0.8483 -0.6119 -0.1681
  112SAPE  H13X11719   3.020   6.784   4.561 -0.9851 -1.5858  0.0832
  112SAPE  H13Y11720   3.178   6.684   4.548  0.7608  1.8427  1.3436
  112SAPE  C31411721   3.003   6.571   4.605  0.2725  0.2142  0.5143
  112SAPE  H14X11722   3.060   6.481   4.572 -0.2956 -0.0863  0.3428
  112SAPE  H14Y11723   2.892   6.565   4.598  0.2785  0.5514  0.0474
  112SAPE  C31511724   3.039   6.573   4.756  0.5072 -0.0247 -0.3409
  112SAPE  H15X11725   2.994   6.659   4.809  2.5542  0.3136  0.9161
  112SAPE  H15Y11726   3.148   6.594   4.758  0.4227  0.4127 -0.3118
  112SAPE  C31611727   3.015   6.449   4.840 -0.5647 -0.0942 -1.0324
  112SAPE  H16X11728   3.058   6.353   4.804  2.4781 -0.0794  2.1070
  112SAPE  H16Y11729   2.906   6.425   4.834 -0.5614 -0.1748 -0.7772
  112SAPE  C31711730   3.040   6.459   4.987  0.5816  0.0268 -1.1810
  112SAPE  H17X11731   2.995   6.553   5.025  3.4816  0.9874  0.2059
  112SAPE  H17Y11732   3.150   6.473   4.994  0.4260  1.9848 -2.1739
  112SAPE  C31811733   2.984   6.337   5.067 -0.2354  0.5840  0.1508
  112SAPE  H18X11734   2.975   6.374   5.172 -2.0897  0.5026  0.0488
  112SAPE  H18Y11735   3.054   6.253   5.048  1.3534  1.4327  1.8594
  112SAPE  H18Z11736   2.883   6.315   5.027 -0.3641  3.8066 -1.6371
  113SAPE     N11737   1.441   5.090   2.033 -0.2873  0.4538 -0.0739
  113SAPE   HN111738   1.429   4.997   2.077  1.9164 -1.3008 -2.8081
  113SAPE   HN211739   1.403   5.086   1.936  1.4933  1.1526 -0.8496
  113SAPE   HN311740   1.543   5.105   2.019  0.2107 -2.3944 -0.1423
  113SAPE   C1211741   1.377   5.200   2.108  0.8076  0.0089 -0.6152
  113SAPE  H12A11742   1.272   5.167   2.121  0.8106 -0.1071 -0.8852
  113SAPE  H12B11743   1.377   5.299   2.058  0.8560  0.5855  0.5051
  113SAPE   C1111744   1.450   5.217   2.247 -0.8198  0.3515 -0.1378
  113SAPE  H11A11745   1.433   5.131   2.315  2.7068  1.3924  2.3671
  113SAPE  H11B11746   1.421   5.308   2.304 -1.8561  0.3132 -0.5842
  113SAPE     P11747   1.700   5.330   2.263  0.0839 -0.1714 -0.4377
  113SAPE   O1311748   1.823   5.305   2.192 -0.2095  0.0496  0.3144
  113SAPE   O1411749   1.639   5.466   2.245 -0.5241 -0.3575  0.0953
  113SAPE   O1211750   1.591   5.217   2.228  0.5028  0.8347 -0.3952
  113SAPE   O1111751   1.736   5.316   2.415  0.2059  0.3947  0.1312
  113SAPE    C111752   1.700   5.200   2.494 -0.1897  0.0444 -1.2126
  113SAPE    HA11753   1.685   5.110   2.431  1.8865 -0.9353 -0.4133
  113SAPE    HB11754   1.792   5.181   2.553 -1.9894 -2.4180  1.0452
  113SAPE    C211755   1.576   5.218   2.588 -0.4849  0.0308 -0.7182
  113SAPE    HS11756   1.492   5.231   2.517  1.6714 -1.3740 -3.7726
  113SAPE   O2111757   1.598   5.347   2.660  0.0930  0.2644  0.5587
  113SAPE   C2111758   1.494   5.413   2.703  0.1897  0.3087  0.0940
  113SAPE   O2211759   1.376   5.389   2.674  0.5790 -0.7626  0.0120
  113SAPE   C2211760   1.535   5.544   2.772 -0.3406  0.1230 -0.4008
  113SAPE   H2R11761   1.635   5.520   2.814 -1.2145 -0.4711  1.4033
  113SAPE   H2S11762   1.541   5.630   2.701  3.4698  1.0685  0.7918
  113SAPE    C311763   1.554   5.096   2.684 -0.1772 -0.7921  0.5901
  113SAPE    HX11764   1.526   5.010   2.620 -1.7381 -1.7912  2.4938
  113SAPE    HY11765   1.470   5.120   2.753 -1.6808 -2.3925 -0.5911
  113SAPE   O3111766   1.672   5.076   2.769 -0.0176 -0.4484  0.0221
  113SAPE   C3111767   1.691   5.154   2.874  0.1034  0.0903 -0.4379
  113SAPE   O3211768   1.627   5.253   2.905 -0.3913  0.3415 -0.2433
  113SAPE   C3211769   1.805   5.097   2.967 -0.1265 -0.3684  0.1526
  113SAPE   H2X11770   1.891   5.164   2.946 -0.1659 -0.2134  0.4824
  113SAPE   H2Y11771   1.835   5.002   2.916 -0.5040 -1.7370  2.3509
  113SAPE   C2311772   1.422   5.577   2.880  0.0013  0.4036  0.6500
  113SAPE   H3R11773   1.414   5.494   2.954  2.8667  0.5617  1.2263
  113SAPE   H3S11774   1.326   5.594   2.826 -0.3715 -2.0061  0.4634
  113SAPE   C2411775   1.455   5.702   2.964  0.3238 -0.3396 -0.1646
  113SAPE   H4R11776   1.488   5.789   2.902  0.0335  0.8383  1.2860
  113SAPE   H4S11777   1.542   5.692   3.032  1.0121  0.9549 -0.8155
  113SAPE   C2511778   1.332   5.732   3.041 -0.6386  0.1170  0.1957
  113SAPE   H5R11779   1.243   5.762   2.984 -1.1595 -1.8294 -0.0683
  113SAPE   C2611780   1.326   5.703   3.172 -0.7009  0.2265  0.0426
  113SAPE   H6R11781   1.236   5.715   3.235  0.4138 -0.0294  1.7653
  113SAPE   C2711782   1.435   5.632   3.255  0.1070 -0.0474 -0.0353
  113SAPE   H7R11783   1.500   5.705   3.307  0.0786 -0.8013  1.0859
  113SAPE   H7S11784   1.508   5.571   3.197 -0.5182 -1.3715  0.5074
  113SAPE   C2811785   1.377   5.531   3.356 -0.7426  0.3707 -0.0449
  113SAPE   H8R11786   1.346   5.433   3.316 -0.1796 -0.3403  1.2232
  113SAPE   C2911787   1.361   5.562   3.488 -0.3369  0.3074 -0.5686
  113SAPE   H9R11788   1.323   5.487   3.560 -1.0983 -0.3236 -1.5991
  113SAPE  C21011789   1.393   5.695   3.554  0.5801  0.0983  0.5849
  113SAPE  H10R11790   1.480   5.742   3.503  0.0502  1.0266  0.4991
  113SAPE  H10S11791   1.434   5.691   3.657  1.2094  1.8392  0.4317
  113SAPE  C21111792   1.279   5.803   3.549  0.8730  0.9733  0.4603
  113SAPE  H11R11793   1.227   5.814   3.453 -0.5713 -0.3430  1.0600
  113SAPE  C21211794   1.220   5.866   3.651 -0.4818 -0.1822 -0.2883
  113SAPE  H12R11795   1.140   5.940   3.636 -2.7624 -1.8723  2.5084
  113SAPE  C21311796   1.257   5.856   3.796 -0.2028 -0.0103 -1.2235
  113SAPE  H13R11797   1.253   5.960   3.834  0.7625 -0.7873  1.1938
  113SAPE  H13S11798   1.362   5.820   3.799 -0.9386 -2.2560  0.9730
  113SAPE  C21411799   1.157   5.768   3.872  0.5376 -0.4680  0.5175
  113SAPE  H14R11800   1.089   5.711   3.806 -0.7642  2.2492 -0.6471
  113SAPE  C21511801   1.152   5.750   3.999  0.6269  0.0695 -0.2338
  113SAPE  H15R11802   1.070   5.690   4.042  0.9113  1.2574  2.1569
  113SAPE  C21611803   1.231   5.824   4.107  0.2141  0.3845 -0.8148
  113SAPE  H16R11804   1.293   5.909   4.073 -1.5803  1.7443 -0.8277
  113SAPE  H16S11805   1.304   5.747   4.141 -0.4226  0.4942  0.9033
  113SAPE  C21711806   1.135   5.868   4.229  0.0918  0.2008  1.0225
  113SAPE  H17R11807   1.060   5.793   4.261 -0.3544 -0.2125 -0.8484
  113SAPE  H17S11808   1.078   5.958   4.195  0.9016  0.1982 -0.4163
  113SAPE  C21811809   1.200   5.908   4.363  0.7140 -0.5843 -0.2462
  113SAPE  H18R11810   1.253   6.003   4.343 -3.5338  2.1979  0.3282
  113SAPE  H18S11811   1.269   5.827   4.393  2.0470  0.4468 -0.4777
  113SAPE  C21911812   1.098   5.943   4.469  0.2539  0.5213  0.7128
  113SAPE  H19R11813   1.152   5.960   4.565  0.2386  0.8206  0.6705
  113SAPE  H19S11814   1.028   5.860   4.493 -1.9954  2.1009 -0.0450
  113SAPE  C22011815   1.029   6.076   4.443  0.6298  0.0520 -0.1811
  113SAPE  H20R11816   0.952   6.089   4.522  1.7147  2.9357  0.5276
  113SAPE  H20S11817   0.986   6.083   4.341  3.6863 -1.9548 -1.7502
  113SAPE  H20T11818   1.102   6.159   4.450  2.2175 -1.1488 -1.7398
  113SAPE   C3311819   1.776   5.082   3.119 -0.8030  0.2273 -0.6772
  113SAPE   H3X11820   1.704   5.159   3.154 -2.6316 -1.3818 -0.7276
  113SAPE   H3Y11821   1.874   5.092   3.172 -0.4137  0.3375 -1.3997
  113SAPE   C3411822   1.726   4.940   3.171 -0.2401 -0.1243  0.0357
  113SAPE   H4X11823   1.798   4.861   3.142 -1.0065 -0.4906 -0.9376
  113SAPE   H4Y11824   1.627   4.910   3.131 -0.5787 -1.9150  2.0373
  113SAPE   C3511825   1.707   4.937   3.325  0.2127 -0.4073 -0.2151
  113SAPE   H5X11826   1.683   4.833   3.354 -1.2254  0.5390  2.2634
  113SAPE   H5Y11827   1.622   4.989   3.372  1.0620  0.5325  0.3228
  113SAPE   C3611828   1.830   4.976   3.395 -0.2849 -0.3272 -0.6631
  113SAPE   H6X11829   1.844   5.085   3.409 -0.6726 -0.3712  0.1374
  113SAPE   H6Y11830   1.922   4.938   3.346  0.7792 -0.8455  1.6075
  113SAPE   C3711831   1.828   4.909   3.538 -0.5009  0.3904  0.5263
  113SAPE   H7X11832   1.917   4.952   3.590  1.3110 -0.5926 -1.6212
  113SAPE   H7Y11833   1.830   4.798   3.535 -0.9635  0.4039 -0.5833
  113SAPE   C3811834   1.704   4.953   3.616 -0.4781 -0.1323  0.1720
  113SAPE   H8X11835   1.694   5.063   3.605  1.0386 -0.2077 -2.8787
  113SAPE   H8Y11836   1.622   4.893   3.571  0.5465 -0.6468 -1.0673
  113SAPE   C3911837   1.726   4.925   3.766  0.8795 -0.3105 -0.5909
  113SAPE   H9X11838   1.808   4.993   3.798 -0.8657  2.8278 -2.3264
  113SAPE   H9Y11839   1.751   4.818   3.783 -1.6326 -0.7787  0.6035
  113SAPE  C31011840   1.600   4.960   3.844 -0.5698  0.5284 -0.5138
  113SAPE  H10X11841   1.522   4.880   3.849 -0.0123  0.0480  2.8431
  113SAPE  H10Y11842   1.551   5.052   3.806  0.1905  1.4511  0.6810
  113SAPE  C31111843   1.632   5.000   3.987 -0.8039  0.2658  0.2776
  113SAPE  H11X11844   1.543   5.030   4.047  0.2717 -1.1586  2.7424
  113SAPE  H11Y11845   1.699   5.089   3.987 -1.5802  0.9063  2.6125
  113SAPE  C31211846   1.712   4.898   4.078  0.5782 -0.3202  0.2554
  113SAPE  H12X11847   1.727   4.952   4.174 -0.2681  1.5684 -0.6065
  113SAPE  H12Y11848   1.810   4.872   4.033  1.1883 -0.0271  1.3737
  113SAPE  C31311849   1.643   4.764   4.102  0.1753 -0.3335 -0.2931
  113SAPE  H13X11850   1.670   4.708   4.010  0.4554 -0.7152  0.0190
  113SAPE  H13Y11851   1.534   4.780   4.096  0.2673  0.4407 -0.0628
  113SAPE  C31411852   1.689   4.703   4.233  0.0728 -0.1678 -0.9895
  113SAPE  H14X11853   1.641   4.607   4.260  1.0487 -0.3422  0.1972
  113SAPE  H14Y11854   1.672   4.782   4.309 -0.5216 -2.5431  1.5000
  113SAPE  C31511855   1.837   4.676   4.251  0.2584 -0.9412 -0.2071
  113SAPE  H15X11856   1.885   4.775   4.231  2.1301 -1.8467 -0.4539
  113SAPE  H15Y11857   1.879   4.606   4.175  0.7474 -0.7438 -0.1280
  113SAPE  C31611858   1.888   4.627   4.386  0.0193 -0.2014 -0.6324
  113SAPE  H16X11859   1.827   4.678   4.464  0.2842  0.8101 -1.0735
  113SAPE  H16Y11860   1.997   4.644   4.395 -0.2380  1.4154 -0.2643
  113SAPE  C31711861   1.876   4.471   4.409 -0.0171 -0.0269 -0.0374
  113SAPE  H17X11862   1.924   4.408   4.331 -1.9230 -0.5248 -0.8681
  113SAPE  H17Y11863   1.767   4.459   4.389 -0.3621  4.1461 -1.8640
  113SAPE  C31811864   1.909   4.417   4.550 -0.5375 -0.3168 -0.5480
  113SAPE  H18X11865   2.016   4.438   4.569 -0.5336  2.1871 -2.8309
  113SAPE  H18Y11866   1.891   4.307   4.550  1.1157 -0.6172  0.8452
  113SAPE  H18Z11867   1.847   4.473   4.624  0.9594  1.0849 -0.2969
  114SAPE     N11868   5.286   6.072   2.711 -0.5356  0.0199 -0.0070
  114SAPE   HN111869   5.196   6.051   2.664 -0.3173  0.5207 -0.6654
  114SAPE   HN211870   5.341   6.131   2.645 -1.0573 -1.0935 -1.4847
  114SAPE   HN311871   5.346   5.993   2.742 -2.1930 -1.3311 -0.0774
  114SAPE   C1211872   5.249   6.160   2.832 -0.2912  0.1032 -0.1024
  114SAPE  H12A11873   5.339   6.196   2.885 -1.3577  2.5222  0.2243
  114SAPE  H12B11874   5.189   6.096   2.900  2.4625 -1.3052  1.1100
  114SAPE   C1111875   5.168   6.278   2.786 -0.3555 -0.4797  0.6858
  114SAPE  H11A11876   5.241   6.343   2.732  0.6094  0.3262  2.8553
  114SAPE  H11B11877   5.122   6.342   2.864  0.1435  1.0645 -0.2458
  114SAPE     P11878   4.915   6.255   2.704 -0.0473  0.2228 -0.0782
  114SAPE   O1311879   4.866   6.385   2.646 -0.5383  0.5626 -0.4923
  114SAPE   O1411880   4.852   6.129   2.652  0.4983 -0.2634  0.1332
  114SAPE   O1211881   5.075   6.236   2.687  0.1263 -0.2386  0.5286
  114SAPE   O1111882   4.889   6.268   2.858  0.2268 -0.0183  0.1991
  114SAPE    C111883   4.792   6.187   2.920 -0.3097  0.1928  0.0551
  114SAPE    HA11884   4.687   6.218   2.906 -0.5871 -0.4173  0.7072
  114SAPE    HB11885   4.805   6.082   2.887  0.9273  1.0248 -2.3548
  114SAPE    C211886   4.808   6.195   3.073 -0.5833  0.3844 -0.5367
  114SAPE    HS11887   4.903   6.142   3.097  1.0434  2.9109 -1.0505
  114SAPE   O2111888   4.688   6.139   3.128  0.0120 -0.2741 -0.3147
  114SAPE   C2111889   4.704   6.009   3.161  0.5658  1.0191 -0.4652
  114SAPE   O2211890   4.812   5.953   3.173  0.6429 -0.0595  0.5453
  114SAPE   C2211891   4.566   5.941   3.177  0.0526  0.1356 -0.2505
  114SAPE   H2R11892   4.493   6.002   3.121 -1.4711  0.5084  2.0199
  114SAPE   H2S11893   4.577   5.847   3.118  2.2551 -0.1361  0.5024
  114SAPE    C311894   4.837   6.340   3.132  0.5520  0.0182 -0.0805
  114SAPE    HX11895   4.758   6.402   3.085 -2.3258 -2.3457  1.2841
  114SAPE    HY11896   4.933   6.394   3.117  0.6577 -0.5257 -1.4822
  114SAPE   O3111897   4.805   6.340   3.275 -0.0900 -0.6234  0.4107
  114SAPE   C3111898   4.896   6.272   3.354  0.2020  0.1812 -0.0552
  114SAPE   O3211899   5.005   6.226   3.318  0.4768 -0.1387  0.3214
  114SAPE   C3211900   4.843   6.281   3.501  0.1580 -0.3211 -0.6181
  114SAPE   H2X11901   4.747   6.226   3.503  0.0823 -0.1601  1.0760
  114SAPE   H2Y11902   4.828   6.388   3.527  1.5235 -0.2070 -0.1830
  114SAPE   C2311903   4.528   5.912   3.323 -0.2668 -0.1627 -0.1560
  114SAPE   H3R11904   4.623   5.874   3.369 -1.1386 -0.5489  1.3861
  114SAPE   H3S11905   4.465   5.822   3.342  0.7397 -0.7325  0.5819
  114SAPE   C2411906   4.471   6.036   3.392 -0.5350 -0.0883 -0.1481
  114SAPE   H4R11907   4.547   6.118   3.386 -1.1679  0.4986 -0.2760
  114SAPE   H4S11908   4.462   6.004   3.498 -1.9013 -0.7055 -0.4362
  114SAPE   C2511909   4.338   6.085   3.350 -0.5179  0.2793  0.2006
  114SAPE   H5R11910   4.301   6.057   3.250 -0.5115 -2.5078  0.9092
  114SAPE   C2611911   4.262   6.158   3.430  0.0876 -0.5233 -0.5500
  114SAPE   H6R11912   4.170   6.203   3.391  1.2008  0.0230 -2.7058
  114SAPE   C2711913   4.291   6.209   3.573  0.2179  0.1346 -0.4676
  114SAPE   H7R11914   4.275   6.129   3.648  0.0461  1.7222  1.2477
  114SAPE   H7S11915   4.218   6.289   3.598  1.8889  1.8367 -0.8324
  114SAPE   C2811916   4.419   6.280   3.605  0.6058 -0.6258 -0.0215
  114SAPE   H8R11917   4.486   6.298   3.519 -1.0999 -0.7601 -1.4202
  114SAPE   C2911918   4.457   6.320   3.731 -0.5699 -0.3641 -0.2169
  114SAPE   H9R11919   4.557   6.364   3.743 -0.8908  0.7855 -1.6519
  114SAPE  C21011920   4.367   6.322   3.851 -0.0901 -0.1598 -0.0079
  114SAPE  H10R11921   4.260   6.317   3.821 -0.1634  1.3552 -0.0717
  114SAPE  H10S11922   4.388   6.411   3.915 -0.1463  0.0174 -0.2357
  114SAPE  C21111923   4.394   6.202   3.940  0.3887 -0.3188  0.2265
  114SAPE  H11R11924   4.457   6.121   3.900 -0.6421  0.4151 -3.2141
  114SAPE  C21211925   4.353   6.198   4.063 -0.4697  0.2922 -0.6097
  114SAPE  H12R11926   4.392   6.117   4.126 -1.4690  0.9682  0.9504
  114SAPE  C21311927   4.276   6.307   4.140  0.3992  0.7277  0.0103
  114SAPE  H13R11928   4.187   6.271   4.197  2.3447 -1.5142  1.8938
  114SAPE  H13S11929   4.230   6.386   4.078 -4.4086 -0.7521  1.2268
  114SAPE  C21411930   4.366   6.362   4.245  0.4050 -0.5606 -0.2374
  114SAPE  H14R11931   4.427   6.445   4.206 -1.4553  1.0297  0.0902
  114SAPE  C21511932   4.382   6.307   4.365 -0.0561 -0.8196 -1.0991
  114SAPE  H15R11933   4.456   6.357   4.430  1.0414 -3.4071 -0.2318
  114SAPE  C21611934   4.300   6.197   4.429 -0.1024  0.4821  0.0947
  114SAPE  H16R11935   4.353   6.099   4.434  1.1295  1.0195 -1.4644
  114SAPE  H16S11936   4.216   6.165   4.364  2.3644 -0.0464 -3.1443
  114SAPE  C21711937   4.231   6.216   4.563  0.0509 -0.4530 -0.2254
  114SAPE  H17R11938   4.147   6.287   4.545 -0.3973 -1.0208 -0.4379
  114SAPE  H17S11939   4.302   6.260   4.635 -1.2217  0.2169  0.6617
  114SAPE  C21811940   4.164   6.090   4.614  1.0225 -0.3477 -0.4398
  114SAPE  H18R11941   4.239   6.011   4.637 -0.3492 -1.5007  0.2820
  114SAPE  H18S11942   4.105   6.043   4.532  0.8620  0.9870 -1.1178
  114SAPE  C21911943   4.067   6.102   4.735  0.0874 -0.8232  0.0784
  114SAPE  H19R11944   4.126   6.120   4.828 -0.3835 -2.5815  0.7735
  114SAPE  H19S11945   4.027   6.001   4.759  1.2999 -1.2440  0.4176
  114SAPE  C22011946   3.950   6.200   4.723  0.2528 -0.1808  0.1366
  114SAPE  H20R11947   3.902   6.224   4.821  1.0933 -1.4764  0.9020
  114SAPE  H20S11948   3.878   6.157   4.650  0.1634  0.3589 -0.0955
  114SAPE  H20T11949   3.986   6.295   4.678  0.3717 -0.2536  0.0766
  114SAPE   C3311950   4.929   6.223   3.617  0.4082  0.3516 -0.0593
  114SAPE   H3X11951   5.026   6.276   3.607  0.4974  0.2252  0.1269
  114SAPE   H3Y11952   4.948   6.114   3.602 -1.0147  0.2322 -1.1835
  114SAPE   C3411953   4.857   6.239   3.760 -0.2314 -0.2695 -0.3847
  114SAPE   H4X11954   4.922   6.198   3.840  0.5251  1.1528 -0.2279
  114SAPE   H4Y11955   4.759   6.187   3.759  0.0114 -0.7649 -2.2393
  114SAPE   C3511956   4.836   6.378   3.805 -0.2002 -0.0194 -0.0112
  114SAPE   H5X11957   4.792   6.434   3.720 -0.4137 -0.2383 -0.0458
  114SAPE   H5Y11958   4.934   6.426   3.829 -0.0765  0.0415 -0.6269
  114SAPE   C3611959   4.751   6.396   3.932  0.1388 -0.0591  0.2298
  114SAPE   H6X11960   4.665   6.327   3.943  1.7655 -2.1673  0.3601
  114SAPE   H6Y11961   4.707   6.498   3.937 -0.5450 -0.3841  1.1368
  114SAPE   C3711962   4.830   6.391   4.067  0.1860 -1.2643  0.6863
  114SAPE   H7X11963   4.924   6.450   4.071  0.1580 -1.2769  1.8297
  114SAPE   H7Y11964   4.874   6.290   4.084  2.2109 -0.6148 -0.3715
  114SAPE   C3811965   4.740   6.439   4.180 -0.7513 -0.5792 -0.0374
  114SAPE   H8X11966   4.649   6.376   4.180 -0.8789 -0.5363 -3.0737
  114SAPE   H8Y11967   4.710   6.542   4.150  2.9204  0.2276 -1.5119
  114SAPE   C3911968   4.804   6.453   4.321  0.3742 -0.0325  0.2628
  114SAPE   H9X11969   4.863   6.547   4.327  1.1601 -0.5732  1.3027
  114SAPE   H9Y11970   4.876   6.367   4.323 -0.0221 -0.5257 -2.4250
  114SAPE  C31011971   4.714   6.471   4.441 -0.7759  0.7980 -0.4146
  114SAPE  H10X11972   4.651   6.379   4.441  3.1310 -2.1901 -3.1369
  114SAPE  H10Y11973   4.637   6.549   4.424 -2.7746 -1.3741 -2.0232
  114SAPE  C31111974   4.804   6.476   4.566  1.0800  0.0014 -0.7106
  114SAPE  H11X11975   4.879   6.556   4.551  1.0385  0.6908  2.2134
  114SAPE  H11Y11976   4.854   6.377   4.575 -0.1758 -0.5694  0.2439
  114SAPE  C31211977   4.726   6.493   4.702 -0.0294 -0.1661  0.5484
  114SAPE  H12X11978   4.802   6.497   4.783  0.2580  0.9313  0.2278
  114SAPE  H12Y11979   4.664   6.404   4.727  1.3951 -1.7883 -1.4089
  114SAPE  C31311980   4.635   6.612   4.711 -0.1005  0.5132 -0.3168
  114SAPE  H13X11981   4.575   6.618   4.618 -1.4414 -1.9631  0.3140
  114SAPE  H13Y11982   4.691   6.708   4.706  1.1804 -0.1485  0.6532
  114SAPE  C31411983   4.552   6.615   4.834 -0.4803  0.0329 -0.6660
  114SAPE  H14X11984   4.501   6.714   4.830 -0.7005  0.0566  1.5194
  114SAPE  H14Y11985   4.614   6.611   4.926 -0.5179  1.3408 -0.5650
  114SAPE  C31511986   4.443   6.499   4.853 -0.5255  0.4280  0.1094
  114SAPE  H15X11987   4.507   6.409   4.867 -0.7072  0.3097  0.1924
  114SAPE  H15Y11988   4.385   6.476   4.762  0.5189  0.4540 -0.5786
  114SAPE  C31611989   4.344   6.501   4.968  0.1432  0.4161  0.1926
  114SAPE  H16X11990   4.297   6.602   4.972  0.5735  0.6440 -0.3916
  114SAPE  H16Y11991   4.380   6.478   5.071  0.5994 -3.0437 -0.6176
  114SAPE  C31711992   4.220   6.414   4.935 -0.7000  0.1305 -0.2847
  114SAPE  H17X11993   4.257   6.311   4.953  0.5682  0.5208 -0.5616
  114SAPE  H17Y11994   4.198   6.425   4.827  1.5318  1.2217 -0.6903
  114SAPE  C31811995   4.079   6.445   4.997 -0.0900  0.1849 -0.3176
  114SAPE  H18X11996   4.011   6.371   4.951  1.7034 -0.5603 -1.9249
  114SAPE  H18Y11997   4.051   6.550   4.974 -1.5311 -0.4839 -1.8525
  114SAPE  H18Z11998   4.080   6.429   5.107  0.2620 -1.6572 -0.5561
  115SAPE     N11999   2.840   2.205   2.196 -0.5369  0.1682 -0.0100
  115SAPE   HN112000   2.768   2.259   2.144  1.0387  0.5558 -1.8618
  115SAPE   HN212001   2.801   2.164   2.284  0.8308 -2.2284 -0.4442
  115SAPE   HN312002   2.908   2.273   2.235 -2.9159  1.5736  2.0149
  115SAPE   C1212003   2.900   2.090   2.123 -0.2247  0.1399 -0.8048
  115SAPE  H12A12004   2.992   2.060   2.179 -1.5067  0.5605  1.6830
  115SAPE  H12B12005   2.938   2.119   2.023  1.8208  1.9615  0.3959
  115SAPE   C1112006   2.805   1.962   2.131 -0.1110 -0.8647  0.1230
  115SAPE  H11A12007   2.864   1.880   2.085  1.5791 -0.3342  1.2585
  115SAPE  H11B12008   2.714   1.979   2.069 -0.0815 -1.7948 -0.1837
  115SAPE     P12009   2.755   1.784   2.308 -0.3615 -0.0385  0.3655
  115SAPE   O1312010   2.788   1.689   2.200 -0.0694 -0.3067 -0.3884
  115SAPE   O1412011   2.834   1.772   2.433  0.0069  0.3523 -0.5408
  115SAPE   O1212012   2.770   1.938   2.260  0.1897  0.3940 -0.0957
  115SAPE   O1112013   2.593   1.786   2.335 -0.9283  0.3666 -0.3648
  115SAPE    C112014   2.536   1.894   2.398 -0.6298  0.3041  0.0526
  115SAPE    HA12015   2.550   1.989   2.342  1.8780 -0.8463 -1.4540
  115SAPE    HB12016   2.428   1.868   2.396 -0.5905  0.1316  0.1797
  115SAPE    C212017   2.569   1.900   2.548  0.1592  0.6817 -0.0154
  115SAPE    HS12018   2.677   1.926   2.556  0.6138 -1.3084  0.8192
  115SAPE   O2112019   2.541   1.770   2.616 -0.3200 -0.3766  0.9204
  115SAPE   C2112020   2.602   1.747   2.730 -0.4852 -0.1190 -0.6330
  115SAPE   O2212021   2.695   1.815   2.769 -0.3875  0.0201  0.3283
  115SAPE   C2212022   2.550   1.626   2.797 -0.2165  0.5421  0.2648
  115SAPE   H2R12023   2.562   1.546   2.720  1.3357  1.1404 -0.1578
  115SAPE   H2S12024   2.607   1.598   2.888 -1.2358  0.8619  1.0185
  115SAPE    C312025   2.480   2.015   2.600 -0.3919  0.1676  0.0214
  115SAPE    HX12026   2.378   1.974   2.579 -0.4159 -0.3040  1.0251
  115SAPE    HY12027   2.496   2.110   2.545 -1.1961  0.1686 -0.2243
  115SAPE   O3112028   2.500   2.038   2.734 -0.0583 -1.1343 -0.2506
  115SAPE   C3112029   2.601   2.113   2.769  0.0944 -0.1697  0.2986
  115SAPE   O3212030   2.687   2.158   2.696 -0.2338  0.1012  0.1887
  115SAPE   C3212031   2.602   2.139   2.922 -0.4599 -0.0316 -0.6647
  115SAPE   H2X12032   2.629   2.042   2.970 -0.0551 -0.3790 -1.5827
  115SAPE   H2Y12033   2.500   2.177   2.949  0.6128  2.2781  0.4855
  115SAPE   C2312034   2.411   1.647   2.842  0.0398 -0.1967  0.4196
  115SAPE   H3R12035   2.358   1.551   2.825  1.5606 -0.5695 -3.1270
  115SAPE   H3S12036   2.355   1.722   2.783 -0.4741 -0.9873 -0.1175
  115SAPE   C2412037   2.400   1.694   2.988 -0.4352 -0.0455 -0.3972
  115SAPE   H4R12038   2.477   1.642   3.049  0.1658  1.0803 -0.1634
  115SAPE   H4S12039   2.299   1.663   3.022 -1.1899  0.0061 -2.4926
  115SAPE   C2512040   2.405   1.846   3.013 -0.0414 -0.8472 -0.4818
  115SAPE   H5R12041   2.420   1.913   2.926  0.2055  0.2758  0.4008
  115SAPE   C2612042   2.394   1.901   3.135 -0.2116 -0.1402  0.4383
  115SAPE   H6R12043   2.385   2.010   3.146  3.3137  0.2515  0.8230
  115SAPE   C2712044   2.380   1.821   3.265  0.0967  0.9686  0.9332
  115SAPE   H7R12045   2.429   1.868   3.353 -1.6429 -0.9960  3.0871
  115SAPE   H7S12046   2.435   1.725   3.256 -0.7784  0.6009 -1.0751
  115SAPE   C2812047   2.235   1.780   3.292 -0.2062 -0.6272  0.2515
  115SAPE   H8R12048   2.173   1.759   3.203  0.4145 -1.7873  0.0609
  115SAPE   C2912049   2.186   1.774   3.417 -0.0855 -0.7000  0.2381
  115SAPE   H9R12050   2.078   1.756   3.427 -0.5613  1.3731 -0.4856
  115SAPE  C21012051   2.266   1.807   3.543 -0.3531 -0.5663  0.1198
  115SAPE  H10R12052   2.199   1.848   3.622 -0.6761  0.9349 -0.8758
  115SAPE  H10S12053   2.338   1.892   3.536 -0.5627 -0.2334  1.7443
  115SAPE  C21112054   2.347   1.684   3.576  0.0162  0.1365  0.1255
  115SAPE  H11R12055   2.410   1.646   3.494  0.1704  0.5202  0.0648
  115SAPE  C21212056   2.376   1.645   3.701  0.3794 -0.3042 -0.1926
  115SAPE  H12R12057   2.442   1.559   3.718  1.6302  1.0905  2.5763
  115SAPE  C21312058   2.325   1.716   3.825 -0.0878  0.1256  0.5096
  115SAPE  H13R12059   2.252   1.795   3.796  2.0850  1.6298 -1.1952
  115SAPE  H13S12060   2.416   1.769   3.862  0.5418  1.0623 -2.1435
  115SAPE  C21412061   2.263   1.615   3.919 -0.1407 -0.2014 -0.0856
  115SAPE  H14R12062   2.190   1.548   3.872  0.7472 -0.6963 -0.7685
  115SAPE  C21512063   2.291   1.616   4.052  0.3496  0.5445  0.1009
  115SAPE  H15R12064   2.235   1.553   4.123 -1.2341  1.7482 -0.0204
  115SAPE  C21612065   2.405   1.690   4.120 -0.0961 -0.0848  0.5497
  115SAPE  H16R12066   2.488   1.715   4.051 -0.4168  0.9997  0.5338
  115SAPE  H16S12067   2.446   1.632   4.205 -0.3996 -0.2202  0.6077
  115SAPE  C21712068   2.369   1.833   4.170 -0.6384 -0.1453  0.1462
  115SAPE  H17R12069   2.341   1.892   4.080  1.1661  1.4596  0.5755
  115SAPE  H17S12070   2.470   1.878   4.185 -0.2747 -0.5530 -1.0062
  115SAPE  C21812071   2.278   1.840   4.289 -0.4278 -0.0685  0.1522
  115SAPE  H18R12072   2.316   1.783   4.377 -0.3518  1.4037  1.0942
  115SAPE  H18S12073   2.178   1.798   4.266 -2.2151  3.4908  0.8182
  115SAPE  C21912074   2.256   1.987   4.330  0.4811 -0.1879 -0.3558
  115SAPE  H19R12075   2.357   2.034   4.333  0.3836  0.0078 -0.0227
  115SAPE  H19S12076   2.207   1.995   4.430  0.9688  0.2866 -0.1467
  115SAPE  C22012077   2.177   2.068   4.234 -0.5593  0.0684 -0.1312
  115SAPE  H20R12078   2.154   2.169   4.275  1.5542 -0.1120  1.7112
  115SAPE  H20S12079   2.079   2.022   4.212 -0.9050  0.5747  0.3095
  115SAPE  H20T12080   2.220   2.076   4.132 -0.8717 -0.3364 -0.2956
  115SAPE   C3312081   2.718   2.248   2.954  0.3858  0.2726  0.6656
  115SAPE   H3X12082   2.704   2.344   2.898 -2.4493  0.1697  1.0538
  115SAPE   H3Y12083   2.812   2.196   2.927  0.8593  0.8627  1.1421
  115SAPE   C3412084   2.724   2.280   3.098  0.4396 -0.5339 -0.2043
  115SAPE   H4X12085   2.726   2.187   3.159  1.1158 -0.8856 -0.7513
  115SAPE   H4Y12086   2.630   2.337   3.111  0.4981  0.2025 -2.5876
  115SAPE   C3512087   2.835   2.370   3.130 -0.1766  0.5349  0.2507
  115SAPE   H5X12088   2.872   2.442   3.054  2.4554 -1.4588 -0.5215
  115SAPE   H5Y12089   2.922   2.302   3.144 -2.0061 -1.6461  1.6907
  115SAPE   C3612090   2.834   2.438   3.272 -0.0770  0.4059  0.4466
  115SAPE   H6X12091   2.811   2.362   3.350 -2.6735 -0.5375 -1.1267
  115SAPE   H6Y12092   2.750   2.510   3.265 -0.6549 -0.3920 -1.1790
  115SAPE   C3712093   2.962   2.508   3.303 -0.3888  0.0574  0.3252
  115SAPE   H7X12094   2.986   2.568   3.212 -1.6506  0.4616  0.2370
  115SAPE   H7Y12095   3.050   2.443   3.319 -0.4306  0.2230  1.3168
  115SAPE   C3812096   2.947   2.602   3.424  0.1455 -0.1103 -0.4715
  115SAPE   H8X12097   2.856   2.664   3.403 -0.0863 -0.5842 -0.8689
  115SAPE   H8Y12098   3.035   2.667   3.440 -0.3479  0.2996  0.6752
  115SAPE   C3912099   2.921   2.524   3.553 -0.1043  0.0700 -0.6692
  115SAPE   H9X12100   2.999   2.446   3.546 -1.4229 -1.2172 -1.7724
  115SAPE   H9Y12101   2.824   2.470   3.548 -0.9938  1.4193  0.8625
  115SAPE  C31012102   2.943   2.601   3.684 -0.7150 -1.1410  0.2872
  115SAPE  H10X12103   2.883   2.694   3.673  1.9762  0.6117 -0.7268
  115SAPE  H10Y12104   3.050   2.632   3.685 -0.9563 -0.0490 -1.6814
  115SAPE  C31112105   2.893   2.534   3.814 -0.8766  0.6428  0.1019
  115SAPE  H11X12106   2.782   2.530   3.810 -0.7981 -1.0987 -1.9218
  115SAPE  H11Y12107   2.924   2.599   3.899  1.9795  0.0821 -0.4178
  115SAPE  C31212108   2.951   2.391   3.835 -0.1168 -0.1630 -0.4961
  115SAPE  H12X12109   3.059   2.392   3.807 -0.1253 -0.9538 -0.5675
  115SAPE  H12Y12110   2.894   2.325   3.767 -1.2320  0.6438 -0.3602
  115SAPE  C31312111   2.950   2.347   3.984  0.5798 -0.2022 -0.1002
  115SAPE  H13X12112   2.966   2.237   3.990 -2.8154 -0.9099 -1.6406
  115SAPE  H13Y12113   2.852   2.366   4.031  0.9134 -2.0298  1.4797
  115SAPE  C31412114   3.066   2.411   4.067 -0.0430  0.1519  0.7413
  115SAPE  H14X12115   3.053   2.521   4.065  2.0604  0.4463 -0.5297
  115SAPE  H14Y12116   3.166   2.383   4.025 -0.1216 -0.0593  0.6922
  115SAPE  C31512117   3.066   2.354   4.207 -0.2611 -0.1025  0.6251
  115SAPE  H15X12118   3.150   2.389   4.270  1.0163 -1.7300 -0.1087
  115SAPE  H15Y12119   3.075   2.245   4.188 -0.1006  0.1021 -0.5343
  115SAPE  C31612120   2.929   2.375   4.280 -0.5707 -0.8040  0.0167
  115SAPE  H16X12121   2.848   2.328   4.220 -1.5901  0.3888  0.4125
  115SAPE  H16Y12122   2.908   2.484   4.269 -0.9484 -0.9137 -0.4073
  115SAPE  C31712123   2.924   2.328   4.423 -0.1311  0.0233 -0.0771
  115SAPE  H17X12124   3.022   2.370   4.454  0.1374 -0.3912 -0.3450
  115SAPE  H17Y12125   2.910   2.219   4.439 -0.4935  0.1275  0.3197
  115SAPE  C31812126   2.816   2.415   4.493 -0.3083  0.3535 -0.0913
  115SAPE  H18X12127   2.726   2.408   4.428  0.3877  2.0139 -1.3116
  115SAPE  H18Y12128   2.854   2.519   4.492  1.3954 -0.2217  0.5220
  115SAPE  H18Z12129   2.787   2.373   4.592  2.7597 -1.2140  0.2644
  116SAPE     N12130   3.168   3.363   2.564  0.0537  0.0238  0.1626
  116SAPE   HN112131   3.197   3.265   2.583 -2.0402 -0.5402  0.5879
  116SAPE   HN212132   3.225   3.434   2.615  0.0188 -1.4497  2.3577
  116SAPE   HN312133   3.068   3.378   2.586  0.3775  2.5091  0.2246
  116SAPE   C1212134   3.190   3.386   2.415 -0.3165 -0.4134  0.7276
  116SAPE  H12A12135   3.131   3.303   2.368 -0.9558 -0.4303  1.5238
  116SAPE  H12B12136   3.296   3.354   2.407 -0.5629 -1.9058  2.5038
  116SAPE   C1112137   3.160   3.526   2.368  0.2975  0.2047  0.4745
  116SAPE  H11A12138   3.050   3.539   2.379 -0.1885 -2.4750 -0.6186
  116SAPE  H11B12139   3.186   3.524   2.260  0.3000 -1.0421  0.4872
  116SAPE     P12140   3.325   3.720   2.393 -0.2742  0.2632  0.0235
  116SAPE   O1312141   3.447   3.650   2.334  0.6883 -0.5778 -0.3037
  116SAPE   O1412142   3.249   3.818   2.309 -0.1815 -0.2248 -0.1477
  116SAPE   O1212143   3.218   3.622   2.451  0.4251  1.0128 -0.0417
  116SAPE   O1112144   3.386   3.784   2.526  0.4663  0.6185 -0.2314
  116SAPE    C112145   3.313   3.800   2.644  0.2863 -0.2835  0.2696
  116SAPE    HA12146   3.240   3.879   2.618 -0.3531 -1.3211 -1.2336
  116SAPE    HB12147   3.256   3.709   2.671 -0.7406  0.7351  1.6657
  116SAPE    C212148   3.393   3.843   2.765 -0.2763  0.4322 -0.3111
  116SAPE    HS12149   3.447   3.935   2.735  0.9635 -0.0029  0.5210
  116SAPE   O2112150   3.476   3.736   2.799  0.1074  0.6221 -0.0616
  116SAPE   C2112151   3.580   3.766   2.880  0.1660  0.4799  0.0858
  116SAPE   O2212152   3.622   3.878   2.908  0.1562  0.4329 -0.6031
  116SAPE   C2212153   3.636   3.635   2.929 -1.1070  0.3926  0.1421
  116SAPE   H2R12154   3.580   3.607   3.021 -1.2037 -0.6295 -0.2188
  116SAPE   H2S12155   3.606   3.557   2.856 -1.6998  1.1369 -0.4264
  116SAPE    C312156   3.297   3.894   2.876 -0.2657  0.6547  0.2101
  116SAPE    HX12157   3.350   3.935   2.964 -0.2307  1.2399 -0.0800
  116SAPE    HY12158   3.237   3.807   2.910  0.0122  0.9370  1.4688
  116SAPE   O3112159   3.225   4.010   2.821 -0.5996  0.2264  0.0670
  116SAPE   C3112160   3.094   4.000   2.810  0.3456 -0.3946 -0.2287
  116SAPE   O3212161   3.028   3.898   2.835  0.0586 -0.3073 -0.1480
  116SAPE   C3212162   3.033   4.131   2.776  0.3373  0.5868 -0.0081
  116SAPE   H2X12163   2.924   4.127   2.758  0.1742  0.3443  0.9795
  116SAPE   H2Y12164   3.083   4.159   2.680  1.7804 -1.4564  0.0817
  116SAPE   C2312165   3.791   3.635   2.943  0.9452 -0.7186 -0.0524
  116SAPE   H3R12166   3.810   3.730   2.999 -2.8962  2.0242 -2.8516
  116SAPE   H3S12167   3.832   3.655   2.842 -0.5095  1.4738 -0.2846
  116SAPE   C2412168   3.841   3.523   3.029  0.4397 -0.0083  0.2906
  116SAPE   H4R12169   3.792   3.435   2.982  1.2993 -0.2119 -0.2268
  116SAPE   H4S12170   3.792   3.539   3.128 -0.9799 -0.8617 -0.2337
  116SAPE   C2512171   3.989   3.502   3.026  0.3657  0.4632  0.0234
  116SAPE   H5R12172   4.027   3.461   2.932 -0.3860  0.3922 -0.2612
  116SAPE   C2612173   4.063   3.510   3.140  0.2640 -0.1754 -0.0588
  116SAPE   H6R12174   4.170   3.487   3.134 -0.1057 -1.6632 -1.8477
  116SAPE   C2712175   4.005   3.572   3.266 -0.1768  0.1730  0.1893
  116SAPE   H7R12176   3.932   3.509   3.322 -0.7162 -0.8087 -1.5601
  116SAPE   H7S12177   3.942   3.660   3.241  1.2984  1.7472  1.7663
  116SAPE   C2812178   4.119   3.622   3.353  0.2781  0.2032 -0.2378
  116SAPE   H8R12179   4.180   3.707   3.319  0.6630 -0.4110 -1.1132
  116SAPE   C2912180   4.142   3.573   3.479  0.6643 -0.4682 -0.4389
  116SAPE   H9R12181   4.223   3.619   3.537  0.4246  0.5887 -0.9248
  116SAPE  C21012182   4.065   3.461   3.541 -0.0379 -1.1298 -0.0894
  116SAPE  H10R12183   4.116   3.416   3.629 -2.2655 -1.5562  1.0293
  116SAPE  H10S12184   4.049   3.386   3.460 -1.5331  0.7989 -1.7101
  116SAPE  C21112185   3.927   3.516   3.585 -0.2301  0.4185 -0.5926
  116SAPE  H11R12186   3.846   3.495   3.514 -0.3489 -2.7595  0.2979
  116SAPE  C21212187   3.889   3.570   3.702  0.0845 -0.6156  0.1062
  116SAPE  H12R12188   3.786   3.603   3.721  0.0697  1.0234 -2.3669
  116SAPE  C21312189   3.982   3.593   3.816 -0.3264 -0.4922 -0.2657
  116SAPE  H13R12190   4.076   3.536   3.828 -1.3323 -1.6250  3.7425
  116SAPE  H13S12191   3.933   3.566   3.912  1.9205 -0.5817  0.9351
  116SAPE  C21412192   4.029   3.738   3.814 -0.0023 -0.3645 -0.6272
  116SAPE  H14R12193   4.071   3.783   3.723 -0.6985 -0.1194 -0.8371
  116SAPE  C21512194   4.034   3.819   3.925  0.2666  0.5605 -1.2180
  116SAPE  H15R12195   4.053   3.925   3.902  2.2237  0.9151  1.5531
  116SAPE  C21612196   3.997   3.802   4.073 -0.1740 -0.0252 -0.4086
  116SAPE  H16R12197   3.962   3.697   4.088 -1.2854  0.3416 -0.3082
  116SAPE  H16S12198   3.913   3.869   4.099 -0.1711 -0.2100  0.0811
  116SAPE  C21712199   4.117   3.838   4.171  0.5638 -0.1829  0.5959
  116SAPE  H17R12200   4.143   3.945   4.155 -2.9916  0.7917  0.5604
  116SAPE  H17S12201   4.212   3.785   4.148  0.5343  0.3590 -0.8406
  116SAPE  C21812202   4.068   3.824   4.316 -0.2683 -0.3159  0.3798
  116SAPE  H18R12203   4.039   3.719   4.335  1.7283 -0.8586  0.6350
  116SAPE  H18S12204   3.981   3.891   4.327  0.5370  0.7476  0.4749
  116SAPE  C21912205   4.167   3.869   4.423 -0.5281 -0.3465 -0.3512
  116SAPE  H19R12206   4.193   3.974   4.398  0.1977 -0.7708 -1.4535
  116SAPE  H19S12207   4.258   3.805   4.422 -0.5136 -0.5116  2.5962
  116SAPE  C22012208   4.079   3.868   4.553  0.1741 -0.0943  0.1983
  116SAPE  H20R12209   4.140   3.919   4.631  0.9924 -0.4737 -0.1867
  116SAPE  H20S12210   4.053   3.763   4.577 -0.1822  0.1446  0.9240
  116SAPE  H20T12211   3.983   3.923   4.539  0.5314  0.4626 -0.1033
  116SAPE   C3312212   3.059   4.227   2.898  0.3839  0.4986  0.2602
  116SAPE   H3X12213   3.037   4.332   2.871 -0.3723  0.0749 -0.8396
  116SAPE   H3Y12214   3.160   4.229   2.945 -0.4495  2.7323  2.1437
  116SAPE   C3412215   2.966   4.186   3.020 -0.8897  0.3355 -0.1177
  116SAPE   H4X12216   2.994   4.082   3.046  2.7531  0.8332 -1.4317
  116SAPE   H4Y12217   2.863   4.171   2.979 -0.9620 -0.2910  0.2797
  116SAPE   C3512218   2.978   4.283   3.142  0.4353 -0.2545  0.2482
  116SAPE   H5X12219   2.936   4.378   3.102 -0.3335 -0.5958  0.2153
  116SAPE   H5Y12220   3.086   4.298   3.162  1.1420 -2.6520 -1.2507
  116SAPE   C3612221   2.899   4.248   3.263  0.0018  0.4427 -0.3115
  116SAPE   H6X12222   2.930   4.151   3.307  1.3536  0.2638 -1.5800
  116SAPE   H6Y12223   2.793   4.229   3.238 -0.2428  0.8278  0.4150
  116SAPE   C3712224   2.912   4.348   3.384 -0.2233 -0.5786  0.0005
  116SAPE   H7X12225   2.875   4.445   3.346 -1.2897 -1.0001 -0.0787
  116SAPE   H7Y12226   3.020   4.344   3.410 -0.7257 -1.0109  2.2550
  116SAPE   C3812227   2.823   4.310   3.504 -0.6931 -0.5965 -0.2007
  116SAPE   H8X12228   2.855   4.213   3.546  1.2366 -0.1504 -0.5418
  116SAPE   H8Y12229   2.720   4.294   3.465 -1.1100  0.3461  0.4563
  116SAPE   C3912230   2.821   4.411   3.623  0.3455 -0.1414  0.3329
  116SAPE   H9X12231   2.828   4.515   3.587  2.0891 -0.4576 -0.3185
  116SAPE   H9Y12232   2.911   4.398   3.687 -0.1410  3.6063  2.0290
  116SAPE  C31012233   2.682   4.397   3.696 -1.0251  0.2139 -0.3427
  116SAPE  H10X12234   2.668   4.292   3.731  3.1761  0.0859  1.6060
  116SAPE  H10Y12235   2.604   4.422   3.621 -1.2368 -0.1935 -0.2604
  116SAPE  C31112236   2.678   4.494   3.816  0.1043  0.1655 -0.5189
  116SAPE  H11X12237   2.720   4.591   3.784 -0.6508 -0.0426 -2.2611
  116SAPE  H11Y12238   2.744   4.447   3.892  0.0835 -0.5647 -0.9420
  116SAPE  C31212239   2.541   4.506   3.881 -0.5032  0.3359 -0.1464
  116SAPE  H12X12240   2.507   4.405   3.913 -0.9233 -0.2166 -2.1644
  116SAPE  H12Y12241   2.464   4.528   3.804 -0.5243  0.5566 -0.0632
  116SAPE  C31312242   2.543   4.606   3.996 -0.5867  0.1571  0.2522
  116SAPE  H13X12243   2.438   4.640   4.009 -1.2256 -1.3249 -0.6607
  116SAPE  H13Y12244   2.593   4.697   3.958 -0.6529 -0.3407 -1.1268
  116SAPE  C31412245   2.611   4.546   4.125 -0.9069 -0.1586 -0.8009
  116SAPE  H14X12246   2.716   4.520   4.100 -0.7993 -1.0254  0.4398
  116SAPE  H14Y12247   2.555   4.451   4.143 -0.0694 -0.2687  1.5310
  116SAPE  C31512248   2.597   4.634   4.250 -0.0478 -0.3434  0.2144
  116SAPE  H15X12249   2.490   4.664   4.257  0.8388  3.1166  0.7954
  116SAPE  H15Y12250   2.660   4.723   4.231  0.0047 -0.5197 -0.4423
  116SAPE  C31612251   2.633   4.585   4.384 -0.1485 -0.3022 -0.2032
  116SAPE  H16X12252   2.569   4.500   4.417 -0.5500  0.0674 -0.0207
  116SAPE  H16Y12253   2.606   4.662   4.459 -0.9202 -0.0915 -0.6922
  116SAPE  C31712254   2.783   4.538   4.396  0.2653 -0.4252 -0.2799
  116SAPE  H17X12255   2.781   4.440   4.344 -1.4673 -0.8364  0.4969
  116SAPE  H17Y12256   2.804   4.514   4.502  0.9426 -3.6564 -1.0471
  116SAPE  C31812257   2.901   4.619   4.334 -0.2076  0.2102 -0.3248
  116SAPE  H18X12258   2.887   4.724   4.366  2.0399  0.5267 -0.2684
  116SAPE  H18Y12259   2.885   4.598   4.226 -1.5243 -0.6720  0.0045
  116SAPE  H18Z12260   2.993   4.570   4.372 -1.1307  1.3744  3.8342
  117SOPE     N12261   1.695   2.213   7.221  0.4249 -0.4089  0.6268
  117SOPE   HN112262   1.677   2.297   7.279 -1.4084 -1.6729  2.0052
  117SOPE   HN212263   1.603   2.169   7.202 -0.2341  0.8905  0.6586
  117SOPE   HN312264   1.757   2.152   7.277  0.9605  0.8210  1.4070
  117SOPE   C1212265   1.757   2.244   7.084  0.8380  0.0390 -0.8637
  117SOPE  H12A12266   1.780   2.149   7.030  0.4215 -1.6940  1.8002
  117SOPE  H12B12267   1.856   2.292   7.101  2.2076 -2.8788  0.0815
  117SOPE   C1112268   1.666   2.322   6.991  0.1166 -0.2990 -0.7023
  117SOPE  H11A12269   1.563   2.283   6.982 -0.5544  1.1669  0.2599
  117SOPE  H11B12270   1.713   2.312   6.891  0.1121 -0.2280 -0.7118
  117SOPE     P12271   1.547   2.559   7.013 -0.3479  0.0069  0.1307
  117SOPE   O1312272   1.570   2.685   7.087  0.4094 -0.0059  0.5410
  117SOPE   O1412273   1.425   2.487   7.054  0.4993  0.1712 -0.0145
  117SOPE   O1212274   1.665   2.462   7.034 -0.6758 -0.3772 -0.5485
  117SOPE   O1112275   1.555   2.602   6.860  0.9512 -0.4658  0.4384
  117SOPE    C112276   1.673   2.608   6.784 -0.1072  0.2856  0.7608
  117SOPE    HA12277   1.749   2.530   6.807  0.5120  0.1991 -1.3880
  117SOPE    HB12278   1.722   2.706   6.803  0.0767  0.8108 -2.0379
  117SOPE    C212279   1.650   2.601   6.627 -0.2416  0.4322 -0.6174
  117SOPE    HS12280   1.742   2.569   6.575 -1.7104 -0.2949 -2.9293
  117SOPE   O2112281   1.612   2.729   6.567 -0.0381 -0.2389  0.5191
  117SOPE   C2112282   1.709   2.821   6.585  0.5958  1.0219 -0.0948
  117SOPE   O2212283   1.826   2.801   6.622  0.5373  0.5659  0.0553
  117SOPE   C2212284   1.649   2.961   6.564 -0.7359 -0.3620 -0.1898
  117SOPE   H2R12285   1.712   3.027   6.627 -0.7322  1.3155 -1.8477
  117SOPE   H2S12286   1.543   2.960   6.596 -1.0660  1.0947 -1.1070
  117SOPE    C312287   1.546   2.497   6.583 -0.0216  0.1856  0.2900
  117SOPE    HX12288   1.448   2.518   6.631 -1.3814 -1.8754 -1.3806
  117SOPE    HY12289   1.558   2.393   6.622 -1.9823  0.1753  1.0118
  117SOPE   O3112290   1.528   2.506   6.441  0.1903 -0.1291 -0.4522
  117SOPE   C3112291   1.604   2.426   6.371 -0.4884 -0.2719  0.0251
  117SOPE   O3212292   1.679   2.342   6.418  0.0391 -0.3960  0.4674
  117SOPE   C3212293   1.596   2.469   6.223  0.2660 -0.1805  0.2655
  117SOPE   H2X12294   1.500   2.428   6.185  0.7732  0.8055 -2.2906
  117SOPE   H2Y12295   1.667   2.414   6.157  2.5527  1.8167  0.9105
  117SOPE   C2312296   1.671   3.002   6.424  0.3661  0.1247  0.2636
  117SOPE   H3R12297   1.607   2.931   6.367  0.7782 -1.1523  1.3420
  117SOPE   H3S12298   1.777   2.991   6.391 -0.1557  2.6613 -2.8122
  117SOPE   C2412299   1.634   3.146   6.391 -0.2815  0.1481 -0.1894
  117SOPE   H4R12300   1.546   3.180   6.451 -0.4813  0.5246 -0.6924
  117SOPE   H4S12301   1.723   3.204   6.423 -0.3667  0.4909 -0.5685
  117SOPE   C2512302   1.595   3.159   6.245 -0.4819 -0.0887  0.2891
  117SOPE   H5R12303   1.677   3.113   6.186  0.5459 -0.0020  1.6025
  117SOPE   H5S12304   1.506   3.097   6.221 -1.0075  1.2236 -1.2924
  117SOPE   C2612305   1.565   3.303   6.211  0.6060 -0.4256 -0.2865
  117SOPE   H6R12306   1.477   3.342   6.265  1.0314 -0.7655  0.6655
  117SOPE   H6S12307   1.640   3.368   6.261  0.6047  1.5324 -2.5978
  117SOPE   C2712308   1.564   3.321   6.058 -0.2408  0.1970  0.4427
  117SOPE   H7R12309   1.648   3.382   6.019 -0.4413  0.9910  1.2357
  117SOPE   H7S12310   1.581   3.220   6.013  0.5235  0.1420  0.8365
  117SOPE   C2812311   1.432   3.362   5.991  0.2364 -0.4518 -0.0379
  117SOPE   H8R12312   1.468   3.373   5.887 -0.7399 -1.4050 -0.4928
  117SOPE   H8S12313   1.360   3.278   6.003  0.1478 -0.6041 -1.5128
  117SOPE   C2912314   1.370   3.491   6.037  0.0601 -0.4980  0.0372
  117SOPE   H9112315   1.409   3.518   6.136 -0.0721 -0.4737  0.0832
  117SOPE  C21012316   1.250   3.540   5.991 -0.2296  0.1134  1.1532
  117SOPE  H10112317   1.206   3.630   6.037  1.2695  1.2232  0.5275
  117SOPE  C21112318   1.172   3.493   5.874  0.0576  0.3911  0.7247
  117SOPE  H11R12319   1.246   3.446   5.806 -0.2291  0.5748  0.2870
  117SOPE  H11S12320   1.125   3.570   5.809 -0.5648  0.8090  1.6471
  117SOPE  C21212321   1.070   3.374   5.894 -0.5656  0.0244  0.2368
  117SOPE  H12R12322   0.989   3.398   5.968  0.0469 -1.2875  1.3867
  117SOPE  H12S12323   1.133   3.292   5.935  1.1209  1.9651  1.7072
  117SOPE  C21312324   0.998   3.344   5.768  0.8933  0.2664  0.0227
  117SOPE  H13R12325   0.938   3.430   5.732 -1.2635 -1.0893  0.1975
  117SOPE  H13S12326   0.918   3.272   5.797  0.0585  1.5071  0.8723
  117SOPE  C21412327   1.086   3.284   5.647  0.6281  0.1680  0.3846
  117SOPE  H14R12328   1.127   3.183   5.667 -0.0535 -0.1568  0.2080
  117SOPE  H14S12329   1.167   3.359   5.634 -0.8193  2.0894  1.7326
  117SOPE  C21512330   0.998   3.274   5.518  0.7032 -0.4141 -0.1542
  117SOPE  H15R12331   0.913   3.204   5.532  0.3010  0.2326  0.6552
  117SOPE  H15S12332   1.057   3.216   5.444  2.2598  0.4492  0.3485
  117SOPE  C21612333   0.949   3.403   5.453  0.1355  0.4495 -0.1659
  117SOPE  H16R12334   1.030   3.474   5.478 -0.4165  0.9515  0.2179
  117SOPE  H16S12335   0.855   3.443   5.498  0.3948 -0.2124  0.9997
  117SOPE  C21712336   0.949   3.402   5.302  0.3212 -0.2610 -0.6457
  117SOPE  H17R12337   1.054   3.393   5.267  0.3245  1.3386 -1.1521
  117SOPE  H17S12338   0.918   3.503   5.266  0.2961 -0.5994 -1.6225
  117SOPE  C21812339   0.854   3.295   5.239  0.4375  0.3544  0.2164
  117SOPE  H18R12340   0.849   3.286   5.128 -1.2970  3.8887 -0.1361
  117SOPE  H18S12341   0.751   3.314   5.277 -0.0692  0.0630 -0.9808
  117SOPE  H18T12342   0.873   3.193   5.279  0.0101  0.3071  0.3098
  117SOPE   C3312343   1.596   2.615   6.196 -0.1549 -0.0658 -0.0579
  117SOPE   H3X12344   1.685   2.661   6.245 -0.2321  1.6375 -1.4344
  117SOPE   H3Y12345   1.506   2.661   6.243  0.7966 -0.1981  2.0356
  117SOPE   C3412346   1.590   2.653   6.051 -0.3360 -0.5582  0.2767
  117SOPE   H4X12347   1.608   2.763   6.041  0.2284 -0.5553  1.1981
  117SOPE   H4Y12348   1.490   2.630   6.009 -1.2569  1.1615  1.3690
  117SOPE   C3512349   1.702   2.584   5.958  0.6256 -0.0421  0.5075
  117SOPE   H5X12350   1.668   2.477   5.954  0.9639 -0.1445  0.3803
  117SOPE   H5Y12351   1.801   2.580   6.008  1.5888  3.6935 -0.8390
  117SOPE   C3612352   1.725   2.645   5.822 -0.2738  0.0985  0.1329
  117SOPE   H6X12353   1.818   2.592   5.790 -0.4397 -1.0094  1.3898
  117SOPE   H6Y12354   1.749   2.753   5.825 -0.5345  0.1315  1.8807
  117SOPE   C3712355   1.609   2.616   5.719 -0.6017  0.2829  0.7878
  117SOPE   H7X12356   1.527   2.673   5.767 -0.4986  0.8085  0.3374
  117SOPE   H7Y12357   1.596   2.505   5.714  1.9386 -0.0192 -2.6278
  117SOPE   C3812358   1.647   2.672   5.587 -0.3241  0.1069  0.9921
  117SOPE   H8X12359   1.730   2.746   5.584 -1.3799  1.3577  1.6237
  117SOPE   H8Y12360   1.561   2.727   5.543 -0.4441 -0.8918 -0.0552
  117SOPE   C3912361   1.704   2.561   5.493 -0.1780  0.0159 -0.2237
  117SOPE   H9X12362   1.637   2.475   5.475 -1.0019  1.1170 -2.8783
  117SOPE   H9Y12363   1.802   2.532   5.537 -1.1014  0.1064  2.0303
  117SOPE  C31012364   1.716   2.614   5.349  0.4462 -0.3494 -0.3169
  117SOPE  H10X12365   1.767   2.712   5.334  0.1068 -0.3092 -1.3218
  117SOPE  H10Y12366   1.614   2.621   5.304  0.0210  2.0983  0.8423
  117SOPE  C31112367   1.773   2.515   5.247  0.1484 -0.2339  0.2470
  117SOPE  H11X12368   1.709   2.426   5.227 -0.4645 -0.3796  2.5335
  117SOPE  H11Y12369   1.863   2.482   5.303  0.7782  2.1238  0.7043
  117SOPE  C31212370   1.804   2.577   5.103 -0.2450 -0.0036  0.4174
  117SOPE  H12X12371   1.862   2.670   5.123 -0.7558 -0.3259  4.2461
  117SOPE  H12Y12372   1.710   2.600   5.049  0.7758 -1.1833 -2.0418
  117SOPE  C31312373   1.884   2.493   5.012 -1.0108  0.8122  0.2750
  117SOPE  H13X12374   1.966   2.441   5.066  0.4530  1.4161 -1.2567
  117SOPE  H13Y12375   1.949   2.556   4.948 -1.5244  1.2427  0.1693
  117SOPE  C31412376   1.797   2.392   4.927 -0.3137 -0.5558  0.4712
  117SOPE  H14X12377   1.718   2.454   4.880  0.2797  1.1465  1.6165
  117SOPE  H14Y12378   1.748   2.327   5.003 -0.9689  1.0489  1.4800
  117SOPE  C31512379   1.877   2.311   4.816 -0.4707  0.0625 -0.2774
  117SOPE  H15X12380   1.812   2.225   4.787 -1.7713 -0.2410  3.1085
  117SOPE  H15Y12381   1.968   2.277   4.869 -0.3141  1.7896  0.5969
  117SOPE  C31612382   1.902   2.391   4.691  0.2127  0.0751  0.3225
  117SOPE  H16X12383   1.962   2.480   4.718 -0.7533  0.4841  1.1697
  117SOPE  H16Y12384   1.804   2.418   4.645 -0.5574 -0.1634  1.7796
  117SOPE  C31712385   1.983   2.307   4.584  0.6184 -0.0479 -0.6161
  117SOPE  H17X12386   2.079   2.273   4.630  0.3248  0.3173  0.2686
  117SOPE  H17Y12387   2.002   2.371   4.495 -0.2091 -1.5992 -1.9675
  117SOPE  C31812388   1.903   2.189   4.528 -0.2405 -0.4086 -0.3964
  117SOPE  H18X12389   1.862   2.129   4.612 -0.8328 -1.6287 -1.5110
  117SOPE  H18Y12390   1.973   2.126   4.469  2.2040  1.2944  0.5006
  117SOPE  H18Z12391   1.820   2.229   4.466  0.3392 -1.4099 -1.8717
  118SOPE     N12392   2.682   3.489   6.688 -0.3818  0.5311 -0.5984
  118SOPE   HN112393   2.610   3.466   6.616 -0.4569 -0.3467 -0.2584
  118SOPE   HN212394   2.694   3.592   6.695 -0.3860  0.4352  1.6625
  118SOPE   HN312395   2.775   3.446   6.672  0.1406  1.2496  0.4020
  118SOPE   C1212396   2.627   3.431   6.821 -0.0918 -0.3799 -0.5476
  118SOPE  H12A12397   2.712   3.444   6.892  0.8023  2.1356 -1.9742
  118SOPE  H12B12398   2.601   3.324   6.803  0.1604 -0.0264 -3.4091
  118SOPE   C1112399   2.510   3.514   6.876 -0.1201 -0.3128  0.0985
  118SOPE  H11A12400   2.562   3.611   6.893  0.5978 -0.9679  1.9369
  118SOPE  H11B12401   2.474   3.481   6.976  0.5210 -3.2825 -0.5579
  118SOPE     P12402   2.294   3.634   6.801  0.5132 -0.0419 -0.1610
  118SOPE   O1312403   2.353   3.759   6.852  0.3670 -0.1263  0.8814
  118SOPE   O1412404   2.188   3.565   6.880 -0.2227  0.0567  0.0560
  118SOPE   O1212405   2.406   3.528   6.783 -0.4918 -0.3146  0.2900
  118SOPE   O1112406   2.240   3.672   6.657 -0.4689 -0.3937 -0.4385
  118SOPE    C112407   2.325   3.713   6.548  0.1016 -0.6252 -0.1745
  118SOPE    HA12408   2.425   3.669   6.564 -0.1170 -1.9932 -2.2141
  118SOPE    HB12409   2.345   3.822   6.555  2.9672 -1.1725  2.1327
  118SOPE    C212410   2.271   3.674   6.402  0.3525 -1.0265  0.2397
  118SOPE    HS12411   2.163   3.703   6.401  0.0754 -1.9582  1.2699
  118SOPE   O2112412   2.283   3.534   6.388 -0.3279 -0.3896 -0.4007
  118SOPE   C2112413   2.180   3.459   6.435 -0.2156 -0.2832  0.4940
  118SOPE   O2212414   2.088   3.501   6.501 -0.1777 -0.1620 -0.0497
  118SOPE   C2212415   2.195   3.315   6.378 -0.3418  0.1756  0.2842
  118SOPE   H2R12416   2.258   3.250   6.443 -0.0520  1.2165  1.0632
  118SOPE   H2S12417   2.229   3.326   6.273 -1.5875  0.8359 -0.0669
  118SOPE    C312418   2.348   3.743   6.286 -0.3067 -0.1852 -0.3245
  118SOPE    HX12419   2.454   3.723   6.310  0.0698  0.1394 -1.6675
  118SOPE    HY12420   2.331   3.853   6.297  1.8631  0.3453 -1.7745
  118SOPE   O3112421   2.314   3.674   6.162  0.4698 -0.0028 -0.2595
  118SOPE   C3112422   2.212   3.745   6.098  0.4760  0.4499  0.3808
  118SOPE   O3212423   2.158   3.844   6.145 -0.1209 -0.0324 -0.6475
  118SOPE   C3212424   2.177   3.680   5.966 -0.3023 -0.3886 -0.0051
  118SOPE   H2X12425   2.070   3.649   5.977 -0.0197 -1.5238 -0.2899
  118SOPE   H2Y12426   2.239   3.591   5.943 -2.7139 -2.4780  0.9829
  118SOPE   C2312427   2.061   3.245   6.351  0.3739 -1.0114 -0.6305
  118SOPE   H3R12428   2.014   3.229   6.450  1.3816  1.7258  0.3847
  118SOPE   H3S12429   2.088   3.145   6.310  1.6259 -1.6585  1.5889
  118SOPE   C2412430   1.965   3.315   6.259  0.4188  0.7362 -0.6480
  118SOPE   H4R12431   1.875   3.252   6.242 -0.1291  1.5092 -0.6640
  118SOPE   H4S12432   1.923   3.405   6.308 -1.5005 -0.4524 -0.0028
  118SOPE   C2512433   2.015   3.356   6.115  0.0435 -0.1015 -0.0104
  118SOPE   H5R12434   1.933   3.420   6.077 -0.7124 -0.0657  1.6030
  118SOPE   H5S12435   2.106   3.416   6.131  0.0664 -0.0495 -0.3381
  118SOPE   C2612436   2.046   3.254   6.006  0.0322 -0.2457  0.2084
  118SOPE   H6R12437   2.109   3.171   6.045  2.6734  0.9219 -1.3020
  118SOPE   H6S12438   1.955   3.205   5.965  0.7551 -0.8896 -0.6694
  118SOPE   C2712439   2.114   3.315   5.884  0.4145  0.4766  0.1395
  118SOPE   H7R12440   2.050   3.392   5.836  1.8728  1.3252 -0.5167
  118SOPE   H7S12441   2.191   3.383   5.928 -0.8821  2.4250 -0.4742
  118SOPE   C2812442   2.200   3.225   5.797  0.3556 -0.2432  0.5359
  118SOPE   H8R12443   2.258   3.282   5.721 -1.4100 -0.1499 -0.8053
  118SOPE   H8S12444   2.280   3.164   5.844  1.5788 -0.0551 -1.2321
  118SOPE   C2912445   2.098   3.132   5.737 -0.2171  0.3752 -0.4127
  118SOPE   H9112446   2.034   3.074   5.804  1.4928  0.8427  1.7227
  118SOPE  C21012447   2.078   3.095   5.612  0.2957 -0.1180 -0.0097
  118SOPE  H10112448   1.986   3.037   5.602  0.0421 -0.0160  1.4428
  118SOPE  C21112449   2.145   3.157   5.489  0.2196 -0.6582  0.2086
  118SOPE  H11R12450   2.142   3.077   5.412 -4.4245 -1.0007  0.4219
  118SOPE  H11S12451   2.249   3.189   5.511  0.8431 -2.6896  0.3662
  118SOPE  C21212452   2.056   3.273   5.443  0.1379  0.2096 -0.4196
  118SOPE  H12R12453   2.056   3.359   5.513  0.2088  0.8818 -1.2158
  118SOPE  H12S12454   1.953   3.232   5.431  1.3435 -3.1067 -0.5993
  118SOPE  C21312455   2.107   3.346   5.313  0.2514  0.2328 -0.3397
  118SOPE  H13R12456   2.217   3.363   5.319  0.6258 -2.2519  2.0347
  118SOPE  H13S12457   2.054   3.443   5.300  0.4357  0.6077  1.4458
  118SOPE  C21412458   2.079   3.262   5.187  0.1911  0.2522 -0.5700
  118SOPE  H14R12459   1.973   3.273   5.156 -0.0084  2.6875  0.7305
  118SOPE  H14S12460   2.097   3.154   5.203  0.2515  0.3498  0.0476
  118SOPE  C21512461   2.166   3.300   5.067  0.1767  0.1801 -0.1698
  118SOPE  H15R12462   2.176   3.223   4.988  1.5437  0.9792 -0.8202
  118SOPE  H15S12463   2.268   3.298   5.112 -0.2907  1.0223  0.9767
  118SOPE  C21612464   2.122   3.437   5.010 -0.3683 -0.2966 -0.1362
  118SOPE  H16R12465   2.141   3.510   5.092 -0.9012 -0.2139 -0.0818
  118SOPE  H16S12466   2.012   3.440   5.001 -0.3821 -0.2833  0.0317
  118SOPE  C21712467   2.193   3.495   4.889  0.3922 -0.2234 -0.4737
  118SOPE  H17R12468   2.178   3.427   4.803 -1.5773 -0.9464  0.3607
  118SOPE  H17S12469   2.302   3.499   4.911  0.4808 -1.6507 -0.5586
  118SOPE  C21812470   2.122   3.631   4.852 -0.1667  0.5300  0.5622
  118SOPE  H18R12471   2.164   3.706   4.922  2.3846  0.9923 -1.3312
  118SOPE  H18S12472   2.012   3.617   4.860 -0.0011 -2.2691 -0.8021
  118SOPE  H18T12473   2.151   3.658   4.748  1.2277 -0.9095  0.5430
  118SOPE   C3312474   2.190   3.780   5.849 -0.1921  0.1549  0.2695
  118SOPE   H3X12475   2.292   3.822   5.851  0.1640 -0.7129  0.8787
  118SOPE   H3Y12476   2.118   3.858   5.882  0.9121  1.7229 -0.8793
  118SOPE   C3412477   2.152   3.722   5.710  0.3733 -0.7825 -0.0703
  118SOPE   H4X12478   2.050   3.683   5.691 -0.5735  0.5312  1.9541
  118SOPE   H4Y12479   2.224   3.642   5.682 -0.7354 -1.1620 -2.0055
  118SOPE   C3512480   2.182   3.837   5.611 -0.1264  0.6827 -0.4347
  118SOPE   H5X12481   2.283   3.882   5.626 -0.9938  2.4309  0.5233
  118SOPE   H5Y12482   2.102   3.913   5.629  0.4026  1.1803 -0.1422
  118SOPE   C3612483   2.165   3.782   5.465  0.4497  0.4983  0.0444
  118SOPE   H6X12484   2.068   3.732   5.447  0.4462 -0.2782  1.9156
  118SOPE   H6Y12485   2.239   3.700   5.462 -0.3354 -0.2270  0.1510
  118SOPE   C3712486   2.205   3.888   5.362 -0.2604 -0.2790 -0.2570
  118SOPE   H7X12487   2.311   3.919   5.374 -0.9905  2.3895  0.1495
  118SOPE   H7Y12488   2.146   3.973   5.404  0.2772 -0.6367  1.2639
  118SOPE   C3812489   2.184   3.851   5.209  0.7867 -0.0342 -0.2072
  118SOPE   H8X12490   2.076   3.831   5.192 -0.2971  4.1291  0.5605
  118SOPE   H8Y12491   2.246   3.766   5.174 -1.9012 -2.5782  0.7231
  118SOPE   C3912492   2.207   3.973   5.119 -0.1666 -0.6470  0.4069
  118SOPE   H9X12493   2.216   3.938   5.014 -1.6815 -1.9306  0.6783
  118SOPE   H9Y12494   2.297   4.036   5.137  0.7087 -1.4893 -0.8610
  118SOPE  C31012495   2.091   4.075   5.129  0.4319  0.3399  0.3449
  118SOPE  H10X12496   2.122   4.161   5.192  3.3094  1.6801 -2.6012
  118SOPE  H10Y12497   2.003   4.035   5.185 -1.3742  3.2510 -0.2011
  118SOPE  C31112498   2.056   4.114   4.988  0.2436 -0.0978  0.3541
  118SOPE  H11X12499   2.150   4.117   4.928  0.0156 -0.4947 -0.0253
  118SOPE  H11Y12500   2.020   4.219   4.994  1.5951  0.4090  0.0229
  118SOPE  C31212501   1.944   4.032   4.922 -0.1751  0.2264 -0.5320
  118SOPE  H12X12502   1.865   4.012   4.997  0.3751 -1.6125 -0.3859
  118SOPE  H12Y12503   1.979   3.934   4.881 -1.1798 -0.1923 -0.4055
  118SOPE  C31312504   1.888   4.103   4.804  0.7484  0.2976  0.8154
  118SOPE  H13X12505   1.955   4.148   4.726  0.4727  0.9701  0.9586
  118SOPE  H13Y12506   1.821   4.179   4.849 -0.0271 -0.3232  0.7282
  118SOPE  C31412507   1.790   4.009   4.721 -0.5299 -1.1285  0.5330
  118SOPE  H14X12508   1.704   3.974   4.781 -0.6687 -3.6103 -0.9981
  118SOPE  H14Y12509   1.847   3.915   4.708 -1.7021 -1.7646 -0.1834
  118SOPE  C31512510   1.750   4.064   4.585 -0.8257 -0.3318  0.7873
  118SOPE  H15X12511   1.835   4.104   4.527 -1.3657  1.0391  0.8893
  118SOPE  H15Y12512   1.686   4.152   4.609  2.1633  1.9357  0.9228
  118SOPE  C31612513   1.682   3.966   4.479 -0.7121  0.1590 -0.0397
  118SOPE  H16X12514   1.634   4.029   4.401 -0.0718 -0.1302 -0.6809
  118SOPE  H16Y12515   1.613   3.891   4.523  1.3477 -3.7177 -2.8257
  118SOPE  C31712516   1.795   3.894   4.395  0.4536  0.5966 -0.3784
  118SOPE  H17X12517   1.857   3.839   4.468  0.1842  0.7515 -0.0265
  118SOPE  H17Y12518   1.867   3.967   4.353  0.5735  2.3336  2.5617
  118SOPE  C31812519   1.730   3.820   4.277 -0.4416  0.3758  0.2756
  118SOPE  H18X12520   1.684   3.887   4.201  1.7851  2.4975  0.7038
  118SOPE  H18Y12521   1.671   3.729   4.304  0.8703 -0.5737  0.0527
  118SOPE  H18Z12522   1.818   3.772   4.229  0.0455 -1.1481  2.5420
  119SOPE     N12523   5.332   2.628   6.941  0.2413 -0.2964 -0.2196
  119SOPE   HN112524   5.383   2.714   6.972 -1.4895  0.4712  0.6555
  119SOPE   HN212525   5.234   2.649   6.968  0.0857  1.4780 -1.9346
  119SOPE   HN312526   5.367   2.548   6.997 -0.5802 -0.2084  0.4416
  119SOPE   C1212527   5.339   2.616   6.790 -0.2436  0.3674 -0.6755
  119SOPE  H12A12528   5.253   2.555   6.754  1.2826 -1.3009 -1.6381
  119SOPE  H12B12529   5.427   2.551   6.775 -1.0708 -0.3727 -2.7154
  119SOPE   C1112530   5.356   2.759   6.735 -0.7230  0.0820  0.6262
  119SOPE  H11A12531   5.259   2.813   6.725 -0.7023 -0.2020 -1.7062
  119SOPE  H11B12532   5.384   2.753   6.628 -0.6291 -0.0576  0.6585
  119SOPE     P12533   5.599   2.870   6.773 -0.2687 -0.0848 -0.5793
  119SOPE   O1312534   5.683   2.751   6.803 -0.0861 -0.2982 -0.2635
  119SOPE   O1412535   5.636   2.993   6.842  0.1117  0.0954 -0.0631
  119SOPE   O1212536   5.447   2.838   6.812  0.1511  0.8248 -0.1211
  119SOPE   O1112537   5.603   2.910   6.615 -0.4469  0.5851 -0.1344
  119SOPE    C112538   5.525   3.013   6.561  0.0109 -0.2498 -0.2491
  119SOPE    HA12539   5.557   3.108   6.611  0.3375 -1.4750  2.0204
  119SOPE    HB12540   5.419   2.999   6.592  0.3935  0.9813  1.8576
  119SOPE    C212541   5.529   3.029   6.408  0.1448  0.1293  0.4842
  119SOPE    HS12542   5.429   3.064   6.374  0.4395  0.5882  0.0841
  119SOPE   O2112543   5.561   2.902   6.355 -0.2428  0.2621 -0.3734
  119SOPE   C2112544   5.472   2.803   6.352  0.6955  0.0201 -0.0853
  119SOPE   O2212545   5.350   2.816   6.364 -0.0125  0.2809 -0.2936
  119SOPE   C2212546   5.527   2.663   6.320  0.3807 -0.3186  0.2208
  119SOPE   H2R12547   5.551   2.619   6.419  2.0194  1.4926  0.7089
  119SOPE   H2S12548   5.629   2.673   6.276  0.4975  1.2132  0.7622
  119SOPE    C312549   5.637   3.140   6.353  0.1294 -0.4098 -0.3968
  119SOPE    HX12550   5.734   3.121   6.405  1.4522 -0.1669 -2.6691
  119SOPE    HY12551   5.605   3.241   6.385 -1.7229 -0.1829 -2.7109
  119SOPE   O3112552   5.637   3.135   6.207  0.0069 -0.2227 -0.3898
  119SOPE   C3112553   5.724   3.049   6.160 -0.8323  0.0566  0.5497
  119SOPE   O3212554   5.807   2.982   6.220 -0.4244 -0.8016 -0.3415
  119SOPE   C3212555   5.693   3.032   6.020  1.0306  0.8530 -0.7213
  119SOPE   H2X12556   5.700   3.132   5.971 -1.0695  2.3191  1.6785
  119SOPE   H2Y12557   5.589   2.992   6.022  0.8531  1.3378  0.3170
  119SOPE   C2312558   5.428   2.564   6.252  0.2645  0.7183  0.1649
  119SOPE   H3R12559   5.348   2.538   6.325 -0.5751  0.1741 -0.9213
  119SOPE   H3S12560   5.483   2.472   6.223 -1.0669 -0.1641  0.3380
  119SOPE   C2412561   5.357   2.620   6.120 -0.5082 -0.2011  0.7173
  119SOPE   H4R12562   5.271   2.679   6.158 -0.0820  1.5627 -0.9137
  119SOPE   H4S12563   5.429   2.682   6.062 -0.3933 -2.4075 -1.7213
  119SOPE   C2512564   5.294   2.508   6.031 -0.1643  0.2198  0.0583
  119SOPE   H5R12565   5.366   2.425   6.015 -0.1446  0.0102  1.1290
  119SOPE   H5S12566   5.210   2.463   6.089  2.0491 -3.4875  0.7556
  119SOPE   C2612567   5.248   2.558   5.892 -0.5361  0.7510 -0.4748
  119SOPE   H6R12568   5.164   2.629   5.905  0.0782  1.3171  0.5980
  119SOPE   H6S12569   5.331   2.624   5.858  0.3492  0.4626  1.0230
  119SOPE   C2712570   5.212   2.447   5.787 -0.4667 -0.0597  0.5645
  119SOPE   H7R12571   5.306   2.388   5.774 -0.1915  0.6788 -1.0452
  119SOPE   H7S12572   5.127   2.395   5.836 -0.9965  1.0273  0.8052
  119SOPE   C2812573   5.182   2.506   5.647 -0.2054  0.5457  0.3966
  119SOPE   H8R12574   5.105   2.585   5.662  1.3475  2.2330 -0.1642
  119SOPE   H8S12575   5.265   2.567   5.606  0.7084 -0.5367  0.5681
  119SOPE   C2912576   5.147   2.400   5.554  0.1585  0.1836 -0.0975
  119SOPE   H9112577   5.050   2.353   5.574 -0.8510  2.2095 -0.0258
  119SOPE  C21012578   5.203   2.384   5.435 -0.0364  0.2186  0.4183
  119SOPE  H10112579   5.167   2.297   5.378  1.1116 -0.4596  0.7000
  119SOPE  C21112580   5.304   2.464   5.367  0.4389  0.5816  0.2811
  119SOPE  H11R12581   5.406   2.418   5.375  0.9954  1.9924  1.9093
  119SOPE  H11S12582   5.305   2.568   5.406 -1.3408  2.0779 -3.3146
  119SOPE  C21212583   5.267   2.476   5.217  0.2322  0.3508 -0.5150
  119SOPE  H12R12584   5.172   2.534   5.209 -0.4230  0.0066  3.1281
  119SOPE  H12S12585   5.257   2.377   5.167  3.5515 -0.3006 -0.1263
  119SOPE  C21312586   5.374   2.557   5.151 -0.3884 -0.3089  0.7453
  119SOPE  H13R12587   5.457   2.488   5.126 -1.7108 -2.0293  0.8858
  119SOPE  H13S12588   5.420   2.644   5.202 -3.1322  1.2082  0.7791
  119SOPE  C21412589   5.320   2.616   5.021 -0.4907 -0.6525  0.2177
  119SOPE  H14R12590   5.298   2.724   5.036 -0.8054 -0.8439  1.2131
  119SOPE  H14S12591   5.218   2.577   5.001 -0.0596 -1.5933 -0.2055
  119SOPE  C21512592   5.408   2.590   4.889 -0.6728  1.1410  0.7085
  119SOPE  H15R12593   5.418   2.480   4.880  2.8455  1.2869  1.2614
  119SOPE  H15S12594   5.509   2.626   4.919  0.4128 -2.1574  1.4103
  119SOPE  C21612595   5.356   2.664   4.765 -0.5206  0.2277  0.0952
  119SOPE  H16R12596   5.430   2.648   4.684 -2.9840 -1.8748 -1.8991
  119SOPE  H16S12597   5.361   2.770   4.799 -1.6655  0.5664 -0.7338
  119SOPE  C21712598   5.217   2.637   4.717 -0.1040  0.6275  0.6602
  119SOPE  H17R12599   5.178   2.710   4.644  1.1899  0.1430 -0.5667
  119SOPE  H17S12600   5.142   2.640   4.798 -2.1344 -0.8104 -1.0487
  119SOPE  C21812601   5.205   2.494   4.658 -0.5229 -0.0815  0.2101
  119SOPE  H18R12602   5.103   2.452   4.671 -0.6882  0.4552  0.6777
  119SOPE  H18S12603   5.277   2.423   4.702 -0.9645 -0.2714  0.6405
  119SOPE  H18T12604   5.232   2.505   4.550  0.5673 -0.9613  0.3782
  119SOPE   C3312605   5.776   2.918   5.953 -0.1750  0.4921 -0.2391
  119SOPE   H3X12606   5.769   2.816   5.998  0.6619  0.1735 -0.8009
  119SOPE   H3Y12607   5.883   2.947   5.956  0.3885 -1.1082  4.7965
  119SOPE   C3412608   5.744   2.904   5.803 -0.1163  0.1220  0.2293
  119SOPE   H4X12609   5.827   2.844   5.762 -2.5769 -2.8574 -0.8227
  119SOPE   H4Y12610   5.745   3.004   5.755 -1.2002  0.1835  0.2966
  119SOPE   C3512611   5.604   2.832   5.766  0.3882  0.6059  0.2637
  119SOPE   H5X12612   5.523   2.897   5.804 -0.3759 -0.3495  0.3004
  119SOPE   H5Y12613   5.593   2.740   5.826  0.1473  0.0513 -0.6117
  119SOPE   C3612614   5.582   2.797   5.617  0.2359 -0.2126  0.1304
  119SOPE   H6X12615   5.477   2.761   5.606 -0.3094  1.5572 -0.8891
  119SOPE   H6Y12616   5.641   2.708   5.587 -1.9800 -0.7964 -3.0539
  119SOPE   C3712617   5.592   2.913   5.514 -0.6270  0.6787 -0.3422
  119SOPE   H7X12618   5.698   2.942   5.524 -0.7524  0.4815  2.0245
  119SOPE   H7Y12619   5.528   2.995   5.552  0.4825  0.5741  1.9135
  119SOPE   C3812620   5.586   2.863   5.369  0.1007  0.2895  0.4612
  119SOPE   H8X12621   5.478   2.844   5.357 -0.0011  0.6735  0.7721
  119SOPE   H8Y12622   5.638   2.766   5.352 -1.6270 -0.3974 -1.2303
  119SOPE   C3912623   5.626   2.971   5.268  0.3334 -0.8728 -0.1756
  119SOPE   H9X12624   5.734   2.995   5.273  0.2781 -0.6940  3.7758
  119SOPE   H9Y12625   5.571   3.061   5.305  1.2323 -0.2138 -0.4057
  119SOPE  C31012626   5.586   2.943   5.121  0.2883  0.4801  0.4564
  119SOPE  H10X12627   5.479   2.937   5.090 -0.1328 -1.3494  2.1004
  119SOPE  H10Y12628   5.632   2.844   5.098 -0.1839  0.4355 -0.3503
  119SOPE  C31112629   5.653   3.043   5.020  0.5954  0.1931 -0.2084
  119SOPE  H11X12630   5.763   3.030   5.023  0.8752  2.2003  2.9068
  119SOPE  H11Y12631   5.629   3.145   5.057 -0.8952  0.2076 -1.1052
  119SOPE  C31212632   5.613   3.031   4.866 -0.8428  0.2181 -0.9170
  119SOPE  H12X12633   5.654   3.123   4.819  1.7210 -0.5932 -0.4064
  119SOPE  H12Y12634   5.502   3.029   4.855 -1.0981 -0.6182  1.3123
  119SOPE  C31312635   5.675   2.909   4.799 -0.0381 -0.5693 -0.2985
  119SOPE  H13X12636   5.597   2.852   4.745 -0.8489  0.3134 -0.0899
  119SOPE  H13Y12637   5.729   2.838   4.866 -0.0027  0.2110  0.5171
  119SOPE  C31412638   5.771   2.953   4.678  0.2260  0.4966  0.3344
  119SOPE  H14X12639   5.851   3.014   4.724  1.5067 -0.1067 -1.0134
  119SOPE  H14Y12640   5.729   3.016   4.597 -1.3923 -1.1967 -0.2060
  119SOPE  C31512641   5.825   2.829   4.604  0.8416  0.4802  0.4896
  119SOPE  H15X12642   5.845   2.757   4.687  2.1975  0.9906  0.6205
  119SOPE  H15Y12643   5.920   2.858   4.555  0.8012  1.9179  1.2067
  119SOPE  C31612644   5.728   2.762   4.505 -0.4483  0.3186  0.3851
  119SOPE  H16X12645   5.721   2.821   4.411  0.9648 -1.8568 -1.1744
  119SOPE  H16Y12646   5.630   2.736   4.550 -0.4311 -0.1812  0.1404
  119SOPE  C31712647   5.773   2.620   4.464  0.0830 -0.0451 -0.0889
  119SOPE  H17X12648   5.803   2.564   4.556 -3.1900  0.1391  1.2075
  119SOPE  H17Y12649   5.864   2.623   4.400  1.7272  1.3604  2.1718
  119SOPE  C31812650   5.663   2.549   4.386  0.9697  0.2491 -0.4298
  119SOPE  H18X12651   5.574   2.527   4.449  1.5065  0.9809  0.6235
  119SOPE  H18Y12652   5.692   2.456   4.332  1.9678 -0.0578  0.5841
  119SOPE  H18Z12653   5.618   2.616   4.310 -0.1329  0.8223  0.6867
  120SOPE     N12654   4.054   6.238   7.025  0.4407 -0.2669  0.1073
  120SOPE   HN112655   4.152   6.269   7.012 -0.0411  2.5403  2.2768
  120SOPE   HN212656   4.037   6.148   6.976  0.2766  0.3597 -1.0111
  120SOPE   HN312657   4.003   6.319   6.985  0.8272  0.7019  1.4939
  120SOPE   C1212658   4.028   6.230   7.169  0.1324  0.1817 -0.0359
  120SOPE  H12A12659   4.115   6.287   7.209  0.7394  0.2985 -1.4302
  120SOPE  H12B12660   4.029   6.123   7.196  1.4361  0.4623  1.1343
  120SOPE   C1112661   3.890   6.273   7.212  0.1348 -0.9953 -0.0944
  120SOPE  H11A12662   3.869   6.268   7.321 -0.1077  0.1617 -0.0637
  120SOPE  H11B12663   3.815   6.217   7.152 -0.2268  1.7997 -2.5285
  120SOPE     P12664   3.827   6.519   7.251 -0.1946 -0.2206 -0.5143
  120SOPE   O1312665   3.932   6.545   7.356 -0.9302  0.0268  0.3898
  120SOPE   O1412666   3.689   6.486   7.305 -0.5425 -0.0540 -0.2589
  120SOPE   O1212667   3.878   6.407   7.161 -0.0045  0.0478  0.1631
  120SOPE   O1112668   3.813   6.648   7.158  0.2210  0.3413  0.5303
  120SOPE    C112669   3.715   6.650   7.051  0.1079 -0.0142  0.1218
  120SOPE    HA12670   3.674   6.752   7.037  0.5484  0.4292  1.8164
  120SOPE    HB12671   3.633   6.576   7.062  2.5248 -2.9232 -0.0020
  120SOPE    C212672   3.780   6.593   6.925 -0.5400 -0.7790  0.2690
  120SOPE    HS12673   3.789   6.485   6.950  2.2644 -0.0578  2.9436
  120SOPE   O2112674   3.910   6.661   6.906  0.5978 -0.2760 -0.0171
  120SOPE   C2112675   4.009   6.585   6.875  0.5465  0.2304  0.2584
  120SOPE   O2212676   3.993   6.465   6.858  0.0268  0.0963  0.1313
  120SOPE   C2212677   4.138   6.667   6.851 -0.2373  0.0970 -0.3924
  120SOPE   H2R12678   4.187   6.659   6.950 -0.4538  0.3190 -0.2677
  120SOPE   H2S12679   4.104   6.771   6.836 -1.7349 -0.4126 -0.6860
  120SOPE    C312680   3.688   6.623   6.796  0.5358  0.4662 -0.3032
  120SOPE    HX12681   3.655   6.729   6.801  0.6175  0.4523  0.7268
  120SOPE    HY12682   3.601   6.557   6.816  1.3259 -0.3535  0.5244
  120SOPE   O3112683   3.756   6.602   6.671  0.7349 -0.4386 -0.1059
  120SOPE   C3112684   3.747   6.478   6.620  0.2252  0.5662 -0.0631
  120SOPE   O3212685   3.683   6.387   6.669 -0.5951 -0.4483 -0.3739
  120SOPE   C3212686   3.839   6.458   6.504 -0.3681 -0.5685  0.0457
  120SOPE   H2X12687   3.814   6.359   6.459 -0.0629 -0.9533  0.7007
  120SOPE   H2Y12688   3.942   6.454   6.546  0.2483  1.0157 -1.2227
  120SOPE   C2312689   4.228   6.608   6.735 -0.7429  0.4975 -0.0628
  120SOPE   H3R12690   4.236   6.498   6.748  0.4965  0.6884  0.9884
  120SOPE   H3S12691   4.330   6.646   6.758 -1.1003  0.7428  1.1803
  120SOPE   C2412692   4.192   6.682   6.600  0.2165 -0.1018  0.0865
  120SOPE   H4R12693   4.082   6.676   6.591  0.0975 -0.6476  1.7018
  120SOPE   H4S12694   4.219   6.789   6.611  1.3000 -0.4100  0.5774
  120SOPE   C2512695   4.267   6.632   6.477 -0.9172  0.4347  1.0247
  120SOPE   H5R12696   4.248   6.709   6.398  0.6277 -0.1259  0.0593
  120SOPE   H5S12697   4.376   6.636   6.494 -1.0163 -0.7753  2.0555
  120SOPE   C2612698   4.229   6.491   6.431 -0.0476  0.1581  0.0923
  120SOPE   H6R12699   4.270   6.410   6.495 -1.5002 -1.6563 -1.1344
  120SOPE   H6S12700   4.118   6.489   6.426  0.0105 -0.6051 -2.1687
  120SOPE   C2712701   4.278   6.436   6.291  0.8967 -0.1968 -0.1455
  120SOPE   H7R12702   4.230   6.502   6.215  1.4604  0.6128  0.1932
  120SOPE   H7S12703   4.387   6.447   6.275  0.9744 -0.4591  0.1879
  120SOPE   C2812704   4.234   6.289   6.266 -0.2153 -0.3935  0.0443
  120SOPE   H8R12705   4.129   6.271   6.296  0.6093 -1.8758  2.3100
  120SOPE   H8S12706   4.238   6.270   6.157 -1.3356 -2.9605  0.3625
  120SOPE   C2912707   4.324   6.189   6.339  0.1223  0.2597  0.0995
  120SOPE   H9112708   4.280   6.152   6.433  2.2176 -4.3380 -0.4489
  120SOPE  C21012709   4.426   6.116   6.290  0.1064 -0.0174  0.1923
  120SOPE  H10112710   4.476   6.044   6.356 -1.4248 -1.7590 -0.4526
  120SOPE  C21112711   4.476   6.128   6.146 -0.3186 -0.0013 -0.3108
  120SOPE  H11R12712   4.538   6.220   6.138 -0.0712 -0.0542  0.7731
  120SOPE  H11S12713   4.389   6.144   6.079  0.1345  0.3035 -0.8301
  120SOPE  C21212714   4.558   6.008   6.097  0.1903  0.7593 -0.3831
  120SOPE  H12R12715   4.630   5.963   6.169 -0.9288  1.5050  1.2709
  120SOPE  H12S12716   4.619   6.037   6.008 -0.8242 -0.4701 -1.5174
  120SOPE  C21312717   4.457   5.894   6.056  0.1272 -0.0766 -0.3545
  120SOPE  H13R12718   4.357   5.937   6.031  0.0644  0.2487  0.4379
  120SOPE  H13S12719   4.441   5.836   6.149  0.9960 -2.0570 -1.3702
  120SOPE  C21412720   4.501   5.803   5.946  0.1784  0.1064  0.1714
  120SOPE  H14R12721   4.447   5.706   5.943 -0.0735  0.2177  0.9193
  120SOPE  H14S12722   4.605   5.774   5.971  1.3169  0.1999 -3.7370
  120SOPE  C21512723   4.491   5.867   5.810 -0.3571 -0.3680 -0.3376
  120SOPE  H15R12724   4.541   5.966   5.816  0.6791 -0.9104  0.2634
  120SOPE  H15S12725   4.388   5.897   5.781 -0.8382 -0.0114  1.5944
  120SOPE  C21612726   4.551   5.788   5.698 -0.1568  0.3915 -0.3793
  120SOPE  H16R12727   4.504   5.688   5.689  1.0129  0.0445 -4.0734
  120SOPE  H16S12728   4.661   5.780   5.715 -0.2445  1.0330  0.5886
  120SOPE  C21712729   4.530   5.846   5.552  0.3097  0.1575  0.7901
  120SOPE  H17R12730   4.588   5.774   5.491 -0.1371  1.3696 -1.1713
  120SOPE  H17S12731   4.577   5.947   5.559  0.3588  0.0927  1.4434
  120SOPE  C21812732   4.388   5.845   5.505 -0.0167  0.5573  0.2505
  120SOPE  H18R12733   4.329   5.921   5.561 -1.8543 -1.3082  0.9780
  120SOPE  H18S12734   4.335   5.748   5.518 -0.2812  0.5964 -0.5190
  120SOPE  H18T12735   4.373   5.870   5.398 -1.8889  2.7850  0.9566
  120SOPE   C3312736   3.825   6.573   6.392  0.0778  0.1800  1.0035
  120SOPE   H3X12737   3.897   6.653   6.421 -0.1616  0.7809 -0.0133
  120SOPE   H3Y12738   3.724   6.618   6.400 -0.2433 -0.4917  0.8327
  120SOPE   C3412739   3.844   6.510   6.253 -0.5033 -0.3721 -0.4335
  120SOPE   H4X12740   3.746   6.471   6.218  0.1647 -1.3129 -1.3450
  120SOPE   H4Y12741   3.915   6.424   6.260 -0.4275 -0.6997 -3.6057
  120SOPE   C3512742   3.895   6.611   6.155  0.2362 -0.2778  0.0924
  120SOPE   H5X12743   3.986   6.663   6.194  1.3914 -0.2369 -2.4622
  120SOPE   H5Y12744   3.818   6.687   6.131  0.3703 -0.4523 -0.9319
  120SOPE   C3612745   3.955   6.528   6.034  0.2374 -0.0993 -1.1171
  120SOPE   H6X12746   3.865   6.487   5.985  0.1127 -1.6396  0.3102
  120SOPE   H6Y12747   4.023   6.448   6.072  1.4684  1.7956  0.9356
  120SOPE   C3712748   4.022   6.623   5.935 -0.1410 -0.1298  0.0027
  120SOPE   H7X12749   3.960   6.715   5.923 -2.8788 -1.8644 -0.0331
  120SOPE   H7Y12750   4.015   6.560   5.843  3.0047 -1.2105  0.3823
  120SOPE   C3812751   4.167   6.667   5.961  0.0674  0.5282 -0.5468
  120SOPE   H8X12752   4.224   6.574   5.986 -0.7655  0.5565  1.6938
  120SOPE   H8Y12753   4.184   6.721   6.057 -1.6466  1.4453 -0.7209
  120SOPE   C3912754   4.230   6.729   5.842 -0.0843  0.0112 -0.0055
  120SOPE   H9X12755   4.281   6.824   5.871  0.2625 -0.0581 -0.3716
  120SOPE   H9Y12756   4.156   6.749   5.762 -0.7653 -1.0240  0.3400
  120SOPE  C31012757   4.351   6.643   5.793 -0.5401 -0.1265  0.4235
  120SOPE  H10X12758   4.312   6.547   5.754  0.3330 -0.2917 -0.0616
  120SOPE  H10Y12759   4.415   6.622   5.882 -0.2685 -0.1200  0.2291
  120SOPE  C31112760   4.431   6.689   5.671  0.0789 -0.2943  0.1837
  120SOPE  H11X12761   4.524   6.632   5.652  0.3962  0.5034 -0.7764
  120SOPE  H11Y12762   4.458   6.793   5.700 -2.7612  0.0955  1.7844
  120SOPE  C31212763   4.354   6.693   5.539 -0.1524 -0.0478  0.3187
  120SOPE  H12X12764   4.283   6.777   5.525 -0.4197 -0.3550 -0.1697
  120SOPE  H12Y12765   4.291   6.602   5.539  0.3247 -0.3843 -0.6267
  120SOPE  C31312766   4.449   6.704   5.418  0.1919 -1.3350 -0.1463
  120SOPE  H13X12767   4.507   6.611   5.406  1.3452 -0.7938  1.0141
  120SOPE  H13Y12768   4.518   6.784   5.451 -2.3358  0.5093  1.0627
  120SOPE  C31412769   4.357   6.731   5.295 -0.5710 -0.1196 -1.4385
  120SOPE  H14X12770   4.293   6.822   5.295  0.6287  0.7555 -2.5282
  120SOPE  H14Y12771   4.286   6.646   5.281 -1.1724 -0.0044  0.5073
  120SOPE  C31512772   4.440   6.778   5.169  0.2627 -0.0384 -0.2707
  120SOPE  H15X12773   4.367   6.823   5.099  1.3471  1.0670 -0.7364
  120SOPE  H15Y12774   4.484   6.689   5.119 -2.7941 -1.0948 -1.2519
  120SOPE  C31612775   4.540   6.884   5.194 -0.3695 -0.0147 -0.9351
  120SOPE  H16X12776   4.620   6.835   5.253 -0.5918  0.7594  0.0171
  120SOPE  H16Y12777   4.496   6.963   5.258  0.4932  0.2789 -0.6902
  120SOPE  C31712778   4.593   6.925   5.057  0.6408 -0.1852 -0.4231
  120SOPE  H17X12779   4.609   6.830   5.001  0.1264 -0.4153 -0.1904
  120SOPE  H17Y12780   4.688   6.980   5.070 -0.2212  1.1864  0.3205
  120SOPE  C31812781   4.494   7.029   4.982 -0.1128  0.4138  0.2093
  120SOPE  H18X12782   4.514   7.132   5.019  0.4078 -0.1411  1.5187
  120SOPE  H18Y12783   4.390   7.003   5.011 -0.3861  0.4093 -0.7464
  120SOPE  H18Z12784   4.506   7.026   4.871 -1.4762 -0.3251  0.0638
  121SOPE     N12785   4.338   1.333   7.147 -0.0215  0.0332  0.1674
  121SOPE   HN112786   4.250   1.358   7.098  0.2219 -0.6917 -0.6726
  121SOPE   HN212787   4.375   1.242   7.111 -2.7327 -0.7682 -0.8687
  121SOPE   HN312788   4.320   1.329   7.249 -1.8953  1.0359 -0.0792
  121SOPE   C1212789   4.450   1.431   7.120  0.3319 -0.4282  0.2579
  121SOPE  H12A12790   4.507   1.438   7.215 -0.2138  0.1224  0.5490
  121SOPE  H12B12791   4.396   1.528   7.117 -0.5860 -0.9270  0.2785
  121SOPE   C1112792   4.523   1.384   6.998 -0.5339  0.2763 -0.1987
  121SOPE  H11A12793   4.589   1.470   6.977 -0.5535  0.7247  1.4552
  121SOPE  H11B12794   4.445   1.373   6.919 -2.2815  2.0885  1.1889
  121SOPE     P12795   4.579   1.122   6.994 -0.1723  0.1981 -0.2452
  121SOPE   O1312796   4.452   1.087   7.061  0.6170 -0.5593  0.0691
  121SOPE   O1412797   4.694   1.043   7.030 -0.5382 -0.5136 -0.5998
  121SOPE   O1212798   4.603   1.271   7.023 -0.3671 -0.4555  0.2305
  121SOPE   O1112799   4.558   1.123   6.840 -0.0842  0.5511  0.1315
  121SOPE    C112800   4.638   1.183   6.742 -0.6281 -0.1209 -0.1772
  121SOPE    HA12801   4.746   1.174   6.767 -0.8936  0.5873  1.3217
  121SOPE    HB12802   4.618   1.292   6.737  3.3786  0.8371  0.9467
  121SOPE    C212803   4.619   1.115   6.599 -0.4896  0.3022 -0.0020
  121SOPE    HS12804   4.515   1.137   6.565 -1.1139  0.8366  2.1053
  121SOPE   O2112805   4.637   0.973   6.620  0.0027 -0.3162  0.3287
  121SOPE   C2112806   4.586   0.894   6.524 -0.2508  0.7075  0.1743
  121SOPE   O2212807   4.520   0.931   6.430  0.0994  0.4981 -0.3219
  121SOPE   C2212808   4.630   0.750   6.553 -0.0790  0.0331 -0.3121
  121SOPE   H2R12809   4.542   0.693   6.516  1.9979 -0.9723 -4.3046
  121SOPE   H2S12810   4.638   0.732   6.662 -2.9133 -0.8333 -0.1611
  121SOPE    C312811   4.728   1.171   6.506  0.9679 -0.0349 -0.3530
  121SOPE    HX12812   4.818   1.142   6.566 -0.6325 -2.5040  1.0500
  121SOPE    HY12813   4.717   1.281   6.511  0.6231 -0.0376 -1.0245
  121SOPE   O3112814   4.734   1.113   6.379 -0.6320 -0.2045  0.0748
  121SOPE   C3112815   4.636   1.150   6.292  0.2074  0.0992  0.2173
  121SOPE   O3212816   4.555   1.237   6.303  0.3656  0.1085 -0.1840
  121SOPE   C3212817   4.654   1.060   6.170 -0.4574 -0.0283 -0.3618
  121SOPE   H2X12818   4.604   0.965   6.196  0.9953 -1.0416 -1.1310
  121SOPE   H2Y12819   4.762   1.037   6.154 -0.5264 -0.8395  0.3143
  121SOPE   C2312820   4.755   0.710   6.469 -0.2459 -0.2975 -0.3363
  121SOPE   H3R12821   4.801   0.623   6.522  2.2291  1.0882 -0.0601
  121SOPE   H3S12822   4.831   0.791   6.474 -0.0363 -0.5684  2.8537
  121SOPE   C2412823   4.740   0.690   6.312 -0.1010  0.5436 -0.0519
  121SOPE   H4R12824   4.676   0.602   6.289  0.6343 -0.7242  2.3267
  121SOPE   H4S12825   4.702   0.783   6.265  0.4399  0.7120 -0.1616
  121SOPE   C2512826   4.889   0.676   6.263 -0.6124 -0.1835  0.0228
  121SOPE   H5R12827   4.956   0.763   6.282 -0.1027 -0.4195 -0.6539
  121SOPE   H5S12828   4.924   0.584   6.316 -1.2645 -0.6604 -0.3654
  121SOPE   C2612829   4.916   0.661   6.112  0.0390  0.4797  0.4305
  121SOPE   H6R12830   4.898   0.753   6.053 -0.1167 -0.1470 -0.5186
  121SOPE   H6S12831   5.024   0.641   6.095  0.0477 -0.7240  1.7309
  121SOPE   C2712832   4.841   0.544   6.050 -0.3198  0.5477 -0.4287
  121SOPE   H7R12833   4.866   0.451   6.105 -1.8178  0.3737  0.0161
  121SOPE   H7S12834   4.730   0.555   6.055 -0.3453 -0.0949  1.8955
  121SOPE   C2812835   4.872   0.514   5.902  0.0363  0.5744 -0.0415
  121SOPE   H8R12836   4.803   0.432   5.872  0.3932 -0.2834  1.3758
  121SOPE   H8S12837   4.863   0.604   5.837  0.4119  1.4830  1.1092
  121SOPE   C2912838   5.009   0.459   5.872  0.2497  0.6262 -0.2531
  121SOPE   H9112839   5.055   0.423   5.965  1.5262  1.1065 -0.6716
  121SOPE  C21012840   5.072   0.467   5.754  0.3419  0.3839 -0.3810
  121SOPE  H10112841   5.178   0.440   5.743 -0.1506 -1.1278 -1.7819
  121SOPE  C21112842   5.004   0.533   5.630  0.0107  0.1892  0.0255
  121SOPE  H11R12843   4.939   0.622   5.644 -1.6628 -0.9792 -0.1532
  121SOPE  H11S12844   4.937   0.460   5.580 -1.3235  1.7580 -0.5498
  121SOPE  C21212845   5.117   0.562   5.528 -0.0285 -0.6319  0.3888
  121SOPE  H12R12846   5.199   0.488   5.541  0.9926 -0.1611 -2.4609
  121SOPE  H12S12847   5.151   0.664   5.558  0.9913 -0.0963 -2.2725
  121SOPE  C21312848   5.077   0.571   5.386  0.0774  0.3203 -0.4909
  121SOPE  H13R12849   4.985   0.632   5.372 -0.7171 -0.6662  0.3033
  121SOPE  H13S12850   5.055   0.473   5.340  2.5115 -0.6742  0.2908
  121SOPE  C21412851   5.187   0.639   5.292  0.0293 -0.8395 -0.6445
  121SOPE  H14R12852   5.278   0.578   5.311  0.8728  0.1394 -1.4405
  121SOPE  H14S12853   5.194   0.739   5.338 -1.4684 -0.0112 -2.1023
  121SOPE  C21512854   5.159   0.652   5.140 -0.3265 -0.3652 -0.1281
  121SOPE  H15R12855   5.249   0.695   5.091 -0.3154 -2.5014 -2.2139
  121SOPE  H15S12856   5.073   0.720   5.128 -1.3010 -1.4847  0.3293
  121SOPE  C21612857   5.128   0.512   5.084  0.1527  0.8333  0.0746
  121SOPE  H16R12858   5.019   0.496   5.097 -0.0018  1.0287 -0.8836
  121SOPE  H16S12859   5.182   0.432   5.138  1.0757  2.0689  1.0543
  121SOPE  C21712860   5.152   0.496   4.929  0.1945 -0.2854 -0.0486
  121SOPE  H17R12861   5.136   0.391   4.897  0.1017  0.0124 -1.0203
  121SOPE  H17S12862   5.261   0.515   4.915  0.3334 -1.3779 -0.6001
  121SOPE  C21812863   5.069   0.599   4.846 -0.5768  0.3262 -0.2644
  121SOPE  H18R12864   5.100   0.704   4.862 -1.9186  0.2721  4.2642
  121SOPE  H18S12865   4.962   0.584   4.874 -0.4018 -0.3334  0.0887
  121SOPE  H18T12866   5.074   0.574   4.738  0.2285  0.0919 -0.1789
  121SOPE   C3312867   4.606   1.118   6.030  0.1356  0.0881 -0.3887
  121SOPE   H3X12868   4.658   1.216   6.021 -0.9522  0.7705  0.5851
  121SOPE   H3Y12869   4.497   1.136   6.019 -0.2046 -1.4786  0.1763
  121SOPE   C3412870   4.644   1.027   5.912  0.3959 -0.6031  0.2012
  121SOPE   H4X12871   4.591   0.931   5.932 -0.3825 -0.4267 -0.9195
  121SOPE   H4Y12872   4.752   1.001   5.913  1.0752  1.9372 -1.0697
  121SOPE   C3512873   4.602   1.092   5.778  0.1994  0.1404 -0.3883
  121SOPE   H5X12874   4.667   1.182   5.764 -0.2402  0.5635  0.2165
  121SOPE   H5Y12875   4.492   1.103   5.790 -0.1120 -2.0971 -0.8586
  121SOPE   C3612876   4.631   0.996   5.664 -1.0894 -0.5594  0.8541
  121SOPE   H6X12877   4.582   0.897   5.665  0.2088 -1.2267  1.7711
  121SOPE   H6Y12878   4.739   0.973   5.652 -1.1141 -0.4497  0.3985
  121SOPE   C3712879   4.595   1.062   5.532 -1.3765 -0.4009 -0.2901
  121SOPE   H7X12880   4.664   1.148   5.520 -0.5327 -1.1315 -0.7371
  121SOPE   H7Y12881   4.494   1.108   5.545 -1.8329 -1.0267 -1.4597
  121SOPE   C3812882   4.607   0.975   5.407 -0.0784  0.3308 -0.0000
  121SOPE   H8X12883   4.535   0.890   5.415 -0.0434  0.3601  0.6995
  121SOPE   H8Y12884   4.707   0.928   5.395 -0.5576 -0.7369 -0.0032
  121SOPE   C3912885   4.564   1.056   5.280  0.2001 -0.0844  0.5289
  121SOPE   H9X12886   4.633   1.140   5.258  1.6423 -1.6823 -1.3967
  121SOPE   H9Y12887   4.464   1.097   5.308  0.0781 -1.1532  1.7998
  121SOPE  C31012888   4.547   0.978   5.153 -0.4147 -0.1875 -0.1026
  121SOPE  H10X12889   4.500   0.880   5.175 -0.4151 -0.4494 -1.2042
  121SOPE  H10Y12890   4.647   0.959   5.108  0.5256  0.7209  1.5024
  121SOPE  C31112891   4.455   1.049   5.057 -0.5663 -0.5112 -0.0096
  121SOPE  H11X12892   4.501   1.148   5.037 -0.3808 -0.3674  1.0340
  121SOPE  H11Y12893   4.355   1.067   5.103 -0.8195 -1.0027 -0.3652
  121SOPE  C31212894   4.414   0.959   4.939  0.0452 -0.4647  0.8422
  121SOPE  H12X12895   4.367   0.866   4.978 -1.5998  0.4308  1.0529
  121SOPE  H12Y12896   4.509   0.933   4.886 -0.4796  0.6848 -0.7618
  121SOPE  C31312897   4.314   1.024   4.838 -0.1066 -0.8457  0.6490
  121SOPE  H13X12898   4.365   1.110   4.790  0.0675  0.4359  2.9557
  121SOPE  H13Y12899   4.237   1.073   4.902  0.5976 -0.4725  1.2233
  121SOPE  C31412900   4.267   0.934   4.726  0.2845 -0.3293 -0.8891
  121SOPE  H14X12901   4.190   0.989   4.667  0.0051  0.9423  0.5976
  121SOPE  H14Y12902   4.220   0.844   4.771  1.8415 -0.6051  0.2501
  121SOPE  C31512903   4.376   0.871   4.643  0.3715 -0.7244 -0.4509
  121SOPE  H15X12904   4.447   0.812   4.704  0.7705 -1.4087 -1.5495
  121SOPE  H15Y12905   4.441   0.937   4.582  2.4059 -1.2542  1.0688
  121SOPE  C31612906   4.315   0.769   4.541 -0.1319  0.5933  0.0715
  121SOPE  H16X12907   4.267   0.835   4.467  0.5302  1.4863  0.4158
  121SOPE  H16Y12908   4.245   0.697   4.587  0.3085 -0.4696 -0.8591
  121SOPE  C31712909   4.423   0.687   4.460 -0.3219 -0.7022 -0.1882
  121SOPE  H17X12910   4.360   0.620   4.398 -1.8233  0.4682  0.0115
  121SOPE  H17Y12911   4.469   0.614   4.530 -0.9780 -0.4929  0.4807
  121SOPE  C31812912   4.531   0.774   4.390 -0.7752  0.0924 -0.7540
  121SOPE  H18X12913   4.505   0.832   4.299  1.2651  0.3009 -1.2471
  121SOPE  H18Y12914   4.615   0.712   4.352 -1.3813 -1.5631  0.4831
  121SOPE  H18Z12915   4.580   0.831   4.472 -0.1055  0.2753 -1.2768
  122SOPE     N12916   3.661   0.619   7.188  0.2985  0.4126 -0.5615
  122SOPE   HN112917   3.671   0.714   7.147  2.1836  0.5543  0.1459
  122SOPE   HN212918   3.705   0.620   7.282  0.1749 -0.6402 -0.4735
  122SOPE   HN312919   3.704   0.553   7.120 -1.0948  0.9507 -2.0192
  122SOPE   C1212920   3.506   0.597   7.202  0.1780 -1.1154  0.2424
  122SOPE  H12A12921   3.471   0.654   7.290  0.1200 -0.9489  0.1114
  122SOPE  H12B12922   3.500   0.490   7.230 -2.2510 -1.4306 -1.2714
  122SOPE   C1112923   3.433   0.619   7.067 -0.3367 -0.1588 -0.6390
  122SOPE  H11A12924   3.331   0.576   7.073  0.2630 -1.4817  0.4759
  122SOPE  H11B12925   3.489   0.565   6.988 -1.7552 -2.6061 -0.0774
  122SOPE     P12926   3.324   0.851   7.000 -0.1862 -0.3303  0.2848
  122SOPE   O1312927   3.267   0.883   7.133  0.2148 -0.0405 -0.2702
  122SOPE   O1412928   3.240   0.791   6.897  0.3514  0.7595 -0.6060
  122SOPE   O1212929   3.448   0.754   7.025  0.2099  0.0276  0.0359
  122SOPE   O1112930   3.386   0.983   6.930  0.0818  0.1642  0.1238
  122SOPE    C112931   3.510   0.991   6.855  0.2129 -0.0912 -0.6266
  122SOPE    HA12932   3.555   0.890   6.863 -1.9175 -1.0028  0.7524
  122SOPE    HB12933   3.571   1.065   6.911 -1.8172 -0.7566  2.8038
  122SOPE    C212934   3.493   1.030   6.702 -0.6149  0.1769 -1.1911
  122SOPE    HS12935   3.437   1.126   6.697  1.2652  1.6787  2.3805
  122SOPE   O2112936   3.447   0.926   6.622  0.9049 -0.1377 -0.1227
  122SOPE   C2112937   3.347   0.945   6.533  0.4441 -0.6477 -0.0653
  122SOPE   O2212938   3.286   1.054   6.517 -0.8931  0.5670  0.2223
  122SOPE   C2212939   3.329   0.820   6.456 -0.2662  0.0201  0.3440
  122SOPE   H2R12940   3.331   0.736   6.528 -1.5299  0.5548  1.0176
  122SOPE   H2S12941   3.416   0.799   6.389 -0.1038 -0.6102  0.7401
  122SOPE    C312942   3.633   1.073   6.643 -0.3794  0.2351 -0.3773
  122SOPE    HX12943   3.685   0.976   6.628 -0.5257 -0.1801  1.5591
  122SOPE    HY12944   3.679   1.135   6.723  0.3224 -0.1164 -0.4951
  122SOPE   O3112945   3.614   1.144   6.514  0.0840  0.1211 -0.0487
  122SOPE   C3112946   3.577   1.271   6.521 -0.0431 -0.1627 -0.5655
  122SOPE   O3212947   3.573   1.341   6.624 -0.1982  0.1465  0.3781
  122SOPE   C3212948   3.541   1.319   6.378  0.3008  0.1647  0.2772
  122SOPE   H2X12949   3.534   1.223   6.324  1.2494  0.5719 -0.6029
  122SOPE   H2Y12950   3.622   1.390   6.349  0.2679  0.4140  0.7702
  122SOPE   C2312951   3.207   0.801   6.377 -0.3766  0.4582  0.3511
  122SOPE   H3R12952   3.120   0.841   6.432 -0.3791 -1.0766  1.5552
  122SOPE   H3S12953   3.191   0.691   6.366  0.5654  0.3540 -0.1008
  122SOPE   C2412954   3.206   0.867   6.236  0.0362  0.1989 -0.7122
  122SOPE   H4R12955   3.188   0.975   6.257 -2.9790 -0.4846  0.8455
  122SOPE   H4S12956   3.308   0.864   6.192  1.0057 -0.3220  1.4218
  122SOPE   C2512957   3.090   0.817   6.145 -0.0863  0.1722 -0.5041
  122SOPE   H5R12958   3.097   0.706   6.153 -0.0268  0.2617  0.9182
  122SOPE   H5S12959   3.002   0.861   6.197  1.2362  0.5506  1.5615
  122SOPE   C2612960   3.113   0.860   6.002 -0.3343 -0.2067  0.4787
  122SOPE   H6R12961   3.120   0.971   6.001 -3.6979  0.1318  0.7841
  122SOPE   H6S12962   3.207   0.816   5.962 -0.5225 -1.7302  1.6035
  122SOPE   C2712963   3.000   0.829   5.904 -0.0336 -0.5346  1.0029
  122SOPE   H7R12964   2.999   0.719   5.887  1.5653 -0.1751 -2.1351
  122SOPE   H7S12965   2.908   0.862   5.957  0.4346 -1.0136  2.1562
  122SOPE   C2812966   3.013   0.907   5.772 -0.0996 -1.1589 -0.3003
  122SOPE   H8R12967   3.004   1.012   5.805 -0.4410 -0.5886 -2.1107
  122SOPE   H8S12968   3.113   0.891   5.726 -0.1182  0.5257 -0.9916
  122SOPE   C2912969   2.894   0.859   5.692 -0.3890  0.6542  0.2334
  122SOPE   H9112970   2.804   0.835   5.749 -1.4442  3.1281 -0.2924
  122SOPE  C21012971   2.883   0.861   5.554 -0.6531  0.1807  0.3482
  122SOPE  H10112972   2.792   0.816   5.512  0.3759 -0.2405 -1.5700
  122SOPE  C21112973   2.988   0.906   5.447 -0.1820 -0.8146  0.5948
  122SOPE  H11R12974   3.079   0.842   5.447  1.2494  1.0651 -2.1850
  122SOPE  H11S12975   3.020   1.010   5.469 -1.1672 -0.6797  1.5131
  122SOPE  C21212976   2.909   0.886   5.310  0.2796 -0.9222  0.1707
  122SOPE  H12R12977   2.837   0.971   5.311  2.2472  0.8117  0.2878
  122SOPE  H12S12978   2.848   0.794   5.304 -0.8673 -0.1574 -0.3050
  122SOPE  C21312979   3.003   0.897   5.190  0.2797  0.0327 -0.8251
  122SOPE  H13R12980   3.087   0.826   5.200  0.7798  0.6014 -0.9411
  122SOPE  H13S12981   3.041   1.001   5.191 -2.1217  0.9760  0.5340
  122SOPE  C21412982   2.943   0.855   5.057 -1.0715  0.3680 -0.2062
  122SOPE  H14R12983   2.861   0.929   5.043  1.4521  3.8076  1.6533
  122SOPE  H14S12984   2.899   0.753   5.067  0.4925 -0.6173 -2.6917
  122SOPE  C21512985   3.040   0.876   4.937  0.5498  0.3675 -0.3231
  122SOPE  H15R12986   3.090   0.974   4.952 -2.3898  1.9441 -0.1476
  122SOPE  H15S12987   2.983   0.890   4.842  1.6812 -0.0962 -1.0954
  122SOPE  C21612988   3.147   0.764   4.928 -0.6820  0.7332 -0.1320
  122SOPE  H16R12989   3.091   0.670   4.909  0.0297  0.9544 -4.3015
  122SOPE  H16S12990   3.193   0.756   5.029 -0.8390  0.0335 -0.1100
  122SOPE  C21712991   3.255   0.772   4.816 -0.4590  0.4036 -1.0385
  122SOPE  H17R12992   3.307   0.673   4.821 -0.4876  0.2332 -3.1387
  122SOPE  H17S12993   3.326   0.857   4.830  0.0317  0.1153 -1.6596
  122SOPE  C21812994   3.190   0.779   4.675 -0.5675  0.0121  0.6467
  122SOPE  H18R12995   3.265   0.803   4.596 -0.0807  0.5966  1.2768
  122SOPE  H18S12996   3.116   0.860   4.690 -1.1846 -0.9481  3.2321
  122SOPE  H18T12997   3.134   0.688   4.644  1.7738 -1.2044 -0.2550
  122SOPE   C3312998   3.399   1.374   6.377 -0.3163  0.5579 -0.1387
  122SOPE   H3X12999   3.383   1.446   6.460  2.2740  0.8384  0.2109
  122SOPE   H3Y13000   3.331   1.291   6.408 -0.4608  0.4866 -0.6389
  122SOPE   C3413001   3.368   1.432   6.240 -0.0503 -0.3869 -0.6423
  122SOPE   H4X13002   3.455   1.499   6.221  0.7235 -0.5589  1.8972
  122SOPE   H4Y13003   3.277   1.496   6.243 -0.0013 -0.3429  0.8538
  122SOPE   C3513004   3.367   1.328   6.135  0.4090 -0.6751  0.0036
  122SOPE   H5X13005   3.304   1.240   6.159  1.1875 -0.9115  1.2692
  122SOPE   H5Y13006   3.470   1.291   6.112  0.9368  0.3226  0.6946
  122SOPE   C3613007   3.317   1.397   6.005 -0.2292  0.3477 -0.7369
  122SOPE   H6X13008   3.381   1.487   5.990  1.3279 -1.0350 -2.8169
  122SOPE   H6Y13009   3.208   1.418   6.012 -0.7605 -2.0859 -0.9218
  122SOPE   C3713010   3.341   1.302   5.883 -0.3718  0.0787 -0.3913
  122SOPE   H7X13011   3.288   1.207   5.907  0.4812 -0.3892 -0.3232
  122SOPE   H7Y13012   3.450   1.290   5.865  0.0003  1.2926  0.8607
  122SOPE   C3813013   3.285   1.357   5.747  0.0222  0.2403  0.3442
  122SOPE   H8X13014   3.344   1.445   5.714  1.1378  0.0721  1.7775
  122SOPE   H8Y13015   3.176   1.377   5.758 -0.0411 -0.2887  0.7393
  122SOPE   C3913016   3.295   1.264   5.628  0.3235  0.3361  0.2511
  122SOPE   H9X13017   3.243   1.169   5.654  0.9372 -0.5367 -1.6060
  122SOPE   H9Y13018   3.400   1.243   5.601 -0.0741 -0.0428 -1.0544
  122SOPE  C31013019   3.213   1.324   5.507 -0.2045  0.0011 -0.0890
  122SOPE  H10X13020   3.110   1.337   5.545 -0.4459 -1.6734 -0.1139
  122SOPE  H10Y13021   3.214   1.246   5.428  1.8745  0.3802 -0.5189
  122SOPE  C31113022   3.270   1.455   5.451  0.2778  0.2217  0.1414
  122SOPE  H11X13023   3.377   1.466   5.479  1.0691 -3.3678 -0.9200
  122SOPE  H11Y13024   3.216   1.542   5.492  0.3659  0.5994 -0.5325
  122SOPE  C31213025   3.266   1.464   5.292  0.2879 -0.1290  0.3354
  122SOPE  H12X13026   3.294   1.572   5.287 -1.7438  0.3833 -1.0817
  122SOPE  H12Y13027   3.163   1.458   5.251  0.6035 -0.5430 -0.4191
  122SOPE  C31313028   3.373   1.372   5.232 -0.0780 -0.0859 -0.2011
  122SOPE  H13X13029   3.359   1.269   5.272 -1.7293  1.3719  3.3515
  122SOPE  H13Y13030   3.472   1.404   5.270 -1.0857  2.1133  0.7175
  122SOPE  C31413031   3.378   1.365   5.081  0.3946  0.0150 -0.4725
  122SOPE  H14X13032   3.285   1.318   5.043 -0.9182  2.7891 -0.9405
  122SOPE  H14Y13033   3.461   1.302   5.042  2.9761  4.3628 -2.6896
  122SOPE  C31513034   3.401   1.489   4.992  0.0114 -0.5767 -0.0256
  122SOPE  H15X13035   3.496   1.531   5.032 -1.1405  0.9286  1.2924
  122SOPE  H15Y13036   3.319   1.560   5.021 -1.0761 -1.9668  0.4322
  122SOPE  C31613037   3.425   1.471   4.843 -0.4733  0.1128  0.5459
  122SOPE  H16X13038   3.344   1.402   4.812  0.5309 -1.2827  0.9345
  122SOPE  H16Y13039   3.522   1.419   4.828  0.7362  2.4030 -0.1704
  122SOPE  C31713040   3.425   1.615   4.779  0.6312  0.0675 -0.1433
  122SOPE  H17X13041   3.326   1.650   4.814  0.6197  0.1821 -0.2903
  122SOPE  H17Y13042   3.429   1.587   4.672 -0.0231  2.1762 -0.7738
  122SOPE  C31813043   3.537   1.705   4.817  0.0131  0.4418 -0.5190
  122SOPE  H18X13044   3.525   1.800   4.761 -0.2616  0.5591 -0.2611
  122SOPE  H18Y13045   3.638   1.667   4.789  1.6653  4.0467 -0.0254
  122SOPE  H18Z13046   3.538   1.730   4.925  1.4589 -0.8090 -0.1996
  123SOPE     N13047   6.168   6.167   2.321 -0.4315 -0.6529 -0.5858
  123SOPE   HN113048   6.113   6.187   2.235 -0.7861 -2.5216 -0.8415
  123SOPE   HN213049   6.256   6.223   2.321  0.5381 -1.9391  2.2457
  123SOPE   HN313050   6.192   6.065   2.315  0.1066 -0.5071 -1.0768
  123SOPE   C1213051   6.095   6.188   2.449  0.0930 -0.3917  0.0168
  123SOPE  H12A13052   6.082   6.298   2.460 -1.4239 -0.6514  1.1313
  123SOPE  H12B13053   6.160   6.155   2.534  0.0353  1.2994  0.7599
  123SOPE   C1113054   5.969   6.111   2.450 -0.6546 -0.4741 -0.9037
  123SOPE  H11A13055   5.924   6.140   2.548  0.7870  2.6097 -1.0471
  123SOPE  H11B13056   5.993   6.002   2.448  0.8823 -0.4365  3.8062
  123SOPE     P13057   5.737   6.122   2.327 -0.0705 -0.1179  0.6492
  123SOPE   O1313058   5.720   6.009   2.414  0.0819  0.0198 -0.5763
  123SOPE   O1413059   5.704   6.110   2.184 -0.0802  0.3420  0.3213
  123SOPE   O1213060   5.891   6.157   2.339 -0.5745 -0.1240  0.1252
  123SOPE   O1113061   5.665   6.247   2.395 -0.6432 -0.4814 -0.2164
  123SOPE    C113062   5.728   6.377   2.402 -0.6401  0.6237 -0.5450
  123SOPE    HA13063   5.666   6.457   2.357  2.3037  3.3383 -0.1244
  123SOPE    HB13064   5.826   6.394   2.354  0.7642 -0.3481  1.7674
  123SOPE    C213065   5.774   6.399   2.550 -0.1509 -0.4628 -0.3479
  123SOPE    HS13066   5.880   6.365   2.552  0.0316  0.1546  0.9156
  123SOPE   O2113067   5.689   6.325   2.644  0.1491  0.0404 -0.2632
  123SOPE   C2113068   5.751   6.299   2.767 -1.4399 -0.7632  0.3798
  123SOPE   O2213069   5.874   6.303   2.780 -0.0743  0.3407 -1.0541
  123SOPE   C2213070   5.644   6.268   2.873  0.0049 -0.1894  0.3095
  123SOPE   H2R13071   5.625   6.162   2.848 -0.8174  0.3585 -1.5474
  123SOPE   H2S13072   5.550   6.326   2.865  0.5532  0.5734 -1.0839
  123SOPE    C313073   5.766   6.551   2.590 -0.8151 -0.5228 -0.0452
  123SOPE    HX13074   5.660   6.570   2.615 -0.4162  1.3288  0.3978
  123SOPE    HY13075   5.803   6.624   2.516  1.1970  1.9411  3.1118
  123SOPE   O3113076   5.844   6.572   2.714 -0.3759  0.4894  0.7653
  123SOPE   C3113077   5.974   6.573   2.683 -0.0953  0.3148  0.0700
  123SOPE   O3213078   6.016   6.561   2.570  0.1130 -0.5131 -0.1535
  123SOPE   C3213079   6.063   6.592   2.807  0.0413  0.3170 -0.1785
  123SOPE   H2X13080   6.131   6.678   2.793  2.0757 -1.4175 -1.5655
  123SOPE   H2Y13081   6.126   6.501   2.820 -0.1321  0.1111 -0.7592
  123SOPE   C2313082   5.715   6.271   3.016  0.5704  0.8027 -0.1465
  123SOPE   H3R13083   5.778   6.360   3.037  2.5491 -0.2306 -1.3303
  123SOPE   H3S13084   5.788   6.188   3.008 -0.1205  0.3173 -2.0498
  123SOPE   C2413085   5.611   6.236   3.121 -0.0353  0.1198 -0.3457
  123SOPE   H4R13086   5.536   6.316   3.139  0.8253  1.1034 -0.9924
  123SOPE   H4S13087   5.548   6.157   3.075 -1.0560  1.4804 -1.3808
  123SOPE   C2513088   5.666   6.176   3.250 -0.0266 -0.2390  0.1366
  123SOPE   H5R13089   5.734   6.093   3.223  0.2713 -0.3136  1.0723
  123SOPE   H5S13090   5.726   6.259   3.293  0.2143 -0.7004  0.7068
  123SOPE   C2613091   5.575   6.125   3.351 -0.7562  0.2276 -0.2921
  123SOPE   H6R13092   5.508   6.045   3.314  1.2509 -0.7798 -1.9243
  123SOPE   H6S13093   5.627   6.071   3.433 -2.5862  0.5123  1.1360
  123SOPE   C2713094   5.494   6.245   3.410 -0.0740 -0.0457  0.2022
  123SOPE   H7R13095   5.560   6.323   3.456 -0.0045 -0.4588  0.8071
  123SOPE   H7S13096   5.448   6.297   3.322  0.5287 -1.7315 -1.1668
  123SOPE   C2813097   5.378   6.217   3.503 -0.2273 -0.4060 -0.0548
  123SOPE   H8R13098   5.344   6.321   3.519 -2.5843 -1.0464 -0.6042
  123SOPE   H8S13099   5.297   6.157   3.458 -0.2356  0.5767 -1.3956
  123SOPE   C2913100   5.417   6.153   3.635  0.6340 -0.2864  0.5518
  123SOPE   H9113101   5.496   6.078   3.623  0.2141 -0.7226  0.4550
  123SOPE  C21013102   5.386   6.189   3.759 -0.9530  0.1350 -0.0446
  123SOPE  H10113103   5.431   6.143   3.848 -2.1508 -0.4711  0.2598
  123SOPE  C21113104   5.291   6.301   3.796  0.1175 -0.3563  0.6152
  123SOPE  H11R13105   5.220   6.328   3.715 -0.6717  0.6957  1.6369
  123SOPE  H11S13106   5.350   6.395   3.800 -0.4306  0.1154 -1.3012
  123SOPE  C21213107   5.202   6.282   3.924 -0.0999  0.5033  0.4076
  123SOPE  H12R13108   5.146   6.186   3.923 -2.3469  1.7417 -1.4137
  123SOPE  H12S13109   5.133   6.369   3.920 -0.9872 -0.2030 -0.0128
  123SOPE  C21313110   5.283   6.280   4.045 -0.0669 -0.3133 -0.1328
  123SOPE  H13R13111   5.344   6.372   4.054  1.4305 -1.2490 -0.3064
  123SOPE  H13S13112   5.352   6.194   4.058 -1.0191 -0.9749  0.7791
  123SOPE  C21413113   5.186   6.283   4.164 -0.0205 -0.0079 -0.1831
  123SOPE  H14R13114   5.127   6.189   4.171 -0.2039  0.1716  0.8739
  123SOPE  H14S13115   5.121   6.373   4.154 -0.6416 -0.4440 -0.1131
  123SOPE  C21513116   5.260   6.287   4.301 -0.1339  0.0844  0.4536
  123SOPE  H15R13117   5.331   6.372   4.300 -0.1550  0.0999  0.3378
  123SOPE  H15S13118   5.311   6.191   4.323  2.3129  1.3026  0.4468
  123SOPE  C21613119   5.171   6.315   4.420  0.9966 -0.3486  0.5269
  123SOPE  H16R13120   5.105   6.226   4.423 -0.1811  0.5072  0.6956
  123SOPE  H16S13121   5.108   6.402   4.391  2.2297  0.4880  0.2761
  123SOPE  C21713122   5.259   6.337   4.543 -1.2067 -0.2471 -0.7718
  123SOPE  H17R13123   5.279   6.446   4.540  1.0908 -0.5759  0.5695
  123SOPE  H17S13124   5.354   6.280   4.531 -1.6741 -0.9825 -1.1069
  123SOPE  C21813125   5.196   6.308   4.682 -0.6707  0.1579 -0.7649
  123SOPE  H18R13126   5.107   6.368   4.712 -0.8425 -0.7316  0.6215
  123SOPE  H18S13127   5.273   6.332   4.758 -1.0854  0.2937 -0.3797
  123SOPE  H18T13128   5.161   6.203   4.694  2.7076 -1.0227 -0.3018
  123SOPE   C3313129   5.993   6.606   2.947  0.1119 -0.7596 -0.4562
  123SOPE   H3X13130   5.918   6.526   2.961 -1.9181  0.8748 -1.5832
  123SOPE   H3Y13131   5.937   6.701   2.939 -0.1103 -0.6822  1.5212
  123SOPE   C3413132   6.096   6.608   3.055  0.6257 -0.8934 -0.1018
  123SOPE   H4X13133   6.173   6.683   3.024 -0.0171 -0.5018 -0.7575
  123SOPE   H4Y13134   6.147   6.510   3.067  0.9170 -0.8259 -0.7296
  123SOPE   C3513135   6.028   6.654   3.187  0.3987 -0.5795  0.6503
  123SOPE   H5X13136   5.943   6.582   3.191 -1.4301  1.4747  0.5362
  123SOPE   H5Y13137   5.985   6.755   3.178  2.1634  0.2182  0.7024
  123SOPE   C3613138   6.124   6.641   3.306 -0.6209  0.2442 -0.6213
  123SOPE   H6X13139   6.203   6.719   3.298  1.0656 -0.8318  3.1854
  123SOPE   H6Y13140   6.170   6.541   3.295  0.3535  0.4687  1.0827
  123SOPE   C3713141   6.050   6.650   3.437 -0.6572  0.4236 -0.0368
  123SOPE   H7X13142   5.980   6.564   3.438  1.1384 -1.1164 -0.8895
  123SOPE   H7Y13143   6.003   6.751   3.445 -1.8494 -0.1712  0.9274
  123SOPE   C3813144   6.145   6.620   3.559  0.8572  0.1611  0.0824
  123SOPE   H8X13145   6.235   6.685   3.548  1.0386  0.0402  0.7803
  123SOPE   H8Y13146   6.170   6.511   3.563  1.1979  0.1795 -1.1801
  123SOPE   C3913147   6.078   6.662   3.694 -0.3369  0.2445 -0.0106
  123SOPE   H9X13148   5.991   6.598   3.717 -0.6504  0.4316 -0.6678
  123SOPE   H9Y13149   6.042   6.763   3.667 -1.0454  0.5483  1.8850
  123SOPE  C31013150   6.163   6.660   3.825  0.2168 -0.5509  0.0962
  123SOPE  H10X13151   6.261   6.705   3.801  0.0518  0.8843  1.8380
  123SOPE  H10Y13152   6.160   6.560   3.873 -0.9096  0.0116  1.2653
  123SOPE  C31113153   6.106   6.755   3.936  0.0739  0.2179  0.6990
  123SOPE  H11X13154   5.999   6.728   3.938 -0.1146  0.8472 -0.1852
  123SOPE  H11Y13155   6.118   6.862   3.906  0.8107  0.2370  1.0160
  123SOPE  C31213156   6.176   6.729   4.072  0.0822  0.0496 -0.4259
  123SOPE  H12X13157   6.286   6.718   4.060 -0.1578 -0.2841 -2.9607
  123SOPE  H12Y13158   6.130   6.641   4.122  0.5403  0.0547  0.0140
  123SOPE  C31313159   6.154   6.854   4.159  0.3278  0.5786  0.7071
  123SOPE  H13X13160   6.046   6.879   4.163  0.2426  0.9806 -2.2035
  123SOPE  H13Y13161   6.191   6.944   4.105  2.0484 -0.5558 -0.0767
  123SOPE  C31413162   6.216   6.844   4.296  0.2702  0.1795  0.1576
  123SOPE  H14X13163   6.322   6.817   4.279  0.2602  0.7155 -0.8397
  123SOPE  H14Y13164   6.182   6.758   4.357  0.5744 -0.4135 -0.4962
  123SOPE  C31513165   6.220   6.974   4.389  0.3761 -0.8264  1.1268
  123SOPE  H15X13166   6.111   6.987   4.400  0.4955  1.3618  0.0662
  123SOPE  H15Y13167   6.266   7.059   4.335  1.9042 -2.9545 -1.1448
  123SOPE  C31613168   6.269   6.961   4.532 -1.0615  0.4086  0.5377
  123SOPE  H16X13169   6.277   6.855   4.564  0.1994  0.2060 -0.3638
  123SOPE  H16Y13170   6.191   7.007   4.596 -2.1164 -1.1342  0.4236
  123SOPE  C31713171   6.406   7.034   4.551  0.8507  0.7751 -0.4485
  123SOPE  H17X13172   6.399   7.132   4.498  0.7306 -0.5494 -3.0664
  123SOPE  H17Y13173   6.479   6.966   4.502  0.4998 -0.7450  1.0886
  123SOPE  C31813174   6.443   7.047   4.701 -0.2539  0.8496  0.3318
  123SOPE  H18X13175   6.548   7.082   4.699 -0.4377  1.4578  0.7235
  123SOPE  H18Y13176   6.427   6.954   4.760  0.3810  0.1224 -0.6260
  123SOPE  H18Z13177   6.374   7.124   4.744  0.3119  0.3278  2.2479
  124SOPE     N13178   6.678   5.624   2.370 -0.0972 -0.1650  0.4605
  124SOPE   HN113179   6.760   5.650   2.312  0.9558  0.1307  2.0293
  124SOPE   HN213180   6.605   5.695   2.346  0.2221 -0.4010 -1.3969
  124SOPE   HN313181   6.722   5.635   2.463 -1.1493  2.8208  0.7127
  124SOPE   C1213182   6.627   5.484   2.338 -0.1357  0.5847  0.5716
  124SOPE  H12A13183   6.544   5.498   2.266 -1.4606  3.7501  2.5083
  124SOPE  H12B13184   6.581   5.448   2.433  1.2052  0.7603  1.3110
  124SOPE   C1113185   6.732   5.385   2.285  0.8157 -0.3896 -0.2522
  124SOPE  H11A13186   6.685   5.289   2.256  0.9566 -1.5006  2.8605
  124SOPE  H11B13187   6.801   5.361   2.369 -0.1311  0.5623  0.8427
  124SOPE     P13188   6.925   5.517   2.146 -0.6696  0.2469 -0.3847
  124SOPE   O1313189   6.895   5.654   2.189  0.1662  0.0021 -0.0386
  124SOPE   O1413190   6.981   5.507   2.013  0.3623 -0.1751  0.2751
  124SOPE   O1213191   6.797   5.432   2.166  0.1990  0.0204 -0.6656
  124SOPE   O1113192   7.029   5.454   2.248 -0.6754  0.0455  0.1984
  124SOPE    C113193   7.122   5.360   2.199  0.5487 -0.1652 -0.3765
  124SOPE    HA13194   7.216   5.406   2.162  0.7282  0.3377  0.6560
  124SOPE    HB13195   7.080   5.292   2.122  3.6305 -0.2376 -2.1545
  124SOPE    C213196   7.168   5.269   2.317 -1.1356 -0.0799  0.3603
  124SOPE    HS13197   7.232   5.193   2.268  2.1113  2.9069 -0.4206
  124SOPE   O2113198   7.049   5.216   2.375  0.3342  0.6952 -0.2760
  124SOPE   C2113199   7.045   5.089   2.405  0.2228  0.3412 -1.3014
  124SOPE   O2213200   7.127   5.003   2.384  0.1416 -0.5780  0.1466
  124SOPE   C2213201   6.918   5.065   2.477  0.2784 -0.5218 -0.1455
  124SOPE   H2R13202   6.881   4.966   2.442  0.6530 -1.3693  1.7398
  124SOPE   H2S13203   6.841   5.135   2.436 -0.3167 -1.1613 -0.1408
  124SOPE    C313204   7.246   5.344   2.428  0.1012  0.0820  0.6737
  124SOPE    HX13205   7.168   5.419   2.450 -0.9097 -0.6090 -0.3823
  124SOPE    HY13206   7.334   5.390   2.379 -0.7819  2.1865  0.9676
  124SOPE   O3113207   7.279   5.260   2.545  0.5056  0.1764  0.2845
  124SOPE   C3113208   7.360   5.160   2.522  0.1020 -0.3423  0.1958
  124SOPE   O3213209   7.420   5.138   2.418 -0.4232 -0.3667  0.2722
  124SOPE   C3213210   7.344   5.069   2.648 -0.6059  0.2309  0.3579
  124SOPE   H2X13211   7.419   4.989   2.630  1.1375  2.0527 -0.9260
  124SOPE   H2Y13212   7.239   5.035   2.639 -0.7089  0.7624 -0.6305
  124SOPE   C2313213   6.930   5.069   2.628  0.6081  0.2089  0.6078
  124SOPE   H3R13214   7.006   4.996   2.664  0.3783 -1.0421 -1.3356
  124SOPE   H3S13215   6.831   5.035   2.664 -0.1082  1.9087  0.3210
  124SOPE   C2413216   6.950   5.201   2.698  0.0014 -0.6453  0.4257
  124SOPE   H4R13217   7.061   5.195   2.707  0.1504 -0.9996 -1.2667
  124SOPE   H4S13218   6.908   5.269   2.621  2.1853 -1.0254 -1.2008
  124SOPE   C2513219   6.900   5.204   2.838  0.0565 -0.3749 -0.3455
  124SOPE   H5R13220   6.892   5.305   2.884  0.3625 -0.2582 -0.5458
  124SOPE   H5S13221   6.798   5.159   2.837  0.3820 -1.1116 -0.6893
  124SOPE   C2613222   6.973   5.113   2.946  0.0628 -0.0310  0.3673
  124SOPE   H6R13223   6.954   5.005   2.926 -1.2198  0.5159 -1.7642
  124SOPE   H6S13224   7.079   5.143   2.933  0.4419 -1.8160 -1.0965
  124SOPE   C2713225   6.929   5.138   3.088  0.3449  0.2720 -0.0739
  124SOPE   H7R13226   6.915   5.246   3.112 -1.8796  0.6044 -2.4041
  124SOPE   H7S13227   6.826   5.098   3.099  0.9150 -1.7948 -1.6005
  124SOPE   C2813228   7.025   5.087   3.188  0.0131 -0.1475  0.5875
  124SOPE   H8R13229   7.105   5.163   3.197 -0.6492  0.7984 -1.0420
  124SOPE   H8S13230   6.966   5.091   3.282  1.4262  0.3530  1.4759
  124SOPE   C2913231   7.078   4.947   3.164 -0.3331 -0.3971 -0.5518
  124SOPE   H9113232   7.097   4.918   3.060  0.5000  0.6174 -0.7022
  124SOPE  C21013233   7.110   4.854   3.265 -0.0225 -0.1110  0.5492
  124SOPE  H10113234   7.135   4.758   3.218  0.7143 -0.1675  1.0362
  124SOPE  C21113235   7.108   4.867   3.410  0.7581 -0.4194  0.3384
  124SOPE  H11R13236   7.054   4.786   3.464  0.4928  0.0950  0.8498
  124SOPE  H11S13237   7.074   4.968   3.440  2.5054  0.7092 -1.2561
  124SOPE  C21213238   7.252   4.850   3.457  0.1093 -0.1765 -0.1170
  124SOPE  H12R13239   7.313   4.930   3.410  1.9044 -2.1114 -1.2937
  124SOPE  H12S13240   7.288   4.752   3.417  0.1048  0.7106 -2.4870
  124SOPE  C21313241   7.251   4.863   3.610 -0.9285  0.1977 -0.5444
  124SOPE  H13R13242   7.174   4.936   3.643 -2.6112 -2.0048  0.6484
  124SOPE  H13S13243   7.354   4.893   3.639 -0.7121  0.0212 -1.1145
  124SOPE  C21413244   7.229   4.728   3.688  0.1114  0.1506  0.4772
  124SOPE  H14R13245   7.314   4.658   3.680  1.1868  1.2921  1.5577
  124SOPE  H14S13246   7.147   4.673   3.636  1.9571 -1.1215 -1.2023
  124SOPE  C21513247   7.182   4.730   3.830 -0.2566  0.3923 -0.8698
  124SOPE  H15R13248   7.160   4.624   3.856 -0.3783  0.2878 -1.3791
  124SOPE  H15S13249   7.092   4.792   3.849 -1.6568 -1.1195 -2.2773
  124SOPE  C21613250   7.292   4.774   3.933  0.5653  1.3634 -0.4075
  124SOPE  H16R13251   7.347   4.865   3.902  2.4767  0.0779 -0.9251
  124SOPE  H16S13252   7.361   4.691   3.957 -0.5517  0.5966  0.2420
  124SOPE  C21713253   7.222   4.803   4.069  0.1759 -0.3117 -0.6604
  124SOPE  H17R13254   7.170   4.713   4.107  0.6035  0.5185  2.1441
  124SOPE  H17S13255   7.144   4.882   4.067 -0.1312 -0.5226  1.1523
  124SOPE  C21813256   7.315   4.863   4.182 -0.2175 -0.3146 -0.0817
  124SOPE  H18R13257   7.349   4.965   4.155 -1.3349 -0.2878 -1.4771
  124SOPE  H18S13258   7.410   4.806   4.182 -0.9262 -1.5382 -0.3846
  124SOPE  H18T13259   7.264   4.875   4.280  0.8200  2.0654  0.2372
  124SOPE   C3313260   7.382   5.145   2.782 -0.1175  0.6136 -0.4597
  124SOPE   H3X13261   7.352   5.068   2.856 -1.4374 -0.5177 -2.1058
  124SOPE   H3Y13262   7.321   5.238   2.781 -1.3082 -0.1390 -1.8185
  124SOPE   C3413263   7.533   5.169   2.794 -0.1402 -0.0421  0.0098
  124SOPE   H4X13264   7.574   5.235   2.714  0.7699  2.2588  2.2263
  124SOPE   H4Y13265   7.587   5.071   2.791 -0.8528 -0.4385 -0.0745
  124SOPE   C3513266   7.575   5.233   2.927 -0.4365  0.3979  0.7611
  124SOPE   H5X13267   7.533   5.336   2.925  0.1723  0.6339 -0.1585
  124SOPE   H5Y13268   7.686   5.238   2.925 -0.4083 -0.1616  0.7136
  124SOPE   C3613269   7.526   5.161   3.051 -0.1325 -0.2311 -1.0401
  124SOPE   H6X13270   7.547   5.052   3.041 -1.5942 -0.7558  0.9102
  124SOPE   H6Y13271   7.418   5.184   3.064 -0.1898 -1.4658  1.1031
  124SOPE   C3713272   7.610   5.201   3.178  0.7948 -0.2614  0.3263
  124SOPE   H7X13273   7.602   5.310   3.193  1.7966 -0.4532  2.8434
  124SOPE   H7Y13274   7.715   5.173   3.156  0.0333 -2.1660 -1.1461
  124SOPE   C3813275   7.573   5.131   3.311  0.8177  0.5786 -0.5188
  124SOPE   H8X13276   7.591   5.021   3.315  1.5915  0.7441  1.8573
  124SOPE   H8Y13277   7.463   5.138   3.321  0.8531  0.7647 -0.2528
  124SOPE   C3913278   7.644   5.201   3.432  0.4187  0.1319  1.0034
  124SOPE   H9X13279   7.610   5.307   3.437 -1.4299 -0.2622 -1.3351
  124SOPE   H9Y13280   7.750   5.218   3.405 -0.0896  0.5359 -0.9050
  124SOPE  C31013281   7.636   5.115   3.560 -0.0965  0.4007  0.3811
  124SOPE  H10X13282   7.704   5.028   3.547  0.6455  0.7838  1.5205
  124SOPE  H10Y13283   7.532   5.081   3.579 -0.5342  1.9520  0.8586
  124SOPE  C31113284   7.685   5.202   3.669 -0.1176  0.8820 -0.2349
  124SOPE  H11X13285   7.637   5.301   3.654 -2.2346 -0.1024 -0.2489
  124SOPE  H11Y13286   7.795   5.221   3.667  0.1404  0.5054  3.4068
  124SOPE  C31213287   7.655   5.146   3.811  0.5841  0.3420  0.1725
  124SOPE  H12X13288   7.697   5.043   3.817 -2.1288 -0.7997  0.9032
  124SOPE  H12Y13289   7.545   5.142   3.818  0.7326 -1.0277  4.1067
  124SOPE  C31313290   7.714   5.223   3.932  0.6500 -0.2178 -0.2773
  124SOPE  H13X13291   7.704   5.330   3.904  0.5373 -0.2873 -0.5098
  124SOPE  H13Y13292   7.821   5.200   3.950  0.0751 -1.0583  2.4716
  124SOPE  C31413293   7.639   5.195   4.062 -0.0001  0.0137  0.2160
  124SOPE  H14X13294   7.533   5.227   4.051 -1.5363 -3.1046  3.7958
  124SOPE  H14Y13295   7.691   5.272   4.124  2.0586 -1.6672  0.6902
  124SOPE  C31513296   7.657   5.055   4.115 -0.5457 -0.6220 -0.1308
  124SOPE  H15X13297   7.760   5.030   4.083 -0.3241  0.2930 -0.1487
  124SOPE  H15Y13298   7.584   4.991   4.061  1.2102 -0.3346 -3.0250
  124SOPE  C31613299   7.628   5.052   4.270 -0.5155 -0.3664  0.5338
  124SOPE  H16X13300   7.647   4.951   4.313 -0.1389 -0.0618  1.0839
  124SOPE  H16Y13301   7.520   5.066   4.291 -0.4073  0.7315  0.4076
  124SOPE  C31713302   7.711   5.151   4.360 -1.0671 -0.0221  0.4256
  124SOPE  H17X13303   7.688   5.258   4.337 -0.2002 -0.4259 -2.7717
  124SOPE  H17Y13304   7.819   5.143   4.337 -1.8450 -0.9098 -3.7740
  124SOPE  C31813305   7.666   5.140   4.510 -0.5782  0.0521 -0.3406
  124SOPE  H18X13306   7.593   5.218   4.541 -0.8941 -0.9358  1.5631
  124SOPE  H18Y13307   7.756   5.166   4.571  0.2663 -0.4722 -1.3494
  124SOPE  H18Z13308   7.635   5.038   4.539 -1.4361  1.0135  2.5325
  125SOPE     N13309   2.604   5.022   2.383 -0.3694  0.2400  0.3093
  125SOPE   HN113310   2.649   4.973   2.303 -1.0265 -0.7998  0.5564
  125SOPE   HN213311   2.675   5.015   2.458  2.3284  0.5454 -2.0617
  125SOPE   HN313312   2.522   4.966   2.415  0.1068 -0.2460  0.6862
  125SOPE   C1213313   2.568   5.164   2.367 -0.3008 -0.7962 -0.5079
  125SOPE  H12A13314   2.507   5.184   2.276 -0.0401 -1.1843 -0.7679
  125SOPE  H12B13315   2.658   5.228   2.382 -0.9167 -0.5990  3.0936
  125SOPE   C1113316   2.475   5.204   2.482  0.7033  0.1995  0.0822
  125SOPE  H11A13317   2.461   5.314   2.482  2.2284  0.4659  2.4031
  125SOPE  H11B13318   2.529   5.190   2.578  0.6384 -1.1942 -0.0670
  125SOPE     P13319   2.212   5.173   2.415  0.5316  0.1758  0.0625
  125SOPE   O1313320   2.161   5.039   2.369 -0.2907  0.4021  0.4746
  125SOPE   O1413321   2.241   5.277   2.310 -0.1711  0.3380 -0.2729
  125SOPE   O1213322   2.351   5.137   2.485 -0.5537 -0.6844 -0.1562
  125SOPE   O1113323   2.114   5.223   2.527 -0.0172  0.7403 -0.2830
  125SOPE    C113324   2.100   5.149   2.648  0.6680  0.2784  0.3956
  125SOPE    HA13325   2.115   5.039   2.644 -0.6274  0.1269 -1.0548
  125SOPE    HB13326   1.997   5.161   2.688  0.7118  0.4249  0.4655
  125SOPE    C213327   2.207   5.181   2.752 -0.5547 -0.4874 -0.5880
  125SOPE    HS13328   2.307   5.153   2.711 -0.6675 -0.8783 -0.5963
  125SOPE   O2113329   2.172   5.103   2.866 -0.3040  0.1494 -0.2259
  125SOPE   C2113330   2.271   5.097   2.960  0.5513  0.3626 -0.7994
  125SOPE   O2213331   2.378   5.147   2.963 -0.5760  0.1746  0.0394
  125SOPE   C2213332   2.205   5.036   3.086 -0.2882  0.2181 -0.3706
  125SOPE   H2R13333   2.232   4.928   3.080  2.6289  0.8889 -1.0378
  125SOPE   H2S13334   2.094   5.028   3.085 -0.2548 -0.4725  0.1553
  125SOPE    C313335   2.204   5.327   2.796  0.2081 -0.6742 -0.2151
  125SOPE    HX13336   2.240   5.379   2.705  1.4273 -2.9090 -1.0735
  125SOPE    HY13337   2.270   5.353   2.882  0.1395  2.6854 -1.0493
  125SOPE   O3113338   2.074   5.364   2.836  0.0292  0.1038 -0.0180
  125SOPE   C3113339   2.065   5.499   2.846  0.8551 -0.5090  0.5049
  125SOPE   O3213340   2.168   5.567   2.824 -0.3840 -0.4728 -0.0670
  125SOPE   C3213341   1.923   5.549   2.887  0.3582 -0.5288 -0.3263
  125SOPE   H2X13342   1.843   5.482   2.848  0.8420 -1.5605  0.4063
  125SOPE   H2Y13343   1.912   5.648   2.838  0.8749 -0.7756 -0.9530
  125SOPE   C2313344   2.256   5.105   3.209  0.9682  0.2841  0.5726
  125SOPE   H3R13345   2.365   5.125   3.219  0.7019  1.7358  0.8942
  125SOPE   H3S13346   2.220   5.048   3.297  0.8386  0.5344  0.6841
  125SOPE   C2413347   2.193   5.242   3.235 -0.0425 -0.0410 -0.3470
  125SOPE   H4R13348   2.211   5.306   3.146 -3.2833  0.5959 -0.6652
  125SOPE   H4S13349   2.082   5.235   3.236 -0.2530  2.2861 -1.5123
  125SOPE   C2513350   2.238   5.313   3.364  0.4038 -0.1818 -0.3349
  125SOPE   H5R13351   2.348   5.307   3.382 -0.0067 -0.5141  2.4237
  125SOPE   H5S13352   2.221   5.421   3.346 -1.9710 -0.3108  0.8488
  125SOPE   C2613353   2.156   5.275   3.491 -0.8545  0.6458  0.0109
  125SOPE   H6R13354   2.055   5.320   3.497 -0.3982  1.5352  2.2219
  125SOPE   H6S13355   2.138   5.165   3.488  1.3082  0.2311  0.4778
  125SOPE   C2713356   2.225   5.327   3.627  0.3111  0.0700 -0.8277
  125SOPE   H7R13357   2.284   5.243   3.671  1.9036  1.6025  0.0737
  125SOPE   H7S13358   2.299   5.409   3.612 -1.0774  1.6259  0.4904
  125SOPE   C2813359   2.129   5.364   3.744  0.5297 -0.0972  0.2247
  125SOPE   H8R13360   2.186   5.416   3.823  1.0308  1.3675 -1.0561
  125SOPE   H8S13361   2.058   5.446   3.718  0.3282 -0.4603 -0.3954
  125SOPE   C2913362   2.053   5.247   3.794  0.4534 -0.1535 -0.4104
  125SOPE   H9113363   2.045   5.169   3.716 -1.6038 -0.3907 -0.0124
  125SOPE  C21013364   1.988   5.227   3.915 -0.3036  0.5627 -0.2652
  125SOPE  H10113365   1.968   5.123   3.944  1.4808  0.5205  0.9903
  125SOPE  C21113366   2.007   5.318   4.030 -0.0425 -0.0125 -0.8909
  125SOPE  H11R13367   2.040   5.419   3.996  2.1433 -0.6423 -0.7942
  125SOPE  H11S13368   2.086   5.272   4.093 -1.0741  1.1091  1.3230
  125SOPE  C21213369   1.883   5.334   4.124  0.1464  0.0054 -0.3764
  125SOPE  H12R13370   1.857   5.233   4.162  1.4612 -0.8354 -1.5910
  125SOPE  H12S13371   1.794   5.375   4.071  0.2083 -1.6411 -1.8423
  125SOPE  C21313372   1.921   5.418   4.250  0.9092  0.2447  0.5504
  125SOPE  H13R13373   1.958   5.515   4.210  1.7191 -0.0689  0.5223
  125SOPE  H13S13374   2.011   5.370   4.295  1.6966  0.8125 -0.3603
  125SOPE  C21413375   1.803   5.431   4.352 -0.4357  0.3504 -0.3526
  125SOPE  H14R13376   1.794   5.339   4.413  0.7795  0.4044 -0.0656
  125SOPE  H14S13377   1.704   5.450   4.305 -0.2420  2.0738 -0.1319
  125SOPE  C21513378   1.840   5.534   4.456  0.0975 -0.5555 -0.2627
  125SOPE  H15R13379   1.756   5.536   4.528  0.0812  2.1538 -0.2588
  125SOPE  H15S13380   1.856   5.631   4.405  1.0334 -0.1254  0.8116
  125SOPE  C21613381   1.981   5.510   4.523 -0.4399 -0.3589  0.1719
  125SOPE  H16R13382   2.070   5.491   4.459 -0.4074  1.8558 -0.4888
  125SOPE  H16S13383   1.969   5.413   4.576  0.1304 -0.6194 -0.1621
  125SOPE  C21713384   2.029   5.618   4.626 -0.4434 -0.0367 -0.0525
  125SOPE  H17R13385   2.120   5.577   4.674 -0.5323  0.7593  0.8052
  125SOPE  H17S13386   1.956   5.625   4.710  1.2224 -2.2445  1.7152
  125SOPE  C21813387   2.050   5.759   4.570  0.0577  0.1579  0.0600
  125SOPE  H18R13388   2.147   5.779   4.520  0.6693  1.7003  1.7525
  125SOPE  H18S13389   2.035   5.842   4.642  3.2076  0.0729  0.9520
  125SOPE  H18T13390   1.965   5.779   4.500 -1.5271 -2.4071  1.1136
  125SOPE   C3313391   1.914   5.559   3.045  0.7477  0.0390  1.0974
  125SOPE   H3X13392   1.821   5.616   3.067  0.6902  1.4613 -2.2270
  125SOPE   H3Y13393   1.991   5.628   3.084  0.2423  1.8431 -0.8914
  125SOPE   C3413394   1.918   5.425   3.124 -0.2264 -0.5732  0.4259
  125SOPE   H4X13395   2.009   5.369   3.093  0.5732  0.8325  0.1385
  125SOPE   H4Y13396   1.830   5.363   3.099 -0.2230 -0.1508 -0.6739
  125SOPE   C3513397   1.912   5.429   3.275 -0.9400 -0.3742  0.2111
  125SOPE   H5X13398   2.007   5.458   3.324 -0.5349 -1.6144  0.1964
  125SOPE   H5Y13399   1.889   5.324   3.301 -0.3610 -0.6737 -0.4681
  125SOPE   C3613400   1.804   5.523   3.337  0.0981  0.0938 -0.4493
  125SOPE   H6X13401   1.707   5.487   3.298  0.5164 -0.9687 -0.5497
  125SOPE   H6Y13402   1.824   5.629   3.310  1.5569 -0.0093  0.1038
  125SOPE   C3713403   1.782   5.517   3.490 -0.2714 -0.0304 -0.4336
  125SOPE   H7X13404   1.694   5.579   3.517  0.9443  0.1163  3.9138
  125SOPE   H7Y13405   1.876   5.528   3.549  1.1087  0.1658 -2.5332
  125SOPE   C3813406   1.742   5.379   3.534  0.5607  0.5607  0.4547
  125SOPE   H8X13407   1.819   5.305   3.506  1.5126  1.5204  0.4459
  125SOPE   H8Y13408   1.651   5.348   3.480  1.4840  2.6901 -2.5806
  125SOPE   C3913409   1.719   5.368   3.685 -0.3891 -0.2106 -0.6211
  125SOPE   H9X13410   1.795   5.426   3.742 -1.2856  0.3621  0.0293
  125SOPE   H9Y13411   1.730   5.260   3.708 -0.8338  0.0193  0.7579
  125SOPE  C31013412   1.579   5.409   3.731 -0.4198  1.1336 -0.5025
  125SOPE  H10X13413   1.515   5.328   3.689  0.1327  0.7162 -0.5430
  125SOPE  H10Y13414   1.557   5.511   3.692  0.8275  1.7417  0.3099
  125SOPE  C31113415   1.544   5.386   3.883 -0.5612  0.0651  0.7793
  125SOPE  H11X13416   1.596   5.460   3.948 -0.8854  1.3705 -0.3946
  125SOPE  H11Y13417   1.581   5.286   3.915 -1.4983 -0.4350  0.3292
  125SOPE  C31213418   1.394   5.397   3.905  0.3653 -0.0470  0.2558
  125SOPE  H12X13419   1.351   5.331   3.826  0.2312  1.2939 -0.8357
  125SOPE  H12Y13420   1.356   5.494   3.867  0.6314 -0.2198 -0.4743
  125SOPE  C31313421   1.323   5.359   4.036 -0.8588 -0.3535 -0.0774
  125SOPE  H13X13422   1.327   5.248   4.045 -0.2119 -0.2760  0.7222
  125SOPE  H13Y13423   1.214   5.372   4.023 -0.5894 -0.1566 -2.6283
  125SOPE  C31413424   1.386   5.428   4.163 -0.2141  0.1255  0.4517
  125SOPE  H14X13425   1.387   5.536   4.136 -2.0990 -0.2009 -1.2158
  125SOPE  H14Y13426   1.488   5.392   4.185 -0.4300 -0.6564  0.2116
  125SOPE  C31513427   1.290   5.423   4.282 -0.2933 -0.4330 -0.7844
  125SOPE  H15X13428   1.284   5.319   4.319  0.4501 -0.0152  0.5831
  125SOPE  H15Y13429   1.189   5.456   4.248 -0.5095 -0.7169 -0.4201
  125SOPE  C31613430   1.364   5.498   4.401 -0.3722  0.4776 -0.8539
  125SOPE  H16X13431   1.417   5.582   4.353 -1.3780  1.4223 -0.3629
  125SOPE  H16Y13432   1.439   5.423   4.433 -0.0306  1.0649 -0.2623
  125SOPE  C31713433   1.266   5.537   4.515  0.6448 -0.7372 -0.4637
  125SOPE  H17X13434   1.214   5.446   4.552  1.3395 -0.9646 -0.0305
  125SOPE  H17Y13435   1.195   5.617   4.485  0.5848  0.1085  1.7184
  125SOPE  C31813436   1.345   5.594   4.633  0.4555  0.3485 -0.7503
  125SOPE  H18X13437   1.283   5.635   4.715  0.7993 -0.8012  0.1082
  125SOPE  H18Y13438   1.396   5.686   4.598  0.2028  0.5277 -0.6462
  125SOPE  H18Z13439   1.408   5.509   4.667  0.0555  1.0539  1.9465
  126SOPE     N13440   5.623   1.290   2.158 -0.1545  0.0377  0.8704
  126SOPE   HN113441   5.670   1.383   2.158 -1.9293  1.0025 -0.6880
  126SOPE   HN213442   5.704   1.229   2.134 -1.6977 -1.1158 -1.8532
  126SOPE   HN313443   5.565   1.293   2.071  0.4639  1.5956  0.4689
  126SOPE   C1213444   5.563   1.277   2.295 -0.3743 -0.6363 -0.1373
  126SOPE  H12A13445   5.642   1.310   2.366  0.3755 -0.3742 -1.0643
  126SOPE  H12B13446   5.551   1.168   2.313  2.0819 -0.6382  2.0677
  126SOPE   C1113447   5.431   1.358   2.309  0.0979 -0.0896 -0.9091
  126SOPE  H11A13448   5.450   1.467   2.305  1.7008 -0.3870 -3.4168
  126SOPE  H11B13449   5.391   1.324   2.407 -2.4184 -1.8851 -2.4327
  126SOPE     P13450   5.233   1.213   2.217 -0.4187 -0.1449  0.1928
  126SOPE   O1313451   5.304   1.085   2.240 -0.3035  0.2608 -0.2203
  126SOPE   O1413452   5.142   1.229   2.098  0.4379  0.2538 -0.0692
  126SOPE   O1213453   5.338   1.326   2.202 -0.2914  0.4316  0.1843
  126SOPE   O1113454   5.155   1.253   2.350  0.0460  0.3945  0.1140
  126SOPE    C113455   5.083   1.380   2.341 -0.0072 -1.1097 -0.3973
  126SOPE    HA13456   4.981   1.362   2.302 -0.5450  0.2415  0.3356
  126SOPE    HB13457   5.131   1.452   2.272 -3.1911  1.0804 -0.4927
  126SOPE    C213458   5.060   1.447   2.482 -0.7061 -0.5128 -0.4809
  126SOPE    HS13459   4.993   1.535   2.471 -0.4505 -0.6731 -5.2092
  126SOPE   O2113460   5.186   1.490   2.529  0.3026  0.4431  0.3439
  126SOPE   C2113461   5.215   1.618   2.516  0.2850  0.8730  0.0226
  126SOPE   O2213462   5.155   1.698   2.450  0.0410  0.2650 -0.1291
  126SOPE   C2213463   5.339   1.648   2.595 -0.1094 -0.3095 -0.0586
  126SOPE   H2R13464   5.404   1.710   2.530  0.7059 -0.8202  0.2498
  126SOPE   H2S13465   5.373   1.545   2.621  0.1596 -0.4771 -1.0099
  126SOPE    C313466   5.008   1.346   2.585  0.3893  0.4538 -0.1670
  126SOPE    HX13467   5.088   1.271   2.603  0.5103  1.0450  2.1627
  126SOPE    HY13468   4.923   1.290   2.542 -0.7020  1.5172  0.5399
  126SOPE   O3113469   4.966   1.406   2.714  0.0247 -0.3158  0.3155
  126SOPE   C3113470   4.844   1.454   2.709  0.2529 -0.4783  0.0515
  126SOPE   O3213471   4.773   1.466   2.611 -0.5783  0.4149 -0.3270
  126SOPE   C3213472   4.789   1.497   2.848 -0.2914  0.5428 -0.4970
  126SOPE   H2X13473   4.871   1.467   2.917 -0.5299  0.3589 -0.2902
  126SOPE   H2Y13474   4.693   1.446   2.870 -0.6080  0.4940 -1.9130
  126SOPE   C2313475   5.305   1.737   2.720  0.1368 -0.1322 -0.0329
  126SOPE   H3R13476   5.277   1.834   2.673  0.0402  0.4799  1.2519
  126SOPE   H3S13477   5.405   1.750   2.768 -0.4428 -1.0693  1.4759
  126SOPE   C2413478   5.213   1.665   2.819  0.2118 -1.0413  0.2267
  126SOPE   H4R13479   5.128   1.734   2.837  0.8950  0.7099 -2.5994
  126SOPE   H4S13480   5.164   1.568   2.798  1.7678 -1.9006  0.4365
  126SOPE   C2513481   5.280   1.636   2.955 -0.8683  0.2630 -0.3839
  126SOPE   H5R13482   5.360   1.560   2.944 -0.9490 -0.6021  3.5823
  126SOPE   H5S13483   5.332   1.730   2.984  3.2688 -1.8727 -0.0602
  126SOPE   C2613484   5.176   1.579   3.052  0.1277 -0.1462  0.1355
  126SOPE   H6R13485   5.109   1.667   3.061  1.1647  0.6278  0.5230
  126SOPE   H6S13486   5.116   1.500   3.002 -1.4337  0.1582  1.4436
  126SOPE   C2713487   5.231   1.553   3.193  0.4237 -0.6257 -0.3350
  126SOPE   H7R13488   5.313   1.479   3.203  0.7920 -0.2659 -0.6482
  126SOPE   H7S13489   5.288   1.646   3.216 -0.0066 -0.2752 -0.6615
  126SOPE   C2813490   5.122   1.540   3.301  1.0021 -0.1123  0.0162
  126SOPE   H8R13491   5.171   1.569   3.397  0.4392  1.3186 -0.1078
  126SOPE   H8S13492   5.043   1.617   3.292  0.0767 -0.9268  0.8439
  126SOPE   C2913493   5.057   1.408   3.304  0.7326 -0.0582  0.2374
  126SOPE   H9113494   4.984   1.387   3.224  2.3929 -0.7316 -1.1708
  126SOPE  C21013495   5.097   1.307   3.384 -0.1444 -0.2025 -0.2032
  126SOPE  H10113496   5.048   1.210   3.403  1.1325 -0.9962 -0.7764
  126SOPE  C21113497   5.208   1.313   3.490 -1.0385 -0.6974  0.5254
  126SOPE  H11R13498   5.251   1.415   3.499 -1.0036 -0.4304 -2.0551
  126SOPE  H11S13499   5.292   1.247   3.461 -0.0704  0.1139  1.3949
  126SOPE  C21213500   5.154   1.277   3.631  0.4181 -0.0377 -0.6041
  126SOPE  H12R13501   5.239   1.297   3.701  0.3331 -2.4357  0.2917
  126SOPE  H12S13502   5.112   1.175   3.638  0.2842 -0.0081 -0.9722
  126SOPE  C21313503   5.046   1.375   3.679 -0.1664 -0.6181 -0.3167
  126SOPE  H13R13504   4.946   1.338   3.650 -1.2192  0.9539  1.1256
  126SOPE  H13S13505   5.053   1.470   3.622 -4.4841 -1.9403 -3.5053
  126SOPE  C21413506   5.045   1.406   3.828 -0.0766  0.2978 -0.5379
  126SOPE  H14R13507   4.963   1.478   3.844 -0.6421 -0.7481  1.5444
  126SOPE  H14S13508   5.140   1.460   3.850  0.7591 -1.2147 -0.2784
  126SOPE  C21513509   5.027   1.287   3.933 -0.3408  0.2254 -0.0132
  126SOPE  H15R13510   5.103   1.208   3.918  1.2449  1.9641 -1.5469
  126SOPE  H15S13511   4.926   1.245   3.912 -0.2246 -1.7971  2.8472
  126SOPE  C21613512   5.014   1.338   4.077  0.6485 -0.5017 -0.5641
  126SOPE  H16R13513   4.937   1.285   4.137  2.2637 -1.9040  0.3663
  126SOPE  H16S13514   4.969   1.439   4.066  0.8446 -0.4354 -0.7768
  126SOPE  C21713515   5.147   1.337   4.147 -1.1606 -0.0803 -0.0850
  126SOPE  H17R13516   5.226   1.368   4.076 -0.6391  0.8211  0.8633
  126SOPE  H17S13517   5.161   1.230   4.174 -1.4644  0.5705  3.0322
  126SOPE  C21813518   5.146   1.425   4.271 -0.2071  0.4385 -0.6810
  126SOPE  H18R13519   5.166   1.529   4.238  0.4194  0.7151  0.5415
  126SOPE  H18S13520   5.228   1.409   4.343  0.7633  0.9142 -1.6473
  126SOPE  H18T13521   5.048   1.436   4.323  0.2405  2.6865 -0.2234
  126SOPE   C3313522   4.776   1.651   2.856 -0.2463 -0.4319 -0.3158
  126SOPE   H3X13523   4.718   1.686   2.769  0.6654 -1.0505 -1.2012
  126SOPE   H3Y13524   4.871   1.707   2.847 -0.0635 -0.9890 -2.2738
  126SOPE   C3413525   4.706   1.680   2.992 -0.1712 -0.1101 -0.2015
  126SOPE   H4X13526   4.613   1.619   2.991 -1.6189  1.9840 -1.2096
  126SOPE   H4Y13527   4.672   1.786   2.998 -2.9274 -0.9089 -0.6073
  126SOPE   C3513528   4.789   1.651   3.120 -0.2055 -0.0979  0.3288
  126SOPE   H5X13529   4.879   1.716   3.116  0.8378 -1.5405 -1.2648
  126SOPE   H5Y13530   4.831   1.548   3.120 -2.7607 -1.2198  1.0720
  126SOPE   C3613531   4.712   1.679   3.251  0.0446 -0.1879  0.1927
  126SOPE   H6X13532   4.623   1.612   3.256  0.2725 -0.6663 -1.4399
  126SOPE   H6Y13533   4.677   1.784   3.243  0.6386  0.0000  0.0463
  126SOPE   C3713534   4.782   1.672   3.383 -0.6114  0.8882  0.3372
  126SOPE   H7X13535   4.882   1.720   3.388  0.1399 -0.5870  0.1314
  126SOPE   H7Y13536   4.805   1.565   3.404 -1.5505  0.0029 -2.6712
  126SOPE   C3813537   4.693   1.721   3.494 -0.4336  0.7799 -0.1475
  126SOPE   H8X13538   4.593   1.672   3.488 -0.2348  0.4402 -0.6976
  126SOPE   H8Y13539   4.673   1.829   3.478 -2.4391  0.3688 -0.7155
  126SOPE   C3913540   4.748   1.697   3.635  0.7918  0.1233  0.4405
  126SOPE   H9X13541   4.827   1.774   3.638  1.4907 -0.6059  2.3512
  126SOPE   H9Y13542   4.791   1.594   3.635  0.8614  0.1391 -0.6138
  126SOPE  C31013543   4.651   1.715   3.753 -0.6961 -0.0218  0.2635
  126SOPE  H10X13544   4.569   1.641   3.736 -1.1545  0.9663 -2.2272
  126SOPE  H10Y13545   4.613   1.819   3.760  2.5635  1.1617  2.9039
  126SOPE  C31113546   4.724   1.692   3.889 -0.1964 -0.0741  0.6812
  126SOPE  H11X13547   4.817   1.752   3.883  1.2984 -2.3419 -0.6050
  126SOPE  H11Y13548   4.750   1.584   3.886 -1.9103 -0.5101  0.4464
  126SOPE  C31213549   4.638   1.721   4.010  0.6199 -0.1774  0.8140
  126SOPE  H12X13550   4.536   1.683   3.987  1.0484 -0.8869  0.0099
  126SOPE  H12Y13551   4.630   1.831   4.019 -0.1589 -0.2778  1.4505
  126SOPE  C31313552   4.687   1.660   4.142 -0.2268 -0.9423  0.2722
  126SOPE  H13X13553   4.792   1.690   4.163 -0.0328 -1.6112  0.2848
  126SOPE  H13Y13554   4.700   1.550   4.136  0.1744 -0.8856  0.0766
  126SOPE  C31413555   4.592   1.680   4.260 -0.2863  0.1514 -0.2918
  126SOPE  H14X13556   4.607   1.612   4.347  2.0100  2.5889  1.3899
  126SOPE  H14Y13557   4.490   1.664   4.221  0.0223 -0.7565 -0.7672
  126SOPE  C31513558   4.591   1.827   4.305 -0.5380  0.5405  0.0077
  126SOPE  H15X13559   4.590   1.900   4.222  2.7304  2.9441  1.8586
  126SOPE  H15Y13560   4.685   1.845   4.361 -0.4281 -0.8626  0.3094
  126SOPE  C31613561   4.475   1.855   4.407 -0.3232 -0.4334  0.3005
  126SOPE  H16X13562   4.470   1.769   4.477 -1.8420 -1.5690 -1.0913
  126SOPE  H16Y13563   4.373   1.859   4.362 -0.1330  0.3826 -0.0734
  126SOPE  C31713564   4.500   1.982   4.499 -0.3704  0.0297  0.3230
  126SOPE  H17X13565   4.603   1.974   4.541  0.1998 -2.3584 -1.3675
  126SOPE  H17Y13566   4.422   1.974   4.578 -1.2219  0.6632 -0.4198
  126SOPE  C31813567   4.481   2.106   4.423 -0.0965 -0.5769  0.3288
  126SOPE  H18X13568   4.373   2.128   4.410 -0.0581 -0.9249 -0.6266
  126SOPE  H18Y13569   4.524   2.080   4.324  0.5792  1.1450  0.1297
  126SOPE  H18Z13570   4.539   2.188   4.471  1.6511 -0.8902 -1.1129
  127SOPE     N13571   6.044   2.450   2.028 -0.5661 -0.2563 -0.1047
  127SOPE   HN113572   6.006   2.543   2.000 -1.5621 -1.1437 -1.8847
  127SOPE   HN213573   6.146   2.444   2.008 -1.0322  2.7344 -4.7996
  127SOPE   HN313574   6.001   2.373   1.974  0.2611 -1.3039  0.6787
  127SOPE   C1213575   6.028   2.415   2.169  0.5246 -0.2069 -0.4311
  127SOPE  H12A13576   6.090   2.325   2.188  1.0935 -0.3050 -2.4444
  127SOPE  H12B13577   5.919   2.397   2.178  0.8653 -1.7897  0.8295
  127SOPE   C1113578   6.082   2.536   2.255  0.2653  0.1735  0.4029
  127SOPE  H11A13579   6.060   2.522   2.363  0.2237  1.2545  0.5477
  127SOPE  H11B13580   6.023   2.628   2.237 -1.8798 -1.3908 -1.0853
  127SOPE     P13581   6.334   2.546   2.321  0.1853  0.1471 -0.0808
  127SOPE   O1313582   6.450   2.617   2.267 -0.3459  0.4268 -0.4515
  127SOPE   O1413583   6.351   2.407   2.358 -0.3575  0.2207 -0.2568
  127SOPE   O1213584   6.214   2.562   2.216 -0.1292 -0.0223  0.3750
  127SOPE   O1113585   6.290   2.626   2.456 -0.3559 -0.0745  0.0900
  127SOPE    C113586   6.295   2.768   2.454  0.0882 -0.0620 -0.4559
  127SOPE    HA13587   6.200   2.807   2.410 -1.8915 -3.4937  0.4088
  127SOPE    HB13588   6.385   2.811   2.404 -0.4023  0.2031 -1.1312
  127SOPE    C213589   6.287   2.824   2.604  0.8174  0.9038  0.3980
  127SOPE    HS13590   6.234   2.921   2.602  0.4843  0.7162 -0.4491
  127SOPE   O2113591   6.418   2.822   2.661 -0.1155 -0.0931 -0.7299
  127SOPE   C2113592   6.490   2.932   2.643 -0.2274  0.2602 -0.2869
  127SOPE   O2213593   6.445   3.040   2.600 -0.0250 -0.2368  0.0273
  127SOPE   C2213594   6.626   2.895   2.697  0.3422 -1.3040 -0.0699
  127SOPE   H2R13595   6.694   2.904   2.609  0.8202  1.1198  0.4868
  127SOPE   H2S13596   6.625   2.791   2.734  0.0185 -1.3722 -0.2612
  127SOPE    C313597   6.202   2.724   2.690  0.6514 -0.7542 -0.0451
  127SOPE    HX13598   6.255   2.630   2.714  0.3923 -0.5402  1.5161
  127SOPE    HY13599   6.105   2.706   2.639 -0.0947  1.5232  0.4082
  127SOPE   O3113600   6.168   2.791   2.817 -0.3930  0.2060  0.2608
  127SOPE   C3113601   6.068   2.876   2.807  0.2423 -0.0575  0.2244
  127SOPE   O3213602   6.005   2.894   2.700  0.5812  0.1961  0.1062
  127SOPE   C3213603   6.034   2.952   2.936  0.1480  0.4819 -0.2732
  127SOPE   H2X13604   5.964   2.885   2.992 -1.6312  2.7543  0.4146
  127SOPE   H2Y13605   5.985   3.046   2.903  1.2388  1.7416  1.5126
  127SOPE   C2313606   6.681   2.984   2.810  0.0984 -0.5881 -0.2212
  127SOPE   H3R13607   6.660   3.090   2.784 -0.4809 -0.9620 -1.3249
  127SOPE   H3S13608   6.790   2.971   2.799  0.5016  1.9043  0.1831
  127SOPE   C2413609   6.640   2.961   2.953  0.7367  0.1356 -0.7076
  127SOPE   H4R13610   6.670   3.042   3.024 -1.9422 -0.9821  1.9036
  127SOPE   H4S13611   6.530   2.964   2.964  0.7213  0.0032 -0.8263
  127SOPE   C2513612   6.687   2.828   3.014  0.3053 -0.8947  0.1838
  127SOPE   H5R13613   6.641   2.744   2.958  2.8399 -2.5932  0.4628
  127SOPE   H5S13614   6.796   2.808   3.006  0.6632 -0.7245  3.3738
  127SOPE   C2613615   6.659   2.818   3.161  0.3057  0.2532 -0.1565
  127SOPE   H6R13616   6.554   2.845   3.184  0.1374  0.7214 -1.4075
  127SOPE   H6S13617   6.673   2.712   3.192  0.2324  0.3242  0.1208
  127SOPE   C2713618   6.740   2.909   3.250 -0.1431  0.1426  0.5469
  127SOPE   H7R13619   6.847   2.890   3.225 -0.2959  0.6020 -0.5063
  127SOPE   H7S13620   6.709   3.013   3.228  0.1184  0.3098  0.9576
  127SOPE   C2813621   6.726   2.889   3.404  0.2253 -0.3212  0.2370
  127SOPE   H8R13622   6.630   2.938   3.432  0.9888  1.3712  0.0378
  127SOPE   H8S13623   6.712   2.780   3.423  1.0861 -0.5365 -0.3477
  127SOPE   C2913624   6.855   2.938   3.468 -0.3737  0.2440 -0.0142
  127SOPE   H9113625   6.946   2.949   3.406 -0.9235  0.0386 -0.8625
  127SOPE  C21013626   6.861   2.989   3.594 -0.4091 -0.3512 -0.1348
  127SOPE  H10113627   6.955   3.020   3.642 -1.0360 -1.2416  1.8058
  127SOPE  C21113628   6.742   2.990   3.688  0.3242  0.1816  0.1737
  127SOPE  H11R13629   6.682   2.897   3.698  0.2299  0.1203 -0.8568
  127SOPE  H11S13630   6.676   3.065   3.640 -1.3624 -1.2745  0.1063
  127SOPE  C21213631   6.769   3.050   3.826 -0.1231  0.1985  0.0185
  127SOPE  H12R13632   6.684   3.079   3.891  0.1198 -1.3792  1.1024
  127SOPE  H12S13633   6.830   3.141   3.814 -0.4425  0.7107  1.9162
  127SOPE  C21313634   6.861   2.956   3.899 -0.2396  0.7568 -1.3344
  127SOPE  H13R13635   6.955   2.940   3.842  1.3469  2.7007  0.5857
  127SOPE  H13S13636   6.807   2.860   3.911 -1.9957  2.0594  2.9508
  127SOPE  C21413637   6.904   3.015   4.042  0.2540 -0.4564  0.0263
  127SOPE  H14R13638   6.815   3.064   4.088 -0.9637 -0.4923 -2.1715
  127SOPE  H14S13639   6.981   3.092   4.018  0.5133 -0.6596  0.1976
  127SOPE  C21513640   6.966   2.922   4.141 -0.4712 -0.1201  0.9602
  127SOPE  H15R13641   7.067   2.897   4.102 -0.8891  0.3954 -0.5050
  127SOPE  H15S13642   6.905   2.831   4.155 -2.3020  1.0421  0.8288
  127SOPE  C21613643   6.986   2.991   4.277  0.7478 -0.5145 -0.2657
  127SOPE  H16R13644   6.876   2.994   4.296  0.8276  0.0140  0.1087
  127SOPE  H16S13645   7.030   3.090   4.253  2.2986 -0.8145  1.1858
  127SOPE  C21713646   7.063   2.900   4.369 -0.3251 -0.2354 -0.2163
  127SOPE  H17R13647   7.158   2.872   4.320  0.1346  1.5423 -0.4229
  127SOPE  H17S13648   7.002   2.809   4.388 -4.1588  2.1388 -0.0218
  127SOPE  C21813649   7.098   2.966   4.506  0.0770  0.2094  0.0347
  127SOPE  H18R13650   7.152   3.063   4.496 -0.4054  0.4033 -0.7521
  127SOPE  H18S13651   7.163   2.892   4.558 -1.6705 -0.2550  1.6916
  127SOPE  H18T13652   7.007   2.970   4.569 -1.7289 -1.9880 -2.2477
  127SOPE   C3313653   6.166   2.973   3.014  0.3688  0.3024  0.1857
  127SOPE   H3X13654   6.240   3.022   2.947  0.9128  1.0256  1.2848
  127SOPE   H3Y13655   6.203   2.872   3.042 -0.0330  0.4330  1.2304
  127SOPE   C3413656   6.136   3.047   3.146 -0.2792 -0.0913 -0.3004
  127SOPE   H4X13657   6.060   2.986   3.199 -0.3655 -2.1397 -2.6158
  127SOPE   H4Y13658   6.097   3.150   3.130  0.3976  0.3552  0.7882
  127SOPE   C3513659   6.260   3.058   3.234 -0.0640  0.2062  0.2330
  127SOPE   H5X13660   6.339   3.113   3.179  0.0429  0.0568  0.2381
  127SOPE   H5Y13661   6.304   2.960   3.260 -0.6187 -0.2064 -0.3536
  127SOPE   C3613662   6.245   3.135   3.369 -0.4387 -0.1829  0.2612
  127SOPE   H6X13663   6.153   3.090   3.413 -2.8024  3.7276 -0.2296
  127SOPE   H6Y13664   6.232   3.242   3.342  0.5396  0.3178  1.6635
  127SOPE   C3713665   6.349   3.103   3.475 -0.3966  0.5362  0.2188
  127SOPE   H7X13666   6.448   3.153   3.470  0.1042 -0.5272 -1.0360
  127SOPE   H7Y13667   6.358   2.992   3.480 -0.2936  0.5742  1.1041
  127SOPE   C3813668   6.296   3.152   3.614  0.2656  0.8786  0.1717
  127SOPE   H8X13669   6.198   3.106   3.637  0.6292  0.1164  0.2409
  127SOPE   H8Y13670   6.289   3.263   3.612  1.0698  0.9283 -1.0474
  127SOPE   C3913671   6.392   3.102   3.732  0.3947 -0.3817  0.4144
  127SOPE   H9X13672   6.490   3.153   3.716 -0.6465  1.7861  0.5648
  127SOPE   H9Y13673   6.394   2.992   3.747 -2.0780 -0.4566  0.5089
  127SOPE  C31013674   6.329   3.140   3.871 -0.0944 -0.0123  0.2688
  127SOPE  H10X13675   6.227   3.097   3.880  0.6840 -2.0633 -0.1989
  127SOPE  H10Y13676   6.313   3.250   3.871  1.3715  0.2859 -2.4513
  127SOPE  C31113677   6.408   3.089   3.995  1.2563  0.1114  0.2715
  127SOPE  H11X13678   6.389   3.155   4.082 -1.2851  1.8172 -1.4092
  127SOPE  H11Y13679   6.515   3.113   3.978  1.1872 -0.0283 -0.4030
  127SOPE  C31213680   6.382   2.944   4.040  0.2224  0.4321  0.6935
  127SOPE  H12X13681   6.380   2.880   3.949  0.5430  0.1690  0.8670
  127SOPE  H12Y13682   6.284   2.935   4.090  1.2799 -0.6918  2.7002
  127SOPE  C31313683   6.494   2.888   4.131  0.4594  0.1028  0.2481
  127SOPE  H13X13684   6.597   2.903   4.093  0.9110 -1.8067  0.6062
  127SOPE  H13Y13685   6.474   2.781   4.152 -1.5214  0.0327 -1.6855
  127SOPE  C31413686   6.496   2.956   4.265  0.6538 -1.0796 -0.6953
  127SOPE  H14X13687   6.401   3.013   4.272  0.1429 -2.0253  0.2775
  127SOPE  H14Y13688   6.578   3.028   4.283 -0.8527  0.4559  0.2494
  127SOPE  C31513689   6.501   2.861   4.386  0.0852 -0.3651  0.6119
  127SOPE  H15X13690   6.406   2.804   4.377 -1.8990  2.9900 -2.4862
  127SOPE  H15Y13691   6.504   2.930   4.472 -2.3559  3.1666 -1.8432
  127SOPE  C31613692   6.625   2.767   4.388 -0.5220 -0.6001 -0.3728
  127SOPE  H16X13693   6.717   2.829   4.380  0.4368 -2.0703 -1.2692
  127SOPE  H16Y13694   6.622   2.696   4.302  2.4733 -2.0848  0.6122
  127SOPE  C31713695   6.627   2.688   4.520  0.6560 -0.4674  0.5381
  127SOPE  H17X13696   6.689   2.596   4.513 -0.4373 -1.1258 -0.8322
  127SOPE  H17Y13697   6.527   2.641   4.535 -0.1237 -0.2153 -3.0245
  127SOPE  C31813698   6.660   2.761   4.652  0.3929 -0.7598  0.0379
  127SOPE  H18X13699   6.639   2.695   4.739  2.3670 -0.8108  0.5304
  127SOPE  H18Y13700   6.589   2.846   4.658 -1.7756 -2.2453 -2.5194
  127SOPE  H18Z13701   6.766   2.792   4.664  0.2701  0.6450 -1.9532
  128SOPE     N13702   2.606   2.925   2.631 -0.2670 -0.1171 -0.7492
  128SOPE   HN113703   2.618   2.917   2.528  1.4007  2.2506 -0.8103
  128SOPE   HN213704   2.586   3.024   2.654  2.1729  0.6129 -1.4881
  128SOPE   HN313705   2.700   2.902   2.670  0.2218  0.8439 -1.3485
  128SOPE   C1213706   2.498   2.840   2.685  0.3284 -0.6395  0.2426
  128SOPE  H12A13707   2.490   2.849   2.796 -0.5104 -0.2895  0.1644
  128SOPE  H12B13708   2.531   2.735   2.668 -0.3522 -0.5816 -1.5764
  128SOPE   C1113709   2.362   2.873   2.613 -0.2277  0.3925 -0.8154
  128SOPE  H11A13710   2.360   2.984   2.624  3.2171  0.4009  1.1923
  128SOPE  H11B13711   2.279   2.827   2.671 -0.7819 -0.2589 -2.0880
  128SOPE     P13712   2.282   2.738   2.384  0.0587 -0.3031 -0.1941
  128SOPE   O1313713   2.388   2.655   2.321  0.5430  0.3519 -0.4754
  128SOPE   O1413714   2.191   2.819   2.299  0.4521 -0.0608 -0.0143
  128SOPE   O1213715   2.354   2.844   2.477  0.2869  0.7435 -0.0221
  128SOPE   O1113716   2.201   2.657   2.499 -0.2018  0.4345 -0.0699
  128SOPE    C113717   2.098   2.560   2.472  0.0852 -0.0820 -0.0927
  128SOPE    HA13718   2.143   2.465   2.435 -0.7771 -0.4199 -0.2928
  128SOPE    HB13719   2.021   2.612   2.412 -1.1741 -0.5480  1.0528
  128SOPE    C213720   2.027   2.520   2.608  0.2473  0.1567  0.5475
  128SOPE    HS13721   1.961   2.606   2.633 -0.1828 -0.0275  0.0502
  128SOPE   O2113722   2.130   2.496   2.702  0.0335  0.4104 -0.2269
  128SOPE   C2113723   2.119   2.566   2.820  0.0215  0.1867  0.1854
  128SOPE   O2213724   2.036   2.647   2.843 -0.2089 -0.2718  0.9026
  128SOPE   C2213725   2.220   2.515   2.917 -0.7646  1.2725 -0.0174
  128SOPE   H2R13726   2.321   2.556   2.895  0.2699 -0.8915  0.4117
  128SOPE   H2S13727   2.235   2.405   2.907  0.2065  1.5230 -1.6894
  128SOPE    C313728   1.935   2.396   2.592 -0.4000  0.6039  0.1781
  128SOPE    HX13729   1.997   2.308   2.563 -0.1175  0.6276  0.6823
  128SOPE    HY13730   1.865   2.420   2.510  0.2978 -0.7757 -0.8597
  128SOPE   O3113731   1.865   2.371   2.715  0.2466  0.4290  0.3205
  128SOPE   C3113732   1.936   2.289   2.800  0.9521 -0.0729 -0.0646
  128SOPE   O3213733   2.041   2.233   2.778  0.6315  0.2252  0.2856
  128SOPE   C3213734   1.853   2.272   2.933  0.0707  0.8225 -0.5388
  128SOPE   H2X13735   1.748   2.243   2.913 -1.2003  2.7430  2.6210
  128SOPE   H2Y13736   1.840   2.373   2.977 -1.4055  0.5411 -0.2956
  128SOPE   C2313737   2.198   2.564   3.062 -0.5058  0.0624  0.0487
  128SOPE   H3R13738   2.103   2.519   3.098  0.6213 -1.4246  1.2999
  128SOPE   H3S13739   2.180   2.673   3.072  2.0924  0.8648 -2.6242
  128SOPE   C2413740   2.314   2.518   3.156  0.0627 -0.1269  0.3497
  128SOPE   H4R13741   2.333   2.409   3.146  0.8039 -0.0956  1.2498
  128SOPE   H4S13742   2.412   2.556   3.121  1.7782 -2.7743  1.8593
  128SOPE   C2513743   2.290   2.554   3.301  0.1325 -0.0836 -0.5696
  128SOPE   H5R13744   2.270   2.662   3.315 -2.7304 -0.3496 -1.9383
  128SOPE   H5S13745   2.197   2.504   3.334  0.1629  1.1006  1.4608
  128SOPE   C2613746   2.400   2.516   3.400  0.0085 -0.8195 -0.8405
  128SOPE   H6R13747   2.482   2.589   3.416 -0.3134 -0.6298 -0.0241
  128SOPE   H6S13748   2.348   2.519   3.498  1.3066 -0.7227 -0.1343
  128SOPE   C2713749   2.460   2.376   3.386  0.2927 -0.7698 -0.3329
  128SOPE   H7R13750   2.383   2.310   3.342 -1.8404  1.8620 -0.7747
  128SOPE   H7S13751   2.543   2.387   3.313 -0.8085 -0.3919 -1.5657
  128SOPE   C2813752   2.520   2.310   3.519  0.1265  0.3761  0.5030
  128SOPE   H8R13753   2.601   2.370   3.566  1.4984 -2.1526  1.6262
  128SOPE   H8S13754   2.437   2.303   3.592 -1.0647  0.1745 -0.8296
  128SOPE   C2913755   2.569   2.166   3.499 -0.3809  0.7379 -0.4258
  128SOPE   H9113756   2.586   2.135   3.394  3.4350 -0.1019  0.3039
  128SOPE  C21013757   2.609   2.081   3.600 -0.2965  0.2650 -0.5586
  128SOPE  H10113758   2.647   1.980   3.578  0.4652  0.4686 -0.2210
  128SOPE  C21113759   2.609   2.099   3.753 -0.0450 -0.2230 -0.1204
  128SOPE  H11R13760   2.645   2.203   3.767  1.5145 -0.3607 -2.5247
  128SOPE  H11S13761   2.680   2.032   3.806  0.2367 -0.0903 -0.3305
  128SOPE  C21213762   2.475   2.089   3.821  0.3272 -0.2031  0.2166
  128SOPE  H12R13763   2.432   1.989   3.802  2.5312 -1.7324  2.6911
  128SOPE  H12S13764   2.402   2.164   3.781  0.2946 -0.1151  0.4382
  128SOPE  C21313765   2.480   2.109   3.973 -0.0710 -0.1091 -0.3572
  128SOPE  H13R13766   2.550   2.035   4.018 -0.4015  0.8275  1.8522
  128SOPE  H13S13767   2.387   2.092   4.031 -0.0458 -0.7627 -0.5048
  128SOPE  C21413768   2.530   2.252   4.011  0.1188  0.2007 -0.0243
  128SOPE  H14R13769   2.452   2.304   3.953 -0.3207 -1.7302 -1.2425
  128SOPE  H14S13770   2.629   2.270   3.965  0.1286 -0.7854 -0.4260
  128SOPE  C21513771   2.531   2.280   4.161 -0.1718  0.8522 -0.4245
  128SOPE  H15R13772   2.608   2.222   4.217 -0.0708  1.2239 -0.1722
  128SOPE  H15S13773   2.435   2.238   4.198 -0.5506  1.5687 -0.5709
  128SOPE  C21613774   2.540   2.428   4.203  0.4475 -0.3087  0.3787
  128SOPE  H16R13775   2.615   2.475   4.137  0.2463  2.7022  2.1303
  128SOPE  H16S13776   2.569   2.422   4.310  1.4948  0.9653  0.1858
  128SOPE  C21713777   2.403   2.505   4.197  0.2027  0.5431  0.3765
  128SOPE  H17R13778   2.332   2.456   4.266 -0.6823 -0.0768 -0.9281
  128SOPE  H17S13779   2.355   2.503   4.096  2.8413  1.1865 -0.9916
  128SOPE  C21813780   2.406   2.653   4.238 -0.0690  0.1310 -0.6886
  128SOPE  H18R13781   2.459   2.669   4.335  0.6969  0.5190 -1.1582
  128SOPE  H18S13782   2.306   2.700   4.249  0.0653  0.6198 -1.4851
  128SOPE  H18T13783   2.465   2.716   4.168 -0.7484 -0.5247 -1.8742
  128SOPE   C3313784   1.936   2.183   3.029  0.0493  0.1943  0.2809
  128SOPE   H3X13785   2.041   2.218   3.029  0.7084 -1.6082 -0.9529
  128SOPE   H3Y13786   1.930   2.078   2.991 -0.4797 -1.1905  3.8319
  128SOPE   C3413787   1.894   2.201   3.169 -0.0089 -0.1969 -0.1529
  128SOPE   H4X13788   1.787   2.180   3.189 -0.0096  0.5458  0.6740
  128SOPE   H4Y13789   1.916   2.309   3.189  1.8623 -0.2062 -1.8341
  128SOPE   C3513790   1.985   2.126   3.269 -0.1795 -0.1114 -0.0049
  128SOPE   H5X13791   2.092   2.135   3.241 -0.1226  2.5810  0.7223
  128SOPE   H5Y13792   1.949   2.021   3.265 -4.6658  1.2504 -2.1872
  128SOPE   C3613793   1.971   2.181   3.412 -0.5204  0.9191  0.2868
  128SOPE   H6X13794   1.864   2.182   3.438 -0.2093  2.4211  1.6509
  128SOPE   H6Y13795   1.996   2.289   3.419  2.6138  0.2979  0.3898
  128SOPE   C3713796   2.052   2.097   3.505  0.7907  0.4854 -0.1147
  128SOPE   H7X13797   2.094   2.001   3.468  0.2627  0.0738  0.3316
  128SOPE   H7Y13798   1.985   2.077   3.591  0.1251  1.5468 -0.3759
  128SOPE   C3813799   2.173   2.170   3.553 -0.6419 -0.4747  0.3841
  128SOPE   H8X13800   2.240   2.204   3.472 -0.2383  0.4930  1.1025
  128SOPE   H8Y13801   2.228   2.101   3.621 -0.4402 -1.3974 -0.6845
  128SOPE   C3913802   2.152   2.293   3.647  0.8230  0.2613  0.6931
  128SOPE   H9X13803   2.104   2.372   3.586  3.1639 -0.4100 -2.2948
  128SOPE   H9Y13804   2.256   2.319   3.678  0.6617 -0.1877  1.6220
  128SOPE  C31013805   2.088   2.274   3.788  0.3163 -0.3758  0.0189
  128SOPE  H10X13806   2.150   2.199   3.842  1.1357  1.3794  1.6235
  128SOPE  H10Y13807   1.990   2.226   3.769 -0.8261  1.1265  1.8559
  128SOPE  C31113808   2.079   2.406   3.866 -0.1558 -0.1202 -0.1393
  128SOPE  H11X13809   2.006   2.459   3.802  0.1676 -2.6646 -2.8523
  128SOPE  H11Y13810   2.180   2.451   3.876  0.8978 -2.3907  0.2862
  128SOPE  C31213811   2.022   2.398   4.004  0.4121 -0.3116  0.1199
  128SOPE  H12X13812   2.099   2.340   4.059  2.7438  1.1729 -1.3997
  128SOPE  H12Y13813   1.925   2.345   3.995 -1.1022  2.3800 -0.4832
  128SOPE  C31313814   2.004   2.535   4.074 -0.6531  0.0226  0.3786
  128SOPE  H13X13815   1.922   2.588   4.021  1.2838  2.1954 -0.5996
  128SOPE  H13Y13816   2.099   2.587   4.053  1.2147 -3.5745 -0.9523
  128SOPE  C31413817   1.984   2.527   4.227 -0.2607  0.2778  0.0455
  128SOPE  H14X13818   2.077   2.508   4.284 -1.6938 -0.7571  2.1946
  128SOPE  H14Y13819   1.924   2.433   4.227  0.2868 -0.1037 -1.7567
  128SOPE  C31513820   1.907   2.646   4.283 -0.5215 -0.5749 -0.7587
  128SOPE  H15X13821   1.811   2.655   4.228 -1.4559  2.4775  1.1067
  128SOPE  H15Y13822   1.968   2.736   4.260 -0.4900 -0.4270 -0.1050
  128SOPE  C31613823   1.874   2.639   4.426 -0.0219  0.5530 -0.4907
  128SOPE  H16X13824   1.952   2.610   4.501  0.3248 -0.7510 -1.3250
  128SOPE  H16Y13825   1.803   2.554   4.437  1.6007 -0.5898  2.5434
  128SOPE  C31713826   1.795   2.767   4.463 -0.8217  0.3194  0.2390
  128SOPE  H17X13827   1.709   2.768   4.393  1.2646 -0.5494 -2.5018
  128SOPE  H17Y13828   1.861   2.854   4.444  1.0291 -1.6525 -3.2159
  128SOPE  C31813829   1.756   2.756   4.613  0.2223  0.3270  0.2410
  128SOPE  H18X13830   1.847   2.741   4.674  0.4631  0.6904 -0.0225
  128SOPE  H18Y13831   1.700   2.661   4.628 -0.7580  1.2256  2.8211
  128SOPE  H18Z13832   1.699   2.844   4.648  0.8860  1.4527 -1.3634
  129OSM      N13833   1.660   4.016   6.973 -0.1281 -0.0861  0.2324
  129OSM    C1513834   1.673   3.884   7.055 -0.7141 -0.1502  0.2973
  129OSM   H15A13835   1.713   3.897   7.154  0.3776  0.4068 -0.2025
  129OSM   H15B13836   1.740   3.820   7.000  0.9274  0.0484  1.9822
  129OSM   H15C13837   1.581   3.828   7.063  0.2665 -1.9005 -0.1473
  129OSM    C1413838   1.664   3.979   6.827 -0.1953 -0.1477  0.3192
  129OSM   H14A13839   1.662   4.071   6.771  0.8945 -0.6742 -0.6257
  129OSM   H14B13840   1.586   3.912   6.794  0.5509 -0.6244 -0.5110
  129OSM   H14C13841   1.762   3.935   6.814  0.3383  0.8511  0.7998
  129OSM    C1313842   1.525   4.073   6.999 -0.2937  0.7584  0.1882
  129OSM   H13A13843   1.522   4.116   7.098  3.6046  4.7474 -1.1078
  129OSM   H13B13844   1.450   3.997   6.981  1.3627 -0.7401 -0.8208
  129OSM   H13C13845   1.517   4.160   6.936  1.8837  0.1145 -1.1081
  129OSM    C1213846   1.774   4.101   7.011 -0.2474 -0.2152  0.0434
  129OSM   H12A13847   1.867   4.052   6.987 -0.6283 -1.5001  1.0590
  129OSM   H12B13848   1.775   4.106   7.119  0.1221  0.5566  0.0169
  129OSM    C1113849   1.785   4.235   6.939 -0.0843 -0.4027  0.3437
  129OSM   H11A13850   1.865   4.287   6.996  0.9867  1.7118 -2.8072
  129OSM   H11B13851   1.701   4.305   6.955 -1.5581 -1.7420 -1.1377
  129OSM      P13852   1.948   4.195   6.741  0.0177  0.2809 -0.3888
  129OSM    O1313853   2.025   4.316   6.717 -0.6684  0.0874 -0.7210
  129OSM    O1413854   2.012   4.087   6.822  0.1758 -0.4274  0.3976
  129OSM    O1113855   1.908   4.131   6.599  0.0225  0.6559 -0.6432
  129OSM    O1213856   1.806   4.225   6.800  0.0869 -0.2846 -0.3528
  129OSM    C1S13857   1.789   4.172   6.525 -0.6747  0.7907 -0.6405
  129OSM    H1S13858   1.815   4.263   6.467  1.2626  0.6865 -0.0436
  129OSM    H1T13859   1.699   4.171   6.590  0.0153  2.3293  0.4083
  129OSM     NF13860   1.621   4.088   6.364 -0.1330  0.6109 -0.4216
  129OSM    HNF13861   1.540   4.045   6.404 -0.9953  0.5053 -2.1902
  129OSM    C2S13862   1.749   4.058   6.420 -0.7212 -0.6255 -0.3982
  129OSM    H2S13863   1.823   4.049   6.338  0.4927  0.9363  0.4687
  129OSM    C3S13864   1.754   3.916   6.485 -0.1875  0.3317  0.2150
  129OSM    H3S13865   1.672   3.900   6.558 -1.2469 -0.4503 -1.1287
  129OSM     O313866   1.872   3.881   6.564  0.9261 -0.0885 -0.0146
  129OSM    HO313867   1.911   3.969   6.571  0.2615  0.1253  1.4851
  129OSM    C4S13868   1.725   3.821   6.372  0.2214  0.2582  0.0006
  129OSM    H4S13869   1.617   3.804   6.358  0.1635  1.6084 -1.4273
  129OSM    C5S13870   1.812   3.782   6.275 -0.1383 -0.1661 -0.1245
  129OSM    H5S13871   1.921   3.794   6.285 -0.0164  0.6005 -1.9986
  129OSM    C6S13872   1.772   3.705   6.149 -0.3319  0.3527  0.0783
  129OSM    H6S13873   1.670   3.661   6.151  0.1391 -0.8043 -0.3108
  129OSM    H6T13874   1.838   3.616   6.145 -0.5189  0.2524 -3.1192
  129OSM    C7S13875   1.783   3.785   6.022 -0.1281 -0.0766  0.6614
  129OSM    H7S13876   1.892   3.788   6.003  0.0734 -0.1926  1.7653
  129OSM    H7T13877   1.731   3.883   6.030  1.5532  0.7899  1.3402
  129OSM    C8S13878   1.726   3.706   5.903 -0.7040 -0.0256  0.6017
  129OSM    H8S13879   1.616   3.693   5.908 -0.7166  0.3883  1.8527
  129OSM    H8T13880   1.782   3.610   5.912 -1.3796 -0.2392  3.8913
  129OSM    C9S13881   1.776   3.770   5.768 -0.0584  0.5717 -0.3279
  129OSM    H9S13882   1.884   3.791   5.781  0.2765 -1.0615 -0.2118
  129OSM    H9T13883   1.719   3.864   5.756 -0.8780 -0.0139 -1.1340
  129OSM   C10S13884   1.749   3.689   5.643  0.1000 -0.4268 -0.0502
  129OSM   H10S13885   1.640   3.669   5.634  0.0736 -0.2343 -0.1625
  129OSM   H10T13886   1.809   3.596   5.655  0.3213 -0.3948 -0.8643
  129OSM   C11S13887   1.786   3.764   5.523 -0.1014  0.2183 -0.8257
  129OSM   H11S13888   1.883   3.814   5.544  0.4041 -1.7010  2.0052
  129OSM   H11T13889   1.708   3.841   5.514 -1.8524 -1.1420  1.4518
  129OSM   C12S13890   1.799   3.687   5.391 -0.4823 -0.0900  0.0294
  129OSM   H12S13891   1.722   3.608   5.398 -1.9842  1.3035 -0.2273
  129OSM   H12T13892   1.895   3.630   5.385 -1.5350 -2.1875  1.5561
  129OSM   C13S13893   1.776   3.775   5.269 -0.3082  0.0911  0.2014
  129OSM   H13S13894   1.828   3.873   5.273  1.6666 -0.9379  1.1759
  129OSM   H13T13895   1.669   3.802   5.282 -0.0409  1.9645 -1.1622
  129OSM   C14S13896   1.793   3.710   5.129 -1.2096  0.2491  0.4946
  129OSM   H14S13897   1.895   3.667   5.121 -0.7384  1.2503  0.9134
  129OSM   H14T13898   1.796   3.792   5.053  0.0819  0.7813  1.0942
  129OSM   C15S13899   1.684   3.610   5.109  0.3261 -0.2144  0.1931
  129OSM   H15S13900   1.596   3.674   5.087 -2.0242 -2.2800  2.9748
  129OSM   H15T13901   1.674   3.554   5.204 -1.6037  2.1344  1.5054
  129OSM   C16S13902   1.717   3.510   5.003  0.5710  0.1133 -0.4420
  129OSM   H16S13903   1.627   3.446   5.001  2.7464 -3.1606 -0.2793
  129OSM   H16T13904   1.797   3.440   5.036 -1.8125 -2.6987 -0.2607
  129OSM   C17S13905   1.711   3.573   4.867 -0.3930  0.4791  0.3360
  129OSM   H17S13906   1.791   3.649   4.858  0.7064 -0.7125 -0.3336
  129OSM   H17T13907   1.621   3.635   4.848  0.4421  1.9786  1.0646
  129OSM   C18S13908   1.736   3.476   4.749  0.3244 -0.2502  0.0526
  129OSM   H18S13909   1.662   3.392   4.743 -1.8768  1.6751 -2.5537
  129OSM   H18T13910   1.843   3.448   4.748  0.1597 -0.9385  0.6215
  129OSM   H18U13911   1.722   3.521   4.648  0.2299  0.5194  0.4071
  129OSM    C1F13912   1.614   4.190   6.275  0.1048 -0.3247 -0.2501
  129OSM     OF13913   1.713   4.225   6.218 -0.0900 -0.5058 -0.2691
  129OSM    C2F13914   1.488   4.258   6.239  0.5730 -0.0659 -0.3712
  129OSM    H2F13915   1.462   4.345   6.303  0.6717  0.2709 -0.7858
  129OSM    H2G13916   1.405   4.184   6.237 -0.1037  0.6182  1.1593
  129OSM    C3F13917   1.489   4.307   6.093 -0.0853 -0.6598 -0.6203
  129OSM    H3F13918   1.524   4.228   6.024  0.5139 -0.8065 -0.1599
  129OSM    H3G13919   1.569   4.382   6.074 -1.2621  0.4063 -1.4976
  129OSM    C4F13920   1.365   4.376   6.035  0.1438 -0.0751  0.0452
  129OSM    H4F13921   1.335   4.453   6.109 -0.6980 -2.4230  2.2711
  129OSM    H4G13922   1.277   4.308   6.042 -1.3587  1.8694  0.8472
  129OSM    C5F13923   1.392   4.431   5.894  0.3271 -0.5499 -0.4106
  129OSM    H5F13924   1.492   4.479   5.893 -0.5786  1.5142  1.0610
  129OSM    H5G13925   1.316   4.505   5.860  0.2173 -1.3401 -2.0032
  129OSM    C6F13926   1.408   4.330   5.784  0.4149 -0.2386  0.0124
  129OSM    H6F13927   1.328   4.345   5.710 -0.5945  1.9605  1.4446
  129OSM    H6G13928   1.398   4.223   5.814  1.3736 -1.0175 -2.2581
  129OSM    C7F13929   1.536   4.343   5.693 -0.6979  0.6547 -0.7195
  129OSM    H7F13930   1.620   4.306   5.756 -1.6326  1.3307  0.9893
  129OSM    H7G13931   1.546   4.448   5.659  1.1371  1.2342  1.3028
  129OSM    C8F13932   1.517   4.239   5.587  0.1882 -0.2090  0.2844
  129OSM    H8F13933   1.428   4.267   5.527  1.1312 -0.0171 -1.0872
  129OSM    H8G13934   1.509   4.135   5.624  2.2502 -0.4291  0.2114
  129OSM    C9F13935   1.640   4.232   5.503 -0.4101  0.5172  0.6685
  129OSM    H9F13936   1.723   4.299   5.530  0.8861  0.0730 -1.8799
  129OSM   C10F13937   1.658   4.159   5.390 -0.5541 -0.4658 -0.5701
  129OSM   H10F13938   1.747   4.180   5.329  0.3875 -0.9729  0.6167
  129OSM   C11F13939   1.544   4.079   5.334  0.0471  0.3958  0.2293
  129OSM   H11F13940   1.450   4.127   5.367 -0.0030 -1.1587  2.5978
  129OSM   H11G13941   1.540   3.977   5.378 -0.8737  0.7227  0.9286
  129OSM   C12F13942   1.560   4.056   5.177  0.6971 -0.5278 -0.1367
  129OSM   H12F13943   1.663   4.026   5.149  0.9236 -0.9515  1.1043
  129OSM   H12G13944   1.545   4.153   5.124 -1.6023 -0.4004  0.6170
  129OSM   C13F13945   1.458   3.957   5.111 -0.0181  0.2518 -0.2388
  129OSM   H13F13946   1.352   3.986   5.127  0.0133 -0.4946  1.6428
  129OSM   H13G13947   1.481   3.866   5.171  1.0842 -0.3623 -1.5448
  129OSM   C14F13948   1.483   3.946   4.965 -0.4495  0.3869 -0.2771
  129OSM   H14F13949   1.584   3.901   4.956 -0.9772 -1.2964  1.4331
  129OSM   H14G13950   1.470   4.044   4.915 -1.2680  0.3854 -0.0736
  129OSM   C15F13951   1.386   3.851   4.903 -0.1809  1.0848  0.1244
  129OSM   H15F13952   1.375   3.751   4.949  2.3388  0.4261 -0.5020
  129OSM   H15G13953   1.436   3.833   4.805 -1.6847  2.2014 -0.9069
  129OSM   C16F13954   1.240   3.898   4.879 -0.6759 -0.3570  0.6148
  129OSM   H16F13955   1.188   3.916   4.975 -0.3913 -1.3465  0.9623
  129OSM   H16G13956   1.180   3.822   4.825 -3.1099  1.0828  1.1377
  129OSM   C17F13957   1.223   4.031   4.797 -0.0820  0.5279  0.3877
  129OSM   H17F13958   1.274   4.117   4.847 -0.8781  0.8870  0.6065
  129OSM   H17G13959   1.118   4.050   4.769 -0.6358 -0.6216  1.5898
  129OSM   C18F13960   1.295   4.027   4.661  0.5365  0.5840 -0.0950
  129OSM   H18F13961   1.263   4.106   4.590 -0.4028 -0.9069 -1.3947
  129OSM   H18G13962   1.262   3.932   4.614  0.2762  1.3075 -1.4014
  129OSM   H18H13963   1.404   4.004   4.654  0.4031  0.1142 -0.7139
  130OSM      N13964   2.010   5.265   7.014 -0.5521 -0.2437 -0.4402
  130OSM    C1513965   1.926   5.147   6.988 -0.0686  0.3943 -0.1760
  130OSM   H15A13966   1.975   5.076   6.923  1.3986  1.6365 -0.4589
  130OSM   H15B13967   1.829   5.178   6.951  1.6547  2.8381 -3.0316
  130OSM   H15C13968   1.919   5.102   7.086  0.8080 -0.7733 -0.6235
  130OSM    C1413969   1.955   5.331   7.143  0.0361 -0.1290 -0.9041
  130OSM   H14A13970   2.013   5.419   7.170 -0.2412 -0.8393  2.4171
  130OSM   H14B13971   1.957   5.262   7.226 -0.1756  0.7760 -0.1203
  130OSM   H14C13972   1.851   5.359   7.136 -1.0120 -3.4819 -0.3023
  130OSM    C1313973   2.148   5.207   7.045 -0.5035 -0.0093  0.1681
  130OSM   H13A13974   2.137   5.121   7.109  0.1655 -0.6483 -0.5537
  130OSM   H13B13975   2.204   5.278   7.104 -1.2086 -1.0027  2.1094
  130OSM   H13C13976   2.199   5.183   6.953  0.4894 -1.2198  1.0067
  130OSM    C1213977   2.005   5.367   6.902 -0.6588 -0.1169  0.3791
  130OSM   H12A13978   2.065   5.453   6.929  0.6628 -1.1119  0.6897
  130OSM   H12B13979   1.905   5.402   6.883 -0.0857  0.0586 -2.8468
  130OSM    C1113980   2.071   5.315   6.767  0.6454  0.0353 -0.0625
  130OSM   H11A13981   2.035   5.387   6.690 -2.2547 -1.4091 -0.2014
  130OSM   H11B13982   2.047   5.209   6.743 -0.3132  0.7358 -2.5142
  130OSM      P13983   2.298   5.453   6.777 -0.2449 -0.0344  0.0073
  130OSM    O1313984   2.230   5.563   6.852  0.4940 -0.3770  0.2544
  130OSM    O1413985   2.437   5.430   6.823 -0.3930 -0.0143 -0.6984
  130OSM    O1113986   2.298   5.499   6.625 -0.5333  0.2977  0.5934
  130OSM    O1213987   2.213   5.321   6.778  0.2376 -0.4261  0.3251
  130OSM    C1S13988   2.406   5.471   6.532  0.0111  0.1239  0.4489
  130OSM    H1S13989   2.416   5.362   6.511  1.4720  0.0558  1.3707
  130OSM    H1T13990   2.507   5.487   6.574  1.1868 -2.3349 -1.1762
  130OSM     NF13991   2.504   5.533   6.311 -0.4325  0.2286 -0.2308
  130OSM    HNF13992   2.581   5.597   6.314 -0.4499  0.2778 -0.6521
  130OSM    C2S13993   2.385   5.551   6.398  0.2588 -0.1623  0.0094
  130OSM    H2S13994   2.299   5.516   6.338 -0.6308 -0.4552  1.4199
  130OSM    C3S13995   2.353   5.703   6.415 -0.6048 -0.7539  0.1648
  130OSM    H3S13996   2.439   5.751   6.467 -0.9019 -0.6665  0.5823
  130OSM     O313997   2.235   5.730   6.498 -0.5042  0.4588  0.0086
  130OSM    HO313998   2.218   5.649   6.545  1.1127  0.8730  1.3956
  130OSM    C4S13999   2.328   5.779   6.291  0.3172  0.3381  1.0300
  130OSM    H4S14000   2.257   5.740   6.217 -0.4364  3.3317  0.0384
  130OSM    C5S14001   2.398   5.893   6.253  0.2815  0.0301 -0.7309
  130OSM    H5S14002   2.483   5.929   6.313 -1.1436  1.4393  0.5586
  130OSM    C6S14003   2.362   5.992   6.140  0.0327  0.5695 -0.2932
  130OSM    H6S14004   2.406   5.957   6.045 -0.9710 -0.7370 -0.3102
  130OSM    H6T14005   2.420   6.084   6.162  1.5319 -0.4436  0.0926
  130OSM    C7S14006   2.217   6.005   6.125  0.8651  0.8648  0.3810
  130OSM    H7S14007   2.163   6.057   6.207 -1.4000  0.4145 -0.7211
  130OSM    H7T14008   2.164   5.909   6.105 -0.7407  2.0897 -1.6533
  130OSM    C8S14009   2.177   6.102   6.010 -0.5991 -0.1619 -0.9082
  130OSM    H8S14010   2.198   6.206   6.040 -0.7692 -0.3919  0.0227
  130OSM    H8T14011   2.067   6.098   6.000 -0.7570  2.3652 -0.7609
  130OSM    C9S14012   2.242   6.069   5.878  0.1447  0.5948  1.2954
  130OSM    H9S14013   2.223   5.962   5.852 -0.7892  1.7003 -3.6893
  130OSM    H9T14014   2.352   6.086   5.886 -0.0062  2.1340  0.3866
  130OSM   C10S14015   2.201   6.167   5.762  0.2725 -0.0788 -0.2626
  130OSM   H10S14016   2.258   6.146   5.669  3.0679 -0.7450  1.4777
  130OSM   H10T14017   2.217   6.269   5.803  0.3579 -0.4474  0.6325
  130OSM   C11S14018   2.049   6.156   5.736  0.6243 -0.2284 -0.6890
  130OSM   H11S14019   1.976   6.185   5.814 -0.5442 -1.5622 -1.2435
  130OSM   H11T14020   2.042   6.047   5.716  2.7915 -0.6341  0.4404
  130OSM   C12S14021   2.013   6.223   5.598  0.0390 -0.5267  0.6173
  130OSM   H12S14022   2.082   6.196   5.515 -0.7774 -1.7352  0.3154
  130OSM   H12T14023   2.024   6.333   5.612  0.7826 -0.3849 -0.8940
  130OSM   C13S14024   1.865   6.202   5.551 -0.8993  0.1662 -0.2057
  130OSM   H13S14025   1.803   6.234   5.637 -1.1623  0.6910 -0.5838
  130OSM   H13T14026   1.859   6.092   5.535 -1.2323  0.6600 -4.5297
  130OSM   C14S14027   1.833   6.265   5.420  0.2784 -0.1645 -0.3192
  130OSM   H14S14028   1.733   6.223   5.398  0.0097  1.0082 -1.5155
  130OSM   H14T14029   1.907   6.223   5.349 -1.0355 -1.6004 -0.8773
  130OSM   C15S14030   1.818   6.421   5.422  0.2731  0.0400  0.0633
  130OSM   H15S14031   1.911   6.464   5.463  0.4783 -0.5227  0.1983
  130OSM   H15T14032   1.757   6.450   5.511  1.3542  2.1991  0.1579
  130OSM   C16S14033   1.773   6.477   5.288  0.5340  0.1264 -0.1252
  130OSM   H16S14034   1.675   6.430   5.268 -0.9009  1.7153  2.5680
  130OSM   H16T14035   1.847   6.463   5.207 -0.9667  2.8365 -2.1207
  130OSM   C17S14036   1.742   6.628   5.290  0.8210  0.6953 -0.0775
  130OSM   H17S14037   1.654   6.650   5.354  0.4879  0.4340 -0.4386
  130OSM   H17T14038   1.705   6.646   5.186  1.1107  0.9947 -0.1337
  130OSM   C18S14039   1.860   6.711   5.324 -0.0906  0.0425  0.0892
  130OSM   H18S14040   1.892   6.694   5.429  0.0779 -1.1893 -0.1470
  130OSM   H18T14041   1.824   6.815   5.308 -1.0128 -0.3787 -0.7534
  130OSM   H18U14042   1.948   6.698   5.258 -0.2086  2.7974 -0.7471
  130OSM    C1F14043   2.526   5.414   6.255  0.4552 -0.4012  0.2526
  130OSM     OF14044   2.441   5.326   6.260  0.4031  0.1691 -0.0971
  130OSM    C2F14045   2.659   5.383   6.192 -0.1606 -0.4202 -0.1893
  130OSM    H2F14046   2.672   5.273   6.190  0.2294 -0.4104  1.2378
  130OSM    H2G14047   2.739   5.421   6.258 -1.2556  0.1788  0.8240
  130OSM    C3F14048   2.675   5.438   6.047  0.3536 -0.3482  0.3983
  130OSM    H3F14049   2.654   5.547   6.047 -1.5023 -0.6567 -1.0417
  130OSM    H3G14050   2.602   5.389   5.979  1.7340 -0.6949 -0.9082
  130OSM    C4F14051   2.820   5.417   5.998  0.2458  0.7719  0.3799
  130OSM    H4F14052   2.848   5.310   5.995 -0.9331  0.4616 -0.3795
  130OSM    H4G14053   2.885   5.454   6.081  1.2816  3.2014 -1.3794
  130OSM    C5F14054   2.860   5.502   5.872  0.7496 -0.2201  0.3723
  130OSM    H5F14055   2.970   5.495   5.861  0.8067  0.9725  0.1430
  130OSM    H5G14056   2.830   5.608   5.886  0.2186 -0.4038  0.6683
  130OSM    C6F14057   2.795   5.438   5.749 -0.4879  0.2304 -0.0172
  130OSM    H6F14058   2.686   5.457   5.745 -0.5015  0.3224  0.6940
  130OSM    H6G14059   2.804   5.327   5.753 -0.1344  0.1749 -1.5570
  130OSM    C7F14060   2.854   5.502   5.618  0.1206  0.2358  0.5719
  130OSM    H7F14061   2.954   5.452   5.617 -0.4804 -1.0081 -0.2357
  130OSM    H7G14062   2.873   5.612   5.622  1.4964  0.0715 -0.4237
  130OSM    C8F14063   2.776   5.457   5.491  0.5798 -0.0488 -0.5950
  130OSM    H8F14064   2.665   5.443   5.485  0.6445 -0.5085 -0.7707
  130OSM    H8G14065   2.802   5.349   5.490 -0.6561 -0.3684 -0.9585
  130OSM    C9F14066   2.826   5.522   5.368  0.0358 -0.9497  0.0327
  130OSM    H9F14067   2.935   5.539   5.370 -0.1801  0.5352  1.8078
  130OSM   C10F14068   2.755   5.561   5.260  0.2382  0.7525  0.1238
  130OSM   H10F14069   2.818   5.607   5.184  2.7238 -0.0671  1.5774
  130OSM   C11F14070   2.609   5.555   5.232  0.7603  0.4900  0.7348
  130OSM   H11F14071   2.549   5.566   5.324 -1.8370 -0.4106 -0.7273
  130OSM   H11G14072   2.582   5.455   5.192  1.1821 -0.0073  1.6597
  130OSM   C12F14073   2.561   5.664   5.132 -0.4345 -0.1860  0.0387
  130OSM   H12F14074   2.583   5.767   5.167  1.8128 -0.6282  0.0754
  130OSM   H12G14075   2.450   5.654   5.134 -0.4894  0.4913  0.5669
  130OSM   C13F14076   2.595   5.627   4.986  0.5998  0.0105 -0.2077
  130OSM   H13F14077   2.584   5.519   4.963  1.8211  0.0636 -1.2047
  130OSM   H13G14078   2.704   5.644   4.971  0.9692 -0.3853  1.7468
  130OSM   C14F14079   2.516   5.708   4.874 -0.6951 -0.3447  0.0157
  130OSM   H14F14080   2.496   5.802   4.930 -0.2265 -0.5879  0.5992
  130OSM   H14G14081   2.420   5.658   4.851  0.0736 -0.9609 -2.0790
  130OSM   C15F14082   2.587   5.736   4.738  0.3934 -0.2017  0.1190
  130OSM   H15F14083   2.624   5.640   4.696  2.2463 -0.2491  1.7103
  130OSM   H15G14084   2.668   5.810   4.753 -1.2224  1.9675 -1.3512
  130OSM   C16F14085   2.495   5.796   4.631  0.2581 -0.0885  0.0606
  130OSM   H16F14086   2.448   5.891   4.666 -0.4144 -1.7533  4.2512
  130OSM   H16G14087   2.411   5.730   4.601  0.5177  0.1813 -1.3369
  130OSM   C17F14088   2.570   5.839   4.505 -0.4769 -0.2582  0.8049
  130OSM   H17F14089   2.621   5.749   4.465 -2.3911 -0.2967 -1.8494
  130OSM   H17G14090   2.634   5.927   4.523 -0.8120  0.1628  0.0039
  130OSM   C18F14091   2.468   5.883   4.396  0.0941 -0.4072 -0.5922
  130OSM   H18F14092   2.520   5.922   4.306  0.9843  0.8033  0.3955
  130OSM   H18G14093   2.407   5.969   4.432  0.3752  1.0655 -3.4103
  130OSM   H18H14094   2.400   5.797   4.380  0.9239 -1.6488  1.9146
  131OSM      N14095   2.245   2.182   6.684  0.5428  0.0352 -0.1123
  131OSM    C1514096   2.256   2.281   6.569 -0.4452 -0.0502  0.4291
  131OSM   H15A14097   2.359   2.291   6.538 -0.4899  0.8141  0.5117
  131OSM   H15B14098   2.229   2.380   6.603  1.4863  0.4840  0.5652
  131OSM   H15C14099   2.185   2.260   6.491  0.9620  1.6264 -1.4206
  131OSM    C1414100   2.333   2.221   6.793  0.0949  0.6000  0.2119
  131OSM   H14A14101   2.314   2.158   6.879  2.7060 -1.6475 -0.7127
  131OSM   H14B14102   2.306   2.321   6.824 -4.8547  0.2139 -1.9303
  131OSM   H14C14103   2.439   2.217   6.774  0.0811  0.1002  0.2337
  131OSM    C1314104   2.099   2.199   6.720  0.3647  0.4002 -0.1537
  131OSM   H13A14105   2.075   2.300   6.751  0.9804  0.7091 -0.6817
  131OSM   H13B14106   2.075   2.132   6.802  1.9345  0.2160  0.1917
  131OSM   H13C14107   2.028   2.180   6.641  1.0740  1.3514 -1.0262
  131OSM    C1214108   2.268   2.041   6.640 -0.0489 -0.2194  0.4800
  131OSM   H12A14109   2.371   2.041   6.609 -0.4972  2.0685 -1.1774
  131OSM   H12B14110   2.200   2.018   6.560 -0.3014 -0.0679  0.6503
  131OSM    C1114111   2.248   1.933   6.749 -0.4050  0.1959  0.1679
  131OSM   H11A14112   2.326   1.949   6.827 -1.9421  2.5969  1.3283
  131OSM   H11B14113   2.272   1.840   6.694 -1.6051 -1.0437  1.6446
  131OSM      P14114   2.051   1.822   6.871  0.3198  0.1249  0.4068
  131OSM    O1314115   2.143   1.762   6.971  0.0258 -0.0896 -0.1057
  131OSM    O1414116   1.920   1.860   6.916  0.0704  0.2280  0.5219
  131OSM    O1114117   2.027   1.730   6.744  0.2041 -0.3515  0.2569
  131OSM    O1214118   2.117   1.945   6.806  0.0256 -0.5035 -0.3346
  131OSM    C1S14119   1.968   1.788   6.621 -0.3508  0.3459  0.7857
  131OSM    H1S14120   1.952   1.898   6.630  0.7708  0.7407 -1.4412
  131OSM    H1T14121   1.864   1.750   6.612 -1.2386  2.6748  0.5851
  131OSM     NF14122   1.965   1.798   6.383  0.0882 -0.0531 -0.5876
  131OSM    HNF14123   1.915   1.730   6.330  2.8683 -1.6770 -1.3101
  131OSM    C2S14124   2.040   1.734   6.493  0.1997 -0.8140  0.0402
  131OSM    H2S14125   2.136   1.789   6.489 -1.1415  1.6689 -0.0356
  131OSM    C3S14126   2.038   1.582   6.488 -0.4918 -0.2628  0.3314
  131OSM    H3S14127   1.933   1.545   6.482 -1.5827  2.4273  1.1225
  131OSM     O314128   2.090   1.511   6.602  0.3858  0.2225  0.1445
  131OSM    HO314129   2.096   1.570   6.678  1.2618 -0.9929  1.0752
  131OSM    C4S14130   2.109   1.539   6.358 -0.6565  0.0453  1.1260
  131OSM    H4S14131   2.052   1.533   6.264  1.4513  1.1865 -0.2996
  131OSM    C5S14132   2.232   1.498   6.347 -0.4345  0.6482 -0.2525
  131OSM    H5S14133   2.297   1.487   6.435 -0.0333  1.1132 -0.4832
  131OSM    C6S14134   2.312   1.443   6.227 -0.0268 -0.3764 -0.9680
  131OSM    H6S14135   2.341   1.337   6.247  0.4354  0.1916  1.8683
  131OSM    H6T14136   2.407   1.501   6.224 -1.2877  1.7704 -1.6691
  131OSM    C7S14137   2.238   1.455   6.095  0.3598 -0.6770 -0.0515
  131OSM    H7S14138   2.202   1.558   6.074  0.7816 -0.3740  0.6622
  131OSM    H7T14139   2.140   1.403   6.101 -0.9167  1.4484 -1.2529
  131OSM    C8S14140   2.306   1.389   5.975  0.0134 -0.8962  0.2257
  131OSM    H8S14141   2.290   1.279   5.985 -0.7530 -0.6478  2.1227
  131OSM    H8T14142   2.413   1.417   5.983 -0.2448  1.0431 -1.9982
  131OSM    C9S14143   2.255   1.434   5.838  0.2109  0.4013  0.9510
  131OSM    H9S14144   2.255   1.545   5.835  1.8896  0.4105 -1.7585
  131OSM    H9T14145   2.149   1.400   5.830  0.5048 -0.3307 -0.0865
  131OSM   C10S14146   2.338   1.394   5.720  0.4521  0.2424  0.5473
  131OSM   H10S14147   2.345   1.283   5.710  0.8195  0.2433  0.7689
  131OSM   H10T14148   2.440   1.438   5.716  1.4934 -2.0973 -0.6129
  131OSM   C11S14149   2.266   1.430   5.591  0.4821  0.5913  1.2025
  131OSM   H11S14150   2.246   1.537   5.566  2.4244  0.2559 -2.4492
  131OSM   H11T14151   2.167   1.380   5.593  0.0942  1.2878 -0.0277
  131OSM   C12S14152   2.342   1.373   5.474 -0.1245  0.3345 -0.1756
  131OSM   H12S14153   2.364   1.266   5.492  0.1719  0.1649 -1.4306
  131OSM   H12T14154   2.436   1.428   5.452  0.6622 -1.3492 -1.2134
  131OSM   C13S14155   2.262   1.380   5.336  0.6103  0.3811  0.5305
  131OSM   H13S14156   2.256   1.491   5.329 -0.2967  0.3245  0.3493
  131OSM   H13T14157   2.165   1.335   5.364  0.9195  0.2008  1.3398
  131OSM   C14S14158   2.325   1.322   5.208 -0.2117 -0.6133 -0.2253
  131OSM   H14S14159   2.312   1.211   5.208 -0.7663 -0.5765  1.3069
  131OSM   H14T14160   2.435   1.334   5.221 -0.0753 -2.0763  0.1988
  131OSM   C15S14161   2.259   1.374   5.083 -0.4502  0.0308  0.1883
  131OSM   H15S14162   2.287   1.481   5.074 -0.1002 -0.1326 -0.8810
  131OSM   H15T14163   2.149   1.361   5.094 -0.3064 -0.0661  1.5953
  131OSM   C16S14164   2.304   1.294   4.959 -0.4607 -0.1643  0.0901
  131OSM   H16S14165   2.283   1.186   4.972  0.7168 -0.4736 -0.3930
  131OSM   H16T14166   2.415   1.296   4.970 -0.4221 -0.1643 -0.2681
  131OSM   C17S14167   2.265   1.354   4.825  0.2470  0.1883  0.7509
  131OSM   H17S14168   2.277   1.464   4.827  2.8004  0.0733 -2.0439
  131OSM   H17T14169   2.154   1.344   4.827  0.2573 -0.1114  0.1524
  131OSM   C18S14170   2.317   1.286   4.698  0.1251  0.1936 -0.8320
  131OSM   H18S14171   2.284   1.180   4.691 -1.1781  0.5748 -0.6428
  131OSM   H18T14172   2.428   1.286   4.701  0.1261  0.1647  1.4800
  131OSM   H18U14173   2.282   1.344   4.611  1.0352  0.7878 -0.8188
  131OSM    C1F14174   1.966   1.928   6.365 -0.4877 -0.5564  0.4014
  131OSM     OF14175   2.060   1.994   6.408  0.0006 -0.3256  0.0944
  131OSM    C2F14176   1.867   1.994   6.277 -0.4375  0.2269 -0.2829
  131OSM    H2F14177   1.876   1.945   6.178 -1.1933  0.3120 -0.3998
  131OSM    H2G14178   1.892   2.103   6.271 -0.9350  0.2520 -2.7363
  131OSM    C3F14179   1.720   1.972   6.324  0.3711 -0.8121  0.9078
  131OSM    H3F14180   1.697   2.047   6.403 -0.1851  1.5544 -1.3778
  131OSM    H3G14181   1.718   1.869   6.366  1.2627 -1.2754 -0.1399
  131OSM    C4F14182   1.627   1.978   6.202 -0.4744  0.4594  0.1475
  131OSM    H4F14183   1.521   1.976   6.238 -0.4238  1.0790  0.3399
  131OSM    H4G14184   1.647   1.891   6.136  0.4013  1.1497 -0.5130
  131OSM    C5F14185   1.643   2.107   6.124 -0.2163 -0.3954 -0.5792
  131OSM    H5F14186   1.740   2.102   6.069  0.5558  0.8605  0.5836
  131OSM    H5G14187   1.658   2.184   6.203  1.2964 -1.6862  0.4620
  131OSM    C6F14188   1.527   2.139   6.027  0.1106 -0.2186  0.2312
  131OSM    H6F14189   1.532   2.243   5.990 -1.5903  0.2851  1.3197
  131OSM    H6G14190   1.437   2.138   6.092  0.4541  0.5887  0.7352
  131OSM    C7F14191   1.506   2.037   5.913  0.3118  0.0806 -0.6128
  131OSM    H7F14192   1.471   1.943   5.959 -0.1734 -0.2090 -1.5493
  131OSM    H7G14193   1.601   2.022   5.857  1.6766  1.3499  1.2325
  131OSM    C8F14194   1.386   2.065   5.815  0.3368 -0.5376  0.0892
  131OSM    H8F14195   1.289   2.068   5.869  0.2686  0.3068 -0.0629
  131OSM    H8G14196   1.381   1.975   5.750  2.5248  0.9668 -2.3718
  131OSM    C9F14197   1.396   2.192   5.740 -0.4149 -0.6664  0.4735
  131OSM    H9F14198   1.339   2.278   5.779 -1.4077  0.0477 -2.3041
  131OSM   C10F14199   1.481   2.216   5.636 -0.3260  0.3501 -0.3504
  131OSM   H10F14200   1.479   2.317   5.591  0.2214  0.0358 -1.1021
  131OSM   C11F14201   1.585   2.120   5.573  0.5524 -0.6972  0.6182
  131OSM   H11F14202   1.564   2.026   5.628 -1.4861 -0.9928 -0.5523
  131OSM   H11G14203   1.689   2.149   5.600  0.7099 -1.5917  0.9871
  131OSM   C12F14204   1.581   2.091   5.428  0.3542 -0.1866 -0.0709
  131OSM   H12F14205   1.664   2.019   5.411  0.4199  0.3004 -2.0258
  131OSM   H12G14206   1.595   2.181   5.364 -0.8082 -0.1139 -0.2553
  131OSM   C13F14207   1.443   2.050   5.364  0.2352 -0.3053 -0.6970
  131OSM   H13F14208   1.364   2.114   5.409 -0.5706 -0.8703 -1.2704
  131OSM   H13G14209   1.413   1.950   5.402 -0.5437 -0.8527 -2.6120
  131OSM   C14F14210   1.448   2.055   5.213  0.0328 -0.2248  0.0817
  131OSM   H14F14211   1.488   2.154   5.181  0.6864 -0.3324  0.5403
  131OSM   H14G14212   1.344   2.049   5.176 -0.2606 -1.8435  1.0949
  131OSM   C15F14213   1.527   1.946   5.135  0.3075 -0.7209 -0.3642
  131OSM   H15F14214   1.469   1.855   5.161 -3.7413  1.9635  1.0364
  131OSM   H15G14215   1.628   1.930   5.179  1.5358  1.1858 -2.3036
  131OSM   C16F14216   1.530   1.964   4.990 -0.3670  0.5614 -0.5300
  131OSM   H16F14217   1.434   2.003   4.949  0.6149  1.4477 -2.1334
  131OSM   H16G14218   1.544   1.865   4.943  0.6851  0.9246 -1.0241
  131OSM   C17F14219   1.641   2.074   4.947 -0.2263  0.2582 -0.0469
  131OSM   H17F14220   1.606   2.173   4.983  0.0941  0.6827 -0.8742
  131OSM   H17G14221   1.638   2.071   4.836  1.2036  0.4097 -0.1083
  131OSM   C18F14222   1.778   2.029   4.985  0.5739 -0.2426 -0.2789
  131OSM   H18F14223   1.861   2.096   4.954  0.5856 -1.4607 -3.1570
  131OSM   H18G14224   1.806   1.926   4.953 -0.0694 -0.6928  0.5570
  131OSM   H18H14225   1.793   2.033   5.095  1.9652  0.2793 -0.4684
  132OSM      N14226   2.597   5.700   7.185  0.1274  0.1945 -0.3627
  132OSM    C1514227   2.735   5.731   7.212  0.1501 -0.2315 -0.4802
  132OSM   H15A14228   2.757   5.810   7.284  2.3847  0.2578 -1.6231
  132OSM   H15B14229   2.791   5.769   7.128 -0.1119  1.8544  0.2219
  132OSM   H15C14230   2.784   5.641   7.246 -0.3853 -0.8704 -1.3763
  132OSM    C1414231   2.598   5.574   7.101  0.0244 -0.3259 -0.3024
  132OSM   H14A14232   2.503   5.544   7.058  0.3041 -0.7028 -0.6664
  132OSM   H14B14233   2.630   5.492   7.162  0.1453  0.3889  0.6113
  132OSM   H14C14234   2.662   5.586   7.015 -1.1816 -1.5455 -1.4088
  132OSM    C1314235   2.520   5.678   7.309  0.0778 -0.2864  0.0995
  132OSM   H13A14236   2.517   5.766   7.372 -3.4148  1.0379 -1.6506
  132OSM   H13B14237   2.566   5.596   7.363  1.5388 -0.3198 -1.1317
  132OSM   H13C14238   2.416   5.652   7.296 -0.0592 -0.9533  2.1976
  132OSM    C1214239   2.531   5.814   7.113  0.2873  0.0866  0.0990
  132OSM   H12A14240   2.531   5.901   7.177  1.2795  1.3130 -1.4802
  132OSM   H12B14241   2.425   5.794   7.117 -0.2866  2.7581  2.6251
  132OSM    C1114242   2.579   5.860   6.975  0.4414  0.1446  0.3426
  132OSM   H11A14243   2.543   5.959   6.942 -1.3200 -0.1834  1.1493
  132OSM   H11B14244   2.535   5.782   6.908  0.2077  1.2272 -0.7932
  132OSM      P14245   2.797   5.789   6.836 -0.1243 -0.3059 -0.4313
  132OSM    O1314246   2.933   5.850   6.831 -0.4940  0.4477 -0.9362
  132OSM    O1414247   2.793   5.645   6.852 -0.1860 -0.1289  0.1010
  132OSM    O1114248   2.716   5.844   6.712  0.8342 -0.1537 -0.0825
  132OSM    O1214249   2.723   5.863   6.964  0.4117  0.7203  0.3038
  132OSM    C1S14250   2.780   5.854   6.580  0.8366  0.1097  0.2046
  132OSM    H1S14251   2.783   5.754   6.531  0.7761  0.0025  0.4170
  132OSM    H1T14252   2.885   5.890   6.582  0.4883  1.2640 -0.7777
  132OSM     NF14253   2.751   5.950   6.365  0.0656  0.3874  0.3043
  132OSM    HNF14254   2.796   6.034   6.335  1.5133  0.0283  1.2979
  132OSM    C2S14255   2.691   5.944   6.494 -0.8945 -0.2479  0.0414
  132OSM    H2S14256   2.585   5.911   6.482  0.1338 -3.7407 -0.7125
  132OSM    C3S14257   2.672   6.086   6.556  0.2897  0.0367 -0.1591
  132OSM    H3S14258   2.772   6.135   6.554  0.6026 -0.5886 -0.2101
  132OSM     O314259   2.633   6.084   6.695  0.2741 -0.1496 -0.5575
  132OSM    HO314260   2.646   5.993   6.724  1.1427  0.1874  0.1883
  132OSM    C4S14261   2.578   6.184   6.488 -0.5406 -0.4889 -0.2403
  132OSM    H4S14262   2.474   6.150   6.483 -0.7382  0.2012 -1.0826
  132OSM    C5S14263   2.619   6.303   6.432 -0.4420 -0.2636 -0.1396
  132OSM    H5S14264   2.720   6.340   6.453 -1.4035  1.7467  1.2685
  132OSM    C6S14265   2.523   6.402   6.362 -0.4171 -0.3856 -0.1712
  132OSM    H6S14266   2.559   6.507   6.372 -0.2394 -0.4984  0.4637
  132OSM    H6T14267   2.427   6.382   6.414  1.0634  0.1977  3.0409
  132OSM    C7S14268   2.487   6.394   6.211  0.3469 -0.5443  0.5947
  132OSM    H7S14269   2.422   6.474   6.170  1.1316  0.4724  1.2844
  132OSM    H7T14270   2.449   6.290   6.202  2.3861 -1.3950  1.2045
  132OSM    C8S14271   2.618   6.395   6.122  0.1947 -1.0144 -0.0884
  132OSM    H8S14272   2.707   6.347   6.167  1.5270  2.5138  1.4475
  132OSM    H8T14273   2.644   6.501   6.101  1.0341 -1.2999 -0.5446
  132OSM    C9S14274   2.589   6.325   5.986  0.0465 -0.1972 -0.3724
  132OSM    H9S14275   2.482   6.340   5.961  0.0437  2.1106  0.7857
  132OSM    H9T14276   2.608   6.215   5.991 -1.8994 -0.5305  0.9722
  132OSM   C10S14277   2.680   6.388   5.879 -0.3632  0.1146  0.7560
  132OSM   H10S14278   2.787   6.380   5.908  0.7773 -2.6712 -3.2785
  132OSM   H10T14279   2.658   6.497   5.885 -1.7968 -0.0371 -0.8666
  132OSM   C11S14280   2.664   6.327   5.744 -0.4136  0.4778  0.2723
  132OSM   H11S14281   2.558   6.337   5.712 -0.3161  1.1392  0.1453
  132OSM   H11T14282   2.691   6.219   5.753  1.0628  0.7230 -0.8295
  132OSM   C12S14283   2.763   6.397   5.648  0.6313 -0.2193 -0.5115
  132OSM   H12S14284   2.862   6.399   5.699 -0.4893 -0.6981  1.8154
  132OSM   H12T14285   2.733   6.502   5.629 -0.1223 -0.1031  1.1580
  132OSM   C13S14286   2.766   6.322   5.508 -0.1451 -0.1793 -0.4208
  132OSM   H13S14287   2.790   6.216   5.535  0.8300  0.3066  0.7412
  132OSM   H13T14288   2.843   6.368   5.442  0.5430  0.4860  0.8075
  132OSM   C14S14289   2.629   6.296   5.446  0.0901 -0.8297 -0.4382
  132OSM   H14S14290   2.568   6.389   5.439 -0.2355 -0.8282  1.6661
  132OSM   H14T14291   2.567   6.224   5.503 -0.3900  0.4498  0.7083
  132OSM   C15S14292   2.643   6.248   5.307 -0.6223  0.4639 -0.1496
  132OSM   H15S14293   2.703   6.326   5.258 -2.3465  1.1005 -1.3423
  132OSM   H15T14294   2.541   6.251   5.264 -1.1371  0.8347  1.0438
  132OSM   C16S14295   2.727   6.120   5.279 -0.5464  0.3558  0.7836
  132OSM   H16S14296   2.704   6.038   5.351  0.4409  0.3723  1.1279
  132OSM   H16T14297   2.836   6.132   5.292 -0.3832 -0.6288  0.4482
  132OSM   C17S14298   2.707   6.071   5.134 -0.6591  0.1189 -0.2718
  132OSM   H17S14299   2.742   6.149   5.063  0.3340 -0.9739 -1.0101
  132OSM   H17T14300   2.597   6.063   5.117 -0.3859 -2.1863 -1.3419
  132OSM   C18S14301   2.804   5.959   5.099  0.0188  0.2749  0.3247
  132OSM   H18S14302   2.907   5.980   5.136  1.1093 -0.5426 -2.0669
  132OSM   H18T14303   2.812   5.933   4.992 -1.3790  3.3725 -0.6354
  132OSM   H18U14304   2.769   5.873   5.160  1.0807 -0.4807 -0.1021
  132OSM    C1F14305   2.753   5.841   6.282 -0.1215  0.7718  0.3688
  132OSM     OF14306   2.682   5.745   6.293  0.0985  0.3290 -0.1746
  132OSM    C2F14307   2.853   5.849   6.171 -0.2426 -0.3594  0.5162
  132OSM    H2F14308   2.882   5.747   6.136 -0.1604  0.6059 -2.5065
  132OSM    H2G14309   2.949   5.893   6.207 -0.8861  1.6859 -0.1731
  132OSM    C3F14310   2.798   5.925   6.047  0.1420 -0.4361 -0.4120
  132OSM    H3F14311   2.774   6.032   6.062 -1.1204 -0.5067 -1.6575
  132OSM    H3G14312   2.713   5.865   6.009 -1.0864 -0.0882  1.6678
  132OSM    C4F14313   2.908   5.939   5.938  0.4843 -0.1161 -0.4289
  132OSM    H4F14314   2.961   5.841   5.938  1.7943  0.5788  0.1565
  132OSM    H4G14315   2.989   6.009   5.965  1.0066 -1.5002  1.9087
  132OSM    C5F14316   2.856   5.953   5.791 -0.0906  0.3525  0.4758
  132OSM    H5F14317   2.826   6.058   5.770 -1.5022 -0.4653 -2.0140
  132OSM    H5G14318   2.759   5.899   5.788  0.4052 -0.5384 -1.5862
  132OSM    C6F14319   2.951   5.889   5.694 -0.2520  0.0583 -0.3710
  132OSM    H6F14320   2.957   5.783   5.727  0.3924  0.9384  2.6224
  132OSM    H6G14321   3.052   5.928   5.717 -1.3335  0.5967  4.7396
  132OSM    C7F14322   2.900   5.898   5.544 -0.2922 -0.5162 -0.0794
  132OSM    H7F14323   2.859   6.000   5.533 -1.8981 -1.1131  0.1064
  132OSM    H7G14324   2.818   5.824   5.531 -0.0757 -0.9147  0.7696
  132OSM    C8F14325   3.008   5.853   5.441  0.3504  0.1960 -0.6030
  132OSM    H8F14326   2.959   5.830   5.344 -0.0242 -2.4661  0.1385
  132OSM    H8G14327   3.043   5.755   5.479  1.0408  1.1437  1.3133
  132OSM    C9F14328   3.114   5.961   5.435 -1.0566 -0.5190  0.2286
  132OSM    H9F14329   3.078   6.063   5.455 -1.4419  0.0130 -2.7478
  132OSM   C10F14330   3.238   5.939   5.395  0.3047  0.7860  0.0535
  132OSM   H10F14331   3.309   6.023   5.397  1.3103 -0.0596  0.3473
  132OSM   C11F14332   3.288   5.807   5.356  0.0380  0.7352 -0.2324
  132OSM   H11F14333   3.308   5.813   5.247 -0.8476  2.1620 -0.3277
  132OSM   H11G14334   3.213   5.725   5.361 -2.6432  3.1254  1.3934
  132OSM   C12F14335   3.411   5.756   5.432 -0.4884  0.3978 -0.2697
  132OSM   H12F14336   3.394   5.767   5.541  1.7034 -0.8876  0.2696
  132OSM   H12G14337   3.500   5.819   5.415  1.7598 -2.4768  0.0161
  132OSM   C13F14338   3.459   5.618   5.385 -0.2322  0.4709  0.0349
  132OSM   H13F14339   3.562   5.607   5.425 -1.1042 -0.0197  2.3167
  132OSM   H13G14340   3.476   5.603   5.277  1.3873 -3.4209  0.6667
  132OSM   C14F14341   3.368   5.503   5.434  0.1483 -0.5155 -0.5265
  132OSM   H14F14342   3.409   5.402   5.413 -0.1094 -0.8487  0.4940
  132OSM   H14G14343   3.269   5.512   5.386 -0.5868  3.3749  1.2811
  132OSM   C15F14344   3.325   5.511   5.586 -0.2232  0.0724  0.4890
  132OSM   H15F14345   3.245   5.586   5.606  0.9695  2.0775 -1.6940
  132OSM   H15G14346   3.414   5.530   5.650 -0.3055  1.5676  0.2141
  132OSM   C16F14347   3.266   5.374   5.632  0.5995 -0.9871  0.2039
  132OSM   H16F14348   3.348   5.300   5.626  2.0752  0.6032 -0.0894
  132OSM   H16G14349   3.191   5.339   5.558  2.8795 -2.3198 -1.6020
  132OSM   C17F14350   3.207   5.381   5.769 -0.6045  0.2511  0.0253
  132OSM   H17F14351   3.153   5.477   5.779  0.6685  1.0042 -0.1674
  132OSM   H17G14352   3.297   5.393   5.833  1.7659 -0.2481 -2.9778
  132OSM   C18F14353   3.122   5.257   5.813  0.2466 -0.3912  0.1635
  132OSM   H18F14354   3.113   5.243   5.923  0.4686 -0.0057  0.2329
  132OSM   H18G14355   3.168   5.164   5.774 -0.1835 -1.0119  1.1168
  132OSM   H18H14356   3.023   5.271   5.765 -0.3024 -1.3210  1.0099
  133OSM      N14357   1.281   6.557   6.863  0.2948  0.1592  0.4189
  133OSM    C1514358   1.214   6.693   6.876  0.3502 -0.8833 -1.0015
  133OSM   H15A14359   1.198   6.704   6.982  0.5830  1.0081 -1.1346
  133OSM   H15B14360   1.122   6.701   6.821 -1.3062 -0.6476  1.6694
  133OSM   H15C14361   1.292   6.762   6.845  1.3996 -1.1323  0.9340
  133OSM    C1414362   1.398   6.547   6.955 -0.6449 -0.4351 -0.0650
  133OSM   H14A14363   1.467   6.625   6.924  0.9130 -1.5467  0.4704
  133OSM   H14B14364   1.448   6.452   6.941  1.0008 -0.1939  3.2665
  133OSM   H14C14365   1.367   6.563   7.057 -3.0308  0.0184 -0.7896
  133OSM    C1314366   1.181   6.451   6.905 -0.3162  0.0844  0.4183
  133OSM   H13A14367   1.083   6.455   6.860 -0.9560 -0.0704  1.7532
  133OSM   H13B14368   1.157   6.456   7.010 -1.8745 -1.7529  0.1940
  133OSM   H13C14369   1.215   6.350   6.886 -1.2100 -0.0495 -0.6275
  133OSM    C1214370   1.327   6.535   6.719  1.0539 -0.0473 -0.0691
  133OSM   H12A14371   1.414   6.595   6.696  1.1691 -0.1971 -0.0276
  133OSM   H12B14372   1.248   6.562   6.651 -1.9272 -0.4771  2.9693
  133OSM    C1114373   1.375   6.393   6.685 -0.0740 -0.1808  0.4041
  133OSM   H11A14374   1.408   6.394   6.579 -2.3871 -0.9255 -0.3976
  133OSM   H11B14375   1.286   6.326   6.692 -0.4181  0.0055 -1.5179
  133OSM      P14376   1.544   6.214   6.752 -0.0827  0.2694 -0.1608
  133OSM    O1314377   1.686   6.217   6.791  0.3098  0.0509  0.3902
  133OSM    O1414378   1.463   6.112   6.826 -0.3046 -0.2109 -0.2752
  133OSM    O1114379   1.535   6.185   6.599 -0.1972  1.0209 -0.0345
  133OSM    O1214380   1.481   6.354   6.769 -0.5624  0.2859  0.7068
  133OSM    C1S14381   1.456   6.077   6.542  0.2231  0.5027  0.0310
  133OSM    H1S14382   1.348   6.105   6.537  0.2924  0.5198 -2.1921
  133OSM    H1T14383   1.467   5.982   6.600  0.6957 -0.3256 -1.3625
  133OSM     NF14384   1.390   5.936   6.363 -0.1786 -0.3266  0.3921
  133OSM    HNF14385   1.399   5.840   6.388 -1.6258 -0.7848 -0.6824
  133OSM    C2S14386   1.500   6.023   6.402 -0.0871  0.2453  0.1262
  133OSM    H2S14387   1.499   6.104   6.326 -3.9423 -0.8455 -1.2508
  133OSM    C3S14388   1.642   5.959   6.409  0.1245  0.5255 -0.5244
  133OSM    H3S14389   1.630   5.875   6.480  1.9790  0.5795 -0.0878
  133OSM     O314390   1.733   6.048   6.470 -0.1247  0.4413 -0.3778
  133OSM    HO314391   1.680   6.110   6.520 -0.2899  0.7646 -0.9501
  133OSM    C4S14392   1.682   5.908   6.267 -0.5092  0.4762 -0.5102
  133OSM    H4S14393   1.640   5.809   6.245 -2.4056  1.1168 -0.0378
  133OSM    C5S14394   1.752   5.985   6.179  0.3350  0.2708  0.3192
  133OSM    H5S14395   1.785   6.086   6.209  1.3743 -0.4863  1.8546
  133OSM    C6S14396   1.791   5.946   6.032  0.3601  0.2601 -0.5785
  133OSM    H6S14397   1.869   5.867   6.035 -1.0240 -1.2045  2.5471
  133OSM    H6T14398   1.837   6.028   5.973  0.0335  0.5981 -0.3657
  133OSM    C7S14399   1.670   5.883   5.952 -0.1681 -0.6999 -1.1883
  133OSM    H7S14400   1.576   5.936   5.976  1.7169  1.6810  1.6413
  133OSM    H7T14401   1.664   5.788   6.008  2.9169  1.3256  3.1850
  133OSM    C8S14402   1.686   5.871   5.797  0.0125 -0.2705  0.0773
  133OSM    H8S14403   1.701   5.975   5.762  0.7826 -0.2825  0.3547
  133OSM    H8T14404   1.595   5.819   5.760  0.6890 -1.7595  0.4359
  133OSM    C9S14405   1.808   5.785   5.759  0.6141  0.3446  0.4046
  133OSM    H9S14406   1.806   5.695   5.824  0.1742  1.5923  2.1781
  133OSM    H9T14407   1.903   5.833   5.791 -0.2465  1.2433  1.7104
  133OSM   C10S14408   1.801   5.747   5.615  0.7405 -0.4811  0.0204
  133OSM   H10S14409   1.795   5.837   5.550  1.3186  0.1437  0.8166
  133OSM   H10T14410   1.705   5.694   5.597 -0.1346  0.8622  0.6559
  133OSM   C11S14411   1.921   5.659   5.554  0.1991  0.2389 -0.2745
  133OSM   H11S14412   1.913   5.553   5.589 -0.3359 -0.0697 -1.3010
  133OSM   H11T14413   2.011   5.705   5.600  0.1503 -0.8587  0.9970
  133OSM   C12S14414   1.926   5.660   5.394 -0.3954  0.3309 -0.8424
  133OSM   H12S14415   2.028   5.630   5.362 -0.2684 -0.3602  0.1734
  133OSM   H12T14416   1.911   5.764   5.357 -1.7974 -0.4230 -2.4922
  133OSM   C13S14417   1.826   5.566   5.330 -0.4966  0.0494 -0.0995
  133OSM   H13S14418   1.723   5.601   5.354 -0.5455 -1.1075  1.5173
  133OSM   H13T14419   1.842   5.469   5.381 -1.5987  0.7327  1.6494
  133OSM   C14S14420   1.849   5.558   5.177  0.0154  0.5384 -0.2098
  133OSM   H14S14421   1.950   5.514   5.167  0.3598  1.3511 -0.3198
  133OSM   H14T14422   1.857   5.655   5.124 -0.6725  0.0132 -1.3044
  133OSM   C15S14423   1.743   5.475   5.109 -0.0838  0.0902  0.6761
  133OSM   H15S14424   1.653   5.537   5.130 -1.1410 -1.5292  1.0717
  133OSM   H15T14425   1.741   5.381   5.167  1.7021  0.2095  1.0062
  133OSM   C16S14426   1.766   5.454   4.956 -0.3163  0.4866 -0.3959
  133OSM   H16S14427   1.845   5.375   4.960 -0.7537  0.1038  1.9473
  133OSM   H16T14428   1.799   5.550   4.911  0.0393  1.8327  2.4898
  133OSM   C17S14429   1.658   5.377   4.892  0.1196 -0.4451 -0.0355
  133OSM   H17S14430   1.567   5.439   4.905 -0.9887 -1.9181 -0.5120
  133OSM   H17T14431   1.638   5.296   4.965  0.1547  0.7125  1.2957
  133OSM   C18S14432   1.679   5.326   4.753 -0.4828  0.0113 -0.0708
  133OSM   H18S14433   1.750   5.385   4.692 -0.7248  1.3552  0.9145
  133OSM   H18T14434   1.580   5.321   4.704 -0.4358  1.7273 -0.3737
  133OSM   H18U14435   1.717   5.223   4.771 -0.7588  0.0180  0.5608
  133OSM    C1F14436   1.266   5.979   6.326 -0.1439  0.6690 -0.2961
  133OSM     OF14437   1.245   6.098   6.312  0.5240 -0.2271 -0.3165
  133OSM    C2F14438   1.161   5.873   6.308 -0.7314  0.9876 -0.0753
  133OSM    H2F14439   1.086   5.873   6.391  1.4996 -2.8860  2.2085
  133OSM    H2G14440   1.210   5.774   6.312  1.0707  1.8300 -0.5551
  133OSM    C3F14441   1.096   5.890   6.169 -0.2760  0.1277  0.1987
  133OSM    H3F14442   1.026   5.977   6.173  1.4441  1.5813  0.1081
  133OSM    H3G14443   1.030   5.802   6.152  1.4951 -0.8970 -1.9345
  133OSM    C4F14444   1.200   5.892   6.049  0.0792 -0.2426 -0.2012
  133OSM    H4F14445   1.269   5.979   6.050  1.5496 -1.3502 -1.3591
  133OSM    H4G14446   1.140   5.901   5.956  1.2385 -0.9753 -1.0343
  133OSM    C5F14447   1.277   5.763   6.034  0.1952 -0.4223  0.2440
  133OSM    H5F14448   1.197   5.688   6.052  0.2392 -0.1578  1.6980
  133OSM    H5G14449   1.357   5.753   6.111  0.0180 -0.7999  0.3838
  133OSM    C6F14450   1.347   5.733   5.908 -0.7963 -0.1011  0.1554
  133OSM    H6F14451   1.383   5.628   5.919 -1.8781 -0.5810 -0.7574
  133OSM    H6G14452   1.433   5.801   5.891 -1.2512  0.7488  1.1169
  133OSM    C7F14453   1.262   5.741   5.789  0.1877  0.9817 -0.2602
  133OSM    H7F14454   1.224   5.842   5.762 -1.0189  0.2572 -1.4066
  133OSM    H7G14455   1.166   5.686   5.804  0.2738  0.1392 -2.4381
  133OSM    C8F14456   1.318   5.698   5.657 -0.6620  0.0570 -0.5585
  133OSM    H8F14457   1.419   5.745   5.661 -1.7994  2.7317 -1.2517
  133OSM    H8G14458   1.271   5.749   5.570  0.6490  0.3189 -1.1471
  133OSM    C9F14459   1.321   5.552   5.644 -0.3821 -0.3719  0.6816
  133OSM    H9F14460   1.247   5.504   5.710 -0.2532  0.3429  1.3563
  133OSM   C10F14461   1.393   5.482   5.558 -0.2186  0.4092  0.3668
  133OSM   H10F14462   1.380   5.373   5.555  2.2716  0.0628 -0.0810
  133OSM   C11F14463   1.494   5.531   5.458 -0.6953  0.0035  0.2939
  133OSM   H11F14464   1.571   5.451   5.455 -1.0175 -0.3356  0.7882
  133OSM   H11G14465   1.527   5.634   5.480 -1.9561  0.4673  0.1230
  133OSM   C12F14466   1.433   5.560   5.317 -0.3678  0.6601 -0.6452
  133OSM   H12F14467   1.504   5.620   5.256  1.6059  0.8493  1.6970
  133OSM   H12G14468   1.334   5.609   5.332  0.8474  2.9212  0.5606
  133OSM   C13F14469   1.399   5.430   5.240  0.0570  0.4928 -0.1630
  133OSM   H13F14470   1.314   5.374   5.284 -0.8494 -0.0570 -2.4274
  133OSM   H13G14471   1.492   5.370   5.234  1.7791  2.6403  2.4893
  133OSM   C14F14472   1.332   5.462   5.105 -0.3467 -0.3415 -0.0597
  133OSM   H14F14473   1.394   5.512   5.028  0.0107 -2.2663 -1.0767
  133OSM   H14G14474   1.255   5.538   5.130  0.5206 -0.3695  3.1436
  133OSM   C15F14475   1.280   5.336   5.033 -0.3153  0.1675  0.2580
  133OSM   H15F14476   1.230   5.295   5.122  0.5487 -0.2450  0.5620
  133OSM   H15G14477   1.361   5.264   5.008 -0.2522  0.3325 -0.0283
  133OSM   C16F14478   1.189   5.373   4.909 -0.3097 -0.4677 -1.3623
  133OSM   H16F14479   1.241   5.455   4.856  0.8604 -0.4323 -0.2295
  133OSM   H16G14480   1.088   5.401   4.945 -0.0403 -1.5221  0.3728
  133OSM   C17F14481   1.172   5.248   4.815  0.5488  0.3598 -0.1620
  133OSM   H17F14482   1.105   5.279   4.732  1.2448  1.8429 -0.2076
  133OSM   H17G14483   1.127   5.170   4.880  0.6174  0.3337 -0.1461
  133OSM   C18F14484   1.298   5.185   4.763  0.3831  0.0576 -0.0492
  133OSM   H18F14485   1.362   5.138   4.840 -0.0239 -2.5271 -1.1832
  133OSM   H18G14486   1.346   5.268   4.706  4.3479 -1.7275  0.3698
  133OSM   H18H14487   1.272   5.101   4.695 -0.2586 -0.8136  1.2382
  134OSM      N14488   0.130   3.884   6.464  0.4600 -0.5072  0.4510
  134OSM    C1514489   0.185   4.011   6.413 -0.1563 -0.0329  0.0861
  134OSM   H15A14490   0.127   4.052   6.333  0.5752  1.6332  0.3593
  134OSM   H15B14491   0.289   4.005   6.382  0.5532 -1.0327  2.4263
  134OSM   H15C14492   0.184   4.086   6.491 -0.0026  0.7754 -0.6801
  134OSM    C1414493   0.086   3.800   6.347 -0.6897 -0.1949 -0.0002
  134OSM   H14A14494   0.158   3.820   6.269  0.1420  2.4532  1.3019
  134OSM   H14B14495  -0.011   3.828   6.308 -0.4822 -0.5474 -0.8048
  134OSM   H14C14496   0.081   3.695   6.371  0.2917 -0.0415  0.9136
  134OSM    C1314497   0.235   3.812   6.539 -0.4583  0.4616 -0.0711
  134OSM   H13A14498   0.313   3.764   6.483 -1.0236 -0.3679 -0.1626
  134OSM   H13B14499   0.194   3.733   6.599 -1.0075  0.5085 -0.3760
  134OSM   H13C14500   0.282   3.886   6.602 -1.0580  0.2505  0.6449
  134OSM    C1214501   0.021   3.922   6.563  0.4649 -0.3540  1.0682
  134OSM   H12A14502  -0.042   3.840   6.592  0.8556 -0.1864  2.4757
  134OSM   H12B14503  -0.041   3.997   6.515  2.4014  1.1523  0.7555
  134OSM    C1114504   0.067   3.992   6.691 -0.5541 -0.2718 -0.5949
  134OSM   H11A14505   0.159   4.051   6.676 -0.2291 -1.0611 -1.8697
  134OSM   H11B14506   0.090   3.914   6.767  0.2134 -0.4419 -0.9912
  134OSM      P14507  -0.053   4.225   6.677 -0.4073 -0.0131  0.2578
  134OSM    O1314508  -0.070   4.323   6.789  0.0244  0.1777 -0.0826
  134OSM    O1414509   0.053   4.244   6.574 -0.7571  0.0700 -0.6309
  134OSM    O1114510  -0.184   4.222   6.591  0.0701 -0.5177 -0.3361
  134OSM    O1214511  -0.040   4.076   6.734  0.4985  0.2352 -0.1687
  134OSM    C1S14512  -0.284   4.122   6.601  0.2825  0.3138  0.3990
  134OSM    H1S14513  -0.358   4.144   6.681  1.2663  0.5441  1.2610
  134OSM    H1T14514  -0.247   4.022   6.634 -0.6474  0.4396  1.9331
  134OSM     NF14515  -0.469   4.022   6.466  0.1065 -0.1865 -0.4294
  134OSM    HNF14516  -0.469   3.926   6.438 -2.8042 -0.2137 -0.5839
  134OSM    C2S14517  -0.345   4.105   6.455 -0.3322 -0.1370  1.0683
  134OSM    H2S14518  -0.369   4.210   6.426  2.9653  0.8925  1.6433
  134OSM    C3S14519  -0.243   4.040   6.352 -0.6160 -0.1739  0.9450
  134OSM    H3S14520  -0.228   3.935   6.384  1.0099 -0.7116 -1.3728
  134OSM     O314521  -0.116   4.116   6.345  0.1076 -0.0734 -1.2060
  134OSM    HO314522  -0.122   4.172   6.423  0.9093 -0.3215 -0.9520
  134OSM    C4S14523  -0.294   4.032   6.208  0.0486  0.2488 -0.1958
  134OSM    H4S14524  -0.317   4.129   6.163 -1.2520  0.1748  0.2550
  134OSM    C5S14525  -0.291   3.917   6.130 -0.8941  0.2816 -0.5129
  134OSM    H5S14526  -0.253   3.825   6.177  1.4550  1.2458 -0.3698
  134OSM    C6S14527  -0.329   3.908   5.984  0.0551 -0.2493  0.0855
  134OSM    H6S14528  -0.390   3.816   5.972  0.5688 -0.6256  0.3163
  134OSM    H6T14529  -0.241   3.910   5.917 -2.1017  0.7075 -2.9672
  134OSM    C7S14530  -0.418   4.026   5.939 -0.1758  0.1646  0.7651
  134OSM    H7S14531  -0.357   4.119   5.934  3.0065 -1.8306 -1.1699
  134OSM    H7T14532  -0.515   4.056   5.984 -0.3955  2.0554 -0.8470
  134OSM    C8S14533  -0.455   4.018   5.793  0.5948 -0.6700  0.4512
  134OSM    H8S14534  -0.515   4.109   5.769 -0.1363 -1.6939 -1.9056
  134OSM    H8T14535  -0.520   3.930   5.775 -0.5442 -0.2580  2.2645
  134OSM    C9S14536  -0.330   4.004   5.698 -0.8906 -0.0177 -0.3978
  134OSM    H9S14537  -0.290   3.901   5.712  0.1413  0.3771 -0.3684
  134OSM    H9T14538  -0.250   4.079   5.717 -0.1975 -1.2746  2.1930
  134OSM   C10S14539  -0.360   4.026   5.550  0.2095  0.1248 -0.4118
  134OSM   H10S14540  -0.406   4.127   5.542 -0.0295  0.2220  1.6116
  134OSM   H10T14541  -0.431   3.950   5.511 -1.2889  0.7835  0.8971
  134OSM   C11S14542  -0.235   4.000   5.475  0.2521  0.0728  0.1055
  134OSM   H11S14543  -0.213   3.892   5.487 -0.5041  0.0489  1.4408
  134OSM   H11T14544  -0.151   4.059   5.516  0.3300  1.6823 -2.1650
  134OSM   C12S14545  -0.246   4.041   5.320 -0.0302 -0.3121 -0.8899
  134OSM   H12S14546  -0.266   4.149   5.307  0.6100  0.1095  1.2360
  134OSM   H12T14547  -0.328   3.979   5.278 -2.2062  1.9470 -0.2346
  134OSM   C13S14548  -0.111   4.017   5.245  0.0714  0.8880 -0.0757
  134OSM   H13S14549  -0.084   3.912   5.269 -2.1839 -0.3470 -2.4312
  134OSM   H13T14550  -0.024   4.076   5.279  0.0837  1.7950 -1.5727
  134OSM   C14S14551  -0.120   4.038   5.089  0.8561 -0.4299 -0.0750
  134OSM   H14S14552  -0.172   4.135   5.075 -0.4008 -0.8303  1.4962
  134OSM   H14T14553  -0.179   3.955   5.044  0.4224 -0.4734  0.5706
  134OSM   C15S14554   0.023   4.040   5.021 -0.2317  0.8581  0.5059
  134OSM   H15S14555   0.045   3.931   5.026 -2.0815  0.4786  1.2559
  134OSM   H15T14556   0.098   4.096   5.080 -2.0618  1.3963  2.4692
  134OSM   C16S14557   0.017   4.075   4.871 -0.2313  0.1840  0.0968
  134OSM   H16S14558  -0.012   4.181   4.862 -2.1905 -0.4245 -1.2721
  134OSM   H16T14559  -0.064   4.010   4.832  1.5040 -1.1677 -1.4160
  134OSM   C17S14560   0.154   4.046   4.801  0.6422 -0.5992 -0.0871
  134OSM   H17S14561   0.124   4.038   4.695  1.4332  1.5101 -0.5200
  134OSM   H17T14562   0.190   3.946   4.832 -0.9139 -1.1484  0.0548
  134OSM   C18S14563   0.268   4.150   4.815  0.3161 -0.5214  0.6565
  134OSM   H18S14564   0.252   4.236   4.745 -0.5357  1.1706  2.8203
  134OSM   H18T14565   0.366   4.111   4.781  1.1639  0.2871  2.0867
  134OSM   H18U14566   0.280   4.193   4.917 -0.1277  1.0175  0.0994
  134OSM    C1F14567  -0.576   4.077   6.511 -0.7589  0.7451 -0.1056
  134OSM     OF14568  -0.580   4.195   6.536  0.2851 -0.7641  0.1121
  134OSM    C2F14569  -0.689   3.993   6.516  0.5517  0.1646  0.6862
  134OSM    H2F14570  -0.720   3.971   6.621 -2.2991  0.2240 -0.0639
  134OSM    H2G14571  -0.663   3.901   6.460  2.6481  0.0524  1.7271
  134OSM    C3F14572  -0.810   4.048   6.438 -1.1102  0.6270 -0.0776
  134OSM    H3F14573  -0.789   4.047   6.329  1.2133 -0.3576  0.3149
  134OSM    H3G14574  -0.809   4.152   6.477 -1.0176  0.7513 -0.4023
  134OSM    C4F14575  -0.940   3.975   6.475  0.6564 -0.1189 -0.1022
  134OSM    H4F14576  -0.965   3.984   6.583 -1.5142  1.0567 -0.6407
  134OSM    H4G14577  -0.927   3.866   6.458  1.1055  0.1747 -1.8614
  134OSM    C5F14578  -1.059   4.021   6.389  0.5174  0.4048  0.2467
  134OSM    H5F14579  -1.126   3.937   6.417  0.8710  0.3688  0.9940
  134OSM    H5G14580  -1.048   4.001   6.280 -2.8861 -0.4002 -0.0810
  134OSM    C6F14581  -1.113   4.161   6.416 -0.2512 -0.0368  0.0106
  134OSM    H6F14582  -1.042   4.243   6.390  0.3477 -0.4876  0.1912
  134OSM    H6G14583  -1.121   4.168   6.526  1.5473 -0.0549  0.1815
  134OSM    C7F14584  -1.251   4.188   6.343  0.4178 -0.1883 -0.0657
  134OSM    H7F14585  -1.333   4.122   6.379 -0.4859  1.2460  0.6353
  134OSM    H7G14586  -1.244   4.149   6.239  2.0310 -1.6449  0.5479
  134OSM    C8F14587  -1.310   4.325   6.353  0.4211  0.3519  0.0601
  134OSM    H8F14588  -1.315   4.371   6.454 -1.2050 -1.1343  0.7093
  134OSM    H8G14589  -1.409   4.314   6.304  0.9884 -1.3944 -0.7887
  134OSM    C9F14590  -1.215   4.415   6.273 -0.1337  0.5411 -0.2397
  134OSM    H9F14591  -1.116   4.434   6.318  0.5768 -0.7303 -1.2124
  134OSM   C10F14592  -1.233   4.443   6.139 -0.2716 -0.5157 -1.3246
  134OSM   H10F14593  -1.158   4.504   6.086  0.6822  1.2679  1.8717
  134OSM   C11F14594  -1.357   4.410   6.059 -0.6069 -0.2903 -0.3910
  134OSM   H11F14595  -1.445   4.462   6.103  0.5204 -1.1225  3.1909
  134OSM   H11G14596  -1.376   4.305   6.088 -0.1655  0.0201  1.1097
  134OSM   C12F14597  -1.332   4.444   5.911  0.4000  1.4734 -0.1240
  134OSM   H12F14598  -1.289   4.547   5.908  4.4241 -0.0052  0.9814
  134OSM   H12G14599  -1.424   4.450   5.849 -1.1696  1.0159  2.0202
  134OSM   C13F14600  -1.230   4.338   5.852 -0.2482  0.1015 -0.0398
  134OSM   H13F14601  -1.266   4.233   5.855  0.4761 -0.1724  3.0951
  134OSM   H13G14602  -1.136   4.343   5.911 -1.3902 -1.5363  2.0593
  134OSM   C14F14603  -1.193   4.359   5.708 -0.1150  0.0239  0.6655
  134OSM   H14F14604  -1.138   4.456   5.698  0.0288 -0.1035  0.2067
  134OSM   H14G14605  -1.282   4.367   5.642  0.8911 -1.3515 -0.9475
  134OSM   C15F14606  -1.094   4.254   5.654 -0.1357 -1.0084 -1.0756
  134OSM   H15F14607  -1.112   4.154   5.698  0.4744 -0.7576 -0.2270
  134OSM   H15G14608  -1.001   4.287   5.704 -1.7794  0.1184  1.4939
  134OSM   C16F14609  -1.096   4.239   5.497 -0.2089 -0.4743  0.0760
  134OSM   H16F14610  -1.199   4.233   5.456  0.1108 -3.5235 -0.5606
  134OSM   H16G14611  -1.037   4.149   5.467  0.8796  0.5586 -0.9685
  134OSM   C17F14612  -1.024   4.359   5.436  0.3886  0.0443 -0.0705
  134OSM   H17F14613  -0.932   4.374   5.496 -0.6574 -2.2902  2.3359
  134OSM   H17G14614  -1.080   4.454   5.456 -1.5202 -0.7468 -1.3172
  134OSM   C18F14615  -1.006   4.354   5.288  0.9271  0.7702 -0.3543
  134OSM   H18F14616  -0.942   4.269   5.256  0.7543  0.1869  0.8229
  134OSM   H18G14617  -0.972   4.451   5.245  3.0362 -0.8884 -2.7872
  134OSM   H18H14618  -1.101   4.343   5.231  1.4985  0.8533 -1.3536
  135OSM      N14619   0.234   2.422   6.633 -0.1490 -0.2715 -0.1024
  135OSM    C1514620   0.373   2.384   6.586 -0.2173 -0.0405 -0.1120
  135OSM   H15A14621   0.380   2.281   6.556  2.2330 -0.0575  0.2967
  135OSM   H15B14622   0.445   2.385   6.667 -1.0382  1.9823  0.6476
  135OSM   H15C14623   0.406   2.448   6.505  1.6594 -0.3686  0.3338
  135OSM    C1414624   0.141   2.397   6.509  0.4396  0.0851  0.0695
  135OSM   H14A14625   0.044   2.435   6.535  0.1327  0.3023 -1.3240
  135OSM   H14B14626   0.139   2.290   6.497 -1.5257 -0.1838  2.1653
  135OSM   H14C14627   0.184   2.446   6.423  2.0910 -1.2879  0.0459
  135OSM    C1314628   0.195   2.342   6.748 -0.2750 -0.0352  0.5918
  135OSM   H13A14629   0.197   2.236   6.727 -0.5300 -0.1564  1.1494
  135OSM   H13B14630   0.092   2.362   6.772 -0.2174  0.3040  0.5660
  135OSM   H13C14631   0.263   2.351   6.832 -0.9026  1.9564  0.9291
  135OSM    C1214632   0.233   2.578   6.670 -0.2370  0.8755 -0.0301
  135OSM   H12A14633   0.308   2.597   6.745 -0.6972 -1.1595  1.0196
  135OSM   H12B14634   0.138   2.605   6.715 -2.2400 -2.0955 -2.0888
  135OSM    C1114635   0.266   2.682   6.559  0.1530  0.2446  0.5474
  135OSM   H11A14636   0.249   2.783   6.601  2.7341  1.9356 -2.0277
  135OSM   H11B14637   0.201   2.666   6.470  1.6355  3.6579 -1.3468
  135OSM      P14638   0.471   2.768   6.435  0.0267 -0.5374 -0.4801
  135OSM    O1314639   0.391   2.885   6.396  0.0327 -0.2186 -0.1585
  135OSM    O1414640   0.604   2.790   6.505 -0.4494 -0.1022 -0.0850
  135OSM    O1114641   0.492   2.675   6.304 -0.3962 -0.0883  0.3715
  135OSM    O1214642   0.404   2.674   6.536  0.1681  0.3825 -0.0914
  135OSM    C1S14643   0.409   2.564   6.266  0.0756  0.6060 -0.4270
  135OSM    H1S14644   0.300   2.587   6.277 -0.0344 -0.2143  0.3371
  135OSM    H1T14645   0.431   2.474   6.327  0.0634 -0.0695 -1.3932
  135OSM     NF14646   0.331   2.411   6.107 -0.7365  1.0695 -0.3106
  135OSM    HNF14647   0.368   2.321   6.086  1.0171  1.6547  0.0873
  135OSM    C2S14648   0.431   2.510   6.128 -0.0075  0.4762 -0.4699
  135OSM    H2S14649   0.413   2.591   6.054 -0.7063 -0.4276 -1.3146
  135OSM    C3S14650   0.588   2.479   6.103  0.5985  0.9476 -0.0310
  135OSM    H3S14651   0.612   2.379   6.145  1.6758  1.2918  0.2113
  135OSM     O314652   0.687   2.570   6.149 -0.5171 -0.2560 -0.1849
  135OSM    HO314653   0.640   2.623   6.214 -2.7751  0.1285 -1.9883
  135OSM    C4S14654   0.602   2.460   5.950 -0.6749 -0.2281 -0.6030
  135OSM    H4S14655   0.607   2.353   5.923 -2.9887 -0.7190  0.5953
  135OSM    C5S14656   0.609   2.549   5.854 -0.3903 -1.2059  0.3322
  135OSM    H5S14657   0.613   2.657   5.874  0.0275 -1.1298 -0.1498
  135OSM    C6S14658   0.618   2.522   5.707 -0.1429 -0.8167  0.1677
  135OSM    H6S14659   0.725   2.536   5.681 -0.3181 -0.8894 -0.5972
  135OSM    H6T14660   0.554   2.601   5.662  2.5966  1.3613 -0.2111
  135OSM    C7S14661   0.580   2.383   5.654  0.2837 -0.9679 -0.2766
  135OSM    H7S14662   0.600   2.296   5.720 -3.1455 -1.0809  0.8294
  135OSM    H7T14663   0.638   2.363   5.561  2.1224  0.4855  0.4812
  135OSM    C8S14664   0.431   2.377   5.622  0.0583 -0.0286  0.0243
  135OSM    H8S14665   0.411   2.472   5.568  1.4717  0.9599  1.1759
  135OSM    H8T14666   0.365   2.373   5.711  1.4868 -1.0191  1.0812
  135OSM    C9S14667   0.388   2.260   5.533 -0.3686 -0.1641  0.2445
  135OSM    H9S14668   0.351   2.175   5.595 -0.7262 -0.6976 -0.6773
  135OSM    H9T14669   0.476   2.224   5.476  1.0395  2.4843  0.5969
  135OSM   C10S14670   0.283   2.309   5.427 -0.5120  0.3325  0.2305
  135OSM   H10S14671   0.322   2.388   5.360  0.5796 -1.3900 -1.2473
  135OSM   H10T14672   0.196   2.347   5.483 -0.4483  1.8946 -0.6852
  135OSM   C11S14673   0.227   2.189   5.346 -0.0637 -0.6289 -0.1007
  135OSM   H11S14674   0.152   2.125   5.397 -0.9458 -0.6571 -1.3972
  135OSM   H11T14675   0.310   2.123   5.313 -0.6255 -1.6434  0.4576
  135OSM   C12S14676   0.166   2.226   5.214  0.3730  0.7283 -0.2585
  135OSM   H12S14677   0.240   2.281   5.152  0.7118  1.3228  0.6490
  135OSM   H12T14678   0.070   2.280   5.225 -0.6143 -0.8270 -0.8236
  135OSM   C13S14679   0.124   2.092   5.154 -0.9789 -0.5925 -0.1528
  135OSM   H13S14680   0.050   2.036   5.215 -0.9267  0.3632  0.8109
  135OSM   H13T14681   0.208   2.019   5.146 -0.4990  0.0033 -0.6707
  135OSM   C14S14682   0.059   2.121   5.016  0.1446  0.6198  0.2893
  135OSM   H14S14683   0.131   2.149   4.937 -0.5521 -3.0546 -1.8974
  135OSM   H14T14684  -0.012   2.205   5.032  0.0714  0.8332 -1.0502
  135OSM   C15S14685  -0.027   2.004   4.968 -0.2214 -0.0798  0.8159
  135OSM   H15S14686  -0.123   2.025   5.018  0.3134 -0.6867  2.1507
  135OSM   H15T14687   0.003   1.905   5.009 -2.8052 -1.2465  0.0701
  135OSM   C16S14688  -0.038   2.008   4.817 -0.5165 -0.2440 -0.2737
  135OSM   H16S14689   0.061   1.989   4.769 -0.3777  0.8479 -0.4372
  135OSM   H16T14690  -0.049   2.116   4.793 -1.0948 -0.3904 -0.6887
  135OSM   C17S14691  -0.155   1.930   4.765  0.6300 -0.9016  0.2864
  135OSM   H17S14692  -0.238   1.964   4.831  0.9303  2.1756 -0.7809
  135OSM   H17T14693  -0.151   1.819   4.773 -0.5281 -0.9860 -0.0992
  135OSM   C18S14694  -0.180   1.950   4.615  0.2253 -0.3030 -0.6792
  135OSM   H18S14695  -0.090   1.917   4.559  0.3284  0.6679 -1.0990
  135OSM   H18T14696  -0.200   2.058   4.601  0.5772  0.1939  2.0285
  135OSM   H18U14697  -0.266   1.888   4.581 -0.0922 -0.9792  1.2403
  135OSM    C1F14698   0.201   2.428   6.098 -0.1937  0.5644 -0.2710
  135OSM     OF14699   0.143   2.537   6.094 -0.1971  0.1851 -0.8542
  135OSM    C2F14700   0.120   2.310   6.084  0.0534 -0.0089  0.1709
  135OSM    H2F14701   0.061   2.275   6.172  1.8476 -2.8365  0.3908
  135OSM    H2G14702   0.170   2.213   6.062 -0.3314 -0.2186  0.2089
  135OSM    C3F14703   0.014   2.338   5.964  0.5260  0.2357 -0.4540
  135OSM    H3F14704  -0.062   2.414   5.994  1.1903  0.5292  0.5229
  135OSM    H3G14705  -0.040   2.241   5.963 -0.1987  0.6136  0.3992
  135OSM    C4F14706   0.077   2.360   5.826 -1.2947 -0.3360 -0.2716
  135OSM    H4F14707   0.130   2.457   5.834 -0.7818 -0.7402  1.8994
  135OSM    H4G14708   0.150   2.277   5.811  2.5651  2.7470 -0.4239
  135OSM    C5F14709  -0.024   2.388   5.713 -0.4752  0.3915  0.0406
  135OSM    H5F14710  -0.091   2.300   5.701  0.6871 -0.9485  2.5562
  135OSM    H5G14711   0.032   2.410   5.620 -0.7541  2.6992  0.3573
  135OSM    C6F14712  -0.114   2.513   5.746  0.1076 -0.4847 -0.6129
  135OSM    H6F14713  -0.044   2.593   5.778  1.1749 -0.1097 -3.5061
  135OSM    H6G14714  -0.183   2.489   5.829 -1.4602  2.1911 -1.0186
  135OSM    C7F14715  -0.211   2.561   5.630 -0.2406 -0.1102 -0.0332
  135OSM    H7F14716  -0.297   2.610   5.680 -1.0222 -0.7870 -0.6986
  135OSM    H7G14717  -0.255   2.478   5.571 -1.1292  1.8101 -2.2515
  135OSM    C8F14718  -0.145   2.659   5.536 -0.1077 -0.1411 -0.1132
  135OSM    H8F14719  -0.053   2.609   5.497 -0.7771 -2.1346  0.7640
  135OSM    H8G14720  -0.105   2.747   5.591  0.5060  0.3119 -1.2314
  135OSM    C9F14721  -0.230   2.701   5.425  0.3762 -0.5632  0.2760
  135OSM    H9F14722  -0.323   2.743   5.464  0.6694 -0.4917  0.9192
  135OSM   C10F14723  -0.216   2.678   5.293  0.3024 -0.6540  0.2507
  135OSM   H10F14724  -0.309   2.697   5.238  0.1278 -1.5790  0.2131
  135OSM   C11F14725  -0.108   2.601   5.214  0.5823  0.6907 -0.1446
  135OSM   H11F14726  -0.116   2.494   5.244 -1.4320  0.1690 -2.2804
  135OSM   H11G14727  -0.007   2.643   5.233  0.4396  2.9245 -3.6058
  135OSM   C12F14728  -0.132   2.605   5.062  0.5646 -0.3585  0.5719
  135OSM   H12F14729  -0.131   2.711   5.030  2.5380 -1.0264 -1.8086
  135OSM   H12G14730  -0.233   2.558   5.054  0.7054 -0.4730 -0.7875
  135OSM   C13F14731  -0.033   2.523   4.988  0.1975  0.2061 -0.4865
  135OSM   H13F14732  -0.039   2.419   5.027  0.1895  1.0026  1.8063
  135OSM   H13G14733   0.070   2.554   5.016 -0.0636  1.7800 -1.1583
  135OSM   C14F14734  -0.050   2.545   4.842  0.0720  0.5036  0.8661
  135OSM   H14F14735  -0.031   2.645   4.800 -0.0188 -0.2387 -1.0093
  135OSM   H14G14736  -0.154   2.518   4.813  0.4051 -0.9402  0.9366
  135OSM   C15F14737   0.045   2.453   4.761  0.0833 -0.7458 -0.1249
  135OSM   H15F14738   0.025   2.456   4.652  0.5692 -1.2283 -0.2305
  135OSM   H15G14739   0.015   2.350   4.792 -1.6254  0.2690  1.8611
  135OSM   C16F14740   0.197   2.475   4.777 -0.1519  0.6084 -0.4760
  135OSM   H16F14741   0.233   2.470   4.882  0.0105  0.8969 -0.5178
  135OSM   H16G14742   0.221   2.575   4.734  1.0678  0.9595  0.9498
  135OSM   C17F14743   0.266   2.366   4.695  0.7527 -0.1619 -0.5089
  135OSM   H17F14744   0.228   2.377   4.591 -1.8544 -0.6482  0.3163
  135OSM   H17G14745   0.232   2.267   4.733  1.5689  0.2479  1.3658
  135OSM   C18F14746   0.417   2.373   4.687 -0.9123 -0.7627  0.1556
  135OSM   H18F14747   0.451   2.476   4.663  0.2086 -1.2397 -0.3892
  135OSM   H18G14748   0.463   2.308   4.609 -0.7360 -1.7234  1.0261
  135OSM   H18H14749   0.460   2.346   4.786  1.7333 -2.9286 -1.4347
  136OSM      N14750   4.507   3.065   6.942  0.2530  0.6517  0.3286
  136OSM    C1514751   4.393   3.155   6.980 -0.4616  0.0536 -0.0274
  136OSM   H15A14752   4.312   3.153   6.908  1.5153  0.7490 -2.4210
  136OSM   H15B14753   4.417   3.260   6.981 -2.0471  0.4499  1.1266
  136OSM   H15C14754   4.348   3.133   7.076 -2.0287  3.4534  0.1580
  136OSM    C1414755   4.602   3.078   7.063 -0.2936  0.0756  0.6240
  136OSM   H14A14756   4.707   3.065   7.041 -0.5055 -0.7443  0.0720
  136OSM   H14B14757   4.575   3.016   7.147 -3.7204  0.5357 -0.0117
  136OSM   H14C14758   4.600   3.180   7.099 -0.1874  0.4363 -0.3596
  136OSM    C1314759   4.451   2.928   6.923  0.0576 -0.1456  0.1518
  136OSM   H13A14760   4.415   2.884   7.015  0.8302 -3.8110 -1.1465
  136OSM   H13B14761   4.530   2.859   6.897  1.3586  1.4689 -0.3870
  136OSM   H13C14762   4.375   2.933   6.846  0.7610 -0.0511 -0.5571
  136OSM    C1214763   4.571   3.120   6.814  0.0826 -0.5500 -0.5558
  136OSM   H12A14764   4.622   3.210   6.843 -1.6601  0.2489  0.1890
  136OSM   H12B14765   4.492   3.157   6.751  1.2917  1.0478 -1.2067
  136OSM    C1114766   4.667   3.029   6.738  0.0845 -0.6473  1.2832
  136OSM   H11A14767   4.684   3.050   6.630 -0.4027 -0.8399  1.1631
  136OSM   H11B14768   4.604   2.938   6.726 -2.6571  1.2349  0.3152
  136OSM      P14769   4.919   3.095   6.801  0.0300 -0.2112 -0.0697
  136OSM    O1314770   4.877   3.236   6.826  0.2932 -0.3261  0.6476
  136OSM    O1414771   5.011   3.038   6.901 -0.4565 -0.4850 -0.5505
  136OSM    O1114772   4.963   3.069   6.657  0.0111 -0.7009  0.3876
  136OSM    O1214773   4.788   3.005   6.809  0.5823 -0.2780  0.0607
  136OSM    C1S14774   4.984   2.937   6.607 -0.1891 -0.5707  0.1453
  136OSM    H1S14775   4.890   2.879   6.614 -1.7448  1.2712 -3.2205
  136OSM    H1T14776   5.078   2.899   6.653  0.8245  0.7398 -0.7623
  136OSM     NF14777   5.062   2.810   6.406  0.5481  0.8119  0.5417
  136OSM    HNF14778   5.150   2.814   6.360 -0.1063  0.1195 -0.8196
  136OSM    C2S14779   5.013   2.938   6.457  0.9276  0.1727  0.4691
  136OSM    H2S14780   4.914   2.955   6.410  0.9787 -1.1126 -0.1252
  136OSM    C3S14781   5.102   3.052   6.399 -0.0239 -0.0623 -0.0105
  136OSM    H3S14782   5.208   3.031   6.427  0.5840  2.1337 -0.4239
  136OSM     O314783   5.087   3.183   6.455 -0.3698 -0.1521 -0.5765
  136OSM    HO314784   5.044   3.169   6.540 -0.8322  0.1263 -0.7564
  136OSM    C4S14785   5.115   3.055   6.248  0.1265 -0.7032  0.1343
  136OSM    H4S14786   5.181   2.971   6.220  2.0118  0.9962 -0.6972
  136OSM    C5S14787   5.083   3.159   6.162  0.9013 -0.7044  0.2716
  136OSM    H5S14788   5.045   3.256   6.198 -0.3914 -0.8085 -0.7464
  136OSM    C6S14789   5.119   3.168   6.015  0.1231 -0.1001 -0.3858
  136OSM    H6S14790   5.159   3.270   5.997 -0.1656  0.5421  2.1945
  136OSM    H6T14791   5.029   3.150   5.951 -1.1639 -0.3541  1.4178
  136OSM    C7S14792   5.227   3.078   5.972 -0.0469  0.2335  0.3701
  136OSM    H7S14793   5.195   2.973   5.986 -4.1425  1.4780  2.1762
  136OSM    H7T14794   5.321   3.094   6.029  2.2116 -2.2635 -2.3300
  136OSM    C8S14795   5.260   3.096   5.827  0.5609 -0.3615  0.2297
  136OSM    H8S14796   5.347   3.027   5.823  0.5977 -0.2939 -0.2820
  136OSM    H8T14797   5.299   3.199   5.814  0.6643 -0.4538 -0.2273
  136OSM    C9S14798   5.161   3.058   5.726  0.0810  0.5870 -0.4315
  136OSM    H9S14799   5.079   3.131   5.711 -0.2625  0.2049 -0.4267
  136OSM    H9T14800   5.099   2.972   5.761 -0.0516  1.0725  0.5394
  136OSM   C10S14801   5.228   3.004   5.600 -0.3384  0.6106 -0.1709
  136OSM   H10S14802   5.305   2.924   5.607 -1.2357 -0.5356 -2.4251
  136OSM   H10T14803   5.284   3.091   5.560 -0.3899  2.2706  3.0789
  136OSM   C11S14804   5.125   2.943   5.508 -0.0328  0.1945 -0.1077
  136OSM   H11S14805   5.052   3.023   5.484 -1.5664 -1.1370 -0.0074
  136OSM   H11T14806   5.078   2.860   5.564 -2.4162  1.5003 -0.0386
  136OSM   C12S14807   5.189   2.871   5.387 -0.2147 -0.2837 -0.1599
  136OSM   H12S14808   5.235   2.775   5.418 -0.4026 -0.9858 -1.9603
  136OSM   H12T14809   5.264   2.934   5.336 -0.7849 -0.2222 -0.9361
  136OSM   C13S14810   5.096   2.828   5.275 -0.3531  0.4843 -0.1557
  136OSM   H13S14811   5.013   2.778   5.328 -0.6426  2.0874  0.9746
  136OSM   H13T14812   5.143   2.760   5.201 -3.8101 -0.6704 -1.5145
  136OSM   C14S14813   5.036   2.943   5.192  0.1888 -0.4777  0.4492
  136OSM   H14S14814   5.115   2.995   5.134 -0.4924  0.3291  0.2121
  136OSM   H14T14815   4.997   3.020   5.262  1.0367 -0.2025  0.6311
  136OSM   C15S14816   4.927   2.905   5.094  0.2981  0.0625 -0.9512
  136OSM   H15S14817   4.883   3.005   5.073 -0.9958 -0.0070  1.0939
  136OSM   H15T14818   4.845   2.847   5.143  0.3255  1.3091  0.6725
  136OSM   C16S14819   4.970   2.851   4.966  0.2809  0.5587 -0.1060
  136OSM   H16S14820   4.996   2.745   4.989  0.5340  0.9740  1.6718
  136OSM   H16T14821   5.058   2.903   4.924 -0.2326  1.8286  0.3605
  136OSM   C17S14822   4.856   2.850   4.867 -0.1342  0.2121 -0.0051
  136OSM   H17S14823   4.823   2.954   4.846  0.3058  0.3469 -0.0387
  136OSM   H17T14824   4.776   2.791   4.917 -0.1585 -0.5217 -0.8906
  136OSM   C18S14825   4.887   2.787   4.734 -0.9716  0.7597 -0.2966
  136OSM   H18S14826   4.798   2.780   4.669 -1.8385  2.7054  0.6088
  136OSM   H18T14827   4.915   2.681   4.754 -0.5706  1.0900  0.9985
  136OSM   H18U14828   4.965   2.847   4.682 -1.5431  0.0709 -2.0343
  136OSM    C1F14829   4.991   2.701   6.418 -0.1142  0.2936  0.3139
  136OSM     OF14830   4.871   2.702   6.459  0.0322 -0.4826  0.3221
  136OSM    C2F14831   5.068   2.573   6.383  0.1606 -0.1169 -0.2775
  136OSM    H2F14832   5.074   2.520   6.481 -3.0151 -0.7455 -0.3283
  136OSM    H2G14833   5.176   2.591   6.363  0.3198 -0.3353  0.3485
  136OSM    C3F14834   4.987   2.493   6.279 -0.5481 -0.4423  0.3827
  136OSM    H3F14835   4.904   2.440   6.332 -0.4046 -1.8565 -0.7495
  136OSM    H3G14836   5.057   2.409   6.257  0.1456  0.1551  0.2705
  136OSM    C4F14837   4.946   2.563   6.157 -0.2444  0.7329  0.2437
  136OSM    H4F14838   5.027   2.616   6.103  0.6128  1.4637  2.1594
  136OSM    H4G14839   4.867   2.637   6.181 -3.0535 -1.6383 -1.0293
  136OSM    C5F14840   4.890   2.458   6.058 -0.1723 -0.5187  0.0062
  136OSM    H5F14841   4.812   2.406   6.118  1.1515 -0.1431  2.1605
  136OSM    H5G14842   4.974   2.392   6.028 -0.4153 -0.6878 -0.3013
  136OSM    C6F14843   4.832   2.531   5.937  0.2009  0.3620 -0.0374
  136OSM    H6F14844   4.915   2.596   5.901 -0.0530  0.5645 -0.2555
  136OSM    H6G14845   4.740   2.585   5.967  1.2639  1.4992  1.3390
  136OSM    C7F14846   4.792   2.421   5.832  0.3414  0.2049 -0.0147
  136OSM    H7F14847   4.697   2.384   5.878 -0.0858 -1.0505 -1.8052
  136OSM    H7G14848   4.877   2.350   5.828 -0.0132 -0.3427  1.4181
  136OSM    C8F14849   4.777   2.490   5.696  0.4393  0.3319 -0.1087
  136OSM    H8F14850   4.867   2.546   5.666  0.3588  1.0665  0.9527
  136OSM    H8G14851   4.698   2.568   5.705  0.4916  0.4050 -0.2926
  136OSM    C9F14852   4.733   2.382   5.589  0.0802  0.5752  0.4626
  136OSM    H9F14853   4.696   2.284   5.622 -0.7444  0.3325 -1.0674
  136OSM   C10F14854   4.758   2.404   5.457  0.3391 -0.3469 -0.4305
  136OSM   H10F14855   4.724   2.321   5.393 -0.7169  0.2099 -0.6007
  136OSM   C11F14856   4.810   2.529   5.382  0.1827 -0.0317  0.4383
  136OSM   H11F14857   4.921   2.522   5.382  0.3055  0.1302 -3.3447
  136OSM   H11G14858   4.772   2.619   5.436  0.7505  0.7491 -0.4366
  136OSM   C12F14859   4.756   2.534   5.236  0.3987 -0.2489  0.1947
  136OSM   H12F14860   4.787   2.629   5.188 -0.4398  0.3874  0.8676
  136OSM   H12G14861   4.647   2.511   5.225  0.9494 -2.7160 -0.8601
  136OSM   C13F14862   4.830   2.433   5.138  0.1702 -0.4042 -0.0179
  136OSM   H13F14863   4.811   2.327   5.166 -2.2579  0.4007  1.6859
  136OSM   H13G14864   4.937   2.461   5.155 -0.2389  1.1516  0.1299
  136OSM   C14F14865   4.813   2.462   4.991  0.2343  0.5620 -0.3250
  136OSM   H14F14866   4.875   2.394   4.929 -0.2785 -0.5236  0.3305
  136OSM   H14G14867   4.853   2.564   4.974 -1.2441  0.9456 -1.8558
  136OSM   C15F14868   4.668   2.462   4.931  0.8139  0.1026 -0.5572
  136OSM   H15F14869   4.600   2.518   4.999 -0.1771  0.0993 -1.5302
  136OSM   H15G14870   4.636   2.355   4.926  0.3195  0.2001  0.2784
  136OSM   C16F14871   4.656   2.514   4.794 -0.1604 -0.5068 -0.2067
  136OSM   H16F14872   4.678   2.623   4.792  0.0349 -0.5252 -2.5450
  136OSM   H16G14873   4.554   2.484   4.762 -0.0455 -1.3414  0.1890
  136OSM   C17F14874   4.750   2.444   4.695 -0.7328 -0.4979  0.7945
  136OSM   H17F14875   4.853   2.480   4.718 -0.1882 -0.1114 -1.8603
  136OSM   H17G14876   4.728   2.482   4.593  0.1906 -1.6945  0.1242
  136OSM   C18F14877   4.749   2.298   4.692 -0.0695  0.0066  0.3156
  136OSM   H18F14878   4.803   2.248   4.609  1.8194  2.4291 -0.0313
  136OSM   H18G14879   4.644   2.261   4.698  0.3378 -1.1499  0.5723
  136OSM   H18H14880   4.801   2.273   4.787 -0.1550  0.0770  0.3808
  137OSM      N14881   6.128   2.105   6.752  0.9082 -0.3997 -0.1827
  137OSM    C1514882   6.153   2.227   6.840  0.1863  0.1421 -0.0322
  137OSM   H15A14883   6.148   2.185   6.939 -1.2479  0.4747  0.0526
  137OSM   H15B14884   6.071   2.297   6.834  1.0874  1.1359 -1.3467
  137OSM   H15C14885   6.252   2.267   6.820  1.0402 -1.6660  0.3989
  137OSM    C1414886   6.242   2.003   6.761 -0.1937 -0.5434  0.8424
  137OSM   H14A14887   6.250   1.968   6.863  1.1193 -0.1050  0.9047
  137OSM   H14B14888   6.333   2.056   6.736 -0.5971  0.3549  1.2541
  137OSM   H14C14889   6.237   1.925   6.686  1.2420  1.3849 -1.4326
  137OSM    C1314890   6.009   2.036   6.815  0.2353  0.1704  0.2697
  137OSM   H13A14891   6.032   1.984   6.907 -2.6866 -0.5953  0.6877
  137OSM   H13B14892   5.975   1.958   6.748  0.4266  0.7730 -0.5359
  137OSM   H13C14893   5.923   2.102   6.813  1.2440  1.5017 -0.5513
  137OSM    C1214894   6.094   2.145   6.609  0.1020  0.5043  0.1647
  137OSM   H12A14895   6.024   2.227   6.615 -0.8716 -0.2862 -0.2331
  137OSM   H12B14896   6.032   2.071   6.561  0.5556  0.2539 -0.0340
  137OSM    C1114897   6.204   2.190   6.502  0.1358 -0.7673 -0.0441
  137OSM   H11A14898   6.145   2.227   6.416 -0.4423 -1.9797 -0.1841
  137OSM   H11B14899   6.265   2.101   6.479  2.0236  0.4220  0.1171
  137OSM      P14900   6.442   2.284   6.557 -0.0875 -0.1169  0.1167
  137OSM    O1314901   6.502   2.416   6.594  0.2999 -0.3561  0.5480
  137OSM    O1414902   6.471   2.170   6.648 -0.5490  0.3840 -0.1139
  137OSM    O1114903   6.476   2.248   6.402 -0.2823  0.0555  0.5158
  137OSM    O1214904   6.285   2.291   6.555 -0.2796 -0.1866 -0.5875
  137OSM    C1S14905   6.452   2.349   6.299  0.5915  0.6278 -1.1233
  137OSM    H1S14906   6.477   2.452   6.332  3.1140 -0.2485 -0.0768
  137OSM    H1T14907   6.344   2.348   6.271  0.3604 -1.3771 -0.3378
  137OSM     NF14908   6.536   2.424   6.087  0.1893 -0.2363  0.3078
  137OSM    HNF14909   6.471   2.421   6.012  1.0544 -2.9695 -0.4540
  137OSM    C2S14910   6.536   2.309   6.173  0.6159 -0.8661  0.3345
  137OSM    H2S14911   6.640   2.285   6.204  1.4805  1.8436 -0.1720
  137OSM    C3S14912   6.462   2.184   6.110  0.4293 -0.8409 -0.1232
  137OSM    H3S14913   6.356   2.219   6.103  0.8611  1.0286  1.7461
  137OSM     O314914   6.435   2.066   6.187 -0.9794  0.0236 -0.3522
  137OSM    HO314915   6.461   2.092   6.276  0.3838 -1.5878 -0.2355
  137OSM    C4S14916   6.511   2.154   5.974 -0.8081 -0.3608  0.1632
  137OSM    H4S14917   6.446   2.200   5.898  0.7651  0.3055 -0.8278
  137OSM    C5S14918   6.627   2.083   5.940  0.4131  0.2067 -0.2971
  137OSM    H5S14919   6.692   2.041   6.017  1.3888  1.8272 -0.1998
  137OSM    C6S14920   6.676   2.067   5.802 -0.9484  0.2893  0.1795
  137OSM    H6S14921   6.658   1.959   5.783 -1.1589 -0.0410  2.1000
  137OSM    H6T14922   6.785   2.086   5.792 -1.1944  2.0904  0.4560
  137OSM    C7S14923   6.609   2.142   5.686  0.4392 -0.2222  0.1735
  137OSM    H7S14924   6.620   2.251   5.704  0.5868 -0.2691  0.3784
  137OSM    H7T14925   6.500   2.119   5.693  0.8908 -4.2590 -2.3983
  137OSM    C8S14926   6.670   2.114   5.547 -0.0914 -0.9050 -0.6977
  137OSM    H8S14927   6.668   2.005   5.525  1.1329 -1.5360  1.8760
  137OSM    H8T14928   6.772   2.157   5.559 -0.7884  0.5708  0.1689
  137OSM    C9S14929   6.590   2.195   5.448  0.1207 -0.0686  0.1717
  137OSM    H9S14930   6.601   2.302   5.475  0.5710 -0.9206  3.8817
  137OSM    H9T14931   6.482   2.168   5.447  0.7734 -3.0471 -1.4943
  137OSM   C10S14932   6.639   2.175   5.303  0.0113 -0.5522 -0.2992
  137OSM   H10S14933   6.648   2.065   5.289  0.5981 -0.7603  1.4522
  137OSM   H10T14934   6.736   2.227   5.291 -0.2557  0.0798  0.2244
  137OSM   C11S14935   6.537   2.243   5.205 -0.7038  0.1912 -0.0668
  137OSM   H11S14936   6.523   2.351   5.227  0.0033  0.3204 -0.2353
  137OSM   H11T14937   6.439   2.194   5.222 -0.4641 -0.2144  0.1483
  137OSM   C12S14938   6.579   2.226   5.061 -0.5191 -0.6964  0.4782
  137OSM   H12S14939   6.577   2.119   5.030  1.0986 -0.9275  1.0734
  137OSM   H12T14940   6.682   2.264   5.045 -1.2348  1.6574  1.0196
  137OSM   C13S14941   6.493   2.302   4.962  0.0390  0.6400  0.0544
  137OSM   H13S14942   6.516   2.410   4.968  3.0741  0.1212 -0.5428
  137OSM   H13T14943   6.387   2.281   4.989 -0.1727  2.5512  0.8733
  137OSM   C14S14944   6.532   2.263   4.813  0.1730  0.0328 -0.5415
  137OSM   H14S14945   6.524   2.153   4.805  1.1391 -0.1735  0.9470
  137OSM   H14T14946   6.640   2.273   4.788 -0.2221  0.2492 -2.2801
  137OSM   C15S14947   6.455   2.324   4.690 -0.5964  0.3928  0.2293
  137OSM   H15S14948   6.510   2.281   4.604  0.0502  0.6390  0.5102
  137OSM   H15T14949   6.473   2.434   4.690  3.2560 -0.0943 -0.8753
  137OSM   C16S14950   6.300   2.294   4.697  0.7921 -0.3623  0.1115
  137OSM   H16S14951   6.251   2.327   4.791 -1.9646 -0.9922 -0.9975
  137OSM   H16T14952   6.290   2.184   4.680  1.5121 -0.0781 -2.5850
  137OSM   C17S14953   6.215   2.377   4.601 -0.2402  0.2659  0.3581
  137OSM   H17S14954   6.246   2.354   4.497  0.5162  0.4185  0.5430
  137OSM   H17T14955   6.257   2.480   4.611  0.5307  0.0143 -0.2168
  137OSM   C18S14956   6.067   2.368   4.614 -0.2547  0.3967  0.4898
  137OSM   H18S14957   6.037   2.261   4.600 -0.1488  0.4682 -0.3505
  137OSM   H18T14958   6.016   2.408   4.524  0.9259  1.1442  0.1372
  137OSM   H18U14959   6.024   2.411   4.706  1.1966  1.2253  0.8014
  137OSM    C1F14960   6.606   2.544   6.113  0.3802 -0.3026 -0.2036
  137OSM     OF14961   6.691   2.552   6.202  0.2314  0.2122 -0.1406
  137OSM    C2F14962   6.563   2.659   6.029 -0.3365 -0.4537  0.4459
  137OSM    H2F14963   6.477   2.711   6.077 -0.1418  0.5527 -0.2773
  137OSM    H2G14964   6.530   2.621   5.930  0.7156  2.0328 -0.9386
  137OSM    C3F14965   6.678   2.764   6.011 -0.1096 -1.1125 -0.3276
  137OSM    H3F14966   6.770   2.717   5.970  0.2505 -0.4173 -0.3232
  137OSM    H3G14967   6.695   2.817   6.107 -0.2835 -1.1146 -0.2961
  137OSM    C4F14968   6.636   2.876   5.910 -0.4022  0.5459 -0.2968
  137OSM    H4F14969   6.541   2.923   5.942 -0.5674  1.1243 -1.5556
  137OSM    H4G14970   6.616   2.829   5.812 -0.5821  2.1188 -1.0540
  137OSM    C5F14971   6.747   2.972   5.884 -0.7470 -0.4415 -0.0763
  137OSM    H5F14972   6.837   2.911   5.860  0.0551  0.5123  0.4496
  137OSM    H5G14973   6.774   3.029   5.975 -2.6596  0.7234 -0.1933
  137OSM    C6F14974   6.718   3.067   5.768  0.2540  0.3947  0.2886
  137OSM    H6F14975   6.629   3.131   5.786  0.3632  0.2291  1.4759
  137OSM    H6G14976   6.704   3.001   5.680 -0.4018 -0.9566  1.3669
  137OSM    C7F14977   6.840   3.162   5.749  0.6758 -0.2624  0.1152
  137OSM    H7F14978   6.931   3.101   5.732 -0.8869 -2.6731 -0.0504
  137OSM    H7G14979   6.849   3.233   5.834 -0.2544 -0.2467  0.2129
  137OSM    C8F14980   6.824   3.255   5.630 -0.0458 -0.1103  0.1644
  137OSM    H8F14981   6.732   3.314   5.646  0.7393  1.0058  0.6936
  137OSM    H8G14982   6.811   3.196   5.537 -1.0539  0.0014  0.2206
  137OSM    C9F14983   6.939   3.354   5.618  0.4746 -0.5419 -0.1704
  137OSM    H9F14984   7.003   3.370   5.706  1.3785 -2.1261 -0.4995
  137OSM   C10F14985   6.984   3.409   5.501 -0.2700  0.1910  0.2906
  137OSM   H10F14986   7.074   3.471   5.488  0.7098 -0.9204  1.4758
  137OSM   C11F14987   6.910   3.404   5.364 -0.1033 -0.1543  0.2073
  137OSM   H11F14988   6.802   3.410   5.388 -0.1112  1.9436 -0.1447
  137OSM   H11G14989   6.931   3.309   5.310 -0.7533 -0.1262 -0.1020
  137OSM   C12F14990   6.946   3.525   5.272 -1.0938  1.0718 -0.5782
  137OSM   H12F14991   7.054   3.515   5.246 -1.3341 -0.8383 -1.0275
  137OSM   H12G14992   6.920   3.625   5.312  2.5792  1.7813  0.4238
  137OSM   C13F14993   6.872   3.504   5.144 -0.0433  0.9842  0.0794
  137OSM   H13F14994   6.764   3.496   5.170  0.4346  1.6256  2.5455
  137OSM   H13G14995   6.911   3.408   5.104  0.7658  0.6251  1.6353
  137OSM   C14F14996   6.877   3.623   5.057  0.2956 -0.6130  0.8219
  137OSM   H14F14997   6.983   3.654   5.049  0.5369 -1.2604  1.4329
  137OSM   H14G14998   6.817   3.702   5.108  0.0138 -0.7897  0.7658
  137OSM   C15F14999   6.816   3.593   4.919 -0.0671 -0.3724 -0.0390
  137OSM   H15F15000   6.711   3.561   4.940  0.0081 -0.2992  0.4669
  137OSM   H15G15001   6.885   3.520   4.873  0.7840  0.9844 -0.9761
  137OSM   C16F15002   6.812   3.721   4.828  0.1116  0.7217  0.0955
  137OSM   H16F15003   6.910   3.768   4.811  0.6397 -0.9133 -1.7683
  137OSM   H16G15004   6.746   3.795   4.879 -0.1091  1.0369 -0.6459
  137OSM   C17F15005   6.750   3.697   4.686 -0.3877 -0.2674  0.5234
  137OSM   H17F15006   6.657   3.637   4.697 -0.6359  0.1449  0.6974
  137OSM   H17G15007   6.823   3.636   4.628 -0.0040 -0.6070  1.3448
  137OSM   C18F15008   6.736   3.838   4.618  0.8998 -0.1533 -0.2500
  137OSM   H18F15009   6.837   3.879   4.600  1.5424 -2.6150 -3.1360
  137OSM   H18G15010   6.685   3.900   4.694  2.0767 -1.7293  1.9536
  137OSM   H18H15011   6.682   3.822   4.522 -2.9308 -1.7423  1.9266
  138OSM      N15012   1.807   1.419   6.827 -0.2193 -0.2388 -0.5363
  138OSM    C1515013   1.724   1.344   6.933  0.4418  0.4504  0.3072
  138OSM   H15A15014   1.754   1.373   7.033 -1.6569  0.0248  1.1040
  138OSM   H15B15015   1.745   1.239   6.922 -1.6054 -0.0117  0.3902
  138OSM   H15C15016   1.619   1.368   6.933 -0.2891 -2.3889  0.5752
  138OSM    C1415017   1.796   1.564   6.851 -0.3703 -0.4247 -0.1796
  138OSM   H14A15018   1.847   1.632   6.785 -2.7002  1.1767 -0.4776
  138OSM   H14B15019   1.829   1.600   6.947 -3.5616 -0.3013  1.0055
  138OSM   H14C15020   1.691   1.590   6.849 -0.3045 -0.1979 -1.2851
  138OSM    C1315021   1.953   1.372   6.842  0.4740  0.1022  0.4588
  138OSM   H13A15022   1.955   1.271   6.802 -1.8430 -0.1030  0.7301
  138OSM   H13B15023   1.996   1.373   6.941 -0.5245 -0.2181  0.9152
  138OSM   H13C15024   2.020   1.436   6.787  0.0816 -0.0783 -0.2469
  138OSM    C1215025   1.769   1.375   6.684 -0.4251 -0.0222  0.2914
  138OSM   H12A15026   1.773   1.267   6.687  1.2704 -0.0337 -0.9094
  138OSM   H12B15027   1.845   1.398   6.611  0.6408  1.2656  1.7440
  138OSM    C1115028   1.631   1.413   6.628 -0.3159 -0.4588  0.1844
  138OSM   H11A15029   1.548   1.373   6.689 -0.1729  0.3556  0.9422
  138OSM   H11B15030   1.620   1.367   6.528 -1.9905 -3.7341  1.7064
  138OSM      P15031   1.506   1.646   6.617 -0.2723  0.7963  0.1412
  138OSM    O1315032   1.401   1.588   6.704  0.2086  0.1551 -0.0923
  138OSM    O1415033   1.547   1.781   6.647  0.2169 -0.1018  0.2046
  138OSM    O1115034   1.435   1.634   6.474  0.1106  0.0846  0.1643
  138OSM    O1215035   1.624   1.553   6.605 -1.0803  0.7442 -0.5063
  138OSM    C1S15036   1.526   1.661   6.361  0.3709  0.3950 -0.8301
  138OSM    H1S15037   1.625   1.704   6.386  0.1308 -0.3671  1.7501
  138OSM    H1T15038   1.477   1.734   6.292  0.7957  0.7946 -0.7125
  138OSM     NF15039   1.598   1.571   6.145 -0.1893 -0.0587 -0.1769
  138OSM    HNF15040   1.526   1.579   6.077 -1.2222  1.2020  1.0225
  138OSM    C2S15041   1.543   1.532   6.275 -0.2680 -0.0019  1.1659
  138OSM    H2S15042   1.627   1.474   6.320 -0.4378 -0.3813  0.9964
  138OSM    C3S15043   1.411   1.450   6.259  0.2678 -0.4469 -0.4294
  138OSM    H3S15044   1.337   1.516   6.209 -0.2886 -0.8380 -0.1278
  138OSM     O315045   1.370   1.402   6.384  0.3673  0.8884  0.2449
  138OSM    HO315046   1.400   1.468   6.446  0.8641 -0.9535  2.0538
  138OSM    C4S15047   1.426   1.328   6.171  0.4604  1.1684 -0.0084
  138OSM    H4S15048   1.352   1.331   6.090  0.5143 -0.3167 -0.1448
  138OSM    C5S15049   1.503   1.217   6.187  0.5701 -0.2500  0.3194
  138OSM    H5S15050   1.564   1.191   6.275 -1.6485 -0.3327  1.9226
  138OSM    C6S15051   1.484   1.098   6.096 -1.0438  0.4423 -0.5986
  138OSM    H6S15052   1.400   1.033   6.127  0.4335 -1.7192 -0.9309
  138OSM    H6T15053   1.577   1.041   6.074 -0.8850  0.5733 -0.2676
  138OSM    C7S15054   1.445   1.133   5.950 -0.3115  0.5202 -0.1342
  138OSM    H7S15055   1.529   1.196   5.915 -0.2172  0.6054  0.2493
  138OSM    H7T15056   1.350   1.186   5.928 -0.7545 -0.9882 -2.1818
  138OSM    C8S15057   1.439   1.005   5.857  0.0955 -1.1625  0.0548
  138OSM    H8S15058   1.377   0.931   5.911 -0.1253 -0.2986  1.0092
  138OSM    H8T15059   1.535   0.950   5.845  0.0074 -0.9976 -1.6533
  138OSM    C9S15060   1.385   1.033   5.715  0.8073  0.0691  0.3077
  138OSM    H9S15061   1.468   1.086   5.664 -0.7130 -0.7382 -3.2809
  138OSM    H9T15062   1.302   1.106   5.699  0.9359 -0.0756 -1.1243
  138OSM   C10S15063   1.341   0.901   5.647 -0.2728 -0.0027  0.2318
  138OSM   H10S15064   1.259   0.855   5.706 -0.7287  0.9566  0.3637
  138OSM   H10T15065   1.431   0.836   5.652  0.2255  0.4620 -1.6644
  138OSM   C11S15066   1.306   0.919   5.496  0.8075  0.0711 -0.4961
  138OSM   H11S15067   1.230   0.999   5.482  0.9144 -0.0730 -2.0692
  138OSM   H11T15068   1.279   0.816   5.464  0.8321  0.4177 -1.6929
  138OSM   C12S15069   1.436   0.946   5.419 -0.4609 -0.5991 -0.0313
  138OSM   H12S15070   1.510   0.864   5.431  1.0749  0.3037 -2.6094
  138OSM   H12T15071   1.480   1.032   5.474 -2.2383 -0.7999  1.8589
  138OSM   C13S15072   1.404   0.971   5.271  0.3854 -0.0424 -0.3482
  138OSM   H13S15073   1.379   1.079   5.268 -1.3703 -0.4353 -0.7866
  138OSM   H13T15074   1.322   0.912   5.225 -0.1288  0.2421  0.2043
  138OSM   C14S15075   1.530   0.936   5.189 -0.4105 -0.2024 -0.2537
  138OSM   H14S15076   1.552   0.829   5.208  1.5015  0.0459 -0.8889
  138OSM   H14T15077   1.615   0.989   5.237  1.8894 -5.0390  1.7385
  138OSM   C15S15078   1.527   0.954   5.042  0.8145 -0.0421  0.3791
  138OSM   H15S15079   1.623   0.913   5.002  0.5012 -0.1113 -0.3127
  138OSM   H15T15080   1.521   1.060   5.010 -0.4062 -0.2071  0.0182
  138OSM   C16S15081   1.418   0.872   4.963 -0.3525  0.8101 -0.1811
  138OSM   H16S15082   1.326   0.922   5.001  0.1791  2.5265 -1.0473
  138OSM   H16T15083   1.427   0.768   5.000  0.8123  1.6756  2.2258
  138OSM   C17S15084   1.428   0.901   4.811  0.4878  0.0378  0.2220
  138OSM   H17S15085   1.531   0.871   4.779  0.4194  0.6882 -0.6481
  138OSM   H17T15086   1.428   1.009   4.785 -0.9097 -0.5582 -2.5944
  138OSM   C18S15087   1.326   0.839   4.725  0.3244  0.1968  0.6825
  138OSM   H18S15088   1.330   0.731   4.750 -3.2591 -0.9926 -2.8598
  138OSM   H18T15089   1.344   0.853   4.616 -1.0562  0.6991  0.5050
  138OSM   H18U15090   1.230   0.881   4.760 -0.0672  0.0826 -0.2250
  138OSM    C1F15091   1.725   1.613   6.123 -0.2257  0.7071  0.3997
  138OSM     OF15092   1.812   1.609   6.213 -0.0758 -0.1614  0.1116
  138OSM    C2F15093   1.752   1.666   5.984  1.3520 -0.0251  0.2628
  138OSM    H2F15094   1.684   1.754   5.979  0.9893 -0.3441 -0.5237
  138OSM    H2G15095   1.734   1.589   5.907  0.0887  3.3971 -3.1673
  138OSM    C3F15096   1.901   1.700   5.973  0.7520 -0.8909  0.1935
  138OSM    H3F15097   1.961   1.628   6.033 -0.8944 -1.6876  0.9543
  138OSM    H3G15098   1.907   1.801   6.019 -4.9307 -0.7533  1.3660
  138OSM    C4F15099   1.960   1.686   5.828 -0.1950 -0.1426  0.3301
  138OSM    H4F15100   1.976   1.578   5.807 -2.4951 -0.5473  0.3380
  138OSM    H4G15101   2.059   1.733   5.816 -0.8081  0.5872 -2.5315
  138OSM    C5F15102   1.873   1.729   5.710 -0.4633 -0.0352 -0.2332
  138OSM    H5F15103   1.865   1.840   5.714 -1.9532 -0.0833 -1.1519
  138OSM    H5G15104   1.772   1.684   5.701  0.0333 -1.2418 -0.0344
  138OSM    C6F15105   1.935   1.690   5.572  0.6544 -0.4830  0.3411
  138OSM    H6F15106   1.920   1.580   5.563  0.1804 -0.3856 -0.0839
  138OSM    H6G15107   2.042   1.718   5.586  1.0752 -1.4734 -0.7927
  138OSM    C7F15108   1.878   1.773   5.454  0.3909  0.1863  0.2579
  138OSM    H7F15109   1.875   1.879   5.486  3.5881  0.5537 -0.3337
  138OSM    H7G15110   1.770   1.747   5.446  0.9578 -2.1211 -0.6152
  138OSM    C8F15111   1.948   1.756   5.321 -0.1768  0.1818  0.1784
  138OSM    H8F15112   2.050   1.801   5.326  0.2931 -0.6705 -1.1702
  138OSM    H8G15113   1.899   1.812   5.238 -0.9072  0.0224  0.4958
  138OSM    C9F15114   1.966   1.615   5.286  0.4303  0.8137 -0.1658
  138OSM    H9F15115   2.016   1.557   5.365 -0.0903 -1.8381 -1.6591
  138OSM   C10F15116   1.931   1.548   5.171 -0.1369 -0.4700 -0.6486
  138OSM   H10F15117   1.954   1.440   5.170  1.0719 -0.2271 -0.1158
  138OSM   C11F15118   1.834   1.611   5.077 -0.1592 -0.4516  0.6557
  138OSM   H11F15119   1.834   1.722   5.077  1.8708 -0.3737 -1.4500
  138OSM   H11G15120   1.732   1.581   5.109 -0.8898 -0.3780 -1.4593
  138OSM   C12F15121   1.848   1.576   4.928 -0.1994 -0.0913 -0.7423
  138OSM   H12F15122   1.856   1.465   4.921 -1.8428 -0.2957  0.3547
  138OSM   H12G15123   1.942   1.616   4.884 -0.4684  0.7933 -0.5342
  138OSM   C13F15124   1.734   1.629   4.844  0.1775 -0.0435 -1.0473
  138OSM   H13F15125   1.731   1.738   4.867  1.4879 -0.3937  1.0463
  138OSM   H13G15126   1.643   1.592   4.895  1.8058 -0.2688  1.8916
  138OSM   C14F15127   1.752   1.605   4.690  0.8479  0.8229  0.2432
  138OSM   H14F15128   1.665   1.645   4.634 -0.1739 -0.2320  1.0346
  138OSM   H14G15129   1.763   1.497   4.668 -0.1668  0.6545  0.4948
  138OSM   C15F15130   1.878   1.660   4.626  0.3686 -0.7216  0.2465
  138OSM   H15F15131   1.893   1.621   4.524 -0.7331  0.5816 -0.4540
  138OSM   H15G15132   1.965   1.621   4.684  1.2539  0.8746  0.0426
  138OSM   C16F15133   1.897   1.810   4.618 -0.1114  0.2110 -0.1791
  138OSM   H16F15134   1.884   1.840   4.724 -1.2264 -3.0945  0.7248
  138OSM   H16G15135   1.817   1.860   4.559 -0.7997 -0.1985  0.3894
  138OSM   C17F15136   2.043   1.844   4.586  0.9769  0.1748 -0.0159
  138OSM   H17F15137   2.054   1.950   4.554  1.4613 -0.0059 -0.4502
  138OSM   H17G15138   2.082   1.782   4.502  3.1170  1.5885 -0.1289
  138OSM   C18F15139   2.146   1.818   4.697  0.4269 -0.0231 -0.5098
  138OSM   H18F15140   2.120   1.880   4.786  1.0266  0.9338 -0.9764
  138OSM   H18G15141   2.238   1.863   4.653 -1.0483  3.2476 -0.5859
  138OSM   H18H15142   2.159   1.714   4.733 -1.3203 -0.7779 -1.9471
  139OSM      N15143   3.509   6.822   7.407  0.2018 -0.1195 -0.4547
  139OSM    C1515144   3.450   6.684   7.367 -0.4711  0.1800 -0.0743
  139OSM   H15A15145   3.354   6.691   7.318 -2.0991 -1.1903  2.6352
  139OSM   H15B15146   3.436   6.618   7.452  2.1831  1.3969  1.4301
  139OSM   H15C15147   3.526   6.636   7.308  2.3946  3.7085  0.4100
  139OSM    C1415148   3.410   6.885   7.498  0.6233  0.6335 -0.0108
  139OSM   H14A15149   3.319   6.905   7.443 -0.1385 -0.6884  0.6943
  139OSM   H14B15150   3.452   6.971   7.546  0.3360  1.4026 -1.1115
  139OSM   H14C15151   3.369   6.818   7.573 -0.1426  0.4145 -0.6110
  139OSM    C1315152   3.628   6.796   7.496  0.2909 -0.0707 -0.6985
  139OSM   H13A15153   3.696   6.878   7.515 -1.3882  0.7359  2.5723
  139OSM   H13B15154   3.685   6.715   7.452 -1.1117 -0.5547 -1.7197
  139OSM   H13C15155   3.594   6.763   7.593 -0.9396  0.0557 -1.0718
  139OSM    C1215156   3.540   6.900   7.284 -0.4360  0.7656  0.3667
  139OSM   H12A15157   3.459   6.886   7.214  0.5255  0.4461 -0.7163
  139OSM   H12B15158   3.624   6.856   7.233  0.0397  2.3330 -0.2622
  139OSM    C1115159   3.563   7.051   7.296 -0.5032  0.8570 -0.3297
  139OSM   H11A15160   3.626   7.100   7.219 -0.1776  1.1424  0.1147
  139OSM   H11B15161   3.624   7.046   7.389 -1.0261 -3.3007 -0.0445
  139OSM      P15162   3.357   7.149   7.187  0.4060  0.4995 -0.1501
  139OSM    O1315163   3.285   7.023   7.160 -0.4273 -0.1701 -0.0102
  139OSM    O1415164   3.278   7.274   7.220 -0.0030  0.7366  0.5556
  139OSM    O1115165   3.455   7.177   7.059 -0.4780 -0.2145  0.0449
  139OSM    O1215166   3.446   7.120   7.318  0.2346  0.1033 -0.0652
  139OSM    C1S15167   3.411   7.141   6.928  0.4764 -0.5502  0.2593
  139OSM    H1S15168   3.326   7.202   6.890  0.2120 -1.5994 -0.8939
  139OSM    H1T15169   3.385   7.033   6.927  0.3853 -0.6048  2.8308
  139OSM     NF15170   3.473   7.163   6.685  1.1622  0.3920  0.5321
  139OSM    HNF15171   3.485   7.080   6.631 -0.8078  0.6375 -0.3507
  139OSM    C2S15172   3.522   7.153   6.820  0.0359 -0.1689 -0.5107
  139OSM    H2S15173   3.582   7.241   6.852  0.0911 -0.9030  1.5057
  139OSM    C3S15174   3.619   7.035   6.841  0.4662  0.0070 -0.4881
  139OSM    H3S15175   3.563   6.940   6.829  0.9347 -0.7292  2.4491
  139OSM     O315176   3.659   6.996   6.976 -0.0172 -0.4450  0.2812
  139OSM    HO315177   3.590   7.050   7.015  0.9236  2.2709 -1.5377
  139OSM    C4S15178   3.733   7.044   6.756 -0.2692  0.7007 -0.0824
  139OSM    H4S15179   3.801   7.119   6.798  0.4748 -0.5193  0.9696
  139OSM    C5S15180   3.771   6.945   6.664  0.1163  0.4418 -0.3115
  139OSM    H5S15181   3.697   6.868   6.639  0.2603 -0.5514  2.0962
  139OSM    C6S15182   3.907   6.931   6.601 -0.4192 -0.4254 -0.2978
  139OSM    H6S15183   3.944   6.830   6.627 -0.0946 -0.9566 -2.6332
  139OSM    H6T15184   3.981   7.009   6.632 -1.8496  1.3927 -1.2564
  139OSM    C7S15185   3.905   6.951   6.446 -0.4085  0.3513 -0.5760
  139OSM    H7S15186   3.811   6.899   6.419 -0.4931 -0.5724  1.2775
  139OSM    H7T15187   3.988   6.890   6.404 -0.1883  0.6980 -0.6495
  139OSM    C8S15188   3.897   7.099   6.396 -0.3184 -0.3301  0.1094
  139OSM    H8S15189   3.990   7.104   6.334  0.0761 -1.5521  0.5721
  139OSM    H8T15190   3.907   7.175   6.476  0.0807 -0.8169  0.5327
  139OSM    C9S15191   3.773   7.131   6.312  0.4097  0.0302  0.0813
  139OSM    H9S15192   3.781   7.242   6.305 -0.7190  0.1366  0.2422
  139OSM    H9T15193   3.687   7.112   6.379  0.3564 -1.5728 -0.4034
  139OSM   C10S15194   3.761   7.055   6.181  0.5916  0.3612  0.6232
  139OSM   H10S15195   3.670   7.093   6.129  0.4136 -0.1023  0.5916
  139OSM   H10T15196   3.732   6.952   6.211 -0.8246  0.6810  0.4251
  139OSM   C11S15197   3.879   7.073   6.085  0.2428 -0.3069  0.3217
  139OSM   H11S15198   3.974   7.036   6.128  1.0178  2.8284  1.6171
  139OSM   H11T15199   3.899   7.181   6.070  0.2046 -0.3209  0.1685
  139OSM   C12S15200   3.850   7.005   5.950 -0.2787 -0.3879  0.7912
  139OSM   H12S15201   3.762   7.052   5.901  1.7664 -0.4312 -3.3620
  139OSM   H12T15202   3.825   6.897   5.950 -2.3281 -0.0247 -2.1666
  139OSM   C13S15203   3.958   7.027   5.840 -0.1165  0.1219  0.2769
  139OSM   H13S15204   4.038   6.953   5.862  0.9004  0.1931 -2.6798
  139OSM   H13T15205   3.999   7.131   5.845 -0.2538  0.1432  1.2085
  139OSM   C14S15206   3.916   6.997   5.691  0.2410 -0.4823  0.1308
  139OSM   H14S15207   3.830   7.066   5.671 -0.2558 -0.9124  0.7336
  139OSM   H14T15208   3.885   6.891   5.683  0.4411 -0.4952 -0.4932
  139OSM   C15S15209   4.044   7.030   5.604  0.2859  0.0839  0.0831
  139OSM   H15S15210   4.125   6.959   5.633  1.1451 -0.0806 -2.4823
  139OSM   H15T15211   4.089   7.128   5.629  0.2028  0.5442 -1.4795
  139OSM   C16S15212   4.012   6.993   5.454 -0.6827 -0.2498  0.0456
  139OSM   H16S15213   3.911   7.034   5.432 -0.8850 -0.5677  0.3851
  139OSM   H16T15214   4.008   6.884   5.433 -1.0889 -0.2036 -0.1303
  139OSM   C17S15215   4.102   7.069   5.357 -0.3764 -0.3700 -0.0806
  139OSM   H17S15216   4.206   7.041   5.386 -0.2660  1.3540  1.3687
  139OSM   H17T15217   4.091   7.178   5.374  1.1107  0.3347 -2.8828
  139OSM   C18S15218   4.087   7.049   5.203 -0.0967 -0.0788  0.2238
  139OSM   H18S15219   4.165   7.108   5.150  0.3524 -1.8826 -1.2109
  139OSM   H18T15220   3.986   7.083   5.174  0.0336 -0.1935 -0.3756
  139OSM   H18U15221   4.101   6.941   5.182 -0.4934 -0.2765  0.9540
  139OSM    C1F15222   3.415   7.272   6.632 -0.0417  0.5164 -0.2774
  139OSM     OF15223   3.391   7.373   6.707 -0.6836 -0.1554 -0.2458
  139OSM    C2F15224   3.358   7.261   6.488 -0.2949 -0.0256 -0.5399
  139OSM    H2F15225   3.249   7.277   6.497 -0.1166  1.0412 -0.1186
  139OSM    H2G15226   3.402   7.166   6.451  1.5301  0.3701  0.4903
  139OSM    C3F15227   3.424   7.371   6.413 -0.1335  0.2729  0.1170
  139OSM    H3F15228   3.535   7.366   6.418 -0.1762  0.4925  2.2236
  139OSM    H3G15229   3.390   7.463   6.465 -1.4404 -0.3868  0.4830
  139OSM    C4F15230   3.369   7.382   6.269  0.4089  0.5899  0.2897
  139OSM    H4F15231   3.382   7.489   6.241  0.3518  0.4708 -0.1996
  139OSM    H4G15232   3.258   7.377   6.272  0.3754  1.4937  1.4024
  139OSM    C5F15233   3.417   7.269   6.173  0.1982  0.1892  0.3963
  139OSM    H5F15234   3.386   7.167   6.204 -2.3969  0.6776 -0.3054
  139OSM    H5G15235   3.527   7.280   6.164  0.5348 -0.5291  2.7273
  139OSM    C6F15236   3.364   7.289   6.030  0.4593  0.4870  0.2080
  139OSM    H6F15237   3.397   7.385   5.984  1.2510 -0.6614 -1.7142
  139OSM    H6G15238   3.254   7.282   6.026  0.4378 -0.3183  1.5872
  139OSM    C7F15239   3.439   7.195   5.935 -0.2118  0.1885 -0.7788
  139OSM    H7F15240   3.433   7.092   5.976 -1.5934  0.5579 -0.0182
  139OSM    H7G15241   3.549   7.213   5.938 -0.1516  0.1830  3.4441
  139OSM    C8F15242   3.393   7.195   5.795  1.2232  0.2004 -0.0051
  139OSM    H8F15243   3.465   7.133   5.737  0.1112 -2.0230  0.8702
  139OSM    H8G15244   3.408   7.292   5.743  2.7149 -0.4018 -0.7716
  139OSM    C9F15245   3.255   7.136   5.781  0.3169 -0.4203 -0.0360
  139OSM    H9F15246   3.233   7.048   5.844 -1.3660 -1.2424 -1.6665
  139OSM   C10F15247   3.171   7.177   5.684  0.4784 -0.0321 -0.1869
  139OSM   H10F15248   3.074   7.126   5.677 -0.2310  1.3461 -0.7512
  139OSM   C11F15249   3.200   7.291   5.587 -0.7241  0.2806  0.2085
  139OSM   H11F15250   3.297   7.266   5.540 -1.2774 -2.7828  0.5004
  139OSM   H11G15251   3.211   7.385   5.645  0.0404 -0.2471  0.9403
  139OSM   C12F15252   3.109   7.307   5.460 -0.2535  0.7261  0.7664
  139OSM   H12F15253   3.163   7.385   5.404  1.9471 -1.1753  0.0754
  139OSM   H12G15254   3.007   7.343   5.486 -0.6864 -0.5133  0.8634
  139OSM   C13F15255   3.116   7.184   5.372 -0.2004  0.0352 -0.2951
  139OSM   H13F15256   3.048   7.102   5.407 -1.4700  1.1305 -0.0984
  139OSM   H13G15257   3.209   7.124   5.380  0.7964  1.7251  2.2133
  139OSM   C14F15258   3.061   7.224   5.235  0.1893  0.0146  0.1884
  139OSM   H14F15259   3.117   7.308   5.189 -0.4168  0.9661  1.1510
  139OSM   H14G15260   2.959   7.267   5.251  0.1884 -0.0217  0.2769
  139OSM   C15F15261   3.038   7.112   5.135 -0.1788 -0.4090 -0.7169
  139OSM   H15F15262   2.957   7.136   5.063 -1.7447  0.2951  1.1698
  139OSM   H15G15263   2.999   7.020   5.184 -1.5354  1.4897  2.0428
  139OSM   C16F15264   3.156   7.062   5.053  0.3340 -0.4135  0.5026
  139OSM   H16F15265   3.253   7.072   5.107  1.6113 -0.8468 -1.5709
  139OSM   H16G15266   3.166   7.127   4.964  1.7668 -0.8832  0.2961
  139OSM   C17F15267   3.148   6.922   4.996  0.6956 -0.4173 -0.6630
  139OSM   H17F15268   3.052   6.918   4.939 -0.3388 -0.9589  1.0414
  139OSM   H17G15269   3.138   6.857   5.086  0.1848  0.2210 -0.2441
  139OSM   C18F15270   3.262   6.870   4.914  0.0833 -1.0973 -0.1447
  139OSM   H18F15271   3.258   6.914   4.812  1.0532 -0.6915 -0.0167
  139OSM   H18G15272   3.238   6.761   4.911 -0.9335 -0.9277  0.9120
  139OSM   H18H15273   3.364   6.880   4.956 -1.1136 -2.6342  3.5427
  140OSM      N15274   6.034   2.887   6.605  0.2738  0.0351  0.1047
  140OSM    C1515275   5.998   3.021   6.667 -0.3592  0.2169 -0.1662
  140OSM   H15A15276   6.083   3.054   6.726 -1.6190  2.2844  0.6021
  140OSM   H15B15277   5.914   3.014   6.735  0.6155 -0.3192  1.0283
  140OSM   H15C15278   5.990   3.099   6.592 -3.1705  0.5698  0.4107
  140OSM    C1415279   6.036   2.783   6.708 -0.3409 -0.0901 -0.3042
  140OSM   H14A15280   6.088   2.692   6.683  1.3544  0.2804  1.5688
  140OSM   H14B15281   5.937   2.755   6.742  0.1661 -3.1059 -1.0631
  140OSM   H14C15282   6.085   2.815   6.799 -2.2455 -1.8234  1.4494
  140OSM    C1315283   5.938   2.858   6.488  0.3862  0.9054  0.0695
  140OSM   H13A15284   5.971   2.913   6.401  2.1315 -0.6508 -0.2928
  140OSM   H13B15285   5.837   2.886   6.516  1.0391  2.1543  1.3392
  140OSM   H13C15286   5.941   2.756   6.454 -0.2888  0.8450  0.1827
  140OSM    C1215287   6.168   2.893   6.553 -1.1165 -0.7831  0.3393
  140OSM   H12A15288   6.176   2.977   6.487  0.0189 -1.1952 -0.0746
  140OSM   H12B15289   6.189   2.804   6.495  0.5044  0.2466 -0.7603
  140OSM    C1115290   6.296   2.911   6.642 -0.7315 -0.4761  0.9858
  140OSM   H11A15291   6.381   2.922   6.571 -1.1784  0.3421  0.5609
  140OSM   H11B15292   6.319   2.818   6.699  0.2499 -0.5680  0.4653
  140OSM      P15293   6.384   3.150   6.719  0.0583  0.1334  0.3717
  140OSM    O1315294   6.324   3.260   6.801 -0.1045 -0.3819  0.6714
  140OSM    O1415295   6.527   3.106   6.740  0.2646  0.1651 -0.0576
  140OSM    O1115296   6.367   3.180   6.564 -0.3617  0.1601 -0.1504
  140OSM    O1215297   6.283   3.022   6.737  1.0076 -0.4379  0.7936
  140OSM    C1S15298   6.484   3.214   6.486  1.0537 -1.0228 -0.4341
  140OSM    H1S15299   6.564   3.139   6.500  0.3309 -1.3683  2.4844
  140OSM    H1T15300   6.521   3.312   6.524 -3.0459  1.0767 -1.2511
  140OSM     NF15301   6.339   3.339   6.326  0.0201 -0.2960 -0.0679
  140OSM    HNF15302   6.259   3.302   6.280  2.4139 -2.9537 -2.5668
  140OSM    C2S15303   6.438   3.228   6.343 -0.8117 -0.0615  0.1841
  140OSM    H2S15304   6.527   3.241   6.279 -0.6352 -2.9948 -0.2958
  140OSM    C3S15305   6.379   3.090   6.299 -0.2740  0.9238 -0.6533
  140OSM    H3S15306   6.279   3.064   6.340  0.6933 -0.4940  0.9336
  140OSM     O315307   6.461   2.977   6.317  0.2522  0.3361  0.1869
  140OSM    HO315308   6.541   3.022   6.345 -0.5107  0.7590  1.8543
  140OSM    C4S15309   6.354   3.111   6.154  0.0828 -0.2028  0.1632
  140OSM    H4S15310   6.436   3.150   6.091 -1.1515  2.6765  0.2025
  140OSM    C5S15311   6.240   3.089   6.086  0.5541  0.3942 -0.0004
  140OSM    H5S15312   6.154   3.051   6.142  0.4391  1.6157  0.6964
  140OSM    C6S15313   6.220   3.104   5.936  0.3399  0.1276  0.4296
  140OSM    H6S15314   6.300   3.169   5.894 -0.4245  0.8577  0.0668
  140OSM    H6T15315   6.124   3.151   5.905 -2.1223 -3.4230  1.9899
  140OSM    C7S15316   6.240   2.966   5.860  0.1693 -0.5446  0.3731
  140OSM    H7S15317   6.181   2.889   5.914  0.6565  0.6658  2.7532
  140OSM    H7T15318   6.349   2.947   5.852  0.4986  1.3809 -0.0424
  140OSM    C8S15319   6.192   2.972   5.718 -0.6248 -0.2291 -0.1288
  140OSM    H8S15320   6.083   2.988   5.702 -0.2173  1.6843 -1.3359
  140OSM    H8T15321   6.207   2.866   5.687 -0.8135 -0.7442  1.4260
  140OSM    C9S15322   6.281   3.051   5.630 -0.3266 -0.2044 -0.1694
  140OSM    H9S15323   6.316   3.139   5.688  0.5854 -0.1668 -0.7640
  140OSM    H9T15324   6.216   3.088   5.548 -1.8152 -2.1214  0.0837
  140OSM   C10S15325   6.396   2.973   5.569 -0.0581 -0.5630  0.0583
  140OSM   H10S15326   6.365   2.893   5.499 -2.0822 -0.3116  0.6036
  140OSM   H10T15327   6.447   2.921   5.653  0.2878  2.6938  2.0404
  140OSM   C11S15328   6.486   3.068   5.490  0.2230  0.1146 -0.9501
  140OSM   H11S15329   6.591   3.032   5.487 -0.2087 -1.3244  0.2118
  140OSM   H11T15330   6.483   3.165   5.545 -2.6868 -1.3536  1.8188
  140OSM   C12S15331   6.437   3.088   5.343 -0.7123  0.2900 -0.7425
  140OSM   H12S15332   6.342   3.144   5.337 -1.0237 -0.1500 -0.1101
  140OSM   H12T15333   6.409   2.988   5.303 -0.3786  0.5399 -1.6239
  140OSM   C13S15334   6.535   3.143   5.244 -0.1536 -0.2233  0.2908
  140OSM   H13S15335   6.556   3.252   5.252  0.5092 -0.2935 -0.4518
  140OSM   H13T15336   6.488   3.145   5.144 -1.2476  1.2464  0.7849
  140OSM   C14S15337   6.668   3.062   5.225  0.2717 -0.0151 -0.3826
  140OSM   H14S15338   6.646   2.954   5.238 -3.6916  0.6699 -0.1416
  140OSM   H14T15339   6.725   3.078   5.319  0.1891 -1.3386 -0.0917
  140OSM   C15S15340   6.756   3.085   5.113  0.4977 -0.1452  0.3016
  140OSM   H15S15341   6.767   3.195   5.109  0.8748 -0.2009 -0.7697
  140OSM   H15T15342   6.701   3.056   5.021 -0.2532 -0.7077  0.9200
  140OSM   C16S15343   6.883   3.013   5.118 -0.2601 -0.3615  0.0501
  140OSM   H16S15344   6.868   2.904   5.139 -0.8212 -0.3458 -0.2667
  140OSM   H16T15345   6.949   3.051   5.200  0.1181 -3.2964  1.2656
  140OSM   C17S15346   6.957   3.011   4.987  0.1259 -0.4035  0.8406
  140OSM   H17S15347   6.872   3.015   4.916 -0.0268  1.1435  1.0795
  140OSM   H17T15348   7.019   2.919   4.979 -0.7945 -0.8780 -1.8828
  140OSM   C18S15349   7.050   3.129   4.966  0.1774 -0.3019  0.5512
  140OSM   H18S15350   7.140   3.110   5.028  2.1026  1.3640 -1.5729
  140OSM   H18T15351   7.003   3.225   4.996 -1.6726 -1.2260  0.7853
  140OSM   H18U15352   7.076   3.143   4.859 -2.6523 -0.7443 -0.2593
  140OSM    C1F15353   6.371   3.469   6.344  0.2780  0.3587  0.7593
  140OSM     OF15354   6.480   3.505   6.394 -0.2652 -0.5563  0.1419
  140OSM    C2F15355   6.278   3.566   6.294  0.1115 -0.4640  0.0873
  140OSM    H2F15356   6.227   3.614   6.380 -2.9703  0.9332 -2.3267
  140OSM    H2G15357   6.197   3.518   6.234  0.2767  0.5681 -0.9977
  140OSM    C3F15358   6.344   3.695   6.225  0.0678 -0.0980  0.4228
  140OSM    H3F15359   6.409   3.650   6.147 -0.3360  0.0558 -0.0042
  140OSM    H3G15360   6.404   3.747   6.302  1.0225 -1.2243  0.4759
  140OSM    C4F15361   6.250   3.792   6.163 -0.6282  0.6193  0.4774
  140OSM    H4F15362   6.296   3.891   6.147 -1.4840  1.1613  1.2608
  140OSM    H4G15363   6.166   3.806   6.234 -0.5181 -0.3280  0.8120
  140OSM    C5F15364   6.195   3.743   6.029 -0.3265  0.1712 -0.3558
  140OSM    H5F15365   6.143   3.646   6.046  0.4714 -0.1156  0.5713
  140OSM    H5G15366   6.279   3.732   5.957 -0.7904 -0.9265 -0.7584
  140OSM    C6F15367   6.082   3.830   5.981  0.3009 -0.1543 -0.7422
  140OSM    H6F15368   5.996   3.832   6.051  0.0044  0.2695 -1.1102
  140OSM    H6G15369   6.045   3.791   5.883 -1.4700 -0.2698 -0.0575
  140OSM    C7F15370   6.117   3.975   5.958 -0.1547 -0.3772 -0.4212
  140OSM    H7F15371   6.188   3.970   5.872  0.0525  1.2583 -0.3717
  140OSM    H7G15372   6.161   4.035   6.040 -0.8512  1.4033 -1.2926
  140OSM    C8F15373   5.999   4.071   5.915 -0.0835 -0.5388 -0.2905
  140OSM    H8F15374   5.975   4.031   5.814 -0.8499  1.0679 -0.7881
  140OSM    H8G15375   6.029   4.177   5.901 -0.3058 -0.3280  0.7519
  140OSM    C9F15376   5.882   4.066   6.007 -0.6136  0.5259 -0.4840
  140OSM    H9F15377   5.890   4.131   6.096  4.5123  0.4269 -0.5847
  140OSM   C10F15378   5.764   4.008   5.983 -0.9121  0.7329  0.0885
  140OSM   H10F15379   5.696   4.001   6.069  1.2253  0.1271  1.8203
  140OSM   C11F15380   5.744   3.906   5.871 -0.1785  0.6924  0.2170
  140OSM   H11F15381   5.759   3.804   5.914 -2.5183  0.4027  0.4865
  140OSM   H11G15382   5.817   3.920   5.788 -0.2405  1.3601  0.2724
  140OSM   C12F15383   5.602   3.925   5.808  0.8562 -0.6127  0.2225
  140OSM   H12F15384   5.590   4.031   5.775  0.7041 -0.8313 -0.4346
  140OSM   H12G15385   5.523   3.900   5.883  1.2914  0.0823  0.9276
  140OSM   C13F15386   5.581   3.836   5.682  0.3270  0.0194  0.1826
  140OSM   H13F15387   5.473   3.812   5.675  0.2942  0.1889  0.0935
  140OSM   H13G15388   5.629   3.737   5.700  0.1860 -0.4821 -1.8663
  140OSM   C14F15389   5.622   3.909   5.558  0.3548  0.2640  0.4700
  140OSM   H14F15390   5.732   3.914   5.542  0.1444  0.1094 -1.2911
  140OSM   H14G15391   5.578   4.011   5.557 -0.5118 -0.0939  0.6113
  140OSM   C15F15392   5.566   3.844   5.431 -0.6085 -0.4000  0.1458
  140OSM   H15F15393   5.458   3.865   5.445  0.3270  3.7416  3.1240
  140OSM   H15G15394   5.590   3.735   5.425 -0.0211 -0.2016 -1.8861
  140OSM   C16F15395   5.604   3.898   5.292 -0.3252 -0.3557 -0.0570
  140OSM   H16F15396   5.714   3.903   5.277 -0.1009 -0.8372  1.2931
  140OSM   H16G15397   5.572   4.004   5.285 -0.7487 -0.5820 -5.0213
  140OSM   C17F15398   5.545   3.813   5.179  0.2010  0.5536 -1.1250
  140OSM   H17F15399   5.434   3.820   5.180 -0.1724 -3.0547  0.7907
  140OSM   H17G15400   5.580   3.708   5.188 -0.1108  0.4931 -0.5536
  140OSM   C18F15401   5.603   3.874   5.048  0.1902  0.5267 -0.0160
  140OSM   H18F15402   5.589   3.800   4.966 -2.3851 -0.3808  1.1407
  140OSM   H18G15403   5.713   3.890   5.057  0.1437  1.5150 -0.9171
  140OSM   H18H15404   5.541   3.961   5.019  0.6828  0.1893 -2.2436
  141OSM      N15405   6.860   1.564   6.351  0.1620 -0.2728  0.5566
  141OSM    C1515406   6.919   1.444   6.296  0.0970  0.0731  0.3407
  141OSM   H15A15407   7.015   1.420   6.338  0.4448 -1.4361 -1.1775
  141OSM   H15B15408   6.940   1.471   6.193  1.1252  2.1798  1.0458
  141OSM   H15C15409   6.850   1.362   6.304 -0.6191  0.6278 -0.0306
  141OSM    C1415410   6.966   1.673   6.355  0.9553 -0.2581 -0.0785
  141OSM   H14A15411   7.065   1.644   6.388  1.6579  2.3598  0.3566
  141OSM   H14B15412   6.943   1.769   6.398  1.4323 -0.2212  0.1048
  141OSM   H14C15413   6.989   1.690   6.251 -0.7024 -2.7008 -0.9465
  141OSM    C1315414   6.750   1.609   6.267 -0.5565  0.6122 -0.1624
  141OSM   H13A15415   6.706   1.692   6.319  0.1089  1.3554 -0.7621
  141OSM   H13B15416   6.672   1.534   6.267 -3.5970  3.5664 -0.0162
  141OSM   H13C15417   6.792   1.631   6.170 -0.1930 -0.1098 -0.1804
  141OSM    C1215418   6.815   1.533   6.493 -0.3425 -0.2390 -0.2037
  141OSM   H12A15419   6.903   1.484   6.534 -1.2306 -3.9400 -2.2513
  141OSM   H12B15420   6.744   1.452   6.490 -2.3007  1.3482  1.0997
  141OSM    C1115421   6.758   1.649   6.587 -0.0637 -0.1785  0.1114
  141OSM   H11A15422   6.828   1.734   6.598 -1.0217  0.3833  2.4918
  141OSM   H11B15423   6.745   1.617   6.693 -0.1010 -1.6560 -0.3090
  141OSM      P15424   6.506   1.612   6.569 -0.2816 -0.4224 -0.3484
  141OSM    O1315425   6.526   1.468   6.555  0.2043  0.3089  0.1163
  141OSM    O1415426   6.466   1.660   6.701  0.3152  0.3337 -0.1275
  141OSM    O1115427   6.398   1.652   6.462 -0.5446 -0.0549 -0.4634
  141OSM    O1215428   6.634   1.699   6.532  0.1364  0.5512  0.0036
  141OSM    C1S15429   6.431   1.697   6.333 -1.0128  0.1821 -0.2114
  141OSM    H1S15430   6.491   1.619   6.282  0.7459 -0.2781  2.3323
  141OSM    H1T15431   6.487   1.793   6.331 -0.0362 -0.3689  0.0641
  141OSM     NF15432   6.333   1.778   6.119  0.6769  0.2020 -0.4033
  141OSM    HNF15433   6.358   1.874   6.106 -2.5718  1.0093 -1.6576
  141OSM    C2S15434   6.299   1.738   6.254  0.4245  0.2975  0.6570
  141OSM    H2S15435   6.233   1.649   6.242 -0.2079  0.4802  2.3854
  141OSM    C3S15436   6.221   1.848   6.337 -0.1873 -0.4669  0.6353
  141OSM    H3S15437   6.298   1.926   6.351 -1.4264  0.8274  0.4726
  141OSM     O315438   6.178   1.812   6.471 -0.2410 -0.9097 -0.1037
  141OSM    HO315439   6.245   1.748   6.495  0.9207 -0.1911 -1.2702
  141OSM    C4S15440   6.109   1.897   6.254 -0.2725 -0.0159 -0.1992
  141OSM    H4S15441   6.014   1.844   6.266 -0.2593  0.3152  1.6506
  141OSM    C5S15442   6.104   2.017   6.196 -0.8083  0.3462  0.1330
  141OSM    H5S15443   6.191   2.084   6.193  0.2374 -1.0214 -2.0040
  141OSM    C6S15444   5.985   2.063   6.127  0.1301 -0.6274  0.8147
  141OSM    H6S15445   6.014   2.152   6.068 -1.2934 -1.4302 -1.1894
  141OSM    H6T15446   5.905   2.085   6.201  1.0805 -1.1898  2.0500
  141OSM    C7S15447   5.913   1.967   6.029 -0.0045 -0.5259  0.2218
  141OSM    H7S15448   5.807   1.966   6.062  0.4701  2.2666  2.1926
  141OSM    H7T15449   5.952   1.862   6.035 -0.6090 -0.7062  1.1040
  141OSM    C8S15450   5.923   2.014   5.887  0.4351  0.9027  0.1636
  141OSM    H8S15451   6.032   2.036   5.877  0.5132  0.4359 -0.0196
  141OSM    H8T15452   5.875   2.110   5.858  2.4552  1.2939 -2.2058
  141OSM    C9S15453   5.865   1.901   5.799  1.2305 -0.9272  0.0757
  141OSM    H9S15454   5.760   1.877   5.827  1.5575 -0.8557  1.4175
  141OSM    H9T15455   5.919   1.804   5.806  1.0348 -0.9203  2.0656
  141OSM   C10S15456   5.858   1.962   5.651 -0.2616 -0.4553 -0.1113
  141OSM   H10S15457   5.957   2.000   5.618 -0.4695 -0.3353 -0.6168
  141OSM   H10T15458   5.779   2.039   5.637 -0.1310 -0.6636 -2.4927
  141OSM   C11S15459   5.809   1.851   5.555 -0.4364 -0.1837 -0.2507
  141OSM   H11S15460   5.710   1.808   5.580 -1.4416  1.6005 -0.9599
  141OSM   H11T15461   5.871   1.761   5.573 -1.0744 -0.2039  2.3162
  141OSM   C12S15462   5.809   1.884   5.410 -0.1153  0.3361  0.5606
  141OSM   H12S15463   5.918   1.891   5.388  0.1075 -2.0838  0.7044
  141OSM   H12T15464   5.758   1.981   5.390  1.7552  1.8731  2.7271
  141OSM   C13S15465   5.735   1.769   5.340 -0.0062  0.2528 -0.3702
  141OSM   H13S15466   5.635   1.757   5.386 -0.5526  0.5968 -1.4311
  141OSM   H13T15467   5.795   1.677   5.356  1.0432  0.8033 -1.0750
  141OSM   C14S15468   5.727   1.801   5.189 -0.2586  0.0863  0.1162
  141OSM   H14S15469   5.824   1.767   5.146  0.1419 -0.0517  1.0987
  141OSM   H14T15470   5.715   1.909   5.165  2.4040 -0.0997 -2.8292
  141OSM   C15S15471   5.622   1.716   5.117 -0.0321  0.1513 -0.8265
  141OSM   H15S15472   5.521   1.754   5.144 -0.1105 -0.2759 -0.4950
  141OSM   H15T15473   5.630   1.606   5.131  0.6522  0.1009 -1.5907
  141OSM   C16S15474   5.650   1.733   4.965 -0.6518 -0.4390  0.3412
  141OSM   H16S15475   5.731   1.665   4.930  0.0391 -0.1905  1.4012
  141OSM   H16T15476   5.682   1.839   4.949  1.1066 -1.1609 -1.3039
  141OSM   C17S15477   5.533   1.680   4.882 -0.0002 -0.1792 -0.2082
  141OSM   H17S15478   5.437   1.724   4.916 -0.4554 -2.3390  1.5838
  141OSM   H17T15479   5.540   1.569   4.883 -1.7952 -0.4017 -2.3936
  141OSM   C18S15480   5.554   1.719   4.733 -0.1129  0.0394 -0.0174
  141OSM   H18S15481   5.460   1.694   4.678 -0.3592 -0.9161  0.8079
  141OSM   H18T15482   5.650   1.679   4.695  1.8246  2.6451  1.8219
  141OSM   H18U15483   5.573   1.827   4.716 -2.6258  0.7043  0.9300
  141OSM    C1F15484   6.374   1.691   6.030 -0.1870  0.1628 -0.1526
  141OSM     OF15485   6.378   1.568   6.043  0.9583 -0.2105  0.2606
  141OSM    C2F15486   6.405   1.739   5.886 -0.2595 -0.2291  0.2623
  141OSM    H2F15487   6.402   1.656   5.812 -2.0626  0.6438 -0.7314
  141OSM    H2G15488   6.507   1.783   5.895 -0.6349  0.3443  1.9886
  141OSM    C3F15489   6.303   1.852   5.840  0.1150  0.8213 -0.2391
  141OSM    H3F15490   6.310   1.949   5.893  0.8781 -0.5661  2.3188
  141OSM    H3G15491   6.196   1.831   5.863 -0.0105 -0.6438 -1.9428
  141OSM    C4F15492   6.328   1.883   5.693 -0.5921 -0.3697  0.3651
  141OSM    H4F15493   6.437   1.878   5.675 -0.3933  2.3751  0.2624
  141OSM    H4G15494   6.289   1.984   5.666  0.8380  0.1023 -0.0164
  141OSM    C5F15495   6.248   1.784   5.602  0.0636 -0.4538 -0.9776
  141OSM    H5F15496   6.140   1.795   5.627  0.0113  1.2329 -1.8149
  141OSM    H5G15497   6.284   1.683   5.631  0.4942 -0.0104  0.0967
  141OSM    C6F15498   6.271   1.790   5.452  0.2919 -0.6483  0.7438
  141OSM    H6F15499   6.220   1.713   5.390  0.7034  0.8602 -1.6189
  141OSM    H6G15500   6.381   1.782   5.437  0.3121 -2.3546  1.5542
  141OSM    C7F15501   6.223   1.926   5.396 -0.3126 -0.2124 -0.6853
  141OSM    H7F15502   6.295   2.005   5.428 -3.2504  2.2979  0.2503
  141OSM    H7G15503   6.123   1.950   5.437  0.3597  1.4928  0.0905
  141OSM    C8F15504   6.204   1.937   5.243 -0.4608 -0.7666 -0.6023
  141OSM    H8F15505   6.130   1.858   5.217 -2.3063  0.4352  0.7927
  141OSM    H8G15506   6.303   1.904   5.206  1.5521  1.7092  2.1474
  141OSM    C9F15507   6.162   2.081   5.199 -0.2116  0.0853  0.1934
  141OSM    H9F15508   6.209   2.167   5.249 -0.5485  0.3460  0.0679
  141OSM   C10F15509   6.080   2.107   5.095 -0.3046  0.1744 -1.5004
  141OSM   H10F15510   6.061   2.215   5.083  1.2813  0.7409  0.5591
  141OSM   C11F15511   6.009   2.020   5.001  0.4166  0.2088  0.0477
  141OSM   H11F15512   5.908   2.058   4.976 -0.2052 -1.0666  0.5421
  141OSM   H11G15513   5.996   1.920   5.049 -0.5145  0.1588 -0.2804
  141OSM   C12F15514   6.082   2.016   4.868  0.1056  0.9136 -0.0308
  141OSM   H12F15515   6.181   1.970   4.888 -0.4154 -0.2552 -0.0734
  141OSM   H12G15516   6.080   2.117   4.822  0.8472  0.6728 -0.6244
  141OSM   C13F15517   6.012   1.931   4.759 -0.4741  0.1691  0.5647
  141OSM   H13F15518   5.904   1.920   4.780 -0.7653  2.2685  0.4277
  141OSM   H13G15519   6.055   1.830   4.776 -1.8261 -0.4752  0.2320
  141OSM   C14F15520   6.048   1.959   4.611 -0.2611 -0.0463 -0.5309
  141OSM   H14F15521   6.147   1.917   4.582 -0.1330 -1.1556  1.3403
  141OSM   H14G15522   6.043   2.070   4.603 -2.1873 -0.1204 -0.7432
  141OSM   C15F15523   5.948   1.885   4.525 -0.4856 -0.1313  0.1199
  141OSM   H15F15524   5.845   1.900   4.564 -1.2592  0.8232 -2.1248
  141OSM   H15G15525   5.962   1.775   4.530 -2.8151 -0.6107 -1.8122
  141OSM   C16F15526   5.942   1.932   4.380  0.6952 -0.0507  0.8004
  141OSM   H16F15527   6.035   1.905   4.327 -0.6299  1.5731 -2.6339
  141OSM   H16G15528   5.920   2.041   4.374  0.9049 -0.0839 -1.0131
  141OSM   C17F15529   5.825   1.861   4.295 -0.0676 -0.0205 -0.1439
  141OSM   H17F15530   5.862   1.759   4.273  2.5467  0.2241  2.5154
  141OSM   H17G15531   5.813   1.906   4.194  0.1038  0.5508  0.0860
  141OSM   C18F15532   5.680   1.864   4.359  0.1904 -0.3953  0.1097
  141OSM   H18F15533   5.602   1.830   4.288  0.4384  0.2821 -0.4975
  141OSM   H18G15534   5.645   1.969   4.365 -0.8252 -0.7169 -0.0911
  141OSM   H18H15535   5.682   1.804   4.453 -1.2932 -0.5140  0.0739
  142OSM      N15536   5.479   2.079   7.228  0.2052  0.3147  0.4439
  142OSM    C1515537   5.563   2.174   7.303 -0.3568  0.2838  0.2225
  142OSM   H15A15538   5.666   2.143   7.319 -0.1320  0.6769 -0.4039
  142OSM   H15B15539   5.520   2.209   7.396  0.4176  0.8690  0.3835
  142OSM   H15C15540   5.575   2.265   7.246  0.4969 -1.1192 -1.9314
  142OSM    C1415541   5.433   1.963   7.322 -0.2131  0.1630  0.2608
  142OSM   H14A15542   5.377   1.997   7.408  1.3473 -2.2770  2.3921
  142OSM   H14B15543   5.518   1.912   7.365 -0.1209  0.2800  0.2181
  142OSM   H14C15544   5.374   1.896   7.262  2.1659 -1.1724 -0.7556
  142OSM    C1315545   5.355   2.157   7.203 -0.3678  0.0913 -0.3421
  142OSM   H13A15546   5.360   2.247   7.145 -1.0827 -0.0117 -0.5792
  142OSM   H13B15547   5.311   2.182   7.298 -2.1379 -2.4668 -0.3717
  142OSM   H13C15548   5.284   2.102   7.143  0.0810  0.7238 -1.4955
  142OSM    C1215549   5.552   2.035   7.097  0.3482  0.2679  0.1177
  142OSM   H12A15550   5.654   2.006   7.120  0.0947 -0.8366 -0.0822
  142OSM   H12B15551   5.558   2.122   7.035 -1.2376  0.7415  0.5799
  142OSM    C1115552   5.476   1.915   7.018  0.2325 -0.4007 -0.2054
  142OSM   H11A15553   5.470   1.822   7.078 -2.3173  0.5466  1.1229
  142OSM   H11B15554   5.539   1.893   6.929 -1.1744  1.3869 -1.7291
  142OSM      P15555   5.336   2.024   6.834 -0.1292 -0.0279  0.2853
  142OSM    O1315556   5.193   2.042   6.808 -0.3859 -0.9116  0.1785
  142OSM    O1415557   5.418   2.147   6.834 -0.6526 -0.1469  0.7263
  142OSM    O1115558   5.405   1.932   6.726 -0.3895  0.2822  0.0552
  142OSM    O1215559   5.346   1.952   6.965 -0.6161 -0.3608 -0.2747
  142OSM    C1S15560   5.342   1.815   6.667  0.0976 -0.5245 -0.4350
  142OSM    H1S15561   5.232   1.811   6.686  0.1925  1.1084  0.6516
  142OSM    H1T15562   5.381   1.717   6.703  0.3900 -0.5193 -0.7387
  142OSM     NF15563   5.285   1.704   6.450 -0.2953 -0.6565 -0.1338
  142OSM    HNF15564   5.327   1.626   6.404  0.5660  1.2463 -2.8048
  142OSM    C2S15565   5.372   1.802   6.516 -0.3337  0.8776  0.4002
  142OSM    H2S15566   5.345   1.901   6.474  0.1938  0.5960 -0.6179
  142OSM    C3S15567   5.526   1.783   6.490 -0.4775  0.4850 -0.1600
  142OSM    H3S15568   5.554   1.679   6.520 -2.1512  0.5373  1.8465
  142OSM     O315569   5.608   1.867   6.572 -0.3345  0.3020 -0.2047
  142OSM    HO315570   5.548   1.898   6.640 -1.9877 -0.7361 -1.1399
  142OSM    C4S15571   5.569   1.803   6.345 -0.2377 -0.2763 -0.0763
  142OSM    H4S15572   5.601   1.905   6.319 -1.5848  0.2033  0.1034
  142OSM    C5S15573   5.566   1.707   6.255 -0.2218  0.2747  0.2891
  142OSM    H5S15574   5.521   1.609   6.277 -1.6000  0.7031 -0.5148
  142OSM    C6S15575   5.593   1.722   6.111  0.3607 -1.2233  0.1166
  142OSM    H6S15576   5.696   1.683   6.097  0.4695 -0.7695 -0.4025
  142OSM    H6T15577   5.584   1.830   6.085 -3.3702 -1.1048  1.2612
  142OSM    C7S15578   5.497   1.640   6.024 -1.0188  0.0029 -0.6488
  142OSM    H7S15579   5.396   1.685   6.040 -1.4918 -1.7057  1.8208
  142OSM    H7T15580   5.498   1.539   6.070  0.4849  1.0542  1.8258
  142OSM    C8S15581   5.541   1.643   5.875 -0.7693 -0.0673  0.4954
  142OSM    H8S15582   5.646   1.607   5.869 -0.1631  1.4324  1.5456
  142OSM    H8T15583   5.537   1.746   5.833 -1.1486 -1.1902 -2.4334
  142OSM    C9S15584   5.453   1.565   5.780  0.2702  0.0027 -0.3737
  142OSM    H9S15585   5.349   1.597   5.800 -0.3597 -0.4531 -2.6832
  142OSM    H9T15586   5.449   1.456   5.803  1.2511 -0.1130 -0.7130
  142OSM   C10S15587   5.475   1.586   5.628 -0.1438  0.1966  0.4920
  142OSM   H10S15588   5.575   1.545   5.605 -0.4446 -0.5410  0.4745
  142OSM   H10T15589   5.467   1.695   5.607  4.2654  0.1197 -2.8214
  142OSM   C11S15590   5.373   1.521   5.530 -0.1397 -0.4441 -0.3161
  142OSM   H11S15591   5.270   1.561   5.543 -0.2268 -0.8757  0.3925
  142OSM   H11T15592   5.357   1.416   5.561 -0.1739 -0.0009  1.2615
  142OSM   C12S15593   5.412   1.533   5.387  0.2699  0.0557 -0.4753
  142OSM   H12S15594   5.503   1.471   5.370  0.5374  0.7494 -1.7475
  142OSM   H12T15595   5.419   1.641   5.361  2.2526 -0.2375 -1.4322
  142OSM   C13S15596   5.314   1.465   5.287 -0.0394  0.0815 -0.2238
  142OSM   H13S15597   5.218   1.519   5.306  0.1102  0.4185 -0.4176
  142OSM   H13T15598   5.297   1.359   5.315 -0.4121  0.9774  3.4184
  142OSM   C14S15599   5.352   1.485   5.139 -0.0751 -0.0595  0.0014
  142OSM   H14S15600   5.456   1.451   5.120  0.0169  1.2900 -2.3298
  142OSM   H14T15601   5.348   1.594   5.116 -3.1993 -0.5101 -2.1471
  142OSM   C15S15602   5.255   1.412   5.040  0.8901 -0.1113 -0.1996
  142OSM   H15S15603   5.152   1.428   5.078  0.6911 -0.4490 -0.5913
  142OSM   H15T15604   5.277   1.304   5.053 -1.1774 -0.4996  0.4270
  142OSM   C16S15605   5.251   1.455   4.896  0.1209  0.6599  0.6903
  142OSM   H16S15606   5.353   1.437   4.855  0.4248 -0.6217  1.9518
  142OSM   H16T15607   5.232   1.563   4.882 -1.4648  0.3309  0.1140
  142OSM   C17S15608   5.144   1.383   4.817  0.0827 -0.0327 -0.7203
  142OSM   H17S15609   5.052   1.441   4.842  0.4899  0.5261 -0.4993
  142OSM   H17T15610   5.143   1.285   4.870  1.5799  0.8776  1.1249
  142OSM   C18S15611   5.160   1.346   4.670  0.0524  0.4290 -0.0541
  142OSM   H18S15612   5.073   1.288   4.632 -1.1055  3.0655 -1.7381
  142OSM   H18T15613   5.247   1.279   4.655 -1.9808 -2.5166  0.5070
  142OSM   H18U15614   5.180   1.434   4.605 -1.0524  1.4371  0.8922
  142OSM    C1F15615   5.155   1.728   6.435 -0.5434 -0.4804 -0.2830
  142OSM     OF15616   5.094   1.824   6.482  0.4284  0.9792 -0.2521
  142OSM    C2F15617   5.086   1.635   6.342  0.0352 -0.3806  0.6091
  142OSM    H2F15618   5.051   1.549   6.403  2.4846 -0.7971  1.5222
  142OSM    H2G15619   5.163   1.610   6.266  0.8825 -0.5465  1.5016
  142OSM    C3F15620   4.963   1.698   6.284  0.1473  0.2441 -0.2307
  142OSM    H3F15621   4.978   1.794   6.229 -0.8439  1.2338  1.1476
  142OSM    H3G15622   4.902   1.733   6.370  0.2118 -0.7029  0.2089
  142OSM    C4F15623   4.890   1.592   6.202  0.1992  0.1348  0.5892
  142OSM    H4F15624   4.781   1.609   6.214  0.3269 -0.7828  4.3712
  142OSM    H4G15625   4.898   1.488   6.240 -0.4795 -0.1840 -0.1111
  142OSM    C5F15626   4.941   1.595   6.048  0.8073  0.1110  0.1356
  142OSM    H5F15627   5.051   1.578   6.052  1.3992  2.8675 -1.3495
  142OSM    H5G15628   4.933   1.703   6.020 -0.0248  0.1072  0.3286
  142OSM    C6F15629   4.853   1.503   5.958  0.1429  0.1032  0.0872
  142OSM    H6F15630   4.751   1.546   5.962  0.0188 -0.2177  0.5059
  142OSM    H6G15631   4.861   1.404   6.009  1.2724  1.5017  2.7939
  142OSM    C7F15632   4.905   1.497   5.805  0.7489 -0.0445 -0.6202
  142OSM    H7F15633   4.837   1.420   5.762 -1.3395  1.8236 -0.8758
  142OSM    H7G15634   5.011   1.468   5.816  1.4672  2.4370 -0.6142
  142OSM    C8F15635   4.890   1.631   5.733  0.5822  0.5346  0.4215
  142OSM    H8F15636   4.898   1.704   5.817 -1.2314  3.4103 -1.7286
  142OSM    H8G15637   4.787   1.651   5.699  0.6760 -0.0173 -0.1970
  142OSM    C9F15638   4.983   1.654   5.620  0.4348  0.6915  0.2085
  142OSM    H9F15639   5.080   1.695   5.650  0.2203 -1.5778  4.7938
  142OSM   C10F15640   4.966   1.624   5.487 -0.0692  0.1420 -0.2172
  142OSM   H10F15641   5.049   1.652   5.421  0.0594  0.8095  0.2176
  142OSM   C11F15642   4.839   1.569   5.426  0.1165 -0.6068 -0.5539
  142OSM   H11F15643   4.786   1.654   5.378 -1.6221  1.5496  4.4744
  142OSM   H11G15644   4.779   1.530   5.512 -0.2244 -0.3207 -0.6586
  142OSM   C12F15645   4.859   1.461   5.315  0.1353 -0.6566  0.5524
  142OSM   H12F15646   4.778   1.386   5.328  0.3126 -1.1018 -0.7566
  142OSM   H12G15647   4.954   1.404   5.325 -0.8613 -2.3459  0.8692
  142OSM   C13F15648   4.849   1.526   5.172  0.2066  0.0794 -0.2181
  142OSM   H13F15649   4.937   1.589   5.148  0.3176  0.4652  1.0890
  142OSM   H13G15650   4.763   1.597   5.176  0.0045 -0.2049  0.8423
  142OSM   C14F15651   4.836   1.412   5.066  0.9381  0.1529  0.2119
  142OSM   H14F15652   4.759   1.336   5.091  1.2508  0.2656  1.5516
  142OSM   H14G15653   4.934   1.363   5.048  2.4019  3.4039 -1.5857
  142OSM   C15F15654   4.797   1.478   4.925  0.4955 -0.2716 -0.3043
  142OSM   H15F15655   4.857   1.570   4.906  0.7517 -0.2961  0.3464
  142OSM   H15G15656   4.697   1.520   4.948  1.0843  1.4947 -0.7697
  142OSM   C16F15657   4.781   1.384   4.805 -0.2661 -0.7292 -0.2471
  142OSM   H16F15658   4.708   1.303   4.828 -0.8985 -0.6385 -1.8560
  142OSM   H16G15659   4.878   1.332   4.789  0.7952  1.1156 -0.0577
  142OSM   C17F15660   4.749   1.454   4.672 -0.4889 -0.5321  0.2737
  142OSM   H17F15661   4.775   1.390   4.584 -0.1845  0.8557 -0.6828
  142OSM   H17G15662   4.822   1.537   4.675 -1.0959  0.0595 -0.7657
  142OSM   C18F15663   4.606   1.510   4.659  0.1223  0.5226  0.1842
  142OSM   H18F15664   4.526   1.433   4.662  1.2825 -0.7507 -0.4297
  142OSM   H18G15665   4.590   1.555   4.559 -0.0936 -0.2261 -0.1294
  142OSM   H18H15666   4.592   1.585   4.740  0.4332 -0.9088  1.6264
  143OSM      N15667   5.319   4.149   7.032  0.2429  0.0676 -0.3804
  143OSM    C1515668   5.431   4.209   6.943  0.2919  0.3573  0.0053
  143OSM   H15A15669   5.402   4.199   6.839 -1.4124 -0.9386  0.5742
  143OSM   H15B15670   5.530   4.167   6.952  0.1860 -0.0277 -0.5547
  143OSM   H15C15671   5.451   4.311   6.973  2.6383  0.0395 -0.3129
  143OSM    C1415672   5.372   4.144   7.172 -0.1907 -0.1470  0.2835
  143OSM   H14A15673   5.369   4.243   7.216 -2.4731  0.6421 -1.4554
  143OSM   H14B15674   5.474   4.109   7.177  0.0795  0.7549  2.7933
  143OSM   H14C15675   5.320   4.078   7.240 -1.0967  1.0856  0.8322
  143OSM    C1315676   5.195   4.230   7.039  0.2689  0.6458  0.0523
  143OSM   H13A15677   5.155   4.246   6.940 -1.0374  0.0094  0.4562
  143OSM   H13B15678   5.218   4.324   7.087  0.4879 -1.2716  4.1144
  143OSM   H13C15679   5.113   4.182   7.090  0.2671  1.8245  1.2256
  143OSM    C1215680   5.289   4.008   6.977 -0.3632 -1.0950 -1.3800
  143OSM   H12A15681   5.224   3.960   7.048  0.9713  0.3087  0.9095
  143OSM   H12B15682   5.383   3.955   6.984 -0.6578 -1.5995 -1.1978
  143OSM    C1115683   5.218   3.991   6.841 -0.4365  0.7364  0.3679
  143OSM   H11A15684   5.227   3.884   6.813 -0.4747  0.7728  0.2137
  143OSM   H11B15685   5.267   4.060   6.770 -2.2966  0.3338 -1.4053
  143OSM      P15686   4.976   3.924   6.909  0.0030  0.3381 -0.4483
  143OSM    O1315687   5.036   3.859   7.030 -0.4870 -0.2101 -0.0186
  143OSM    O1415688   4.848   3.984   6.937  0.3413  0.1084  0.4562
  143OSM    O1115689   4.963   3.818   6.794 -0.1777 -0.1673 -0.0804
  143OSM    O1215690   5.083   4.031   6.854 -0.1157 -0.1800 -0.1373
  143OSM    C1S15691   4.908   3.864   6.668 -0.2245  0.5460 -0.0028
  143OSM    H1S15692   4.929   3.970   6.646  1.1400  0.2796 -0.0358
  143OSM    H1T15693   4.798   3.849   6.677 -0.1646 -1.0386 -1.3817
  143OSM     NF15694   4.950   3.836   6.420  0.0141 -0.1232 -0.3764
  143OSM    HNF15695   4.911   3.764   6.364  2.1051 -0.9884 -0.7865
  143OSM    C2S15696   4.993   3.797   6.555 -0.4964  0.2513  0.5535
  143OSM    H2S15697   5.099   3.830   6.555 -0.8597  1.6221 -1.8313
  143OSM    C3S15698   4.987   3.647   6.569  0.5879 -0.7048 -0.5058
  143OSM    H3S15699   4.887   3.626   6.526 -0.3258  3.3775 -0.8171
  143OSM     O315700   4.988   3.589   6.703 -0.1091 -0.3266  0.4619
  143OSM    HO315701   5.001   3.664   6.761  0.9838  0.1016 -0.3043
  143OSM    C4S15702   5.080   3.580   6.473  0.3569  1.4262 -0.4051
  143OSM    H4S15703   5.042   3.553   6.373  1.4079 -1.4667 -0.1294
  143OSM    C5S15704   5.205   3.547   6.496 -0.3070 -0.4507 -0.1108
  143OSM    H5S15705   5.247   3.555   6.598 -0.3141  1.3425 -0.2183
  143OSM    C6S15706   5.309   3.475   6.410 -0.5204 -0.4835 -0.1667
  143OSM    H6S15707   5.321   3.371   6.447 -2.6493 -1.6221 -2.4459
  143OSM    H6T15708   5.407   3.527   6.418  0.2626 -2.0409  0.9543
  143OSM    C7S15709   5.289   3.460   6.263  0.6169  1.0615  0.1041
  143OSM    H7S15710   5.280   3.556   6.209 -0.7597  0.4256 -0.8617
  143OSM    H7T15711   5.199   3.397   6.250  1.3743 -0.7893  2.7943
  143OSM    C8S15712   5.410   3.404   6.185  0.5819  0.5889  0.2840
  143OSM    H8S15713   5.413   3.294   6.200  3.4518  0.8841  2.7678
  143OSM    H8T15714   5.501   3.429   6.244  0.0981 -2.8860  2.8202
  143OSM    C9S15715   5.407   3.446   6.037 -0.6569  0.0862  0.6620
  143OSM    H9S15716   5.440   3.551   6.025 -0.6935  0.2447  1.8119
  143OSM    H9T15717   5.305   3.445   5.993  0.2996  1.3312 -1.7136
  143OSM   C10S15718   5.510   3.371   5.954  0.4496 -0.2585 -0.4282
  143OSM   H10S15719   5.472   3.266   5.952 -2.1249  0.5971 -0.2544
  143OSM   H10T15720   5.613   3.376   5.996  0.7502  1.0554 -1.2639
  143OSM   C11S15721   5.504   3.424   5.809 -0.8840  0.8372  0.3090
  143OSM   H11S15722   5.558   3.521   5.809 -1.3544  1.0999 -0.2810
  143OSM   H11T15723   5.397   3.443   5.785 -1.0924 -0.3489  0.2170
  143OSM   C12S15724   5.577   3.329   5.717  0.1780  0.0879  0.7318
  143OSM   H12S15725   5.512   3.240   5.703 -1.1637  1.2301 -0.5889
  143OSM   H12T15726   5.667   3.300   5.776 -0.6980 -0.5328  1.8309
  143OSM   C13S15727   5.619   3.386   5.583 -0.9243  0.0957 -0.4135
  143OSM   H13S15728   5.676   3.481   5.582 -0.3350 -0.2540 -1.7175
  143OSM   H13T15729   5.521   3.408   5.536 -0.9746  0.6148 -0.0755
  143OSM   C14S15730   5.686   3.280   5.494  0.5841 -0.1671 -0.2359
  143OSM   H14S15731   5.617   3.194   5.481  2.2175 -1.3960 -1.1955
  143OSM   H14T15732   5.787   3.252   5.532 -0.2192 -2.1140  0.6143
  143OSM   C15S15733   5.701   3.328   5.348  0.3452 -0.3773 -0.6854
  143OSM   H15S15734   5.600   3.370   5.325  0.7877  0.3287 -1.4065
  143OSM   H15T15735   5.722   3.241   5.283 -0.8922 -1.0557 -0.2119
  143OSM   C16S15736   5.803   3.435   5.327  0.0345  0.0661 -0.4602
  143OSM   H16S15737   5.877   3.425   5.409  0.8843  0.1945 -1.2062
  143OSM   H16T15738   5.766   3.537   5.352  2.4112  0.7904  0.2929
  143OSM   C17S15739   5.890   3.437   5.200 -0.0322  0.7747 -0.0916
  143OSM   H17S15740   5.938   3.337   5.204  0.3232  0.9692  0.6326
  143OSM   H17T15741   5.973   3.511   5.203  2.2767 -1.6415 -1.0468
  143OSM   C18S15742   5.813   3.444   5.069 -0.4213 -0.3693  0.1557
  143OSM   H18S15743   5.876   3.420   4.981 -3.0311 -4.1553 -0.9410
  143OSM   H18T15744   5.763   3.542   5.056  0.6550 -0.0401 -1.8179
  143OSM   H18U15745   5.732   3.369   5.076 -0.4405 -0.2091  2.7166
  143OSM    C1F15746   4.947   3.969   6.389  0.5039 -0.5748 -0.6061
  143OSM     OF15747   5.008   4.054   6.455 -0.2264  0.2741 -0.3011
  143OSM    C2F15748   4.856   4.017   6.273  0.6765  0.1646 -0.5582
  143OSM    H2F15749   4.756   3.969   6.267  0.6298 -0.2403  2.1346
  143OSM    H2G15750   4.894   3.992   6.172  0.6109 -0.2775 -0.4721
  143OSM    C3F15751   4.808   4.164   6.283 -0.8641 -0.8009 -0.0741
  143OSM    H3F15752   4.905   4.218   6.279 -0.5027 -1.4872 -1.0118
  143OSM    H3G15753   4.760   4.175   6.382  1.0367  0.4372  0.7774
  143OSM    C4F15754   4.720   4.220   6.173  0.3246  0.2401  0.0134
  143OSM    H4F15755   4.639   4.147   6.154 -0.2536  1.1252 -0.9789
  143OSM    H4G15756   4.782   4.231   6.081 -0.3511  1.9799 -0.2715
  143OSM    C5F15757   4.658   4.353   6.202 -0.0282  1.0491  0.2419
  143OSM    H5F15758   4.728   4.431   6.241 -0.3737  1.3430  0.2773
  143OSM    H5G15759   4.584   4.344   6.284 -0.4427 -0.1970 -0.2561
  143OSM    C6F15760   4.577   4.408   6.088  0.1108 -0.2250  0.1524
  143OSM    H6F15761   4.518   4.489   6.136  0.4474  0.2556 -0.2429
  143OSM    H6G15762   4.502   4.331   6.058  0.6010 -0.2534 -1.0494
  143OSM    C7F15763   4.651   4.466   5.967  0.6260  0.1991 -0.3937
  143OSM    H7F15764   4.724   4.385   5.948 -0.0979 -0.4943 -0.2500
  143OSM    H7G15765   4.715   4.555   5.987  1.4208 -0.0860 -1.5457
  143OSM    C8F15766   4.546   4.503   5.859  0.3036  0.0225 -0.1139
  143OSM    H8F15767   4.570   4.584   5.788 -4.3473  0.7914 -1.1702
  143OSM    H8G15768   4.455   4.538   5.913 -0.6351 -2.4561  0.0475
  143OSM    C9F15769   4.491   4.390   5.781 -0.2671  0.1649 -0.1584
  143OSM    H9F15770   4.441   4.309   5.837  1.0045 -0.3091  0.3249
  143OSM   C10F15771   4.495   4.373   5.647 -0.6368 -0.3961 -0.4809
  143OSM   H10F15772   4.456   4.282   5.601 -1.7470 -0.4430  0.5216
  143OSM   C11F15773   4.552   4.468   5.540  0.8131  0.0415  0.1595
  143OSM   H11F15774   4.543   4.574   5.572 -0.0359  1.2400 -3.5787
  143OSM   H11G15775   4.489   4.457   5.449  3.5243  2.0166 -2.1642
  143OSM   C12F15776   4.692   4.423   5.505  0.1792  0.2482  0.1311
  143OSM   H12F15777   4.678   4.317   5.477 -1.0657 -0.2507  2.4115
  143OSM   H12G15778   4.753   4.423   5.598  0.4456  2.3829  0.0041
  143OSM   C13F15779   4.755   4.505   5.390  0.7897 -0.1824 -0.8577
  143OSM   H13F15780   4.770   4.612   5.416  1.6438 -0.8829  1.8893
  143OSM   H13G15781   4.695   4.495   5.297 -0.2766  1.3064 -0.3733
  143OSM   C14F15782   4.894   4.441   5.346  0.1999 -0.2038 -0.7063
  143OSM   H14F15783   4.873   4.333   5.329 -1.6514  0.1203 -0.7706
  143OSM   H14G15784   4.963   4.456   5.432 -1.6481  0.7941  0.6925
  143OSM   C15F15785   4.952   4.502   5.217  0.0795  0.4137 -0.5139
  143OSM   H15F15786   4.962   4.611   5.234  1.5321  0.0800  1.0383
  143OSM   H15G15787   4.889   4.494   5.126  2.5266  0.8036 -2.3253
  143OSM   C16F15788   5.086   4.445   5.177  0.3185 -0.1838  0.3274
  143OSM   H16F15789   5.055   4.341   5.149 -2.9213  0.4367  1.1356
  143OSM   H16G15790   5.159   4.444   5.260 -0.1482 -0.3451  0.7448
  143OSM   C17F15791   5.145   4.522   5.056  0.1292  0.4695 -0.0963
  143OSM   H17F15792   5.077   4.532   4.969 -0.0810  0.1211  0.0257
  143OSM   H17G15793   5.225   4.454   5.022 -0.2506 -0.0201 -0.0184
  143OSM   C18F15794   5.187   4.665   5.094 -0.5318  0.4223  0.4395
  143OSM   H18F15795   5.240   4.669   5.192 -0.0392 -1.7719  0.3010
  143OSM   H18G15796   5.096   4.728   5.101 -0.8273  0.0726 -0.1583
  143OSM   H18H15797   5.247   4.715   5.015 -1.9562  0.4834 -0.6596
  144OSM      N15798   4.082   5.359   7.370  0.3215  0.5938 -0.1021
  144OSM    C1515799   4.157   5.235   7.311  0.2636 -0.5885 -0.5575
  144OSM   H15A15800   4.090   5.179   7.249  1.1736  0.5192 -2.6379
  144OSM   H15B15801   4.186   5.171   7.393  2.9031  1.5442  0.3350
  144OSM   H15C15802   4.246   5.264   7.257  0.1017  0.1609 -0.4420
  144OSM    C1415803   3.970   5.311   7.457 -0.5324  0.1058 -0.8341
  144OSM   H14A15804   4.005   5.281   7.555 -0.6161 -0.5316 -0.9908
  144OSM   H14B15805   3.917   5.230   7.408 -0.7616  0.2828 -0.8757
  144OSM   H14C15806   3.897   5.387   7.478 -0.3271 -0.1722  1.0759
  144OSM    C1315807   4.170   5.448   7.459  0.1102  0.4977  0.2722
  144OSM   H13A15808   4.121   5.522   7.520  2.2954  2.6324 -0.4197
  144OSM   H13B15809   4.246   5.491   7.396  0.4104 -0.2884  0.0799
  144OSM   H13C15810   4.223   5.392   7.534  0.0773  0.8533  0.5651
  144OSM    C1215811   4.013   5.433   7.259  0.7947  0.0448  0.2104
  144OSM   H12A15812   3.959   5.520   7.293 -0.3948 -0.6775  0.1892
  144OSM   H12B15813   3.953   5.354   7.217  0.5439  0.9148 -1.1269
  144OSM    C1115814   4.084   5.485   7.136  0.1143 -0.0752 -0.0995
  144OSM   H11A15815   4.002   5.529   7.074 -0.4595 -0.1278  0.6140
  144OSM   H11B15816   4.127   5.393   7.090 -0.1412 -1.0143  1.4676
  144OSM      P15817   4.160   5.723   7.192 -0.6776 -0.1717 -0.0937
  144OSM    O1315818   4.057   5.731   7.299  0.5427 -0.1022 -0.0593
  144OSM    O1415819   4.286   5.792   7.228  0.5805 -0.3124  0.3038
  144OSM    O1115820   4.110   5.779   7.055 -0.5249  0.8927 -0.3470
  144OSM    O1215821   4.192   5.572   7.155 -0.1648 -0.2280  0.1714
  144OSM    C1S15822   4.181   5.738   6.936 -0.2959 -0.0505 -0.0134
  144OSM    H1S15823   4.192   5.629   6.920  1.8579 -0.1970  1.9320
  144OSM    H1T15824   4.282   5.785   6.936 -1.8150  3.5592 -0.3765
  144OSM     NF15825   4.173   5.766   6.684  0.3123  0.6395 -0.9987
  144OSM    HNF15826   4.253   5.825   6.674  2.4199 -1.8937 -0.1914
  144OSM    C2S15827   4.108   5.794   6.811  0.5544 -0.2085 -0.8681
  144OSM    H2S15828   4.006   5.749   6.809  1.3135 -2.1183  0.6029
  144OSM    C3S15829   4.085   5.946   6.828  0.4285 -0.8093  0.5275
  144OSM    H3S15830   4.184   5.992   6.849 -0.4251  1.6800 -0.5654
  144OSM     O315831   4.010   5.994   6.942 -0.1955  0.1089  0.1034
  144OSM    HO315832   4.009   5.916   6.998 -0.0296  0.5152  0.6713
  144OSM    C4S15833   4.037   6.005   6.696 -0.7782 -0.5035  0.6060
  144OSM    H4S15834   4.106   6.086   6.671 -1.0209  0.2599  2.2732
  144OSM    C5S15835   3.911   6.011   6.649  0.0813 -0.0129  0.2218
  144OSM    H5S15836   3.829   5.975   6.712  0.2873  0.6646  0.8776
  144OSM    C6S15837   3.871   6.110   6.546 -0.1139  0.5838 -0.0453
  144OSM    H6S15838   3.885   6.212   6.590 -0.4634  0.8216 -0.4848
  144OSM    H6T15839   3.761   6.094   6.541  0.2047 -1.3605 -2.6851
  144OSM    C7S15840   3.950   6.097   6.413  0.0551 -0.3165 -0.5151
  144OSM    H7S15841   4.055   6.128   6.428  0.0342  0.3911 -1.7631
  144OSM    H7T15842   3.904   6.176   6.350 -0.8052  1.1007  1.7656
  144OSM    C8S15843   3.934   5.959   6.355 -1.0346 -0.0653 -0.7216
  144OSM    H8S15844   3.827   5.945   6.330 -0.9235  1.0154 -1.9282
  144OSM    H8T15845   3.963   5.873   6.419  0.0279  0.9920  0.2457
  144OSM    C9S15846   4.004   5.950   6.208  0.1503  0.5493 -0.4997
  144OSM    H9S15847   4.010   5.845   6.174  1.8744  1.2004 -2.3989
  144OSM    H9T15848   4.109   5.985   6.216  0.0894  0.5421  0.4664
  144OSM   C10S15849   3.936   6.031   6.095 -0.4966  0.0093  0.0311
  144OSM   H10S15850   3.936   6.135   6.135  0.0058  0.0443 -0.0486
  144OSM   H10T15851   3.831   5.996   6.086 -0.1672 -0.7985 -0.8557
  144OSM   C11S15852   4.007   6.041   5.961 -0.0643  0.1617  0.6916
  144OSM   H11S15853   4.103   6.096   5.965 -0.7970  1.7028 -1.3202
  144OSM   H11T15854   3.943   6.103   5.895  0.2326 -1.0686 -0.8279
  144OSM   C12S15855   4.027   5.900   5.893 -0.1929  0.0326  0.6473
  144OSM   H12S15856   3.937   5.844   5.928 -0.5572  0.6955  0.7878
  144OSM   H12T15857   4.116   5.844   5.929  0.5167  0.3820 -0.5087
  144OSM   C13S15858   4.010   5.899   5.742  0.2292 -0.1709 -0.0049
  144OSM   H13S15859   4.090   5.953   5.688  0.5141 -2.8389 -2.4531
  144OSM   H13T15860   3.922   5.948   5.694  1.7624  1.0791 -1.6714
  144OSM   C14S15861   4.000   5.758   5.682  0.2622 -0.9425 -0.1900
  144OSM   H14S15862   3.902   5.713   5.706 -0.0681 -0.2567 -0.2144
  144OSM   H14T15863   4.083   5.688   5.707  0.3990 -0.7106  0.0171
  144OSM   C15S15864   4.009   5.775   5.530  0.2362  0.5834 -0.6516
  144OSM   H15S15865   4.113   5.816   5.531  0.9834 -0.7483  4.2892
  144OSM   H15T15866   3.930   5.834   5.480  1.2171  0.5076 -2.3724
  144OSM   C16S15867   4.008   5.653   5.442 -0.1003 -0.0619 -0.2682
  144OSM   H16S15868   4.069   5.576   5.495  0.7211  1.1828  0.6523
  144OSM   H16T15869   4.057   5.673   5.345  0.3986  1.4253  0.2668
  144OSM   C17S15870   3.866   5.608   5.397 -0.0530 -0.2779 -0.1298
  144OSM   H17S15871   3.819   5.696   5.347  0.9914 -1.2817 -3.0817
  144OSM   H17T15872   3.811   5.582   5.490  1.2894 -2.4961  0.1082
  144OSM   C18S15873   3.872   5.497   5.290  0.5069 -0.3658  0.0871
  144OSM   H18S15874   3.771   5.475   5.251  0.0178 -0.0778  1.1474
  144OSM   H18T15875   3.921   5.406   5.330 -1.9990 -0.8093  2.4318
  144OSM   H18U15876   3.932   5.534   5.204  0.3470  0.9558  0.5158
  144OSM    C1F15877   4.151   5.661   6.613 -0.0205  0.1014  1.1521
  144OSM     OF15878   4.044   5.601   6.615 -0.5651  0.5794  0.1590
  144OSM    C2F15879   4.256   5.636   6.508 -0.0324 -0.3588  0.1651
  144OSM    H2F15880   4.345   5.701   6.527  1.0368 -2.1869  1.7936
  144OSM    H2G15881   4.219   5.679   6.413  0.1384  0.9963  0.6749
  144OSM    C3F15882   4.301   5.490   6.486  0.2163 -0.1519  0.5061
  144OSM    H3F15883   4.214   5.421   6.477  0.3385 -0.2834  0.3441
  144OSM    H3G15884   4.352   5.446   6.574 -0.0095 -2.2332 -0.3539
  144OSM    C4F15885   4.381   5.468   6.361  0.0714 -0.0627  0.5762
  144OSM    H4F15886   4.395   5.358   6.352 -1.6319 -0.2336 -0.3087
  144OSM    H4G15887   4.479   5.519   6.376  0.4017  0.9190 -3.6695
  144OSM    C5F15888   4.337   5.525   6.232  0.1323  0.0800  0.2311
  144OSM    H5F15889   4.359   5.634   6.240  2.3817 -0.4047  1.2546
  144OSM    H5G15890   4.229   5.515   6.210  0.5665  0.5478 -2.5103
  144OSM    C6F15891   4.422   5.476   6.109 -0.0120 -0.8472  0.2124
  144OSM    H6F15892   4.376   5.524   6.020  1.2649 -0.0228 -0.0260
  144OSM    H6G15893   4.406   5.366   6.099 -3.1124 -0.3117 -2.5828
  144OSM    C7F15894   4.573   5.511   6.113 -0.0223  0.2950 -0.3203
  144OSM    H7F15895   4.620   5.446   6.191  1.5490  0.7429 -0.8552
  144OSM    H7G15896   4.594   5.617   6.138 -0.9157  0.6060 -0.8815
  144OSM    C8F15897   4.644   5.477   5.982  0.4700 -0.3096 -0.2753
  144OSM    H8F15898   4.580   5.512   5.897 -1.9402 -2.5422  0.4799
  144OSM    H8G15899   4.647   5.366   5.973  2.9301 -0.3392  0.3171
  144OSM    C9F15900   4.786   5.522   5.995 -0.2916  0.7965  0.2979
  144OSM    H9F15901   4.826   5.544   6.095  1.6159  1.0721 -0.4678
  144OSM   C10F15902   4.869   5.544   5.893 -0.0113 -0.1362 -0.3869
  144OSM   H10F15903   4.967   5.586   5.919 -0.8840  1.9826 -0.3115
  144OSM   C11F15904   4.839   5.525   5.746 -0.0192 -0.0193 -0.2914
  144OSM   H11F15905   4.751   5.583   5.711 -1.4505 -1.2501  1.1923
  144OSM   H11G15906   4.821   5.417   5.730 -0.1959 -0.2706  1.4228
  144OSM   C12F15907   4.956   5.562   5.650  0.3177  1.3252  0.7662
  144OSM   H12F15908   5.047   5.507   5.682 -0.5495 -0.7145 -0.0597
  144OSM   H12G15909   4.991   5.667   5.641  0.2804  1.1631 -4.0011
  144OSM   C13F15910   4.932   5.517   5.503  0.6684  0.2703 -0.3996
  144OSM   H13F15911   4.842   5.574   5.473 -0.5660 -1.2811  0.1846
  144OSM   H13G15912   4.919   5.407   5.500  0.1310  0.3333 -0.6460
  144OSM   C14F15913   5.056   5.555   5.420  0.8957 -0.0019 -0.3120
  144OSM   H14F15914   5.139   5.492   5.459  0.1027 -0.5853  0.4795
  144OSM   H14G15915   5.076   5.663   5.436  0.1392  0.0296  0.4890
  144OSM   C15F15916   5.046   5.518   5.271  0.0692 -0.0610  0.4968
  144OSM   H15F15917   5.031   5.408   5.268  1.4570 -0.3450  1.9690
  144OSM   H15G15918   5.145   5.547   5.229  0.4000  0.6442  1.7263
  144OSM   C16F15919   4.933   5.584   5.199  0.0143 -0.0531  0.2501
  144OSM   H16F15920   4.941   5.692   5.221 -0.7574  0.0835 -0.1197
  144OSM   H16G15921   4.833   5.559   5.242 -0.2820  1.7137  0.6484
  144OSM   C17F15922   4.939   5.574   5.050  0.3538  0.0577  0.1448
  144OSM   H17F15923   4.942   5.465   5.030  0.3720  0.3093 -1.3435
  144OSM   H17G15924   5.039   5.615   5.021  2.3149 -1.5613  3.9084
  144OSM   C18F15925   4.823   5.650   4.982  0.6510  0.6700  0.5246
  144OSM   H18F15926   4.732   5.649   5.046  0.2320 -1.9244 -0.0127
  144OSM   H18G15927   4.794   5.611   4.882 -0.0311 -0.4366  1.1328
  144OSM   H18H15928   4.854   5.756   4.965  2.3463  0.0297 -0.5636
  145OSM      N15929   5.346   5.933   6.852 -0.0040  0.6167 -0.3955
  145OSM    C1515930   5.234   5.841   6.915 -0.2659  0.4380 -0.0178
  145OSM   H15A15931   5.238   5.742   6.872 -1.3435  0.7030 -0.7518
  145OSM   H15B15932   5.139   5.892   6.907  0.0248  1.4320  2.0460
  145OSM   H15C15933   5.264   5.831   7.019  1.0984  0.9850 -0.3421
  145OSM    C1415934   5.313   5.932   6.705  0.0119 -0.1566  0.0511
  145OSM   H14A15935   5.382   5.996   6.652 -1.4083  0.0348 -1.6564
  145OSM   H14B15936   5.212   5.967   6.693  0.4707  2.2617  2.2823
  145OSM   H14C15937   5.345   5.840   6.659  1.9190  1.2719 -1.6897
  145OSM    C1315938   5.318   6.070   6.905 -0.3107  0.4654  0.7497
  145OSM   H13A15939   5.367   6.091   6.998  2.1882  0.0173 -0.3874
  145OSM   H13B15940   5.214   6.101   6.908  0.5772  3.8078  1.4056
  145OSM   H13C15941   5.376   6.144   6.851 -1.1754  1.6900  1.4591
  145OSM    C1215942   5.476   5.874   6.884  0.2303  0.0363  0.3198
  145OSM   H12A15943   5.479   5.776   6.838 -0.3911 -0.0885  0.5367
  145OSM   H12B15944   5.499   5.876   6.989 -0.1989 -0.8412  0.4433
  145OSM    C1115945   5.592   5.953   6.818 -0.5951 -0.0372 -0.3804
  145OSM   H11A15946   5.593   6.053   6.867  1.2739 -0.9645  1.6912
  145OSM   H11B15947   5.588   5.975   6.710  3.5433 -2.3132 -1.2299
  145OSM      P15948   5.850   5.955   6.840  0.2331 -0.1306 -0.3524
  145OSM    O1315949   5.836   6.070   6.934 -0.1111 -0.6677 -0.0937
  145OSM    O1415950   5.953   5.854   6.871  0.5134  0.1735  0.0972
  145OSM    O1115951   5.886   6.015   6.700  0.0560 -0.5887 -0.5326
  145OSM    O1215952   5.710   5.879   6.833 -0.3403  0.0567  0.3530
  145OSM    C1S15953   5.865   5.934   6.584 -0.0626 -0.1960  0.3179
  145OSM    H1S15954   5.760   5.905   6.563  0.4691 -0.7940 -1.7675
  145OSM    H1T15955   5.923   5.841   6.600  0.7091 -0.0790 -1.5741
  145OSM     NF15956   5.907   5.931   6.339 -0.2351 -0.9220  0.0245
  145OSM    HNF15957   5.990   5.876   6.328  0.0227 -0.6172  0.4402
  145OSM    C2S15958   5.910   6.011   6.456 -0.2657 -0.3649 -0.2601
  145OSM    H2S15959   5.841   6.098   6.450  0.4630  0.2694  0.4126
  145OSM    C3S15960   6.052   6.073   6.478  0.1071 -0.0840  0.1733
  145OSM    H3S15961   6.117   5.987   6.503 -1.3024 -1.1732  0.1942
  145OSM     O315962   6.056   6.166   6.589 -0.2013  0.0431 -0.2415
  145OSM    HO315963   5.992   6.127   6.650  0.0902 -0.4924 -0.2758
  145OSM    C4S15964   6.112   6.148   6.357 -0.5517  0.7143 -0.4380
  145OSM    H4S15965   6.076   6.252   6.347 -3.7088 -0.3220 -1.2902
  145OSM    C5S15966   6.213   6.093   6.281 -0.2408 -0.0543 -0.0842
  145OSM    H5S15967   6.257   5.993   6.298 -0.8823 -0.5496 -1.2207
  145OSM    C6S15968   6.276   6.163   6.162  0.4980  0.4045 -0.4216
  145OSM    H6S15969   6.235   6.126   6.066 -0.9208  0.3594  0.1731
  145OSM    H6T15970   6.385   6.146   6.156  0.3811  0.1189 -2.0356
  145OSM    C7S15971   6.271   6.319   6.173 -0.3017 -0.3569  0.0798
  145OSM    H7S15972   6.334   6.359   6.255  1.9645 -1.1659 -1.1838
  145OSM    H7T15973   6.164   6.348   6.185 -0.6050 -1.8506  1.5629
  145OSM    C8S15974   6.328   6.385   6.050  0.3753 -0.3791  0.1544
  145OSM    H8S15975   6.428   6.342   6.026 -0.3092 -1.5167 -0.7422
  145OSM    H8T15976   6.341   6.494   6.066  0.7447 -0.0379 -2.1028
  145OSM    C9S15977   6.229   6.380   5.928 -0.0247 -0.2653 -0.2694
  145OSM    H9S15978   6.135   6.434   5.954  0.4992 -0.3521  1.9965
  145OSM    H9T15979   6.206   6.272   5.913 -0.6435 -0.3960  1.4683
  145OSM   C10S15980   6.288   6.449   5.801 -0.1536  0.0100 -0.2735
  145OSM   H10S15981   6.209   6.431   5.725 -0.0972 -0.0419 -0.3197
  145OSM   H10T15982   6.372   6.392   5.757 -1.2518 -0.1751 -2.2391
  145OSM   C11S15983   6.293   6.602   5.797  0.2269 -0.4110 -0.1876
  145OSM   H11S15984   6.326   6.637   5.897  0.7556 -0.3560 -0.3797
  145OSM   H11T15985   6.191   6.645   5.788  0.4490  0.2780  0.4683
  145OSM   C12S15986   6.362   6.648   5.676  0.3978  0.1135 -0.1906
  145OSM   H12S15987   6.466   6.609   5.662  0.3086 -1.6564  3.0153
  145OSM   H12T15988   6.369   6.756   5.698 -1.2757 -0.1874  2.1695
  145OSM   C13S15989   6.273   6.645   5.549 -0.2552  0.7909  0.2733
  145OSM   H13S15990   6.195   6.718   5.580 -0.8045  0.0223  0.7250
  145OSM   H13T15991   6.218   6.549   5.540  1.5634 -0.4467  1.5492
  145OSM   C14S15992   6.346   6.682   5.419  0.4768  0.6458 -0.4354
  145OSM   H14S15993   6.282   6.657   5.332 -0.9076 -2.1507  1.2314
  145OSM   H14T15994   6.436   6.618   5.408  0.7517  0.8583  0.4643
  145OSM   C15S15995   6.389   6.831   5.419 -0.8736 -0.1866  0.2696
  145OSM   H15S15996   6.475   6.835   5.489  0.0508 -2.1178 -0.6904
  145OSM   H15T15997   6.301   6.885   5.461  0.3361  0.5513  1.9981
  145OSM   C16S15998   6.423   6.884   5.279 -0.0543 -0.1522  0.4903
  145OSM   H16S15999   6.455   6.990   5.281  0.3737 -0.2709  0.1515
  145OSM   H16T16000   6.338   6.882   5.208  0.5987 -0.6722 -0.2940
  145OSM   C17S16001   6.533   6.799   5.217 -0.0440  0.6004 -0.0832
  145OSM   H17S16002   6.486   6.703   5.189 -0.4346  0.9021 -0.4685
  145OSM   H17T16003   6.606   6.778   5.299  0.5696 -0.4589 -0.8732
  145OSM   C18S16004   6.610   6.868   5.103  0.1401 -0.1488  0.3611
  145OSM   H18S16005   6.537   6.914   5.032 -1.4418 -0.7484  1.5329
  145OSM   H18T16006   6.676   6.790   5.060  0.2848 -0.0039  0.3222
  145OSM   H18U16007   6.667   6.958   5.135  1.2229 -0.7887  0.2522
  145OSM    C1F16008   5.797   5.902   6.278  0.6627 -0.1731 -0.0059
  145OSM     OF16009   5.696   5.949   6.321 -0.1314  0.4809  0.0100
  145OSM    C2F16010   5.798   5.794   6.168  0.2258 -0.7850  0.2816
  145OSM    H2F16011   5.747   5.700   6.199  0.7891 -0.9862  0.6086
  145OSM    H2G16012   5.906   5.767   6.165  0.4466 -0.2338  1.9930
  145OSM    C3F16013   5.751   5.848   6.031 -0.0244  0.6788  0.1498
  145OSM    H3F16014   5.641   5.865   6.034 -0.0928  0.9025 -2.0605
  145OSM    H3G16015   5.771   5.761   5.965 -0.5901  0.6952 -0.0497
  145OSM    C4F16016   5.822   5.974   5.980 -0.2076 -0.0068  0.4959
  145OSM    H4F16017   5.813   6.066   6.040  0.1533 -0.0974  0.6913
  145OSM    H4G16018   5.764   5.986   5.886  2.2387  0.9326 -1.0017
  145OSM    C5F16019   5.973   5.959   5.953  0.0814  0.0307 -0.1889
  145OSM    H5F16020   6.003   5.855   5.926  0.7094  0.2821 -0.4823
  145OSM    H5G16021   6.023   5.980   6.050 -0.7852  0.2660  0.2164
  145OSM    C6F16022   6.030   6.050   5.845 -0.2356  0.3099  0.4961
  145OSM    H6F16023   6.130   6.083   5.880 -1.1000  1.0248  2.4692
  145OSM    H6G16024   5.973   6.145   5.858 -0.9411 -0.1839  1.0520
  145OSM    C7F16025   6.013   6.014   5.696  0.5638  0.4974 -0.5223
  145OSM    H7F16026   5.919   5.954   5.695  1.0523 -0.3289  0.5968
  145OSM    H7G16027   6.091   5.946   5.658 -0.1658  0.0528 -1.2543
  145OSM    C8F16028   5.999   6.140   5.609  0.6704  0.5566 -0.0828
  145OSM    H8F16029   6.068   6.215   5.653  0.4879 -0.1621  1.4904
  145OSM    H8G16030   5.901   6.188   5.631  0.2787  0.1268 -0.8303
  145OSM    C9F16031   6.030   6.116   5.463 -0.1573 -0.6312  0.1797
  145OSM    H9F16032   5.993   6.020   5.424 -0.7306 -1.2591  2.1675
  145OSM   C10F16033   6.102   6.193   5.383 -0.7322  0.5029 -0.4876
  145OSM   H10F16034   6.112   6.161   5.278 -0.4617  0.2914 -0.3991
  145OSM   C11F16035   6.171   6.315   5.427  0.3152  0.6882 -0.0955
  145OSM   H11F16036   6.179   6.339   5.535 -0.7784  1.0371 -0.0802
  145OSM   H11G16037   6.111   6.403   5.394 -0.0317  0.6871  0.5192
  145OSM   C12F16038   6.307   6.317   5.369 -0.3887  0.1724 -0.6174
  145OSM   H12F16039   6.372   6.244   5.422  0.5983  1.0933 -0.5136
  145OSM   H12G16040   6.351   6.414   5.400 -1.4571  0.8466 -1.1396
  145OSM   C13F16041   6.319   6.314   5.216 -0.1143  0.3682 -0.2643
  145OSM   H13F16042   6.262   6.406   5.190  2.9504  2.8447  1.0497
  145OSM   H13G16043   6.279   6.218   5.178 -3.1999  2.0018 -1.5318
  145OSM   C14F16044   6.461   6.333   5.165  0.0312 -0.4216  0.1520
  145OSM   H14F16045   6.523   6.242   5.180  0.2587 -0.1567  0.8850
  145OSM   H14G16046   6.509   6.416   5.221 -0.4880  0.6167 -0.9125
  145OSM   C15F16047   6.465   6.381   5.023 -0.5122 -0.4603 -0.3991
  145OSM   H15F16048   6.424   6.484   5.023 -2.1681 -1.0584  1.4881
  145OSM   H15G16049   6.397   6.325   4.956  0.9258 -2.1134 -0.5402
  145OSM   C16F16050   6.605   6.386   4.959 -0.6154  0.0414 -0.2123
  145OSM   H16F16051   6.641   6.281   4.966  1.8295  0.9714  3.6763
  145OSM   H16G16052   6.681   6.444   5.015 -1.5812 -0.2033  1.4089
  145OSM   C17F16053   6.599   6.443   4.813  0.0097  0.3020 -0.6421
  145OSM   H17F16054   6.498   6.488   4.799 -0.7021 -1.8100 -3.1101
  145OSM   H17G16055   6.588   6.350   4.752 -0.0487 -1.7603  2.3089
  145OSM   C18F16056   6.722   6.528   4.777  0.0875 -0.1158 -0.3517
  145OSM   H18F16057   6.814   6.466   4.773  2.4009  2.9945  0.3835
  145OSM   H18G16058   6.725   6.600   4.862 -3.2196 -0.1177 -0.1254
  145OSM   H18H16059   6.701   6.577   4.680 -1.5247  0.4768  0.2547
  146OSM      N16060   3.731   1.522   6.965 -0.4832  0.3816  0.2380
  146OSM    C1516061   3.640   1.555   6.852 -0.4341  0.3503 -0.2356
  146OSM   H15A16062   3.636   1.661   6.830 -1.5543  0.2429 -0.6103
  146OSM   H15B16063   3.539   1.531   6.884 -0.1976  1.0238  1.0667
  146OSM   H15C16064   3.681   1.497   6.771  0.6248 -1.1542  1.3006
  146OSM    C1416065   3.688   1.576   7.094  0.4839 -0.3912 -0.3150
  146OSM   H14A16066   3.684   1.684   7.094 -0.3204 -0.3758 -2.2892
  146OSM   H14B16067   3.746   1.539   7.177 -2.4170 -1.6944  1.2741
  146OSM   H14C16068   3.586   1.549   7.115  0.1581  1.1935  0.2149
  146OSM    C1316069   3.730   1.371   6.974  0.7620  0.6021 -0.5565
  146OSM   H13A16070   3.631   1.331   6.993  0.7022  0.4446 -1.1835
  146OSM   H13B16071   3.803   1.332   7.043 -0.1703  2.4314  1.5695
  146OSM   H13C16072   3.751   1.335   6.874  0.5833  0.7743 -0.6574
  146OSM    C1216073   3.868   1.575   6.942 -0.0389  0.5471 -0.4313
  146OSM   H12A16074   3.930   1.554   7.028  0.1934 -2.2406 -1.1772
  146OSM   H12B16075   3.854   1.682   6.943  0.1013  0.5788 -1.2287
  146OSM    C1116076   3.943   1.542   6.809  0.9195 -0.8484 -0.1216
  146OSM   H11A16077   4.044   1.587   6.809  1.7351 -2.5884 -0.2798
  146OSM   H11B16078   3.883   1.584   6.726 -0.0185 -2.1205 -0.1262
  146OSM      P16079   4.071   1.326   6.881 -0.1171  0.0085 -0.0438
  146OSM    O1316080   4.110   1.378   7.010 -0.4417 -0.3841 -0.5193
  146OSM    O1416081   4.039   1.188   6.881  0.1286 -0.3052  0.6692
  146OSM    O1116082   4.195   1.338   6.788  0.4287  0.3114 -0.6012
  146OSM    O1216083   3.957   1.404   6.805 -0.2333  0.1488 -0.3677
  146OSM    C1S16084   4.242   1.254   6.684 -0.0773  0.0440  0.3323
  146OSM    H1S16085   4.180   1.166   6.654 -0.6527  1.0968 -1.7484
  146OSM    H1T16086   4.335   1.205   6.720 -0.2437 -1.3286 -0.9922
  146OSM     NF16087   4.282   1.242   6.438 -0.7526 -0.2926  0.9291
  146OSM    HNF16088   4.367   1.257   6.387 -1.5081 -0.6922 -0.4865
  146OSM    C2S16089   4.255   1.330   6.554 -0.6222 -0.4787  0.2074
  146OSM    H2S16090   4.162   1.385   6.530 -0.1704  0.3965  0.4282
  146OSM    C3S16091   4.356   1.449   6.576 -0.1596  0.1602  0.3718
  146OSM    H3S16092   4.447   1.401   6.618 -1.3717 -1.9183  0.7376
  146OSM     O316093   4.314   1.542   6.673  0.4294  0.6074 -0.5235
  146OSM    HO316094   4.272   1.489   6.742  2.5168  0.7827  0.9709
  146OSM    C4S16095   4.386   1.521   6.448  0.5146  0.1815 -0.5447
  146OSM    H4S16096   4.458   1.462   6.390  0.3462 -0.4368 -0.1301
  146OSM    C5S16097   4.332   1.632   6.390  0.1069  0.3106  0.7547
  146OSM    H5S16098   4.248   1.679   6.443 -0.0366 -0.6396  1.3853
  146OSM    C6S16099   4.362   1.665   6.246 -0.3256 -0.7380  0.5491
  146OSM    H6S16100   4.461   1.714   6.233 -1.3391  1.0677 -0.9936
  146OSM    H6T16101   4.293   1.741   6.202  1.2559  0.6628  0.3441
  146OSM    C7S16102   4.337   1.554   6.147 -0.2005  0.3849  1.0770
  146OSM    H7S16103   4.236   1.507   6.146  0.2519 -0.6676 -1.2288
  146OSM    H7T16104   4.396   1.461   6.162 -0.9005 -0.5311 -1.2767
  146OSM    C8S16105   4.364   1.605   6.002  0.4179 -0.6703  0.4995
  146OSM    H8S16106   4.460   1.662   5.999 -0.4291  0.9551  2.4373
  146OSM    H8T16107   4.288   1.677   5.965 -0.0015 -0.7640  1.1783
  146OSM    C9S16108   4.365   1.497   5.889 -0.2893  0.1611 -0.5348
  146OSM    H9S16109   4.284   1.429   5.923 -1.8894  2.9318  1.5930
  146OSM    H9T16110   4.458   1.437   5.894  1.0899  2.1417 -1.3741
  146OSM   C10S16111   4.337   1.549   5.747  0.1247 -0.0530  0.4568
  146OSM   H10S16112   4.241   1.600   5.726  0.1961 -0.1160 -0.0477
  146OSM   H10T16113   4.321   1.459   5.683 -0.9732 -0.8890  1.8644
  146OSM   C11S16114   4.456   1.627   5.696  0.1464 -0.8789 -0.1544
  146OSM   H11S16115   4.532   1.560   5.651  1.3049 -0.1755  0.7027
  146OSM   H11T16116   4.497   1.689   5.779 -1.7376  1.4933 -0.8697
  146OSM   C12S16117   4.434   1.729   5.576  0.5413  0.4581  0.1612
  146OSM   H12S16118   4.533   1.766   5.542  0.5815 -0.9471 -1.3476
  146OSM   H12T16119   4.372   1.817   5.605  0.8115  0.7611 -0.1741
  146OSM   C13S16120   4.356   1.662   5.458 -0.1874 -0.8189 -0.0521
  146OSM   H13S16121   4.368   1.738   5.378  1.4208 -0.7309  0.2304
  146OSM   H13T16122   4.247   1.645   5.472 -0.5692 -0.4978 -2.2272
  146OSM   C14S16123   4.432   1.529   5.420  0.0817 -0.7232  0.1727
  146OSM   H14S16124   4.449   1.464   5.508 -0.3994  1.0605  1.6361
  146OSM   H14T16125   4.536   1.555   5.391  1.1177 -2.6013  1.9435
  146OSM   C15S16126   4.388   1.454   5.299 -0.1721 -0.1116  0.0700
  146OSM   H15S16127   4.281   1.426   5.306 -0.8956  2.4852  0.1797
  146OSM   H15T16128   4.452   1.367   5.271 -1.4507 -0.4847 -1.8632
  146OSM   C16S16129   4.387   1.548   5.175  0.0056 -0.0925 -0.2687
  146OSM   H16S16130   4.484   1.601   5.175  1.1619 -2.0778  1.8674
  146OSM   H16T16131   4.308   1.627   5.181 -0.9036 -0.8797 -1.3907
  146OSM   C17S16132   4.360   1.484   5.037  0.0231 -0.5836 -0.1720
  146OSM   H17S16133   4.273   1.415   5.040 -0.5642  0.1465 -0.3748
  146OSM   H17T16134   4.452   1.423   5.025  0.0394 -0.4798 -0.5728
  146OSM   C18S16135   4.330   1.589   4.933 -0.0567  0.3508  0.2165
  146OSM   H18S16136   4.405   1.671   4.941 -0.2940  0.4830  1.2012
  146OSM   H18T16137   4.230   1.628   4.961  0.2229  0.2670  1.3974
  146OSM   H18U16138   4.331   1.555   4.828 -0.2637  2.8693 -0.6798
  146OSM    C1F16139   4.200   1.140   6.395 -1.1678 -0.1322 -0.1619
  146OSM     OF16140   4.098   1.117   6.454  0.0877  0.1970  0.5604
  146OSM    C2F16141   4.239   1.063   6.266 -0.5313  0.1150 -0.8603
  146OSM    H2F16142   4.162   0.983   6.264 -0.6016 -0.0210  2.0473
  146OSM    H2G16143   4.342   1.027   6.286 -0.3317  0.8760 -0.4722
  146OSM    C3F16144   4.227   1.140   6.134 -0.4892  0.5631 -0.5774
  146OSM    H3F16145   4.315   1.207   6.139  0.2513 -0.4723  3.5267
  146OSM    H3G16146   4.131   1.195   6.133 -0.8210 -0.0121 -0.8415
  146OSM    C4F16147   4.226   1.038   6.014 -0.6142  0.1020 -0.7499
  146OSM    H4F16148   4.136   0.974   6.028 -0.2140 -0.0249  1.7068
  146OSM    H4G16149   4.321   0.981   6.006 -0.9958 -0.6671  0.0965
  146OSM    C5F16150   4.220   1.116   5.884  0.0452 -1.1622 -0.9617
  146OSM    H5F16151   4.296   1.197   5.887 -1.2614  0.1323  2.2849
  146OSM    H5G16152   4.128   1.178   5.896  0.9213 -0.2317  2.0310
  146OSM    C6F16153   4.255   1.036   5.766 -0.3850 -0.1958  0.0964
  146OSM    H6F16154   4.335   0.958   5.768  0.4836  0.6760 -0.0782
  146OSM    H6G16155   4.306   1.096   5.688  1.6604 -4.0545 -1.8787
  146OSM    C7F16156   4.133   0.958   5.728  0.1237 -0.4012  0.2100
  146OSM    H7F16157   4.047   1.026   5.710  0.6666  0.1969 -0.1646
  146OSM    H7G16158   4.108   0.897   5.817 -0.4257 -0.2273  0.1787
  146OSM    C8F16159   4.156   0.876   5.606  0.0623  0.1494 -0.2720
  146OSM    H8F16160   4.070   0.805   5.605  0.2859 -0.2450  2.1943
  146OSM    H8G16161   4.245   0.810   5.613 -0.1114 -0.1942 -1.1390
  146OSM    C9F16162   4.172   0.966   5.483  0.2158  0.1251 -0.6624
  146OSM    H9F16163   4.209   1.069   5.495 -2.6284  1.2227 -0.4118
  146OSM   C10F16164   4.145   0.925   5.356  0.4514 -0.0013 -0.3044
  146OSM   H10F16165   4.158   0.988   5.267  0.5123 -0.0216 -0.3104
  146OSM   C11F16166   4.084   0.794   5.314 -0.2269  0.6948 -0.0779
  146OSM   H11F16167   3.997   0.823   5.251 -0.3028 -0.6314 -0.6137
  146OSM   H11G16168   4.055   0.729   5.398  1.4513  2.1769  1.7484
  146OSM   C12F16169   4.179   0.713   5.220  0.3230  0.0155  0.0373
  146OSM   H12F16170   4.264   0.695   5.289  0.1034  0.9584  0.5733
  146OSM   H12G16171   4.214   0.773   5.133  0.1605 -0.8069 -0.6040
  146OSM   C13F16172   4.128   0.572   5.180  0.5657 -0.7624 -0.0807
  146OSM   H13F16173   4.061   0.531   5.259 -0.4945  2.2108  0.7106
  146OSM   H13G16174   4.224   0.519   5.165  1.4309  0.3525  1.2730
  146OSM   C14F16175   4.051   0.559   5.043 -0.3062  0.2435  1.0719
  146OSM   H14F16176   3.957   0.616   5.055 -0.8646 -0.0465 -1.4326
  146OSM   H14G16177   4.120   0.614   4.974 -0.2079 -0.6019  0.4765
  146OSM   C15F16178   4.047   0.412   5.000 -0.3588  0.1188  0.5084
  146OSM   H15F16179   3.988   0.360   5.078 -0.8279  1.6896  1.2420
  146OSM   H15G16180   4.148   0.365   4.998 -0.3777  0.0188  1.4108
  146OSM   C16F16181   3.988   0.379   4.864 -0.3626 -0.0795 -1.1989
  146OSM   H16F16182   3.894   0.439   4.859 -0.6480 -0.4245 -0.1935
  146OSM   H16G16183   3.964   0.272   4.848  0.3792 -0.4301 -0.0742
  146OSM   C17F16184   4.083   0.430   4.752 -0.2451  0.6202  0.7494
  146OSM   H17F16185   4.177   0.371   4.747 -0.2841  0.6565 -0.7357
  146OSM   H17G16186   4.113   0.534   4.774 -0.1448  0.9971 -0.9901
  146OSM   C18F16187   4.013   0.425   4.618  0.1026 -0.4219  0.2084
  146OSM   H18F16188   4.023   0.324   4.572 -0.2677 -0.6210  0.5543
  146OSM   H18G16189   4.068   0.490   4.546  1.9485  0.9436  2.7115
  146OSM   H18H16190   3.908   0.461   4.628  0.5200  0.7383  0.5746
  147OSM      N16191   4.822   3.294   2.244  0.2665 -0.1798 -0.1149
  147OSM    C1516192   4.829   3.350   2.387 -0.0111 -0.1926 -0.1196
  147OSM   H15A16193   4.745   3.304   2.437 -0.1587 -0.3976 -0.5579
  147OSM   H15B16194   4.832   3.457   2.395  1.0182 -0.2951  1.5387
  147OSM   H15C16195   4.921   3.311   2.429  0.4667  2.4201  1.4625
  147OSM    C1416196   4.782   3.157   2.242 -0.1664 -0.0063  0.1586
  147OSM   H14A16197   4.854   3.095   2.294 -0.3508 -1.2562 -1.0391
  147OSM   H14B16198   4.761   3.126   2.141 -0.8828  1.7565 -0.2675
  147OSM   H14C16199   4.691   3.134   2.295  0.9165  0.2873  2.2724
  147OSM    C1316200   4.707   3.370   2.181  0.0242 -0.2508 -0.1911
  147OSM   H13A16201   4.697   3.358   2.074 -1.3258 -1.8850  0.0732
  147OSM   H13B16202   4.706   3.478   2.191 -0.0366 -0.2251 -0.4545
  147OSM   H13C16203   4.618   3.343   2.235  0.7129  1.2361  1.8197
  147OSM    C1216204   4.951   3.321   2.165 -0.4065  0.3598 -0.1886
  147OSM   H12A16205   4.979   3.425   2.166 -3.2330  1.1905  0.1625
  147OSM   H12B16206   4.906   3.301   2.069  0.2893  0.2204 -0.4882
  147OSM    C1116207   5.073   3.239   2.193 -0.0239 -0.6711 -0.4981
  147OSM   H11A16208   5.088   3.237   2.303  0.0370  0.2834 -0.4821
  147OSM   H11B16209   5.159   3.303   2.162 -0.6172 -0.2074 -1.2068
  147OSM      P16210   5.154   2.998   2.094  0.4341 -0.0933 -0.1760
  147OSM    O1316211   5.076   2.870   2.086  0.0223  0.1200 -0.0780
  147OSM    O1416212   5.235   3.044   1.983 -0.1467 -0.1897  0.0384
  147OSM    O1116213   5.250   2.981   2.217  0.7719 -0.4544 -0.2574
  147OSM    O1216214   5.055   3.104   2.143  0.0509 -0.2128  0.7456
  147OSM    C1S16215   5.190   2.922   2.341 -0.5320  0.4038 -0.0322
  147OSM    H1S16216   5.184   2.812   2.327  1.8630  0.1378  0.6144
  147OSM    H1T16217   5.093   2.972   2.362 -0.3211  1.0866 -0.6456
  147OSM     NF16218   5.201   2.885   2.586 -0.0838 -0.3175  0.1252
  147OSM    HNF16219   5.166   2.942   2.660 -0.7979 -1.2836  0.5451
  147OSM    C2S16220   5.270   2.952   2.474 -0.6909  0.6363  0.2437
  147OSM    H2S16221   5.366   2.897   2.468 -0.8178  0.4259  0.1266
  147OSM    C3S16222   5.306   3.099   2.507  0.0866  0.5008  0.8734
  147OSM    H3S16223   5.217   3.159   2.535  0.3229  0.6670  1.2819
  147OSM     O316224   5.364   3.158   2.390  0.0066 -0.3056 -0.2922
  147OSM    HO316225   5.343   3.088   2.329 -2.0391  0.3479 -0.4133
  147OSM    C4S16226   5.397   3.116   2.631 -0.1664  0.4088 -0.0703
  147OSM    H4S16227   5.342   3.124   2.726 -1.0430  3.3690 -0.7015
  147OSM    C5S16228   5.530   3.132   2.629 -0.4143 -0.9222  0.4644
  147OSM    H5S16229   5.570   3.132   2.527  0.5954  2.7998  0.7133
  147OSM    C6S16230   5.636   3.153   2.733 -0.0092  0.0550  0.2597
  147OSM    H6S16231   5.682   3.253   2.719 -0.6677  0.3459  0.1540
  147OSM    H6T16232   5.718   3.079   2.718  1.8043  1.5429  2.2860
  147OSM    C7S16233   5.598   3.139   2.882  0.1895  0.0702  0.4373
  147OSM    H7S16234   5.539   3.046   2.899  1.0825 -0.7148 -0.6030
  147OSM    H7T16235   5.534   3.222   2.917 -1.4244 -1.6014  1.6139
  147OSM    C8S16236   5.722   3.125   2.973  0.3849 -0.3002  0.2495
  147OSM    H8S16237   5.809   3.183   2.934  0.0954 -0.4815 -0.6944
  147OSM    H8T16238   5.750   3.018   2.978  0.5147 -0.2503  0.6350
  147OSM    C9S16239   5.683   3.186   3.112 -0.0474  0.1449  0.0050
  147OSM    H9S16240   5.592   3.129   3.140  0.5344 -0.9702 -0.3271
  147OSM    H9T16241   5.649   3.292   3.101  0.8912  0.3555 -1.0689
  147OSM   C10S16242   5.798   3.184   3.213 -0.2771  0.0762 -0.5847
  147OSM   H10S16243   5.884   3.247   3.181 -0.9284  2.1768  1.4834
  147OSM   H10T16244   5.824   3.077   3.216 -0.1446  0.1213 -0.0642
  147OSM   C11S16245   5.751   3.229   3.349  0.4638 -0.2572 -0.1021
  147OSM   H11S16246   5.655   3.175   3.363  0.3756 -0.2880 -0.8208
  147OSM   H11T16247   5.730   3.337   3.335  2.8432  0.0905 -1.4978
  147OSM   C12S16248   5.850   3.194   3.465  0.0245  0.1142 -0.4909
  147OSM   H12S16249   5.953   3.232   3.456 -0.8532  2.5232 -0.9791
  147OSM   H12T16250   5.866   3.084   3.469  0.4803  0.1975  0.1904
  147OSM   C13S16251   5.797   3.240   3.601  0.7561  0.0715 -0.8417
  147OSM   H13S16252   5.705   3.179   3.612  1.2635 -0.6475 -0.4816
  147OSM   H13T16253   5.766   3.346   3.594  1.1388  0.1157 -2.1121
  147OSM   C14S16254   5.897   3.208   3.715 -0.3847  0.0861 -0.3910
  147OSM   H14S16255   5.984   3.271   3.686  0.0348 -0.6023 -0.6634
  147OSM   H14T16256   5.931   3.103   3.703 -0.1115 -0.2981  2.8497
  147OSM   C15S16257   5.849   3.227   3.859  0.0960  0.3477  0.4517
  147OSM   H15S16258   5.756   3.169   3.872  0.4886  0.0793  2.4870
  147OSM   H15T16259   5.822   3.334   3.875 -1.0917  0.4107 -1.6700
  147OSM   C16S16260   5.954   3.190   3.968  0.1079 -0.7918 -0.5031
  147OSM   H16S16261   6.053   3.233   3.944 -0.1205 -0.1546 -0.3555
  147OSM   H16T16262   5.964   3.080   3.971 -0.9923 -0.9266 -1.0870
  147OSM   C17S16263   5.913   3.239   4.103  0.4542  0.1339 -0.4112
  147OSM   H17S16264   5.811   3.207   4.134  0.5721 -1.6098 -1.6854
  147OSM   H17T16265   5.907   3.349   4.096 -1.0509  0.1658  0.7901
  147OSM   C18S16266   6.000   3.189   4.216 -0.7655  0.6224 -0.4429
  147OSM   H18S16267   5.960   3.224   4.314  0.4093  0.7342  0.0029
  147OSM   H18T16268   6.102   3.226   4.195  0.6183 -2.8306 -0.3745
  147OSM   H18U16269   5.997   3.078   4.214 -0.9618  0.6361 -1.7183
  147OSM    C1F16270   5.196   2.749   2.596 -0.3106  0.3334  0.2576
  147OSM     OF16271   5.243   2.672   2.511 -0.2749 -0.5720  0.2707
  147OSM    C2F16272   5.133   2.695   2.720  0.2174  0.0429  0.3204
  147OSM    H2F16273   5.034   2.649   2.700 -0.7849  0.7027  3.2275
  147OSM    H2G16274   5.126   2.786   2.783 -0.0756  0.9473 -0.9928
  147OSM    C3F16275   5.219   2.593   2.793 -0.8194  0.0616  0.1122
  147OSM    H3F16276   5.327   2.617   2.806 -0.9879 -0.0866  1.9803
  147OSM    H3G16277   5.212   2.505   2.726 -0.1981 -0.2515  0.4461
  147OSM    C4F16278   5.167   2.550   2.929 -0.2293 -0.4594 -0.1852
  147OSM    H4F16279   5.216   2.453   2.953  1.4020  0.8131  1.9036
  147OSM    H4G16280   5.059   2.524   2.923 -0.0919 -1.3495  0.9194
  147OSM    C5F16281   5.196   2.650   3.039 -0.7267 -0.4035 -1.1924
  147OSM    H5F16282   5.142   2.743   3.013 -0.1948  0.1125 -0.4966
  147OSM    H5G16283   5.305   2.674   3.042 -0.3250 -2.1302  1.7475
  147OSM    C6F16284   5.163   2.597   3.177  0.2042 -0.3699  0.3928
  147OSM    H6F16285   5.195   2.491   3.184  0.1436 -0.5827 -1.7349
  147OSM    H6G16286   5.052   2.591   3.178  0.1325  0.5681  2.4585
  147OSM    C7F16287   5.207   2.679   3.303 -0.4427  0.5076  0.0942
  147OSM    H7F16288   5.196   2.788   3.287  1.5420  0.6846 -0.3681
  147OSM    H7G16289   5.308   2.660   3.345 -0.4979  0.9572  0.4421
  147OSM    C8F16290   5.117   2.643   3.419  0.0750 -0.2329 -0.3326
  147OSM    H8F16291   5.010   2.639   3.391  0.3095 -1.0429 -1.1442
  147OSM    H8G16292   5.132   2.727   3.491  0.9803  0.5162 -1.3588
  147OSM    C9F16293   5.159   2.515   3.491  0.4049 -0.1143  0.1208
  147OSM    H9F16294   5.214   2.447   3.424  0.3743 -2.0552  1.9815
  147OSM   C10F16295   5.146   2.488   3.625 -0.1362 -0.2692  0.5762
  147OSM   H10F16296   5.193   2.399   3.669  0.6785  0.6686  1.6739
  147OSM   C11F16297   5.065   2.576   3.719 -0.1119 -0.0259  0.2592
  147OSM   H11F16298   4.959   2.583   3.688  0.0619 -0.2255 -0.4183
  147OSM   H11G16299   5.105   2.680   3.720 -2.1336  0.8850 -2.4140
  147OSM   C12F16300   5.078   2.509   3.862 -0.1977  0.6237  0.1587
  147OSM   H12F16301   5.180   2.467   3.879  0.3439  1.2007 -1.4499
  147OSM   H12G16302   5.003   2.429   3.874  1.3767 -0.8351  0.7092
  147OSM   C13F16303   5.058   2.611   3.975 -0.3378 -0.0667 -0.4485
  147OSM   H13F16304   4.952   2.642   3.968 -1.0524 -1.9049  1.2598
  147OSM   H13G16305   5.124   2.701   3.981 -0.7234  0.1817  0.2281
  147OSM   C14F16306   5.065   2.544   4.113  0.4213 -0.6212 -1.3797
  147OSM   H14F16307   5.168   2.516   4.146 -0.8786 -3.2118  0.8876
  147OSM   H14G16308   5.013   2.447   4.121  0.5033 -0.5313  1.2442
  147OSM   C15F16309   4.991   2.625   4.225  0.7480  0.6350 -0.1213
  147OSM   H15F16310   4.983   2.564   4.318  0.9991  0.7440 -0.0263
  147OSM   H15G16311   4.891   2.655   4.190  0.8033  1.5663  0.4790
  147OSM   C16F16312   5.079   2.744   4.272 -0.2113 -0.4606 -0.6998
  147OSM   H16F16313   5.095   2.817   4.189  3.3691  0.7733  0.8532
  147OSM   H16G16314   5.176   2.699   4.304  0.0391  1.6890  1.9105
  147OSM   C17F16315   5.006   2.813   4.390 -0.5482  0.6476 -0.0849
  147OSM   H17F16316   4.997   2.745   4.477  2.0674 -0.4077 -0.5651
  147OSM   H17G16317   4.901   2.833   4.359 -0.9454  0.3819  1.0298
  147OSM   C18F16318   5.069   2.942   4.430  0.0944 -0.5110 -0.6551
  147OSM   H18F16319   5.148   2.919   4.504  0.9674  1.4514 -0.9120
  147OSM   H18G16320   5.002   3.017   4.478  1.0202 -0.5538  0.7411
  147OSM   H18H16321   5.112   2.999   4.344  0.1863  0.3699 -0.0421
  148OSM      N16322   5.697   2.774   1.612  0.2383  0.1576 -0.4448
  148OSM    C1516323   5.666   2.679   1.500 -0.6245 -0.5230 -0.2140
  148OSM   H15A16324   5.740   2.609   1.465 -0.0263  0.0540 -0.1375
  148OSM   H15B16325   5.668   2.739   1.410  3.1420 -0.4802 -0.2638
  148OSM   H15C16326   5.573   2.626   1.510 -0.2848 -0.9220  0.9517
  148OSM    C1416327   5.833   2.833   1.599  0.1826  0.9172 -1.1382
  148OSM   H14A16328   5.844   2.891   1.508  0.9632  2.3331 -0.1719
  148OSM   H14B16329   5.914   2.762   1.602  1.0820  1.9621  0.8474
  148OSM   H14C16330   5.856   2.891   1.687  2.0811 -2.0717  0.4756
  148OSM    C1316331   5.593   2.886   1.611  0.1878 -0.0857 -0.1301
  148OSM   H13A16332   5.493   2.844   1.613  0.0002  0.0562 -2.8364
  148OSM   H13B16333   5.601   2.946   1.522  0.4000 -1.8085 -1.3140
  148OSM   H13C16334   5.604   2.951   1.697 -1.9892 -1.1837  1.0656
  148OSM    C1216335   5.687   2.698   1.741 -0.3448  0.1860  0.1031
  148OSM   H12A16336   5.766   2.625   1.748 -1.8212 -1.3535  1.6054
  148OSM   H12B16337   5.606   2.628   1.738  0.4387 -0.7674  0.5638
  148OSM    C1116338   5.688   2.779   1.872 -0.2585  0.5844  0.2845
  148OSM   H11A16339   5.683   2.703   1.953 -2.9060 -0.1395 -0.4558
  148OSM   H11B16340   5.595   2.838   1.889 -0.4991  0.3743 -0.2613
  148OSM      P16341   5.921   2.824   1.979  0.0240 -0.1121  0.0046
  148OSM    O1316342   5.946   2.686   1.951  0.1640  0.4740 -0.6250
  148OSM    O1416343   6.030   2.924   1.966 -0.5016 -0.5872  0.2647
  148OSM    O1116344   5.859   2.838   2.124 -0.4786 -0.3434  0.6116
  148OSM    O1216345   5.797   2.867   1.885  0.5811  0.1391 -0.0362
  148OSM    C1S16346   5.925   2.904   2.228 -0.1245 -0.2439 -0.1722
  148OSM    H1S16347   5.932   3.013   2.208  0.9062 -0.2216  0.2289
  148OSM    H1T16348   6.031   2.873   2.243  0.4558  2.0521  0.9924
  148OSM     NF16349   5.904   2.972   2.460 -0.2458 -0.2617  0.2938
  148OSM    HNF16350   5.941   2.929   2.541  0.1028 -0.9283 -0.2054
  148OSM    C2S16351   5.846   2.881   2.366  0.4199  0.5221 -0.3452
  148OSM    H2S16352   5.738   2.901   2.353 -0.1538 -2.2604 -0.3997
  148OSM    C3S16353   5.847   2.726   2.412  0.5209  0.0595 -0.8394
  148OSM    H3S16354   5.952   2.690   2.418  0.4217 -0.2516 -0.9559
  148OSM     O316355   5.785   2.635   2.323 -0.5553  0.0268  0.0757
  148OSM    HO316356   5.752   2.685   2.248 -1.3372 -1.3526 -0.5418
  148OSM    C4S16357   5.786   2.722   2.547  0.1343 -0.2501  0.2489
  148OSM    H4S16358   5.861   2.722   2.628  1.3470  0.4994 -0.8410
  148OSM    C5S16359   5.654   2.722   2.581  0.2843 -0.0682  0.2152
  148OSM    H5S16360   5.579   2.744   2.503 -1.1498 -0.6423  1.3972
  148OSM    C6S16361   5.591   2.735   2.716 -0.2273 -0.0804  0.9368
  148OSM    H6S16362   5.522   2.647   2.714  0.1140 -0.5008 -3.5509
  148OSM    H6T16363   5.523   2.823   2.720 -0.4324 -0.2876  2.9101
  148OSM    C7S16364   5.680   2.740   2.836  0.1769 -0.3016 -1.1251
  148OSM    H7S16365   5.758   2.818   2.821 -2.3836  2.6862  0.0823
  148OSM    H7T16366   5.722   2.637   2.846 -0.3186 -0.3149  1.8768
  148OSM    C8S16367   5.601   2.769   2.966 -1.1197 -0.1856  0.0685
  148OSM    H8S16368   5.509   2.708   2.975 -0.0341 -1.5602  2.6620
  148OSM    H8T16369   5.553   2.869   2.953  1.1470  0.7377 -1.9571
  148OSM    C9S16370   5.666   2.750   3.099  0.1110  0.1427 -0.5942
  148OSM    H9S16371   5.760   2.810   3.107  1.0110 -1.2715 -0.1390
  148OSM    H9T16372   5.686   2.641   3.105 -1.5454 -0.1346  0.3139
  148OSM   C10S16373   5.584   2.798   3.227 -0.9835  0.4034 -0.4531
  148OSM   H10S16374   5.491   2.736   3.231 -1.0911  0.6179  1.4557
  148OSM   H10T16375   5.552   2.903   3.214  0.4761  0.9234 -0.0591
  148OSM   C11S16376   5.657   2.796   3.365  0.1405  0.2471  0.1072
  148OSM   H11S16377   5.755   2.848   3.364 -1.0542  2.6207  0.5236
  148OSM   H11T16378   5.665   2.688   3.392 -0.1388 -0.0939 -1.1197
  148OSM   C12S16379   5.588   2.882   3.481 -0.3668  0.7463  0.4845
  148OSM   H12S16380   5.479   2.860   3.476 -0.4395  1.2133 -0.0432
  148OSM   H12T16381   5.619   2.985   3.455 -0.6476  0.6032 -0.4522
  148OSM   C13S16382   5.652   2.850   3.611  0.3480 -0.4921 -0.0118
  148OSM   H13S16383   5.761   2.867   3.608  0.3299 -0.3901 -2.8983
  148OSM   H13T16384   5.639   2.741   3.629 -1.4105 -0.2308  0.5571
  148OSM   C14S16385   5.603   2.924   3.733 -0.0259  0.1004  0.7393
  148OSM   H14S16386   5.492   2.922   3.734 -0.1721  2.6787 -0.8988
  148OSM   H14T16387   5.633   3.031   3.730 -0.4507  0.2059 -0.4656
  148OSM   C15S16388   5.645   2.851   3.859 -0.1350  0.1028  0.4039
  148OSM   H15S16389   5.648   2.922   3.945 -2.2523  0.1508  0.4896
  148OSM   H15T16390   5.748   2.814   3.840 -0.6474 -1.0480 -0.2385
  148OSM   C16S16391   5.547   2.725   3.888  0.6849 -0.6172 -0.3680
  148OSM   H16S16392   5.584   2.635   3.836  0.1002 -1.4792  0.6453
  148OSM   H16T16393   5.446   2.747   3.847  0.5799 -0.3005  0.0521
  148OSM   C17S16394   5.539   2.694   4.037  0.2707 -0.4534 -0.2949
  148OSM   H17S16395   5.634   2.701   4.092  0.4851  1.1609 -0.8289
  148OSM   H17T16396   5.500   2.590   4.042  1.5741 -0.8863  3.5959
  148OSM   C18S16397   5.444   2.797   4.111  0.3236 -0.1410  0.4800
  148OSM   H18S16398   5.475   2.901   4.087 -0.9247  0.1237 -0.0438
  148OSM   H18T16399   5.454   2.786   4.221 -0.0101  0.4155  0.5670
  148OSM   H18U16400   5.339   2.788   4.077  0.6597  1.8288 -1.2859
  148OSM    C1F16401   5.902   3.102   2.448 -0.9017 -0.8240  0.6459
  148OSM     OF16402   5.834   3.152   2.357 -0.4753 -0.9918 -0.6272
  148OSM    C2F16403   5.985   3.175   2.540 -0.3397 -0.5623 -0.0624
  148OSM    H2F16404   6.085   3.162   2.493  0.2997 -0.7599  1.2934
  148OSM    H2G16405   5.995   3.125   2.639  0.9754  0.4058  0.3310
  148OSM    C3F16406   5.952   3.321   2.561  0.1311 -0.3080 -0.1857
  148OSM    H3F16407   5.853   3.318   2.611  0.5278 -1.9921  0.5398
  148OSM    H3G16408   5.945   3.370   2.461 -1.8586 -1.2577 -0.5685
  148OSM    C4F16409   6.066   3.389   2.652  0.4315  0.4542  0.4881
  148OSM    H4F16410   6.048   3.498   2.667  3.4187  1.1039  0.0799
  148OSM    H4G16411   6.165   3.383   2.602 -1.0481  0.0940 -2.6826
  148OSM    C5F16412   6.078   3.316   2.787 -0.0345 -0.0637  0.1128
  148OSM    H5F16413   6.140   3.224   2.778  0.0676 -0.0759  0.9246
  148OSM    H5G16414   5.980   3.294   2.835  0.0717  0.2187  0.4623
  148OSM    C6F16415   6.163   3.407   2.886 -0.3188  0.1638  0.3808
  148OSM    H6F16416   6.244   3.461   2.833  1.5433 -0.9970  1.9213
  148OSM    H6G16417   6.208   3.338   2.960 -1.3570 -3.4400 -2.0896
  148OSM    C7F16418   6.084   3.504   2.973 -0.0555 -0.2458  0.3124
  148OSM    H7F16419   5.995   3.451   3.015 -0.0248 -0.0233  0.6573
  148OSM    H7G16420   6.035   3.582   2.911  1.0114  0.3604  0.2149
  148OSM    C8F16421   6.153   3.581   3.087 -0.1086 -1.0195 -0.1454
  148OSM    H8F16422   6.081   3.656   3.126 -1.8567 -2.1522 -1.0446
  148OSM    H8G16423   6.235   3.642   3.042 -0.7938 -0.4173 -0.5946
  148OSM    C9F16424   6.214   3.497   3.200 -0.8934  0.0921 -0.9051
  148OSM    H9F16425   6.254   3.399   3.172 -0.6956 -0.1387  0.1344
  148OSM   C10F16426   6.199   3.526   3.332  0.1973 -0.1800  0.4466
  148OSM   H10F16427   6.252   3.465   3.407 -1.1737  0.8632  2.3472
  148OSM   C11F16428   6.125   3.641   3.399  0.3509  0.2252  0.1288
  148OSM   H11F16429   6.032   3.667   3.344 -0.3506 -3.0326 -0.3906
  148OSM   H11G16430   6.202   3.721   3.399 -0.7165  1.2992  1.2068
  148OSM   C12F16431   6.075   3.604   3.540 -0.4876  0.1740  0.7317
  148OSM   H12F16432   6.025   3.505   3.539  2.0644 -1.2300  2.5044
  148OSM   H12G16433   6.002   3.683   3.569 -0.2947  1.4706 -1.9842
  148OSM   C13F16434   6.193   3.603   3.639  0.6620 -0.3651  0.1967
  148OSM   H13F16435   6.256   3.694   3.642  1.7874 -1.1496  2.1332
  148OSM   H13G16436   6.264   3.527   3.600  2.2634  0.3238  1.6481
  148OSM   C14F16437   6.154   3.565   3.789  0.8515  0.2236 -0.0627
  148OSM   H14F16438   6.155   3.456   3.810 -0.8046  0.5156  1.7527
  148OSM   H14G16439   6.048   3.599   3.794  0.7196  0.2999 -2.2216
  148OSM   C15F16440   6.247   3.631   3.885 -0.6475  0.8975  0.2761
  148OSM   H15F16441   6.225   3.739   3.894  0.6349  1.1161  1.1172
  148OSM   H15G16442   6.349   3.636   3.840  0.1707 -0.7101  1.8024
  148OSM   C16F16443   6.244   3.574   4.027 -0.4453 -0.1334 -0.4023
  148OSM   H16F16444   6.326   3.613   4.091 -0.2413 -2.2296  0.7001
  148OSM   H16G16445   6.263   3.464   4.022 -3.2321 -0.6473 -1.8815
  148OSM   C17F16446   6.103   3.594   4.088 -0.4018  0.3847  0.4581
  148OSM   H17F16447   6.030   3.550   4.018 -0.1162  2.2448 -1.0794
  148OSM   H17G16448   6.079   3.703   4.089  1.6518  0.9368  3.2804
  148OSM   C18F16449   6.096   3.534   4.229 -0.6684 -0.4874  0.1912
  148OSM   H18F16450   5.990   3.515   4.256 -0.4573 -0.9593  0.6955
  148OSM   H18G16451   6.144   3.606   4.298 -2.3238  1.4223 -0.5623
  148OSM   H18H16452   6.137   3.431   4.235 -2.1526 -1.4396 -3.1691
  149OSM      N16453   0.032   2.180   1.796 -0.0860 -0.0603 -0.7514
  149OSM    C1516454   0.136   2.083   1.785 -0.3123  0.0044 -0.4723
  149OSM   H15A16455   0.165   2.044   1.689  0.6588 -0.7567  0.1142
  149OSM   H15B16456   0.121   1.996   1.847  1.5430  0.8832  1.3026
  149OSM   H15C16457   0.222   2.129   1.832 -0.0521 -0.1331 -0.8116
  149OSM    C1416458   0.062   2.282   1.683  0.0670 -0.4744  0.2780
  149OSM   H14A16459   0.061   2.252   1.579 -1.2385  0.4348  0.0016
  149OSM   H14B16460   0.159   2.327   1.699 -0.7435  1.4015  0.2364
  149OSM   H14C16461  -0.011   2.362   1.691  0.9021  0.5930 -1.8197
  149OSM    C1316462  -0.102   2.121   1.767 -0.1018  0.1911 -0.2284
  149OSM   H13A16463  -0.098   2.072   1.670 -0.0948  0.5403 -0.4052
  149OSM   H13B16464  -0.170   2.204   1.756 -0.9431 -0.5094 -0.4324
  149OSM   H13C16465  -0.138   2.052   1.842 -0.9681  0.6619 -0.2025
  149OSM    C1216466   0.028   2.239   1.938  0.1198 -0.0014 -0.4504
  149OSM   H12A16467   0.127   2.278   1.955  1.1012 -2.5346  0.1918
  149OSM   H12B16468   0.017   2.160   2.011 -0.4739  1.1399  0.7456
  149OSM    C1116469  -0.080   2.343   1.983 -0.0328  0.5625  0.2618
  149OSM   H11A16470  -0.104   2.411   1.898  0.4554  1.5688  0.8991
  149OSM   H11B16471  -0.048   2.412   2.064  2.5104 -0.2068 -0.0250
  149OSM      P16472  -0.206   2.176   2.141 -0.1296 -0.5882  0.1120
  149OSM    O1316473  -0.345   2.157   2.173  0.6578  0.1357  0.1331
  149OSM    O1416474  -0.118   2.055   2.124  0.4206 -0.0425 -0.3094
  149OSM    O1116475  -0.132   2.258   2.249 -0.3303  0.4639 -0.0159
  149OSM    O1216476  -0.200   2.269   2.011 -0.2940 -0.0366 -0.1429
  149OSM    C1S16477  -0.212   2.360   2.320  0.5051 -0.4392 -0.1981
  149OSM    H1S16478  -0.300   2.309   2.365 -0.2709  1.0605  0.0663
  149OSM    H1T16479  -0.249   2.437   2.249  2.5208 -0.3596 -1.2487
  149OSM     NF16480  -0.231   2.477   2.529 -0.1865 -0.8541  0.2050
  149OSM    HNF16481  -0.261   2.567   2.498 -0.2876 -0.8239  0.3924
  149OSM    C2S16482  -0.137   2.419   2.435 -0.4411 -0.4962 -0.5171
  149OSM    H2S16483  -0.088   2.332   2.482 -1.1520 -0.2846  0.6688
  149OSM    C3S16484  -0.035   2.515   2.369  0.0183  0.1998  0.2006
  149OSM    H3S16485  -0.093   2.579   2.299 -1.4169 -1.2530  0.0178
  149OSM     O316486   0.073   2.457   2.306  0.1333 -0.0810 -0.1891
  149OSM    HO316487   0.052   2.364   2.310 -2.2548  0.3975 -0.3794
  149OSM    C4S16488   0.032   2.582   2.484 -0.3841  0.2557 -0.4572
  149OSM    H4S16489   0.051   2.522   2.574 -2.5267 -0.8759 -0.6946
  149OSM    C5S16490   0.045   2.712   2.492 -0.4239 -0.5660 -0.3411
  149OSM    H5S16491   0.012   2.767   2.402  0.7150  1.5607  0.4720
  149OSM    C6S16492   0.097   2.802   2.604  0.2500  0.3893 -0.1979
  149OSM    H6S16493   0.011   2.863   2.637 -1.9791 -1.6251 -1.9316
  149OSM    H6T16494   0.168   2.881   2.572 -2.3829  1.5934 -3.6463
  149OSM    C7S16495   0.155   2.727   2.724  0.3883 -0.1339 -0.5930
  149OSM    H7S16496   0.237   2.653   2.710 -0.5425 -2.2867  3.7456
  149OSM    H7T16497   0.077   2.656   2.758 -0.7814  0.5400 -1.8053
  149OSM    C8S16498   0.201   2.819   2.838  0.4493  0.3307 -0.0811
  149OSM    H8S16499   0.140   2.910   2.855 -0.2001  0.1325 -1.2472
  149OSM    H8T16500   0.306   2.849   2.818  0.3398  0.5488 -0.3313
  149OSM    C9S16501   0.189   2.739   2.969 -0.6948 -0.9727  0.5840
  149OSM    H9S16502   0.251   2.650   2.946 -0.2080 -0.4615 -0.1098
  149OSM    H9T16503   0.086   2.704   2.995 -1.2930  1.4901  1.8443
  149OSM   C10S16504   0.243   2.823   3.092 -0.2572  0.9146 -0.0160
  149OSM   H10S16505   0.181   2.911   3.119 -0.3161  0.3276  1.9353
  149OSM   H10T16506   0.340   2.861   3.051  0.2150 -0.2679 -0.0429
  149OSM   C11S16507   0.267   2.744   3.219 -0.0935 -0.2684  0.7736
  149OSM   H11S16508   0.317   2.651   3.183  1.5372  0.9878 -0.4111
  149OSM   H11T16509   0.176   2.711   3.273 -0.4037 -0.2777  0.2554
  149OSM   C12S16510   0.372   2.804   3.316 -0.4752  0.8392 -0.1915
  149OSM   H12S16511   0.326   2.883   3.379  0.7919  0.0880  1.7683
  149OSM   H12T16512   0.459   2.848   3.262  0.3834 -1.8354 -1.1531
  149OSM   C13S16513   0.446   2.692   3.393 -0.0270  0.0774  0.3424
  149OSM   H13S16514   0.484   2.620   3.318 -0.5531 -1.2396  1.2962
  149OSM   H13T16515   0.390   2.635   3.469 -0.9035  1.6049  0.8962
  149OSM   C14S16516   0.569   2.746   3.460 -0.2662 -0.7129  0.0850
  149OSM   H14S16517   0.623   2.815   3.391  1.0493 -1.9950 -0.2174
  149OSM   H14T16518   0.643   2.664   3.474 -0.3158 -0.6934  0.4819
  149OSM   C15S16519   0.543   2.816   3.593  0.5183 -0.5301 -0.2825
  149OSM   H15S16520   0.489   2.911   3.572 -1.2479 -1.6038 -0.8135
  149OSM   H15T16521   0.647   2.849   3.617  0.6272 -1.0057 -0.1006
  149OSM   C16S16522   0.482   2.734   3.702 -0.3048 -0.9130 -0.5013
  149OSM   H16S16523   0.523   2.762   3.801 -1.5592  0.6629 -0.3825
  149OSM   H16T16524   0.487   2.624   3.691 -0.4445 -0.9469 -0.2349
  149OSM   C17S16525   0.330   2.775   3.719  0.3545  0.2049  0.7564
  149OSM   H17S16526   0.279   2.725   3.633 -0.2967 -2.6745  2.6752
  149OSM   H17T16527   0.312   2.884   3.709  2.1933  0.3211 -3.2493
  149OSM   C18S16528   0.263   2.717   3.846 -0.0857 -0.5417  0.2763
  149OSM   H18S16529   0.330   2.744   3.930  1.7965 -1.5708 -0.8431
  149OSM   H18T16530   0.266   2.606   3.844  0.1739 -0.5386  0.5722
  149OSM   H18U16531   0.156   2.748   3.852  0.3395  1.0642  0.1627
  149OSM    C1F16532  -0.313   2.404   2.612  0.2312 -0.3077 -0.8314
  149OSM     OF16533  -0.303   2.279   2.617 -0.4049 -0.6161 -0.1024
  149OSM    C2F16534  -0.416   2.485   2.693  0.1621  0.3751  0.0918
  149OSM    H2F16535  -0.512   2.452   2.648  0.2921  1.3168 -0.9110
  149OSM    H2G16536  -0.407   2.594   2.677 -2.2822  0.4428 -1.3842
  149OSM    C3F16537  -0.397   2.451   2.836 -0.2765  0.4730  0.1693
  149OSM    H3F16538  -0.298   2.487   2.871  0.2219 -1.5746  1.0012
  149OSM    H3G16539  -0.402   2.341   2.851 -2.8215  0.7306  1.8285
  149OSM    C4F16540  -0.487   2.522   2.939 -0.3664 -0.3735 -0.0243
  149OSM    H4F16541  -0.594   2.508   2.911  0.3135  0.6105 -3.7099
  149OSM    H4G16542  -0.469   2.632   2.938  1.0904 -0.5636  1.4965
  149OSM    C5F16543  -0.494   2.477   3.086 -0.4175 -0.5707  0.4437
  149OSM    H5F16544  -0.390   2.470   3.123  0.8302  2.0004 -2.2170
  149OSM    H5G16545  -0.554   2.383   3.083  2.1232 -2.3350  1.2684
  149OSM    C6F16546  -0.575   2.576   3.176 -0.3240  0.2847  0.5629
  149OSM    H6F16547  -0.665   2.601   3.115 -0.4370  0.9419  0.9950
  149OSM    H6G16548  -0.511   2.663   3.198  0.6676 -0.3848  0.4252
  149OSM    C7F16549  -0.606   2.515   3.319 -0.8331  1.3996 -0.0504
  149OSM    H7F16550  -0.630   2.409   3.297  2.2972  0.2590  1.5008
  149OSM    H7G16551  -0.691   2.569   3.366  0.8043  3.9897  0.1428
  149OSM    C8F16552  -0.481   2.507   3.411 -0.2179  0.1499 -0.2287
  149OSM    H8F16553  -0.391   2.465   3.362 -0.3124 -0.4783  0.1335
  149OSM    H8G16554  -0.515   2.431   3.485 -0.8063 -0.5342 -1.1849
  149OSM    C9F16555  -0.444   2.641   3.476  0.0772  0.1038 -0.0304
  149OSM    H9F16556  -0.384   2.704   3.408 -0.7052  0.0378 -0.8089
  149OSM   C10F16557  -0.483   2.683   3.601 -0.2016 -0.1158  0.1914
  149OSM   H10F16558  -0.454   2.786   3.626 -0.7886 -0.2273  1.3841
  149OSM   C11F16559  -0.540   2.605   3.721 -0.0637  0.7670  0.4259
  149OSM   H11F16560  -0.482   2.625   3.813  1.4801  0.1494 -0.3808
  149OSM   H11G16561  -0.533   2.496   3.702  2.0438  0.9106  0.1711
  149OSM   C12F16562  -0.685   2.638   3.732 -0.1734  1.0651 -0.1902
  149OSM   H12F16563  -0.740   2.601   3.642  0.5706 -1.1256  0.1908
  149OSM   H12G16564  -0.685   2.749   3.743 -0.1067  0.9705  0.8668
  149OSM   C13F16565  -0.755   2.589   3.862 -0.7551  0.2958  0.2888
  149OSM   H13F16566  -0.722   2.639   3.956 -3.2907  0.7416  1.0285
  149OSM   H13G16567  -0.752   2.479   3.872 -1.4871  0.2270 -0.1711
  149OSM   C14F16568  -0.904   2.603   3.848  0.3866  0.0631  0.1918
  149OSM   H14F16569  -0.934   2.542   3.760  0.6677  0.1321  0.0487
  149OSM   H14G16570  -0.923   2.710   3.829  1.1401  0.3552  1.0390
  149OSM   C15F16571  -0.987   2.569   3.973  0.3256 -0.0730  0.1743
  149OSM   H15F16572  -1.095   2.582   3.951 -0.2978 -2.7365  1.3144
  149OSM   H15G16573  -0.974   2.647   4.051  2.1829  2.5259 -2.5250
  149OSM   C16F16574  -0.961   2.425   4.019 -0.3028 -0.0993 -0.3991
  149OSM   H16F16575  -0.853   2.421   4.048  0.2483  0.0340 -2.2651
  149OSM   H16G16576  -0.969   2.360   3.929  0.8880 -1.7865  0.6319
  149OSM   C17F16577  -1.055   2.388   4.123  0.0008 -0.0885 -0.4541
  149OSM   H17F16578  -1.160   2.411   4.093 -0.0600  2.4979  1.4042
  149OSM   H17G16579  -1.030   2.461   4.203  2.3342 -1.5315  0.2205
  149OSM   C18F16580  -1.039   2.250   4.189  0.0054 -0.3856 -0.0430
  149OSM   H18F16581  -0.932   2.218   4.198  0.0231  0.0207  1.3766
  149OSM   H18G16582  -1.099   2.184   4.123  0.0137 -0.1621 -0.2743
  149OSM   H18H16583  -1.086   2.250   4.289  2.7608  0.3080  1.3625
  150OSM      N16584   2.316   6.499   2.059 -0.2167  0.0893 -0.4227
  150OSM    C1516585   2.390   6.576   2.168 -0.6702  0.6149  0.8632
  150OSM   H15A16586   2.390   6.511   2.254 -0.9189 -0.4603  0.0853
  150OSM   H15B16587   2.334   6.666   2.186 -2.2577  0.0783 -0.9701
  150OSM   H15C16588   2.494   6.596   2.146 -0.6595 -1.0216 -0.8932
  150OSM    C1416589   2.298   6.592   1.946  0.0194  0.1650 -1.3911
  150OSM   H14A16590   2.231   6.667   1.983 -0.8830 -0.8836 -0.8381
  150OSM   H14B16591   2.264   6.548   1.853  1.9842 -2.4078 -1.0032
  150OSM   H14C16592   2.393   6.640   1.928  0.2591 -0.6225 -2.3478
  150OSM    C1316593   2.405   6.375   2.026  0.2102 -0.0280 -0.1769
  150OSM   H13A16594   2.362   6.314   1.948  0.4244  0.9981 -1.1209
  150OSM   H13B16595   2.415   6.320   2.118  0.5176  1.6189  0.8215
  150OSM   H13C16596   2.503   6.408   1.997  0.4071 -0.5504 -0.1053
  150OSM    C1216597   2.189   6.444   2.108 -0.0536 -0.1917 -0.2649
  150OSM   H12A16598   2.206   6.386   2.197  0.2149 -1.2552 -0.9853
  150OSM   H12B16599   2.148   6.380   2.031 -1.7908 -0.1443  0.5823
  150OSM    C1116600   2.072   6.540   2.145 -0.2564  0.7036 -0.5772
  150OSM   H11A16601   1.999   6.480   2.203  1.5913 -0.7589  0.3405
  150OSM   H11B16602   2.015   6.570   2.054 -0.5618  1.1725 -0.2349
  150OSM      P16603   2.012   6.746   2.288 -0.3162 -0.3140 -0.1691
  150OSM    O1316604   2.054   6.880   2.253  0.1186 -0.0620  0.4155
  150OSM    O1416605   1.873   6.712   2.245 -0.2586 -0.3790  0.8982
  150OSM    O1116606   2.030   6.715   2.441 -0.8897  0.4292 -0.5363
  150OSM    O1216607   2.121   6.650   2.220 -0.3788  0.6156 -0.4722
  150OSM    C1S16608   2.159   6.726   2.500  0.3751 -0.3170 -0.2043
  150OSM    H1S16609   2.195   6.830   2.486 -0.9459  0.5426  2.1935
  150OSM    H1T16610   2.224   6.649   2.453  0.0298 -1.0297  0.4502
  150OSM     NF16611   2.268   6.704   2.729  0.2290  0.3543 -0.2436
  150OSM    HNF16612   2.316   6.617   2.736  1.0859  0.6960 -1.5510
  150OSM    C2S16613   2.143   6.696   2.648 -0.5789  0.0007  0.1802
  150OSM    H2S16614   2.084   6.784   2.682 -0.2819  0.8552 -1.4480
  150OSM    C3S16615   2.067   6.570   2.676 -0.9492 -0.0895 -0.1914
  150OSM    H3S16616   2.115   6.492   2.612  0.1088 -0.6821  1.2577
  150OSM     O316617   1.938   6.548   2.619 -0.1593  0.5508  0.4945
  150OSM    HO316618   1.945   6.610   2.545  0.1436 -0.4555 -0.3445
  150OSM    C4S16619   2.076   6.523   2.814  0.8066 -0.0776  0.1881
  150OSM    H4S16620   2.158   6.453   2.838 -0.8998 -2.2391 -0.0027
  150OSM    C5S16621   1.985   6.553   2.910 -0.1055 -0.4852  0.1233
  150OSM    H5S16622   1.907   6.629   2.888  1.3680  0.6740 -1.3760
  150OSM    C6S16623   1.985   6.499   3.048  0.6504  0.0000 -0.4181
  150OSM    H6S16624   2.060   6.419   3.067 -0.4672 -0.8300  0.6739
  150OSM    H6T16625   1.895   6.438   3.073  1.2560 -0.6555  0.2240
  150OSM    C7S16626   1.983   6.603   3.166 -0.1731  0.1252  0.3002
  150OSM    H7S16627   1.879   6.639   3.178 -0.8385 -1.2745 -1.0223
  150OSM    H7T16628   2.050   6.686   3.133  0.6455 -0.6316  0.0346
  150OSM    C8S16629   2.019   6.551   3.301  0.3656  0.4010 -0.4548
  150OSM    H8S16630   2.092   6.469   3.285  0.8115  0.9523 -1.3032
  150OSM    H8T16631   1.927   6.509   3.348  0.6399 -0.7464 -0.9158
  150OSM    C9S16632   2.078   6.657   3.393 -0.3352  0.0628  0.2433
  150OSM    H9S16633   2.005   6.741   3.399 -0.8844 -0.2144 -1.7884
  150OSM    H9T16634   2.178   6.679   3.350 -0.4381 -2.8004 -1.6869
  150OSM   C10S16635   2.090   6.587   3.532  0.6984  0.7188 -0.4573
  150OSM   H10S16636   2.161   6.503   3.518  0.4897  0.7763 -2.0197
  150OSM   H10T16637   1.990   6.548   3.559  1.9056 -1.7192  0.7539
  150OSM   C11S16638   2.146   6.668   3.649  0.4833 -0.2972 -0.2179
  150OSM   H11S16639   2.076   6.753   3.663  1.1897  0.8025 -2.7934
  150OSM   H11T16640   2.239   6.723   3.623 -0.2972  1.3861  0.4353
  150OSM   C12S16641   2.169   6.591   3.776 -0.2732  0.5836 -0.2246
  150OSM   H12S16642   2.228   6.655   3.845  2.4445 -0.9027 -1.0449
  150OSM   H12T16643   2.226   6.498   3.755 -0.4960 -0.2033  2.3260
  150OSM   C13S16644   2.045   6.543   3.845  0.7446 -0.2804  0.2460
  150OSM   H13S16645   1.992   6.469   3.781 -0.5688  0.4456  0.4670
  150OSM   H13T16646   1.967   6.622   3.855  0.2283 -0.7054 -0.3321
  150OSM   C14S16647   2.064   6.485   3.990  0.1125  0.1099  0.1627
  150OSM   H14S16648   2.151   6.532   4.040 -0.1080  3.5178 -2.3179
  150OSM   H14T16649   2.098   6.381   3.971  1.4020  0.3671  0.9164
  150OSM   C15S16650   1.936   6.497   4.072 -0.2573 -0.4891  0.4270
  150OSM   H15S16651   1.853   6.451   4.014 -2.2013  1.2362  1.6539
  150OSM   H15T16652   1.902   6.598   4.103  0.4178 -0.3517  0.7210
  150OSM   C16S16653   1.935   6.415   4.203 -0.0907 -0.1808  0.2193
  150OSM   H16S16654   2.031   6.444   4.251 -0.2441  0.4161  0.1726
  150OSM   H16T16655   1.933   6.309   4.171 -2.7466  0.1550 -1.0187
  150OSM   C17S16656   1.817   6.436   4.296 -0.5097  0.5812  0.8577
  150OSM   H17S16657   1.727   6.409   4.238  0.1046  0.3844 -0.0278
  150OSM   H17T16658   1.815   6.541   4.334  0.4251  0.3052  1.7191
  150OSM   C18S16659   1.834   6.346   4.420 -0.4278  0.0399  0.5543
  150OSM   H18S16660   1.919   6.387   4.478 -0.5402  2.6463 -0.9693
  150OSM   H18T16661   1.876   6.251   4.382  1.0135  0.7971  0.2041
  150OSM   H18U16662   1.742   6.328   4.481 -1.4435  0.2059 -0.8764
  150OSM    C1F16663   2.328   6.824   2.725 -0.2445 -0.3582 -0.0485
  150OSM     OF16664   2.263   6.925   2.703  0.2808  0.8019 -0.0461
  150OSM    C2F16665   2.479   6.828   2.748  0.0684  0.2201 -0.1986
  150OSM    H2F16666   2.532   6.819   2.651  0.7207 -0.3909  0.2109
  150OSM    H2G16667   2.500   6.741   2.813  2.6061 -0.7850 -2.2021
  150OSM    C3F16668   2.530   6.951   2.830  0.0533  0.0661  0.5208
  150OSM    H3F16669   2.500   7.055   2.803  1.2098  0.4927  0.8064
  150OSM    H3G16670   2.640   6.959   2.824  0.3350 -1.4787  2.6093
  150OSM    C4F16671   2.497   6.933   2.979  0.3453 -0.3044  0.1776
  150OSM    H4F16672   2.561   7.017   3.014  2.1273 -1.5796  0.1116
  150OSM    H4G16673   2.543   6.842   3.023  1.6317  0.6677  0.9125
  150OSM    C5F16674   2.362   6.973   3.036  0.6364  0.6871  0.1362
  150OSM    H5F16675   2.277   6.905   3.014  1.0782  1.0912 -3.2647
  150OSM    H5G16676   2.331   7.073   2.997 -0.5776  1.4194  2.7555
  150OSM    C6F16677   2.366   6.989   3.192 -0.3024 -0.0097 -0.1711
  150OSM    H6F16678   2.435   7.068   3.230 -1.6241  1.5676 -0.9364
  150OSM    H6G16679   2.412   6.898   3.237  0.1763  0.1058 -0.4222
  150OSM    C7F16680   2.226   7.004   3.262  0.2221 -0.3312  0.6140
  150OSM    H7F16681   2.169   6.912   3.240  0.0819  0.2782 -1.9024
  150OSM    H7G16682   2.170   7.093   3.227  1.6194  0.3300 -0.0454
  150OSM    C8F16683   2.239   7.009   3.413  0.1881  0.2900  0.2852
  150OSM    H8F16684   2.292   7.103   3.440  1.1482  0.0655 -0.7635
  150OSM    H8G16685   2.300   6.922   3.444  1.4945  0.9360 -0.4028
  150OSM    C9F16686   2.114   6.998   3.499  0.0763 -0.6161  0.0929
  150OSM    H9F16687   2.046   6.923   3.457  0.6284  0.2120 -2.4748
  150OSM   C10F16688   2.080   7.063   3.613 -0.2802 -0.4198  0.0061
  150OSM   H10F16689   1.985   7.033   3.660 -0.6025  2.4114  1.3944
  150OSM   C11F16690   2.147   7.175   3.684 -0.8048 -0.2124 -0.3396
  150OSM   H11F16691   2.072   7.246   3.725 -2.4093 -1.8366 -0.3164
  150OSM   H11G16692   2.192   7.235   3.602  0.9197  1.2472  1.5760
  150OSM   C12F16693   2.255   7.136   3.785 -0.0559 -1.0403 -0.9641
  150OSM   H12F16694   2.318   7.218   3.827 -1.5626 -0.1211 -0.4035
  150OSM   H12G16695   2.325   7.073   3.727 -1.1323 -3.6308  0.4083
  150OSM   C13F16696   2.207   7.041   3.901 -0.2527  0.6680 -0.4660
  150OSM   H13F16697   2.286   6.982   3.953 -0.6969 -0.3008 -0.8687
  150OSM   H13G16698   2.136   6.969   3.855 -1.7755  2.4131 -0.9686
  150OSM   C14F16699   2.134   7.123   4.005  0.6834  0.1190  0.0289
  150OSM   H14F16700   2.037   7.152   3.959  1.0136  0.4902 -0.4404
  150OSM   H14G16701   2.197   7.210   4.032  0.5791  0.0024  0.6490
  150OSM   C15F16702   2.082   7.050   4.130  0.7121 -0.0374  0.2945
  150OSM   H15F16703   2.165   7.015   4.196 -0.4470 -3.0429  0.3561
  150OSM   H15G16704   2.033   6.958   4.092  3.1330 -1.0771 -0.5341
  150OSM   C16F16705   1.991   7.131   4.224  0.1234  0.1795  0.2245
  150OSM   H16F16706   1.936   7.063   4.293  0.5240  0.7069  1.0756
  150OSM   H16G16707   1.914   7.181   4.161 -2.3101 -2.7950  0.6283
  150OSM   C17F16708   2.073   7.236   4.299  0.4629  0.3378 -0.0910
  150OSM   H17F16709   2.124   7.302   4.225  4.2027 -2.4819 -0.3565
  150OSM   H17G16710   2.155   7.179   4.349 -0.7448 -0.6826  0.7739
  150OSM   C18F16711   1.982   7.316   4.395 -0.2235 -0.0018  0.4755
  150OSM   H18F16712   2.036   7.377   4.470 -1.2038 -1.6106  2.6063
  150OSM   H18G16713   1.919   7.250   4.459 -0.4665  1.1288  1.4206
  150OSM   H18H16714   1.918   7.385   4.337 -0.2802 -1.6794 -1.6083
  151OSM      N16715   0.743   4.678   2.042  0.4637 -0.4549  0.5237
  151OSM    C1516716   0.725   4.567   2.132 -0.4857  0.7961 -0.2850
  151OSM   H15A16717   0.797   4.579   2.212 -1.2089 -0.3122  0.5684
  151OSM   H15B16718   0.742   4.474   2.079 -1.5839  0.1748  0.4098
  151OSM   H15C16719   0.629   4.560   2.180 -1.1470 -2.2374 -1.8424
  151OSM    C1416720   0.626   4.669   1.947 -0.6494  0.2691 -0.0764
  151OSM   H14A16721   0.540   4.724   1.981  0.3924  2.9120 -1.4227
  151OSM   H14B16722   0.590   4.570   1.923 -1.2919  0.5260 -0.1956
  151OSM   H14C16723   0.644   4.722   1.855 -0.4003 -0.9834 -0.7770
  151OSM    C1316724   0.732   4.810   2.103  0.0808 -0.4418 -0.6546
  151OSM   H13A16725   0.657   4.819   2.181  2.5319  1.0806  1.6995
  151OSM   H13B16726   0.714   4.886   2.029 -2.5128 -0.8155 -0.4990
  151OSM   H13C16727   0.818   4.842   2.160 -0.9317 -0.6979  1.1173
  151OSM    C1216728   0.871   4.673   1.964 -0.1591  0.2767 -0.1206
  151OSM   H12A16729   0.886   4.754   1.894  2.0616  0.3537  0.3511
  151OSM   H12B16730   0.889   4.581   1.910 -0.2824  1.0894 -1.5990
  151OSM    C1116731   1.001   4.705   2.039 -0.1963  0.3020  0.1780
  151OSM   H11A16732   1.093   4.671   1.986 -1.1056 -0.0800 -1.2063
  151OSM   H11B16733   1.005   4.655   2.138 -1.8660  0.0249  0.1259
  151OSM      P16734   1.097   4.908   2.168  0.1426  0.0627 -0.5866
  151OSM    O1316735   1.241   4.908   2.132  0.1332 -0.2107  0.2627
  151OSM    O1416736   1.042   5.040   2.200 -0.1054  0.3059 -0.5443
  151OSM    O1116737   1.075   4.809   2.295 -0.7370 -0.2636 -0.7565
  151OSM    O1216738   1.013   4.844   2.053  0.2700  0.1274  0.0610
  151OSM    C1S16739   1.188   4.724   2.330  0.1004  0.2405 -0.3762
  151OSM    H1S16740   1.282   4.781   2.347 -0.4677  1.2294 -0.4673
  151OSM    H1T16741   1.195   4.642   2.255 -1.5618 -0.6045  0.3551
  151OSM     NF16742   1.273   4.637   2.549 -0.5591 -0.2125  0.3071
  151OSM    HNF16743   1.303   4.542   2.539 -1.3852 -0.5190  0.6840
  151OSM    C2S16744   1.152   4.668   2.470  0.1398 -0.0908 -0.4296
  151OSM    H2S16745   1.101   4.755   2.518  0.0484 -0.7018  0.5948
  151OSM    C3S16746   1.051   4.556   2.452  0.1735  0.5004 -0.2718
  151OSM    H3S16747   1.101   4.474   2.395  0.1523  1.8067 -2.2689
  151OSM     O316748   0.929   4.597   2.387  0.3155  0.1388  0.1580
  151OSM    HO316749   0.961   4.682   2.355  0.6470  0.3578  1.0346
  151OSM    C4S16750   1.019   4.504   2.591  0.5959 -0.7137  1.0775
  151OSM    H4S16751   1.097   4.432   2.619  0.2280 -0.9831  1.4260
  151OSM    C5S16752   0.912   4.508   2.678  0.2382  0.2330  0.3476
  151OSM    H5S16753   0.819   4.564   2.659 -1.4429 -2.6286 -0.5315
  151OSM    C6S16754   0.910   4.427   2.807 -0.4097  0.0244 -0.0963
  151OSM    H6S16755   0.950   4.326   2.787  1.0085  1.0516 -3.2522
  151OSM    H6T16756   0.817   4.425   2.866 -0.5885  0.5145 -0.3531
  151OSM    C7S16757   1.012   4.487   2.905  0.4107  0.7331 -0.8514
  151OSM    H7S16758   0.989   4.585   2.951  4.2492  1.1354  0.5454
  151OSM    H7T16759   1.109   4.494   2.853  1.2945 -0.2728  0.5850
  151OSM    C8S16760   1.042   4.405   3.032  0.8495  0.3825 -0.1885
  151OSM    H8S16761   1.098   4.311   3.011  1.5672  0.9814 -1.0032
  151OSM    H8T16762   0.948   4.370   3.079  1.5173 -0.5099  0.5192
  151OSM    C9S16763   1.120   4.484   3.137  0.0187 -0.4494 -0.6488
  151OSM    H9S16764   1.055   4.562   3.182 -1.7247 -3.1374  1.9280
  151OSM    H9T16765   1.198   4.538   3.080 -0.3234 -0.4808 -1.1510
  151OSM   C10S16766   1.181   4.387   3.246  0.1775 -0.1212 -0.3095
  151OSM   H10S16767   1.269   4.337   3.200 -0.2268 -0.7881 -0.3554
  151OSM   H10T16768   1.109   4.307   3.269 -0.4794  0.1016 -1.5111
  151OSM   C11S16769   1.215   4.458   3.375 -0.6224 -0.2696 -0.6397
  151OSM   H11S16770   1.133   4.521   3.418 -0.7223 -1.5475  1.1460
  151OSM   H11T16771   1.300   4.528   3.361 -0.3289 -0.5764 -0.3858
  151OSM   C12S16772   1.268   4.373   3.493  1.0263 -0.0887  0.6746
  151OSM   H12S16773   1.377   4.351   3.486  1.1769 -0.1638  2.6527
  151OSM   H12T16774   1.207   4.280   3.497  1.4722 -0.3357  2.5315
  151OSM   C13S16775   1.252   4.437   3.634 -0.5941 -0.4707  0.5374
  151OSM   H13S16776   1.142   4.446   3.644 -0.4739  1.6550  0.5050
  151OSM   H13T16777   1.302   4.535   3.650  2.4721 -1.7807 -0.2826
  151OSM   C14S16778   1.277   4.329   3.741 -0.5228 -0.7681 -0.2924
  151OSM   H14S16779   1.386   4.312   3.723 -0.2786  0.4813 -0.1171
  151OSM   H14T16780   1.218   4.238   3.718 -1.7618  0.0726 -0.5363
  151OSM   C15S16781   1.249   4.365   3.892 -0.0707  0.2123 -0.4918
  151OSM   H15S16782   1.138   4.368   3.903  0.0596  1.2618  0.6984
  151OSM   H15T16783   1.278   4.467   3.924 -1.6387  0.4033  0.4216
  151OSM   C16S16784   1.295   4.260   3.994 -0.0903  0.5382  0.0228
  151OSM   H16S16785   1.224   4.174   3.985 -1.7630  1.8403  0.2352
  151OSM   H16T16786   1.275   4.296   4.097  1.9139 -0.3910  0.7861
  151OSM   C17S16787   1.440   4.227   3.989 -0.4739  0.1322  0.2021
  151OSM   H17S16788   1.504   4.316   4.004 -0.8748  1.1454 -3.1916
  151OSM   H17T16789   1.451   4.174   3.892  0.4923 -0.3733  0.5748
  151OSM   C18S16790   1.473   4.128   4.099 -0.2376 -0.5348  0.0572
  151OSM   H18S16791   1.490   4.176   4.198 -1.2603  0.9680 -0.4531
  151OSM   H18T16792   1.557   4.063   4.066 -3.5593 -4.8663 -0.8706
  151OSM   H18U16793   1.391   4.052   4.099 -0.4029 -0.3822 -1.2563
  151OSM    C1F16794   1.349   4.731   2.600  0.5964  0.5490 -0.1679
  151OSM     OF16795   1.308   4.846   2.603 -0.1021 -0.0389  0.0928
  151OSM    C2F16796   1.482   4.685   2.658  0.7483 -0.3281  0.1352
  151OSM    H2F16797   1.557   4.765   2.677  0.2134 -0.4921  3.6808
  151OSM    H2G16798   1.530   4.624   2.580 -0.0683  0.2793 -0.8664
  151OSM    C3F16799   1.454   4.606   2.791  0.1205  0.4120  0.0820
  151OSM    H3F16800   1.408   4.508   2.765  0.9740  0.3175 -1.1457
  151OSM    H3G16801   1.379   4.663   2.850 -0.4587 -2.2407  2.1369
  151OSM    C4F16802   1.570   4.583   2.878 -0.2198  0.0996 -0.0015
  151OSM    H4F16803   1.633   4.667   2.914  0.5535 -1.7454  3.3892
  151OSM    H4G16804   1.642   4.519   2.823  1.2295 -0.5908  2.5271
  151OSM    C5F16805   1.523   4.516   3.014  0.5218  0.3181  0.7205
  151OSM    H5F16806   1.468   4.421   3.000 -0.8290  0.9747  1.3223
  151OSM    H5G16807   1.464   4.591   3.073 -0.5180  0.4489 -0.4445
  151OSM    C6F16808   1.633   4.489   3.114  0.0203  0.5764  0.0383
  151OSM    H6F16809   1.680   4.585   3.143  3.1961 -0.1287 -2.2172
  151OSM    H6G16810   1.714   4.438   3.057 -0.9396 -0.3181 -0.5759
  151OSM    C7F16811   1.584   4.401   3.224 -0.0608  0.4384  0.0323
  151OSM    H7F16812   1.507   4.330   3.187 -0.0947  0.0786  0.7605
  151OSM    H7G16813   1.539   4.460   3.307 -0.5662 -1.2306  0.9970
  151OSM    C8F16814   1.712   4.330   3.289 -0.1223 -0.0849  0.2673
  151OSM    H8F16815   1.798   4.399   3.304  1.1276 -1.9293  2.0110
  151OSM    H8G16816   1.721   4.243   3.220 -2.5087  0.9028 -1.4465
  151OSM    C9F16817   1.680   4.272   3.420  0.5478  0.3688  0.3345
  151OSM    H9F16818   1.681   4.162   3.421  0.5873  0.3708  0.5719
  151OSM   C10F16819   1.663   4.340   3.534  0.2437 -0.0550 -0.2222
  151OSM   H10F16820   1.650   4.276   3.622 -0.4884  0.0527 -0.2459
  151OSM   C11F16821   1.687   4.490   3.556  0.3388 -1.2410  0.2055
  151OSM   H11F16822   1.586   4.533   3.573  0.1232 -2.2313  1.5509
  151OSM   H11G16823   1.716   4.539   3.460 -0.3977 -1.9524 -0.3946
  151OSM   C12F16824   1.781   4.521   3.678  0.1684  0.0983  0.0698
  151OSM   H12F16825   1.783   4.632   3.683  1.2136  0.0957 -0.0910
  151OSM   H12G16826   1.880   4.479   3.651 -0.3058 -0.1309 -1.4609
  151OSM   C13F16827   1.724   4.483   3.816  0.2195  0.7366 -0.0003
  151OSM   H13F16828   1.678   4.382   3.811  1.4272  0.2114 -1.2401
  151OSM   H13G16829   1.643   4.556   3.839 -0.6444  0.3769 -1.6846
  151OSM   C14F16830   1.821   4.499   3.929  0.3543 -0.2500 -0.6128
  151OSM   H14F16831   1.765   4.496   4.025 -1.6313 -0.6795 -1.7280
  151OSM   H14G16832   1.861   4.602   3.929 -0.0511 -0.0803 -1.2785
  151OSM   C15F16833   1.935   4.395   3.925 -0.1201  0.8425  0.1035
  151OSM   H15F16834   1.985   4.399   3.825 -1.4466  0.7880 -0.5759
  151OSM   H15G16835   1.905   4.291   3.948  2.0767  0.0989 -0.1417
  151OSM   C16F16836   2.046   4.426   4.029 -0.1660  0.3285 -0.2568
  151OSM   H16F16837   1.997   4.431   4.129  0.2269  0.9261 -0.0905
  151OSM   H16G16838   2.082   4.527   4.003  0.1368  1.0687  2.6869
  151OSM   C17F16839   2.159   4.322   4.020 -1.0918 -0.3310 -0.2893
  151OSM   H17F16840   2.255   4.369   4.050 -0.2246 -1.3582 -1.3188
  151OSM   H17G16841   2.189   4.286   3.919 -1.6776  2.3017 -1.4789
  151OSM   C18F16842   2.131   4.193   4.095  0.4182  0.2134  0.2005
  151OSM   H18F16843   2.120   4.220   4.202 -0.9760 -0.1536  0.1679
  151OSM   H18G16844   2.214   4.121   4.081  0.3281 -0.1478  1.3703
  151OSM   H18H16845   2.036   4.145   4.065 -0.3307  1.8376 -0.1588
  152OSM      N16846   5.032   4.026   2.334 -0.2490  0.2353  0.5724
  152OSM    C1516847   5.134   4.075   2.228  0.2595  0.5024 -0.2278
  152OSM   H15A16848   5.097   4.130   2.143 -0.7487  0.1350 -0.0358
  152OSM   H15B16849   5.175   3.985   2.184 -0.1899  1.1870 -2.1582
  152OSM   H15C16850   5.218   4.130   2.267 -0.7859  0.2992  2.5744
  152OSM    C1416851   4.928   3.954   2.274  0.4818  0.5148  0.2443
  152OSM   H14A16852   4.861   4.023   2.226 -0.6011 -0.6360  0.0432
  152OSM   H14B16853   4.865   3.912   2.352  0.5555  2.0310  1.1553
  152OSM   H14C16854   4.962   3.870   2.216  1.2981  1.2465 -0.3450
  152OSM    C1316855   5.111   3.946   2.422 -0.0310 -0.0836  0.7229
  152OSM   H13A16856   5.138   3.855   2.371 -0.2509 -0.1551  0.7360
  152OSM   H13B16857   5.054   3.922   2.510  0.4169 -0.1702  0.9921
  152OSM   H13C16858   5.197   4.001   2.458  0.4823 -0.4213  0.0543
  152OSM    C1216859   4.974   4.146   2.412  0.2511  0.4045  0.6149
  152OSM   H12A16860   4.923   4.208   2.339  0.5879  1.1882  1.0373
  152OSM   H12B16861   5.057   4.208   2.442  0.2894 -0.3277  2.1246
  152OSM    C1116862   4.876   4.130   2.531 -0.0559  0.5333 -0.2055
  152OSM   H11A16863   4.868   4.234   2.569 -0.4606  0.4125  0.0432
  152OSM   H11B16864   4.916   4.062   2.609 -1.9026 -0.7477 -0.3033
  152OSM      P16865   4.670   3.984   2.550 -0.0776  0.0750  0.1964
  152OSM    O1316866   4.534   3.989   2.501  0.2389 -0.3315  0.4954
  152OSM    O1416867   4.739   3.858   2.517  0.0865  0.1563  0.5499
  152OSM    O1116868   4.671   4.010   2.702  0.8215  0.2428  0.1990
  152OSM    O1216869   4.745   4.098   2.477 -0.3665 -0.7196  0.3578
  152OSM    C1S16870   4.616   4.129   2.762  0.3656 -0.5225  0.0165
  152OSM    H1S16871   4.505   4.124   2.759  0.2727  1.3962 -0.3497
  152OSM    H1T16872   4.645   4.224   2.714 -2.0358  0.9572  1.3013
  152OSM     NF16873   4.623   4.270   2.964 -0.3121 -0.5383  0.2467
  152OSM    HNF16874   4.686   4.347   2.964 -1.1510  0.1803  1.5360
  152OSM    C2S16875   4.661   4.137   2.910 -0.4154 -0.2621 -0.3337
  152OSM    H2S16876   4.600   4.057   2.959 -2.9118  0.4555 -2.0551
  152OSM    C3S16877   4.815   4.113   2.927 -0.5954  0.2495 -0.4018
  152OSM    H3S16878   4.876   4.192   2.879  0.7408 -0.3003  0.3148
  152OSM     O316879   4.876   3.994   2.875  0.2439 -0.0796  0.5667
  152OSM    HO316880   4.803   3.957   2.825  0.4517  1.1174 -0.6632
  152OSM    C4S16881   4.836   4.119   3.073  0.3523 -0.4765 -0.6285
  152OSM    H4S16882   4.764   4.063   3.135 -0.1981  0.7500 -0.1397
  152OSM    C5S16883   4.923   4.203   3.138  0.5829 -0.4991 -0.3801
  152OSM    H5S16884   4.992   4.261   3.075  1.3994 -1.7386 -0.6539
  152OSM    C6S16885   4.932   4.223   3.289  0.2602  0.7464  0.3096
  152OSM    H6S16886   4.931   4.330   3.318 -0.7446  1.0696 -0.8534
  152OSM    H6T16887   5.034   4.188   3.315  0.7848  1.5079 -0.6328
  152OSM    C7S16888   4.825   4.136   3.378 -0.0399 -0.2498 -0.1941
  152OSM    H7S16889   4.817   4.025   3.371 -1.4826 -0.0926 -1.7075
  152OSM    H7T16890   4.725   4.167   3.342  0.7990  2.8265 -0.1873
  152OSM    C8S16891   4.829   4.184   3.528 -0.4908  0.4386 -0.6498
  152OSM    H8S16892   4.729   4.151   3.564 -0.6615  0.6615 -0.9211
  152OSM    H8T16893   4.822   4.295   3.524 -1.4629  0.4162  0.0182
  152OSM    C9S16894   4.948   4.132   3.606  0.5173 -0.5873  0.2557
  152OSM    H9S16895   5.038   4.168   3.552  0.5611 -0.6534  0.2845
  152OSM    H9T16896   4.949   4.021   3.606 -1.2637 -0.7955  4.4853
  152OSM   C10S16897   4.957   4.182   3.751  0.1563  0.6282  0.4860
  152OSM   H10S16898   4.940   4.292   3.754 -0.6321  0.5028  1.2465
  152OSM   H10T16899   5.064   4.171   3.780  0.9240  3.9125 -0.6974
  152OSM   C11S16900   4.868   4.109   3.851  0.0685  0.1564  0.4488
  152OSM   H11S16901   4.840   4.010   3.808  1.3932 -0.3281  0.6449
  152OSM   H11T16902   4.780   4.175   3.862  0.8334  1.4680 -0.9529
  152OSM   C12S16903   4.936   4.106   3.990  0.6535  0.1644 -0.0898
  152OSM   H12S16904   5.023   4.039   3.975  0.0869  0.0567 -4.0218
  152OSM   H12T16905   4.861   4.053   4.053  2.2619 -2.0271  0.0906
  152OSM   C13S16906   4.984   4.240   4.050  0.3107  0.2508  0.1164
  152OSM   H13S16907   4.894   4.305   4.052 -0.5724 -0.8122 -1.9639
  152OSM   H13T16908   5.070   4.284   3.995  0.2403  0.9952  0.5920
  152OSM   C14S16909   5.026   4.214   4.191 -0.7124 -0.1005 -0.3031
  152OSM   H14S16910   5.112   4.144   4.181  0.3909  0.8709  1.8647
  152OSM   H14T16911   4.948   4.157   4.245  0.1786 -0.6543  0.4340
  152OSM   C15S16912   5.054   4.343   4.260  0.2004  0.1865  0.2760
  152OSM   H15S16913   4.957   4.397   4.265  0.1917  0.1282  0.7997
  152OSM   H15T16914   5.129   4.410   4.212  2.4974 -2.8510 -0.6498
  152OSM   C16S16915   5.092   4.322   4.400 -0.3499  0.5560 -0.1205
  152OSM   H16S16916   5.177   4.251   4.395 -1.3706 -0.8349  1.0483
  152OSM   H16T16917   5.020   4.268   4.467  1.1915 -2.3583 -0.6368
  152OSM   C17S16918   5.151   4.442   4.476  0.7423 -0.5040 -0.0424
  152OSM   H17S16919   5.239   4.471   4.415  0.2193 -2.4876 -1.8517
  152OSM   H17T16920   5.182   4.398   4.573 -0.4153 -0.6656  0.2749
  152OSM   C18S16921   5.056   4.560   4.496 -0.1008  0.0991  0.1754
  152OSM   H18S16922   5.038   4.617   4.403  1.5781 -0.5958 -0.6116
  152OSM   H18T16923   5.112   4.638   4.551 -2.5247  1.1875  1.2636
  152OSM   H18U16924   4.967   4.533   4.558 -1.4162  0.4557 -1.4734
  152OSM    C1F16925   4.497   4.295   2.980 -0.0358  0.1402 -0.1445
  152OSM     OF16926   4.412   4.218   2.949  0.4988  0.5040  0.1129
  152OSM    C2F16927   4.469   4.427   3.040 -0.2685  0.0477 -0.1782
  152OSM    H2F16928   4.365   4.458   3.013 -1.8158 -2.4577  2.3355
  152OSM    H2G16929   4.540   4.505   3.006  1.3451 -1.3637 -0.1921
  152OSM    C3F16930   4.502   4.431   3.194  0.4853 -0.3664  0.5647
  152OSM    H3F16931   4.490   4.534   3.236  1.5229 -0.3042  0.7248
  152OSM    H3G16932   4.601   4.393   3.226  0.6718  0.7382  1.3712
  152OSM    C4F16933   4.389   4.353   3.274  0.5082 -0.2012 -0.1331
  152OSM    H4F16934   4.391   4.244   3.253  0.3934  0.1876 -2.4501
  152OSM    H4G16935   4.285   4.377   3.243  0.6199 -0.0685 -0.4032
  152OSM    C5F16936   4.400   4.366   3.425 -0.6801 -0.4829 -0.4915
  152OSM    H5F16937   4.375   4.471   3.449 -2.9767 -0.4598 -2.5887
  152OSM    H5G16938   4.505   4.349   3.457  0.0794  2.1181 -1.3086
  152OSM    C6F16939   4.307   4.281   3.512  0.0427 -0.6102  0.0123
  152OSM    H6F16940   4.310   4.175   3.481 -0.0707 -0.5779 -0.1095
  152OSM    H6G16941   4.200   4.306   3.500  0.0790  0.3016  1.3134
  152OSM    C7F16942   4.343   4.288   3.661 -0.4166 -0.8343  0.6744
  152OSM    H7F16943   4.337   4.394   3.691  0.9089 -1.2755  2.6494
  152OSM    H7G16944   4.449   4.256   3.669  0.1191  0.7538  0.2782
  152OSM    C8F16945   4.245   4.206   3.752 -0.4401  0.2831  0.8516
  152OSM    H8F16946   4.305   4.188   3.845 -1.1372 -0.0457  1.2486
  152OSM    H8G16947   4.224   4.114   3.694  0.0361  1.6359 -1.5969
  152OSM    C9F16948   4.122   4.283   3.788 -0.3836 -0.2409  0.0795
  152OSM    H9F16949   4.071   4.318   3.697  0.5121  0.4248 -0.1848
  152OSM   C10F16950   4.083   4.325   3.908 -0.0816 -0.0733  0.3020
  152OSM   H10F16951   3.985   4.372   3.926  0.5197  1.6003 -0.5057
  152OSM   C11F16952   4.136   4.289   4.041 -0.1590  0.4933 -0.6117
  152OSM   H11F16953   4.149   4.385   4.096  1.8383 -1.1903  2.0967
  152OSM   H11G16954   4.228   4.227   4.047 -1.4907 -1.4887  0.8424
  152OSM   C12F16955   4.032   4.209   4.114  0.1599 -0.3177  0.1334
  152OSM   H12F16956   4.100   4.175   4.195  1.9086  0.0701 -1.1097
  152OSM   H12G16957   3.988   4.121   4.063 -0.8728 -2.0941  3.7434
  152OSM   C13F16958   3.912   4.286   4.173 -0.1069  0.3070 -0.1156
  152OSM   H13F16959   3.839   4.288   4.090  0.7906 -2.0494 -1.0539
  152OSM   H13G16960   3.942   4.391   4.195 -1.2047  0.4960  0.5116
  152OSM   C14F16961   3.854   4.216   4.292  0.1683  0.1735 -0.0242
  152OSM   H14F16962   3.932   4.171   4.357 -0.3069 -2.6685 -1.2861
  152OSM   H14G16963   3.790   4.134   4.254 -1.5253  2.0113 -1.3430
  152OSM   C15F16964   3.741   4.282   4.372 -0.3838 -0.8996 -0.1211
  152OSM   H15F16965   3.691   4.211   4.441 -0.0330  0.2645  1.3647
  152OSM   H15G16966   3.653   4.319   4.315 -0.5773  2.0380  1.8946
  152OSM   C16F16967   3.790   4.402   4.453 -0.1800  0.5350  0.2795
  152OSM   H16F16968   3.845   4.475   4.390 -1.6685  1.0363 -0.4924
  152OSM   H16G16969   3.854   4.382   4.541  0.6701  0.4389 -0.3498
  152OSM   C17F16970   3.667   4.486   4.509  0.1665  0.0856 -0.0071
  152OSM   H17F16971   3.575   4.465   4.449 -0.2579  0.2550  0.5696
  152OSM   H17G16972   3.680   4.597   4.506  0.3065  0.0726 -2.8258
  152OSM   C18F16973   3.643   4.457   4.657  0.7646 -0.6357 -0.0437
  152OSM   H18F16974   3.559   4.517   4.699  1.1844  0.0197 -0.1173
  152OSM   H18G16975   3.731   4.498   4.712 -0.1881  2.2858 -0.4824
  152OSM   H18H16976   3.617   4.351   4.677  2.0017 -1.1604 -1.1024
  153OSM      N16977   3.816   4.968   2.245 -0.4058  0.6196  0.5688
  153OSM    C1516978   3.687   4.935   2.167  0.4811  0.4406 -0.7744
  153OSM   H15A16979   3.624   4.871   2.227 -0.4771  1.5086 -0.6053
  153OSM   H15B16980   3.716   4.886   2.076  0.4135  0.2844 -0.7114
  153OSM   H15C16981   3.641   5.031   2.149 -0.1527 -0.0910 -2.0676
  153OSM    C1416982   3.912   5.031   2.147  0.2510 -0.1244  0.4300
  153OSM   H14A16983   3.881   5.124   2.104  1.1906 -0.8448 -2.0107
  153OSM   H14B16984   3.933   4.962   2.066 -1.6577 -1.9325  1.3664
  153OSM   H14C16985   4.001   5.054   2.204 -0.4540  1.1387  1.0699
  153OSM    C1316986   3.790   5.065   2.361 -0.4793  0.2083 -0.2464
  153OSM   H13A16987   3.881   5.089   2.414 -0.1725 -0.2256 -0.5672
  153OSM   H13B16988   3.718   5.019   2.427 -1.1641 -1.1381 -1.8512
  153OSM   H13C16989   3.739   5.152   2.323 -1.0136  0.2264  0.4765
  153OSM    C1216990   3.896   4.847   2.293  0.3648 -0.3375  0.9981
  153OSM   H12A16991   3.984   4.883   2.344 -1.4496  1.0047  3.3941
  153OSM   H12B16992   3.927   4.786   2.210 -0.3070  1.2843 -0.5207
  153OSM    C1116993   3.829   4.751   2.384  0.5768 -0.3865  0.3431
  153OSM   H11A16994   3.803   4.792   2.484 -1.2536 -0.6995  0.0343
  153OSM   H11B16995   3.909   4.677   2.404  1.6018  1.4998  4.0108
  153OSM      P16996   3.717   4.550   2.263 -0.3833 -0.0309 -0.0323
  153OSM    O1316997   3.589   4.501   2.210 -0.0979 -0.5093  0.2207
  153OSM    O1416998   3.824   4.564   2.157 -0.5057 -0.0257  0.1825
  153OSM    O1116999   3.776   4.464   2.383  0.0652  0.5057  0.2481
  153OSM    O1217000   3.705   4.697   2.334  0.5076 -0.3088 -0.0207
  153OSM    C1S17001   3.697   4.480   2.508  0.1181 -0.2062 -0.1393
  153OSM    H1S17002   3.601   4.426   2.493 -0.1533  0.0633  0.5796
  153OSM    H1T17003   3.689   4.586   2.540 -0.6063 -0.2223 -0.2461
  153OSM     NF17004   3.650   4.391   2.724 -0.1363  0.5996 -0.2094
  153OSM    HNF17005   3.641   4.462   2.792  2.3569  0.1873  0.6687
  153OSM    C2S17006   3.758   4.410   2.625  0.9002 -0.3180 -0.7378
  153OSM    H2S17007   3.799   4.316   2.581 -2.1635 -0.0609 -4.6601
  153OSM    C3S17008   3.882   4.484   2.678  0.5323 -0.0358 -0.0717
  153OSM    H3S17009   3.846   4.584   2.710  1.0086  0.0763  0.1192
  153OSM     O317010   3.984   4.516   2.581  0.6598  0.2314 -0.6398
  153OSM    HO317011   3.941   4.490   2.500 -0.6388 -1.8532  0.6398
  153OSM    C4S17012   3.952   4.409   2.788 -0.0557  0.7832 -0.2058
  153OSM    H4S17013   4.008   4.323   2.748  0.0935  0.9402 -0.3385
  153OSM    C5S17014   3.973   4.451   2.914 -0.1181 -0.0978  0.3330
  153OSM    H5S17015   3.925   4.544   2.947  0.7138  0.4377  0.0479
  153OSM    C6S17016   4.048   4.378   3.024 -0.2435 -0.0044  0.5834
  153OSM    H6S17017   4.145   4.429   3.040 -2.3000  3.7582  2.5592
  153OSM    H6T17018   4.062   4.269   3.009  1.4537  0.3811 -1.0027
  153OSM    C7S17019   3.991   4.392   3.165 -0.5267 -0.3421 -0.0829
  153OSM    H7S17020   4.057   4.348   3.243  0.4351 -0.1451 -0.7625
  153OSM    H7T17021   3.896   4.335   3.169  0.1900 -1.6467 -0.8713
  153OSM    C8S17022   3.962   4.537   3.215 -1.2721  0.1713  0.3204
  153OSM    H8S17023   3.879   4.574   3.151 -0.7064  0.3553 -0.3227
  153OSM    H8T17024   4.039   4.616   3.203 -0.2854 -0.5704  1.4944
  153OSM    C9S17025   3.912   4.538   3.354 -0.6398 -0.3956 -0.1561
  153OSM    H9S17026   3.884   4.636   3.398 -1.4761 -1.0734  0.8889
  153OSM    H9T17027   3.992   4.499   3.420  1.4318  1.0400 -1.7128
  153OSM   C10S17028   3.782   4.468   3.352  0.3022 -0.1040  0.3820
  153OSM   H10S17029   3.802   4.360   3.367  0.8001 -0.4683 -2.3082
  153OSM   H10T17030   3.730   4.476   3.254 -0.5926  1.9557  0.9605
  153OSM   C11S17031   3.677   4.501   3.459  0.2233  0.1618  0.4592
  153OSM   H11S17032   3.584   4.443   3.446 -0.1765  0.5991  1.2774
  153OSM   H11T17033   3.656   4.611   3.458 -1.0527 -0.0667  0.6256
  153OSM   C12S17034   3.722   4.475   3.604 -0.5727  0.1123 -0.0846
  153OSM   H12S17035   3.826   4.515   3.615 -0.3588 -0.5169  0.2145
  153OSM   H12T17036   3.739   4.366   3.609 -0.7518 -0.0096 -1.7733
  153OSM   C13S17037   3.628   4.534   3.709 -0.5739 -0.1291  0.3735
  153OSM   H13S17038   3.621   4.645   3.712  0.5633  0.1063 -2.7271
  153OSM   H13T17039   3.672   4.500   3.806 -0.5930 -1.9711 -0.2227
  153OSM   C14S17040   3.483   4.471   3.711 -0.2101 -0.5603 -0.3879
  153OSM   H14S17041   3.491   4.360   3.715  0.9733 -0.7410 -4.0875
  153OSM   H14T17042   3.420   4.496   3.623  0.6429  0.7446 -0.6585
  153OSM   C15S17043   3.403   4.506   3.839  0.2322 -0.9057 -0.2654
  153OSM   H15S17044   3.415   4.615   3.853  0.3754 -0.9722  0.1568
  153OSM   H15T17045   3.450   4.451   3.924  1.5512 -0.3220 -0.5924
  153OSM   C16S17046   3.251   4.467   3.841 -0.9533 -0.3381  0.0373
  153OSM   H16S17047   3.262   4.357   3.830  1.8347 -0.0369 -1.2843
  153OSM   H16T17048   3.196   4.491   3.747 -2.2382 -0.2393  0.8016
  153OSM   C17S17049   3.175   4.507   3.963  0.4064 -0.2863 -0.5237
  153OSM   H17S17050   3.144   4.613   3.948 -1.3569 -0.6538  0.2738
  153OSM   H17T17051   3.229   4.502   4.060 -0.3648 -0.2718 -0.0921
  153OSM   C18S17052   3.043   4.429   3.991 -1.1100  0.1157 -0.3093
  153OSM   H18S17053   3.068   4.322   4.008 -1.2674  0.5062  3.2755
  153OSM   H18T17054   2.979   4.452   3.903 -0.2422 -0.4699 -1.1072
  153OSM   H18U17055   2.992   4.457   4.086 -2.1789 -1.6988 -0.2955
  153OSM    C1F17056   3.564   4.287   2.721 -0.3598  0.5345  0.0351
  153OSM     OF17057   3.569   4.214   2.620 -0.2753 -0.4902  0.2643
  153OSM    C2F17058   3.474   4.256   2.845  0.0938  0.7692 -0.1338
  153OSM    H2F17059   3.405   4.173   2.823  0.4573  0.2618  0.6022
  153OSM    H2G17060   3.420   4.352   2.861 -0.8347  0.2517 -0.1243
  153OSM    C3F17061   3.555   4.220   2.974 -0.7731  0.7555  0.0885
  153OSM    H3F17062   3.644   4.287   2.983  1.0026 -1.3907 -0.6155
  153OSM    H3G17063   3.600   4.120   2.955 -2.0566 -0.0819  1.2492
  153OSM    C4F17064   3.468   4.210   3.099  0.5506  0.5954 -0.5258
  153OSM    H4F17065   3.376   4.157   3.068  0.1299 -0.1663  1.8365
  153OSM    H4G17066   3.448   4.316   3.125 -1.6683  0.1261 -0.1614
  153OSM    C5F17067   3.531   4.138   3.224 -0.0976  0.3204 -0.6257
  153OSM    H5F17068   3.626   4.192   3.244 -0.4925  0.3288  1.3771
  153OSM    H5G17069   3.564   4.032   3.208 -0.9207 -0.1928  0.8993
  153OSM    C6F17070   3.444   4.143   3.348 -0.9956 -0.0330  0.2340
  153OSM    H6F17071   3.414   4.250   3.356 -4.0307 -0.8918  1.9902
  153OSM    H6G17072   3.507   4.114   3.436 -0.1516 -0.3884 -0.4730
  153OSM    C7F17073   3.319   4.055   3.335  0.4122  0.3741  0.8939
  153OSM    H7F17074   3.349   3.948   3.341  2.9049  1.0288  1.0340
  153OSM    H7G17075   3.290   4.077   3.230  0.3295  0.8739  1.0198
  153OSM    C8F17076   3.206   4.088   3.439  0.3336  0.0408 -0.7778
  153OSM    H8F17077   3.128   4.013   3.414  0.0065  0.1090 -0.0186
  153OSM    H8G17078   3.169   4.191   3.419  0.5222  0.2769  0.0201
  153OSM    C9F17079   3.237   4.081   3.585 -0.0996 -0.6906  0.0960
  153OSM    H9F17080   3.328   4.140   3.603  0.1087 -0.0976 -2.5428
  153OSM   C10F17081   3.170   4.021   3.684 -0.3674  0.3874  0.2861
  153OSM   H10F17082   3.205   4.033   3.787 -1.6251 -1.8869  1.0490
  153OSM   C11F17083   3.045   3.933   3.670 -0.2004  0.1771 -0.1656
  153OSM   H11F17084   3.063   3.823   3.677 -0.4552 -0.0587 -2.4199
  153OSM   H11G17085   2.998   3.951   3.571 -1.5049  1.5533  0.6588
  153OSM   C12F17086   2.946   3.973   3.777  0.0221  0.1056 -0.8692
  153OSM   H12F17087   2.842   3.950   3.744  0.3650 -0.4714 -1.5801
  153OSM   H12G17088   2.950   4.082   3.801 -2.7776  0.0920  0.1168
  153OSM   C13F17089   2.971   3.886   3.901 -0.8095  0.4559  0.3129
  153OSM   H13F17090   3.079   3.882   3.923 -0.9537 -0.1198  0.9500
  153OSM   H13G17091   2.936   3.787   3.863 -0.0881  0.5103 -0.5158
  153OSM   C14F17092   2.893   3.923   4.027 -0.5540 -0.3145 -0.3399
  153OSM   H14F17093   2.925   3.851   4.105 -1.9635 -2.5367 -1.7023
  153OSM   H14G17094   2.786   3.909   4.003 -0.2396 -0.9428 -1.5034
  153OSM   C15F17095   2.914   4.068   4.077  0.1322 -0.4160  1.4175
  153OSM   H15F17096   2.895   4.130   3.987 -0.9234 -1.2670  1.0442
  153OSM   H15G17097   3.022   4.085   4.100  0.3871 -0.8074  0.5590
  153OSM   C16F17098   2.818   4.105   4.194  0.0230 -0.3188  0.4784
  153OSM   H16F17099   2.860   4.192   4.250  0.7239 -1.5936  2.0200
  153OSM   H16G17100   2.827   4.016   4.259 -0.0923 -1.6537 -1.2623
  153OSM   C17F17101   2.670   4.141   4.155 -0.3287  0.3326 -0.2030
  153OSM   H17F17102   2.629   4.055   4.098  0.6463  1.5892 -2.9698
  153OSM   H17G17103   2.685   4.223   4.082 -0.1116  1.0728  0.6479
  153OSM   C18F17104   2.573   4.174   4.267 -0.2215  0.0800 -0.3478
  153OSM   H18F17105   2.632   4.242   4.333  0.1659 -0.4389 -0.1603
  153OSM   H18G17106   2.537   4.084   4.320 -0.5365  0.7496  0.6035
  153OSM   H18H17107   2.483   4.227   4.228  0.5504  0.8685 -1.1141
  154OSM      N17108   4.137   2.754   2.196  0.6268  0.2935  0.3718
  154OSM    C1517109   4.236   2.856   2.153  0.5372 -0.1925 -0.4387
  154OSM   H15A17110   4.203   2.959   2.153  2.0997  0.3402  0.3013
  154OSM   H15B17111   4.263   2.835   2.051  1.5896  1.7739 -0.6248
  154OSM   H15C17112   4.325   2.864   2.214  1.1493  1.4260 -1.4674
  154OSM    C1417113   4.021   2.746   2.101 -0.1514  0.1705 -0.5525
  154OSM   H14A17114   3.965   2.838   2.092  1.4067  1.3117  0.8873
  154OSM   H14B17115   3.948   2.677   2.141 -0.1396  0.6429  0.2854
  154OSM   H14C17116   4.053   2.710   2.004  0.1383  1.6479 -1.0348
  154OSM    C1317117   4.202   2.621   2.184  0.0881  0.1860  0.7623
  154OSM   H13A17118   4.225   2.603   2.080 -4.1431  3.0212 -0.9406
  154OSM   H13B17119   4.127   2.545   2.199  0.3094 -0.1474  0.2380
  154OSM   H13C17120   4.289   2.606   2.245  0.1370  0.7399  0.8313
  154OSM    C1217121   4.089   2.770   2.339 -0.4771 -0.3162 -0.0306
  154OSM   H12A17122   4.066   2.873   2.359  1.9382  0.6691 -1.8804
  154OSM   H12B17123   4.179   2.746   2.393 -0.4248  0.1189  0.0762
  154OSM    C1117124   3.969   2.679   2.388 -1.0115  0.7850  0.2993
  154OSM   H11A17125   3.964   2.700   2.497  1.9244  2.7559  0.1362
  154OSM   H11B17126   4.018   2.580   2.382  0.4681  1.4491  1.0369
  154OSM      P17127   3.749   2.565   2.314 -0.2870  0.3162 -0.1904
  154OSM    O1317128   3.613   2.611   2.284 -0.0704 -0.1153 -0.1028
  154OSM    O1417129   3.821   2.469   2.222 -0.0420 -0.2283  0.2681
  154OSM    O1117130   3.747   2.490   2.457 -0.2098 -0.0029 -0.6801
  154OSM    O1217131   3.841   2.693   2.332 -0.5955 -0.1249 -0.1260
  154OSM    C1S17132   3.693   2.559   2.570  0.0132  0.4584  0.1978
  154OSM    H1S17133   3.585   2.585   2.567 -0.2333 -0.3987  1.1284
  154OSM    H1T17134   3.742   2.657   2.583  0.4263  0.4689 -1.2030
  154OSM     NF17135   3.626   2.519   2.801 -0.3252 -0.3718 -0.1391
  154OSM    HNF17136   3.671   2.569   2.875  0.1555 -1.9823  0.6874
  154OSM    C2S17137   3.716   2.472   2.694 -1.2117 -0.0984  0.4088
  154OSM    H2S17138   3.691   2.367   2.671  0.0407 -0.7767  1.9727
  154OSM    C3S17139   3.867   2.455   2.728 -0.3399 -0.4055 -0.1884
  154OSM    H3S17140   3.900   2.552   2.770 -1.8462  0.4815 -0.9485
  154OSM     O317141   3.953   2.416   2.624  0.0602  0.1050 -0.2436
  154OSM    HO317142   3.895   2.416   2.547 -0.8055 -1.1458  0.3825
  154OSM    C4S17143   3.896   2.362   2.847  0.6248  0.0360  0.6622
  154OSM    H4S17144   3.855   2.415   2.935  0.0479 -0.3067  0.6070
  154OSM    C5S17145   3.945   2.235   2.850 -0.3032 -0.3720 -0.3108
  154OSM    H5S17146   3.965   2.192   2.751 -1.9711  0.7230 -1.1833
  154OSM    C6S17147   3.960   2.163   2.988  0.4294  0.1228  0.0267
  154OSM    H6S17148   4.044   2.091   2.992  1.2898  1.1647  2.1421
  154OSM    H6T17149   3.872   2.105   3.023  1.6795 -0.9712  1.4613
  154OSM    C7S17150   4.005   2.256   3.105  0.1691  0.1807  0.0211
  154OSM    H7S17151   3.931   2.335   3.130  2.5148  2.3664  0.4392
  154OSM    H7T17152   4.089   2.315   3.064  0.9190 -0.2928  0.8532
  154OSM    C8S17153   4.049   2.182   3.228 -0.2515  0.0051 -0.2878
  154OSM    H8S17154   4.111   2.096   3.197 -1.7667 -0.8358 -1.0634
  154OSM    H8T17155   3.956   2.138   3.270 -0.4626  1.2170  0.5940
  154OSM    C9S17156   4.123   2.274   3.337 -0.0249  0.3954  0.0048
  154OSM    H9S17157   4.201   2.319   3.272 -0.5146 -0.6295 -1.3536
  154OSM    H9T17158   4.165   2.208   3.415 -0.0821 -0.7481 -0.9001
  154OSM   C10S17159   4.037   2.385   3.387  0.0351 -0.2709 -0.3713
  154OSM   H10S17160   3.941   2.347   3.428  1.5582 -1.5080  2.3551
  154OSM   H10T17161   4.022   2.451   3.299 -0.0637  1.5351  0.9346
  154OSM   C11S17162   4.089   2.475   3.499 -0.0988  0.3484 -0.6527
  154OSM   H11S17163   4.021   2.561   3.519 -0.3977  0.0825 -0.5118
  154OSM   H11T17164   4.182   2.527   3.468 -0.4408  0.4577 -1.5388
  154OSM   C12S17165   4.102   2.400   3.637  0.7844  0.5517 -0.8871
  154OSM   H12S17166   4.175   2.317   3.640 -0.9893 -1.0777  1.4735
  154OSM   H12T17167   3.995   2.377   3.660  0.9777  0.4607 -0.0513
  154OSM   C13S17168   4.141   2.503   3.738  0.1365  0.3231 -0.1199
  154OSM   H13S17169   4.067   2.586   3.733 -0.0231  0.4358  2.6878
  154OSM   H13T17170   4.237   2.547   3.704  0.9102  0.7489  2.3934
  154OSM   C14S17171   4.145   2.441   3.878 -0.7012  0.5454 -0.1449
  154OSM   H14S17172   4.206   2.349   3.885 -1.1973  0.0399 -1.9824
  154OSM   H14T17173   4.045   2.396   3.896 -0.7849  1.1037  0.8789
  154OSM   C15S17174   4.163   2.532   4.000  0.6128  0.1854  0.2730
  154OSM   H15S17175   4.105   2.625   3.980 -0.1430 -0.2982  0.1610
  154OSM   H15T17176   4.267   2.566   4.021  1.1922 -0.6447 -1.1306
  154OSM   C16S17177   4.116   2.455   4.124  0.5614 -0.1946 -0.2750
  154OSM   H16S17178   4.181   2.368   4.151 -1.7128 -2.4588 -1.5915
  154OSM   H16T17179   4.022   2.396   4.110  0.0893 -0.3844  2.8523
  154OSM   C17S17180   4.094   2.547   4.248  0.8626  0.2103  0.4444
  154OSM   H17S17181   4.032   2.637   4.231 -1.3076 -0.9598  1.6850
  154OSM   H17T17182   4.197   2.582   4.271  0.2873  1.0803  1.8252
  154OSM   C18S17183   4.047   2.459   4.368  0.1781 -0.5858 -0.4931
  154OSM   H18S17184   3.952   2.406   4.344  0.3550 -0.5158 -1.4074
  154OSM   H18T17185   4.006   2.519   4.451  0.1325 -2.6994  1.0858
  154OSM   H18U17186   4.124   2.390   4.408  2.5486  2.5718  0.8398
  154OSM    C1F17187   3.495   2.510   2.798 -0.4848  0.6596 -1.4134
  154OSM     OF17188   3.440   2.458   2.704  0.2197  0.5035  0.4048
  154OSM    C2F17189   3.421   2.558   2.923  0.0205  0.1196 -0.2777
  154OSM    H2F17190   3.504   2.565   2.998  0.0189  1.5177 -0.3819
  154OSM    H2G17191   3.358   2.471   2.951  0.7009 -0.5186 -0.6849
  154OSM    C3F17192   3.345   2.694   2.915 -0.3246  0.4447 -0.1760
  154OSM    H3F17193   3.266   2.687   2.837 -1.2187 -2.7987  0.8565
  154OSM    H3G17194   3.420   2.773   2.894  2.1863 -1.4734  1.0288
  154OSM    C4F17195   3.274   2.711   3.049 -0.1804  0.0229  0.0723
  154OSM    H4F17196   3.212   2.626   3.084 -2.2302  1.1202 -0.7218
  154OSM    H4G17197   3.212   2.802   3.034  0.1490  0.4175  1.0044
  154OSM    C5F17198   3.374   2.746   3.158 -0.6969  0.1988  0.6028
  154OSM    H5F17199   3.430   2.840   3.139 -0.8789  0.4619  1.3149
  154OSM    H5G17200   3.445   2.661   3.160  1.2640  1.7398 -0.3652
  154OSM    C6F17201   3.301   2.776   3.290 -0.8240 -0.3311  0.5001
  154OSM    H6F17202   3.227   2.694   3.306  0.4980 -1.7218 -0.2444
  154OSM    H6G17203   3.248   2.873   3.280 -0.4420  0.0272  1.7149
  154OSM    C7F17204   3.396   2.792   3.412  0.4080  0.0088  0.2037
  154OSM    H7F17205   3.470   2.869   3.383 -1.2161  0.8938 -1.7975
  154OSM    H7G17206   3.447   2.694   3.422  0.4033 -0.1317 -1.0021
  154OSM    C8F17207   3.326   2.829   3.545  0.3540 -0.0781 -0.4368
  154OSM    H8F17208   3.277   2.738   3.584  1.0569 -0.8626 -1.3363
  154OSM    H8G17209   3.256   2.914   3.530 -1.2126 -1.3066 -0.3608
  154OSM    C9F17210   3.438   2.855   3.643  0.4390 -0.5640  0.4948
  154OSM    H9F17211   3.528   2.892   3.590  0.0168 -0.1037  0.0901
  154OSM   C10F17212   3.427   2.832   3.768  0.0903  0.3038  0.4614
  154OSM   H10F17213   3.516   2.842   3.832  0.3177  0.0644  0.1864
  154OSM   C11F17214   3.301   2.784   3.843  0.0643 -0.3676  0.2174
  154OSM   H11F17215   3.311   2.678   3.875  0.9004  0.1623  1.8414
  154OSM   H11G17216   3.204   2.796   3.790  0.9212 -0.5616 -1.4783
  154OSM   C12F17217   3.294   2.866   3.971  0.1714  0.0569  0.4456
  154OSM   H12F17218   3.313   2.976   3.968  0.6154 -0.0419 -0.9598
  154OSM   H12G17219   3.370   2.832   4.045  0.8225  3.4615  1.5295
  154OSM   C13F17220   3.148   2.838   4.029 -0.1508  0.2673 -0.6287
  154OSM   H13F17221   3.138   2.734   4.066 -0.1328 -0.3402 -2.2662
  154OSM   H13G17222   3.073   2.853   3.948 -0.6882 -0.6517 -0.3218
  154OSM   C14F17223   3.108   2.929   4.150 -0.5336 -0.2811  0.4083
  154OSM   H14F17224   3.130   3.033   4.119  0.4766 -0.8037 -0.7145
  154OSM   H14G17225   3.174   2.900   4.235 -0.6938 -1.5027  0.1353
  154OSM   C15F17226   2.960   2.921   4.192  0.6081 -0.1431 -0.0769
  154OSM   H15F17227   2.903   2.969   4.110 -2.0928 -1.4355  0.9250
  154OSM   H15G17228   2.936   2.979   4.284 -3.6110  0.0251 -1.0677
  154OSM   C16F17229   2.904   2.773   4.196 -0.3216 -0.4673  0.5198
  154OSM   H16F17230   2.952   2.707   4.272  1.9181  0.4724  0.0189
  154OSM   H16G17231   2.928   2.729   4.097  1.8329 -2.0030  1.6423
  154OSM   C17F17232   2.752   2.775   4.211  0.4127 -0.4607 -0.1764
  154OSM   H17F17233   2.715   2.673   4.188  0.3345 -0.0662 -1.9673
  154OSM   H17G17234   2.709   2.845   4.136  1.1597  0.9174  0.6304
  154OSM   C18F17235   2.719   2.834   4.354  0.0648  0.5815 -0.9668
  154OSM   H18F17236   2.609   2.841   4.371  0.0973 -1.8486  0.9553
  154OSM   H18G17237   2.770   2.930   4.374 -0.3429  0.6659 -0.3005
  154OSM   H18H17238   2.764   2.771   4.434 -0.8114 -0.3593 -1.1848
  155OSM      N17239   5.074   6.316   2.314  0.0466 -0.4838  0.8195
  155OSM    C1517240   4.926   6.317   2.295  0.5019 -0.2137  0.0330
  155OSM   H15A17241   4.886   6.417   2.306 -2.7496 -1.2362 -1.3402
  155OSM   H15B17242   4.882   6.261   2.376  0.3865 -1.0743 -0.6124
  155OSM   H15C17243   4.891   6.294   2.196 -1.9081  1.9923  0.2308
  155OSM    C1417244   5.116   6.176   2.331  0.4052 -0.6240  0.3821
  155OSM   H14A17245   5.108   6.111   2.245 -1.5500 -1.5002  1.1650
  155OSM   H14B17246   5.065   6.131   2.415  1.3150 -1.7857  0.3378
  155OSM   H14C17247   5.220   6.177   2.361 -0.1803 -2.2842  2.7714
  155OSM    C1317248   5.131   6.373   2.189  0.1302 -0.0411 -0.2110
  155OSM   H13A17249   5.095   6.313   2.107 -1.5283 -0.1947  0.5882
  155OSM   H13B17250   5.239   6.364   2.191  0.1821  0.5462  1.6067
  155OSM   H13C17251   5.105   6.477   2.188  2.0523  0.4987  0.6637
  155OSM    C1217252   5.113   6.398   2.434 -0.1859  0.1711 -0.2257
  155OSM   H12A17253   5.221   6.399   2.437 -0.1482  1.4237 -1.2746
  155OSM   H12B17254   5.073   6.334   2.512  0.8036 -2.2761 -1.5903
  155OSM    C1117255   5.070   6.551   2.441  0.0360  1.0502  0.5042
  155OSM   H11A17256   5.076   6.575   2.549 -1.1229 -0.0734  0.8427
  155OSM   H11B17257   4.967   6.561   2.401 -0.3711 -3.2886 -0.0838
  155OSM      P17258   5.310   6.641   2.426  0.3161 -0.1077 -0.3514
  155OSM    O1317259   5.382   6.512   2.460  0.4142  0.3824  0.7286
  155OSM    O1417260   5.378   6.731   2.340 -0.1046  0.3013  0.9998
  155OSM    O1117261   5.258   6.721   2.555  0.0553 -0.1804  0.0464
  155OSM    O1217262   5.168   6.616   2.355 -0.1040  0.1358 -0.6032
  155OSM    C1S17263   5.318   6.683   2.682 -0.2598 -1.0478 -0.3149
  155OSM    H1S17264   5.426   6.700   2.664 -0.4777 -1.1681 -1.8646
  155OSM    H1T17265   5.308   6.574   2.699 -1.7982 -1.3764 -2.8887
  155OSM     NF17266   5.369   6.712   2.906  0.7552 -0.1239  0.3019
  155OSM    HNF17267   5.320   6.649   2.966  1.2697 -1.7591 -0.9107
  155OSM    C2S17268   5.286   6.770   2.814  0.6886 -0.2700 -0.5192
  155OSM    H2S17269   5.303   6.878   2.792  0.6881  0.0157  0.7965
  155OSM    C3S17270   5.135   6.767   2.847 -0.2711  0.0734 -0.4668
  155OSM    H3S17271   5.116   6.667   2.891  0.9018  0.4637  1.0116
  155OSM     O317272   5.046   6.778   2.733 -0.2719 -0.1008  0.6781
  155OSM    HO317273   5.098   6.782   2.653 -0.2073  1.6422  0.7667
  155OSM    C4S17274   5.111   6.865   2.956  0.2329 -0.3272  0.1368
  155OSM    H4S17275   5.150   6.819   3.048 -0.4439 -2.7208 -0.6958
  155OSM    C5S17276   5.071   6.990   2.956 -0.4009 -0.2869  0.0118
  155OSM    H5S17277   5.054   7.033   2.857 -0.1233  1.0578  0.5279
  155OSM    C6S17278   5.046   7.084   3.077 -0.6563  0.1052  0.2230
  155OSM    H6S17279   4.938   7.086   3.102 -0.2924  0.5310  1.8898
  155OSM    H6T17280   5.069   7.193   3.069  2.7319 -0.1372  3.7745
  155OSM    C7S17281   5.132   7.054   3.207  0.2976  0.2445 -0.4618
  155OSM    H7S17282   5.238   7.068   3.175  0.4734  0.4231  0.1834
  155OSM    H7T17283   5.125   6.946   3.232  0.0190  0.3660  0.0030
  155OSM    C8S17284   5.125   7.140   3.330  0.0454 -0.0600  0.8313
  155OSM    H8S17285   5.182   7.227   3.291  0.0022 -1.7454 -3.5153
  155OSM    H8T17286   5.174   7.085   3.414  1.2948  0.7392  0.6531
  155OSM    C9S17287   4.978   7.178   3.370 -0.2823 -0.3136  0.3468
  155OSM    H9S17288   4.924   7.081   3.378 -3.1368  1.2717  2.1600
  155OSM    H9T17289   4.943   7.241   3.286 -0.3086 -0.7585  0.0189
  155OSM   C10S17290   4.956   7.244   3.498  0.5979 -0.5908 -0.6800
  155OSM   H10S17291   4.847   7.243   3.516  0.8082 -1.0884  0.6653
  155OSM   H10T17292   4.994   7.348   3.495  1.3661 -0.8469 -0.0707
  155OSM   C11S17293   5.013   7.196   3.635 -0.0175 -0.0695 -0.5560
  155OSM   H11S17294   5.123   7.188   3.623  0.1362  1.7813 -0.7775
  155OSM   H11T17295   4.965   7.097   3.646 -2.2579  0.8802 -1.0273
  155OSM   C12S17296   4.971   7.283   3.756  1.1064 -0.4618  0.4845
  155OSM   H12S17297   4.867   7.260   3.788  0.9230  0.9965  1.0379
  155OSM   H12T17298   4.988   7.391   3.738  2.5388 -0.2181  2.9073
  155OSM   C13S17299   5.057   7.243   3.877 -0.2264 -0.2596  0.8876
  155OSM   H13S17300   5.162   7.255   3.843 -0.3123 -0.7353  0.4392
  155OSM   H13T17301   5.034   7.135   3.887 -1.5753 -0.0913 -0.1183
  155OSM   C14S17302   5.029   7.322   4.002 -0.6021 -0.8646 -0.7903
  155OSM   H14S17303   4.919   7.311   4.010 -0.6333  0.3692  0.8519
  155OSM   H14T17304   5.056   7.428   3.981 -1.3260 -0.5329 -0.0809
  155OSM   C15S17305   5.097   7.271   4.130 -0.1269 -0.5638  0.5660
  155OSM   H15S17306   5.191   7.220   4.101 -0.7437 -2.1133  1.1626
  155OSM   H15T17307   5.049   7.182   4.177 -1.2754 -0.8307 -1.0536
  155OSM   C16S17308   5.109   7.377   4.240 -0.2215 -1.0169  0.8805
  155OSM   H16S17309   5.017   7.437   4.254  1.2425  1.8676 -0.7827
  155OSM   H16T17310   5.184   7.447   4.196 -2.2411  0.1822 -0.8819
  155OSM   C17S17311   5.171   7.323   4.372  0.3385 -0.4518 -0.0639
  155OSM   H17S17312   5.100   7.251   4.418 -0.4982  0.1676 -0.3460
  155OSM   H17T17313   5.171   7.405   4.446 -0.0210  0.3159 -0.8850
  155OSM   C18S17314   5.305   7.248   4.353 -0.0230 -0.1779  0.8373
  155OSM   H18S17315   5.390   7.309   4.316 -0.0986  0.8794  2.3062
  155OSM   H18T17316   5.292   7.157   4.292 -2.7628  0.3247  0.5440
  155OSM   H18U17317   5.340   7.208   4.451 -0.2952  0.2832  1.1297
  155OSM    C1F17318   5.496   6.737   2.913 -0.7858  0.6271  0.0247
  155OSM     OF17319   5.546   6.831   2.858  0.5709  0.5467  0.2050
  155OSM    C2F17320   5.573   6.650   3.009 -0.6381 -0.6175 -0.7142
  155OSM    H2F17321   5.654   6.606   2.946 -1.4805 -1.4837 -1.2314
  155OSM    H2G17322   5.518   6.564   3.053  0.0074  0.3706  2.2193
  155OSM    C3F17323   5.633   6.730   3.128  0.0368  0.0669 -0.5312
  155OSM    H3F17324   5.653   6.835   3.096  2.3569 -0.1472 -0.0232
  155OSM    H3G17325   5.728   6.677   3.153  0.3603 -0.0344 -1.8890
  155OSM    C4F17326   5.548   6.740   3.259 -0.8088 -0.3482 -0.1407
  155OSM    H4F17327   5.531   6.632   3.282  0.7510 -0.5879  0.0240
  155OSM    H4G17328   5.453   6.794   3.239 -1.2018 -0.7418  0.6127
  155OSM    C5F17329   5.620   6.809   3.374  0.2988 -0.4828  0.1681
  155OSM    H5F17330   5.627   6.919   3.357 -1.1201 -0.2073  1.1516
  155OSM    H5G17331   5.721   6.765   3.383 -0.9051 -3.6018 -0.3365
  155OSM    C6F17332   5.548   6.790   3.509  0.8836  0.3821 -0.4099
  155OSM    H6F17333   5.495   6.694   3.492 -1.7511  1.4243  1.3075
  155OSM    H6G17334   5.473   6.868   3.531 -2.2259 -1.7920 -2.4252
  155OSM    C7F17335   5.650   6.777   3.622 -0.5065 -1.3146  0.2175
  155OSM    H7F17336   5.685   6.880   3.644  0.0278 -1.8125  1.8098
  155OSM    H7G17337   5.734   6.709   3.597  1.3110  0.7208  0.4215
  155OSM    C8F17338   5.598   6.718   3.753  0.2441  0.1517  0.1243
  155OSM    H8F17339   5.556   6.622   3.717 -3.0546  1.3780  0.3406
  155OSM    H8G17340   5.515   6.781   3.790 -1.3645 -1.3556 -0.7674
  155OSM    C9F17341   5.713   6.704   3.854  0.6964 -0.8835 -0.6373
  155OSM    H9F17342   5.776   6.793   3.845  1.1305 -1.2560 -1.3552
  155OSM   C10F17343   5.729   6.615   3.949  0.1977  0.3429 -0.2759
  155OSM   H10F17344   5.823   6.623   4.004  1.7055 -0.7021 -2.5572
  155OSM   C11F17345   5.627   6.503   3.985 -0.4791 -0.4890 -0.1073
  155OSM   H11F17346   5.665   6.399   3.972 -2.0048 -1.7053  3.6573
  155OSM   H11G17347   5.528   6.519   3.936 -1.3618 -1.1417  1.3846
  155OSM   C12F17348   5.597   6.504   4.137 -0.4666  0.0632  0.0871
  155OSM   H12F17349   5.498   6.462   4.165 -1.1804  1.9272  0.5288
  155OSM   H12G17350   5.594   6.605   4.182  0.7307  0.8663 -1.5485
  155OSM   C13F17351   5.704   6.427   4.226  0.9528 -0.1725 -0.4211
  155OSM   H13F17352   5.797   6.487   4.220 -1.2306  3.6704  0.8660
  155OSM   H13G17353   5.723   6.321   4.198 -0.6590 -0.4563 -0.5434
  155OSM   C14F17354   5.664   6.428   4.377 -0.4642  0.5126  0.2343
  155OSM   H14F17355   5.730   6.351   4.422 -3.5750 -1.8511  1.1407
  155OSM   H14G17356   5.559   6.395   4.394 -0.4929 -1.1244 -2.4709
  155OSM   C15F17357   5.680   6.558   4.455  1.2743  0.2620 -0.0060
  155OSM   H15F17358   5.649   6.548   4.561 -2.8300 -1.2271 -1.1757
  155OSM   H15G17359   5.614   6.629   4.400  1.7767  0.2016 -0.7112
  155OSM   C16F17360   5.820   6.608   4.454  0.2663 -0.3549 -0.1221
  155OSM   H16F17361   5.817   6.719   4.459  1.9571 -0.2757 -0.3561
  155OSM   H16G17362   5.876   6.602   4.359  0.0148 -0.7657 -0.2463
  155OSM   C17F17363   5.894   6.562   4.584 -0.0231 -0.5766  0.2285
  155OSM   H17F17364   5.901   6.451   4.578 -0.2791 -0.7036  1.8060
  155OSM   H17G17365   5.837   6.574   4.679  0.2800 -0.0192  0.3413
  155OSM   C18F17366   6.032   6.619   4.600 -0.6441 -0.3948  0.3783
  155OSM   H18F17367   6.023   6.727   4.627 -0.4827 -0.4343  0.5973
  155OSM   H18G17368   6.077   6.614   4.499 -1.5010 -0.7297  0.0085
  155OSM   H18H17369   6.095   6.585   4.685 -0.6015  0.9679  0.9235
  156OSM      N17370   0.124   6.623   2.067  0.1573 -0.5412  0.4200
  156OSM    C1517371   0.101   6.505   2.146 -0.6878 -0.8260 -0.3586
  156OSM   H15A17372   0.049   6.512   2.240 -0.5495  0.3442 -0.3584
  156OSM   H15B17373   0.188   6.448   2.175  0.4165  0.6968 -0.5315
  156OSM   H15C17374   0.039   6.436   2.091 -0.3642 -0.5067 -1.1407
  156OSM    C1417375   0.183   6.584   1.939  0.1598  0.2079 -0.3789
  156OSM   H14A17376   0.285   6.560   1.963  0.2139  0.7888 -0.0114
  156OSM   H14B17377   0.170   6.658   1.862 -1.9836  0.5204  0.2207
  156OSM   H14C17378   0.147   6.489   1.902  0.5699 -0.2228  0.3069
  156OSM    C1317379  -0.018   6.672   2.036  0.4903  0.3676 -0.2394
  156OSM   H13A17380  -0.075   6.693   2.125 -0.3125 -3.0854  0.2057
  156OSM   H13B17381  -0.068   6.588   1.989 -0.2892  0.5404  0.2651
  156OSM   H13C17382  -0.012   6.743   1.955  0.1723  1.4531  0.6674
  156OSM    C1217383   0.200   6.734   2.137 -0.2091 -0.2729  0.7384
  156OSM   H12A17384   0.140   6.791   2.206 -2.4000  0.9821 -2.0326
  156OSM   H12B17385   0.228   6.802   2.058 -0.8082 -0.2471  0.5450
  156OSM    C1117386   0.336   6.716   2.212 -0.3612 -0.0935  0.9423
  156OSM   H11A17387   0.317   6.654   2.302  0.9467 -3.1647 -0.7490
  156OSM   H11B17388   0.380   6.812   2.245 -0.1054  0.2383 -0.3189
  156OSM      P17389   0.541   6.548   2.147 -0.3037  0.3639  0.2370
  156OSM    O1317390   0.501   6.413   2.104 -0.2086  0.4718  0.4733
  156OSM    O1417391   0.671   6.588   2.088  0.3581 -0.6153  0.3498
  156OSM    O1117392   0.547   6.551   2.308 -0.4532  0.1057 -0.5628
  156OSM    O1217393   0.424   6.653   2.119  0.2607  0.0237  0.1003
  156OSM    C1S17394   0.676   6.530   2.361  1.3083 -0.3366 -0.2328
  156OSM    H1S17395   0.741   6.613   2.325 -1.8331  2.0335 -0.8498
  156OSM    H1T17396   0.701   6.430   2.321 -0.0134 -0.9437  0.3950
  156OSM     NF17397   0.821   6.518   2.550  0.3702  0.7520 -0.1133
  156OSM    HNF17398   0.869   6.441   2.591  2.9341  0.2273 -3.6630
  156OSM    C2S17399   0.681   6.517   2.515 -0.0401  0.2961  0.4502
  156OSM    H2S17400   0.632   6.606   2.560  0.1241  0.0696  1.0822
  156OSM    C3S17401   0.594   6.403   2.567  0.3085  0.5396  0.0537
  156OSM    H3S17402   0.620   6.302   2.531 -2.0480 -0.0975 -0.0019
  156OSM     O317403   0.459   6.413   2.526  0.2755 -0.0934 -0.2913
  156OSM    HO317404   0.450   6.465   2.445  1.7164  3.1139  1.4361
  156OSM    C4S17405   0.601   6.395   2.716  0.3126 -0.0276 -0.9253
  156OSM    H4S17406   0.690   6.339   2.749  1.6911  1.0851 -2.5995
  156OSM    C5S17407   0.516   6.431   2.810 -0.0387  0.0816  0.7738
  156OSM    H5S17408   0.422   6.476   2.773  1.5654  0.6426 -3.0626
  156OSM    C6S17409   0.543   6.409   2.956  0.3871 -0.1796  0.2121
  156OSM    H6S17410   0.637   6.352   2.976  0.1318 -1.2888 -1.4867
  156OSM    H6T17411   0.458   6.349   2.995 -1.4434 -0.0689 -3.1815
  156OSM    C7S17412   0.541   6.551   3.024 -0.3638  0.2983  0.3047
  156OSM    H7S17413   0.442   6.601   3.019 -0.8239 -0.5947  0.2307
  156OSM    H7T17414   0.615   6.618   2.976 -0.2808  0.5282  0.7487
  156OSM    C8S17415   0.600   6.524   3.167 -0.5321  0.7089 -0.6254
  156OSM    H8S17416   0.699   6.475   3.157 -0.7292  0.1448  0.0993
  156OSM    H8T17417   0.527   6.476   3.235 -0.5413  1.8653  0.2124
  156OSM    C9S17418   0.626   6.657   3.234 -0.0478 -0.3329  0.1264
  156OSM    H9S17419   0.683   6.720   3.163  0.1772  0.2521  0.8119
  156OSM    H9T17420   0.698   6.641   3.317 -2.2593 -0.4306  2.1491
  156OSM   C10S17421   0.495   6.723   3.291 -0.4572  0.0943  0.1383
  156OSM   H10S17422   0.442   6.653   3.358 -1.3111  0.1697 -0.4517
  156OSM   H10T17423   0.423   6.742   3.209 -0.4075 -1.9988 -0.4564
  156OSM   C11S17424   0.533   6.843   3.377 -0.4135  0.1888 -0.1095
  156OSM   H11S17425   0.633   6.821   3.421 -0.5839 -0.1498  0.1151
  156OSM   H11T17426   0.455   6.859   3.454 -2.1167  0.7050 -1.8527
  156OSM   C12S17427   0.547   6.978   3.303 -0.5147 -0.4360  0.7023
  156OSM   H12S17428   0.455   7.000   3.246  0.5977  0.9832 -0.6145
  156OSM   H12T17429   0.626   6.960   3.227 -3.2091 -1.6793 -2.0200
  156OSM   C13S17430   0.591   7.096   3.400  0.0784  0.0244  0.1321
  156OSM   H13S17431   0.517   7.122   3.479 -0.7385 -1.0335 -0.2747
  156OSM   H13T17432   0.620   7.184   3.338  2.8384 -0.5517  0.4616
  156OSM   C14S17433   0.715   7.077   3.489  0.4764 -0.0544 -0.0874
  156OSM   H14S17434   0.805   7.035   3.439 -0.5048 -1.9135 -0.3763
  156OSM   H14T17435   0.687   7.014   3.576 -0.1835 -0.1702 -0.3820
  156OSM   C15S17436   0.756   7.211   3.569  0.2332 -0.4045  0.3432
  156OSM   H15S17437   0.801   7.189   3.669 -0.8511  0.0129  0.9303
  156OSM   H15T17438   0.666   7.271   3.593  0.3389 -0.8651  1.9889
  156OSM   C16S17439   0.852   7.298   3.494 -0.2859 -0.2993 -0.1989
  156OSM   H16S17440   0.812   7.315   3.392 -0.0854  0.6287 -0.1313
  156OSM   H16T17441   0.950   7.247   3.487  0.0105 -0.2060  2.3687
  156OSM   C17S17442   0.877   7.431   3.565 -0.1963  0.6143 -0.3745
  156OSM   H17S17443   0.781   7.470   3.604 -0.1274  0.4733 -0.0554
  156OSM   H17T17444   0.915   7.499   3.486 -2.0420 -1.7424 -3.5270
  156OSM   C18S17445   0.965   7.414   3.688 -0.7480  0.5941 -0.9586
  156OSM   H18S17446   1.065   7.374   3.661 -0.0080  2.1958 -0.7388
  156OSM   H18T17447   0.917   7.349   3.763  2.7564  0.4665  1.4001
  156OSM   H18U17448   0.981   7.514   3.735  2.3432 -0.6135  0.8029
  156OSM    C1F17449   0.894   6.628   2.535 -0.0373 -0.1541 -0.8859
  156OSM     OF17450   0.846   6.734   2.493 -0.6758 -0.4235 -0.3914
  156OSM    C2F17451   1.039   6.612   2.586  0.1572 -0.0570  0.7863
  156OSM    H2F17452   1.094   6.660   2.502 -2.3843  0.3596 -0.7548
  156OSM    H2G17453   1.054   6.502   2.584 -0.9945 -0.2379 -1.4834
  156OSM    C3F17454   1.065   6.684   2.721  0.1353  0.0078  0.6017
  156OSM    H3F17455   1.055   6.794   2.709  2.1909  0.1604 -0.1314
  156OSM    H3G17456   1.174   6.675   2.745  0.5759  0.2245 -1.1934
  156OSM    C4F17457   0.988   6.640   2.840 -0.5157  0.1626  0.4947
  156OSM    H4F17458   1.030   6.544   2.878 -1.3784 -1.1669 -1.7335
  156OSM    H4G17459   0.880   6.620   2.825 -0.5146  0.2182  0.4116
  156OSM    C5F17460   1.013   6.747   2.953 -0.0474 -0.0888  0.4924
  156OSM    H5F17461   0.937   6.825   2.929  0.3527 -0.0780 -0.8099
  156OSM    H5G17462   1.117   6.787   2.951  0.1291 -0.5337  0.6984
  156OSM    C6F17463   0.980   6.707   3.095 -0.0575 -0.5676 -0.0295
  156OSM    H6F17464   1.043   6.623   3.130 -0.1313  0.6986  3.4852
  156OSM    H6G17465   0.875   6.671   3.101 -0.3807  0.5295  1.4063
  156OSM    C7F17466   1.016   6.816   3.197  0.7792 -0.2494 -0.1671
  156OSM    H7F17467   0.925   6.878   3.210  0.0583 -0.9396 -1.6581
  156OSM    H7G17468   1.103   6.871   3.156  1.1743  1.6711  2.9566
  156OSM    C8F17469   1.054   6.770   3.337 -0.5571 -0.1581 -0.2849
  156OSM    H8F17470   1.073   6.868   3.385 -4.3501 -0.3081  1.9316
  156OSM    H8G17471   1.144   6.707   3.352 -0.0056  1.2191  2.8777
  156OSM    C9F17472   0.946   6.701   3.409 -0.2950  0.3576 -0.5053
  156OSM    H9F17473   0.891   6.622   3.356 -2.1539  0.0000  1.7781
  156OSM   C10F17474   0.923   6.715   3.540 -0.3836 -0.0947 -0.3761
  156OSM   H10F17475   0.846   6.655   3.591 -0.0053 -0.5148 -0.2868
  156OSM   C11F17476   0.993   6.809   3.635  0.5221 -0.4056 -0.0550
  156OSM   H11F17477   1.038   6.899   3.587 -0.6674  0.6863  0.8179
  156OSM   H11G17478   1.085   6.753   3.665  0.2658 -0.9097 -0.2034
  156OSM   C12F17479   0.901   6.854   3.756 -0.4598  0.0588  0.4846
  156OSM   H12F17480   0.826   6.775   3.777 -1.7796  1.0137 -0.4472
  156OSM   H12G17481   0.838   6.934   3.712 -0.3773  0.0207  0.2933
  156OSM   C13F17482   0.979   6.891   3.877  0.8277 -0.6028  0.3105
  156OSM   H13F17483   1.039   6.977   3.840 -0.5898 -0.4921 -1.9964
  156OSM   H13G17484   1.060   6.818   3.898  0.4871 -1.1605 -0.2801
  156OSM   C14F17485   0.886   6.909   4.001 -0.0360 -0.3251 -0.7993
  156OSM   H14F17486   0.860   6.808   4.040  0.9878  0.1864  1.3238
  156OSM   H14G17487   0.794   6.965   3.973 -0.0885 -0.4123 -0.8011
  156OSM   C15F17488   0.955   6.966   4.122  0.0014 -0.2709 -0.8887
  156OSM   H15F17489   1.041   6.897   4.140  0.6382  0.7185  0.0711
  156OSM   H15G17490   0.888   6.970   4.210 -1.9608  1.2778 -2.3692
  156OSM   C16F17491   1.000   7.112   4.106  0.1503 -0.0525 -0.3939
  156OSM   H16F17492   0.903   7.166   4.096 -0.7244 -1.8657 -2.3102
  156OSM   H16G17493   1.060   7.132   4.015  2.4516  0.3109  1.1035
  156OSM   C17F17494   1.075   7.169   4.234  0.5865  0.0762  0.4134
  156OSM   H17F17495   1.007   7.155   4.321 -1.3482  1.1296 -0.8600
  156OSM   H17G17496   1.088   7.277   4.212  1.1151 -0.1526 -0.4350
  156OSM   C18F17497   1.203   7.093   4.264 -0.4826 -0.1242  0.1376
  156OSM   H18F17498   1.184   6.986   4.288  1.9957 -0.2833  1.7988
  156OSM   H18G17499   1.254   7.141   4.350  0.2561  1.4809 -1.1500
  156OSM   H18H17500   1.273   7.114   4.180  0.0212  2.0589  1.0411
  157OSM      N17501   0.423   1.162   2.117  0.1941  0.0939  0.2620
  157OSM    C1517502   0.352   1.101   2.232 -0.1630  0.2419 -0.5327
  157OSM   H15A17503   0.415   1.095   2.320 -1.4152  1.1302  0.4601
  157OSM   H15B17504   0.332   0.996   2.214 -1.5219  0.1403  1.2374
  157OSM   H15C17505   0.260   1.154   2.252 -0.1513 -0.1621  0.6602
  157OSM    C1417506   0.330   1.202   2.008  0.2454  0.7724 -0.0115
  157OSM   H14A17507   0.282   1.114   1.967  0.5046 -0.7049  2.6910
  157OSM   H14B17508   0.379   1.260   1.931 -1.2541 -0.0716 -1.6744
  157OSM   H14C17509   0.252   1.273   2.036 -1.9611 -0.4767 -2.4990
  157OSM    C1317510   0.479   1.299   2.153 -0.3393 -0.1863 -0.6446
  157OSM   H13A17511   0.404   1.376   2.165  1.3120  1.0716  2.7876
  157OSM   H13B17512   0.534   1.330   2.066  1.8922  1.3469  1.2131
  157OSM   H13C17513   0.548   1.291   2.235  1.7879  0.0526 -2.3376
  157OSM    C1217514   0.524   1.060   2.062 -0.1251  0.4377  0.0721
  157OSM   H12A17515   0.472   0.984   2.006  0.1048  1.2186 -1.2637
  157OSM   H12B17516   0.579   1.010   2.140 -0.9781  0.2421  0.5533
  157OSM    C1117517   0.630   1.128   1.963  0.1021 -0.4889 -0.3682
  157OSM   H11A17518   0.577   1.179   1.880 -0.4139  0.7155  0.6528
  157OSM   H11B17519   0.690   1.047   1.916 -0.8804 -0.5559 -1.5321
  157OSM      P17520   0.824   1.184   2.126 -0.2979  0.1716 -0.3430
  157OSM    O1317521   0.837   1.037   2.104 -0.6086 -0.5239 -0.0998
  157OSM    O1417522   0.947   1.265   2.111 -0.2838  0.0213 -0.1242
  157OSM    O1117523   0.769   1.210   2.276 -0.0872 -0.4640 -0.2090
  157OSM    O1217524   0.718   1.231   2.021  0.3917 -0.1675 -0.6847
  157OSM    C1S17525   0.854   1.202   2.386  0.5401 -0.1492 -0.1079
  157OSM    H1S17526   0.921   1.291   2.386  1.9378 -1.1516  0.8761
  157OSM    H1T17527   0.924   1.116   2.381  2.2203  1.2135 -3.6522
  157OSM     NF17528   0.894   1.194   2.629  0.0897  0.0719  0.1140
  157OSM    HNF17529   0.920   1.105   2.665 -0.2186 -0.7967 -1.6646
  157OSM    C2S17530   0.787   1.198   2.529 -0.3783 -0.6136  0.6967
  157OSM    H2S17531   0.734   1.295   2.544  1.1864  0.1723  1.4525
  157OSM    C3S17532   0.688   1.083   2.543 -0.1912 -0.0424  0.7774
  157OSM    H3S17533   0.741   0.986   2.532 -1.3732 -0.6745  0.5624
  157OSM     O317534   0.579   1.084   2.453  0.5028  0.6207  0.6507
  157OSM    HO317535   0.590   1.164   2.402 -2.7971  0.7012 -0.1086
  157OSM    C4S17536   0.636   1.088   2.683  0.7741  1.0547  0.9587
  157OSM    H4S17537   0.709   1.045   2.753  1.4901 -1.6856 -1.3104
  157OSM    C5S17538   0.530   1.160   2.728 -0.0817  0.2375 -0.3721
  157OSM    H5S17539   0.465   1.210   2.655  0.5698  0.5007 -0.7742
  157OSM    C6S17540   0.490   1.179   2.872 -0.9118  0.3945  0.2530
  157OSM    H6S17541   0.388   1.137   2.885 -1.1492  0.6404 -0.7460
  157OSM    H6T17542   0.487   1.289   2.892  0.7237  0.6072 -0.5310
  157OSM    C7S17543   0.584   1.117   2.975 -0.2001  0.1591  0.4536
  157OSM    H7S17544   0.689   1.146   2.955  1.4803 -3.3182  3.3207
  157OSM    H7T17545   0.592   1.007   2.976  3.1776  0.2407 -1.9230
  157OSM    C8S17546   0.566   1.166   3.124  0.6749 -0.1009  0.3513
  157OSM    H8S17547   0.569   1.277   3.126 -3.1524  0.2735  5.3100
  157OSM    H8T17548   0.649   1.130   3.189  0.9120 -3.1970 -1.4155
  157OSM    C9S17549   0.432   1.117   3.183  0.1861 -0.2099  0.4814
  157OSM    H9S17550   0.424   1.006   3.185  2.0558 -0.5749 -3.6952
  157OSM    H9T17551   0.352   1.155   3.116  1.2887 -0.2300 -0.8827
  157OSM   C10S17552   0.414   1.188   3.318  0.2548 -0.0213  0.0546
  157OSM   H10S17553   0.433   1.297   3.317 -0.5598  0.1311  0.2060
  157OSM   H10T17554   0.484   1.145   3.394  0.1073 -1.3872 -0.5548
  157OSM   C11S17555   0.267   1.162   3.368 -0.3184 -0.4043  0.1934
  157OSM   H11S17556   0.263   1.067   3.425  0.0762 -1.2796 -1.1744
  157OSM   H11T17557   0.194   1.166   3.285 -1.3015  1.0593  1.0836
  157OSM   C12S17558   0.224   1.272   3.468  0.1655  0.4495  0.1287
  157OSM   H12S17559   0.115   1.261   3.485  0.1213 -3.3670 -1.6040
  157OSM   H12T17560   0.243   1.366   3.412  0.1578  0.7729  0.6593
  157OSM   C13S17561   0.297   1.283   3.603 -0.1558  0.1732 -0.1346
  157OSM   H13S17562   0.402   1.316   3.586  0.1762 -0.2225  1.0904
  157OSM   H13T17563   0.295   1.181   3.646 -0.2754  0.8859  1.6440
  157OSM   C14S17564   0.227   1.385   3.692  0.1690 -0.5820  0.0542
  157OSM   H14S17565   0.284   1.388   3.787 -2.5699 -0.0173  1.7822
  157OSM   H14T17566   0.120   1.360   3.705  0.1325 -0.6676 -0.4046
  157OSM   C15S17567   0.242   1.531   3.642  0.1444 -0.2894  0.7799
  157OSM   H15S17568   0.212   1.532   3.535  1.6337  0.4754  0.3502
  157OSM   H15T17569   0.349   1.555   3.658 -0.4412  3.0832  0.3416
  157OSM   C16S17570   0.184   1.640   3.743 -0.6991 -0.1501  0.1721
  157OSM   H16S17571   0.229   1.612   3.841  1.1317  0.7889 -0.3641
  157OSM   H16T17572   0.075   1.634   3.766 -0.2862 -3.4143  1.8215
  157OSM   C17S17573   0.235   1.782   3.704  0.5806  0.2211 -0.4535
  157OSM   H17S17574   0.193   1.809   3.605  0.8617  2.2578 -0.0620
  157OSM   H17T17575   0.346   1.781   3.707  0.6037 -1.2957 -0.8761
  157OSM   C18S17576   0.187   1.887   3.802 -0.5645  0.0589 -0.1256
  157OSM   H18S17577   0.220   1.988   3.768 -0.4304  0.1824  0.3644
  157OSM   H18T17578   0.240   1.863   3.896  1.3299  0.3897 -1.0509
  157OSM   H18U17579   0.077   1.894   3.813 -0.5716  1.9060 -0.9075
  157OSM    C1F17580   0.977   1.298   2.645  0.6672 -0.1009  0.6544
  157OSM     OF17581   0.945   1.415   2.617  0.0186  0.1059  0.2730
  157OSM    C2F17582   1.108   1.270   2.711  0.9077  0.4810 -0.3225
  157OSM    H2F17583   1.183   1.326   2.651 -0.1637 -1.2413 -3.5023
  157OSM    H2G17584   1.127   1.162   2.690 -0.2660  0.5345 -1.8279
  157OSM    C3F17585   1.104   1.295   2.860 -0.1061 -0.1810 -0.5858
  157OSM    H3F17586   1.023   1.240   2.911 -0.2859 -0.1776 -0.8670
  157OSM    H3G17587   1.085   1.403   2.880 -1.0001 -0.8039  2.2827
  157OSM    C4F17588   1.242   1.262   2.930  0.2185 -0.2559 -0.4512
  157OSM    H4F17589   1.325   1.336   2.925  1.5556 -1.3183  2.9935
  157OSM    H4G17590   1.282   1.176   2.871 -0.3418 -1.4856  0.9125
  157OSM    C5F17591   1.225   1.224   3.083 -0.0392  0.1921  0.1895
  157OSM    H5F17592   1.309   1.158   3.114 -0.4669 -0.7629 -0.6191
  157OSM    H5G17593   1.133   1.164   3.091 -1.4558  1.8435 -2.2643
  157OSM    C6F17594   1.214   1.345   3.177  0.5424  0.1761 -0.3456
  157OSM    H6F17595   1.129   1.413   3.154  0.0525 -0.1479  0.4422
  157OSM    H6G17596   1.312   1.396   3.165  0.7459 -0.2288 -0.4222
  157OSM    C7F17597   1.206   1.302   3.332  0.4016  0.4273 -0.2846
  157OSM    H7F17598   1.277   1.219   3.354 -0.5479 -0.0863  0.9414
  157OSM    H7G17599   1.105   1.264   3.355 -0.4850  3.1467  0.6787
  157OSM    C8F17600   1.229   1.409   3.431  0.8186 -0.5048 -0.4599
  157OSM    H8F17601   1.145   1.480   3.417 -0.4372 -1.2109  2.6992
  157OSM    H8G17602   1.322   1.470   3.424  1.6123 -1.6041  0.0811
  157OSM    C9F17603   1.224   1.353   3.570 -0.2476 -0.0586 -0.3698
  157OSM    H9F17604   1.233   1.244   3.587 -0.0827 -0.3457 -2.1172
  157OSM   C10F17605   1.207   1.421   3.680 -0.1309 -0.4111 -0.5151
  157OSM   H10F17606   1.225   1.365   3.773 -1.0253 -1.0397 -0.7141
  157OSM   C11F17607   1.176   1.564   3.704 -0.0588  0.4347 -0.3686
  157OSM   H11F17608   1.070   1.587   3.730  0.1448  0.8147  0.1510
  157OSM   H11G17609   1.197   1.609   3.604  0.9440  1.5709  0.3234
  157OSM   C12F17610   1.262   1.643   3.797 -0.8162 -0.4813 -0.0884
  157OSM   H12F17611   1.246   1.753   3.795  2.5722  0.1680  1.1130
  157OSM   H12G17612   1.369   1.615   3.784 -0.2640  0.5414  1.9303
  157OSM   C13F17613   1.239   1.605   3.947 -0.1037 -0.0339  0.4742
  157OSM   H13F17614   1.210   1.498   3.949  2.5795 -0.8110  1.6986
  157OSM   H13G17615   1.151   1.662   3.986 -0.5552 -0.1405 -0.3697
  157OSM   C14F17616   1.361   1.630   4.039  0.5261  0.6945  0.4012
  157OSM   H14F17617   1.445   1.576   3.989  2.0296  0.9553  2.5087
  157OSM   H14G17618   1.348   1.574   4.134 -1.6391 -1.1302 -0.8799
  157OSM   C15F17619   1.397   1.775   4.056 -0.8847  0.6893 -0.2426
  157OSM   H15F17620   1.339   1.810   4.144 -0.3872  1.1080 -0.0816
  157OSM   H15G17621   1.368   1.821   3.958  1.6494  1.4138 -0.7263
  157OSM   C16F17622   1.540   1.796   4.096 -0.1170 -0.0947  0.4151
  157OSM   H16F17623   1.599   1.755   4.011  1.5310  0.5231  1.2264
  157OSM   H16G17624   1.569   1.726   4.177  1.0183 -0.0632  0.0490
  157OSM   C17F17625   1.574   1.937   4.141  0.6016  0.4978  0.1356
  157OSM   H17F17626   1.494   1.978   4.206 -0.1591 -2.6365  1.3840
  157OSM   H17G17627   1.577   1.994   4.046  0.1312  1.1459  0.5040
  157OSM   C18F17628   1.706   1.945   4.217 -0.4804 -0.2548 -0.0384
  157OSM   H18F17629   1.789   1.894   4.163 -1.2879 -0.2666 -1.3290
  157OSM   H18G17630   1.701   1.913   4.323 -0.1941  0.3240  0.1543
  157OSM   H18H17631   1.727   2.054   4.216  2.0097 -0.6733  1.1563
  158OSM      N17632   4.466   4.346   2.315 -0.1488 -0.0043  0.0636
  158OSM    C1517633   4.332   4.283   2.273 -0.0561  0.0314 -0.2590
  158OSM   H15A17634   4.254   4.351   2.303  1.1833  0.8695  1.1869
  158OSM   H15B17635   4.317   4.194   2.332  2.8224 -1.4975 -1.5939
  158OSM   H15C17636   4.319   4.248   2.172  0.2895 -1.4639  0.1871
  158OSM    C1417637   4.576   4.259   2.271  0.2697 -0.0270  0.4888
  158OSM   H14A17638   4.666   4.296   2.318  0.8673  0.7148 -1.1635
  158OSM   H14B17639   4.590   4.267   2.165  0.6169 -2.1178  0.3233
  158OSM   H14C17640   4.560   4.155   2.299  3.5550 -0.4141  1.3127
  158OSM    C1317641   4.473   4.478   2.243 -0.3128  0.5581  0.3215
  158OSM   H13A17642   4.397   4.547   2.278  0.2100  0.2235  2.2332
  158OSM   H13B17643   4.460   4.459   2.137  0.4656 -0.6213  0.4178
  158OSM   H13C17644   4.573   4.515   2.255  1.2437 -3.6262  2.3022
  158OSM    C1217645   4.470   4.365   2.464  0.6797  0.2019  0.0609
  158OSM   H12A17646   4.440   4.276   2.516  0.7209 -0.2114 -0.6170
  158OSM   H12B17647   4.397   4.440   2.493  0.5501 -0.2864  1.0525
  158OSM    C1117648   4.607   4.410   2.524 -0.7027  0.6965  0.3714
  158OSM   H11A17649   4.675   4.329   2.490 -0.7183  0.8912 -0.1377
  158OSM   H11B17650   4.594   4.418   2.634 -0.2822 -0.9850  0.5660
  158OSM      P17651   4.785   4.569   2.426  0.5400 -0.1507  0.2354
  158OSM    O1317652   4.773   4.507   2.291  0.3463 -0.2860  0.7772
  158OSM    O1417653   4.803   4.717   2.431 -0.1701 -0.6569 -0.4056
  158OSM    O1117654   4.880   4.496   2.525 -0.3633 -0.1822  0.2906
  158OSM    O1217655   4.640   4.538   2.486 -0.0622 -0.0045 -0.4990
  158OSM    C1S17656   4.885   4.550   2.662  0.0484 -0.5276  0.9137
  158OSM    H1S17657   4.789   4.529   2.715  1.1494 -3.1504  2.0525
  158OSM    H1T17658   4.909   4.658   2.663 -1.2547 -0.2159  1.4424
  158OSM     NF17659   5.001   4.527   2.886  0.4222  0.1221 -0.1289
  158OSM    HNF17660   5.089   4.561   2.918  0.4769  0.3826 -0.5400
  158OSM    C2S17661   4.982   4.469   2.750 -0.3981 -0.7262  0.3386
  158OSM    H2S17662   4.943   4.367   2.768  1.2378 -1.2695  1.0215
  158OSM    C3S17663   5.120   4.443   2.679  0.1820 -0.0410  0.2717
  158OSM    H3S17664   5.171   4.542   2.676 -0.9269  0.5267 -0.4890
  158OSM     O317665   5.118   4.392   2.542 -0.5392 -0.2777  0.1601
  158OSM    HO317666   5.027   4.411   2.518 -0.2264  0.3520 -0.5812
  158OSM    C4S17667   5.198   4.345   2.760  0.4000  0.3166  0.5367
  158OSM    H4S17668   5.272   4.389   2.829  1.6349 -3.1845  1.6343
  158OSM    C5S17669   5.179   4.208   2.767 -0.7042 -0.7923 -0.2399
  158OSM    H5S17670   5.101   4.152   2.712 -1.0973  0.4481 -0.9660
  158OSM    C6S17671   5.251   4.110   2.851  0.0800  0.6521 -0.0599
  158OSM    H6S17672   5.274   4.022   2.787  0.7983  0.2587  0.7249
  158OSM    H6T17673   5.176   4.070   2.923 -1.1864  2.3189 -0.3923
  158OSM    C7S17674   5.376   4.165   2.921  0.2102 -0.0244  0.7077
  158OSM    H7S17675   5.358   4.256   2.982 -2.1408  0.3155 -0.3476
  158OSM    H7T17676   5.441   4.200   2.838 -1.6794  0.5805 -0.5950
  158OSM    C8S17677   5.456   4.054   2.994  0.3400 -0.3331 -0.1155
  158OSM    H8S17678   5.490   3.982   2.916  0.6268 -1.1128  0.7055
  158OSM    H8T17679   5.392   3.993   3.061  0.4664  1.1476  1.3936
  158OSM    C9S17680   5.585   4.114   3.061 -0.1853 -0.0753 -0.3772
  158OSM    H9S17681   5.587   4.224   3.042  0.6694  0.2416  1.2989
  158OSM    H9T17682   5.672   4.067   3.010  1.8404  3.2775 -0.3295
  158OSM   C10S17683   5.586   4.100   3.213 -0.6995 -0.0293  0.5387
  158OSM   H10S17684   5.640   4.007   3.243  0.5449  0.7174  0.7051
  158OSM   H10T17685   5.479   4.098   3.242 -0.6652 -3.0045  0.8193
  158OSM   C11S17686   5.650   4.211   3.297  0.5921 -0.7314  0.0553
  158OSM   H11S17687   5.589   4.301   3.275  0.4035 -0.9784 -0.4641
  158OSM   H11T17688   5.756   4.227   3.268  1.3288 -1.2849  2.2528
  158OSM   C12S17689   5.636   4.194   3.450  0.0226 -0.3247 -0.1983
  158OSM   H12S17690   5.677   4.096   3.484 -2.0225 -1.8977 -1.9475
  158OSM   H12T17691   5.525   4.184   3.458 -0.2631  2.0754 -0.4878
  158OSM   C13S17692   5.693   4.313   3.523 -1.1059 -0.2988 -0.0659
  158OSM   H13S17693   5.636   4.405   3.497 -0.9180  0.0996  0.9219
  158OSM   H13T17694   5.803   4.317   3.509 -0.7439 -0.9486  2.1847
  158OSM   C14S17695   5.691   4.291   3.681  0.4189 -0.1390  0.2498
  158OSM   H14S17696   5.728   4.191   3.708  1.5900  0.0989 -0.4171
  158OSM   H14T17697   5.582   4.301   3.703 -0.5358  2.6512 -4.2804
  158OSM   C15S17698   5.766   4.412   3.748  0.4026 -0.1799 -0.7330
  158OSM   H15S17699   5.714   4.502   3.709 -2.4059 -0.6614  1.5671
  158OSM   H15T17700   5.869   4.406   3.707  0.5227 -0.2935 -0.4135
  158OSM   C16S17701   5.745   4.413   3.896  0.1427  0.6372 -0.1664
  158OSM   H16S17702   5.749   4.310   3.938 -0.3573  0.1437 -1.2793
  158OSM   H16T17703   5.639   4.441   3.915 -0.4684 -1.0941 -0.8117
  158OSM   C17S17704   5.838   4.501   3.975 -0.0651 -0.9858  0.0058
  158OSM   H17S17705   5.806   4.607   3.978  0.2263 -0.7909 -2.1973
  158OSM   H17T17706   5.945   4.501   3.942  0.3372  0.5256  1.1930
  158OSM   C18S17707   5.851   4.463   4.121  0.3906 -0.8823  0.4871
  158OSM   H18S17708   5.906   4.538   4.182 -4.0492  2.0068  1.3667
  158OSM   H18T17709   5.900   4.363   4.127  1.1200 -0.6101 -0.5644
  158OSM   H18U17710   5.754   4.445   4.172  0.3240 -0.3569  0.5550
  158OSM    C1F17711   4.899   4.542   2.969 -0.3420 -0.4767 -0.1734
  158OSM     OF17712   4.787   4.497   2.944 -0.6355 -0.3453 -0.3228
  158OSM    C2F17713   4.936   4.616   3.100 -0.4141 -0.4592  0.1225
  158OSM    H2F17714   5.016   4.692   3.090 -0.9539  0.2626  1.1389
  158OSM    H2G17715   4.972   4.543   3.176  0.2872 -0.8770 -0.6005
  158OSM    C3F17716   4.809   4.689   3.165 -0.0132  0.4721 -0.1598
  158OSM    H3F17717   4.726   4.616   3.164  1.8006 -1.7108 -1.5062
  158OSM    H3G17718   4.785   4.782   3.109  1.3002  0.4184 -0.8526
  158OSM    C4F17719   4.835   4.739   3.312  0.4071 -0.5334  0.3176
  158OSM    H4F17720   4.757   4.816   3.332  0.6905 -0.6676  2.0983
  158OSM    H4G17721   4.930   4.794   3.325  1.3577 -1.7047 -1.3528
  158OSM    C5F17722   4.807   4.631   3.418 -0.0805 -0.3009 -0.4755
  158OSM    H5F17723   4.872   4.542   3.406 -0.2754 -0.2653 -1.9198
  158OSM    H5G17724   4.703   4.591   3.412 -0.0174 -0.5663  0.0900
  158OSM    C6F17725   4.821   4.690   3.559  0.4821  0.2603  0.3981
  158OSM    H6F17726   4.721   4.731   3.584  0.1507  0.7356 -1.5603
  158OSM    H6G17727   4.885   4.780   3.557 -1.9416  2.0921  1.2936
  158OSM    C7F17728   4.852   4.582   3.665 -0.5066  0.4976  0.2688
  158OSM    H7F17729   4.947   4.534   3.634 -2.2223 -1.8635 -1.6846
  158OSM    H7G17730   4.766   4.515   3.683  1.6008 -2.8778 -1.1400
  158OSM    C8F17731   4.884   4.649   3.797  0.5704 -0.5060  1.0336
  158OSM    H8F17732   4.806   4.726   3.813 -1.5669 -1.8975 -1.7515
  158OSM    H8G17733   4.970   4.716   3.779 -0.3109  0.7038  1.1970
  158OSM    C9F17734   4.901   4.562   3.913  0.0254 -0.1061 -0.1069
  158OSM    H9F17735   4.904   4.457   3.881 -2.4001  0.1251 -1.3233
  158OSM   C10F17736   4.907   4.596   4.043  0.3960  0.8030 -0.2940
  158OSM   H10F17737   4.899   4.509   4.110 -1.4651 -0.5263 -2.1119
  158OSM   C11F17738   4.907   4.737   4.104  0.1367  0.1038 -0.1451
  158OSM   H11F17739   4.878   4.820   4.035  0.2425  0.2541 -0.0083
  158OSM   H11G17740   5.009   4.763   4.137  0.2045  0.9246 -0.9424
  158OSM   C12F17741   4.825   4.748   4.231  0.7785 -0.1311  0.7406
  158OSM   H12F17742   4.823   4.850   4.275 -2.9918  0.4898 -0.5086
  158OSM   H12G17743   4.859   4.671   4.305  3.3997  1.5184  1.3925
  158OSM   C13F17744   4.674   4.713   4.211  0.3470 -0.1434 -0.2380
  158OSM   H13F17745   4.672   4.605   4.184 -0.7379 -0.7102  1.9275
  158OSM   H13G17746   4.636   4.771   4.125  1.0219  2.1075  0.9122
  158OSM   C14F17747   4.576   4.760   4.316  0.5155 -0.1512 -0.3567
  158OSM   H14F17748   4.580   4.870   4.322  1.3730 -0.0953 -1.5746
  158OSM   H14G17749   4.606   4.725   4.418 -2.2029  0.5577  0.7592
  158OSM   C15F17750   4.436   4.700   4.312 -0.7007  0.0775 -0.4853
  158OSM   H15F17751   4.450   4.591   4.326  0.1565  0.1544 -0.6657
  158OSM   H15G17752   4.390   4.715   4.212 -0.7995  1.9054 -0.2061
  158OSM   C16F17753   4.345   4.771   4.408  0.2027  0.0062  0.1660
  158OSM   H16F17754   4.245   4.723   4.410 -0.6483  1.6306 -0.9804
  158OSM   H16G17755   4.327   4.875   4.374 -2.3455 -0.3573  0.2613
  158OSM   C17F17756   4.378   4.757   4.555 -0.3099  0.1656  0.9342
  158OSM   H17F17757   4.476   4.808   4.570  0.5372 -0.7583 -1.0097
  158OSM   H17G17758   4.395   4.653   4.589  1.1409  0.7112  1.9855
  158OSM   C18F17759   4.280   4.827   4.652 -0.5452 -0.5309  0.3148
  158OSM   H18F17760   4.197   4.760   4.681 -1.3933  0.8471  1.2147
  158OSM   H18G17761   4.229   4.915   4.607  0.4607  0.4200  0.9871
  158OSM   H18H17762   4.339   4.865   4.738  0.1314 -1.2817  0.1928
  159OSM      N17763   5.490   0.428   1.960  0.4612 -0.3488  0.1598
  159OSM    C1517764   5.390   0.525   2.009 -0.1582  0.0150 -0.5528
  159OSM   H15A17765   5.428   0.588   2.089  0.2463 -0.7361 -0.1488
  159OSM   H15B17766   5.306   0.471   2.049 -0.7662  0.5148 -1.1286
  159OSM   H15C17767   5.342   0.583   1.932 -2.1221  2.5987  2.3621
  159OSM    C1417768   5.443   0.359   1.834  0.2074 -0.3880 -0.9957
  159OSM   H14A17769   5.522   0.287   1.813  1.3355  1.4398 -3.7445
  159OSM   H14B17770   5.442   0.425   1.748 -0.7223  0.8064 -0.0905
  159OSM   H14C17771   5.349   0.308   1.842 -0.1071  0.4812  1.3452
  159OSM    C1317772   5.613   0.496   1.914 -0.5404 -0.0711  1.0313
  159OSM   H13A17773   5.601   0.553   1.823  0.9205 -2.6196 -0.9074
  159OSM   H13B17774   5.685   0.421   1.884  1.0059  2.1464 -1.2214
  159OSM   H13C17775   5.665   0.555   1.988 -0.0594  0.4447  0.2973
  159OSM    C1217776   5.517   0.328   2.068 -0.0888  0.1381  0.6307
  159OSM   H12A17777   5.582   0.253   2.026  1.2897  2.0934 -0.8605
  159OSM   H12B17778   5.427   0.269   2.083 -2.7367  2.7738 -3.0589
  159OSM    C1117779   5.565   0.380   2.206 -0.0686  0.3624  0.1356
  159OSM   H11A17780   5.650   0.449   2.187  1.0317 -0.8167  0.6071
  159OSM   H11B17781   5.602   0.288   2.255  1.0316  0.2611 -0.8343
  159OSM      P17782   5.366   0.374   2.376  0.0911 -0.3689 -0.1711
  159OSM    O1317783   5.251   0.465   2.388  0.5837  0.0777 -0.2294
  159OSM    O1417784   5.329   0.241   2.323 -0.1778  0.2105  0.2356
  159OSM    O1117785   5.438   0.366   2.522  0.0660 -0.8845 -0.1966
  159OSM    O1217786   5.463   0.449   2.278  0.0717  0.3659 -0.1692
  159OSM    C1S17787   5.526   0.262   2.558  0.4239  0.3433  0.5378
  159OSM    H1S17788   5.608   0.263   2.484  0.0724  0.2273  0.1425
  159OSM    H1T17789   5.484   0.159   2.551  0.6493  0.3499 -1.8352
  159OSM     NF17790   5.667   0.165   2.712 -0.1698  0.0642  0.2667
  159OSM    HNF17791   5.642   0.092   2.776 -1.5948 -0.0037 -0.3155
  159OSM    C2S17792   5.576   0.280   2.699 -0.3717  0.5046  0.2448
  159OSM    H2S17793   5.642   0.370   2.702 -1.1055  1.0883 -0.7164
  159OSM    C3S17794   5.459   0.288   2.802  0.9180 -0.2627 -0.4371
  159OSM    H3S17795   5.413   0.187   2.798  0.6410 -0.1157 -1.2662
  159OSM     O317796   5.352   0.378   2.760  0.3424  0.2198 -0.1795
  159OSM    HO317797   5.361   0.389   2.665  0.6233  1.4555 -0.0219
  159OSM    C4S17798   5.508   0.305   2.947 -0.1179 -0.3362  0.3172
  159OSM    H4S17799   5.558   0.215   2.986 -2.0293 -1.8072 -0.4309
  159OSM    C5S17800   5.494   0.411   3.026 -0.0236 -0.8655 -0.7662
  159OSM    H5S17801   5.427   0.487   2.982  1.1576 -0.2201 -1.4974
  159OSM    C6S17802   5.562   0.424   3.159 -0.3966  0.4087 -0.2398
  159OSM    H6S17803   5.586   0.531   3.174 -2.6387  1.0687 -1.0460
  159OSM    H6T17804   5.657   0.365   3.163  0.9473  2.5387  2.3374
  159OSM    C7S17805   5.470   0.375   3.278  0.3370 -0.5769  0.4997
  159OSM    H7S17806   5.453   0.266   3.273 -0.5205 -0.3971 -2.2199
  159OSM    H7T17807   5.369   0.418   3.257  0.3218 -1.5974 -1.8318
  159OSM    C8S17808   5.523   0.415   3.414 -0.2933  0.8561  0.2106
  159OSM    H8S17809   5.493   0.517   3.443 -0.4240  0.3146  2.0870
  159OSM    H8T17810   5.633   0.406   3.404 -0.4561  0.1097 -1.2261
  159OSM    C9S17811   5.469   0.325   3.523 -0.6255  0.4619 -0.0657
  159OSM    H9S17812   5.527   0.231   3.507 -0.9720  0.1891  0.2458
  159OSM    H9T17813   5.360   0.306   3.512 -0.1445 -1.8418 -1.6475
  159OSM   C10S17814   5.518   0.378   3.668 -0.1250  0.3771 -0.0720
  159OSM   H10S17815   5.469   0.477   3.679  1.9226  1.4654 -0.2981
  159OSM   H10T17816   5.627   0.397   3.673 -0.4415  2.4130 -0.0775
  159OSM   C11S17817   5.481   0.275   3.771  0.2139  0.2905  0.8137
  159OSM   H11S17818   5.482   0.173   3.727 -1.0168  1.1578 -1.3867
  159OSM   H11T17819   5.382   0.297   3.817 -0.8938 -0.8956 -0.8851
  159OSM   C12S17820   5.586   0.282   3.880 -0.0448  0.2039  0.2792
  159OSM   H12S17821   5.581   0.388   3.912  0.6468  0.3285 -0.0050
  159OSM   H12T17822   5.688   0.263   3.841  0.2600  0.1081  1.0947
  159OSM   C13S17823   5.557   0.198   4.002  0.3331 -0.3125 -0.0681
  159OSM   H13S17824   5.527   0.097   3.966 -2.8360 -0.0266  1.4023
  159OSM   H13T17825   5.461   0.223   4.052  0.7861  0.4085  0.4635
  159OSM   C14S17826   5.675   0.198   4.098  0.4476  0.3561 -0.4502
  159OSM   H14S17827   5.770   0.176   4.045  2.5149  1.2799  2.6045
  159OSM   H14T17828   5.671   0.116   4.173  3.4818 -1.4028 -1.9961
  159OSM   C15S17829   5.699   0.332   4.167  0.2338  0.4700  0.5060
  159OSM   H15S17830   5.608   0.354   4.226 -0.6450 -1.1048 -0.2187
  159OSM   H15T17831   5.711   0.421   4.101 -1.4899  1.3279  1.2960
  159OSM   C16S17832   5.818   0.338   4.273  0.3282  0.8404 -0.2655
  159OSM   H16S17833   5.843   0.445   4.285  1.4849  0.5472  0.0839
  159OSM   H16T17834   5.908   0.291   4.227 -0.7452 -0.5635 -0.9855
  159OSM   C17S17835   5.780   0.265   4.405 -0.2235  0.0009  0.2992
  159OSM   H17S17836   5.776   0.156   4.385  3.8784 -0.2096 -0.3552
  159OSM   H17T17837   5.681   0.294   4.445 -0.8020 -0.2702 -0.8946
  159OSM   C18S17838   5.892   0.295   4.503 -0.2182 -0.2283  0.0028
  159OSM   H18S17839   5.990   0.261   4.463 -1.1234  0.2713 -2.8567
  159OSM   H18T17840   5.867   0.251   4.601 -0.4544  1.6259  0.8188
  159OSM   H18U17841   5.894   0.405   4.519  3.3934 -0.2211  0.3009
  159OSM    C1F17842   5.790   0.150   2.654  0.4335 -0.4015 -0.1965
  159OSM     OF17843   5.829   0.226   2.567  0.4120  0.8029  0.0652
  159OSM    C2F17844   5.865   0.034   2.698 -0.3170 -0.3417  0.4751
  159OSM    H2F17845   5.923   0.006   2.608 -0.1088  1.8617 -0.1531
  159OSM    H2G17846   5.804  -0.052   2.734 -0.6057 -1.0710 -1.6458
  159OSM    C3F17847   5.970   0.069   2.801 -0.3453  0.5786 -0.6686
  159OSM    H3F17848   6.038   0.149   2.765  1.0846 -0.5039 -0.4958
  159OSM    H3G17849   6.034  -0.019   2.825 -1.7317 -0.3162 -0.1309
  159OSM    C4F17850   5.912   0.110   2.942  0.8991  0.0458 -0.3450
  159OSM    H4F17851   5.844   0.036   2.990 -0.2739  1.1094 -0.3247
  159OSM    H4G17852   5.849   0.199   2.921 -2.7669 -2.1654  0.3655
  159OSM    C5F17853   6.023   0.144   3.045 -0.2882 -0.8383 -0.3483
  159OSM    H5F17854   6.112   0.194   3.003 -1.9107  1.0079 -1.7836
  159OSM    H5G17855   6.054   0.043   3.081 -1.7092 -0.7725  1.2028
  159OSM    C6F17856   5.971   0.221   3.159 -0.5501  0.1810  0.3820
  159OSM    H6F17857   5.874   0.187   3.203 -2.1370  3.0940 -0.5908
  159OSM    H6G17858   5.944   0.321   3.119 -1.0609  0.2592  0.9018
  159OSM    C7F17859   6.083   0.248   3.262 -0.5581  0.0392 -1.0540
  159OSM    H7F17860   6.157   0.319   3.219  0.3985  0.0607  0.5523
  159OSM    H7G17861   6.146   0.162   3.294 -0.6369 -0.2749 -1.7078
  159OSM    C8F17862   6.016   0.306   3.387 -0.4129 -0.3056 -0.1233
  159OSM    H8F17863   5.939   0.380   3.357  2.9846  2.2464 -3.5252
  159OSM    H8G17864   6.093   0.366   3.440  0.6037 -0.5279 -1.2835
  159OSM    C9F17865   5.962   0.200   3.470 -0.1673  0.2381  0.2980
  159OSM    H9F17866   5.942   0.111   3.408  1.5575  1.1179 -1.6434
  159OSM   C10F17867   5.964   0.188   3.605 -0.3056  0.0321  0.1636
  159OSM   H10F17868   5.920   0.098   3.651 -1.1066 -0.3202 -1.2233
  159OSM   C11F17869   6.006   0.304   3.688 -0.2920 -0.3515 -0.5223
  159OSM   H11F17870   5.932   0.330   3.767 -1.8552  0.1170 -2.0766
  159OSM   H11G17871   6.016   0.399   3.632 -0.7902  0.7535  1.1583
  159OSM   C12F17872   6.150   0.259   3.743  0.2613 -0.2005  0.2463
  159OSM   H12F17873   6.217   0.250   3.655  2.2487  1.2782  1.5259
  159OSM   H12G17874   6.129   0.166   3.799 -1.3300 -0.1913 -0.2661
  159OSM   C13F17875   6.218   0.356   3.838  0.0663  0.0349  0.3970
  159OSM   H13F17876   6.251   0.450   3.789 -2.4899  0.9276  0.2461
  159OSM   H13G17877   6.309   0.300   3.867  1.0094  0.6950 -1.1922
  159OSM   C14F17878   6.127   0.396   3.962  0.8760 -0.1728  0.4810
  159OSM   H14F17879   6.101   0.298   4.007 -3.0984  0.3583 -0.2417
  159OSM   H14G17880   6.036   0.454   3.934  1.0426  0.3323  0.9780
  159OSM   C15F17881   6.195   0.480   4.061  0.0400 -0.3147 -0.2705
  159OSM   H15F17882   6.219   0.573   4.006  0.4560 -1.0674 -1.3959
  159OSM   H15G17883   6.290   0.425   4.078  0.2205 -0.1751 -0.8085
  159OSM   C16F17884   6.123   0.498   4.199 -0.5012  0.3762 -0.1555
  159OSM   H16F17885   6.125   0.407   4.263 -0.6368  0.5850  0.1490
  159OSM   H16G17886   6.016   0.522   4.181 -0.6613 -0.3241 -0.1701
  159OSM   C17F17887   6.193   0.608   4.282  0.1477  0.2648 -0.1979
  159OSM   H17F17888   6.126   0.619   4.370  0.1223  0.8329 -0.2865
  159OSM   H17G17889   6.205   0.698   4.218  0.8932 -0.6293 -1.3474
  159OSM   C18F17890   6.332   0.573   4.343 -0.0201 -0.3370  0.0942
  159OSM   H18F17891   6.370   0.648   4.417 -4.2932  2.3327 -0.1120
  159OSM   H18G17892   6.409   0.565   4.264 -0.0059  1.0641 -0.0631
  159OSM   H18H17893   6.312   0.475   4.391  0.1924  0.0836  1.0791
  160OSM      N17894   2.221   1.305   2.249  0.0664  0.1224 -0.3674
  160OSM    C1517895   2.155   1.402   2.338  0.3568 -0.1698 -0.0616
  160OSM   H15A17896   2.183   1.504   2.319  3.1620 -1.0615 -1.2882
  160OSM   H15B17897   2.195   1.383   2.437  0.4473  1.4731  0.2396
  160OSM   H15C17898   2.048   1.392   2.346  0.5743 -2.3568  1.0692
  160OSM    C1417899   2.145   1.297   2.119 -0.5237  0.1822 -0.3691
  160OSM   H14A17900   2.042   1.272   2.137 -0.2865 -0.4587  0.1857
  160OSM   H14B17901   2.189   1.223   2.054 -0.8092  0.8470 -1.3349
  160OSM   H14C17902   2.145   1.395   2.074  0.3621  0.2421 -0.2547
  160OSM    C1317903   2.363   1.341   2.216 -0.2570 -0.3682  0.2982
  160OSM   H13A17904   2.361   1.416   2.139 -1.3880 -0.9592 -0.2594
  160OSM   H13B17905   2.426   1.259   2.183  2.2209  2.0083 -1.3087
  160OSM   H13C17906   2.414   1.370   2.307  2.2182 -1.3781 -0.6474
  160OSM    C1217907   2.195   1.171   2.322 -0.0941 -0.0293  0.3589
  160OSM   H12A17908   2.238   1.090   2.264 -1.6503 -2.4644  2.3853
  160OSM   H12B17909   2.089   1.156   2.321 -0.2286  0.8507  0.6015
  160OSM    C1117910   2.247   1.145   2.463  0.3238  0.0640  0.4242
  160OSM   H11A17911   2.209   1.044   2.487  0.9817 -0.8155 -1.9168
  160OSM   H11B17912   2.200   1.212   2.538  1.0245 -1.3019  2.1417
  160OSM      P17913   2.468   1.017   2.439  0.5036  0.2336  0.2570
  160OSM    O1317914   2.403   0.950   2.319 -0.2058  0.7477  0.3663
  160OSM    O1417915   2.606   1.056   2.422  0.1073  0.3328 -0.3304
  160OSM    O1117916   2.437   0.927   2.560  0.1745  0.4577 -0.1453
  160OSM    O1217917   2.383   1.151   2.465 -0.0224  0.2700  0.2490
  160OSM    C1S17918   2.485   0.945   2.697  0.3385 -0.4615  0.2159
  160OSM    H1S17919   2.398   0.975   2.759 -0.3955  0.9708 -1.4052
  160OSM    H1T17920   2.566   1.020   2.710 -0.8030  0.6661  1.2350
  160OSM     NF17921   2.624   0.830   2.866 -0.5295 -0.0017 -0.1896
  160OSM    HNF17922   2.721   0.825   2.847 -0.4728  0.4604 -0.0422
  160OSM    C2S17923   2.532   0.810   2.758 -0.2051 -0.5964  0.3505
  160OSM    H2S17924   2.445   0.754   2.797 -1.1451  0.0533 -0.7588
  160OSM    C3S17925   2.605   0.707   2.660  0.4520  0.6297 -0.7824
  160OSM    H3S17926   2.699   0.758   2.629 -0.1305  1.7131 -0.8210
  160OSM     O317927   2.525   0.674   2.549  0.1221 -0.1289 -0.4343
  160OSM    HO317928   2.452   0.735   2.555  0.9654  0.8413  0.2870
  160OSM    C4S17929   2.627   0.577   2.735 -0.4830 -0.0606 -0.0412
  160OSM    H4S17930   2.535   0.537   2.781  0.2855  1.2820  2.9395
  160OSM    C5S17931   2.746   0.516   2.766  0.3908 -0.0240  0.4230
  160OSM    H5S17932   2.838   0.566   2.731 -1.0890  0.7682 -2.7217
  160OSM    C6S17933   2.752   0.387   2.855 -0.4811 -0.6525 -0.6261
  160OSM    H6S17934   2.803   0.304   2.801  2.2685  0.8622 -0.5431
  160OSM    H6T17935   2.651   0.353   2.887 -0.9090  0.6375 -0.5748
  160OSM    C7S17936   2.826   0.424   2.987 -0.7618  0.0896 -0.0795
  160OSM    H7S17937   2.934   0.436   2.964 -1.2135  1.4104 -1.7600
  160OSM    H7T17938   2.823   0.331   3.047 -1.3101  0.5553  0.6227
  160OSM    C8S17939   2.757   0.524   3.074  0.3980 -0.0193 -0.3195
  160OSM    H8S17940   2.649   0.501   3.082  0.3839 -0.7338 -2.0402
  160OSM    H8T17941   2.773   0.625   3.030  2.3610 -0.2198 -0.1684
  160OSM    C9S17942   2.810   0.525   3.224  0.2024  0.1193  0.0509
  160OSM    H9S17943   2.800   0.423   3.267  0.3991 -1.0300 -2.4357
  160OSM    H9T17944   2.738   0.593   3.273  0.1615 -0.6370  1.0764
  160OSM   C10S17945   2.948   0.587   3.229  0.3546 -1.1027  0.1711
  160OSM   H10S17946   2.950   0.693   3.196  2.6677 -1.3387 -0.6068
  160OSM   H10T17947   3.006   0.525   3.157  0.7718 -0.4774 -0.0367
  160OSM   C11S17948   3.011   0.578   3.368 -0.5981 -0.0313  0.2520
  160OSM   H11S17949   2.966   0.491   3.421  1.6110 -1.4182 -0.0322
  160OSM   H11T17950   3.006   0.668   3.434 -0.9558 -1.7503  2.7176
  160OSM   C12S17951   3.162   0.536   3.360 -0.7592  0.3285 -0.6028
  160OSM   H12S17952   3.220   0.615   3.307  0.3672  0.4699  0.7660
  160OSM   H12T17953   3.178   0.451   3.289 -2.1155  0.4836 -1.1274
  160OSM   C13S17954   3.233   0.517   3.493 -0.4218 -0.2485  0.4725
  160OSM   H13S17955   3.328   0.462   3.478  0.0076  0.0743  1.8748
  160OSM   H13T17956   3.161   0.454   3.550 -0.1272  0.6836  1.9381
  160OSM   C14S17957   3.264   0.641   3.580  0.2441 -0.3847 -0.5696
  160OSM   H14S17958   3.172   0.703   3.583  0.1459 -0.5663  0.3056
  160OSM   H14T17959   3.345   0.706   3.541 -0.6542  1.8818  1.1796
  160OSM   C15S17960   3.294   0.595   3.721  0.1322 -0.3711 -0.1210
  160OSM   H15S17961   3.376   0.520   3.715  1.0309  0.5054  0.8072
  160OSM   H15T17962   3.201   0.553   3.763 -0.6659  1.9447  0.5484
  160OSM   C16S17963   3.336   0.715   3.802 -0.5950  0.5245  0.1705
  160OSM   H16S17964   3.267   0.798   3.776 -2.1406 -1.2886 -2.0507
  160OSM   H16T17965   3.431   0.761   3.768 -0.9271  1.0446 -0.0552
  160OSM   C17S17966   3.334   0.682   3.949  0.0540 -0.1753 -0.2627
  160OSM   H17S17967   3.391   0.587   3.946 -0.2777 -0.4881  2.0990
  160OSM   H17T17968   3.230   0.662   3.985 -0.4437  2.4618 -0.0224
  160OSM   C18S17969   3.400   0.791   4.040  0.2020 -0.4109 -0.7594
  160OSM   H18S17970   3.502   0.815   4.004  0.6318  0.1195  0.7363
  160OSM   H18T17971   3.395   0.751   4.144 -0.7229 -1.1872 -1.0859
  160OSM   H18U17972   3.331   0.877   4.025 -0.2982 -0.8727 -1.1716
  160OSM    C1F17973   2.581   0.873   2.990  0.6842  0.2806 -0.1004
  160OSM     OF17974   2.462   0.877   3.018 -1.0636  0.0008 -0.2390
  160OSM    C2F17975   2.692   0.899   3.094  0.3705  0.0882 -0.0935
  160OSM    H2F17976   2.716   1.007   3.086 -1.4328  0.4076 -2.4078
  160OSM    H2G17977   2.785   0.840   3.080  1.2043  1.0108  1.3719
  160OSM    C3F17978   2.627   0.887   3.234  0.1905  0.2412 -0.1785
  160OSM    H3F17979   2.580   0.788   3.250 -0.7300  0.8416  0.9520
  160OSM    H3G17980   2.549   0.965   3.249 -1.0966 -0.7622 -1.4132
  160OSM    C4F17981   2.735   0.894   3.351  0.7185 -0.5933  0.6537
  160OSM    H4F17982   2.756   1.001   3.369 -2.6057  0.5736 -1.3272
  160OSM    H4G17983   2.822   0.841   3.307  2.2960  1.9986  0.4668
  160OSM    C5F17984   2.697   0.832   3.479 -0.5281  0.0183  0.6270
  160OSM    H5F17985   2.695   0.721   3.477 -2.5270  0.0427 -0.7768
  160OSM    H5G17986   2.593   0.849   3.513 -1.4550 -1.2635 -1.3926
  160OSM    C6F17987   2.781   0.894   3.599  0.0241  0.0008 -0.3498
  160OSM    H6F17988   2.746   0.997   3.622 -1.4595 -0.9027  1.7125
  160OSM    H6G17989   2.879   0.917   3.553 -0.9794  1.7065 -1.8028
  160OSM    C7F17990   2.785   0.800   3.717 -0.2457  0.6177  0.3164
  160OSM    H7F17991   2.826   0.700   3.691 -1.6475  0.1814 -0.3294
  160OSM    H7G17992   2.678   0.783   3.745  0.2198 -2.0287  0.7767
  160OSM    C8F17993   2.862   0.855   3.833 -0.2550 -0.7735 -0.4116
  160OSM    H8F17994   2.830   0.958   3.860 -0.5665 -1.0508  0.3113
  160OSM    H8G17995   2.968   0.853   3.802  0.2660  1.0387  1.0883
  160OSM    C9F17996   2.855   0.769   3.959  0.1120 -0.1003 -0.1485
  160OSM    H9F17997   2.817   0.668   3.938 -2.1176  0.1230  2.2296
  160OSM   C10F17998   2.876   0.806   4.091 -0.2578  0.2039 -0.4265
  160OSM   H10F17999   2.868   0.725   4.165 -2.1309  1.3343  0.6934
  160OSM   C11F18000   2.921   0.942   4.151 -0.2985  0.5091  0.9279
  160OSM   H11F18001   2.909   1.018   4.071 -0.3122 -1.7143 -1.3329
  160OSM   H11G18002   3.027   0.940   4.182  0.1616 -1.4841 -0.5824
  160OSM   C12F18003   2.840   0.986   4.271  0.6512  0.4271  0.0594
  160OSM   H12F18004   2.862   1.094   4.285 -1.4087  0.6717  2.0985
  160OSM   H12G18005   2.875   0.933   4.362  0.0478  1.8842  1.1708
  160OSM   C13F18006   2.683   0.975   4.245 -0.2007 -0.1637  0.0482
  160OSM   H13F18007   2.653   0.870   4.224  1.5317 -0.3658 -1.7888
  160OSM   H13G18008   2.652   1.039   4.159  1.3251  2.0859  1.0836
  160OSM   C14F18009   2.618   1.029   4.371 -0.3427  0.7611  0.1678
  160OSM   H14F18010   2.656   1.127   4.406  1.7945 -0.5180  1.6664
  160OSM   H14G18011   2.644   0.958   4.453 -0.0903  0.1002 -0.4811
  160OSM   C15F18012   2.465   1.026   4.377  0.5938  0.3966 -0.1273
  160OSM   H15F18013   2.415   1.090   4.301 -1.1255  0.1035  0.7154
  160OSM   H15G18014   2.433   1.059   4.478  0.9731 -0.5645  0.3162
  160OSM   C16F18015   2.399   0.889   4.353 -0.8470 -0.5072  0.2713
  160OSM   H16F18016   2.453   0.814   4.414  0.0417  0.4542  0.7035
  160OSM   H16G18017   2.401   0.868   4.244 -2.0931  0.9147 -0.0529
  160OSM   C17F18018   2.251   0.892   4.404  0.7022  0.3103 -0.4709
  160OSM   H17F18019   2.206   0.976   4.346  0.1996  0.7344  0.5059
  160OSM   H17G18020   2.249   0.917   4.512 -2.5538 -0.1684 -0.3232
  160OSM   C18F18021   2.171   0.766   4.372  0.2919  0.0557 -0.3998
  160OSM   H18F18022   2.085   0.757   4.442  0.1929 -1.3743 -0.6815
  160OSM   H18G18023   2.230   0.673   4.390 -0.0079  0.2694  2.0531
  160OSM   H18H18024   2.131   0.769   4.269 -1.4284 -0.5236  0.2155
  161OSM      N18025   1.491   0.950   2.172 -0.1976  0.1013 -0.0031
  161OSM    C1518026   1.542   1.058   2.267 -0.1317 -1.2023  0.2982
  161OSM   H15A18027   1.523   1.157   2.230  1.6037 -0.8582  0.2462
  161OSM   H15B18028   1.647   1.044   2.283  0.6874  1.4215 -1.9279
  161OSM   H15C18029   1.491   1.043   2.361 -2.1439  0.7923 -0.3686
  161OSM    C1418030   1.353   0.978   2.132 -0.3514 -0.2836  0.4319
  161OSM   H14A18031   1.289   0.964   2.218  0.1374  3.6485  1.6410
  161OSM   H14B18032   1.327   0.918   2.046  1.0219  0.6659 -0.6868
  161OSM   H14C18033   1.343   1.080   2.098 -1.0746 -0.3342  0.4773
  161OSM    C1318034   1.576   0.960   2.048  0.2745  0.1616 -0.0423
  161OSM   H13A18035   1.683   0.953   2.060  0.1464 -1.5451  0.3116
  161OSM   H13B18036   1.553   1.054   2.000 -0.8317  0.4825  1.0546
  161OSM   H13C18037   1.546   0.889   1.972 -2.4483 -0.3165  1.3319
  161OSM    C1218038   1.494   0.810   2.232 -0.1523  0.4462 -0.7786
  161OSM   H12A18039   1.592   0.764   2.224  1.0138  2.7232 -0.5753
  161OSM   H12B18040   1.440   0.740   2.172 -2.3197 -0.0223  1.5675
  161OSM    C1118041   1.447   0.792   2.375  0.1585  0.6327  0.1364
  161OSM   H11A18042   1.522   0.843   2.439  1.1316  0.8044 -1.0919
  161OSM   H11B18043   1.466   0.685   2.397  0.4097  0.3885 -1.1722
  161OSM      P18044   1.263   0.949   2.486 -0.0601 -0.3232  0.5194
  161OSM    O1318045   1.383   1.020   2.531 -0.1831  0.6396  0.1155
  161OSM    O1418046   1.170   1.028   2.401  0.3375  0.1763 -0.0974
  161OSM    O1118047   1.186   0.891   2.605 -0.0161  0.2359  0.8846
  161OSM    O1218048   1.308   0.830   2.393 -0.0778  0.5798 -0.2360
  161OSM    C1S18049   1.123   0.762   2.587 -0.6084  0.2165  0.5018
  161OSM    H1S18050   1.186   0.676   2.553  0.0027  0.1973  1.6272
  161OSM    H1T18051   1.045   0.785   2.512  0.0833  1.2063  0.0595
  161OSM     NF18052   1.023   0.552   2.706 -0.3234  0.5542 -0.3738
  161OSM    HNF18053   0.930   0.518   2.702 -0.2289  0.3470 -0.8764
  161OSM    C2S18054   1.056   0.705   2.719 -0.1001 -0.0681 -0.1118
  161OSM    H2S18055   1.139   0.710   2.793 -0.0404  3.5655 -0.2251
  161OSM    C3S18056   0.944   0.793   2.768  0.5610  0.1491  0.8433
  161OSM    H3S18057   0.856   0.787   2.701  1.6260  3.5643 -1.1362
  161OSM     O318058   0.960   0.934   2.744 -0.0465 -0.2039 -0.4324
  161OSM    HO318059   1.041   0.950   2.695  0.3858  0.0532  0.3511
  161OSM    C4S18060   0.903   0.762   2.909 -0.1071  0.0743 -0.0382
  161OSM    H4S18061   0.832   0.679   2.919  0.3215 -0.3648 -0.6046
  161OSM    C5S18062   0.959   0.805   3.024  0.0926 -0.5964 -0.7021
  161OSM    H5S18063   1.048   0.870   3.011  0.8714 -1.3075  0.7879
  161OSM    C6S18064   0.925   0.759   3.163  0.2660 -0.3965  0.0740
  161OSM    H6S18065   0.998   0.690   3.210  0.1997 -0.3734  0.2111
  161OSM    H6T18066   0.825   0.711   3.158 -0.3100  0.7374  0.5266
  161OSM    C7S18067   0.900   0.888   3.246 -0.6169  0.7418  0.3712
  161OSM    H7S18068   0.831   0.948   3.183 -0.0388  1.0409  0.0184
  161OSM    H7T18069   0.992   0.949   3.256 -1.5026  2.2166 -0.2579
  161OSM    C8S18070   0.854   0.869   3.393  0.2359  0.6260 -0.3919
  161OSM    H8S18071   0.933   0.811   3.444  1.9302  2.0994 -1.1986
  161OSM    H8T18072   0.766   0.803   3.406  2.1254 -1.5412  2.7013
  161OSM    C9S18073   0.815   1.001   3.468 -0.7929 -0.0670  0.1738
  161OSM    H9S18074   0.748   1.062   3.403 -1.4474  0.2484  1.1197
  161OSM    H9T18075   0.911   1.056   3.479 -0.2320 -1.1487  0.8293
  161OSM   C10S18076   0.743   0.986   3.599 -0.0229 -0.1462 -0.0305
  161OSM   H10S18077   0.807   0.916   3.657  0.0912  0.8291  1.0588
  161OSM   H10T18078   0.644   0.941   3.578 -0.0263 -0.0214 -0.2878
  161OSM   C11S18079   0.724   1.110   3.690 -0.9841  0.2392 -0.9990
  161OSM   H11S18080   0.635   1.164   3.650 -2.7154 -0.8408  1.1973
  161OSM   H11T18081   0.824   1.159   3.690  0.7925 -3.1017  0.1935
  161OSM   C12S18082   0.687   1.082   3.839 -0.7157  0.5646  0.5155
  161OSM   H12S18083   0.777   1.030   3.879 -1.3242 -0.1316  1.0107
  161OSM   H12T18084   0.596   1.018   3.846  0.6524 -1.5848 -0.2950
  161OSM   C13S18085   0.670   1.202   3.923 -0.0226 -0.4444 -0.5811
  161OSM   H13S18086   0.742   1.286   3.911 -1.8925  1.8099  2.5278
  161OSM   H13T18087   0.703   1.164   4.023  0.1920  0.1853 -0.4058
  161OSM   C14S18088   0.522   1.240   3.931  0.2380  0.2461 -1.1082
  161OSM   H14S18089   0.460   1.155   3.967 -1.2092  1.3509 -0.8915
  161OSM   H14T18090   0.494   1.266   3.827 -1.8246 -1.8528 -1.1681
  161OSM   C15S18091   0.483   1.369   4.010  0.2342  0.7451  0.0400
  161OSM   H15S18092   0.513   1.463   3.960  0.1471  1.8022  1.8998
  161OSM   H15T18093   0.548   1.373   4.101  1.7692 -1.5355 -0.8562
  161OSM   C16S18094   0.336   1.372   4.056 -0.1658  0.3629  0.2575
  161OSM   H16S18095   0.326   1.282   4.122  1.8430  0.5735  0.9406
  161OSM   H16T18096   0.258   1.358   3.979  0.5613 -1.6294 -0.2043
  161OSM   C17S18097   0.307   1.498   4.136 -1.0263 -0.1148 -0.2488
  161OSM   H17S18098   0.318   1.589   4.073 -0.5113  0.0061  0.0135
  161OSM   H17T18099   0.388   1.510   4.210  1.6366  0.3660 -3.0553
  161OSM   C18S18100   0.162   1.491   4.181  0.4256  0.2235 -0.2837
  161OSM   H18S18101   0.103   1.483   4.088 -2.0613  2.8942  0.8977
  161OSM   H18T18102   0.132   1.587   4.230  1.1619 -0.8603  2.5064
  161OSM   H18U18103   0.154   1.400   4.244  2.2856 -1.4624 -2.3245
  161OSM    C1F18104   1.116   0.462   2.702 -0.1624 -0.1918  0.3535
  161OSM     OF18105   1.234   0.490   2.696  0.5030 -0.4605 -0.0213
  161OSM    C2F18106   1.070   0.325   2.699  0.1231 -0.1286 -0.7474
  161OSM    H2F18107   1.075   0.275   2.600  3.0175 -1.1420 -0.1769
  161OSM    H2G18108   0.962   0.332   2.727 -0.1534 -3.0248 -0.8371
  161OSM    C3F18109   1.139   0.235   2.798  0.0462  0.0864 -0.5875
  161OSM    H3F18110   1.240   0.208   2.760  0.6816  1.3047  0.1708
  161OSM    H3G18111   1.095   0.134   2.814 -0.7904  0.7658  1.8651
  161OSM    C4F18112   1.144   0.292   2.944 -0.0956 -0.7183  0.1624
  161OSM    H4F18113   1.050   0.298   3.005  1.1998 -2.2131  2.4769
  161OSM    H4G18114   1.178   0.398   2.942 -2.8786  0.2636 -1.8666
  161OSM    C5F18115   1.236   0.198   3.029 -0.1216  0.7274 -0.4071
  161OSM    H5F18116   1.340   0.204   2.990  0.5911  0.6760  1.3814
  161OSM    H5G18117   1.203   0.093   3.018  0.3736  0.2736  1.9879
  161OSM    C6F18118   1.242   0.242   3.178 -0.2245 -0.6035 -0.0901
  161OSM    H6F18119   1.140   0.260   3.217 -0.8794  0.3357 -2.1454
  161OSM    H6G18120   1.287   0.343   3.173  1.6825 -1.4279 -0.8147
  161OSM    C7F18121   1.342   0.161   3.269  0.0704 -0.1048  0.0503
  161OSM    H7F18122   1.432   0.159   3.203 -0.2958 -0.8309 -0.4448
  161OSM    H7G18123   1.298   0.060   3.280  0.5941 -0.3686 -0.2378
  161OSM    C8F18124   1.373   0.239   3.402  1.1629 -0.2369 -0.2529
  161OSM    H8F18125   1.397   0.344   3.375  0.4599  0.6462  2.3264
  161OSM    H8G18126   1.467   0.200   3.448 -0.4729 -1.7481  2.0698
  161OSM    C9F18127   1.240   0.245   3.483 -0.4300  0.1486 -0.8752
  161OSM    H9F18128   1.143   0.247   3.430 -0.8520 -2.5441 -0.3509
  161OSM   C10F18129   1.229   0.240   3.620 -0.1756  0.2227  0.5060
  161OSM   H10F18130   1.129   0.247   3.663 -1.3634 -3.2259 -1.2658
  161OSM   C11F18131   1.344   0.227   3.714 -0.0264 -0.5311 -0.8170
  161OSM   H11F18132   1.436   0.179   3.674 -0.6761 -2.3557 -0.1949
  161OSM   H11G18133   1.316   0.163   3.800  1.1054 -2.1286 -1.5883
  161OSM   C12F18134   1.385   0.368   3.768  0.3447 -0.3120  0.4219
  161OSM   H12F18135   1.297   0.436   3.774  0.1202 -0.6616  1.2453
  161OSM   H12G18136   1.457   0.414   3.698 -0.0732  0.8347  0.7177
  161OSM   C13F18137   1.436   0.368   3.915  0.0284 -0.3054  0.2637
  161OSM   H13F18138   1.529   0.307   3.929 -0.0542 -0.3389  0.7075
  161OSM   H13G18139   1.369   0.308   3.981  0.4809 -1.9884 -0.7318
  161OSM   C14F18140   1.456   0.511   3.968  0.0372  0.2585 -0.3279
  161OSM   H14F18141   1.364   0.571   3.950 -0.5913 -0.1523  1.3302
  161OSM   H14G18142   1.531   0.562   3.903  1.2066 -1.6910 -0.5802
  161OSM   C15F18143   1.499   0.531   4.115 -0.2766 -0.1376 -0.2463
  161OSM   H15F18144   1.495   0.642   4.124  1.0430  0.1430 -2.3532
  161OSM   H15G18145   1.601   0.493   4.136 -0.1347  0.3618 -0.0224
  161OSM   C16F18146   1.407   0.470   4.226 -0.6415 -0.0220 -0.4030
  161OSM   H16F18147   1.438   0.365   4.246 -0.7112  0.2662  1.3961
  161OSM   H16G18148   1.302   0.477   4.191 -0.8464 -1.2535 -0.0859
  161OSM   C17F18149   1.412   0.546   4.361 -0.4102  0.2790 -0.0821
  161OSM   H17F18150   1.406   0.656   4.347  0.4766  0.1617 -1.5744
  161OSM   H17G18151   1.507   0.524   4.413  0.8152  2.0863 -1.4639
  161OSM   C18F18152   1.304   0.497   4.469 -0.3449 -0.3150  0.1162
  161OSM   H18F18153   1.305   0.390   4.498 -2.3687 -0.3789  0.0837
  161OSM   H18G18154   1.207   0.515   4.419 -0.8966 -0.9229  0.9478
  161OSM   H18H18155   1.304   0.561   4.560 -1.3136 -0.2206  0.0576
  162OSM      N18156   3.731   6.597   2.158  0.8550 -0.6521  0.5062
  162OSM    C1518157   3.670   6.721   2.226  0.2740 -0.1843  0.2288
  162OSM   H15A18158   3.664   6.692   2.330  1.0747 -1.2979 -0.0208
  162OSM   H15B18159   3.566   6.732   2.197  0.5448  2.3809  0.0692
  162OSM   H15C18160   3.714   6.818   2.209 -4.2536  2.0232 -0.5364
  162OSM    C1418161   3.777   6.658   2.025 -0.1750  0.1173  0.3396
  162OSM   H14A18162   3.825   6.587   1.959 -0.7273 -2.2033  2.2730
  162OSM   H14B18163   3.855   6.731   2.041  0.5817 -0.7493  0.7435
  162OSM   H14C18164   3.697   6.707   1.971 -0.2331  1.4386  1.5708
  162OSM    C1318165   3.843   6.552   2.239  0.2229 -0.9075  0.4135
  162OSM   H13A18166   3.905   6.633   2.273 -0.8987  0.1953 -0.1034
  162OSM   H13B18167   3.903   6.482   2.183  1.9880 -0.5987  1.8120
  162OSM   H13C18168   3.805   6.509   2.331 -0.8913  1.1603  0.9699
  162OSM    C1218169   3.627   6.496   2.122  0.0968 -0.4871 -0.0959
  162OSM   H12A18170   3.679   6.406   2.090 -1.6567 -2.5013  2.2728
  162OSM   H12B18171   3.573   6.528   2.034 -0.9938 -2.6714 -0.3148
  162OSM    C1118172   3.530   6.438   2.233 -0.4206  0.5655  1.2483
  162OSM   H11A18173   3.485   6.351   2.181  1.9669 -0.9852  1.6506
  162OSM   H11B18174   3.459   6.524   2.237 -0.8436  0.4113 -1.2301
  162OSM      P18175   3.654   6.267   2.376 -0.7533 -0.3589 -0.0707
  162OSM    O1318176   3.600   6.164   2.284 -0.1832  0.4348 -0.4811
  162OSM    O1418177   3.801   6.283   2.395 -0.1411  0.3298 -0.5370
  162OSM    O1118178   3.587   6.232   2.512  0.1309 -0.0279  0.3250
  162OSM    O1218179   3.590   6.412   2.353 -0.1939 -0.0503  0.2846
  162OSM    C1S18180   3.628   6.298   2.631  0.1242 -0.0947 -0.0285
  162OSM    H1S18181   3.553   6.376   2.654 -0.5520 -0.9353  0.7434
  162OSM    H1T18182   3.724   6.353   2.625  1.4419 -2.1504  0.8148
  162OSM     NF18183   3.666   6.291   2.860  0.2126 -0.3689 -1.1839
  162OSM    HNF18184   3.763   6.312   2.872 -0.1628  1.0213 -0.3945
  162OSM    C2S18185   3.644   6.208   2.748  0.1318 -0.2506 -0.0096
  162OSM    H2S18186   3.548   6.153   2.758 -0.5541  1.1050  1.2571
  162OSM    C3S18187   3.745   6.097   2.728  0.0155  0.2310  0.3399
  162OSM    H3S18188   3.845   6.136   2.701  0.7640 -1.4473  0.5556
  162OSM     O318189   3.709   6.010   2.616 -0.3484 -0.2276 -0.1676
  162OSM    HO318190   3.630   6.048   2.579 -2.3054 -1.4776  2.4203
  162OSM    C4S18191   3.760   6.010   2.852 -0.3935  0.9576  0.7224
  162OSM    H4S18192   3.671   5.959   2.894  0.6896 -0.6359  1.1607
  162OSM    C5S18193   3.874   6.005   2.927  0.2297  1.0490  0.2072
  162OSM    H5S18194   3.963   6.058   2.891  1.0297 -1.6408 -2.1574
  162OSM    C6S18195   3.890   5.921   3.049 -0.1718 -1.1979 -0.6065
  162OSM    H6S18196   3.998   5.919   3.075 -0.1140  0.6593 -0.6077
  162OSM    H6T18197   3.865   5.812   3.050  3.0043 -2.1255  3.1323
  162OSM    C7S18198   3.812   5.977   3.170 -0.0660  0.0367  1.2817
  162OSM    H7S18199   3.837   5.913   3.257  0.3175 -1.0983  0.3613
  162OSM    H7T18200   3.702   5.970   3.152  0.2741  2.0929 -2.7486
  162OSM    C8S18201   3.857   6.122   3.208  0.7061  0.9136 -0.0845
  162OSM    H8S18202   3.847   6.197   3.127  0.0292  1.2119  0.2601
  162OSM    H8T18203   3.966   6.130   3.227  0.6060  3.7466 -0.3546
  162OSM    C9S18204   3.785   6.174   3.330 -0.0208  0.0585 -0.4819
  162OSM    H9S18205   3.679   6.139   3.335 -0.4388  1.3033 -0.2918
  162OSM    H9T18206   3.784   6.285   3.329 -2.3152  0.0837 -1.5775
  162OSM   C10S18207   3.858   6.122   3.452 -0.4112  0.1549 -0.3516
  162OSM   H10S18208   3.958   6.169   3.438 -0.1117 -0.6222 -0.8499
  162OSM   H10T18209   3.874   6.014   3.468  1.7920  0.4025 -0.5119
  162OSM   C11S18210   3.804   6.173   3.581  0.0548  0.2323 -0.2787
  162OSM   H11S18211   3.697   6.149   3.598  0.3566 -1.0066 -0.0134
  162OSM   H11T18212   3.829   6.281   3.587  1.2687 -0.1201  3.2296
  162OSM   C12S18213   3.873   6.115   3.703 -0.5647 -0.5302  0.3704
  162OSM   H12S18214   3.983   6.115   3.685 -0.2485  0.9813  2.0586
  162OSM   H12T18215   3.839   6.010   3.710 -1.8101 -0.2299 -0.7853
  162OSM   C13S18216   3.837   6.191   3.826  0.0046 -0.4837  0.0353
  162OSM   H13S18217   3.726   6.189   3.829 -0.1513  0.4028 -2.6728
  162OSM   H13T18218   3.876   6.295   3.820 -0.0967 -0.3379  1.5641
  162OSM   C14S18219   3.890   6.135   3.970 -0.2653  0.7746  0.4678
  162OSM   H14S18220   4.001   6.146   3.968 -0.2627  0.6872  0.0810
  162OSM   H14T18221   3.872   6.025   3.970 -1.5139  0.9539  1.9422
  162OSM   C15S18222   3.823   6.196   4.093 -0.0496  0.4114 -0.0462
  162OSM   H15S18223   3.722   6.149   4.091  0.8623 -1.6690  0.6819
  162OSM   H15T18224   3.814   6.307   4.085  2.0925  0.8362  2.4435
  162OSM   C16S18225   3.891   6.146   4.220  0.4503 -1.5882 -0.0958
  162OSM   H16S18226   4.001   6.154   4.211  0.2522 -0.5787 -2.1510
  162OSM   H16T18227   3.881   6.035   4.222  2.4735 -1.8084 -0.2613
  162OSM   C17S18228   3.853   6.213   4.357  0.3463 -0.0701 -0.0571
  162OSM   H17S18229   3.879   6.147   4.443 -0.6746 -0.2456  0.1257
  162OSM   H17T18230   3.742   6.217   4.366  0.4483 -0.5728  1.8740
  162OSM   C18S18231   3.914   6.351   4.390  0.1441 -0.4640  0.1039
  162OSM   H18S18232   3.877   6.420   4.312 -0.0049 -0.9931 -0.3047
  162OSM   H18T18233   4.024   6.359   4.394  0.0512  0.4168  1.9148
  162OSM   H18U18234   3.872   6.388   4.486  0.8721  0.8324 -0.0573
  162OSM    C1F18235   3.574   6.345   2.931 -0.3847  0.0373 -0.3437
  162OSM     OF18236   3.457   6.328   2.897  0.4422 -0.7757  0.6100
  162OSM    C2F18237   3.622   6.416   3.061  0.3505  0.0497 -0.5268
  162OSM    H2F18238   3.642   6.525   3.051  2.0601 -0.2855 -0.9795
  162OSM    H2G18239   3.723   6.381   3.090  0.3569  0.0675 -0.5269
  162OSM    C3F18240   3.513   6.391   3.167  0.4836 -0.0044  0.7973
  162OSM    H3F18241   3.518   6.283   3.193  2.5577 -0.0039  0.5987
  162OSM    H3G18242   3.412   6.413   3.126  1.0558 -0.8284 -1.1648
  162OSM    C4F18243   3.528   6.464   3.302 -0.2335  0.1329  0.0290
  162OSM    H4F18244   3.520   6.574   3.293  1.1256  0.1326 -1.6702
  162OSM    H4G18245   3.634   6.443   3.328 -0.9044 -4.2743 -0.0251
  162OSM    C5F18246   3.432   6.417   3.405  0.5920 -0.1948  0.5030
  162OSM    H5F18247   3.463   6.311   3.422 -0.6917 -0.2078  3.5331
  162OSM    H5G18248   3.326   6.420   3.372  1.3436  1.8686 -2.0458
  162OSM    C6F18249   3.436   6.482   3.551  0.7208 -0.3303 -0.2537
  162OSM    H6F18250   3.352   6.436   3.608  1.4527  0.2792  1.4090
  162OSM    H6G18251   3.425   6.593   3.543  0.3601 -0.3724 -0.3395
  162OSM    C7F18252   3.558   6.456   3.635 -0.0194  0.2006 -0.6694
  162OSM    H7F18253   3.651   6.471   3.576  0.4844  0.5094  0.1848
  162OSM    H7G18254   3.568   6.352   3.673  0.0059  0.2106 -0.6488
  162OSM    C8F18255   3.565   6.533   3.773 -0.1535  0.1462  0.3683
  162OSM    H8F18256   3.558   6.640   3.746 -1.7714 -0.2492 -0.8867
  162OSM    H8G18257   3.665   6.520   3.820 -0.5424 -1.2404  0.8772
  162OSM    C9F18258   3.456   6.499   3.874  0.2412 -0.1781 -0.2869
  162OSM    H9F18259   3.367   6.455   3.827  1.8370 -1.5824 -2.2160
  162OSM   C10F18260   3.455   6.479   4.010 -1.0430 -0.5774  0.2972
  162OSM   H10F18261   3.357   6.472   4.060 -0.1972  0.5790  2.2249
  162OSM   C11F18262   3.563   6.522   4.105  0.9944 -0.3076 -0.2515
  162OSM   H11F18263   3.647   6.568   4.049  0.7114  0.6630  0.1002
  162OSM   H11G18264   3.611   6.437   4.158 -2.3268 -3.1391 -1.3391
  162OSM   C12F18265   3.516   6.630   4.205 -0.2296  0.1398 -0.1023
  162OSM   H12F18266   3.469   6.716   4.153  2.8838  0.9316 -1.8133
  162OSM   H12G18267   3.606   6.685   4.237 -1.2673  3.0233 -1.7728
  162OSM   C13F18268   3.444   6.585   4.326 -0.4388  0.0342  0.0398
  162OSM   H13F18269   3.341   6.554   4.297 -1.3504  0.3066  2.6858
  162OSM   H13G18270   3.435   6.666   4.402  2.0006 -0.3366  0.7836
  162OSM   C14F18271   3.510   6.466   4.393 -0.3396  0.2385  0.1272
  162OSM   H14F18272   3.619   6.477   4.406 -0.6537  3.5194  1.0928
  162OSM   H14G18273   3.489   6.385   4.320  0.7429  2.2406 -2.5351
  162OSM   C15F18274   3.447   6.433   4.525 -0.6457  0.7161 -0.1795
  162OSM   H15F18275   3.337   6.443   4.513 -0.9416 -0.8500  0.8892
  162OSM   H15G18276   3.473   6.520   4.589 -1.3105  0.8718 -0.1115
  162OSM   C16F18277   3.489   6.294   4.577 -0.0924  0.1601  0.0543
  162OSM   H16F18278   3.598   6.294   4.600 -0.4092 -1.2942  1.6442
  162OSM   H16G18279   3.460   6.221   4.498  1.3733 -1.1039  0.6497
  162OSM   C17F18280   3.418   6.250   4.706  0.0411  0.0341 -0.1580
  162OSM   H17F18281   3.434   6.333   4.778  1.7614  1.5466 -2.1567
  162OSM   H17G18282   3.474   6.160   4.740 -1.2601 -0.7720 -0.0884
  162OSM   C18F18283   3.270   6.239   4.707 -0.7861 -0.1162 -0.0415
  162OSM   H18F18284   3.237   6.226   4.812  2.2552  1.0589  1.1821
  162OSM   H18G18285   3.228   6.150   4.654 -1.2145 -0.1091  0.2848
  162OSM   H18H18286   3.214   6.326   4.667 -1.5906 -0.4540  0.3362
  163OSM      N18287   1.214   1.999   1.831  0.4433  0.3049 -0.3815
  163OSM    C1518288   1.183   2.132   1.782  0.0555 -0.6039  0.1761
  163OSM   H15A18289   1.270   2.192   1.761 -0.3939  0.6138  1.6416
  163OSM   H15B18290   1.124   2.192   1.849  1.6723 -0.7410  1.7698
  163OSM   H15C18291   1.126   2.125   1.690  0.2912  3.0102 -0.3599
  163OSM    C1418292   1.079   1.922   1.859 -0.4996  0.0440  0.3707
  163OSM   H14A18293   1.013   1.980   1.922  0.4890  0.5536  0.9687
  163OSM   H14B18294   1.106   1.834   1.915  1.9638  1.2132  1.2017
  163OSM   H14C18295   1.037   1.883   1.768 -0.1461  1.8615 -0.6171
  163OSM    C1318296   1.278   1.924   1.723 -0.5015  0.4639  0.5285
  163OSM   H13A18297   1.307   1.825   1.754  0.7910  0.7846  0.4040
  163OSM   H13B18298   1.363   1.976   1.680 -0.8552  0.2955 -0.3957
  163OSM   H13C18299   1.213   1.914   1.637 -0.5408  2.5078  0.2722
  163OSM    C1218300   1.293   1.989   1.965 -0.0571 -0.2272 -0.9155
  163OSM   H12A18301   1.245   2.060   2.030  2.2133  0.5680 -0.0183
  163OSM   H12B18302   1.396   2.021   1.957  0.3632 -0.8416  1.3034
  163OSM    C1118303   1.307   1.856   2.032 -0.0129  0.0464  0.0481
  163OSM   H11A18304   1.209   1.807   2.051  0.1777 -0.8198 -1.0894
  163OSM   H11B18305   1.358   1.873   2.130 -2.5129  2.4902  1.0665
  163OSM      P18306   1.534   1.757   1.963  0.2255 -0.8337  0.3559
  163OSM    O1318307   1.589   1.641   1.882 -0.5069  0.4725 -0.8438
  163OSM    O1418308   1.581   1.894   1.941 -0.0465 -0.5199  0.3513
  163OSM    O1118309   1.557   1.732   2.123  0.3966  0.2910  0.0930
  163OSM    O1218310   1.373   1.758   1.956 -0.1625  0.3997  0.3884
  163OSM    C1S18311   1.687   1.701   2.168  0.4877 -0.2490  0.4905
  163OSM    H1S18312   1.756   1.766   2.109 -1.2264 -0.0039 -1.3554
  163OSM    H1T18313   1.708   1.593   2.155  0.7544 -0.3519  1.7216
  163OSM     NF18314   1.837   1.716   2.367  0.4405 -0.5092  0.5221
  163OSM    HNF18315   1.867   1.625   2.394  0.6317  0.1103  2.5413
  163OSM    C2S18316   1.698   1.728   2.322 -0.0355  0.0246  0.5529
  163OSM    H2S18317   1.671   1.835   2.340 -0.0465  0.4055 -1.5403
  163OSM    C3S18318   1.597   1.630   2.404 -0.3218 -1.3146  0.8246
  163OSM    H3S18319   1.645   1.530   2.402  0.5487 -0.9029  0.5515
  163OSM     O318320   1.463   1.606   2.354  0.1487 -0.2764 -0.6915
  163OSM    HO318321   1.453   1.665   2.279 -0.3172  0.7757  0.1665
  163OSM    C4S18322   1.599   1.692   2.537  0.5162 -0.0375 -0.0163
  163OSM    H4S18323   1.661   1.626   2.599  1.0643 -0.7021 -1.2439
  163OSM    C5S18324   1.519   1.784   2.594 -0.1808  0.0998 -0.2474
  163OSM    H5S18325   1.437   1.833   2.538 -1.5985 -1.2199  0.5979
  163OSM    C6S18326   1.518   1.803   2.740  0.2096  0.2552  0.3574
  163OSM    H6S18327   1.591   1.883   2.766  0.1642  0.0243  1.2028
  163OSM    H6T18328   1.557   1.713   2.793  0.9573  0.2431 -0.1992
  163OSM    C7S18329   1.381   1.838   2.805  0.5467  0.3013 -0.3873
  163OSM    H7S18330   1.323   1.907   2.741  0.3817 -0.8041 -1.4832
  163OSM    H7T18331   1.399   1.883   2.905 -0.2491  1.0456 -0.5667
  163OSM    C8S18332   1.301   1.716   2.811  1.2111  0.2907 -0.9670
  163OSM    H8S18333   1.340   1.638   2.880  0.6160  0.4483 -0.4448
  163OSM    H8T18334   1.277   1.670   2.713 -0.0079  0.4672 -0.7573
  163OSM    C9S18335   1.157   1.749   2.869  0.0082 -1.5016 -0.5894
  163OSM    H9S18336   1.100   1.654   2.874  0.5295 -1.7668  3.0230
  163OSM    H9T18337   1.108   1.819   2.799  0.9656 -1.7341 -1.5348
  163OSM   C10S18338   1.142   1.821   3.012  0.1357  0.4021  0.4688
  163OSM   H10S18339   1.033   1.828   3.034 -0.2083 -0.1498 -0.9990
  163OSM   H10T18340   1.200   1.915   3.022 -0.4157  0.6834  1.0839
  163OSM   C11S18341   1.205   1.728   3.119 -0.9229  0.3695  0.2094
  163OSM   H11S18342   1.316   1.731   3.118 -0.8381 -0.4865  1.9520
  163OSM   H11T18343   1.180   1.624   3.089  0.5243  0.0696 -0.0456
  163OSM   C12S18344   1.144   1.751   3.255  0.1568 -0.0553 -1.1279
  163OSM   H12S18345   1.198   1.693   3.333  0.9002  0.8153 -0.9873
  163OSM   H12T18346   1.033   1.737   3.257  0.1283  0.1923 -0.1875
  163OSM   C13S18347   1.151   1.901   3.304 -1.1531 -0.4096  0.0198
  163OSM   H13S18348   1.131   1.977   3.225 -1.8569 -0.1685  0.4189
  163OSM   H13T18349   1.252   1.910   3.350 -1.3571 -0.1564  0.4182
  163OSM   C14S18350   1.040   1.923   3.414 -0.2585  0.2237  0.2765
  163OSM   H14S18351   1.047   1.845   3.493 -0.9975 -3.2312 -2.7953
  163OSM   H14T18352   0.942   1.898   3.368  0.6463  3.7955 -4.3654
  163OSM   C15S18353   1.048   2.060   3.475  0.2152 -0.5204 -0.5976
  163OSM   H15S18354   0.942   2.091   3.489  0.7137  1.7901 -1.4655
  163OSM   H15T18355   1.099   2.141   3.418  1.1443 -0.8509 -0.2424
  163OSM   C16S18356   1.118   2.062   3.615  0.0229 -0.7122  0.3235
  163OSM   H16S18357   1.040   2.017   3.680 -0.7081 -1.3618 -0.9686
  163OSM   H16T18358   1.118   2.168   3.650  0.7737 -0.2308 -1.0203
  163OSM   C17S18359   1.262   2.009   3.631 -0.1873 -0.4739  0.4007
  163OSM   H17S18360   1.340   2.053   3.566  2.0008 -0.1131  3.0702
  163OSM   H17T18361   1.255   1.901   3.605 -0.5753 -0.5795  0.9159
  163OSM   C18S18362   1.310   2.032   3.776  0.0477  0.7746 -0.0007
  163OSM   H18S18363   1.303   2.139   3.805  1.0425  1.1071 -0.9350
  163OSM   H18T18364   1.415   1.996   3.782 -0.4726 -0.7272  0.6420
  163OSM   H18U18365   1.249   1.972   3.847  1.4782  0.3600  0.9312
  163OSM    C1F18366   1.927   1.808   2.328 -0.0875 -0.6823 -1.1199
  163OSM     OF18367   1.905   1.911   2.266 -0.1876  0.5269 -0.5026
  163OSM    C2F18368   2.063   1.792   2.383  0.5959  0.5477  0.5983
  163OSM    H2F18369   2.129   1.770   2.296  0.2929  1.7784  0.0406
  163OSM    H2G18370   2.063   1.698   2.442  1.6089  0.8237  1.0590
  163OSM    C3F18371   2.111   1.920   2.460 -0.6664  0.3816 -0.0204
  163OSM    H3F18372   2.104   2.010   2.396  1.7448  0.9357  0.3986
  163OSM    H3G18373   2.218   1.905   2.488 -0.6101 -0.9584 -0.8426
  163OSM    C4F18374   2.031   1.945   2.592  0.4669  0.1222  0.2532
  163OSM    H4F18375   1.923   1.949   2.564  0.9670  1.8314 -1.7728
  163OSM    H4G18376   2.039   2.047   2.636  0.0723 -0.6500  2.1794
  163OSM    C5F18377   2.062   1.848   2.708  0.5436  0.1296  0.1008
  163OSM    H5F18378   2.139   1.896   2.772  1.6115  2.1144 -2.5333
  163OSM    H5G18379   2.115   1.764   2.659  0.4246  0.8258 -1.2654
  163OSM    C6F18380   1.941   1.805   2.794  0.2798 -0.3153  0.4704
  163OSM    H6F18381   1.879   1.737   2.732 -1.9025 -0.8418  3.0527
  163OSM    H6G18382   1.885   1.894   2.829  0.8470  1.0602 -1.8919
  163OSM    C7F18383   1.981   1.730   2.928 -0.3924  0.0652  0.1272
  163OSM    H7F18384   2.088   1.761   2.938  0.6331 -1.6582 -3.7334
  163OSM    H7G18385   1.992   1.623   2.901  2.7966  0.4785 -0.5761
  163OSM    C8F18386   1.895   1.767   3.055  0.0676 -0.1340 -0.4341
  163OSM    H8F18387   1.896   1.876   3.077 -2.0667 -0.4526  1.6880
  163OSM    H8G18388   1.949   1.730   3.145 -1.2148 -1.4537 -0.1774
  163OSM    C9F18389   1.749   1.724   3.047  0.3530  1.0182 -0.6223
  163OSM    H9F18390   1.727   1.630   2.994  1.8543  0.2823 -0.0171
  163OSM   C10F18391   1.645   1.784   3.105  0.3635 -0.7235 -0.1216
  163OSM   H10F18392   1.541   1.754   3.081  0.3754 -1.0830  0.2464
  163OSM   C11F18393   1.649   1.907   3.182  0.1728 -1.2850  0.0669
  163OSM   H11F18394   1.599   1.990   3.128  2.0414 -1.2936 -1.7780
  163OSM   H11G18395   1.751   1.944   3.205 -0.5303 -0.3600  1.9723
  163OSM   C12F18396   1.590   1.873   3.322 -0.6023  0.1468  0.3770
  163OSM   H12F18397   1.485   1.837   3.314 -0.3717 -0.4134 -0.2427
  163OSM   H12G18398   1.567   1.972   3.367 -0.4016 -0.3246  1.5344
  163OSM   C13F18399   1.667   1.784   3.413  0.4862  0.4167 -0.4607
  163OSM   H13F18400   1.767   1.794   3.366  0.4501  0.8144 -0.4613
  163OSM   H13G18401   1.657   1.674   3.408  2.0978  0.1017  1.8544
  163OSM   C14F18402   1.679   1.830   3.555  0.0519 -0.5850  0.0263
  163OSM   H14F18403   1.582   1.804   3.602 -1.9254 -1.6965 -4.2564
  163OSM   H14G18404   1.684   1.941   3.551 -0.0162 -0.6096 -0.7718
  163OSM   C15F18405   1.799   1.777   3.628  0.1235 -0.0302  0.0821
  163OSM   H15F18406   1.888   1.792   3.563  0.3460 -0.6113  0.2550
  163OSM   H15G18407   1.780   1.669   3.641  0.0515  0.0727  0.9235
  163OSM   C16F18408   1.820   1.852   3.767  0.3017  0.1160 -0.3188
  163OSM   H16F18409   1.741   1.806   3.830  0.0764 -0.1657 -0.7935
  163OSM   H16G18410   1.811   1.962   3.755 -1.0366  0.1682  0.9093
  163OSM   C17F18411   1.958   1.818   3.823 -0.7444  0.2203 -0.6508
  163OSM   H17F18412   2.033   1.815   3.741 -1.2143 -3.6645 -1.1069
  163OSM   H17G18413   1.944   1.713   3.856 -0.6129 -0.4237 -2.5097
  163OSM   C18F18414   1.987   1.929   3.920  0.4264  0.0213  0.1943
  163OSM   H18F18415   1.910   1.939   4.000 -1.8880 -1.3368 -1.7505
  163OSM   H18G18416   1.974   2.028   3.871 -0.4926  0.2946  0.9569
  163OSM   H18H18417   2.090   1.924   3.962  0.0552 -3.6417  0.9254
  164OSM      N18418   1.847   0.566   2.481  0.1622 -0.6157  0.2713
  164OSM    C1518419   1.978   0.514   2.415  0.3772  0.3867 -0.2059
  164OSM   H15A18420   2.016   0.444   2.488 -1.9376 -1.0010 -0.2486
  164OSM   H15B18421   2.056   0.588   2.405  0.2384  0.5842  0.1776
  164OSM   H15C18422   1.954   0.473   2.318  0.2596 -0.7599  0.2915
  164OSM    C1418423   1.783   0.675   2.394 -0.1396  0.5005  0.0034
  164OSM   H14A18424   1.839   0.768   2.402  0.6290  0.0293  0.2060
  164OSM   H14B18425   1.678   0.682   2.417 -0.1869  1.0601 -0.3669
  164OSM   H14C18426   1.781   0.652   2.289 -0.9780 -0.8750  0.3117
  164OSM    C1318427   1.755   0.451   2.484 -0.3920  0.0591 -0.4390
  164OSM   H13A18428   1.724   0.426   2.384  0.7879  0.1480 -0.8453
  164OSM   H13B18429   1.662   0.473   2.535 -0.4190 -0.8183 -0.0904
  164OSM   H13C18430   1.799   0.366   2.534  0.0575 -0.1795 -1.2188
  164OSM    C1218431   1.874   0.611   2.624 -0.4437 -0.1106  0.0266
  164OSM   H12A18432   1.892   0.520   2.679 -0.6881 -0.0902  0.1425
  164OSM   H12B18433   1.781   0.645   2.668 -0.3844 -0.5937  0.5326
  164OSM    C1118434   2.001   0.707   2.649  0.1242  0.1492 -1.1352
  164OSM   H11A18435   2.091   0.645   2.630 -1.0053 -2.1843  0.6746
  164OSM   H11B18436   2.019   0.730   2.756 -1.1190 -0.0454 -0.8679
  164OSM      P18437   1.910   0.954   2.599  0.4604  0.1237 -0.5008
  164OSM    O1318438   1.958   1.056   2.505  0.9524 -0.3876  0.3143
  164OSM    O1418439   1.765   0.921   2.596 -0.0351  0.6976  0.5604
  164OSM    O1118440   1.955   0.991   2.752 -0.0687 -0.4166  0.5644
  164OSM    O1218441   2.008   0.825   2.568  0.0642 -0.4715 -0.7780
  164OSM    C1S18442   2.091   1.031   2.780 -0.1110  0.1215 -0.3220
  164OSM    H1S18443   2.116   1.138   2.760  1.5074 -0.0575  0.6309
  164OSM    H1T18444   2.168   0.974   2.726  1.1456  0.7569  0.7396
  164OSM     NF18445   2.264   1.082   2.956  0.3687  0.3789  0.3803
  164OSM    HNF18446   2.331   1.013   2.984  0.0119  0.1059  0.5733
  164OSM    C2S18447   2.126   1.031   2.939 -1.1126  0.6014  0.1866
  164OSM    H2S18448   2.052   1.098   2.987 -2.2231 -1.2305  1.1166
  164OSM    C3S18449   2.099   0.895   3.004  0.3098 -0.0864 -0.2960
  164OSM    H3S18450   2.169   0.825   2.954  3.6570  2.7159  0.0705
  164OSM     O318451   1.969   0.846   2.971 -0.1044 -0.5260 -0.0890
  164OSM    HO318452   1.943   0.916   2.911  2.0859 -0.2328 -0.7922
  164OSM    C4S18453   2.124   0.891   3.154  0.3197 -0.3746  0.1270
  164OSM    H4S18454   2.215   0.841   3.191 -1.0429 -0.7841  3.2679
  164OSM    C5S18455   2.055   0.966   3.247  0.1285 -0.5221  0.6776
  164OSM    H5S18456   1.966   1.019   3.211  1.4327  0.6851 -0.9056
  164OSM    C6S18457   2.081   0.977   3.391 -0.3152 -0.1511  0.1562
  164OSM    H6S18458   2.015   0.908   3.447 -2.2932  1.0276 -0.6381
  164OSM    H6T18459   2.041   1.075   3.427 -2.4278 -1.9620  3.1908
  164OSM    C7S18460   2.226   0.992   3.444  0.2176  0.2291  0.1243
  164OSM    H7S18461   2.267   1.089   3.410  0.3991 -0.7226 -2.6484
  164OSM    H7T18462   2.284   0.905   3.406 -2.0103 -1.2554 -0.0538
  164OSM    C8S18463   2.231   0.985   3.596  0.3695  0.2843  0.5516
  164OSM    H8S18464   2.154   1.056   3.634 -0.0439  0.6170 -0.8546
  164OSM    H8T18465   2.331   1.012   3.637 -0.3235 -1.6172  3.9042
  164OSM    C9S18466   2.198   0.839   3.647 -0.0754 -0.4624  1.0190
  164OSM    H9S18467   2.243   0.765   3.577 -0.7820 -0.1262  0.1886
  164OSM    H9T18468   2.093   0.810   3.625  0.8822 -2.3649 -1.4465
  164OSM   C10S18469   2.227   0.814   3.788 -0.9637  0.2124  0.2068
  164OSM   H10S18470   2.200   0.708   3.809  1.4358 -0.6106 -0.4395
  164OSM   H10T18471   2.167   0.887   3.846  0.0216  0.3755  1.0595
  164OSM   C11S18472   2.373   0.835   3.844 -0.4485  0.4490  0.1241
  164OSM   H11S18473   2.386   0.944   3.826 -3.2179  0.7437 -0.4965
  164OSM   H11T18474   2.450   0.780   3.785 -3.7925 -1.5682 -2.7877
  164OSM   C12S18475   2.398   0.805   3.998  0.4781 -0.1097  0.7190
  164OSM   H12S18476   2.319   0.857   4.057  0.3178 -0.4627  0.8170
  164OSM   H12T18477   2.495   0.857   4.014 -0.1324  1.4720 -0.4634
  164OSM   C13S18478   2.397   0.662   4.035  0.3057  0.2408 -0.7265
  164OSM   H13S18479   2.294   0.620   4.043 -0.3206  1.6395 -1.2334
  164OSM   H13T18480   2.441   0.659   4.137  3.4553  1.9084 -1.8995
  164OSM   C14S18481   2.470   0.552   3.953 -0.6619  0.0156 -0.0138
  164OSM   H14S18482   2.572   0.588   3.932 -1.1399  1.9131  0.7021
  164OSM   H14T18483   2.419   0.549   3.854  0.1978  1.7586 -0.5496
  164OSM   C15S18484   2.474   0.415   4.030  0.1410 -0.2872  1.2732
  164OSM   H15S18485   2.548   0.354   3.974  0.1982  1.1799 -0.3546
  164OSM   H15T18486   2.373   0.371   4.027 -0.6310  1.2349  2.9257
  164OSM   C16S18487   2.524   0.410   4.175  0.6091  0.1700 -0.0995
  164OSM   H16S18488   2.471   0.477   4.246  2.0026  2.4606 -1.1155
  164OSM   H16T18489   2.627   0.448   4.191  0.9583 -1.1941  1.0604
  164OSM   C17S18490   2.532   0.274   4.237  0.1980  0.2512 -0.5870
  164OSM   H17S18491   2.570   0.203   4.161 -0.7901 -1.9385  0.8813
  164OSM   H17T18492   2.434   0.228   4.260 -0.1307  0.5735 -1.3257
  164OSM   C18S18493   2.613   0.276   4.366  0.1277  0.1070  0.0244
  164OSM   H18S18494   2.722   0.285   4.346  0.1856  1.6226  0.8922
  164OSM   H18T18495   2.587   0.179   4.414 -0.9161  0.3503 -0.0251
  164OSM   H18U18496   2.577   0.360   4.429 -0.5703 -0.5562  0.5297
  164OSM    C1F18497   2.302   1.205   2.941 -0.1159 -0.0897 -0.1764
  164OSM     OF18498   2.219   1.296   2.913  0.3222  0.1707 -0.4421
  164OSM    C2F18499   2.453   1.248   2.956  0.0936  0.3038 -0.4952
  164OSM    H2F18500   2.446   1.356   2.934 -0.2540  0.2701 -0.5671
  164OSM    H2G18501   2.507   1.183   2.884  0.2037 -0.6827  0.4451
  164OSM    C3F18502   2.503   1.247   3.102 -0.5580  0.3950 -0.8935
  164OSM    H3F18503   2.597   1.306   3.094 -0.4925  0.5627  0.7283
  164OSM    H3G18504   2.532   1.146   3.138 -0.0252  0.6587 -0.5688
  164OSM    C4F18505   2.409   1.301   3.214  0.2404  0.2948 -1.2372
  164OSM    H4F18506   2.324   1.231   3.227  0.9654 -0.0224  3.0245
  164OSM    H4G18507   2.367   1.400   3.187  0.6805  0.8929  0.1781
  164OSM    C5F18508   2.479   1.319   3.350 -0.4013 -0.4927  0.7660
  164OSM    H5F18509   2.502   1.221   3.396  0.6397 -1.3422 -1.4292
  164OSM    H5G18510   2.406   1.368   3.418  1.4056 -0.0372  2.4626
  164OSM    C6F18511   2.606   1.400   3.348 -0.0636 -0.0787 -0.0110
  164OSM    H6F18512   2.586   1.497   3.297  1.4694  0.6982  0.7828
  164OSM    H6G18513   2.688   1.350   3.293 -0.6172  0.6543 -1.5725
  164OSM    C7F18514   2.663   1.435   3.483 -0.3396  0.3588  0.3662
  164OSM    H7F18515   2.608   1.519   3.532  2.2504  2.6977 -0.4823
  164OSM    H7G18516   2.761   1.479   3.458 -0.0224 -0.8821 -0.6439
  164OSM    C8F18517   2.677   1.313   3.579 -1.0858  0.4366 -0.3768
  164OSM    H8F18518   2.770   1.339   3.634 -1.8221  0.6932  0.7739
  164OSM    H8G18519   2.701   1.224   3.517  0.7105  0.4881  0.1936
  164OSM    C9F18520   2.563   1.308   3.675  0.1306 -0.2867  0.1328
  164OSM    H9F18521   2.472   1.352   3.632  1.4078 -0.6871 -3.2608
  164OSM   C10F18522   2.557   1.282   3.808  0.3117  0.3644  0.1854
  164OSM   H10F18523   2.459   1.272   3.858  0.0757  1.6615  0.0203
  164OSM   C11F18524   2.674   1.233   3.894  0.0870  0.2524 -1.0434
  164OSM   H11F18525   2.764   1.196   3.840 -0.4252 -0.2863 -1.5448
  164OSM   H11G18526   2.639   1.150   3.959  2.7213 -0.5936 -0.5824
  164OSM   C12F18527   2.717   1.348   3.980 -0.4059 -0.7519 -0.0014
  164OSM   H12F18528   2.714   1.443   3.924  0.2016 -1.1975 -0.8049
  164OSM   H12G18529   2.817   1.341   4.027  0.1050 -2.1213 -1.2246
  164OSM   C13F18530   2.618   1.383   4.096  0.1405 -0.8532 -0.4160
  164OSM   H13F18531   2.589   1.291   4.151  2.4988 -1.3094  0.2008
  164OSM   H13G18532   2.528   1.436   4.059 -0.1751 -0.0923  1.3395
  164OSM   C14F18533   2.686   1.467   4.206  0.3870 -0.2767  0.3339
  164OSM   H14F18534   2.754   1.405   4.268 -0.9942 -0.7556  1.4287
  164OSM   H14G18535   2.607   1.511   4.272 -0.4728 -1.9641  0.4749
  164OSM   C15F18536   2.762   1.587   4.144  0.0858 -0.5871  0.4529
  164OSM   H15F18537   2.685   1.641   4.084 -0.5449 -0.3505  1.4430
  164OSM   H15G18538   2.850   1.558   4.083  1.5124  2.9269  0.5769
  164OSM   C16F18539   2.800   1.693   4.249 -0.3335 -0.0341 -0.3358
  164OSM   H16F18540   2.872   1.667   4.329  0.0213  1.1319 -0.2496
  164OSM   H16G18541   2.707   1.731   4.296  0.6283  0.5403  1.1934
  164OSM   C17F18542   2.870   1.818   4.184  0.6231  0.1884 -0.0512
  164OSM   H17F18543   2.806   1.843   4.097 -2.4351 -1.4251  1.5602
  164OSM   H17G18544   2.965   1.789   4.133  0.0206 -0.7679 -0.6468
  164OSM   C18F18545   2.886   1.940   4.263 -0.0347  0.3090 -0.3451
  164OSM   H18F18546   2.977   1.946   4.326 -0.2719 -0.5543  0.1047
  164OSM   H18G18547   2.792   1.963   4.317 -0.2490  1.3719 -1.1492
  164OSM   H18H18548   2.898   2.020   4.187  1.2861 -3.0600 -4.0094
  165SAPS     N18549   2.870   6.104   7.015 -0.3707  0.5746  0.3248
  165SAPS   HN118550   2.878   6.158   6.927  2.4414 -1.7378 -1.0017
  165SAPS   HN218551   2.879   6.004   6.990  2.0032  0.7891  0.1321
  165SAPS   HN318552   2.777   6.125   7.057 -0.1905 -2.4168  2.5939
  165SAPS   C1218553   2.989   6.129   7.103 -0.4469 -0.3298  0.4495
  165SAPS  H12A18554   3.001   6.236   7.110  2.2688 -0.5672  0.4709
  165SAPS   C1318555   2.984   6.071   7.244 -0.5008 -0.4716 -0.0290
  165SAPS  O13A18556   2.878   6.002   7.265 -0.1632 -0.4927  0.0054
  165SAPS  O13B18557   3.056   6.105   7.344  0.2351 -0.4165 -0.4575
  165SAPS   C1118558   3.124   6.082   7.035  0.1028 -0.4344  0.3415
  165SAPS  H11A18559   3.122   5.971   7.027  3.7957 -0.7100  1.2485
  165SAPS  H11B18560   3.212   6.105   7.099 -0.8199 -0.2185  1.5675
  165SAPS     P18561   3.234   6.277   6.891 -0.4005  0.0093 -0.0698
  165SAPS   O1318562   3.178   6.388   6.969  0.1303 -0.4471 -0.3786
  165SAPS   O1418563   3.369   6.232   6.935  0.0440 -0.6229  0.0834
  165SAPS   O1218564   3.140   6.145   6.907 -0.3254  0.1503  0.3766
  165SAPS   O1118565   3.228   6.311   6.736 -0.2316  0.6295 -0.1385
  165SAPS    C118566   3.346   6.346   6.666 -1.1234 -0.2203  0.0923
  165SAPS    HA18567   3.329   6.434   6.601 -1.1022 -0.4652 -0.2527
  165SAPS    HB18568   3.429   6.373   6.734 -0.4733 -3.0616  0.5469
  165SAPS    C218569   3.402   6.234   6.565 -0.3164 -0.5384 -0.8021
  165SAPS    HS18570   3.498   6.281   6.534 -0.4554  0.8380  0.7322
  165SAPS   O2118571   3.309   6.222   6.456  0.4404  0.5252  0.7580
  165SAPS   C2118572   3.306   6.325   6.370 -0.3127  0.2819 -0.6257
  165SAPS   O2218573   3.386   6.416   6.368  0.0645  0.2143  0.0670
  165SAPS   C2218574   3.174   6.323   6.285 -0.4304  0.2597 -0.4976
  165SAPS   H2R18575   3.142   6.217   6.275  1.1273 -0.2739 -0.2591
  165SAPS   H2S18576   3.097   6.387   6.331  0.9633  0.9547  0.9462
  165SAPS    C318577   3.428   6.096   6.622  0.5739  0.6932 -0.5994
  165SAPS    HX18578   3.332   6.053   6.658  1.5532  0.3154  1.7216
  165SAPS    HY18579   3.486   6.100   6.717  1.4398 -0.2074 -1.0816
  165SAPS   O3118580   3.488   6.011   6.524 -0.4651  0.5761  1.0490
  165SAPS   C3118581   3.511   5.883   6.568  0.5635 -0.1185 -0.6352
  165SAPS   O3218582   3.459   5.832   6.665 -0.6081  0.4678  0.2650
  165SAPS   C3218583   3.617   5.810   6.487  0.3691 -0.4152 -0.3320
  165SAPS   H2X18584   3.714   5.862   6.498  0.2068  0.3759 -2.2885
  165SAPS   H2Y18585   3.596   5.820   6.378 -0.7751  0.3093 -0.0699
  165SAPS   C2318586   3.197   6.393   6.138 -0.5180  0.1897  0.1807
  165SAPS   H3R18587   3.267   6.327   6.081 -0.1075  0.1890  0.6788
  165SAPS   H3S18588   3.228   6.499   6.146  0.7802 -0.0766 -0.8422
  165SAPS   C2418589   3.066   6.380   6.061  0.4359  0.1451 -0.8300
  165SAPS   H4R18590   2.984   6.420   6.125  1.4192  0.3278  0.3586
  165SAPS   H4S18591   3.035   6.275   6.045  0.9477  0.1641 -2.0057
  165SAPS   C2518592   3.083   6.474   5.941 -0.1642  0.1261  0.4802
  165SAPS   H5R18593   3.093   6.582   5.954  0.6145  0.0571  0.4753
  165SAPS   C2618594   3.089   6.422   5.816  0.2229 -0.3901 -0.4600
  165SAPS   H6R18595   3.093   6.495   5.734 -2.4739 -0.5578 -0.8421
  165SAPS   C2718596   3.087   6.278   5.767 -0.2386  0.2177  0.1231
  165SAPS   H7R18597   2.995   6.251   5.711  1.0145 -0.6677 -1.6124
  165SAPS   H7S18598   3.089   6.197   5.844  2.0359 -1.3949 -1.4939
  165SAPS   C2818599   3.207   6.255   5.678  0.3155  0.3658 -0.2409
  165SAPS   H8R18600   3.289   6.199   5.726  1.0128  2.6127  1.3102
  165SAPS   C2918601   3.236   6.292   5.548  0.2121 -0.4098  0.2771
  165SAPS   H9R18602   3.343   6.280   5.525  0.7722  1.1323  1.8594
  165SAPS  C21018603   3.145   6.370   5.454  0.0968  0.7921 -0.4543
  165SAPS  H10R18604   3.054   6.409   5.504 -0.2921  0.7116 -1.0873
  165SAPS  H10S18605   3.106   6.294   5.382 -0.7223  0.5418  0.2420
  165SAPS  C21118606   3.220   6.490   5.393  1.0610 -0.7621  0.1412
  165SAPS  H11R18607   3.190   6.590   5.428  1.4396 -0.2912 -0.8449
  165SAPS  C21218608   3.301   6.493   5.286  0.6465 -0.4013  0.0513
  165SAPS  H12R18609   3.324   6.594   5.247 -2.9093  0.3510 -0.4301
  165SAPS  C21318610   3.337   6.383   5.186  0.0153 -1.1038  0.1753
  165SAPS  H13R18611   3.242   6.355   5.136 -0.4661 -1.0406  1.0473
  165SAPS  H13S18612   3.357   6.290   5.243 -2.2730 -0.9532  1.3102
  165SAPS  C21418613   3.448   6.412   5.088 -0.6748 -0.3626  0.1951
  165SAPS  H14R18614   3.413   6.478   5.007 -2.4598 -1.5348 -0.0490
  165SAPS  C21518615   3.573   6.371   5.113 -0.7602  0.1626  0.2078
  165SAPS  H15R18616   3.658   6.392   5.047  0.2304 -1.8579  0.7670
  165SAPS  C21618617   3.618   6.291   5.229  0.8859  0.0912 -0.4395
  165SAPS  H16R18618   3.558   6.326   5.316 -0.0099  0.0409 -1.0338
  165SAPS  H16S18619   3.717   6.326   5.266 -0.2341  2.9839  0.0924
  165SAPS  C21718620   3.622   6.132   5.227 -0.0090  0.2006  0.3179
  165SAPS  H17R18621   3.523   6.105   5.185 -0.7481  0.7728  1.6203
  165SAPS  H17S18622   3.621   6.100   5.334 -0.7225  1.8175  0.8242
  165SAPS  C21818623   3.740   6.078   5.147  0.3451 -0.0030 -0.5181
  165SAPS  H18R18624   3.752   6.140   5.055 -1.9499  1.2702 -0.0328
  165SAPS  H18S18625   3.717   5.973   5.120 -1.5615  0.5694 -1.2940
  165SAPS  C21918626   3.871   6.074   5.231  0.1706 -0.1295  0.0169
  165SAPS  H19R18627   3.849   6.042   5.335 -0.8080 -1.9304 -0.7070
  165SAPS  H19S18628   3.907   6.177   5.253  0.6284 -0.0224 -1.1854
  165SAPS  C22018629   3.969   5.987   5.165 -0.6125  0.1354  0.6210
  165SAPS  H20R18630   4.066   5.982   5.217  1.5042  0.9685 -2.8856
  165SAPS  H20S18631   3.994   6.018   5.061 -0.1268  1.5326  1.1287
  165SAPS  H20T18632   3.923   5.887   5.150 -0.2600 -0.0691  0.8956
  165SAPS   C3318633   3.630   5.655   6.526  0.5428 -0.2535  0.1577
  165SAPS   H3X18634   3.530   5.613   6.500 -0.8397  2.2526  1.0802
  165SAPS   H3Y18635   3.648   5.636   6.634 -0.6958  0.2029  0.4653
  165SAPS   C3418636   3.737   5.589   6.439  0.4293  0.1047  0.6360
  165SAPS   H4X18637   3.727   5.479   6.445 -0.1561  0.1893  1.4356
  165SAPS   H4Y18638   3.836   5.617   6.482  0.5818  1.2533 -0.4088
  165SAPS   C3518639   3.735   5.626   6.287 -0.4646 -0.4056 -1.2584
  165SAPS   H5X18640   3.742   5.736   6.272  1.0122 -0.7211 -3.2821
  165SAPS   H5Y18641   3.636   5.588   6.252 -1.4443  1.1211 -0.2452
  165SAPS   C3618642   3.854   5.567   6.211  0.0747  0.2686 -0.5838
  165SAPS   H6X18643   3.867   5.459   6.232 -2.6107 -0.4529 -2.0882
  165SAPS   H6Y18644   3.942   5.628   6.242 -0.8468  1.0321  0.6287
  165SAPS   C3718645   3.828   5.567   6.060  0.7582 -0.0979  0.6560
  165SAPS   H7X18646   3.801   5.672   6.038  1.6178  0.0634  0.3041
  165SAPS   H7Y18647   3.741   5.504   6.031 -0.3675  0.8963  1.7769
  165SAPS   C3818648   3.948   5.536   5.974 -0.0140 -0.4875  0.3606
  165SAPS   H8X18649   4.036   5.589   6.017  1.0457  0.2168 -2.4421
  165SAPS   H8Y18650   3.923   5.556   5.868 -0.0747 -2.8899 -0.1304
  165SAPS   C3918651   3.965   5.381   5.975  0.5228 -0.1200 -0.3205
  165SAPS   H9X18652   3.900   5.344   5.893 -3.1485  1.0887  1.7937
  165SAPS   H9Y18653   3.935   5.333   6.071  0.8602 -1.7379 -0.9977
  165SAPS  C31018654   4.120   5.343   5.945  0.3570  0.1633 -0.4790
  165SAPS  H10X18655   4.135   5.235   5.967  1.1703  0.7185  1.9904
  165SAPS  H10Y18656   4.176   5.408   6.015 -1.4318  1.4034 -0.1346
  165SAPS  C31118657   4.159   5.373   5.803  0.4873  0.2509 -0.3193
  165SAPS  H11X18658   4.137   5.477   5.772 -2.1093  0.6612  2.4643
  165SAPS  H11Y18659   4.106   5.296   5.741  0.3794 -1.3281  1.6360
  165SAPS  C31218660   4.309   5.344   5.782  0.7827  0.5337  0.1514
  165SAPS  H12X18661   4.347   5.259   5.844 -1.0973 -1.5630 -1.4114
  165SAPS  H12Y18662   4.369   5.429   5.820  2.1378 -0.0182 -0.6522
  165SAPS  C31318663   4.328   5.313   5.630 -0.5892 -0.2258 -0.5219
  165SAPS  H13X18664   4.249   5.369   5.576 -1.6915  0.0193  1.2639
  165SAPS  H13Y18665   4.320   5.205   5.605  0.0710 -0.8886  1.8443
  165SAPS  C31418666   4.457   5.376   5.572  0.3593  0.2932  0.1012
  165SAPS  H14X18667   4.540   5.321   5.622 -2.8705 -2.4400  2.9636
  165SAPS  H14Y18668   4.449   5.487   5.577 -2.1305  0.2271 -1.0363
  165SAPS  C31518669   4.458   5.348   5.417 -0.3896 -0.2148 -0.5616
  165SAPS  H15X18670   4.362   5.395   5.389 -0.5209 -1.3238 -2.1862
  165SAPS  H15Y18671   4.430   5.241   5.401  2.0327 -0.6188 -2.8160
  165SAPS  C31618672   4.576   5.417   5.345  0.6241  0.2933  0.1746
  165SAPS  H16X18673   4.669   5.371   5.384  0.3608 -0.3587  0.0569
  165SAPS  H16Y18674   4.570   5.522   5.380 -1.5886 -0.3588  2.0564
  165SAPS  C31718675   4.582   5.410   5.197  0.0138  0.7316  0.6641
  165SAPS  H17X18676   4.552   5.313   5.151  0.3913  1.5132 -1.3261
  165SAPS  H17Y18677   4.688   5.401   5.167 -0.1737  0.0850  0.1501
  165SAPS  C31818678   4.516   5.522   5.118 -0.2748 -0.3558  0.1173
  165SAPS  H18X18679   4.412   5.494   5.093 -0.5110  1.8215 -1.5760
  165SAPS  H18Y18680   4.566   5.540   5.021 -0.6058  0.4304  0.0876
  165SAPS  H18Z18681   4.511   5.617   5.175 -1.7721 -0.1398 -0.3358
  166SAPS     N18682   0.804   4.016   7.125 -0.1910 -0.4558 -0.1478
  166SAPS   HN118683   0.806   4.072   7.212 -2.8553 -0.1654 -0.2114
  166SAPS   HN218684   0.786   3.920   7.162 -0.7060 -0.6161 -0.7974
  166SAPS   HN318685   0.894   4.004   7.074 -0.3990 -1.2244 -0.3509
  166SAPS   C1218686   0.691   4.063   7.037  0.7396  0.4510 -0.1303
  166SAPS  H12A18687   0.684   3.989   6.958  4.4602  0.1155 -0.3366
  166SAPS   C1318688   0.560   4.076   7.127  1.2105  0.1849 -0.3812
  166SAPS  O13A18689   0.566   4.059   7.250 -0.0395  0.0874  0.0516
  166SAPS  O13B18690   0.462   4.143   7.078 -0.4652  0.3314  0.6625
  166SAPS   C1118691   0.729   4.208   6.989 -0.2072 -0.3495  0.8049
  166SAPS  H11A18692   0.745   4.274   7.076  0.3406  0.9027 -0.2074
  166SAPS  H11B18693   0.651   4.255   6.925  1.2979 -0.2158 -1.0082
  166SAPS     P18694   0.926   4.321   6.849  0.8126  0.0292  0.2128
  166SAPS   O1318695   0.954   4.428   6.948  0.0265  0.2375  0.6735
  166SAPS   O1418696   1.043   4.264   6.779 -0.3466  0.5861 -0.0561
  166SAPS   O1218697   0.846   4.198   6.909  0.1629 -0.4021 -0.4139
  166SAPS   O1118698   0.820   4.374   6.747  0.1698 -0.5818  0.0806
  166SAPS    C118699   0.736   4.286   6.670 -0.3564 -0.5093 -0.2824
  166SAPS    HA18700   0.712   4.184   6.706  0.1699 -0.9384 -1.1183
  166SAPS    HB18701   0.636   4.335   6.666 -1.1914 -2.0808  0.5586
  166SAPS    C218702   0.789   4.260   6.525 -0.1070  0.4627 -0.0863
  166SAPS    HS18703   0.862   4.177   6.534 -0.9585 -0.4554 -1.3684
  166SAPS   O2118704   0.849   4.376   6.474  0.5543  0.2572  0.2521
  166SAPS   C2118705   0.971   4.362   6.417 -0.0088  0.3817 -0.2084
  166SAPS   O2218706   1.027   4.259   6.397 -0.8130 -0.0140  0.3380
  166SAPS   C2218707   1.029   4.489   6.361 -0.5503  0.5165 -0.0594
  166SAPS   H2R18708   0.964   4.575   6.391  0.4158  0.2414  3.1393
  166SAPS   H2S18709   1.122   4.508   6.419 -1.5913  0.2811  1.7799
  166SAPS    C318710   0.673   4.210   6.431 -0.6854 -0.4189 -0.4087
  166SAPS    HX18711   0.611   4.138   6.489 -0.2494  0.0126  0.6240
  166SAPS    HY18712   0.721   4.161   6.344 -1.5007 -0.6353 -0.7459
  166SAPS   O3118713   0.591   4.316   6.378  0.0656 -0.6631  0.2977
  166SAPS   C3118714   0.465   4.290   6.348 -0.3116 -0.4969  0.6496
  166SAPS   O3218715   0.408   4.183   6.366  0.0662  0.6872  0.2914
  166SAPS   C3218716   0.402   4.410   6.275  0.0511 -0.4008 -0.3094
  166SAPS   H2X18717   0.477   4.489   6.253 -0.8341  0.3233 -0.8032
  166SAPS   H2Y18718   0.324   4.446   6.346  0.8765 -0.6878  0.7810
  166SAPS   C2318719   1.054   4.488   6.212  0.5023 -0.3345 -0.2827
  166SAPS   H3R18720   1.141   4.423   6.189  0.1194 -0.6292 -0.9225
  166SAPS   H3S18721   1.108   4.582   6.187  1.2326 -1.0924 -1.6887
  166SAPS   C2418722   0.925   4.464   6.131 -0.0048  0.3215 -0.5686
  166SAPS   H4R18723   0.880   4.364   6.153  0.1163  0.1529 -1.0731
  166SAPS   H4S18724   0.959   4.466   6.025  0.2080  2.5514 -0.5033
  166SAPS   C2518725   0.818   4.563   6.170  0.5141  0.1908 -0.2478
  166SAPS   H5R18726   0.811   4.609   6.270 -1.1874 -0.1509 -0.1871
  166SAPS   C2618727   0.744   4.626   6.078 -0.0261  0.1294 -0.5984
  166SAPS   H6R18728   0.670   4.701   6.108 -0.7317 -0.8122  0.0779
  166SAPS   C2718729   0.739   4.624   5.924  0.1175  0.5561 -0.0277
  166SAPS   H7R18730   0.629   4.621   5.909  0.1727 -2.8546 -0.6023
  166SAPS   H7S18731   0.778   4.534   5.871 -2.7760  0.9995 -3.2762
  166SAPS   C2818732   0.796   4.749   5.862 -0.3732 -0.0361  0.0177
  166SAPS   H8R18733   0.793   4.835   5.932 -1.7647 -0.1966  0.1738
  166SAPS   C2918734   0.834   4.766   5.737 -0.1250 -0.1110  0.3089
  166SAPS   H9R18735   0.869   4.864   5.701 -1.0925  0.1676  0.1144
  166SAPS  C21018736   0.852   4.662   5.618 -0.2270 -0.0308 -0.1750
  166SAPS  H10R18737   0.908   4.571   5.648  1.8895  1.7381  1.5327
  166SAPS  H10S18738   0.913   4.711   5.540 -0.5655 -0.0995 -0.4877
  166SAPS  C21118739   0.716   4.618   5.565 -0.0469 -0.2089  0.5099
  166SAPS  H11R18740   0.657   4.547   5.625 -0.3963  0.0918  0.5256
  166SAPS  C21218741   0.655   4.665   5.452  0.0419 -0.3945 -0.9178
  166SAPS  H12R18742   0.561   4.628   5.408 -0.1133 -0.2057 -0.7515
  166SAPS  C21318743   0.708   4.770   5.354 -0.4016 -0.5061  0.1349
  166SAPS  H13R18744   0.816   4.789   5.371 -0.3079  0.1714 -1.0500
  166SAPS  H13S18745   0.660   4.869   5.367  2.3417  0.9931 -0.3850
  166SAPS  C21418746   0.689   4.730   5.209  0.1988 -0.5457 -0.1728
  166SAPS  H14R18747   0.643   4.631   5.202 -1.8684  0.2983  0.5115
  166SAPS  C21518748   0.725   4.804   5.096  1.3487 -0.4501  0.0276
  166SAPS  H15R18749   0.700   4.762   4.997  0.6420 -0.4717  0.2098
  166SAPS  C21618750   0.775   4.949   5.097  0.5589  0.4076 -1.0772
  166SAPS  H16R18751   0.886   4.947   5.100  0.6093  0.6321 -2.4281
  166SAPS  H16S18752   0.740   5.004   5.187  1.0221 -1.5389  0.3717
  166SAPS  C21718753   0.744   5.034   4.970 -0.4619  0.2076  0.5557
  166SAPS  H17R18754   0.634   5.031   4.955 -0.3273 -1.4038 -0.3291
  166SAPS  H17S18755   0.797   4.987   4.884  0.7830  1.5483  0.5498
  166SAPS  C21818756   0.796   5.174   4.979  0.4156  0.1929  0.0867
  166SAPS  H18R18757   0.769   5.232   4.888 -1.8883  2.4890  2.0846
  166SAPS  H18S18758   0.905   5.172   5.003 -0.0252 -0.9448  2.2013
  166SAPS  C21918759   0.722   5.259   5.086  0.0523  0.1098  0.0605
  166SAPS  H19R18760   0.759   5.217   5.182  3.1509  2.9809  0.3051
  166SAPS  H19S18761   0.614   5.245   5.065  0.6354 -0.6750 -2.8426
  166SAPS  C22018762   0.755   5.412   5.081  0.4825 -0.0065  1.0206
  166SAPS  H20R18763   0.752   5.443   4.974 -1.6578  0.6129  1.2121
  166SAPS  H20S18764   0.855   5.435   5.123  0.5898 -0.0303  0.7787
  166SAPS  H20T18765   0.674   5.475   5.125  1.3499 -0.2077  3.0137
  166SAPS   C3318766   0.339   4.364   6.135 -0.6118  0.3189 -0.3117
  166SAPS   H3X18767   0.255   4.434   6.118 -0.5829  0.8452  1.5329
  166SAPS   H3Y18768   0.296   4.264   6.161  0.2880  0.2183  0.9006
  166SAPS   C3418769   0.435   4.361   6.013  0.0738 -0.1113  0.1393
  166SAPS   H4X18770   0.505   4.275   6.021 -0.8900 -1.0336 -0.9870
  166SAPS   H4Y18771   0.499   4.452   6.019  0.8353 -0.4935 -1.5827
  166SAPS   C3518772   0.368   4.363   5.876 -0.3363  0.4308  0.0845
  166SAPS   H5X18773   0.307   4.454   5.854  2.8886  2.7897  0.1944
  166SAPS   H5Y18774   0.305   4.271   5.875  0.5910 -0.2282  0.7758
  166SAPS   C3618775   0.469   4.339   5.758  0.1040  0.1866 -0.8519
  166SAPS   H6X18776   0.500   4.232   5.766 -1.6463 -0.2274  1.6832
  166SAPS   H6Y18777   0.554   4.409   5.775 -0.3200  0.2121  1.4684
  166SAPS   C3718778   0.398   4.364   5.628 -0.2569 -0.0175  0.1889
  166SAPS   H7X18779   0.389   4.475   5.622 -1.7720  0.1620  3.5336
  166SAPS   H7Y18780   0.299   4.314   5.622  1.7357 -4.3827  0.4682
  166SAPS   C3818781   0.473   4.305   5.505  0.2418 -0.2815  0.5175
  166SAPS   H8X18782   0.484   4.194   5.510  0.2852 -0.2684  0.7485
  166SAPS   H8Y18783   0.579   4.337   5.512  0.6721 -1.4347 -0.5174
  166SAPS   C3918784   0.414   4.360   5.372  0.4624 -0.3677 -0.1003
  166SAPS   H9X18785   0.376   4.465   5.375  0.1318 -0.3710 -2.2443
  166SAPS   H9Y18786   0.319   4.316   5.335  1.1119 -0.4133 -1.7990
  166SAPS  C31018787   0.517   4.346   5.260 -0.1740 -0.3365  0.6191
  166SAPS  H10X18788   0.544   4.238   5.260 -0.6005 -0.4492  0.1457
  166SAPS  H10Y18789   0.607   4.404   5.287 -0.1106 -0.0449 -0.2082
  166SAPS  C31118790   0.477   4.393   5.121  0.0330 -0.0975 -0.1038
  166SAPS  H11X18791   0.455   4.502   5.133 -0.7616 -0.3487  0.9062
  166SAPS  H11Y18792   0.378   4.350   5.095 -0.0460  1.6266 -3.0723
  166SAPS  C31218793   0.577   4.365   5.005  0.2540 -0.2298 -0.3537
  166SAPS  H12X18794   0.592   4.255   5.009 -2.3301 -0.6967 -1.1814
  166SAPS  H12Y18795   0.672   4.419   5.025 -0.4376  1.1258 -0.5870
  166SAPS  C31318796   0.531   4.414   4.866 -0.0591 -0.0836  0.6463
  166SAPS  H13X18797   0.423   4.401   4.842 -0.0584 -1.2139  1.1690
  166SAPS  H13Y18798   0.591   4.360   4.790  1.5482  1.5775  0.6712
  166SAPS  C31418799   0.554   4.563   4.846  0.1655 -0.2225 -0.2263
  166SAPS  H14X18800   0.662   4.587   4.849 -0.2617  1.8875 -0.1763
  166SAPS  H14Y18801   0.522   4.622   4.935  2.1319  1.2407 -0.4305
  166SAPS  C31518802   0.489   4.627   4.725  0.5964 -0.2249  0.4527
  166SAPS  H15X18803   0.380   4.628   4.748  1.1456 -0.1531  3.5999
  166SAPS  H15Y18804   0.506   4.557   4.641 -5.2638 -1.1932 -0.3503
  166SAPS  C31618805   0.532   4.776   4.695  0.1216 -0.1803  1.2686
  166SAPS  H16X18806   0.641   4.782   4.677 -0.3997  1.0156 -2.3051
  166SAPS  H16Y18807   0.495   4.831   4.784 -0.9076  0.0772  0.7032
  166SAPS  C31718808   0.480   4.836   4.562  0.0852 -0.5267 -0.1010
  166SAPS  H17X18809   0.508   4.769   4.478 -2.0799  1.3854 -2.4984
  166SAPS  H17Y18810   0.539   4.928   4.542  0.2054 -0.7936 -0.9923
  166SAPS  C31818811   0.329   4.858   4.557  0.1355 -0.0408 -0.1117
  166SAPS  H18X18812   0.299   4.899   4.656  3.7845  2.8170  0.0134
  166SAPS  H18Y18813   0.278   4.759   4.555  0.9532 -0.5599  1.7587
  166SAPS  H18Z18814   0.292   4.920   4.473 -2.0055 -1.9178 -0.6611
  167SAPS     N18815   3.223   4.399   6.920 -0.5175 -0.0688  0.3608
  167SAPS   HN118816   3.161   4.404   6.837  0.3794 -1.1459 -0.4088
  167SAPS   HN218817   3.314   4.449   6.919 -0.9394  0.7164  0.3786
  167SAPS   HN318818   3.243   4.298   6.933 -0.8387  0.0735  2.2654
  167SAPS   C1218819   3.145   4.435   7.045 -0.3283 -0.9082  0.3996
  167SAPS  H12A18820   3.050   4.386   7.033 -0.1777 -1.2221  0.4573
  167SAPS   C1318821   3.203   4.391   7.172  0.5211  0.5752 -0.5094
  167SAPS  O13A18822   3.325   4.350   7.182 -0.5204  0.5363 -0.0327
  167SAPS  O13B18823   3.142   4.409   7.275  0.6898  0.4698  0.5675
  167SAPS   C1118824   3.119   4.591   7.055  0.3412 -0.5949  0.4575
  167SAPS  H11A18825   3.077   4.608   7.157 -0.8491  2.3927 -0.4436
  167SAPS  H11B18826   3.033   4.609   6.988  1.0737 -0.3009 -0.4236
  167SAPS     P18827   3.201   4.824   6.999  0.0532 -0.3859 -0.2561
  167SAPS   O1318828   3.109   4.875   7.101  0.0790 -0.1766  0.6185
  167SAPS   O1418829   3.329   4.904   6.982 -0.2005  0.4904 -0.3416
  167SAPS   O1218830   3.238   4.673   7.032  0.2083  0.0947  1.0539
  167SAPS   O1118831   3.123   4.843   6.858 -0.4443 -0.8515 -0.3095
  167SAPS    C118832   3.125   4.741   6.762 -0.5081  0.0119  0.1448
  167SAPS    HA18833   3.211   4.674   6.784 -0.6252  0.0740  0.7977
  167SAPS    HB18834   3.033   4.679   6.768 -1.3429  1.2386  0.3783
  167SAPS    C218835   3.137   4.793   6.615  0.2178 -0.0065  0.8361
  167SAPS    HS18836   3.062   4.741   6.553 -0.7409 -0.2974  2.1818
  167SAPS   O2118837   3.274   4.774   6.565  0.0015  0.1195 -0.2096
  167SAPS   C2118838   3.300   4.660   6.496 -0.0879 -1.0953 -0.4319
  167SAPS   O2218839   3.222   4.568   6.481  0.3893  0.2872 -0.5975
  167SAPS   C2218840   3.446   4.659   6.451 -1.1842  0.0631  0.8938
  167SAPS   H2R18841   3.507   4.725   6.515 -1.8417  0.4009  1.1816
  167SAPS   H2S18842   3.479   4.557   6.479 -1.3807 -0.4491 -0.6157
  167SAPS    C318843   3.089   4.941   6.603  0.4790  0.7733  0.1367
  167SAPS    HX18844   3.134   5.009   6.678 -0.2935  0.3178  1.0465
  167SAPS    HY18845   2.983   4.949   6.638  0.0677 -0.3019 -0.7966
  167SAPS   O3118846   3.094   4.987   6.464  0.0175  0.9267 -0.1616
  167SAPS   C3118847   2.979   5.016   6.393 -0.1985 -0.0802  0.6255
  167SAPS   O3218848   2.864   5.003   6.435 -0.2068  0.6768 -0.2363
  167SAPS   C3218849   3.007   5.059   6.243  0.6242  0.3535 -0.0103
  167SAPS   H2X18850   3.036   5.165   6.260  3.0732 -0.0907 -1.0280
  167SAPS   H2Y18851   2.922   5.033   6.177  0.7264 -4.3090  1.3526
  167SAPS   C2318852   3.457   4.693   6.301 -0.3851 -0.1826  0.5636
  167SAPS   H3R18853   3.419   4.795   6.279  1.2188 -0.0469 -1.9283
  167SAPS   H3S18854   3.398   4.622   6.239  1.1328 -1.6121  0.6927
  167SAPS   C2418855   3.601   4.688   6.245 -0.2828  0.0552 -1.1193
  167SAPS   H4R18856   3.624   4.579   6.239  2.3606  0.6332 -2.9340
  167SAPS   H4S18857   3.662   4.736   6.324 -2.3691  0.1728  0.5261
  167SAPS   C2518858   3.627   4.761   6.118  0.4844  0.3282  1.1580
  167SAPS   H5R18859   3.596   4.866   6.129 -1.3579 -0.0788  0.2450
  167SAPS   C2618860   3.678   4.709   6.007  0.2904  0.1258 -0.4371
  167SAPS   H6R18861   3.682   4.763   5.912 -0.2264  0.2640 -0.3784
  167SAPS   C2718862   3.722   4.562   5.997  0.6322 -0.4486 -0.1582
  167SAPS   H7R18863   3.629   4.503   6.008  0.1285  0.2356 -0.6626
  167SAPS   H7S18864   3.786   4.535   6.084 -0.4837 -0.1893  0.7600
  167SAPS   C2818865   3.788   4.528   5.867 -0.1852 -0.2428 -0.3741
  167SAPS   H8R18866   3.870   4.456   5.880 -1.0911 -2.0840 -3.6064
  167SAPS   C2918867   3.747   4.562   5.741 -0.4261 -0.3759 -0.2936
  167SAPS   H9R18868   3.812   4.528   5.660 -1.6263 -3.0307 -0.2215
  167SAPS  C21018869   3.625   4.639   5.692  0.2875  0.8703  0.3809
  167SAPS  H10R18870   3.547   4.651   5.770  0.2394 -1.2084  0.7186
  167SAPS  H10S18871   3.593   4.584   5.601 -0.9853  0.9457  0.7691
  167SAPS  C21118872   3.665   4.776   5.646 -0.4987 -0.7873 -0.0511
  167SAPS  H11R18873   3.681   4.845   5.730  1.3090 -1.1835 -0.0401
  167SAPS  C21218874   3.710   4.814   5.528 -0.1028  0.3363 -0.1648
  167SAPS  H12R18875   3.742   4.919   5.519 -2.0678  1.0805  0.9001
  167SAPS  C21318876   3.713   4.736   5.396  0.1478  0.1689 -0.8041
  167SAPS  H13R18877   3.743   4.634   5.428  1.2798  0.6058 -0.4318
  167SAPS  H13S18878   3.788   4.794   5.339  1.9854 -0.1914  1.1269
  167SAPS  C21418879   3.595   4.728   5.308  0.1354  0.5518 -0.0276
  167SAPS  H14R18880   3.495   4.733   5.353  0.1747 -0.5268  0.1883
  167SAPS  C21518881   3.601   4.667   5.189  0.3403 -0.2026  0.8079
  167SAPS  H15R18882   3.509   4.672   5.129  2.8446  3.1452 -3.2538
  167SAPS  C21618883   3.726   4.623   5.112 -0.8836  0.2639 -0.2368
  167SAPS  H16R18884   3.718   4.518   5.077  1.0341 -0.0746  0.1865
  167SAPS  H16S18885   3.823   4.628   5.166 -0.6466 -1.6267 -0.3931
  167SAPS  C21718886   3.748   4.700   4.981 -0.4396  0.6307 -0.0602
  167SAPS  H17R18887   3.756   4.807   5.008 -1.8499  0.5812  0.6595
  167SAPS  H17S18888   3.670   4.687   4.902 -0.9368  0.8950  0.3828
  167SAPS  C21818889   3.881   4.653   4.918  0.2340  0.5604 -0.7293
  167SAPS  H18R18890   3.868   4.543   4.907  1.1164  0.4576 -0.7973
  167SAPS  H18S18891   3.969   4.659   4.986 -0.3389  0.6187  0.0222
  167SAPS  C21918892   3.903   4.710   4.781 -1.1180 -0.4646 -0.1490
  167SAPS  H19R18893   3.810   4.735   4.726 -1.3912 -0.9903  0.0732
  167SAPS  H19S18894   3.964   4.638   4.723 -0.0619 -1.4266  2.0646
  167SAPS  C22018895   3.980   4.846   4.807 -0.0326 -0.9881 -0.2434
  167SAPS  H20R18896   4.070   4.818   4.865 -0.9880 -0.6102  1.5145
  167SAPS  H20S18897   3.928   4.918   4.874  0.5881 -1.6979  1.0459
  167SAPS  H20T18898   3.995   4.897   4.709 -0.6884 -0.4871 -0.0918
  167SAPS   C3318899   3.136   5.001   6.182  0.2667 -0.3897  0.6476
  167SAPS   H3X18900   3.219   5.027   6.251  1.9876  1.9278 -2.0646
  167SAPS   H3Y18901   3.157   5.043   6.081  1.0174 -2.6148 -0.1755
  167SAPS   C3418902   3.115   4.847   6.144  0.3332 -0.4438  0.1210
  167SAPS   H4X18903   3.013   4.829   6.105 -0.5557  0.3572  1.9671
  167SAPS   H4Y18904   3.121   4.782   6.234  0.1357  0.2318  0.6290
  167SAPS   C3518905   3.215   4.803   6.030  0.2019  0.2050  0.0007
  167SAPS   H5X18906   3.226   4.694   6.013 -1.3993  0.1775 -1.0287
  167SAPS   H5Y18907   3.314   4.838   6.067  1.5793 -2.0929 -1.2661
  167SAPS   C3618908   3.177   4.859   5.890  0.2194 -0.4174  0.1821
  167SAPS   H6X18909   3.173   4.970   5.881  0.0016 -0.5108 -1.0911
  167SAPS   H6Y18910   3.080   4.814   5.861  0.9771 -2.4996  0.7260
  167SAPS   C3718911   3.279   4.813   5.798  0.2315  0.2684  0.7372
  167SAPS   H7X18912   3.272   4.704   5.779  1.1518  0.4319 -0.7383
  167SAPS   H7Y18913   3.378   4.821   5.849  0.9443 -1.0824 -0.3548
  167SAPS   C3818914   3.291   4.892   5.667  0.1179 -0.1449 -0.1111
  167SAPS   H8X18915   3.384   4.868   5.611  0.1803  0.3178 -0.2084
  167SAPS   H8Y18916   3.283   5.001   5.691  1.1688 -0.4428  1.8972
  167SAPS   C3918917   3.168   4.856   5.579 -0.0768  0.7133 -0.3987
  167SAPS   H9X18918   3.074   4.871   5.636  1.3196 -0.0078  2.3027
  167SAPS   H9Y18919   3.178   4.745   5.576 -1.3345  0.4648  2.1076
  167SAPS  C31018920   3.166   4.918   5.439  0.4985  0.4169  0.1350
  167SAPS  H10X18921   3.116   4.857   5.360 -0.5270 -0.2171  1.2472
  167SAPS  H10Y18922   3.271   4.925   5.402  0.3875 -0.6322 -0.4359
  167SAPS  C31118923   3.099   5.059   5.431  0.2899 -0.0068 -0.3454
  167SAPS  H11X18924   3.169   5.131   5.479 -2.1397  0.2886  3.1906
  167SAPS  H11Y18925   3.013   5.061   5.501 -0.7089 -0.0250 -1.5341
  167SAPS  C31218926   3.058   5.092   5.292 -0.2935  0.7525  0.3238
  167SAPS  H12X18927   2.993   5.013   5.248  1.2998 -0.9555  0.9147
  167SAPS  H12Y18928   3.154   5.095   5.235 -0.4258 -1.6468 -0.1416
  167SAPS  C31318929   2.989   5.232   5.281 -0.6785 -0.5788  0.0257
  167SAPS  H13X18930   3.051   5.305   5.339 -1.1577 -1.1657  1.3216
  167SAPS  H13Y18931   2.892   5.233   5.335 -1.3618  0.0548 -1.1797
  167SAPS  C31418932   2.966   5.277   5.135 -0.1788  0.4117 -0.2252
  167SAPS  H14X18933   3.062   5.306   5.087 -0.1692 -0.3555 -0.6790
  167SAPS  H14Y18934   2.905   5.370   5.128  2.6117  2.4581  0.8537
  167SAPS  C31518935   2.898   5.171   5.048  0.6591 -0.2747  0.0781
  167SAPS  H15X18936   2.816   5.131   5.113 -0.0367  1.2163  0.1660
  167SAPS  H15Y18937   2.969   5.087   5.035 -0.0580 -0.9135  0.1660
  167SAPS  C31618938   2.839   5.217   4.918  0.9676 -0.0035  0.1085
  167SAPS  H16X18939   2.754   5.285   4.941  1.3793  0.0425  1.6575
  167SAPS  H16Y18940   2.797   5.131   4.862 -0.9701 -0.2292  1.7891
  167SAPS  C31718941   2.942   5.295   4.832  0.2735 -0.1362 -0.5776
  167SAPS  H17X18942   3.018   5.223   4.795  0.9061  1.5004 -2.6273
  167SAPS  H17Y18943   2.996   5.373   4.889  0.8419  1.2705 -2.9092
  167SAPS  C31818944   2.870   5.356   4.710 -0.1342  0.9457  0.5942
  167SAPS  H18X18945   2.824   5.455   4.729 -0.2019  0.9421  0.4499
  167SAPS  H18Y18946   2.807   5.287   4.650  1.2873  0.7385 -0.7443
  167SAPS  H18Z18947   2.946   5.381   4.632 -2.0976  1.8935 -1.1124
  168SAPS     N18948   1.058   5.698   6.820 -0.1818  0.3089  0.2735
  168SAPS   HN118949   1.158   5.727   6.815 -0.2055  0.5420  1.0167
  168SAPS   HN218950   0.998   5.761   6.763 -1.4469  0.8472  2.1166
  168SAPS   HN318951   1.012   5.724   6.910 -0.6309 -0.4176  0.2597
  168SAPS   C1218952   1.055   5.555   6.781  0.1505 -0.9105 -0.9186
  168SAPS  H12A18953   1.086   5.494   6.865  1.1152  0.2721 -0.3965
  168SAPS   C1318954   0.915   5.500   6.745  0.0303  0.3988 -0.0644
  168SAPS  O13A18955   0.827   5.579   6.715  0.2062 -0.0285  0.2806
  168SAPS  O13B18956   0.900   5.375   6.737  0.7088 -0.0069  0.5781
  168SAPS   C1118957   1.141   5.539   6.657  0.4201 -0.6660  0.4193
  168SAPS  H11A18958   1.103   5.605   6.575 -0.3036 -0.8261  0.6165
  168SAPS  H11B18959   1.123   5.433   6.630 -0.3692 -0.2048 -0.9942
  168SAPS     P18960   1.371   5.673   6.662  0.4403  0.2900 -0.1093
  168SAPS   O1318961   1.288   5.796   6.674  0.5931  0.3641  0.3496
  168SAPS   O1418962   1.476   5.658   6.762 -0.5445  0.3563  0.3091
  168SAPS   O1218963   1.283   5.546   6.682  0.4059 -0.2327  0.6893
  168SAPS   O1118964   1.423   5.669   6.511 -0.3571  0.2762  0.5661
  168SAPS    C118965   1.422   5.557   6.425  0.1296  0.2275 -0.3034
  168SAPS    HA18966   1.347   5.477   6.445  2.7477 -2.8589 -1.8790
  168SAPS    HB18967   1.400   5.609   6.330  1.8217  1.8096  0.1194
  168SAPS    C218968   1.554   5.468   6.428 -0.6849  0.4084 -0.0896
  168SAPS    HS18969   1.558   5.435   6.534 -0.8903 -0.0475 -0.2238
  168SAPS   O2118970   1.666   5.547   6.394 -0.3237  0.0132 -0.1363
  168SAPS   C2118971   1.785   5.511   6.448  0.6978 -0.0929  0.5159
  168SAPS   O2218972   1.799   5.426   6.529  0.0218  0.7806  0.9224
  168SAPS   C2218973   1.904   5.594   6.392 -0.2196  0.4872  0.7820
  168SAPS   H2R18974   1.905   5.694   6.441  2.6465  2.2885 -2.4803
  168SAPS   H2S18975   1.994   5.537   6.421 -0.0837  1.0317  1.4693
  168SAPS    C318976   1.545   5.342   6.342  0.0848 -0.3099  0.5015
  168SAPS    HX18977   1.458   5.285   6.383  0.9658  0.8279  4.4007
  168SAPS    HY18978   1.625   5.266   6.356  1.1483  0.6963  0.0567
  168SAPS   O3118979   1.520   5.379   6.202  0.4778  0.7779  0.6138
  168SAPS   C3118980   1.605   5.327   6.115 -0.4533  0.0988  0.5900
  168SAPS   O3218981   1.703   5.260   6.142 -0.4850 -0.1121 -0.3808
  168SAPS   C3218982   1.564   5.352   5.970 -0.6668  0.1363  0.0527
  168SAPS   H2X18983   1.582   5.460   5.953  0.4976  0.2371  1.7444
  168SAPS   H2Y18984   1.457   5.324   5.960 -0.5070 -1.3086  1.9423
  168SAPS   C2318985   1.904   5.617   6.238  0.3099 -0.0222  0.4107
  168SAPS   H3R18986   1.959   5.712   6.222  1.6594 -0.3014  2.8251
  168SAPS   H3S18987   1.796   5.631   6.212  0.5802  0.2681 -0.5902
  168SAPS   C2418988   1.966   5.494   6.174  0.4677  0.3428 -0.6428
  168SAPS   H4R18989   1.927   5.407   6.231 -1.1008  2.0364  1.0289
  168SAPS   H4S18990   2.075   5.483   6.197  0.5901 -3.3318 -2.3822
  168SAPS   C2518991   1.944   5.479   6.029  0.1386  0.2629  0.0125
  168SAPS   H5R18992   1.860   5.417   5.995  1.9119 -0.4172 -3.7452
  168SAPS   C2618993   2.010   5.538   5.930 -0.4611 -0.0965 -0.1247
  168SAPS   H6R18994   1.978   5.521   5.826 -0.3364  1.6934 -0.4762
  168SAPS   C2718995   2.126   5.635   5.952  0.2906  0.0341 -0.5294
  168SAPS   H7R18996   2.118   5.694   6.046  0.0081  0.2892 -0.7159
  168SAPS   H7S18997   2.117   5.713   5.874 -0.1306  0.3103 -0.2051
  168SAPS   C2818998   2.260   5.566   5.959  1.2923  0.2219 -0.8709
  168SAPS   H8R18999   2.253   5.470   6.013 -0.5987 -0.5039 -2.2568
  168SAPS   C2919000   2.369   5.600   5.897  0.0279  0.8644 -0.7635
  168SAPS   H9R19001   2.456   5.532   5.897 -0.3194  0.2691 -3.7043
  168SAPS  C21019002   2.395   5.725   5.819 -0.0095  0.0641 -0.6118
  168SAPS  H10R19003   2.409   5.806   5.894 -0.4791 -1.0979  0.7897
  168SAPS  H10S19004   2.305   5.758   5.765 -0.3915  0.6085  0.3348
  168SAPS  C21119005   2.516   5.717   5.722  0.1630  0.7615  0.5790
  168SAPS  H11R19006   2.609   5.689   5.773 -1.5957 -3.5927  1.8695
  168SAPS  C21219007   2.527   5.748   5.592  0.0315  1.0503  0.2961
  168SAPS  H12R19008   2.623   5.745   5.539 -1.2746 -0.0572 -2.1894
  168SAPS  C21319009   2.414   5.783   5.502  0.6949  0.2724 -0.0848
  168SAPS  H13R19010   2.318   5.764   5.554  1.2657 -1.7914  0.3149
  168SAPS  H13S19011   2.400   5.733   5.403 -0.4924  0.0020  0.2026
  168SAPS  C21419012   2.411   5.938   5.482 -0.4063  0.8466 -0.5772
  168SAPS  H14R19013   2.504   5.974   5.528  0.2025 -1.4286  0.1305
  168SAPS  C21519014   2.320   6.015   5.410 -0.3373  0.2272  0.9881
  168SAPS  H15R19015   2.337   6.124   5.407 -2.4308  0.5985  1.3746
  168SAPS  C21619016   2.199   5.956   5.343 -0.3011  0.3010  0.4876
  168SAPS  H16R19017   2.108   5.991   5.396  0.9213 -0.7390  3.5218
  168SAPS  H16S19018   2.204   5.846   5.338 -1.9877  0.2664 -1.7142
  168SAPS  C21719019   2.186   6.004   5.192  0.2233  0.3142 -0.2868
  168SAPS  H17R19020   2.200   6.114   5.185  0.9976  0.1159 -3.0921
  168SAPS  H17S19021   2.084   5.975   5.160  0.5548 -1.6125  0.2531
  168SAPS  C21819022   2.287   5.942   5.095 -0.9043 -0.1031  0.4829
  168SAPS  H18R19023   2.305   5.833   5.103  0.8291  0.1806  0.9289
  168SAPS  H18S19024   2.383   5.982   5.133 -0.7240  0.3033 -0.3563
  168SAPS  C21919025   2.273   5.992   4.947 -0.5242  0.6487 -0.1985
  168SAPS  H19R19026   2.372   5.995   4.897 -0.3407 -0.6182  0.0728
  168SAPS  H19S19027   2.228   6.094   4.953 -1.0940  0.4911 -1.5366
  168SAPS  C22019028   2.181   5.903   4.863 -0.2327 -0.3734  0.5711
  168SAPS  H20R19029   2.183   5.946   4.761 -0.8353 -0.2370  0.6109
  168SAPS  H20S19030   2.078   5.884   4.901 -0.0777 -1.6784  0.3935
  168SAPS  H20T19031   2.232   5.806   4.847 -0.3515 -0.1893 -1.1202
  168SAPS   C3319032   1.645   5.263   5.865  0.8302  0.6253 -0.4872
  168SAPS   H3X19033   1.620   5.157   5.889  1.4161  0.8854  1.4802
  168SAPS   H3Y19034   1.755   5.261   5.881  0.7096 -1.3159  0.3614
  168SAPS   C3419035   1.610   5.284   5.724 -0.6452  1.1976 -0.1967
  168SAPS   H4X19036   1.649   5.376   5.676  2.3994  0.0587 -0.0828
  168SAPS   H4Y19037   1.499   5.275   5.717 -0.5491  1.5331 -3.4154
  168SAPS   C3519038   1.655   5.162   5.637  0.2464 -1.1546  0.1309
  168SAPS   H5X19039   1.604   5.071   5.674  0.2237 -0.8887  0.7689
  168SAPS   H5Y19040   1.765   5.145   5.642  0.4634  0.3762  1.2655
  168SAPS   C3619041   1.628   5.178   5.487 -0.0368  0.2547 -0.4519
  168SAPS   H6X19042   1.689   5.263   5.451 -0.1715  0.2342 -0.7357
  168SAPS   H6Y19043   1.522   5.210   5.473 -0.4749  0.7268  3.0885
  168SAPS   C3719044   1.662   5.051   5.416 -0.4135 -0.0052  0.3486
  168SAPS   H7X19045   1.605   4.966   5.461 -0.7659  0.1495  0.1944
  168SAPS   H7Y19046   1.770   5.028   5.426 -0.4455 -0.8616 -1.0057
  168SAPS   C3819047   1.643   5.057   5.262 -0.3226 -0.8142 -0.0547
  168SAPS   H8X19048   1.695   5.150   5.233 -0.4757 -0.6053  0.3306
  168SAPS   H8Y19049   1.533   5.066   5.246 -0.3429 -0.6378  0.1704
  168SAPS   C3919050   1.710   4.944   5.195  0.7837 -0.2652  0.1228
  168SAPS   H9X19051   1.664   4.848   5.227 -2.8660  1.0559 -0.6422
  168SAPS   H9Y19052   1.811   4.936   5.240  0.0986  1.7934  2.2310
  168SAPS  C31019053   1.734   4.958   5.045  0.8765  0.2119  0.0021
  168SAPS  H10X19054   1.806   5.040   5.024  2.2378 -1.2799 -1.4600
  168SAPS  H10Y19055   1.633   4.969   4.998  0.5503 -0.0291  0.6319
  168SAPS  C31119056   1.813   4.835   4.996  0.9069  0.1538 -0.0845
  168SAPS  H11X19057   1.781   4.739   5.041 -1.4493  0.9740  0.1509
  168SAPS  H11Y19058   1.913   4.857   5.039  0.2788  0.6084  1.1995
  168SAPS  C31219059   1.834   4.813   4.843  0.0905 -0.0630  0.1893
  168SAPS  H12X19060   1.906   4.729   4.832  0.6200  0.4126 -0.0545
  168SAPS  H12Y19061   1.888   4.900   4.800 -1.3469 -0.2761 -2.2454
  168SAPS  C31319062   1.702   4.796   4.766 -0.2265  0.3801 -0.4290
  168SAPS  H13X19063   1.617   4.802   4.837 -0.0746  0.1868 -0.2307
  168SAPS  H13Y19064   1.698   4.695   4.719  0.0680 -0.8971  2.1021
  168SAPS  C31419065   1.688   4.887   4.651 -0.6429  0.2554  0.1187
  168SAPS  H14X19066   1.725   4.844   4.555  0.1735  0.4637  0.3366
  168SAPS  H14Y19067   1.748   4.979   4.663  0.4745 -0.7185  2.8395
  168SAPS  C31519068   1.535   4.924   4.627 -0.1936 -0.4641 -0.3860
  168SAPS  H15X19069   1.487   4.944   4.725  1.8619 -1.3938  0.8844
  168SAPS  H15Y19070   1.479   4.841   4.581 -1.4678  0.1433  0.0386
  168SAPS  C31619071   1.520   5.049   4.544  0.3520  0.8634  0.0082
  168SAPS  H16X19072   1.561   5.133   4.606  0.6639 -0.1808  1.2546
  168SAPS  H16Y19073   1.410   5.055   4.533  0.2649  0.4396  0.6181
  168SAPS  C31719074   1.574   5.040   4.406  0.0485  0.0482  0.3017
  168SAPS  H17X19075   1.550   4.954   4.340  2.6780 -0.5969  0.0611
  168SAPS  H17Y19076   1.683   5.024   4.417 -0.2191 -1.8999  0.4062
  168SAPS  C31819077   1.551   5.168   4.323 -0.7079 -0.0648  1.1350
  168SAPS  H18X19078   1.625   5.173   4.240 -1.9113 -3.8416 -0.3875
  168SAPS  H18Y19079   1.570   5.254   4.390  0.9563  1.1718 -0.8011
  168SAPS  H18Z19080   1.449   5.174   4.281 -2.4569 -1.8982  4.6638
  169SAPS     N19081   2.557   2.673   6.911  0.3703  0.0234 -0.3926
  169SAPS   HN119082   2.469   2.634   6.949 -0.8585  0.9814 -2.1395
  169SAPS   HN219083   2.521   2.741   6.842 -3.0409 -1.5136 -0.3276
  169SAPS   HN319084   2.598   2.593   6.858  0.6537  0.2939 -0.5825
  169SAPS   C1219085   2.658   2.717   7.015 -0.3902  0.6530  0.5411
  169SAPS  H12A19086   2.625   2.806   7.068  2.0097  1.3670  0.9602
  169SAPS   C1319087   2.691   2.621   7.131 -0.0997 -0.0853  0.0210
  169SAPS  O13A19088   2.659   2.502   7.110  0.4577 -0.1173 -0.0854
  169SAPS  O13B19089   2.761   2.653   7.231 -0.4347  0.0699 -0.4872
  169SAPS   C1119090   2.794   2.761   6.945 -0.2018 -0.7335  0.5259
  169SAPS  H11A19091   2.846   2.673   6.901 -0.3801  0.4296 -2.1549
  169SAPS  H11B19092   2.865   2.807   7.017 -0.5390 -0.9093  0.9753
  169SAPS     P19093   2.872   2.883   6.725 -0.0482  0.2904  0.0198
  169SAPS   O1319094   2.792   2.946   6.618 -0.6428  0.2847  0.5112
  169SAPS   O1419095   2.987   2.952   6.793 -0.1686 -0.2963 -0.1098
  169SAPS   O1219096   2.777   2.859   6.842  0.3734  0.0616 -0.9784
  169SAPS   O1119097   2.920   2.741   6.682  0.3007  0.5676 -0.2263
  169SAPS    C119098   2.834   2.649   6.612 -0.7957  0.8095 -0.6605
  169SAPS    HA19099   2.878   2.547   6.618 -0.4776  0.5315 -4.6873
  169SAPS    HB19100   2.731   2.638   6.653  0.1147  1.2940  1.9259
  169SAPS    C219101   2.839   2.667   6.459  0.7686  0.0871  0.6741
  169SAPS    HS19102   2.805   2.769   6.430 -1.8949 -1.0788 -0.6197
  169SAPS   O2119103   2.758   2.567   6.389 -0.1755 -0.2471 -0.3710
  169SAPS   C2119104   2.632   2.592   6.392 -0.1817 -0.4565  0.0380
  169SAPS   O2219105   2.573   2.682   6.449 -0.1259 -0.4615 -0.8152
  169SAPS   C2219106   2.543   2.484   6.319 -0.1066  0.0965 -0.1923
  169SAPS   H2R19107   2.618   2.406   6.294  0.4620  0.2436  0.9839
  169SAPS   H2S19108   2.467   2.449   6.392  1.6602 -0.9947  1.1701
  169SAPS    C319109   2.986   2.656   6.412 -0.1462 -0.0868  0.3978
  169SAPS    HX19110   3.012   2.548   6.422  2.4034  0.4406  0.1681
  169SAPS    HY19111   3.056   2.716   6.474  0.6305 -0.7349  0.1750
  169SAPS   O3119112   3.009   2.714   6.279  0.0815 -0.0985  0.0387
  169SAPS   C3119113   3.025   2.626   6.178  0.8550  0.4835 -0.0469
  169SAPS   O3219114   3.024   2.508   6.195 -0.0326  0.2884  0.7712
  169SAPS   C3219115   3.051   2.690   6.038 -0.1862  0.0608  0.1342
  169SAPS   H2X19116   3.123   2.774   6.052 -0.1388  0.1477 -0.5899
  169SAPS   H2Y19117   2.954   2.731   6.004 -0.1681 -0.7005 -0.8807
  169SAPS   C2319118   2.455   2.535   6.200  0.1956  0.0842  0.2252
  169SAPS   H3R19119   2.509   2.616   6.146  1.8674 -2.6221 -2.4831
  169SAPS   H3S19120   2.354   2.564   6.236 -0.4339  1.1046 -2.1464
  169SAPS   C2419121   2.419   2.437   6.089 -0.1345 -0.2203  0.1121
  169SAPS   H4R19122   2.338   2.479   6.026 -0.6483 -0.6550  0.4707
  169SAPS   H4S19123   2.381   2.346   6.141  0.8499 -0.0210  1.2274
  169SAPS   C2519124   2.541   2.403   6.008  0.3892  0.5831 -0.0114
  169SAPS   H5R19125   2.624   2.361   6.067 -1.2091 -1.0004  1.1784
  169SAPS   C2619126   2.562   2.433   5.879 -0.2673  0.3684  0.4487
  169SAPS   H6R19127   2.657   2.397   5.835 -0.4006  0.1752  0.3171
  169SAPS   C2719128   2.474   2.497   5.774  0.1480  0.4639  0.2648
  169SAPS   H7R19129   2.531   2.588   5.746  0.8746  0.1228  0.6039
  169SAPS   H7S19130   2.375   2.534   5.810  0.1193  1.6471 -0.9602
  169SAPS   C2819131   2.450   2.402   5.652 -0.2690  0.5635 -0.0313
  169SAPS   H8R19132   2.351   2.356   5.640 -0.2674  0.1332  1.4190
  169SAPS   C2919133   2.542   2.389   5.554  0.1048  0.0811 -0.3104
  169SAPS   H9R19134   2.520   2.332   5.463 -0.8312 -0.5698  0.3083
  169SAPS  C21019135   2.682   2.451   5.552 -0.5986 -0.0527  0.5360
  169SAPS  H10R19136   2.704   2.516   5.639 -0.4683  0.0259  0.4440
  169SAPS  H10S19137   2.694   2.514   5.461 -0.0839  1.3647  1.5512
  169SAPS  C21119138   2.782   2.334   5.546 -0.1156  0.5760  0.8028
  169SAPS  H11R19139   2.789   2.274   5.639 -1.8175 -0.9968 -0.0213
  169SAPS  C21219140   2.860   2.288   5.443  0.5321  0.0006 -0.1098
  169SAPS  H12R19141   2.924   2.199   5.454 -1.0802 -1.1655  0.2465
  169SAPS  C21319142   2.856   2.343   5.306  0.0435 -0.4733  0.0983
  169SAPS  H13R19143   2.931   2.277   5.258  2.5238  0.4739  2.4599
  169SAPS  H13S19144   2.902   2.444   5.303  1.8462 -1.2076  1.5633
  169SAPS  C21419145   2.725   2.323   5.229 -0.4299 -0.8355 -0.7003
  169SAPS  H14R19146   2.698   2.217   5.225  0.0621 -0.9361 -2.0251
  169SAPS  C21519147   2.646   2.419   5.170 -0.9814 -0.0294 -0.5559
  169SAPS  H15R19148   2.562   2.386   5.107 -0.4771 -0.9184 -0.7892
  169SAPS  C21619149   2.674   2.565   5.154 -0.1669 -0.7522  0.1281
  169SAPS  H16R19150   2.784   2.580   5.166 -0.2755 -0.6425  1.0202
  169SAPS  H16S19151   2.623   2.618   5.236 -3.2226 -2.1204 -0.7632
  169SAPS  C21719152   2.616   2.616   5.019 -0.1027  0.0799 -0.0295
  169SAPS  H17R19153   2.626   2.726   5.023 -1.3404  0.3318 -2.1038
  169SAPS  H17S19154   2.508   2.597   5.001 -0.5478  0.7450  1.7707
  169SAPS  C21819155   2.714   2.585   4.898  0.0477 -0.3572  0.3620
  169SAPS  H18R19156   2.721   2.477   4.875  2.3562  0.3259 -2.7253
  169SAPS  H18S19157   2.815   2.617   4.931 -0.0236  1.5238 -1.0733
  169SAPS  C21919158   2.690   2.663   4.763 -0.3563  0.3313 -0.6517
  169SAPS  H19R19159   2.751   2.610   4.688 -0.9697 -0.2695 -0.7299
  169SAPS  H19S19160   2.713   2.772   4.763 -1.0217  0.4819 -0.2545
  169SAPS  C22019161   2.543   2.670   4.724 -0.4860  0.6185  0.3481
  169SAPS  H20R19162   2.540   2.703   4.618  0.9695 -2.1378 -0.6410
  169SAPS  H20S19163   2.493   2.743   4.791  0.0529  0.7782  0.5800
  169SAPS  H20T19164   2.506   2.566   4.740  0.9700  0.2547  1.5850
  169SAPS   C3319165   3.112   2.581   5.953  0.7189  1.5580 -0.6695
  169SAPS   H3X19166   3.054   2.486   5.949  1.6602  0.4759  4.5073
  169SAPS   H3Y19167   3.218   2.559   5.978 -0.0213 -1.6077  0.2484
  169SAPS   C3419168   3.106   2.637   5.817  0.2455  0.2740 -0.0081
  169SAPS   H4X19169   3.189   2.598   5.755 -1.0420 -1.6696 -0.5797
  169SAPS   H4Y19170   3.118   2.747   5.829 -0.2875  0.4537 -0.9412
  169SAPS   C3519171   2.962   2.611   5.758 -0.7714  0.4723 -0.0064
  169SAPS   H5X19172   2.886   2.642   5.833 -0.8649 -1.9220  0.9860
  169SAPS   H5Y19173   2.950   2.502   5.737 -0.1637  0.5396 -0.7290
  169SAPS   C3619174   2.930   2.693   5.637 -0.1233 -0.2123  0.2481
  169SAPS   H6X19175   2.943   2.801   5.658 -0.3162 -0.1211 -0.0823
  169SAPS   H6Y19176   2.824   2.678   5.605 -0.2024  1.2934 -0.2981
  169SAPS   C3719177   3.013   2.640   5.519 -0.3223  0.1087 -0.1059
  169SAPS   H7X19178   2.989   2.537   5.486  1.4234 -0.2267 -0.4416
  169SAPS   H7Y19179   3.123   2.638   5.537 -0.5660 -2.3633  1.6125
  169SAPS   C3819180   2.989   2.731   5.392  0.4341  0.4670 -1.1060
  169SAPS   H8X19181   3.016   2.834   5.425  0.1270 -0.4297  2.4221
  169SAPS   H8Y19182   2.881   2.729   5.366  0.9873  0.9520 -3.7244
  169SAPS   C3919183   3.070   2.692   5.273  0.3872  0.5220 -0.4830
  169SAPS   H9X19184   3.045   2.588   5.245  2.2746  0.1808 -1.0230
  169SAPS   H9Y19185   3.180   2.695   5.286  0.9568 -1.4396 -3.7416
  169SAPS  C31019186   3.025   2.781   5.162 -0.2137  0.5719 -0.4557
  169SAPS  H10X19187   3.047   2.890   5.166 -0.4796  0.6317 -0.5785
  169SAPS  H10Y19188   2.915   2.770   5.145 -0.2101  0.0428 -0.1590
  169SAPS  C31119189   3.084   2.729   5.032  0.1292  0.5503  0.1464
  169SAPS  H11X19190   3.053   2.624   5.017 -0.6359  0.7350  0.3856
  169SAPS  H11Y19191   3.194   2.728   5.049 -0.1034  1.1156  1.9671
  169SAPS  C31219192   3.029   2.807   4.907  0.3319 -0.2220 -0.0038
  169SAPS  H12X19193   3.080   2.905   4.905 -0.0956 -0.0009 -0.1926
  169SAPS  H12Y19194   2.919   2.816   4.899  0.3170 -0.4188 -0.0409
  169SAPS  C31319195   3.055   2.743   4.768 -0.4835  0.4084 -0.0181
  169SAPS  H13X19196   3.002   2.815   4.703  0.6942  0.1004 -1.3682
  169SAPS  H13Y19197   2.998   2.648   4.772  0.6373 -0.3323 -0.8388
  169SAPS  C31419198   3.200   2.725   4.735 -0.3902 -0.3140  0.6217
  169SAPS  H14X19199   3.245   2.637   4.785 -0.6432  0.3377  2.0482
  169SAPS  H14Y19200   3.254   2.808   4.784  0.5926 -0.5609 -0.0094
  169SAPS  C31519201   3.229   2.721   4.588 -0.1758 -0.1205 -0.2832
  169SAPS  H15X19202   3.175   2.801   4.533 -0.1068  0.5432  0.5871
  169SAPS  H15Y19203   3.184   2.629   4.545 -3.6099  1.2473  0.0222
  169SAPS  C31619204   3.374   2.713   4.564  0.1479  0.1879 -0.0240
  169SAPS  H16X19205   3.428   2.800   4.607 -1.8655  1.6482 -0.3595
  169SAPS  H16Y19206   3.391   2.716   4.454 -1.7193 -1.7975 -0.4316
  169SAPS  C31719207   3.430   2.581   4.605 -0.0165 -0.5705  0.4473
  169SAPS  H17X19208   3.372   2.496   4.565  1.3512 -0.1729 -2.6449
  169SAPS  H17Y19209   3.436   2.572   4.716  1.5578  0.6944  0.4959
  169SAPS  C31819210   3.577   2.554   4.558 -0.4639 -0.0260  0.2500
  169SAPS  H18X19211   3.567   2.548   4.447 -1.9937 -1.5510  0.4205
  169SAPS  H18Y19212   3.623   2.458   4.590  0.7550 -0.0220 -1.3777
  169SAPS  H18Z19213   3.635   2.644   4.587 -2.4791  2.3253 -2.3703
  170SAPS     N19214   5.257   0.250   6.733 -0.1789  0.1634 -0.2799
  170SAPS   HN119215   5.269   0.228   6.834  1.3208  1.5515 -0.1214
  170SAPS   HN219216   5.205   0.340   6.732  2.0219  1.5040 -0.3678
  170SAPS   HN319217   5.201   0.178   6.684  0.7137 -0.1599 -0.8514
  170SAPS   C1219218   5.393   0.276   6.673  0.4372 -0.1787 -0.0974
  170SAPS  H12A19219   5.381   0.296   6.567  0.5812 -1.4705 -0.3700
  170SAPS   C1319220   5.466   0.395   6.745  0.0768  0.1494  0.4367
  170SAPS  O13A19221   5.431   0.440   6.858  0.0875  0.0466 -0.6014
  170SAPS  O13B19222   5.575   0.428   6.694 -0.3803 -0.8211 -0.4363
  170SAPS   C1119223   5.476   0.147   6.682  0.3047  0.2494  0.2215
  170SAPS  H11A19224   5.574   0.158   6.631  0.1236  0.4873 -0.0805
  170SAPS  H11B19225   5.429   0.072   6.615  0.6821 -0.8542  1.1660
  170SAPS     P19226   5.614   0.048   6.881 -0.0564  0.3046 -0.1808
  170SAPS   O1319227   5.688   0.171   6.913  0.1301  0.3143 -0.2730
  170SAPS   O1419228   5.588  -0.049   6.992 -0.3110 -0.3925 -0.7929
  170SAPS   O1219229   5.476   0.091   6.812 -0.3827  0.6904 -0.4946
  170SAPS   O1119230   5.689  -0.024   6.766 -0.2304 -0.1814  0.5698
  170SAPS    C119231   5.665  -0.165   6.737  0.6009 -0.5251 -0.2316
  170SAPS    HA19232   5.716  -0.224   6.817  1.2069  0.1496 -0.1140
  170SAPS    HB19233   5.556  -0.185   6.734  0.2950  0.2134  2.6955
  170SAPS    C219234   5.714  -0.196   6.591  0.6255  1.1003 -0.0818
  170SAPS    HS19235   5.824  -0.198   6.572  0.6027  2.1264 -0.3520
  170SAPS   O2119236   5.644  -0.110   6.504 -0.3590 -0.5795  0.1845
  170SAPS   C2119237   5.705  -0.023   6.433 -0.4148 -0.8526 -0.4717
  170SAPS   O2219238   5.825   0.000   6.439  0.3072  0.1524  0.2515
  170SAPS   C2219239   5.604   0.047   6.343 -0.2434  0.3013  0.2287
  170SAPS   H2R19240   5.506  -0.005   6.352  0.1974 -0.6034 -0.0655
  170SAPS   H2S19241   5.586   0.149   6.383 -1.4724  0.4167 -0.5623
  170SAPS    C319242   5.672  -0.349   6.558 -0.2159 -0.2051  0.4985
  170SAPS    HX19243   5.566  -0.366   6.585 -0.3470  0.2565  0.2730
  170SAPS    HY19244   5.738  -0.406   6.627  1.2645 -1.0028 -1.4801
  170SAPS   O3119245   5.706  -0.389   6.422 -0.3988 -0.0502 -0.5987
  170SAPS   C3119246   5.674  -0.513   6.397  0.3296  0.5909 -0.4243
  170SAPS   O3219247   5.620  -0.593   6.474  0.2539 -0.2507  0.3219
  170SAPS   C3219248   5.698  -0.555   6.251 -0.1038  0.1229  0.0574
  170SAPS   H2X19249   5.717  -0.664   6.242 -0.8669  0.0938 -1.3464
  170SAPS   H2Y19250   5.789  -0.511   6.206 -1.1319  1.2059 -1.0234
  170SAPS   C2319251   5.654   0.047   6.193 -0.1612 -0.5264  0.5967
  170SAPS   H3R19252   5.749   0.103   6.185 -0.7554  0.2631 -1.9642
  170SAPS   H3S19253   5.574   0.088   6.127 -0.4046  0.7753  1.6592
  170SAPS   C2419254   5.650  -0.096   6.128 -0.2982  0.5658 -0.0560
  170SAPS   H4R19255   5.642  -0.081   6.018  0.2859  1.5859  0.0334
  170SAPS   H4S19256   5.562  -0.151   6.166  0.2208  0.3841  0.9206
  170SAPS   C2519257   5.770  -0.188   6.152  1.2184 -0.3720 -0.0944
  170SAPS   H5R19258   5.799  -0.200   6.258  0.4782  1.6297  0.3700
  170SAPS   C2619259   5.845  -0.251   6.065 -0.4229  0.1451  0.4060
  170SAPS   H6R19260   5.921  -0.323   6.101  0.7373  1.6239  1.0059
  170SAPS   C2719261   5.824  -0.250   5.919  0.6450  0.4347 -0.0299
  170SAPS   H7R19262   5.850  -0.153   5.871 -2.0959  0.7388 -1.0537
  170SAPS   H7S19263   5.716  -0.254   5.897  0.7403  2.0232 -0.9484
  170SAPS   C2819264   5.885  -0.367   5.850 -0.1491  0.0940  0.1414
  170SAPS   H8R19265   5.946  -0.440   5.904  1.0578  1.5413  0.8127
  170SAPS   C2919266   5.880  -0.382   5.718 -0.2283  0.9057  0.3460
  170SAPS   H9R19267   5.925  -0.474   5.676 -1.9553  0.3420 -0.3498
  170SAPS  C21019268   5.826  -0.288   5.617  0.4021  0.8491  0.3004
  170SAPS  H10R19269   5.741  -0.237   5.667 -0.3824 -1.7174  1.7592
  170SAPS  H10S19270   5.783  -0.343   5.531  1.5443  1.1909 -0.5295
  170SAPS  C21119271   5.927  -0.182   5.582  0.6553 -0.2776  0.5680
  170SAPS  H11R19272   6.004  -0.167   5.660  0.1043 -2.4175  1.6070
  170SAPS  C21219273   5.940  -0.120   5.462 -0.0560 -0.7453  0.5075
  170SAPS  H12R19274   6.021  -0.048   5.445  1.1930 -2.2414 -0.2467
  170SAPS  C21319275   5.851  -0.128   5.345  0.5349 -0.4116  0.5846
  170SAPS  H13R19276   5.850  -0.047   5.270  1.0787 -1.6751 -0.8373
  170SAPS  H13S19277   5.755  -0.126   5.402  1.0124 -0.7913  1.4239
  170SAPS  C21419278   5.863  -0.259   5.271 -0.2050 -0.0269  0.9527
  170SAPS  H14R19279   5.854  -0.348   5.336  0.7036 -0.3726  0.6252
  170SAPS  C21519280   5.897  -0.276   5.142 -0.9624 -0.2465 -0.3801
  170SAPS  H15R19281   5.910  -0.378   5.103  1.4935  0.2851 -1.1686
  170SAPS  C21619282   5.932  -0.162   5.046 -0.8416 -0.8903  0.6573
  170SAPS  H16R19283   6.021  -0.181   4.982 -1.2573 -0.2047 -0.1326
  170SAPS  H16S19284   5.963  -0.074   5.106 -0.9883 -1.1571  1.1295
  170SAPS  C21719285   5.815  -0.132   4.955 -0.2135 -0.0575  0.1300
  170SAPS  H17R19286   5.720  -0.121   5.012 -0.4580  0.7880 -0.4187
  170SAPS  H17S19287   5.808  -0.214   4.881  4.1346 -2.2255  1.7373
  170SAPS  C21819288   5.824  -0.003   4.865  0.1135 -0.4203 -0.3018
  170SAPS  H18R19289   5.904  -0.008   4.789  0.4378 -0.7697  0.0539
  170SAPS  H18S19290   5.857   0.073   4.939  1.6124 -0.9305 -0.4076
  170SAPS  C21919291   5.700   0.024   4.792  0.2259  0.0923  0.0730
  170SAPS  H19R19292   5.704   0.127   4.750 -2.3626  0.2551  0.0707
  170SAPS  H19S19293   5.614   0.030   4.863 -0.2704  1.1760 -0.5949
  170SAPS  C22019294   5.657  -0.083   4.683 -0.0754 -0.1742  0.0837
  170SAPS  H20R19295   5.581  -0.049   4.609 -1.6967  0.6536  2.0257
  170SAPS  H20S19296   5.639  -0.178   4.738 -0.1915 -0.1486  0.0902
  170SAPS  H20T19297   5.744  -0.098   4.615  1.1795  0.7207  1.4222
  170SAPS   C3319298   5.577  -0.514   6.167 -0.6326 -0.2987  0.6605
  170SAPS   H3X19299   5.565  -0.406   6.148 -0.9863 -0.4850 -0.2313
  170SAPS   H3Y19300   5.485  -0.551   6.218 -1.4945  1.1074  0.1622
  170SAPS   C3419301   5.577  -0.580   6.025 -0.2316  0.4083 -0.4124
  170SAPS   H4X19302   5.597  -0.689   6.026 -2.5067 -0.0619 -0.0913
  170SAPS   H4Y19303   5.648  -0.528   5.957  0.7177 -0.9796 -0.5072
  170SAPS   C3519304   5.432  -0.556   5.975 -0.3010 -0.2096  0.6249
  170SAPS   H5X19305   5.414  -0.446   5.967 -0.2212 -0.2797 -0.7333
  170SAPS   H5Y19306   5.362  -0.594   6.052  0.5455 -0.8213  1.1023
  170SAPS   C3619307   5.398  -0.616   5.834 -0.2992  0.5303  0.8576
  170SAPS   H6X19308   5.306  -0.564   5.798 -0.6516 -0.6145  0.0512
  170SAPS   H6Y19309   5.381  -0.725   5.848 -2.5868  0.4457 -1.7113
  170SAPS   C3719310   5.518  -0.604   5.734  0.4503 -0.1204 -0.5221
  170SAPS   H7X19311   5.600  -0.670   5.772 -1.2137 -0.7371  2.2417
  170SAPS   H7Y19312   5.557  -0.501   5.744  0.9178 -0.4929  2.1027
  170SAPS   C3819313   5.474  -0.632   5.594  0.4987 -0.4243 -0.1503
  170SAPS   H8X19314   5.386  -0.570   5.565  0.5327 -0.2545  0.0979
  170SAPS   H8Y19315   5.434  -0.735   5.602 -1.2471  0.3012  1.3036
  170SAPS   C3919316   5.590  -0.639   5.489  0.0874 -0.4088 -0.1136
  170SAPS   H9X19317   5.669  -0.713   5.514  2.1286  2.0677  1.1779
  170SAPS   H9Y19318   5.627  -0.534   5.490 -0.7597 -0.0838 -1.1036
  170SAPS  C31019319   5.544  -0.665   5.349  0.3856  0.3576 -0.3048
  170SAPS  H10X19320   5.468  -0.587   5.329 -1.1344 -1.0240 -0.2016
  170SAPS  H10Y19321   5.488  -0.760   5.332  1.6082 -0.7864  1.6812
  170SAPS  C31119322   5.643  -0.666   5.233 -0.5574 -0.9937 -0.3501
  170SAPS  H11X19323   5.723  -0.737   5.262  1.4086  0.6292 -1.5293
  170SAPS  H11Y19324   5.700  -0.573   5.211 -0.3630 -0.7707  1.0361
  170SAPS  C31219325   5.584  -0.719   5.105  0.5800  0.5878  0.4002
  170SAPS  H12X19326   5.511  -0.647   5.062  0.7470  1.6369  1.8252
  170SAPS  H12Y19327   5.534  -0.816   5.125 -0.3584  0.9918  0.1029
  170SAPS  C31319328   5.688  -0.728   4.990 -0.4091  0.7622  0.1220
  170SAPS  H13X19329   5.766  -0.801   5.020 -0.1348  1.0334  0.0614
  170SAPS  H13Y19330   5.734  -0.628   4.977 -0.2949  0.5476 -1.1816
  170SAPS  C31419331   5.618  -0.761   4.857 -0.1987 -0.2220  0.0696
  170SAPS  H14X19332   5.548  -0.676   4.841  1.5412  1.2082 -0.1992
  170SAPS  H14Y19333   5.562  -0.856   4.875  1.1777 -0.8293  1.3794
  170SAPS  C31519334   5.702  -0.772   4.733  0.3608  0.0255 -0.2026
  170SAPS  H15X19335   5.795  -0.817   4.774  0.5040  0.8613  0.4200
  170SAPS  H15Y19336   5.728  -0.675   4.685  0.5688 -0.0869 -0.3216
  170SAPS  C31619337   5.636  -0.857   4.634  0.1813  0.0779 -0.3563
  170SAPS  H16X19338   5.542  -0.807   4.601  0.2052  0.7062  0.4932
  170SAPS  H16Y19339   5.607  -0.949   4.688  3.4563  0.7085  2.9308
  170SAPS  C31719340   5.734  -0.886   4.516  0.0187  0.0217 -0.2776
  170SAPS  H17X19341   5.824  -0.924   4.568  1.0044  0.8140 -1.3498
  170SAPS  H17Y19342   5.744  -0.787   4.467  0.5674 -0.4504 -1.1507
  170SAPS  C31819343   5.688  -0.990   4.413 -0.1828  0.1707 -0.4927
  170SAPS  H18X19344   5.764  -0.988   4.332  0.0175 -1.0063 -0.3374
  170SAPS  H18Y19345   5.583  -0.983   4.376 -0.4456 -0.4641  0.1150
  170SAPS  H18Z19346   5.697  -1.087   4.465 -2.3422  1.0365  1.7305
  171SAPS     N19347   4.651   6.039   7.255 -0.0464  0.5222  0.1401
  171SAPS   HN119348   4.583   6.009   7.182  0.2837 -3.3277  1.1542
  171SAPS   HN219349   4.628   6.003   7.350 -0.2940 -0.6483 -0.3420
  171SAPS   HN319350   4.662   6.142   7.258 -2.3273  0.7916  1.2311
  171SAPS   C1219351   4.783   5.968   7.210 -0.1257 -0.2190  0.3620
  171SAPS  H12A19352   4.859   6.005   7.277  1.0639  0.9123 -1.5198
  171SAPS   C1319353   4.784   5.815   7.228  0.7107  0.2406 -0.5430
  171SAPS  O13A19354   4.681   5.753   7.267 -0.0025 -0.0562  0.6028
  171SAPS  O13B19355   4.897   5.758   7.225 -0.2673  0.3610 -0.5475
  171SAPS   C1119356   4.820   6.005   7.066 -0.2677  0.2880 -0.6366
  171SAPS  H11A19357   4.752   5.957   6.992  0.4462 -1.0901 -0.4206
  171SAPS  H11B19358   4.925   5.970   7.060  0.0800  1.3703 -1.1338
  171SAPS     P19359   4.943   6.243   7.035 -0.3763  0.0083  0.1962
  171SAPS   O1319360   4.883   6.358   6.967  0.0580 -0.8108 -0.0187
  171SAPS   O1419361   5.024   6.251   7.161  0.5030  0.1915 -0.0210
  171SAPS   O1219362   4.824   6.143   7.057  0.5558  0.2145  0.3223
  171SAPS   O1119363   5.028   6.173   6.926 -0.8596 -0.6568 -0.0001
  171SAPS    C119364   5.003   6.174   6.784  0.3642  0.4214 -0.2359
  171SAPS    HA19365   4.976   6.278   6.758  0.1042  0.3976 -0.0622
  171SAPS    HB19366   5.102   6.155   6.738  0.4563  2.1087 -0.7923
  171SAPS    C219367   4.902   6.064   6.743  0.1215  0.2051  0.4869
  171SAPS    HS19368   4.809   6.067   6.804  0.8600 -0.4553  1.6607
  171SAPS   O2119369   4.968   5.935   6.757  0.4724 -0.0189  0.0062
  171SAPS   C2119370   4.882   5.824   6.752  1.3499  0.6142 -0.5234
  171SAPS   O2219371   4.762   5.830   6.734  0.2404 -0.0723  0.1513
  171SAPS   C2219372   4.951   5.693   6.766  0.0634 -0.6214 -0.4577
  171SAPS   H2R19373   5.031   5.707   6.842 -0.5266 -0.8406  0.2194
  171SAPS   H2S19374   4.884   5.608   6.793  0.2920  0.1518  2.9769
  171SAPS    C319375   4.860   6.093   6.598 -0.0438  0.1333  0.1051
  171SAPS    HX19376   4.792   6.011   6.566  0.6687 -0.1316 -0.7478
  171SAPS    HY19377   4.955   6.094   6.540  1.6455 -1.3058  2.6704
  171SAPS   O3119378   4.803   6.222   6.566 -0.2404  0.4035  0.0235
  171SAPS   C3119379   4.672   6.238   6.599  0.4178  0.7677 -0.0910
  171SAPS   O3219380   4.603   6.164   6.658  0.1802 -0.1318  0.3025
  171SAPS   C3219381   4.626   6.374   6.553  0.3215 -0.7740 -0.1096
  171SAPS   H2X19382   4.522   6.389   6.591  0.1181 -1.3090 -0.4506
  171SAPS   H2Y19383   4.614   6.370   6.443  0.5681  0.3706 -0.2006
  171SAPS   C2319384   5.009   5.650   6.631 -0.0381 -0.6601  0.2436
  171SAPS   H3R19385   5.098   5.585   6.649 -0.5107 -1.4621 -0.2412
  171SAPS   H3S19386   5.059   5.734   6.578  1.7182 -1.0469  1.2202
  171SAPS   C2419387   4.909   5.582   6.530 -0.7260  0.6720 -0.3426
  171SAPS   H4R19388   4.878   5.481   6.565 -2.4637  0.9479 -0.9505
  171SAPS   H4S19389   4.968   5.559   6.439  0.2641 -4.8058  1.3060
  171SAPS   C2519390   4.789   5.660   6.476 -0.2078 -0.2975  0.1384
  171SAPS   H5R19391   4.698   5.653   6.538 -1.8756  0.8444 -2.0505
  171SAPS   C2619392   4.784   5.752   6.376  0.1565 -0.0513  0.7327
  171SAPS   H6R19393   4.690   5.792   6.335 -0.3177 -0.3249  1.5102
  171SAPS   C2719394   4.899   5.785   6.289  0.0678  0.8010  0.1321
  171SAPS   H7R19395   4.895   5.716   6.202  1.7957 -1.3940  1.6908
  171SAPS   H7S19396   4.997   5.770   6.338 -0.2863 -1.8487  0.1814
  171SAPS   C2819397   4.896   5.926   6.240  0.6435  0.3591  0.5230
  171SAPS   H8R19398   4.893   5.989   6.330 -1.1247  0.3611  0.5072
  171SAPS   C2919399   4.905   5.970   6.113 -0.1531  0.4376  0.0153
  171SAPS   H9R19400   4.886   6.077   6.102  0.3988  0.4805 -0.5171
  171SAPS  C21019401   4.923   5.892   5.982  0.6529  0.0186  0.8057
  171SAPS  H10R19402   4.889   5.788   5.998 -0.8578  0.4097  0.3747
  171SAPS  H10S19403   5.027   5.895   5.943  0.5176  0.4969  0.4644
  171SAPS  C21119404   4.845   5.951   5.858  0.2479  0.3119  0.2472
  171SAPS  H11R19405   4.743   5.915   5.843  0.2892 -0.5483  1.7933
  171SAPS  C21219406   4.900   6.039   5.772  0.2993 -1.4015 -0.4505
  171SAPS  H12R19407   4.841   6.074   5.687 -3.3706 -2.4778  1.4365
  171SAPS  C21319408   5.038   6.087   5.779 -0.4738 -0.1841  0.0462
  171SAPS  H13R19409   5.087   6.005   5.722 -2.1477 -1.4535  0.3683
  171SAPS  H13S19410   5.092   6.085   5.876  3.1540  0.7813 -1.7836
  171SAPS  C21419411   5.076   6.215   5.711 -0.1101 -0.9955 -0.2739
  171SAPS  H14R19412   5.080   6.305   5.774  0.0434  0.4620 -2.2640
  171SAPS  C21519413   5.136   6.232   5.596 -0.2666 -0.0391  0.2181
  171SAPS  H15R19414   5.186   6.327   5.575 -1.2263  0.0615 -1.8647
  171SAPS  C21619415   5.148   6.128   5.492 -0.0284 -0.3040  0.2552
  171SAPS  H16R19416   5.090   6.039   5.523 -0.0365 -1.2803 -2.2846
  171SAPS  H16S19417   5.249   6.082   5.491  0.3569  0.4553 -1.8094
  171SAPS  C21719418   5.090   6.168   5.350 -0.6574  0.4128 -0.2568
  171SAPS  H17R19419   4.987   6.211   5.352 -0.6260  0.5538 -1.2465
  171SAPS  H17S19420   5.079   6.068   5.302 -0.6635  0.4238 -0.2785
  171SAPS  C21819421   5.182   6.262   5.270  0.1175  0.1653 -0.4556
  171SAPS  H18R19422   5.273   6.208   5.236 -1.0744 -1.2150 -1.5574
  171SAPS  H18S19423   5.188   6.361   5.321 -3.7764 -0.5556  1.7680
  171SAPS  C21919424   5.124   6.300   5.126  0.2273 -0.1132 -1.2637
  171SAPS  H19R19425   5.197   6.366   5.075 -0.6562  0.9096 -1.2493
  171SAPS  H19S19426   5.026   6.351   5.137  0.4612  0.1540 -0.4139
  171SAPS  C22019427   5.102   6.175   5.049 -0.5823  0.4757 -0.1544
  171SAPS  H20R19428   5.067   6.085   5.104  0.0583  0.8573  0.9122
  171SAPS  H20S19429   5.202   6.146   5.010 -1.1624 -1.6468 -0.1515
  171SAPS  H20T19430   5.032   6.188   4.964 -1.2686 -2.0839 -0.0616
  171SAPS   C3319431   4.716   6.496   6.598 -0.0134  0.0665 -1.0558
  171SAPS   H3X19432   4.816   6.474   6.555  0.5069 -2.0714  1.0446
  171SAPS   H3Y19433   4.716   6.504   6.709 -0.3137 -0.2481 -1.0347
  171SAPS   C3419434   4.675   6.636   6.553  0.2760  0.8779  0.1747
  171SAPS   H4X19435   4.742   6.702   6.613  0.4625  0.3956  0.5028
  171SAPS   H4Y19436   4.569   6.650   6.581 -0.3637 -1.2857 -0.9650
  171SAPS   C3519437   4.678   6.668   6.398 -0.2665 -0.0826 -0.1518
  171SAPS   H5X19438   4.617   6.760   6.384  0.3883  0.4638  0.5837
  171SAPS   H5Y19439   4.643   6.588   6.328  2.2821  0.4147 -2.1471
  171SAPS   C3619440   4.824   6.706   6.352  0.4308 -0.1789 -0.0706
  171SAPS   H6X19441   4.889   6.617   6.367  0.9749  0.1804 -0.2670
  171SAPS   H6Y19442   4.860   6.781   6.425  1.9542 -1.4980  0.5923
  171SAPS   C3719443   4.829   6.740   6.203  0.0306 -0.1320 -0.2113
  171SAPS   H7X19444   4.781   6.654   6.153 -0.1151 -1.2437  1.7569
  171SAPS   H7Y19445   4.937   6.741   6.174  0.4712 -2.2025  1.1256
  171SAPS   C3819446   4.754   6.863   6.147 -0.8775  0.1934 -0.1243
  171SAPS   H8X19447   4.817   6.954   6.159 -0.0266 -0.3861 -0.0780
  171SAPS   H8Y19448   4.660   6.891   6.198 -0.7426  1.7531 -0.6642
  171SAPS   C3919449   4.711   6.855   5.996 -0.7379 -0.1281 -0.1517
  171SAPS   H9X19450   4.678   6.957   5.967 -0.7680  0.6206  2.2647
  171SAPS   H9Y19451   4.626   6.785   5.988 -2.0856  1.3345  0.5884
  171SAPS  C31019452   4.819   6.807   5.903 -0.3814 -0.7194 -0.4086
  171SAPS  H10X19453   4.870   6.713   5.933  1.0415  0.6993  1.9324
  171SAPS  H10Y19454   4.890   6.892   5.903 -0.3390 -0.7478  0.3912
  171SAPS  C31119455   4.766   6.782   5.763  0.4939  0.1259  0.5973
  171SAPS  H11X19456   4.722   6.879   5.734 -0.7513 -0.4446  0.5077
  171SAPS  H11Y19457   4.684   6.707   5.757  0.8524 -0.2358  0.0909
  171SAPS  C31219458   4.869   6.737   5.658  1.0264 -0.0549 -0.8079
  171SAPS  H12X19459   4.918   6.641   5.684  1.0870  0.1310 -0.2215
  171SAPS  H12Y19460   4.943   6.820   5.657 -1.9711  2.8501 -0.6073
  171SAPS  C31319461   4.803   6.699   5.520  0.2826  0.0921  0.2365
  171SAPS  H13X19462   4.741   6.789   5.498  1.7058  1.4875  1.7090
  171SAPS  H13Y19463   4.735   6.612   5.530  1.2223 -1.0150 -2.2388
  171SAPS  C31419464   4.916   6.686   5.416  0.8553  0.2339  0.6639
  171SAPS  H14X19465   4.965   6.587   5.426  0.3227  0.0188  1.1838
  171SAPS  H14Y19466   4.988   6.769   5.434  1.0070  0.0727  0.7940
  171SAPS  C31519467   4.867   6.709   5.274 -0.8196 -0.6990 -0.5571
  171SAPS  H15X19468   4.841   6.816   5.259  0.2247 -0.0891  1.6845
  171SAPS  H15Y19469   4.784   6.635   5.264 -1.6243  0.1760 -0.5112
  171SAPS  C31619470   4.975   6.686   5.167  0.2445  0.0474 -0.2384
  171SAPS  H16X19471   5.041   6.600   5.190  2.1934  1.2970 -0.9246
  171SAPS  H16Y19472   5.045   6.772   5.163  0.8686 -0.4044  0.7521
  171SAPS  C31719473   4.904   6.660   5.041 -0.0421 -0.0778  0.0449
  171SAPS  H17X19474   4.838   6.745   5.015 -2.0382 -1.8163 -0.8425
  171SAPS  H17Y19475   4.835   6.573   5.048 -0.6300  0.5378  2.6319
  171SAPS  C31819476   5.001   6.645   4.918  0.4839  0.5971  0.2452
  171SAPS  H18X19477   5.095   6.704   4.921 -0.2055  1.7032  0.6282
  171SAPS  H18Y19478   4.952   6.683   4.826 -1.6994 -0.7921  0.7368
  171SAPS  H18Z19479   5.039   6.542   4.904  0.3356  0.6624 -0.6753
  172SAPS     N19480   4.471   4.914   7.114 -0.1486  0.8936 -0.1866
  172SAPS   HN119481   4.454   4.843   7.188 -2.5112  1.4607 -0.1099
  172SAPS   HN219482   4.382   4.923   7.062 -0.3734 -0.0672  0.0015
  172SAPS   HN319483   4.537   4.875   7.043 -1.2631 -0.6935 -0.4178
  172SAPS   C1219484   4.514   5.049   7.143 -0.1222  1.0714  0.4780
  172SAPS  H12A19485   4.445   5.073   7.222 -2.4169 -2.1802 -0.3262
  172SAPS   C1319486   4.664   5.065   7.196 -0.3640 -0.5241 -0.2346
  172SAPS  O13A19487   4.738   4.966   7.202  0.6359 -0.2387 -0.0065
  172SAPS  O13B19488   4.707   5.180   7.181  0.4297 -0.3223 -0.4752
  172SAPS   C1119489   4.497   5.129   7.010 -0.4720  1.3651  0.1479
  172SAPS  H11A19490   4.564   5.094   6.928  1.4503  2.5733  1.1021
  172SAPS  H11B19491   4.530   5.234   7.030  1.7825  0.5626  0.9835
  172SAPS     P19492   4.311   5.230   6.867  0.1078 -0.1760  0.1691
  172SAPS   O1319493   4.165   5.224   6.849  0.5347  0.6134  0.3014
  172SAPS   O1419494   4.367   5.361   6.902 -0.5177  0.2881  0.5718
  172SAPS   O1219495   4.352   5.129   6.978  0.0382 -0.0924  0.0887
  172SAPS   O1119496   4.397   5.162   6.746 -0.0345 -0.2348  0.5095
  172SAPS    C119497   4.363   5.028   6.702  0.3942 -0.3699 -0.1939
  172SAPS    HA19498   4.455   4.966   6.696  0.4219 -0.3899  0.3543
  172SAPS    HB19499   4.276   4.981   6.751  0.1424  1.6392  1.4448
  172SAPS    C219500   4.349   5.031   6.547 -0.1256  0.4708  0.0502
  172SAPS    HS19501   4.347   4.927   6.510  1.1250  0.9827 -1.6104
  172SAPS   O2119502   4.440   5.110   6.476 -0.3318  0.0128  0.6295
  172SAPS   C2119503   4.557   5.060   6.449  0.2507  0.0671  0.3852
  172SAPS   O2219504   4.583   4.947   6.476 -0.8281 -0.1073  0.2532
  172SAPS   C2219505   4.643   5.165   6.381  0.1646 -0.6171  0.0449
  172SAPS   H2R19506   4.586   5.194   6.291 -1.2366 -2.0336  0.4336
  172SAPS   H2S19507   4.644   5.245   6.459 -0.3420 -1.6435  1.1386
  172SAPS    C319508   4.207   5.079   6.515  0.5394 -0.5493 -0.1104
  172SAPS    HX19509   4.191   5.179   6.560 -0.1855 -1.0968  0.8848
  172SAPS    HY19510   4.144   5.002   6.565 -0.0212 -0.0874 -0.0979
  172SAPS   O3119511   4.182   5.091   6.371 -0.0369  0.4279 -0.0793
  172SAPS   C3119512   4.158   4.976   6.313 -0.0058  0.9436  0.0477
  172SAPS   O3219513   4.169   4.866   6.369 -0.1724 -0.4220 -0.0596
  172SAPS   C3219514   4.114   5.006   6.172  0.0128  0.4450 -0.0388
  172SAPS   H2X19515   4.201   5.042   6.114  0.2857 -3.0085 -2.0388
  172SAPS   H2Y19516   4.040   5.089   6.175  1.5007  1.8855 -1.1570
  172SAPS   C2319517   4.778   5.105   6.339 -0.4835 -0.1868 -0.7912
  172SAPS   H3R19518   4.757   5.030   6.260 -2.1967 -0.7628  0.1391
  172SAPS   H3S19519   4.821   5.056   6.429  0.9728 -0.3837 -1.5662
  172SAPS   C2419520   4.878   5.221   6.303  0.6358 -0.2012 -0.3410
  172SAPS   H4R19521   4.874   5.285   6.394  1.2305  0.0701 -0.4996
  172SAPS   H4S19522   4.840   5.267   6.209 -1.3435  1.1843  1.0535
  172SAPS   C2519523   5.017   5.155   6.314 -0.9164  0.0305  0.2289
  172SAPS   H5R19524   5.055   5.135   6.415 -2.4182  1.9960  1.2539
  172SAPS   C2619525   5.087   5.121   6.203 -0.1432 -0.0409 -0.9102
  172SAPS   H6R19526   5.188   5.078   6.215 -0.1518  0.5951  2.0490
  172SAPS   C2719527   5.046   5.150   6.060 -0.2110  0.2111 -0.2487
  172SAPS   H7R19528   4.948   5.204   6.056 -1.3245 -1.7706 -0.8888
  172SAPS   H7S19529   5.033   5.059   5.999  0.6381 -0.9398  1.2268
  172SAPS   C2819530   5.144   5.249   5.997 -0.1045 -0.2272  0.0218
  172SAPS   H8R19531   5.186   5.322   6.067  0.4278 -2.6841  2.4260
  172SAPS   C2919532   5.161   5.264   5.862 -0.3884  0.2884  0.3468
  172SAPS   H9R19533   5.239   5.336   5.831  0.4577 -0.8012 -0.1044
  172SAPS  C21019534   5.096   5.171   5.753  0.3357 -0.4638 -0.2735
  172SAPS  H10R19535   5.051   5.238   5.676  1.1818 -0.9276 -1.1997
  172SAPS  H10S19536   5.014   5.113   5.800  1.2416 -1.0784  0.5813
  172SAPS  C21119537   5.188   5.072   5.690  0.8242 -0.4062 -0.5871
  172SAPS  H11R19538   5.196   4.973   5.737 -0.3171 -1.5655 -2.6991
  172SAPS  C21219539   5.255   5.087   5.578 -0.3781  0.4959  0.5008
  172SAPS  H12R19540   5.325   5.007   5.552  1.8521  2.1656  0.9942
  172SAPS  C21319541   5.256   5.201   5.479 -0.1218 -0.7673 -0.2636
  172SAPS  H13R19542   5.239   5.288   5.546 -0.2322 -1.6904  0.9369
  172SAPS  H13S19543   5.184   5.198   5.394 -0.4346  2.2574 -0.2164
  172SAPS  C21419544   5.400   5.226   5.425  0.4093 -0.2793 -0.0878
  172SAPS  H14R19545   5.467   5.266   5.503  0.9128 -0.7667 -0.2668
  172SAPS  C21519546   5.448   5.193   5.298 -0.2466  0.1953  0.0617
  172SAPS  H15R19547   5.554   5.211   5.276  0.1892 -0.7391  1.2776
  172SAPS  C21619548   5.369   5.125   5.192 -0.0130  0.6186  0.5637
  172SAPS  H16R19549   5.264   5.114   5.227  1.3309 -3.1461  4.2758
  172SAPS  H16S19550   5.405   5.020   5.180 -0.2583  0.3455  2.0390
  172SAPS  C21719551   5.350   5.185   5.051 -0.5262  0.3034 -0.1223
  172SAPS  H17R19552   5.292   5.278   5.064  0.3054  0.9869 -1.1914
  172SAPS  H17S19553   5.295   5.108   4.993  1.0429 -0.1424 -1.0964
  172SAPS  C21819554   5.478   5.226   4.985 -0.1532 -0.2774 -0.2365
  172SAPS  H18R19555   5.528   5.311   5.036  1.6689 -1.1793 -0.4177
  172SAPS  H18S19556   5.461   5.263   4.882  4.7645  0.1435 -1.1425
  172SAPS  C21919557   5.584   5.117   4.983 -0.2689 -0.0255  0.4602
  172SAPS  H19R19558   5.533   5.032   4.933  0.2284 -0.6347  0.9743
  172SAPS  H19S19559   5.621   5.098   5.086  0.7315  1.0841  0.3327
  172SAPS  C22019560   5.706   5.142   4.891 -0.5228 -0.1135  0.0844
  172SAPS  H20R19561   5.744   5.246   4.887  1.4599 -0.6094  3.2657
  172SAPS  H20S19562   5.668   5.126   4.787 -1.4844 -0.1311  0.4245
  172SAPS  H20T19563   5.788   5.073   4.917 -0.9405  0.3748  2.9867
  172SAPS   C3319564   4.057   4.884   6.108 -0.7618  0.3284  0.2496
  172SAPS   H3X19565   3.981   4.840   6.176 -0.9909 -3.0077 -1.8862
  172SAPS   H3Y19566   4.131   4.802   6.092  0.7370  1.2686  2.0157
  172SAPS   C3419567   3.985   4.913   5.977 -0.2750 -0.0687 -0.6131
  172SAPS   H4X19568   3.912   4.996   5.989 -1.4507 -1.0370 -0.8808
  172SAPS   H4Y19569   3.919   4.824   5.964 -2.1438  1.1473  0.0986
  172SAPS   C3519570   4.082   4.924   5.865 -0.0021 -1.2267 -0.4682
  172SAPS   H5X19571   4.130   4.825   5.851  1.0117 -0.4412 -3.1417
  172SAPS   H5Y19572   4.171   4.991   5.870 -0.7502 -0.2848  1.5665
  172SAPS   C3619573   4.021   4.952   5.727  0.2627  0.0750  0.1567
  172SAPS   H6X19574   3.977   5.054   5.731 -3.4548 -1.3982  0.5356
  172SAPS   H6Y19575   3.936   4.881   5.718  1.4804 -1.6483  1.6326
  172SAPS   C3719576   4.118   4.938   5.612  0.1964  0.4958  0.8757
  172SAPS   H7X19577   4.168   4.839   5.622  0.6363  0.7123  0.8407
  172SAPS   H7Y19578   4.190   5.022   5.599 -0.3036  0.5079 -2.6813
  172SAPS   C3819579   4.050   4.944   5.468  0.2764  0.4437  0.3121
  172SAPS   H8X19580   3.948   4.988   5.478  0.0726  0.0907 -0.1935
  172SAPS   H8Y19581   4.034   4.841   5.430  0.1404  0.1287  1.1850
  172SAPS   C3919582   4.129   5.033   5.371 -0.2215 -0.0132  0.7628
  172SAPS   H9X19583   4.230   4.991   5.351 -0.1683 -0.0781  1.1618
  172SAPS   H9Y19584   4.141   5.135   5.414 -0.7034 -0.1836  1.3164
  172SAPS  C31019585   4.057   5.021   5.238 -0.5717 -0.2031 -0.4576
  172SAPS  H10X19586   3.948   5.038   5.245 -0.2299  2.3248 -0.1439
  172SAPS  H10Y19587   4.066   4.918   5.199  1.2088 -0.1723 -0.2096
  172SAPS  C31119588   4.106   5.111   5.130  0.3176 -0.3003  0.3033
  172SAPS  H11X19589   4.088   5.215   5.165  0.9322  0.4551 -1.4905
  172SAPS  H11Y19590   4.052   5.099   5.034  1.2790  0.2025 -0.3107
  172SAPS  C31219591   4.254   5.093   5.086 -0.0156  0.1363  0.0146
  172SAPS  H12X19592   4.289   4.990   5.064  1.3769  0.3400  1.1432
  172SAPS  H12Y19593   4.316   5.115   5.175 -0.6468  2.4003 -0.0402
  172SAPS  C31319594   4.278   5.183   4.959 -0.0368 -0.0940 -0.0946
  172SAPS  H13X19595   4.286   5.290   4.985 -2.6775 -0.5315  3.1569
  172SAPS  H13Y19596   4.204   5.171   4.876  1.6350  0.9275 -1.7931
  172SAPS  C31419597   4.414   5.146   4.894 -0.2214 -0.1543  0.9116
  172SAPS  H14X19598   4.410   5.036   4.877  3.3690 -0.0672 -1.9597
  172SAPS  H14Y19599   4.491   5.170   4.970  1.0466 -0.4810 -0.2259
  172SAPS  C31519600   4.462   5.215   4.762 -0.2236 -0.3626  1.1046
  172SAPS  H15X19601   4.484   5.322   4.785 -0.5489 -0.7327  3.3531
  172SAPS  H15Y19602   4.383   5.220   4.684 -0.3685  1.5803  1.3218
  172SAPS  C31619603   4.593   5.156   4.706 -0.1186  0.1942  0.0371
  172SAPS  H16X19604   4.673   5.157   4.783  1.3657 -0.9524 -1.4194
  172SAPS  H16Y19605   4.570   5.050   4.680 -2.1287  0.9771 -1.6081
  172SAPS  C31719606   4.658   5.225   4.585 -0.0524 -0.4097  0.5156
  172SAPS  H17X19607   4.608   5.198   4.489  2.1071 -0.5476 -0.6200
  172SAPS  H17Y19608   4.760   5.182   4.578 -1.2760 -3.4958 -0.3606
  172SAPS  C31819609   4.664   5.381   4.592  0.7621  0.0030 -0.4703
  172SAPS  H18X19610   4.737   5.412   4.671 -2.5013  1.4929  2.1999
  172SAPS  H18Y19611   4.565   5.423   4.618  1.0838  0.6480 -0.2573
  172SAPS  H18Z19612   4.696   5.433   4.500  1.8281  1.1965  0.5429
  173SAPS     N19613   6.034   5.508   2.190  0.0173 -0.4408 -0.0011
  173SAPS   HN119614   6.129   5.472   2.212  0.8209 -0.1002 -2.5837
  173SAPS   HN219615   5.982   5.515   2.280 -1.1501 -2.9949 -0.3618
  173SAPS   HN319616   5.983   5.434   2.137  1.1609 -1.1185 -0.1770
  173SAPS   C1219617   6.030   5.628   2.108 -0.1886 -0.4253  0.0921
  173SAPS  H12A19618   6.086   5.605   2.018  2.1301 -0.0314  1.3425
  173SAPS   C1319619   5.881   5.659   2.063  0.1786 -0.1479  0.0160
  173SAPS  O13A19620   5.798   5.559   2.058  0.2176 -0.5829 -0.2869
  173SAPS  O13B19621   5.869   5.748   1.977 -0.9572  0.1486  0.2957
  173SAPS   C1119622   6.104   5.747   2.184 -0.5844 -0.3923 -0.1258
  173SAPS  H11A19623   6.032   5.775   2.265 -0.2980  0.4209 -0.1364
  173SAPS  H11B19624   6.112   5.834   2.115  0.3319 -0.1592  0.2526
  173SAPS     P19625   6.312   5.802   2.331 -0.1249  0.3512  0.1079
  173SAPS   O1319626   6.450   5.751   2.332  0.1845 -0.0714 -0.1459
  173SAPS   O1419627   6.288   5.940   2.278  0.9570  0.2183 -0.1139
  173SAPS   O1219628   6.234   5.710   2.232  0.1591  0.3950  0.6149
  173SAPS   O1119629   6.244   5.792   2.477 -0.1762  0.2230  0.1227
  173SAPS    C119630   6.227   5.672   2.545  0.3189 -0.5407  0.3068
  173SAPS    HA19631   6.219   5.587   2.474 -0.9957 -0.1641 -0.0278
  173SAPS    HB19632   6.306   5.654   2.620  0.6027 -2.7331 -0.4514
  173SAPS    C219633   6.102   5.689   2.638  0.2744 -0.2569  0.0971
  173SAPS    HS19634   6.022   5.735   2.575 -1.5183 -2.6734  0.4784
  173SAPS   O2119635   6.135   5.768   2.752  0.6234  0.2081 -0.1594
  173SAPS   C2119636   6.040   5.839   2.802  0.4300  0.3768  0.7326
  173SAPS   O2219637   5.926   5.860   2.756 -0.0916  1.3827 -0.2661
  173SAPS   C2219638   6.089   5.904   2.932  0.2465 -0.2583 -0.1337
  173SAPS   H2R19639   5.999   5.898   2.996 -0.5504 -2.1710 -1.3662
  173SAPS   H2S19640   6.162   5.831   2.971  0.2248 -1.9887 -3.0841
  173SAPS    C319641   6.036   5.554   2.685 -0.6995 -0.4152 -0.3524
  173SAPS    HX19642   6.001   5.509   2.589 -1.6123 -1.2249  0.3370
  173SAPS    HY19643   5.943   5.573   2.742  0.9037 -0.0869  2.3522
  173SAPS   O3119644   6.134   5.462   2.748 -0.3530 -0.1738  0.0044
  173SAPS   C3119645   6.142   5.465   2.883  0.4600  1.2753 -0.5987
  173SAPS   O3219646   6.095   5.555   2.952  0.3283 -0.4174 -0.1494
  173SAPS   C3219647   6.205   5.342   2.941  0.0950 -0.5211 -0.3888
  173SAPS   H2X19648   6.132   5.259   2.925  0.3678 -0.4601 -2.0799
  173SAPS   H2Y19649   6.217   5.359   3.050 -2.1575 -0.2069 -0.1469
  173SAPS   C2319650   6.132   6.055   2.907 -0.1051 -0.4632  0.1409
  173SAPS   H3R19651   6.065   6.100   2.831 -0.7997 -0.5293  0.7049
  173SAPS   H3S19652   6.237   6.050   2.870 -0.6987  1.7370 -2.0996
  173SAPS   C2419653   6.122   6.154   3.026  0.0011 -0.7872  0.4656
  173SAPS   H4R19654   6.014   6.171   3.047 -0.0569 -1.8490  1.1567
  173SAPS   H4S19655   6.172   6.245   2.988  0.7956 -0.1144  2.9501
  173SAPS   C2519656   6.196   6.096   3.141 -0.2952 -0.1269 -0.5924
  173SAPS   H5R19657   6.275   6.028   3.107 -0.8149 -1.5640  0.9346
  173SAPS   C2619658   6.152   6.111   3.268  0.1037  0.1255 -0.2521
  173SAPS   H6R19659   6.219   6.085   3.351 -0.1389 -0.5720 -0.2705
  173SAPS   C2719660   6.030   6.190   3.313  0.0204  0.8402  0.2649
  173SAPS   H7R19661   5.940   6.125   3.306  0.5232  0.1001  0.5949
  173SAPS   H7S19662   6.006   6.271   3.241  2.6888  0.7414 -0.8332
  173SAPS   C2819663   6.056   6.271   3.440  0.3948  0.1121 -0.4985
  173SAPS   H8R19664   6.116   6.361   3.421  2.1421  0.1678  4.1033
  173SAPS   C2919665   5.999   6.257   3.567 -0.6699 -0.1437  1.6255
  173SAPS   H9R19666   6.010   6.338   3.641 -0.9878  1.2103  0.2414
  173SAPS  C21019667   5.913   6.144   3.610  0.1794 -0.9936 -0.1697
  173SAPS  H10R19668   5.875   6.091   3.520  0.3881 -0.5258 -0.5380
  173SAPS  H10S19669   5.825   6.184   3.666  1.2085  1.0582  0.0683
  173SAPS  C21119670   5.990   6.046   3.692  0.7684  0.3999 -0.5054
  173SAPS  H11R19671   6.097   6.070   3.692  0.6570  0.9577  0.9650
  173SAPS  C21219672   5.932   5.957   3.772 -0.0263  0.0106 -0.1586
  173SAPS  H12R19673   5.999   5.901   3.839 -0.5347 -0.5127 -0.0834
  173SAPS  C21319674   5.790   5.921   3.778 -0.0078 -0.0605 -0.3707
  173SAPS  H13R19675   5.785   5.811   3.766  0.6953 -0.0772 -0.5639
  173SAPS  H13S19676   5.735   5.958   3.689 -0.6076  0.0863  0.0566
  173SAPS  C21419677   5.729   5.962   3.911  0.1639 -0.7755 -0.4433
  173SAPS  H14R19678   5.731   6.070   3.932 -1.0378 -0.5650 -1.3521
  173SAPS  C21519679   5.693   5.893   4.019  0.3003 -0.5660  0.1156
  173SAPS  H15R19680   5.656   5.954   4.103  0.0800 -1.1124  0.4149
  173SAPS  C21619681   5.683   5.745   4.024  0.2566  0.0434 -0.0769
  173SAPS  H16R19682   5.767   5.700   3.967  0.3363  1.1444 -0.8718
  173SAPS  H16S19683   5.594   5.719   3.963 -0.1545  4.9574 -2.0140
  173SAPS  C21719684   5.680   5.679   4.156 -0.2205  0.3053  0.7168
  173SAPS  H17R19685   5.602   5.720   4.225 -3.0914 -1.5647 -1.1832
  173SAPS  H17S19686   5.773   5.697   4.213 -0.6193  0.7617  1.2385
  173SAPS  C21819687   5.656   5.521   4.160 -0.0291  0.1540  0.0916
  173SAPS  H18R19688   5.742   5.474   4.108  1.0344  0.5625  1.4286
  173SAPS  H18S19689   5.575   5.488   4.091  1.2958 -0.9587 -0.9844
  173SAPS  C21919690   5.615   5.460   4.300  0.4544  0.4095 -0.4636
  173SAPS  H19R19691   5.605   5.352   4.276  1.0488  0.6400 -1.8396
  173SAPS  H19S19692   5.521   5.511   4.330  0.6234  1.0302 -0.9686
  173SAPS  C22019693   5.727   5.470   4.397  0.2911 -0.3613 -0.6024
  173SAPS  H20R19694   5.748   5.578   4.407 -0.7791 -0.0273 -1.6952
  173SAPS  H20S19695   5.811   5.410   4.355  1.0708  1.2315 -1.3915
  173SAPS  H20T19696   5.700   5.424   4.495  1.4055 -0.9902 -0.5771
  173SAPS   C3319697   6.340   5.311   2.869  0.4161  0.9162  0.1544
  173SAPS   H3X19698   6.417   5.389   2.889  0.4376  0.9402 -0.0235
  173SAPS   H3Y19699   6.330   5.294   2.760  3.0696  3.8223 -0.7038
  173SAPS   C3419700   6.404   5.177   2.920  0.4664 -0.0824  0.4402
  173SAPS   H4X19701   6.500   5.173   2.864  1.1579 -1.3529  1.6645
  173SAPS   H4Y19702   6.350   5.095   2.869  1.5093 -1.0188  0.7862
  173SAPS   C3519703   6.416   5.156   3.073 -0.0425  0.7276 -0.6158
  173SAPS   H5X19704   6.491   5.074   3.067  0.6995  1.3909 -0.5264
  173SAPS   H5Y19705   6.320   5.129   3.122  1.5647  0.6511  2.8149
  173SAPS   C3619706   6.486   5.271   3.142 -0.2184  0.5814 -0.0184
  173SAPS   H6X19707   6.404   5.332   3.185  1.0199  1.2432  1.5231
  173SAPS   H6Y19708   6.537   5.336   3.068  1.2221 -1.6597 -1.0990
  173SAPS   C3719709   6.592   5.220   3.252 -0.1735 -0.1854  0.4336
  173SAPS   H7X19710   6.658   5.151   3.195  1.5296  0.9790  0.9424
  173SAPS   H7Y19711   6.533   5.164   3.328 -2.4509 -0.6116 -1.5042
  173SAPS   C3819712   6.657   5.332   3.331  0.1667 -0.1515 -0.1841
  173SAPS   H8X19713   6.583   5.384   3.395  0.6914 -1.2089  1.3476
  173SAPS   H8Y19714   6.700   5.405   3.259  2.3001  0.4926  1.6378
  173SAPS   C3919715   6.777   5.291   3.414 -0.2585 -0.1972 -0.4116
  173SAPS   H9X19716   6.834   5.379   3.454 -0.6463 -0.8081  1.6329
  173SAPS   H9Y19717   6.846   5.255   3.335  0.8761  0.2170  0.3626
  173SAPS  C31019718   6.741   5.189   3.527 -0.6292 -0.1201 -0.6367
  173SAPS  H10X19719   6.730   5.085   3.488 -0.7210 -0.8201  1.1387
  173SAPS  H10Y19720   6.645   5.224   3.572 -1.0256 -0.6077 -1.0803
  173SAPS  C31119721   6.852   5.186   3.628 -0.0199  0.6498 -0.6809
  173SAPS  H11X19722   6.823   5.260   3.705 -0.5367  0.4778 -0.7118
  173SAPS  H11Y19723   6.944   5.221   3.576 -1.4048  2.2865 -2.1531
  173SAPS  C31219724   6.874   5.046   3.691 -0.3146  0.5698 -0.0715
  173SAPS  H12X19725   6.975   5.043   3.738 -1.0718 -1.5310  1.5660
  173SAPS  H12Y19726   6.884   4.975   3.606 -2.3791  1.7066 -1.3660
  173SAPS  C31319727   6.774   5.009   3.801 -0.5531 -0.2201  0.0266
  173SAPS  H13X19728   6.675   4.980   3.760 -0.1053 -1.6502 -0.1075
  173SAPS  H13Y19729   6.750   5.103   3.855  1.0320 -0.7890  1.8455
  173SAPS  C31419730   6.821   4.888   3.887 -0.4932  0.1404 -0.4060
  173SAPS  H14X19731   6.913   4.921   3.940 -1.2770  0.1883  0.9807
  173SAPS  H14Y19732   6.846   4.795   3.832 -0.5838  0.5054 -1.0700
  173SAPS  C31519733   6.727   4.867   4.010 -0.3322  0.0249 -0.3128
  173SAPS  H15X19734   6.620   4.845   3.985 -0.4835  0.1047  0.2529
  173SAPS  H15Y19735   6.721   4.950   4.083 -0.2268 -0.9191  0.7867
  173SAPS  C31619736   6.774   4.745   4.096 -0.2947  0.3786  0.5844
  173SAPS  H16X19737   6.874   4.764   4.141 -0.0539 -0.6607  0.5087
  173SAPS  H16Y19738   6.804   4.657   4.036  1.2373 -0.1115  1.9935
  173SAPS  C31719739   6.683   4.700   4.204 -0.0495 -0.0142  0.4437
  173SAPS  H17X19740   6.741   4.625   4.262 -0.2456 -1.8555 -1.6127
  173SAPS  H17Y19741   6.590   4.651   4.166  0.0218 -0.2291  0.5410
  173SAPS  C31819742   6.628   4.795   4.312 -1.4906  0.0055 -0.0462
  173SAPS  H18X19743   6.718   4.834   4.364 -1.7705 -0.5238  0.8613
  173SAPS  H18Y19744   6.562   4.742   4.384  0.3286 -2.2357  0.0861
  173SAPS  H18Z19745   6.581   4.882   4.261 -0.2649  2.2554  2.4213
  174SAPS     N19746   2.886   2.884   2.278 -0.1895  0.2377 -0.2599
  174SAPS   HN119747   2.976   2.871   2.229 -0.5923 -0.6082 -0.8105
  174SAPS   HN219748   2.875   2.812   2.353  0.0825  0.0609 -0.3858
  174SAPS   HN319749   2.807   2.880   2.210  0.5191 -0.3532 -1.0738
  174SAPS   C1219750   2.890   3.016   2.349  0.1152 -0.4798  0.1736
  174SAPS  H12A19751   2.918   3.089   2.274  1.2584 -2.0584 -1.0046
  174SAPS   C1319752   2.752   3.053   2.398  0.1843  0.2371 -0.0489
  174SAPS  O13A19753   2.654   2.978   2.378  0.4353  0.0791  0.2637
  174SAPS  O13B19754   2.742   3.167   2.459 -1.0635  0.5020  0.7295
  174SAPS   C1119755   3.001   3.020   2.453 -0.9254 -0.3159  0.0674
  174SAPS  H11A19756   2.977   2.940   2.527 -0.1913 -0.9237 -0.3311
  174SAPS  H11B19757   3.007   3.120   2.500 -0.9677 -0.5652  0.6113
  174SAPS     P19758   3.265   3.021   2.452 -0.5516 -0.2601  0.3596
  174SAPS   O1319759   3.323   2.892   2.485 -0.3681  0.3061 -0.2789
  174SAPS   O1419760   3.349   3.108   2.369 -0.4704  0.1592  0.0493
  174SAPS   O1219761   3.128   2.996   2.389  0.6942  0.7263 -0.2706
  174SAPS   O1119762   3.224   3.105   2.579 -0.4341  0.1226 -0.3593
  174SAPS    C119763   3.169   3.043   2.704  0.0884  0.3913  0.0601
  174SAPS    HA19764   3.059   3.060   2.706  0.0025 -0.0607 -0.5336
  174SAPS    HB19765   3.188   2.934   2.709  1.8857  0.7068  0.8930
  174SAPS    C219766   3.241   3.092   2.832  0.1947  0.0477 -0.0133
  174SAPS    HS19767   3.218   3.018   2.913 -2.0697  0.2574 -0.4071
  174SAPS   O2119768   3.198   3.215   2.875  0.3298 -0.4131  0.0140
  174SAPS   C2119769   3.072   3.232   2.910 -0.6188 -0.3813  0.3870
  174SAPS   O2219770   2.996   3.138   2.927  0.4843 -0.5750  0.4943
  174SAPS   C2219771   3.043   3.381   2.946 -0.1310  0.5294  0.7063
  174SAPS   H2R19772   3.044   3.442   2.853 -1.0267  1.1337  1.0746
  174SAPS   H2S19773   2.936   3.390   2.975 -0.2308  0.2924  0.4150
  174SAPS    C319774   3.392   3.102   2.799  0.1668 -1.0005  0.1741
  174SAPS    HX19775   3.416   3.193   2.740  0.3067  0.1523  1.9254
  174SAPS    HY19776   3.402   3.009   2.738 -2.0366 -0.3778 -1.2588
  174SAPS   O3119777   3.465   3.090   2.918 -0.7375  0.1614  0.6607
  174SAPS   C3119778   3.523   3.204   2.958  0.3734 -0.3070 -0.1651
  174SAPS   O3219779   3.512   3.314   2.902  0.0127 -0.5815  0.0396
  174SAPS   C3219780   3.600   3.181   3.087 -0.0255  0.5485 -0.2717
  174SAPS   H2X19781   3.703   3.223   3.075  0.7034 -1.1462 -0.2775
  174SAPS   H2Y19782   3.589   3.076   3.119 -3.3299  0.8031 -0.2648
  174SAPS   C2319783   3.146   3.444   3.041 -0.1641 -0.2483 -0.3342
  174SAPS   H3R19784   3.243   3.447   2.987  0.2980  0.6660  0.5093
  174SAPS   H3S19785   3.151   3.377   3.129 -0.9060  1.4593  1.0866
  174SAPS   C2419786   3.091   3.577   3.089 -0.0040  0.0649  0.3113
  174SAPS   H4R19787   2.994   3.580   3.142  0.6495 -2.5024  1.8124
  174SAPS   H4S19788   3.090   3.644   3.000  1.7624 -0.1766  0.0787
  174SAPS   C2519789   3.194   3.639   3.183 -0.1397  0.0379 -0.2419
  174SAPS   H5R19790   3.293   3.658   3.139 -0.1941  0.9630  0.0329
  174SAPS   C2619791   3.172   3.663   3.313  0.3781  0.4547 -0.5083
  174SAPS   H6R19792   3.257   3.718   3.356  1.0324  0.6148 -1.9297
  174SAPS   C2719793   3.050   3.636   3.404 -0.2203  0.1202 -0.3955
  174SAPS   H7R19794   2.988   3.729   3.408 -0.1863  0.1691 -0.9584
  174SAPS   H7S19795   3.089   3.629   3.508 -0.2705 -1.7400 -0.4742
  174SAPS   C2819796   2.961   3.519   3.398  0.0109 -0.7766 -0.5237
  174SAPS   H8R19797   2.853   3.530   3.379 -0.0652 -3.0682 -1.7774
  174SAPS   C2919798   3.002   3.393   3.421 -0.0607  0.3611  0.0114
  174SAPS   H9R19799   2.917   3.322   3.417  1.1211 -1.3729  2.6971
  174SAPS  C21019800   3.141   3.344   3.445 -0.3378  0.0506  0.0482
  174SAPS  H10R19801   3.215   3.426   3.460 -2.8860  2.4532  0.2039
  174SAPS  H10S19802   3.174   3.285   3.357 -0.5831 -1.4744  0.9413
  174SAPS  C21119803   3.138   3.261   3.572  0.7474 -0.7399 -0.3816
  174SAPS  H11R19804   3.098   3.159   3.561 -2.6025  0.3131  0.5844
  174SAPS  C21219805   3.147   3.311   3.703  1.1250  0.2026  0.1011
  174SAPS  H12R19806   3.135   3.237   3.784  0.5125 -0.1461 -0.2986
  174SAPS  C21319807   3.176   3.449   3.749 -0.2109  0.1727  0.2709
  174SAPS  H13R19808   3.090   3.490   3.807  1.3204  1.9197  1.4334
  174SAPS  H13S19809   3.176   3.525   3.668 -1.0550 -1.0332 -0.8989
  174SAPS  C21419810   3.303   3.432   3.835 -1.1850 -0.8835  0.1739
  174SAPS  H14R19811   3.337   3.331   3.860 -1.2009 -1.0833 -0.5781
  174SAPS  C21519812   3.378   3.539   3.875 -0.2173  0.1351 -0.0979
  174SAPS  H15R19813   3.459   3.528   3.948 -1.4798  1.4845  1.5781
  174SAPS  C21619814   3.345   3.683   3.844  0.0018 -0.1012  0.5381
  174SAPS  H16R19815   3.341   3.740   3.939 -1.2101  0.1604  0.3521
  174SAPS  H16S19816   3.241   3.695   3.807 -0.3321  1.3509  1.8628
  174SAPS  C21719817   3.442   3.756   3.750 -0.1847 -0.6722  0.2520
  174SAPS  H17R19818   3.537   3.778   3.803 -0.6702  1.6486  0.2600
  174SAPS  H17S19819   3.402   3.856   3.723 -0.2763 -0.9849 -0.8001
  174SAPS  C21819820   3.474   3.685   3.619  0.0785 -0.0463 -0.2197
  174SAPS  H18R19821   3.378   3.650   3.575 -0.9201  0.9955  1.0302
  174SAPS  H18S19822   3.533   3.593   3.638  1.1170  0.9158  1.4212
  174SAPS  C21919823   3.545   3.767   3.524 -0.2061 -0.6220  0.1002
  174SAPS  H19R19824   3.635   3.818   3.563 -1.1380  1.6871 -0.5884
  174SAPS  H19S19825   3.471   3.844   3.491  0.4780 -0.6108 -1.4847
  174SAPS  C22019826   3.572   3.692   3.395 -0.6205  0.0483  0.2657
  174SAPS  H20R19827   3.479   3.647   3.354 -1.1866  1.4225 -0.0058
  174SAPS  H20S19828   3.632   3.603   3.421 -0.0441  1.3806  4.1651
  174SAPS  H20T19829   3.612   3.752   3.311 -2.6128  0.7764 -0.2343
  174SAPS   C3319830   3.531   3.265   3.201  0.1969 -0.2131  0.2858
  174SAPS   H3X19831   3.424   3.242   3.215  0.0407 -0.6254 -1.3624
  174SAPS   H3Y19832   3.547   3.372   3.175  1.5920  0.1491  2.3627
  174SAPS   C3419833   3.602   3.249   3.338  0.3668 -0.2173 -0.2247
  174SAPS   H4X19834   3.705   3.290   3.331 -0.0279  0.6228 -1.3152
  174SAPS   H4Y19835   3.621   3.140   3.351  1.4875 -0.0041  0.0125
  174SAPS   C3519836   3.524   3.311   3.456 -0.5455  0.1626  0.8952
  174SAPS   H5X19837   3.434   3.252   3.484  0.8097 -1.3423  2.2922
  174SAPS   H5Y19838   3.489   3.413   3.430 -0.3920 -0.0221 -0.1028
  174SAPS   C3619839   3.603   3.327   3.586  0.5478  0.1067  0.2329
  174SAPS   H6X19840   3.530   3.374   3.655 -1.6291 -0.5997 -1.4715
  174SAPS   H6Y19841   3.695   3.387   3.570  0.6342 -0.1342 -0.1804
  174SAPS   C3719842   3.636   3.184   3.642  0.0420 -0.2319  0.1421
  174SAPS   H7X19843   3.695   3.117   3.576  0.9230  0.6934 -0.0138
  174SAPS   H7Y19844   3.538   3.137   3.668  0.0006  0.3411  1.0681
  174SAPS   C3819845   3.713   3.196   3.774  0.4597  0.3840 -0.4654
  174SAPS   H8X19846   3.821   3.213   3.753  0.3298  0.1368 -1.3876
  174SAPS   H8Y19847   3.687   3.092   3.801 -0.9379  0.0628 -2.8067
  174SAPS   C3919848   3.659   3.291   3.873 -0.1685 -0.5436 -0.5359
  174SAPS   H9X19849   3.548   3.283   3.865 -0.4663  1.2953  1.0525
  174SAPS   H9Y19850   3.702   3.393   3.857 -1.2074  0.7159  3.5058
  174SAPS  C31019851   3.682   3.243   4.022  0.5404 -0.0358 -0.0532
  174SAPS  H10X19852   3.721   3.330   4.078  1.0502  1.2739 -2.3049
  174SAPS  H10Y19853   3.755   3.161   4.002 -0.0263 -0.8032  0.9122
  174SAPS  C31119854   3.552   3.178   4.089 -0.1917 -0.0899  0.5671
  174SAPS  H11X19855   3.531   3.098   4.014 -0.5528 -0.6833  1.2931
  174SAPS  H11Y19856   3.479   3.261   4.093 -1.6377 -1.3012  0.4401
  174SAPS  C31219857   3.584   3.124   4.224  0.5210 -0.2761 -0.1046
  174SAPS  H12X19858   3.655   3.182   4.286  1.7824 -1.6502 -0.1848
  174SAPS  H12Y19859   3.632   3.025   4.205  0.7135 -0.0848 -0.6535
  174SAPS  C31319860   3.461   3.111   4.313 -0.0274  0.3119  0.7535
  174SAPS  H13X19861   3.492   3.047   4.398  1.3251 -0.2607 -0.1379
  174SAPS  H13Y19862   3.376   3.056   4.267  2.0031 -1.9454 -0.5148
  174SAPS  C31419863   3.419   3.242   4.365 -0.0887 -0.2229  0.0320
  174SAPS  H14X19864   3.390   3.307   4.279  3.0562  2.4893  0.8066
  174SAPS  H14Y19865   3.507   3.301   4.398 -1.4729  1.5838  0.7003
  174SAPS  C31519866   3.306   3.241   4.479  0.1516 -0.3039  0.3173
  174SAPS  H15X19867   3.206   3.229   4.431 -0.3507  0.4165  1.1562
  174SAPS  H15Y19868   3.302   3.341   4.526 -1.1109  0.1028 -0.5748
  174SAPS  C31619869   3.337   3.137   4.583 -0.6889 -0.0998  0.1676
  174SAPS  H16X19870   3.442   3.156   4.614 -1.5283  1.2553  2.4379
  174SAPS  H16Y19871   3.335   3.031   4.551  1.5114 -0.3756  0.8025
  174SAPS  C31719872   3.256   3.145   4.712  0.9452  0.3243 -0.0501
  174SAPS  H17X19873   3.286   3.239   4.762  0.6189  0.2599  0.2719
  174SAPS  H17Y19874   3.286   3.055   4.770  2.4160  0.4698 -0.5493
  174SAPS  C31819875   3.104   3.150   4.687  0.0348 -0.4264  0.4254
  174SAPS  H18X19876   3.078   3.069   4.614  0.6838  0.4338 -0.7896
  174SAPS  H18Y19877   3.071   3.244   4.638  1.0416  0.3741  1.2581
  174SAPS  H18Z19878   3.048   3.141   4.783  1.2250  1.7707  1.3955
  175SAPS     N19879   6.834   0.499   1.797 -0.0919 -0.2841  0.4065
  175SAPS   HN119880   6.904   0.428   1.828  1.8177  1.1531 -0.3535
  175SAPS   HN219881   6.738   0.462   1.803 -0.0597 -0.1109  3.7104
  175SAPS   HN319882   6.857   0.531   1.700  2.1689 -1.5480  0.4323
  175SAPS   C1219883   6.828   0.619   1.891 -0.2669  0.4361  0.3457
  175SAPS  H12A19884   6.928   0.650   1.917  0.6027 -1.6266 -0.3938
  175SAPS   C1319885   6.751   0.739   1.832  0.5543  0.4298  0.0982
  175SAPS  O13A19886   6.702   0.729   1.715 -0.1423  0.0071  0.0884
  175SAPS  O13B19887   6.745   0.839   1.901  0.2471 -0.2584 -0.2384
  175SAPS   C1119888   6.758   0.582   2.023 -0.4160  0.7613 -0.1801
  175SAPS  H11A19889   6.735   0.674   2.081 -1.4343  0.6513 -0.3926
  175SAPS  H11B19890   6.828   0.520   2.083 -0.0072  1.2674 -0.1286
  175SAPS     P19891   6.497   0.548   2.051  0.0871  0.1419 -0.3325
  175SAPS   O1319892   6.429   0.613   1.939  0.2357 -0.0694 -1.0582
  175SAPS   O1419893   6.432   0.418   2.091 -0.4141  0.0463  0.2557
  175SAPS   O1219894   6.636   0.511   2.003 -0.3009  0.3562  0.4849
  175SAPS   O1119895   6.519   0.641   2.174  0.2042 -0.4796  0.4045
  175SAPS    C119896   6.561   0.592   2.300  1.0608  0.4940  0.0715
  175SAPS    HA19897   6.586   0.484   2.301 -0.1707  0.2015  0.8356
  175SAPS    HB19898   6.659   0.637   2.326  0.9231  0.3789  0.8132
  175SAPS    C219899   6.454   0.609   2.416 -0.8946 -0.6775  0.1480
  175SAPS    HS19900   6.489   0.566   2.512 -1.8773 -0.4530  0.6234
  175SAPS   O2119901   6.324   0.559   2.374 -0.4719  0.4234 -0.7322
  175SAPS   C2119902   6.298   0.443   2.424  0.1395 -0.8146  0.0721
  175SAPS   O2219903   6.380   0.367   2.478  0.3493 -0.0449  0.4691
  175SAPS   C2219904   6.151   0.406   2.427 -0.8056  0.4954 -0.0397
  175SAPS   H2R19905   6.133   0.341   2.338  1.7112  0.1606 -0.3796
  175SAPS   H2S19906   6.153   0.330   2.508 -1.6918  1.5250  0.9906
  175SAPS    C319907   6.430   0.756   2.441 -0.1471  0.6054 -0.4721
  175SAPS    HX19908   6.367   0.800   2.361 -2.3820 -2.0275 -0.2899
  175SAPS    HY19909   6.527   0.809   2.451  0.4346 -0.7906  2.6305
  175SAPS   O3119910   6.362   0.785   2.567 -0.0548 -0.5618  0.4617
  175SAPS   C3119911   6.328   0.913   2.573  0.1695 -0.1512  0.4486
  175SAPS   O3219912   6.355   0.996   2.483  0.2098  0.4644  0.2681
  175SAPS   C3219913   6.241   0.947   2.698  0.3534  0.6040  0.1591
  175SAPS   H2X19914   6.143   0.896   2.687  1.1388 -0.8143 -0.4668
  175SAPS   H2Y19915   6.216   1.055   2.687 -0.1825  0.3923 -0.9530
  175SAPS   C2319916   6.048   0.519   2.451 -0.1183  1.0225 -0.8643
  175SAPS   H3R19917   5.947   0.473   2.444  0.2709 -0.9320  3.5100
  175SAPS   H3S19918   6.069   0.598   2.375  1.9725  0.8767 -0.4992
  175SAPS   C2419919   6.058   0.575   2.600  0.4547  0.2406 -0.1908
  175SAPS   H4R19920   5.982   0.652   2.627  0.1314 -0.1815  0.1201
  175SAPS   H4S19921   6.159   0.621   2.606  0.9698 -0.9417  0.7764
  175SAPS   C2519922   6.070   0.453   2.704  0.5349 -0.2392  0.1068
  175SAPS   H5R19923   5.995   0.372   2.701  1.1425 -0.8706  1.3304
  175SAPS   C2619924   6.168   0.433   2.796  0.3637  0.3796 -0.3125
  175SAPS   H6R19925   6.162   0.341   2.856  2.9709  0.5346  0.2917
  175SAPS   C2719926   6.293   0.516   2.817  0.1266 -0.5038  0.2511
  175SAPS   H7R19927   6.290   0.578   2.909  2.0314  2.4575 -1.5318
  175SAPS   H7S19928   6.318   0.578   2.728 -0.4456 -0.0002  0.4410
  175SAPS   C2819929   6.399   0.414   2.837 -0.4013 -0.4368 -0.1480
  175SAPS   H8R19930   6.409   0.340   2.756 -1.2514 -2.2284  1.3144
  175SAPS   C2919931   6.477   0.402   2.945 -0.5036 -0.4128 -0.1971
  175SAPS   H9R19932   6.561   0.331   2.935  0.0071  0.3073 -1.1379
  175SAPS  C21019933   6.492   0.485   3.076  0.6033  0.0639  0.0054
  175SAPS  H10R19934   6.439   0.583   3.077  0.6342  0.0839  1.1679
  175SAPS  H10S19935   6.595   0.519   3.097  0.0843  1.0574  1.1305
  175SAPS  C21119936   6.421   0.406   3.186 -0.3170 -0.5712 -0.4510
  175SAPS  H11R19937   6.344   0.333   3.156  0.4117 -1.2267 -0.7536
  175SAPS  C21219938   6.453   0.418   3.319  0.2407  0.5742 -0.3414
  175SAPS  H12R19939   6.388   0.375   3.396 -0.3687  0.2246 -1.0417
  175SAPS  C21319940   6.562   0.503   3.379 -0.0951 -0.2830  0.2360
  175SAPS  H13R19941   6.520   0.573   3.455  0.8712  1.2010 -0.5549
  175SAPS  H13S19942   6.611   0.564   3.300 -1.4222  1.4175  0.6492
  175SAPS  C21419943   6.669   0.410   3.431 -0.2760 -0.6979  0.0011
  175SAPS  H14R19944   6.690   0.312   3.383 -0.0215 -0.4873 -0.3277
  175SAPS  C21519945   6.745   0.425   3.540  1.1640  0.1181  0.0334
  175SAPS  H15R19946   6.805   0.338   3.570  1.5530  0.7942  1.3040
  175SAPS  C21619947   6.743   0.541   3.640  1.1824  0.5665  0.6074
  175SAPS  H16R19948   6.705   0.628   3.582 -2.3381 -2.5939 -2.4937
  175SAPS  H16S19949   6.843   0.566   3.680  0.6869  0.5977  1.8580
  175SAPS  C21719950   6.649   0.512   3.759 -0.1986  0.3832 -0.4408
  175SAPS  H17R19951   6.685   0.414   3.797  1.8071  1.9048  1.9001
  175SAPS  H17S19952   6.542   0.499   3.734 -0.7539  1.7193  1.0915
  175SAPS  C21819953   6.662   0.600   3.881  0.6041 -0.6871  0.2882
  175SAPS  H18R19954   6.590   0.554   3.953 -0.1955  0.4526  0.2328
  175SAPS  H18S19955   6.620   0.700   3.857  1.0839 -0.8638 -1.4476
  175SAPS  C21919956   6.811   0.612   3.928 -0.0451 -0.2356 -0.2408
  175SAPS  H19R19957   6.862   0.683   3.859  0.0804  1.4301  1.5116
  175SAPS  H19S19958   6.873   0.522   3.908  2.0309  1.4010 -1.6189
  175SAPS  C22019959   6.835   0.661   4.073  0.7997 -0.2603 -0.2969
  175SAPS  H20R19960   6.802   0.582   4.143 -3.6627  2.2166  0.7652
  175SAPS  H20S19961   6.786   0.758   4.095 -0.3491 -1.0207  0.6512
  175SAPS  H20T19962   6.945   0.670   4.089  0.7969  1.6103 -1.1093
  175SAPS   C3319963   6.308   0.902   2.825  0.1693 -0.4647 -0.1209
  175SAPS   H3X19964   6.417   0.923   2.839 -0.2181 -0.1292  3.3086
  175SAPS   H3Y19965   6.296   0.792   2.824  2.6096 -0.7964 -0.8111
  175SAPS   C3419966   6.253   0.955   2.959  0.2470  0.0503 -0.2828
  175SAPS   H4X19967   6.142   0.956   2.960  0.2432  1.6293  0.9568
  175SAPS   H4Y19968   6.287   1.060   2.967  0.4337 -0.0107 -0.2643
  175SAPS   C3519969   6.317   0.875   3.079 -0.0064  0.6167 -0.3682
  175SAPS   H5X19970   6.425   0.869   3.058 -0.6191 -0.1452 -4.0272
  175SAPS   H5Y19971   6.279   0.771   3.067 -0.1491  0.5035  0.9095
  175SAPS   C3619972   6.283   0.926   3.219  0.4972 -0.0241  1.0276
  175SAPS   H6X19973   6.174   0.933   3.237  0.5243  1.5694  0.7685
  175SAPS   H6Y19974   6.322   1.030   3.228 -0.0618  0.2602  0.3013
  175SAPS   C3719975   6.358   0.849   3.323  0.0246  0.0392 -0.5670
  175SAPS   H7X19976   6.465   0.877   3.329  0.2436 -0.9515  0.5790
  175SAPS   H7Y19977   6.340   0.744   3.289  0.2338 -0.8792  1.9758
  175SAPS   C3819978   6.310   0.876   3.465  0.2662 -0.7018 -0.1879
  175SAPS   H8X19979   6.202   0.869   3.489 -0.1534  0.9357 -1.4236
  175SAPS   H8Y19980   6.326   0.985   3.479 -1.6574 -0.5585  1.1514
  175SAPS   C3919981   6.383   0.786   3.568 -0.1829  0.1376 -0.0658
  175SAPS   H9X19982   6.492   0.805   3.563  0.2350 -1.4872  1.6196
  175SAPS   H9Y19983   6.358   0.683   3.534 -1.4922  1.1701 -2.5176
  175SAPS  C31019984   6.342   0.795   3.718 -0.6701  0.6719  0.3737
  175SAPS  H10X19985   6.381   0.700   3.760  0.3198  1.8782  2.3135
  175SAPS  H10Y19986   6.233   0.794   3.738 -0.5471  0.3273  1.0336
  175SAPS  C31119987   6.413   0.908   3.797  0.2383 -0.5686 -1.0551
  175SAPS  H11X19988   6.376   1.012   3.782 -0.1195 -0.5381 -0.0388
  175SAPS  H11Y19989   6.520   0.903   3.767  0.5881 -2.2598  0.3585
  175SAPS  C31219990   6.399   0.894   3.947  0.0621  0.0918 -0.1045
  175SAPS  H12X19991   6.428   0.790   3.973 -3.6262 -0.7170  1.3393
  175SAPS  H12Y19992   6.291   0.896   3.971  0.2371 -1.4139  0.9744
  175SAPS  C31319993   6.478   1.001   4.022  0.0011  0.7496 -0.5070
  175SAPS  H13X19994   6.580   1.010   3.978  0.1736  2.2832  0.1178
  175SAPS  H13Y19995   6.480   0.957   4.124 -1.4576  0.5616 -0.5397
  175SAPS  C31419996   6.413   1.135   4.026 -0.1703  0.2493  0.8476
  175SAPS  H14X19997   6.398   1.171   3.922  0.2323 -2.7419 -0.3397
  175SAPS  H14Y19998   6.477   1.210   4.078 -0.0882 -0.9261  2.5251
  175SAPS  C31519999   6.277   1.142   4.107  0.0114  0.1256  0.0166
  175SAPS  H15X20000   6.268   1.242   4.154 -0.4046  0.3373 -0.5145
  175SAPS  H15Y20001   6.285   1.075   4.196  2.6855  0.2163 -0.0672
  175SAPS  C31620002   6.148   1.116   4.024  0.4747  0.3733 -0.2341
  175SAPS  H16X20003   6.122   1.008   4.018  2.0147  0.0491 -2.3397
  175SAPS  H16Y20004   6.157   1.163   3.923  0.9155  1.2770  0.2190
  175SAPS  C31720005   6.030   1.180   4.095  0.1673  0.8836 -0.0319
  175SAPS  H17X20006   6.067   1.282   4.121  1.3226  0.0558  1.7926
  175SAPS  H17Y20007   6.005   1.136   4.194 -2.9066  1.0406 -0.6314
  175SAPS  C31820008   5.902   1.166   4.008 -1.1157  0.4415  0.1347
  175SAPS  H18X20009   5.812   1.190   4.068 -1.2117 -0.0890  0.2061
  175SAPS  H18Y20010   5.894   1.062   3.972  0.2018  1.0290 -2.0237
  175SAPS  H18Z20011   5.894   1.230   3.918  0.4893  1.3334  0.5735
  176SAPS     N20012   6.459   0.154   2.100 -0.8294 -0.3440  0.0584
  176SAPS   HN120013   6.506   0.132   2.190 -1.9983 -0.1988  0.7256
  176SAPS   HN220014   6.433   0.255   2.098  0.5472  0.1160  2.0266
  176SAPS   HN320015   6.369   0.101   2.100  0.1461 -2.1199  1.5845
  176SAPS   C1220016   6.555   0.094   1.998 -0.2757  0.0141 -0.2573
  176SAPS  H12A20017   6.544  -0.013   2.002  1.4924 -0.1823  0.5802
  176SAPS   C1320018   6.514   0.125   1.856  0.0318 -0.1278  0.2166
  176SAPS  O13A20019   6.404   0.184   1.832 -0.5387  0.4097  0.2648
  176SAPS  O13B20020   6.582   0.093   1.761 -0.2672 -0.0637  0.6890
  176SAPS   C1120021   6.707   0.139   2.013  1.1202 -1.4570  0.2036
  176SAPS  H11A20022   6.725   0.248   2.010  1.5449 -1.5590 -1.6612
  176SAPS  H11B20023   6.762   0.105   1.923  3.8197 -0.0586  1.2102
  176SAPS     P20024   6.905   0.119   2.174  0.3194  0.1926 -0.1215
  176SAPS   O1320025   6.941   0.021   2.278 -0.4858 -0.3837 -0.4682
  176SAPS   O1420026   6.997   0.124   2.055 -0.3236 -0.3114 -0.6594
  176SAPS   O1220027   6.763   0.083   2.135 -0.6623 -0.5626  0.3766
  176SAPS   O1120028   6.891   0.262   2.226  0.2000 -0.1527  0.2974
  176SAPS    C120029   6.789   0.299   2.317 -0.2534 -0.2987 -0.6137
  176SAPS    HA20030   6.775   0.409   2.319 -1.8609 -0.4919 -0.1737
  176SAPS    HB20031   6.688   0.272   2.279 -0.4595  0.7060 -0.8087
  176SAPS    C220032   6.820   0.253   2.466  0.3430 -0.5286  0.1710
  176SAPS    HS20033   6.928   0.235   2.477  0.3227 -1.2756 -0.6990
  176SAPS   O2120034   6.738   0.145   2.499  1.0054 -0.0967 -0.1392
  176SAPS   C2120035   6.791   0.062   2.591 -0.1847 -0.9930 -0.0441
  176SAPS   O2220036   6.906   0.063   2.629  0.6512 -0.1892  0.5521
  176SAPS   C2220037   6.674  -0.021   2.655  0.1774 -0.3508  1.4191
  176SAPS   H2R20038   6.626  -0.071   2.567  0.4117  3.0678 -0.8153
  176SAPS   H2S20039   6.726  -0.106   2.704  2.5429 -0.8735 -1.7043
  176SAPS    C320040   6.786   0.372   2.562  0.2479 -0.3794 -0.4605
  176SAPS    HX20041   6.677   0.388   2.578  0.4253  1.0690 -0.5466
  176SAPS    HY20042   6.830   0.467   2.523 -2.5635  1.0726 -0.3446
  176SAPS   O3120043   6.830   0.340   2.695 -0.5609  0.3066  0.2390
  176SAPS   C3120044   6.958   0.367   2.713  0.4758 -0.3671  0.1186
  176SAPS   O3220045   7.040   0.384   2.630 -0.3838  0.4708  0.5657
  176SAPS   C3220046   6.989   0.379   2.859 -0.2868 -0.0408  0.4398
  176SAPS   H2X20047   7.086   0.433   2.868 -0.6850  0.9381 -0.7665
  176SAPS   H2Y20048   6.984   0.274   2.895 -2.2760 -0.0424  0.2858
  176SAPS   C2320049   6.576   0.051   2.747  0.3785  0.6692  0.0068
  176SAPS   H3R20050   6.497   0.106   2.692 -1.5243 -2.0639 -0.1809
  176SAPS   H3S20051   6.629   0.120   2.817 -0.5035  0.3068  1.0592
  176SAPS   C2420052   6.509  -0.062   2.829 -0.2410  0.7562  0.4510
  176SAPS   H4R20053   6.588  -0.118   2.884  1.8115 -1.2468 -3.9961
  176SAPS   H4S20054   6.472  -0.138   2.756  0.1275 -0.5160  1.5457
  176SAPS   C2520055   6.389  -0.013   2.902 -0.5550 -0.6674 -0.5409
  176SAPS   H5R20056   6.300  -0.002   2.837 -2.2086  0.5311  1.7524
  176SAPS   C2620057   6.378   0.011   3.033 -0.2634  0.4954 -0.5917
  176SAPS   H6R20058   6.283   0.055   3.065  0.5039  0.8321  1.3452
  176SAPS   C2720059   6.483   0.011   3.142 -0.2746  0.6905  0.6322
  176SAPS   H7R20060   6.476   0.115   3.179 -0.2329  0.6793  0.6711
  176SAPS   H7S20061   6.587  -0.002   3.104 -0.3659  1.6661  0.0151
  176SAPS   C2820062   6.446  -0.085   3.254  0.2783  0.0719  0.2404
  176SAPS   H8R20063   6.408  -0.184   3.222 -1.0651 -0.0676  2.1040
  176SAPS   C2920064   6.478  -0.077   3.386  0.8430 -0.2744  0.0690
  176SAPS   H9R20065   6.447  -0.160   3.452  2.5705 -0.4009  0.7865
  176SAPS  C21020066   6.543   0.046   3.456  0.9438 -0.1524 -0.1606
  176SAPS  H10R20067   6.461   0.110   3.494 -0.0982 -1.3012 -0.3828
  176SAPS  H10S20068   6.595   0.106   3.378  0.9406  0.8079  0.5618
  176SAPS  C21120069   6.641   0.013   3.570  0.7633 -0.0686  0.3800
  176SAPS  H11R20070   6.727  -0.039   3.526  1.0101  2.2155 -2.1308
  176SAPS  C21220071   6.620   0.005   3.701 -0.1545 -0.1073 -0.4057
  176SAPS  H12R20072   6.700  -0.023   3.771 -0.0567  0.5884 -0.2364
  176SAPS  C21320073   6.489   0.039   3.760 -0.1430  0.5598  0.2330
  176SAPS  H13R20074   6.401   0.002   3.703 -0.9919  2.4903  0.2007
  176SAPS  H13S20075   6.478   0.149   3.755 -0.9320  0.5176  0.8027
  176SAPS  C21420076   6.476  -0.002   3.898 -0.7109  0.6219 -0.3087
  176SAPS  H14R20077   6.400  -0.077   3.925 -1.4583  1.6757  0.6547
  176SAPS  C21520078   6.544   0.057   4.000 -0.4631  0.2927 -0.1099
  176SAPS  H15R20079   6.526   0.016   4.101  1.3995 -1.2252 -0.3358
  176SAPS  C21620080   6.646   0.175   4.005 -0.0361 -0.1104 -0.2763
  176SAPS  H16R20081   6.589   0.265   4.037  0.1129  0.9344 -2.7441
  176SAPS  H16S20082   6.690   0.194   3.905  0.7982  0.9872  0.2737
  176SAPS  C21720083   6.763   0.154   4.110  1.3696  0.3956  0.3782
  176SAPS  H17R20084   6.827   0.066   4.086 -0.3505 -0.8432  0.1094
  176SAPS  H17S20085   6.716   0.158   4.211 -3.1523 -1.5044 -1.3805
  176SAPS  C21820086   6.867   0.272   4.095  0.2949  0.2312 -0.4985
  176SAPS  H18R20087   6.822   0.372   4.117  2.3982  1.1637 -0.1611
  176SAPS  H18S20088   6.905   0.277   3.991 -2.5901 -0.5845 -1.7058
  176SAPS  C21920089   7.000   0.256   4.176 -0.1807  0.1028 -0.3043
  176SAPS  H19R20090   7.055   0.165   4.145  1.3441  0.4919  1.0995
  176SAPS  H19S20091   6.967   0.240   4.281 -1.3431  1.2203 -0.4809
  176SAPS  C22020092   7.098   0.375   4.191  0.6377  0.5280  0.7975
  176SAPS  H20R20093   7.049   0.473   4.208  1.1932  0.4943  2.8605
  176SAPS  H20S20094   7.160   0.385   4.099 -0.1976 -0.9928  0.0375
  176SAPS  H20T20095   7.159   0.349   4.281  1.7521 -3.6668 -0.9412
  176SAPS   C3320096   6.882   0.447   2.953  0.6726  0.4195  0.1241
  176SAPS   H3X20097   6.775   0.417   2.953  0.5752  0.7615 -0.3719
  176SAPS   H3Y20098   6.873   0.553   2.919 -1.1764  0.6791  1.2858
  176SAPS   C3420099   6.924   0.456   3.101  0.2927  0.3287  0.4565
  176SAPS   H4X20100   6.844   0.505   3.160  0.5696  0.3122  0.8450
  176SAPS   H4Y20101   7.021   0.508   3.115  0.2322  1.6089 -2.9630
  176SAPS   C3520102   6.941   0.315   3.172 -0.1861 -0.1804  0.0919
  176SAPS   H5X20103   7.015   0.262   3.108  1.1358 -0.9826  2.1834
  176SAPS   H5Y20104   6.839   0.270   3.175 -0.7463  1.0738  1.2049
  176SAPS   C3620105   7.001   0.311   3.315  0.0356 -0.5417  0.1426
  176SAPS   H6X20106   6.968   0.408   3.359  1.0839  0.0756 -0.3799
  176SAPS   H6Y20107   7.110   0.327   3.304  0.0422  0.5417  1.4938
  176SAPS   C3720108   6.977   0.181   3.397 -0.0921  0.5013  0.3771
  176SAPS   H7X20109   7.003   0.100   3.325 -3.4818  1.0601 -1.7342
  176SAPS   H7Y20110   6.868   0.181   3.417 -0.0556  0.9781  0.6044
  176SAPS   C3820111   7.054   0.179   3.525 -0.4132 -0.3990 -0.6236
  176SAPS   H8X20112   7.011   0.258   3.590 -1.0332  0.1831 -1.7275
  176SAPS   H8Y20113   7.165   0.191   3.517 -0.3841  1.1524  1.3529
  176SAPS   C3920114   7.034   0.052   3.611 -0.0298  0.1542  0.6199
  176SAPS   H9X20115   7.081  -0.036   3.562  0.1984  1.1114 -0.9103
  176SAPS   H9Y20116   6.926   0.041   3.636  0.1886  2.3882  3.0047
  176SAPS  C31020117   7.090   0.072   3.755  0.5243 -0.6903 -1.1689
  176SAPS  H10X20118   7.045  -0.001   3.826 -1.4523 -0.8179 -2.4952
  176SAPS  H10Y20119   7.049   0.170   3.787  1.0770 -0.8997  0.2351
  176SAPS  C31120120   7.241   0.054   3.775  0.1068  0.3270 -1.1051
  176SAPS  H11X20121   7.300   0.127   3.717  0.4393 -0.6183 -1.9925
  176SAPS  H11Y20122   7.253  -0.046   3.727  0.3285 -0.3056  0.2277
  176SAPS  C31220123   7.265   0.056   3.924  0.4535 -0.4850  0.2566
  176SAPS  H12X20124   7.228  -0.031   3.983  1.0106  0.2456  1.7392
  176SAPS  H12Y20125   7.209   0.142   3.968  0.9494  0.2528 -0.5259
  176SAPS  C31320126   7.413   0.061   3.968 -0.0958 -0.7171  0.4132
  176SAPS  H13X20127   7.455   0.147   3.911  0.3903 -1.0702  0.2265
  176SAPS  H13Y20128   7.452  -0.036   3.930 -0.8968 -0.9073  0.0628
  176SAPS  C31420129   7.447   0.085   4.114  0.2194  0.2822 -0.7170
  176SAPS  H14X20130   7.419   0.190   4.137  1.9748  0.1820  2.5321
  176SAPS  H14Y20131   7.553   0.079   4.148 -0.2014  0.0154  0.6376
  176SAPS  C31520132   7.374  -0.015   4.203  0.3443  0.2566  0.2024
  176SAPS  H15X20133   7.416  -0.113   4.172 -0.0639 -0.4218  1.6882
  176SAPS  H15Y20134   7.264  -0.012   4.185  0.4095  0.2938 -0.1888
  176SAPS  C31620135   7.397  -0.007   4.354  0.1331 -0.1321 -0.3881
  176SAPS  H16X20136   7.353   0.089   4.389  0.5687  0.2623 -0.9107
  176SAPS  H16Y20137   7.504  -0.016   4.381  0.0383  0.4724  0.2306
  176SAPS  C31720138   7.322  -0.100   4.448  0.1600 -0.2362 -0.3964
  176SAPS  H17X20139   7.312  -0.203   4.407 -1.9457 -0.4061  0.3954
  176SAPS  H17Y20140   7.218  -0.062   4.458  0.1949 -0.0233 -0.8293
  176SAPS  C31820141   7.391  -0.101   4.589 -0.3293 -0.1217 -0.4658
  176SAPS  H18X20142   7.459  -0.015   4.607 -2.3175  1.7642 -1.5974
  176SAPS  H18Y20143   7.463  -0.186   4.595 -1.3806 -1.2454 -2.6732
  176SAPS  H18Z20144   7.321  -0.117   4.674  2.8609  0.6951  2.5628
  177SAPS     N20145   1.025   3.153   2.105 -0.7840 -0.5600  0.1503
  177SAPS   HN120146   1.004   3.079   2.175  0.5021  0.0991  1.2922
  177SAPS   HN220147   1.128   3.161   2.091 -0.4717  0.5768  2.5256
  177SAPS   HN320148   0.997   3.248   2.136 -0.0139 -0.8481  1.8516
  177SAPS   C1220149   0.949   3.124   1.983 -0.0463  0.4895  0.1687
  177SAPS  H12A20150   0.844   3.119   2.009 -0.0658  1.1807  0.2423
  177SAPS   C1320151   0.981   3.216   1.864  0.5431  0.4305  0.4134
  177SAPS  O13A20152   1.076   3.292   1.876 -0.1773  0.7599  0.5494
  177SAPS  O13B20153   0.929   3.193   1.754 -0.5251 -0.6421  0.1830
  177SAPS   C1120154   0.991   2.977   1.946 -0.0351 -0.8340 -0.6358
  177SAPS  H11A20155   1.102   2.972   1.939  0.0661 -0.4720  0.4945
  177SAPS  H11B20156   0.953   2.935   1.850 -0.0936 -2.0838 -0.0799
  177SAPS     P20157   0.819   2.802   2.072  0.1368  0.0094 -0.1678
  177SAPS   O1320158   0.779   2.767   1.929  0.1874  0.2508 -0.5914
  177SAPS   O1420159   0.850   2.691   2.162  0.5816  0.2721 -0.0298
  177SAPS   O1220160   0.956   2.897   2.064  0.2769 -0.4103  0.3569
  177SAPS   O1120161   0.713   2.887   2.134 -1.2344  0.3589  0.2676
  177SAPS    C120162   0.596   2.843   2.196  0.6159  0.2245  0.2515
  177SAPS    HA20163   0.505   2.870   2.140  0.8581 -1.9375 -1.3166
  177SAPS    HB20164   0.604   2.740   2.239  1.5129  0.7917  1.5188
  177SAPS    C220165   0.573   2.911   2.331  0.0238  0.2124 -0.5328
  177SAPS    HS20166   0.570   3.021   2.313  1.4178  0.3273 -0.2130
  177SAPS   O2120167   0.686   2.866   2.414  0.2482  0.0772 -0.1561
  177SAPS   C2120168   0.800   2.933   2.413 -0.3340 -0.4338  0.6560
  177SAPS   O2220169   0.825   3.033   2.350  0.7811 -0.4311  0.4915
  177SAPS   C2220170   0.901   2.863   2.504  0.0111  0.6373 -0.6855
  177SAPS   H2R20171   0.899   2.752   2.502 -0.8246  0.6352 -0.0043
  177SAPS   H2S20172   1.003   2.888   2.467  1.3374 -0.1465  2.1676
  177SAPS    C320173   0.439   2.889   2.406 -0.4855 -0.8970 -0.4403
  177SAPS    HX20174   0.428   2.779   2.421  1.1076 -0.6685  3.6426
  177SAPS    HY20175   0.351   2.912   2.342  0.9416  0.6339 -1.9741
  177SAPS   O3120176   0.440   2.941   2.541  0.9819  0.1530 -0.1718
  177SAPS   C3120177   0.409   3.065   2.548  0.6290  0.2912  0.4891
  177SAPS   O3220178   0.356   3.129   2.454 -0.1751 -0.1623  0.2264
  177SAPS   C3220179   0.427   3.111   2.693  0.7891  0.3959  0.6427
  177SAPS   H2X20180   0.520   3.078   2.743 -0.5762 -0.7715  2.5480
  177SAPS   H2Y20181   0.339   3.077   2.751 -0.8109 -0.2178 -1.9506
  177SAPS   C2320182   0.893   2.929   2.643 -0.3073 -0.7236 -0.2223
  177SAPS   H3R20183   0.787   2.940   2.675 -0.0514  2.0056 -0.1096
  177SAPS   H3S20184   0.945   3.027   2.637 -1.0082 -0.2760  0.7215
  177SAPS   C2420185   0.955   2.834   2.749  0.4914 -0.1492 -0.8421
  177SAPS   H4R20186   0.899   2.738   2.759 -1.1432  0.2528 -4.4522
  177SAPS   H4S20187   0.940   2.878   2.850 -3.0760  0.0228 -1.3155
  177SAPS   C2520188   1.101   2.815   2.718  0.9056 -0.1833  1.3920
  177SAPS   H5R20189   1.138   2.809   2.615  0.0684 -1.2081  1.1383
  177SAPS   C2620190   1.194   2.802   2.817  0.6602 -0.5725 -0.1755
  177SAPS   H6R20191   1.300   2.790   2.789  0.5637  0.2626 -0.9374
  177SAPS   C2720192   1.168   2.811   2.965  0.6980 -0.6959  0.1686
  177SAPS   H7R20193   1.253   2.766   3.020  0.0628 -0.6412  1.2273
  177SAPS   H7S20194   1.075   2.750   2.974  0.1987 -0.0758 -0.6158
  177SAPS   C2820195   1.141   2.949   3.026  0.1111 -0.1152 -0.1203
  177SAPS   H8R20196   1.109   3.027   2.956  1.1599  1.4048  1.0193
  177SAPS   C2920197   1.158   2.981   3.160 -0.3361  0.2098 -0.0738
  177SAPS   H9R20198   1.125   3.079   3.197 -0.6415  0.4643 -0.9876
  177SAPS  C21020199   1.210   2.887   3.261  0.0092  0.3352 -0.0574
  177SAPS  H10R20200   1.175   2.784   3.238 -0.7596  0.9044 -1.5881
  177SAPS  H10S20201   1.165   2.902   3.362 -1.2431 -1.9206 -0.1997
  177SAPS  C21120202   1.363   2.892   3.263  0.2859 -0.0024 -0.4581
  177SAPS  H11R20203   1.401   2.894   3.160  0.9155 -1.8103 -0.3006
  177SAPS  C21220204   1.442   2.877   3.367  0.1872 -0.8099 -0.6426
  177SAPS  H12R20205   1.551   2.880   3.356  0.5075  1.2479  2.0168
  177SAPS  C21320206   1.395   2.867   3.512  0.2421 -0.7155  0.9718
  177SAPS  H13R20207   1.369   2.761   3.531  1.8364 -1.1874  0.6188
  177SAPS  H13S20208   1.303   2.929   3.520  0.0515 -0.9070  0.2909
  177SAPS  C21420209   1.499   2.909   3.621  0.2731  0.3202  0.0777
  177SAPS  H14R20210   1.597   2.950   3.592  0.4221  0.4077  0.7080
  177SAPS  C21520211   1.471   2.891   3.750 -0.0171 -0.0194 -0.1160
  177SAPS  H15R20212   1.549   2.928   3.820 -0.2274 -0.2644  0.2516
  177SAPS  C21620213   1.345   2.838   3.815 -0.8958  0.3862  0.8017
  177SAPS  H16R20214   1.354   2.727   3.820 -1.2291  0.2598 -0.6970
  177SAPS  H16S20215   1.256   2.858   3.750  0.8091  0.6493 -1.5813
  177SAPS  C21720216   1.319   2.906   3.943  0.3684  0.0618  0.1472
  177SAPS  H17R20217   1.228   2.855   3.980  0.4788 -0.5912 -0.4643
  177SAPS  H17S20218   1.281   3.009   3.924 -0.2988 -0.5703 -2.2886
  177SAPS  C21820219   1.428   2.887   4.052 -0.3605 -0.2155 -0.0723
  177SAPS  H18R20220   1.509   2.962   4.038  0.4199 -0.9213  0.5426
  177SAPS  H18S20221   1.469   2.784   4.045  1.9262  0.5360  1.2060
  177SAPS  C21920222   1.367   2.917   4.194 -0.2865  1.1466 -0.6596
  177SAPS  H19R20223   1.280   2.847   4.194  0.1623  0.5731  0.2019
  177SAPS  H19S20224   1.343   3.025   4.202  0.8407  1.2812  1.3573
  177SAPS  C22020225   1.461   2.883   4.315  0.2911  0.3769 -0.1962
  177SAPS  H20R20226   1.544   2.953   4.335  0.7192 -0.3759  0.7160
  177SAPS  H20S20227   1.479   2.773   4.313  0.6791  0.3752  1.7727
  177SAPS  H20T20228   1.400   2.893   4.407 -0.1843 -0.4564 -0.4069
  177SAPS   C3320229   0.426   3.263   2.698  0.3067  0.2131  0.2305
  177SAPS   H3X20230   0.330   3.298   2.654  0.5338 -0.5566 -0.9299
  177SAPS   H3Y20231   0.515   3.306   2.649  1.6949 -2.7002 -0.0252
  177SAPS   C3420232   0.435   3.317   2.842  0.4239 -0.3073  0.2818
  177SAPS   H4X20233   0.536   3.288   2.876  1.0611 -1.2561 -2.2155
  177SAPS   H4Y20234   0.360   3.272   2.910 -0.2639  1.1830  0.5677
  177SAPS   C3520235   0.419   3.473   2.849 -0.3051 -0.4151  0.0327
  177SAPS   H5X20236   0.328   3.494   2.790 -1.0891  0.3214  1.4710
  177SAPS   H5Y20237   0.507   3.515   2.795 -1.5035  1.5626 -0.4658
  177SAPS   C3620238   0.412   3.542   2.989  0.0990 -0.7663  0.8502
  177SAPS   H6X20239   0.310   3.519   3.027  0.7634 -1.4548  2.2842
  177SAPS   H6Y20240   0.413   3.651   2.968  0.7964 -0.8397  0.4579
  177SAPS   C3720241   0.520   3.496   3.081  0.3027 -0.2211  0.0772
  177SAPS   H7X20242   0.611   3.533   3.030 -1.9141  1.3322 -3.0898
  177SAPS   H7Y20243   0.538   3.386   3.088  0.5212 -0.3159 -1.6043
  177SAPS   C3820244   0.513   3.546   3.225  0.6639 -0.0052  0.9047
  177SAPS   H8X20245   0.421   3.503   3.271 -0.6949  0.7951 -0.9291
  177SAPS   H8Y20246   0.487   3.654   3.222 -1.4773 -0.4711  0.6808
  177SAPS   C3920247   0.643   3.524   3.304  1.0136 -0.4737  0.0005
  177SAPS   H9X20248   0.738   3.530   3.246  0.8485  0.1464 -0.2134
  177SAPS   H9Y20249   0.627   3.419   3.336 -2.2133 -0.3514 -0.8511
  177SAPS  C31020250   0.655   3.614   3.423 -0.0955 -0.2805  0.0178
  177SAPS  H10X20251   0.714   3.705   3.398  0.5544 -0.9727 -1.0874
  177SAPS  H10Y20252   0.725   3.557   3.488  1.1588  1.1996  0.0213
  177SAPS  C31120253   0.525   3.629   3.493 -0.1478  0.0823 -0.4064
  177SAPS  H11X20254   0.468   3.534   3.504  0.3235 -0.1361  0.1837
  177SAPS  H11Y20255   0.459   3.697   3.435 -0.8271  0.0273  0.2831
  177SAPS  C31220256   0.537   3.699   3.630 -0.4055  0.0382  0.6349
  177SAPS  H12X20257   0.432   3.717   3.664 -1.0443 -3.7040  1.0781
  177SAPS  H12Y20258   0.585   3.797   3.610  0.7462 -1.0954 -3.1033
  177SAPS  C31320259   0.626   3.616   3.728  0.4637  0.1653 -0.5837
  177SAPS  H13X20260   0.731   3.607   3.694  0.7216  1.1161 -0.0557
  177SAPS  H13Y20261   0.574   3.518   3.738  1.8240 -0.6397 -1.1759
  177SAPS  C31420262   0.627   3.693   3.864 -0.5049 -0.1134  0.4151
  177SAPS  H14X20263   0.529   3.696   3.917  0.6989 -1.8413  2.9559
  177SAPS  H14Y20264   0.660   3.796   3.838 -0.8918 -0.2776 -0.7744
  177SAPS  C31520265   0.711   3.632   3.982 -0.1824  0.4455  0.0370
  177SAPS  H15X20266   0.783   3.710   4.015  1.9749 -1.6310  0.5453
  177SAPS  H15Y20267   0.764   3.540   3.949  0.2428  0.9492 -0.7270
  177SAPS  C31620268   0.624   3.588   4.100  0.6023 -0.5608 -0.0640
  177SAPS  H16X20269   0.532   3.530   4.076 -0.5270  0.4746  1.5719
  177SAPS  H16Y20270   0.572   3.670   4.154 -0.6969 -0.7298 -0.9977
  177SAPS  C31720271   0.716   3.523   4.209 -0.3810 -0.0612  1.0674
  177SAPS  H17X20272   0.751   3.429   4.161 -1.4890  0.7279 -1.4658
  177SAPS  H17Y20273   0.649   3.491   4.292 -1.6129  1.0050  0.5274
  177SAPS  C31820274   0.826   3.610   4.270  0.1513  0.3080  0.3219
  177SAPS  H18X20275   0.868   3.557   4.358  0.8795 -1.5465 -1.0886
  177SAPS  H18Y20276   0.776   3.704   4.303 -0.6178 -0.3116  0.9754
  177SAPS  H18Z20277   0.909   3.634   4.201  0.1767 -2.2192 -0.6344
  178SAPS     N20278   6.450   6.022   2.067 -0.1224 -0.1674  0.3454
  178SAPS   HN120279   6.375   5.987   2.005  0.2310  1.5671 -1.1335
  178SAPS   HN220280   6.410   6.022   2.163 -0.4704 -0.4701  0.2025
  178SAPS   HN320281   6.492   6.110   2.031 -0.6856 -0.1020 -0.1643
  178SAPS   C1220282   6.560   5.921   2.055  0.1274  0.8811 -0.7508
  178SAPS  H12A20283   6.517   5.833   2.100 -1.2008  0.7697 -2.1655
  178SAPS   C1320284   6.601   5.888   1.909  0.2092  0.0732  0.6417
  178SAPS  O13A20285   6.543   5.947   1.812  0.3127 -0.0582  0.5161
  178SAPS  O13B20286   6.686   5.802   1.885 -0.5825  0.2803 -0.0910
  178SAPS   C1120287   6.683   5.969   2.127 -0.6393  0.8243  0.7145
  178SAPS  H11A20288   6.706   6.061   2.070 -0.4857 -0.2221 -0.9769
  178SAPS  H11B20289   6.775   5.910   2.104 -1.3550  0.6850 -2.1608
  178SAPS     P20290   6.696   6.098   2.359 -0.3164  0.5114 -0.1299
  178SAPS   O1320291   6.785   6.190   2.289 -0.5922 -0.1212  0.1979
  178SAPS   O1420292   6.567   6.158   2.412 -0.5914 -0.3713 -0.3972
  178SAPS   O1220293   6.657   5.977   2.265  0.0038  0.1824  0.2663
  178SAPS   O1120294   6.784   6.029   2.466  1.1388  0.3974 -0.0558
  178SAPS    C120295   6.731   5.993   2.599 -0.3893 -0.3197  0.2820
  178SAPS    HA20296   6.627   5.955   2.600 -0.5802  0.1123 -0.9215
  178SAPS    HB20297   6.795   5.913   2.644  0.1357 -0.5094 -0.7589
  178SAPS    C220298   6.739   6.122   2.675 -0.4630 -0.2586  0.7413
  178SAPS    HS20299   6.679   6.197   2.619 -0.2230  1.2705  2.4001
  178SAPS   O2120300   6.884   6.158   2.684 -0.7237  0.0740 -0.7727
  178SAPS   C2120301   6.901   6.289   2.706 -0.0672  0.4922  0.3140
  178SAPS   O2220302   6.815   6.372   2.712 -0.2731 -0.1698 -0.5591
  178SAPS   C2220303   7.046   6.328   2.738  0.1016 -0.2934  0.1390
  178SAPS   H2R20304   7.105   6.296   2.650  1.4399 -0.9740  1.2510
  178SAPS   H2S20305   7.043   6.436   2.763 -1.3928 -0.6795  1.8616
  178SAPS    C320306   6.678   6.096   2.814 -0.8075  0.4531 -0.2566
  178SAPS    HX20307   6.738   6.021   2.869  0.8963  1.4510 -0.6990
  178SAPS    HY20308   6.575   6.057   2.799 -1.3650  1.8197 -0.1356
  178SAPS   O3120309   6.674   6.220   2.899  0.3112  0.1888 -0.0515
  178SAPS   C3120310   6.566   6.299   2.894 -0.0557  0.2276  0.2347
  178SAPS   O3220311   6.469   6.271   2.831  0.3278 -0.4726 -0.8456
  178SAPS   C3220312   6.580   6.438   2.951  0.0697 -0.2948  0.6883
  178SAPS   H2X20313   6.535   6.502   2.873  0.7952 -2.2603 -1.4686
  178SAPS   H2Y20314   6.686   6.472   2.950 -0.3479  1.1122  1.4210
  178SAPS   C2320315   7.094   6.234   2.855 -0.1467 -0.1598  0.7135
  178SAPS   H3R20316   7.194   6.274   2.883 -0.7894  0.3388  2.4222
  178SAPS   H3S20317   7.102   6.127   2.826 -1.4364 -0.4649  1.4261
  178SAPS   C2420318   7.004   6.263   2.978 -0.0156  0.5721 -0.2172
  178SAPS   H4R20319   6.906   6.214   2.961  0.1024  0.6531 -1.1578
  178SAPS   H4S20320   6.997   6.373   2.971 -0.6689  0.8111  2.6984
  178SAPS   C2520321   7.078   6.226   3.107 -0.4701  0.2467 -0.2113
  178SAPS   H5R20322   7.176   6.275   3.117  0.7553 -2.3901  2.0748
  178SAPS   C2620323   7.025   6.168   3.212  0.0077  0.5057  0.3191
  178SAPS   H6R20324   7.096   6.157   3.295  3.5387  1.1783 -2.3870
  178SAPS   C2720325   6.879   6.131   3.227  0.4721  0.3739 -0.4012
  178SAPS   H7R20326   6.825   6.116   3.132  1.6897 -0.4741 -0.9935
  178SAPS   H7S20327   6.831   6.227   3.257 -2.3926 -0.3448 -2.3096
  178SAPS   C2820328   6.855   6.034   3.335  0.7008  0.2232 -0.8078
  178SAPS   H8R20329   6.828   5.932   3.302  0.9453  0.3196 -1.3242
  178SAPS   C2920330   6.854   6.056   3.466 -0.2980  0.3147  0.7651
  178SAPS   H9R20331   6.828   5.970   3.529  0.6804 -0.8009 -0.3024
  178SAPS  C21020332   6.878   6.187   3.539  1.0887 -0.1578  0.4636
  178SAPS  H10R20333   6.846   6.268   3.471 -2.0426 -0.4668  1.3949
  178SAPS  H10S20334   6.981   6.200   3.579  0.7273  2.3503  0.6890
  178SAPS  C21120335   6.801   6.201   3.670  0.0673  0.4324  0.5374
  178SAPS  H11R20336   6.702   6.241   3.644  0.6470 -0.3285 -3.7719
  178SAPS  C21220337   6.835   6.155   3.789 -0.0354 -0.4691  0.7848
  178SAPS  H12R20338   6.763   6.176   3.869  0.1312 -1.7043  1.2881
  178SAPS  C21320339   6.959   6.078   3.833 -0.3048 -0.4555 -0.0940
  178SAPS  H13R20340   7.043   6.105   3.765  1.3186 -0.2817  1.8755
  178SAPS  H13S20341   6.942   5.968   3.830 -0.7986 -0.5020  2.2528
  178SAPS  C21420342   6.999   6.114   3.974  1.0293  0.2641  0.0366
  178SAPS  H14R20343   7.033   6.218   3.976 -0.8453  0.9360 -0.6189
  178SAPS  C21520344   6.994   6.040   4.084  0.0710 -0.1573  0.3125
  178SAPS  H15R20345   7.023   6.088   4.179  1.1459 -0.9022  0.3776
  178SAPS  C21620346   6.947   5.895   4.096 -0.0474 -0.1829  0.0568
  178SAPS  H16R20347   7.034   5.826   4.100  2.8412  3.1571  0.5286
  178SAPS  H16S20348   6.882   5.875   4.008  1.1975 -0.4468 -0.8295
  178SAPS  C21720349   6.864   5.889   4.227 -0.1586 -0.4414  0.3907
  178SAPS  H17R20350   6.768   5.943   4.209  0.0945 -0.4360 -1.0871
  178SAPS  H17S20351   6.929   5.937   4.304  1.2793 -3.5324  1.2702
  178SAPS  C21820352   6.841   5.747   4.275 -0.3474  0.3923 -0.2511
  178SAPS  H18R20353   6.945   5.709   4.265 -0.2890  0.7452 -1.0955
  178SAPS  H18S20354   6.784   5.701   4.192 -2.4075 -0.0755  1.3308
  178SAPS  C21920355   6.773   5.731   4.411 -0.1309  0.1628 -0.7059
  178SAPS  H19R20356   6.668   5.766   4.404 -0.4769 -0.8868 -0.9097
  178SAPS  H19S20357   6.828   5.783   4.492  1.8489 -2.3831 -0.2678
  178SAPS  C22020358   6.775   5.580   4.454 -0.6150 -0.3761 -0.6075
  178SAPS  H20R20359   6.880   5.560   4.486 -1.0082  0.2210  1.2018
  178SAPS  H20S20360   6.740   5.521   4.368 -1.3541  0.0909 -0.6325
  178SAPS  H20T20361   6.716   5.566   4.547  1.6157  1.8960  1.2980
  178SAPS   C3320362   6.511   6.468   3.084  0.6743 -0.6425 -0.2930
  178SAPS   H3X20363   6.400   6.475   3.079  0.6758 -0.0102  0.3482
  178SAPS   H3Y20364   6.540   6.572   3.111 -0.3318 -0.1937 -0.8899
  178SAPS   C3420365   6.538   6.369   3.198 -0.2164  0.2404 -0.4556
  178SAPS   H4X20366   6.644   6.342   3.217 -0.7237 -1.0531  0.6645
  178SAPS   H4Y20367   6.482   6.278   3.168  0.2364 -0.5976  1.1463
  178SAPS   C3520368   6.473   6.408   3.332 -0.1827 -0.5429 -0.4154
  178SAPS   H5X20369   6.365   6.434   3.324 -0.1264 -0.6587 -1.8023
  178SAPS   H5Y20370   6.521   6.496   3.381 -0.7391  0.0353 -0.8978
  178SAPS   C3620371   6.483   6.290   3.432  0.0842  0.4931 -0.5821
  178SAPS   H6X20372   6.593   6.274   3.440 -0.2885 -2.8231 -0.9266
  178SAPS   H6Y20373   6.445   6.201   3.378  0.0865  1.7739 -2.8383
  178SAPS   C3720374   6.431   6.309   3.580  0.3620 -0.8010 -0.2793
  178SAPS   H7X20375   6.463   6.224   3.644 -2.0178 -0.4368  1.5494
  178SAPS   H7Y20376   6.320   6.310   3.586  0.4151  0.2138  1.4127
  178SAPS   C3820377   6.503   6.431   3.655  0.3142  0.1542 -0.2897
  178SAPS   H8X20378   6.492   6.532   3.611  1.6947  0.3820 -0.1683
  178SAPS   H8Y20379   6.610   6.407   3.635  0.0975 -0.2924 -0.9411
  178SAPS   C3920380   6.458   6.418   3.799 -0.0119  0.7449 -0.8079
  178SAPS   H9X20381   6.506   6.322   3.827  2.7040  1.9496 -1.0354
  178SAPS   H9Y20382   6.347   6.419   3.795 -0.4523 -2.0972  3.2632
  178SAPS  C31020383   6.508   6.531   3.894  0.7794  0.7484  0.2284
  178SAPS  H10X20384   6.482   6.511   4.000  2.5002  1.8560  0.8869
  178SAPS  H10Y20385   6.466   6.629   3.865  2.1988  0.4429 -3.4388
  178SAPS  C31120386   6.660   6.555   3.884  0.5423  0.3092  0.4485
  178SAPS  H11X20387   6.683   6.597   3.784  0.5765 -2.6319 -0.8737
  178SAPS  H11Y20388   6.719   6.462   3.899 -0.3803 -0.0484  2.1227
  178SAPS  C31220389   6.726   6.651   3.987  0.7413 -0.0736 -0.2398
  178SAPS  H12X20390   6.688   6.626   4.088  0.5809  1.8730  0.2243
  178SAPS  H12Y20391   6.700   6.755   3.958  2.5205  0.8827  1.3939
  178SAPS  C31320392   6.875   6.656   3.996 -0.5346  0.2885  0.1621
  178SAPS  H13X20393   6.906   6.725   3.914 -0.8254  0.6970  0.3954
  178SAPS  H13Y20394   6.920   6.557   3.974  1.2249  0.7397  1.5252
  178SAPS  C31420395   6.924   6.686   4.138 -0.1900 -0.6865 -0.4134
  178SAPS  H14X20396   6.886   6.617   4.216 -1.4934  1.1975  0.7202
  178SAPS  H14Y20397   6.890   6.788   4.168  0.8889 -0.3888 -0.1673
  178SAPS  C31520398   7.080   6.676   4.144  0.6273  0.0304  0.3686
  178SAPS  H15X20399   7.115   6.738   4.229 -1.6451  0.3628  1.1229
  178SAPS  H15Y20400   7.124   6.705   4.046  1.2197 -1.2165  0.2552
  178SAPS  C31620401   7.132   6.529   4.163  0.7754 -0.1136  0.4796
  178SAPS  H16X20402   7.243   6.538   4.162  0.7254  0.6882  1.0413
  178SAPS  H16Y20403   7.094   6.479   4.071 -2.8369 -0.3498  1.9531
  178SAPS  C31720404   7.077   6.459   4.282  0.0942  0.2745  0.0160
  178SAPS  H17X20405   6.968   6.446   4.299  0.4796  0.2102  3.0349
  178SAPS  H17Y20406   7.102   6.526   4.367  1.4597 -0.7234  0.4236
  178SAPS  C31820407   7.145   6.321   4.292 -0.0521  0.4460  0.0982
  178SAPS  H18X20408   7.135   6.262   4.198  0.9532  0.3745  0.0288
  178SAPS  H18Y20409   7.110   6.266   4.382 -0.8978  1.1044  0.1791
  178SAPS  H18Z20410   7.253   6.337   4.311  0.2879 -1.5295  0.0509
  179SAPS     N20411   1.517   3.529   1.920 -0.6338  0.6518  0.6233
  179SAPS   HN120412   1.417   3.503   1.930 -0.5779  0.9078  2.0836
  179SAPS   HN220413   1.532   3.530   2.023 -0.8489 -1.5114  0.7130
  179SAPS   HN320414   1.537   3.615   1.865  2.1865 -0.3163 -0.0044
  179SAPS   C1220415   1.596   3.419   1.867  0.3151 -0.1206 -0.3620
  179SAPS  H12A20416   1.588   3.329   1.925  2.0636 -1.3256 -1.8675
  179SAPS   C1320417   1.560   3.372   1.722 -0.6586 -0.5784  0.2530
  179SAPS  O13A20418   1.441   3.395   1.678  0.5179 -0.3539  0.2668
  179SAPS  O13B20419   1.629   3.279   1.673 -0.0948 -0.6090 -0.1260
  179SAPS   C1120420   1.736   3.464   1.893 -0.1836  0.0105 -0.0207
  179SAPS  H11A20421   1.753   3.563   1.847  0.5598  0.7727  1.7962
  179SAPS  H11B20422   1.805   3.402   1.833 -0.6955 -1.6049  0.9995
  179SAPS     P20423   1.939   3.496   2.055 -0.0750  0.3438 -0.2251
  179SAPS   O1320424   2.034   3.388   2.011  0.1205  0.4283  0.8483
  179SAPS   O1420425   1.958   3.621   1.989 -0.2214  0.1643 -0.0838
  179SAPS   O1220426   1.795   3.446   2.027 -0.6063  0.5238  0.3483
  179SAPS   O1120427   1.941   3.519   2.212 -0.2663  1.1388  0.2884
  179SAPS    C120428   2.045   3.437   2.280 -0.1509 -0.7027  0.2307
  179SAPS    HA20429   2.055   3.334   2.239 -0.3469 -1.7040  2.5119
  179SAPS    HB20430   2.138   3.497   2.271 -0.5452 -0.1780 -0.4412
  179SAPS    C220431   2.016   3.405   2.432  0.2727 -0.3641 -0.2591
  179SAPS    HS20432   2.114   3.390   2.482 -0.4792  1.1335  1.8740
  179SAPS   O2120433   1.936   3.285   2.446 -0.2369 -0.1863 -0.3720
  179SAPS   C2120434   2.006   3.175   2.448  0.7409 -0.3618 -0.3798
  179SAPS   O2220435   2.123   3.173   2.420 -0.3692  0.5873  0.4601
  179SAPS   C2220436   1.912   3.053   2.474  0.3732 -1.0119 -0.0263
  179SAPS   H2R20437   1.817   3.072   2.418 -1.4559 -1.7015  2.6515
  179SAPS   H2S20438   1.971   2.962   2.451  1.2121 -0.2556 -0.9971
  179SAPS    C320439   1.951   3.512   2.517 -0.1979  0.3217  0.1281
  179SAPS    HX20440   1.850   3.528   2.474 -1.5209 -1.2530  2.4200
  179SAPS    HY20441   2.010   3.606   2.513  1.1615 -0.5361 -1.2106
  179SAPS   O3120442   1.939   3.476   2.651 -0.5405  0.2346 -0.1284
  179SAPS   C3120443   1.847   3.531   2.724 -0.1164 -0.4943 -0.0422
  179SAPS   O3220444   1.767   3.610   2.687  0.3987  0.0202  0.3256
  179SAPS   C3220445   1.851   3.480   2.868  0.2828  0.5386  0.4147
  179SAPS   H2X20446   1.921   3.397   2.890  0.7531  1.1175  1.1525
  179SAPS   H2Y20447   1.747   3.442   2.880  0.3015  0.1427 -0.5942
  179SAPS   C2320448   1.871   3.049   2.623  0.7477 -0.5256  0.6078
  179SAPS   H3R20449   1.780   2.987   2.638 -0.3287  1.1336  1.2524
  179SAPS   H3S20450   1.836   3.151   2.648  0.6622  0.5466 -3.2750
  179SAPS   C2420451   1.993   3.007   2.712  0.3908  0.3462  1.2777
  179SAPS   H4R20452   2.070   3.086   2.694  1.0291 -0.6605 -0.8032
  179SAPS   H4S20453   2.035   2.915   2.666  0.2071  0.8032  0.1516
  179SAPS   C2520454   1.964   2.982   2.857 -0.5643  0.1023 -0.0806
  179SAPS   H5R20455   1.857   2.987   2.882 -0.6158 -0.3536 -0.1997
  179SAPS   C2620456   2.051   2.986   2.959 -0.6831  0.1444 -1.2582
  179SAPS   H6R20457   2.013   2.963   3.060 -1.8390 -1.1745 -1.9511
  179SAPS   C2720458   2.198   2.979   2.944 -0.4464 -0.0046  0.1125
  179SAPS   H7R20459   2.222   2.926   2.850  0.2216  0.5444 -0.0386
  179SAPS   H7S20460   2.254   2.923   3.023 -0.8155 -0.0380  0.3502
  179SAPS   C2820461   2.255   3.113   2.927 -0.1626 -0.1123  0.1345
  179SAPS   H8R20462   2.210   3.186   2.858 -0.4889 -0.5152 -0.0812
  179SAPS   C2920463   2.376   3.156   2.973  0.0513  1.0083 -0.2103
  179SAPS   H9R20464   2.388   3.266   2.971  1.7494  0.8496 -0.6965
  179SAPS  C21020465   2.474   3.069   3.042 -0.5619 -0.4047 -0.6064
  179SAPS  H10R20466   2.487   2.968   2.997 -0.5888 -0.7498  0.1299
  179SAPS  H10S20467   2.428   3.028   3.135  3.2815 -2.0137  0.8094
  179SAPS  C21120468   2.601   3.155   3.073 -0.2567  0.1377 -0.0819
  179SAPS  H11R20469   2.594   3.264   3.062  1.5054  0.2741 -0.0809
  179SAPS  C21220470   2.707   3.105   3.139 -0.3525  0.5300  0.6810
  179SAPS  H12R20471   2.784   3.182   3.158  1.4372 -0.9331 -0.3031
  179SAPS  C21320472   2.716   2.958   3.183  0.0061  0.1751  0.7284
  179SAPS  H13R20473   2.699   2.891   3.096 -0.6022  0.3450  0.7083
  179SAPS  H13S20474   2.637   2.929   3.256  1.9185 -1.8681  2.0914
  179SAPS  C21420475   2.846   2.923   3.254  0.0234  0.2019 -0.2530
  179SAPS  H14R20476   2.911   2.859   3.194 -1.1633 -0.7993 -0.5109
  179SAPS  C21520477   2.875   2.955   3.381  0.2971  0.7938 -0.0202
  179SAPS  H15R20478   2.963   2.910   3.428 -1.0461 -2.1031 -0.0571
  179SAPS  C21620479   2.792   3.035   3.480  0.6265 -0.5721  0.1997
  179SAPS  H16R20480   2.688   3.057   3.449  0.1037 -3.2500 -0.1767
  179SAPS  H16S20481   2.844   3.133   3.481  0.6219 -0.5686  0.7435
  179SAPS  C21720482   2.790   2.974   3.624 -1.0120  1.1363  0.1926
  179SAPS  H17R20483   2.895   2.947   3.649 -1.3701  1.3132  2.0119
  179SAPS  H17S20484   2.734   2.878   3.626 -1.3620  1.3010 -0.9368
  179SAPS  C21820485   2.738   3.063   3.735 -0.2836  0.7888  0.7247
  179SAPS  H18R20486   2.656   3.132   3.706 -1.0150  0.2068  1.3612
  179SAPS  H18S20487   2.824   3.128   3.761  0.7436 -0.6920  1.1817
  179SAPS  C21920488   2.697   2.984   3.863 -0.2899 -1.3018  0.2364
  179SAPS  H19R20489   2.790   2.969   3.922 -0.7379  0.3533  1.4489
  179SAPS  H19S20490   2.645   2.888   3.840 -2.3836 -0.6280  1.7609
  179SAPS  C22020491   2.615   3.060   3.964  0.8056 -0.2981  0.3675
  179SAPS  H20R20492   2.515   3.085   3.923  0.9647  1.4931  0.9841
  179SAPS  H20S20493   2.668   3.151   4.001 -3.8957  2.1878  1.8348
  179SAPS  H20T20494   2.601   2.995   4.053  1.0463 -1.9215 -0.7446
  179SAPS   C3320495   1.884   3.592   2.968  0.3397 -0.1996 -0.1050
  179SAPS   H3X20496   1.857   3.565   3.073 -2.3889  1.6596 -0.2130
  179SAPS   H3Y20497   1.821   3.679   2.940  1.0711 -0.4444 -2.7540
  179SAPS   C3420498   2.032   3.633   2.979  0.1162  0.0370  0.5188
  179SAPS   H4X20499   2.049   3.698   3.067 -1.2351  1.5338 -0.2756
  179SAPS   H4Y20500   2.065   3.700   2.896 -3.6858  0.0729 -1.1494
  179SAPS   C3520501   2.120   3.508   2.990 -0.1324  0.4478  0.1873
  179SAPS   H5X20502   2.121   3.455   2.892  0.3164 -0.2116  0.5429
  179SAPS   H5Y20503   2.061   3.440   3.054 -0.9005  1.2216  0.3150
  179SAPS   C3620504   2.265   3.539   3.044  0.4957 -0.6758  0.8402
  179SAPS   H6X20505   2.303   3.634   3.000  0.2559 -1.4312 -1.0986
  179SAPS   H6Y20506   2.331   3.453   3.021  0.3582 -0.7198  0.6062
  179SAPS   C3720507   2.254   3.529   3.194  0.1303 -0.9196  0.0992
  179SAPS   H7X20508   2.160   3.481   3.229  0.6550 -1.2286  1.1187
  179SAPS   H7Y20509   2.238   3.635   3.224  1.4060 -0.6230 -0.1953
  179SAPS   C3820510   2.377   3.487   3.271 -0.0396 -0.1513 -1.1666
  179SAPS   H8X20511   2.454   3.557   3.233  1.0564 -0.4750  0.3494
  179SAPS   H8Y20512   2.406   3.386   3.233  1.6865  0.3614 -1.2997
  179SAPS   C3920513   2.372   3.491   3.427 -0.3091  0.3120 -0.4846
  179SAPS   H9X20514   2.293   3.427   3.473  0.4048 -0.4697 -0.3297
  179SAPS   H9Y20515   2.347   3.596   3.453 -0.1505  0.4313 -0.8038
  179SAPS  C31020516   2.502   3.450   3.496  0.4653 -0.6714 -0.4622
  179SAPS  H10X20517   2.588   3.498   3.445 -0.0809 -0.7435 -1.4723
  179SAPS  H10Y20518   2.514   3.340   3.489  0.7907 -0.5150 -4.2124
  179SAPS  C31120519   2.506   3.484   3.645 -0.5534 -0.3966  0.2834
  179SAPS  H11X20520   2.416   3.434   3.686 -0.6676  0.1544  0.7079
  179SAPS  H11Y20521   2.486   3.593   3.653  1.7202 -0.0679  3.4019
  179SAPS  C31220522   2.634   3.451   3.717 -0.5824  0.1494 -0.0668
  179SAPS  H12X20523   2.725   3.478   3.658 -0.1052 -1.1488  0.0366
  179SAPS  H12Y20524   2.637   3.340   3.722  0.8164  0.1224 -0.8989
  179SAPS  C31320525   2.658   3.517   3.857  0.0581 -0.0425  0.2817
  179SAPS  H13X20526   2.570   3.489   3.920 -1.0595 -2.0298 -1.9671
  179SAPS  H13Y20527   2.658   3.628   3.850  1.3826 -0.1435 -3.0322
  179SAPS  C31420528   2.794   3.470   3.912  0.4183  0.1766 -0.3252
  179SAPS  H14X20529   2.859   3.491   3.825  0.7424 -1.6174 -0.5678
  179SAPS  H14Y20530   2.782   3.360   3.926  1.5427  0.1095  0.1881
  179SAPS  C31520531   2.828   3.544   4.039 -0.0615  0.4922 -0.2230
  179SAPS  H15X20532   2.751   3.524   4.117 -1.4819  0.1074 -1.6712
  179SAPS  H15Y20533   2.840   3.650   4.009  0.4365 -0.5413 -4.2177
  179SAPS  C31620534   2.958   3.488   4.107 -0.4830 -0.3059 -0.2459
  179SAPS  H16X20535   2.982   3.536   4.204  0.6881  0.0564 -0.6919
  179SAPS  H16Y20536   3.042   3.514   4.038 -0.9033 -0.0259 -0.6551
  179SAPS  C31720537   2.954   3.337   4.141 -0.4627 -0.0276  0.0427
  179SAPS  H17X20538   2.960   3.277   4.047  0.9931  0.6567 -0.3205
  179SAPS  H17Y20539   2.860   3.319   4.197 -1.6733  2.8516 -0.8973
  179SAPS  C31820540   3.075   3.304   4.230 -0.0294  0.2513  0.0005
  179SAPS  H18X20541   3.173   3.314   4.180  0.9902 -0.2446  1.8273
  179SAPS  H18Y20542   3.060   3.200   4.266 -2.2908  0.3786 -0.4175
  179SAPS  H18Z20543   3.081   3.363   4.324  1.8522 -0.3085  0.2718
  180SAPS     N20544   1.736   6.762   2.002  0.2669  0.9736 -0.1485
  180SAPS   HN120545   1.686   6.672   2.015 -1.5535  1.6036 -2.2672
  180SAPS   HN220546   1.817   6.754   1.937  0.4242 -1.0380  0.2308
  180SAPS   HN320547   1.774   6.786   2.096 -0.9015  1.1932  0.2761
  180SAPS   C1220548   1.633   6.866   1.972  0.2558  0.2309  0.3731
  180SAPS  H12A20549   1.682   6.960   1.953 -1.2417  0.8337 -0.6745
  180SAPS   C1320550   1.544   6.835   1.851  0.5225  0.0820  0.8276
  180SAPS  O13A20551   1.568   6.726   1.789 -0.2487 -0.0751  0.0449
  180SAPS  O13B20552   1.464   6.927   1.812 -0.4231 -0.1908 -0.3220
  180SAPS   C1120553   1.543   6.887   2.095  0.5522  0.0352  0.6028
  180SAPS  H11A20554   1.488   6.794   2.120  0.3967 -0.2226 -0.6312
  180SAPS  H11B20555   1.467   6.962   2.064  0.9151 -0.6017 -2.0359
  180SAPS     P20556   1.591   7.067   2.282 -0.0624  0.0841 -0.1036
  180SAPS   O1320557   1.643   7.182   2.208 -0.3598 -0.2828 -0.0659
  180SAPS   O1420558   1.455   7.074   2.330  0.9525 -0.1159 -0.3830
  180SAPS   O1220559   1.619   6.926   2.211  0.3102 -0.2043  0.2973
  180SAPS   O1120560   1.691   7.048   2.409  0.4982  0.5360  0.4209
  180SAPS    C120561   1.671   6.956   2.517  0.2565  0.6622 -0.4091
  180SAPS    HA20562   1.564   6.940   2.540  0.2672  1.1837  0.0176
  180SAPS    HB20563   1.714   6.858   2.484 -1.1660 -0.5003  1.0159
  180SAPS    C220564   1.741   6.997   2.648 -0.0675  0.3396  0.6617
  180SAPS    HS20565   1.723   6.924   2.729 -1.0807  0.5597  0.6558
  180SAPS   O2120566   1.695   7.124   2.693  0.4177  0.4222 -0.2916
  180SAPS   C2120567   1.606   7.129   2.782  0.5976  0.5384 -0.1788
  180SAPS   O2220568   1.552   7.035   2.837 -0.3172  0.6340 -0.4783
  180SAPS   C2220569   1.591   7.267   2.845 -0.0764 -0.5132 -0.3782
  180SAPS   H2R20570   1.661   7.337   2.794 -1.2530  0.1611 -1.1109
  180SAPS   H2S20571   1.488   7.304   2.828  0.7075  1.7274 -0.5720
  180SAPS    C320572   1.896   6.996   2.619 -0.2829  0.3346 -0.4723
  180SAPS    HX20573   1.923   7.063   2.534 -1.6575 -1.0713 -2.1012
  180SAPS    HY20574   1.917   6.892   2.584 -1.4095 -0.4581  1.0927
  180SAPS   O3120575   1.966   7.021   2.742  0.9192 -0.6262  0.4855
  180SAPS   C3120576   2.007   7.147   2.749  0.6268 -0.9308 -0.5167
  180SAPS   O3220577   1.960   7.237   2.681  0.1355 -0.1588 -0.2916
  180SAPS   C3220578   2.090   7.164   2.864 -0.0612  0.2019  0.9826
  180SAPS   H2X20579   2.174   7.093   2.848 -1.1359 -0.5132 -2.2829
  180SAPS   H2Y20580   2.020   7.141   2.948 -1.4945 -0.4991 -0.3408
  180SAPS   C2320581   1.602   7.251   3.004  0.3791 -0.1134  0.4850
  180SAPS   H3R20582   1.525   7.177   3.034  0.9826 -0.4105  1.3335
  180SAPS   H3S20583   1.573   7.349   3.048  0.3416  0.7696 -1.3937
  180SAPS   C2420584   1.738   7.203   3.068 -0.0206 -0.4164 -0.4178
  180SAPS   H4R20585   1.784   7.128   3.000 -1.1477  0.7981 -2.6300
  180SAPS   H4S20586   1.723   7.163   3.171  1.8025 -1.1812 -0.4073
  180SAPS   C2520587   1.830   7.319   3.087  1.0990 -0.5641 -0.4739
  180SAPS   H5R20588   1.857   7.362   2.990  0.5452 -0.8644 -0.7651
  180SAPS   C2620589   1.885   7.366   3.201 -0.2506  0.7413 -0.0995
  180SAPS   H6R20590   1.959   7.444   3.181 -0.7085  0.6296 -2.5894
  180SAPS   C2720591   1.859   7.320   3.339  0.4105  0.0876 -0.2067
  180SAPS   H7R20592   1.941   7.364   3.400 -1.1531  0.7885  1.4757
  180SAPS   H7S20593   1.874   7.211   3.321 -3.0831 -0.6514  0.6594
  180SAPS   C2820594   1.729   7.327   3.411 -0.9211 -0.2459  0.2268
  180SAPS   H8R20595   1.641   7.308   3.349 -0.7868  1.1796 -0.4604
  180SAPS   C2920596   1.708   7.364   3.535 -0.1307 -0.8414  0.0114
  180SAPS   H9R20597   1.607   7.360   3.579 -0.1078  0.7545  0.2724
  180SAPS  C21020598   1.810   7.429   3.627 -0.6130 -0.0380 -0.5045
  180SAPS  H10R20599   1.776   7.527   3.667  0.2484 -0.9451  2.6857
  180SAPS  H10S20600   1.914   7.446   3.591 -0.1925  1.0978  1.1055
  180SAPS  C21120601   1.822   7.330   3.738 -0.0923  0.6206 -0.7866
  180SAPS  H11R20602   1.800   7.223   3.729  1.3135  0.1730  0.6089
  180SAPS  C21220603   1.845   7.367   3.862 -0.8160  0.1133 -0.6465
  180SAPS  H12R20604   1.854   7.286   3.936 -0.0486  0.7165 -0.0692
  180SAPS  C21320605   1.871   7.507   3.908 -0.6263 -0.2519 -0.4616
  180SAPS  H13R20606   1.792   7.580   3.879  0.3618  1.1905  0.3419
  180SAPS  H13S20607   1.961   7.548   3.858 -0.5695 -0.3164 -0.4132
  180SAPS  C21420608   1.894   7.515   4.059  0.2296  0.5743  0.4492
  180SAPS  H14R20609   1.898   7.424   4.122 -1.2845  2.7874  4.0535
  180SAPS  C21520610   1.886   7.626   4.137  0.0129  0.5778 -0.6396
  180SAPS  H15R20611   1.903   7.620   4.246 -0.7325  1.9427 -0.4174
  180SAPS  C21620612   1.864   7.768   4.100  0.1973  0.1406 -0.1844
  180SAPS  H16R20613   1.802   7.812   4.181 -1.3831 -1.8956 -0.2131
  180SAPS  H16S20614   1.807   7.781   4.006  0.8618 -0.9699 -0.7499
  180SAPS  C21720615   1.990   7.862   4.085  0.0090 -0.5674 -0.1538
  180SAPS  H17R20616   2.062   7.808   4.021  1.9035 -0.5095  1.8292
  180SAPS  H17S20617   2.043   7.878   4.181  2.3862  0.6845 -1.6057
  180SAPS  C21820618   1.955   8.003   4.047 -0.5775 -0.3014  0.1316
  180SAPS  H18R20619   1.874   8.034   4.116 -1.9768 -0.5683 -1.3532
  180SAPS  H18S20620   1.920   8.005   3.941 -1.4477  0.4160  0.4235
  180SAPS  C21920621   2.075   8.105   4.054  0.0481 -0.1558  0.0201
  180SAPS  H19R20622   2.114   8.109   4.158  1.1955 -0.3744 -0.3905
  180SAPS  H19S20623   2.034   8.206   4.028 -0.5611 -0.7959 -1.6427
  180SAPS  C22020624   2.197   8.071   3.969  0.5134  0.6789 -0.4033
  180SAPS  H20R20625   2.161   8.094   3.867 -0.1766 -0.3210 -0.3966
  180SAPS  H20S20626   2.270   8.150   3.999 -0.5332  2.0190 -1.2759
  180SAPS  H20T20627   2.230   7.965   3.982  1.6612  0.8855 -1.5035
  180SAPS   C3320628   2.145   7.306   2.885 -0.5229  0.4592 -0.7036
  180SAPS   H3X20629   2.062   7.376   2.907 -1.6347 -0.6189 -1.3468
  180SAPS   H3Y20630   2.197   7.345   2.795  0.3706  1.7910  0.3581
  180SAPS   C3420631   2.243   7.330   3.003  0.5578  0.3167 -1.0981
  180SAPS   H4X20632   2.347   7.293   2.991  0.7558 -0.5531  2.1772
  180SAPS   H4Y20633   2.208   7.271   3.092 -2.8695  1.3410 -1.6025
  180SAPS   C3520634   2.278   7.480   3.034 -0.2429 -0.0507 -0.8189
  180SAPS   H5X20635   2.180   7.533   3.039  0.9915  2.4210 -1.4891
  180SAPS   H5Y20636   2.336   7.517   2.947 -0.0987  0.2665 -0.5870
  180SAPS   C3620637   2.357   7.500   3.164  0.0778  0.0229 -0.0584
  180SAPS   H6X20638   2.376   7.609   3.176 -0.0841  0.0073  0.3524
  180SAPS   H6Y20639   2.448   7.436   3.151 -0.1697  0.1066 -2.5761
  180SAPS   C3720640   2.297   7.456   3.301  0.1081  0.8772  0.8544
  180SAPS   H7X20641   2.279   7.347   3.286  2.9458  0.4447 -0.0709
  180SAPS   H7Y20642   2.201   7.511   3.306 -0.7031 -0.3142 -0.7142
  180SAPS   C3820643   2.380   7.488   3.415 -0.3097 -0.5179 -0.1140
  180SAPS   H8X20644   2.325   7.486   3.512  1.8671 -1.9832  1.1694
  180SAPS   H8Y20645   2.406   7.596   3.412 -4.7199  0.7538 -0.5006
  180SAPS   C3920646   2.493   7.384   3.426 -0.2288  0.7179 -0.4140
  180SAPS   H9X20647   2.563   7.396   3.341  1.0082  2.3115  0.7600
  180SAPS   H9Y20648   2.448   7.283   3.420 -2.6290  1.7610 -1.4881
  180SAPS  C31020649   2.576   7.395   3.561 -0.1823  0.5034  0.1796
  180SAPS  H10X20650   2.500   7.350   3.629 -0.4340 -0.3300 -0.6335
  180SAPS  H10Y20651   2.584   7.502   3.588 -2.1832  0.4745  1.0580
  180SAPS  C31120652   2.710   7.325   3.557  0.3187  0.0916 -0.0497
  180SAPS  H11X20653   2.761   7.383   3.477 -2.4990  0.0599 -2.0008
  180SAPS  H11Y20654   2.711   7.220   3.522 -0.5983  0.2507 -0.5746
  180SAPS  C31220655   2.751   7.324   3.701 -0.5971 -0.0915 -0.4743
  180SAPS  H12X20656   2.673   7.275   3.764 -0.8452 -0.0313 -0.7299
  180SAPS  H12Y20657   2.749   7.429   3.739 -2.2972  0.7824 -2.7456
  180SAPS  C31320658   2.886   7.262   3.731  0.2342 -0.3463  1.0310
  180SAPS  H13X20659   2.960   7.298   3.656  1.7706 -1.4475  1.9572
  180SAPS  H13Y20660   2.881   7.153   3.711  3.0854 -0.3900  0.0301
  180SAPS  C31420661   2.937   7.284   3.871 -0.5579 -0.2540  0.4450
  180SAPS  H14X20662   2.926   7.394   3.881  0.4090 -0.1866  0.9010
  180SAPS  H14Y20663   3.046   7.263   3.870 -0.6721 -0.9083  1.1812
  180SAPS  C31520664   2.875   7.195   3.978  0.0291  0.3215 -0.1474
  180SAPS  H15X20665   2.881   7.086   3.954  0.8486  0.6054 -1.3726
  180SAPS  H15Y20666   2.767   7.218   3.987  0.0023 -0.1844  0.9560
  180SAPS  C31620667   2.949   7.209   4.109 -0.3214  0.4125  0.1204
  180SAPS  H16X20668   3.058   7.197   4.091 -0.4073  1.6674 -1.4908
  180SAPS  H16Y20669   2.923   7.131   4.184  2.1806  0.8321  1.5560
  180SAPS  C31720670   2.930   7.350   4.162 -1.2473  0.3235  0.2130
  180SAPS  H17X20671   2.829   7.393   4.176 -0.4284  1.7291  2.2608
  180SAPS  H17Y20672   2.976   7.420   4.089 -3.1352  0.2243 -1.1519
  180SAPS  C31820673   2.998   7.367   4.294  0.0316  0.1804 -0.5191
  180SAPS  H18X20674   3.004   7.474   4.326  3.5814  0.9575 -3.2182
  180SAPS  H18Y20675   3.103   7.333   4.304 -0.2959 -0.4216  1.2149
  180SAPS  H18Z20676   2.942   7.320   4.378  2.3767  0.7947  1.4908
  181POPC     N20677   3.276   3.139   6.665  0.1444  0.9284  0.5537
  181POPC   C1220678   3.177   3.080   6.564  0.5477  0.0432 -0.2833
  181POPC  H12A20679   3.086   3.067   6.621 -0.3752  0.9690 -1.4778
  181POPC  H12B20680   3.226   2.989   6.534  2.4830  0.1707  2.1910
  181POPC   C1320681   3.397   3.181   6.584 -0.4595 -0.3329  0.1886
  181POPC  H13A20682   3.440   3.088   6.549 -2.2104 -0.9919 -0.3290
  181POPC  H13B20683   3.382   3.254   6.506  1.0695 -0.7054 -0.4900
  181POPC  H13C20684   3.466   3.219   6.658 -1.0229 -1.0346  1.1048
  181POPC   C1420685   3.223   3.259   6.733 -0.1604 -0.2256  0.4334
  181POPC  H14A20686   3.211   3.346   6.670 -1.7341  0.0956  1.1019
  181POPC  H14B20687   3.124   3.237   6.772  0.4986 -1.0016  1.7397
  181POPC  H14C20688   3.278   3.283   6.823 -2.2214 -1.3487  2.1090
  181POPC   C1520689   3.309   3.031   6.767 -0.3163 -0.4329  0.1549
  181POPC  H15A20690   3.219   2.978   6.797  0.0439 -0.8531  0.5047
  181POPC  H15B20691   3.344   3.078   6.858  0.8109 -0.6565 -0.1527
  181POPC  H15C20692   3.383   2.968   6.721 -1.2939 -1.9852  0.5885
  181POPC   C1120693   3.131   3.171   6.446  0.1482 -0.1683  0.6155
  181POPC  H11A20694   3.097   3.270   6.484 -2.6290 -0.7593 -0.0679
  181POPC  H11B20695   3.039   3.115   6.418  0.0012 -0.3205  1.3886
  181POPC     P20696   3.222   3.279   6.236  0.1369  0.2853 -0.3429
  181POPC   O1320697   3.350   3.267   6.164  0.5054 -0.1888  0.2869
  181POPC   O1420698   3.188   3.411   6.285  0.3520  0.6421 -0.3543
  181POPC   O1220699   3.232   3.167   6.346  0.0038 -0.1235 -0.4349
  181POPC   O1120700   3.100   3.248   6.142  0.0266  0.4981 -0.9233
  181POPC    C120701   3.068   3.115   6.115  0.3005 -0.2315 -0.0496
  181POPC    HA20702   3.069   3.053   6.207  1.3892  2.0052  1.5549
  181POPC    HB20703   3.141   3.073   6.042  0.4558 -1.9101  0.9994
  181POPC    C220704   2.921   3.097   6.062  0.4155 -0.3263 -0.5732
  181POPC    HS20705   2.905   2.989   6.044  2.0694 -0.6816 -0.0730
  181POPC   O2120706   2.894   3.163   5.940 -0.0827 -0.3596  0.0145
  181POPC   C2120707   2.933   3.102   5.830  1.0689  0.0963 -0.0146
  181POPC   O2220708   2.972   2.984   5.823  0.3776 -0.5627  0.0427
  181POPC   C2220709   2.906   3.194   5.706  1.1813 -0.2775 -0.0027
  181POPC   H2R20710   2.946   3.295   5.726  0.0571 -0.0421  1.1941
  181POPC   H2S20711   2.796   3.207   5.714  0.9085 -1.3064 -1.5196
  181POPC    C320712   2.810   3.126   6.168  0.0470 -0.0347 -0.0633
  181POPC    HX20713   2.803   3.236   6.165  1.1218  0.1479  1.9883
  181POPC    HY20714   2.825   3.089   6.272  1.1286 -0.8989 -0.5069
  181POPC   O3120715   2.680   3.073   6.127  0.2883  0.1412 -0.3808
  181POPC   C3120716   2.651   2.943   6.149 -0.5794 -0.2857 -0.6163
  181POPC   O3220717   2.719   2.862   6.203 -0.4776 -0.7199  0.0753
  181POPC   C3220718   2.511   2.913   6.103 -0.3127 -0.2501 -0.6714
  181POPC   H2X20719   2.446   3.003   6.095 -0.9784 -0.8168 -1.9364
  181POPC   H2Y20720   2.468   2.848   6.182  5.6117 -2.9742  0.8615
  181POPC   C2320721   2.951   3.131   5.574  1.1670 -0.0539  0.0397
  181POPC   H3R20722   2.904   3.031   5.564 -2.1927  1.1860  1.6271
  181POPC   H3S20723   3.060   3.113   5.580  0.9725 -0.6449  3.0243
  181POPC   C2420724   2.940   3.226   5.455  0.1633  0.3337  0.0114
  181POPC   H4R20725   2.990   3.324   5.474  0.2986  0.8467 -2.6519
  181POPC   H4S20726   2.835   3.243   5.423 -0.5991 -1.5592  1.3297
  181POPC   C2520727   2.991   3.162   5.329 -0.4366 -0.1011 -0.5844
  181POPC   H5R20728   2.917   3.080   5.318  0.1176 -0.7994  0.7188
  181POPC   H5S20729   3.084   3.102   5.342 -0.7376 -0.2126  1.2579
  181POPC   C2620730   2.993   3.253   5.210  0.2203 -0.0284  0.4800
  181POPC   H6R20731   2.896   3.308   5.202 -0.1619 -0.7761 -0.0977
  181POPC   H6S20732   3.006   3.187   5.122 -1.9935 -0.2703  0.2663
  181POPC   C2720733   3.109   3.350   5.200  0.0772 -0.3558 -0.2328
  181POPC   H7R20734   3.203   3.292   5.216  0.3524 -0.5553 -2.2074
  181POPC   H7S20735   3.110   3.434   5.272  2.5132  0.2084 -0.8311
  181POPC   C2820736   3.130   3.408   5.058 -0.5471  0.1985 -0.7003
  181POPC   H8R20737   3.135   3.316   4.996 -0.7436 -0.9368  0.9049
  181POPC   H8S20738   3.233   3.448   5.050 -0.1423 -0.9084 -1.2334
  181POPC   C2920739   3.030   3.510   5.015 -0.7608  0.4788 -0.2484
  181POPC   H9120740   2.925   3.489   5.038 -0.4118 -0.2346  0.7486
  181POPC  C21020741   3.041   3.610   4.933 -0.0734 -0.2163  0.9814
  181POPC  H10120742   2.947   3.662   4.910 -0.3153 -1.0245  0.1143
  181POPC  C21120743   3.160   3.662   4.857  0.2771 -0.6900  0.3942
  181POPC  H11R20744   3.255   3.616   4.894  1.0164  1.0445  0.7680
  181POPC  H11S20745   3.154   3.773   4.864 -1.5440 -0.7401  0.0785
  181POPC  C21220746   3.150   3.629   4.703  0.5279  0.4281 -0.9624
  181POPC  H12R20747   3.061   3.676   4.656 -1.5889 -3.6912 -1.4982
  181POPC  H12S20748   3.130   3.521   4.686 -2.8592  0.4206  1.8988
  181POPC  C21320749   3.271   3.684   4.625  0.1821  0.0358 -0.8366
  181POPC  H13R20750   3.364   3.630   4.653 -1.6985 -3.7440 -1.1676
  181POPC  H13S20751   3.279   3.790   4.658 -0.4479  0.8160 -2.9702
  181POPC  C21420752   3.247   3.667   4.473 -0.3376  0.1996  0.5593
  181POPC  H14R20753   3.176   3.739   4.427  0.8092 -0.8670 -3.2521
  181POPC  H14S20754   3.194   3.571   4.452 -4.5547  2.6659 -1.3313
  181POPC  C21520755   3.385   3.663   4.413  0.0269  0.3620  0.0299
  181POPC  H15R20756   3.429   3.575   4.464 -1.2293 -0.6401 -0.5565
  181POPC  H15S20757   3.451   3.747   4.442  1.0493 -0.3671 -0.0923
  181POPC  C21620758   3.386   3.637   4.260 -0.7831 -0.0974  0.6470
  181POPC  H16R20759   3.321   3.703   4.199 -2.4130 -2.0364  0.1799
  181POPC  H16S20760   3.368   3.528   4.244  0.0538  0.2085 -3.6981
  181POPC  C21720761   3.537   3.657   4.205  0.3177 -0.1929 -0.5646
  181POPC  H17R20762   3.538   3.657   4.094 -2.2615 -0.4405 -0.6596
  181POPC  H17S20763   3.600   3.569   4.230  1.6823  0.6398 -1.0028
  181POPC  C21820764   3.604   3.792   4.244 -0.1741  0.5296  0.1467
  181POPC  H18R20765   3.700   3.778   4.189  1.3004  2.1285  2.1302
  181POPC  H18S20766   3.637   3.798   4.350 -1.2632 -0.1132  0.5292
  181POPC  H18T20767   3.537   3.872   4.207  0.4618 -0.0139 -2.3761
  181POPC   C3320768   2.512   2.842   5.964  0.2476 -0.0246 -0.8790
  181POPC   H3X20769   2.421   2.779   5.956 -1.6876  2.3508  0.9690
  181POPC   H3Y20770   2.601   2.777   5.950  1.3414  1.7732 -2.6885
  181POPC   C3420771   2.500   2.951   5.861 -0.8496  0.1298 -0.1854
  181POPC   H4X20772   2.564   3.037   5.888 -1.5837  0.8894 -0.8096
  181POPC   H4Y20773   2.392   2.976   5.861 -1.4876 -2.3853 -0.4277
  181POPC   C3520774   2.551   2.895   5.721 -0.1283 -0.0515 -0.1832
  181POPC   H5X20775   2.478   2.813   5.701  0.2857 -0.5938  0.4864
  181POPC   H5Y20776   2.658   2.862   5.719  0.6004  2.0562  1.1995
  181POPC   C3620777   2.529   2.995   5.607  0.2129  0.2608  0.1186
  181POPC   H6X20778   2.593   3.078   5.642  0.4780 -0.0479  0.3647
  181POPC   H6Y20779   2.423   3.023   5.586  0.1984 -1.3929 -2.3958
  181POPC   C3720780   2.589   2.946   5.477 -0.3012 -1.1007  1.0290
  181POPC   H7X20781   2.536   2.852   5.452 -1.0264 -0.4983  0.2152
  181POPC   H7Y20782   2.694   2.922   5.505  0.3385  2.2177  1.9811
  181POPC   C3820783   2.576   3.046   5.362 -0.0606  0.6588  0.2519
  181POPC   H8X20784   2.633   3.140   5.380  0.7613  0.8613 -2.7887
  181POPC   H8Y20785   2.467   3.062   5.348 -0.5899 -2.1785  0.6193
  181POPC   C3920786   2.619   2.975   5.234 -0.2894 -0.0558  0.2580
  181POPC   H9X20787   2.546   2.896   5.204  2.2950 -1.9875 -1.2838
  181POPC   H9Y20788   2.712   2.917   5.250 -0.5025 -0.5860 -0.3977
  181POPC  C31020789   2.657   3.062   5.117  0.2745  0.2865 -0.0653
  181POPC  H10X20790   2.726   3.011   5.046  0.1932  0.1021 -0.0129
  181POPC  H10Y20791   2.705   3.159   5.141  0.2718  0.8465 -2.1462
  181POPC  C31120792   2.530   3.090   5.030 -0.3045 -0.2351 -0.6258
  181POPC  H11X20793   2.454   3.137   5.096 -0.8236 -0.8330 -0.7947
  181POPC  H11Y20794   2.476   3.006   4.982 -1.2145 -0.0405  0.0247
  181POPC  C31220795   2.549   3.186   4.907 -1.0619 -0.0670 -0.1807
  181POPC  H12X20796   2.588   3.286   4.937 -0.2536 -0.5094  0.2475
  181POPC  H12Y20797   2.455   3.199   4.848 -0.8448  0.6805 -0.3782
  181POPC  C31320798   2.661   3.134   4.819  0.3208 -1.0014  0.0315
  181POPC  H13X20799   2.644   3.029   4.787  0.4151 -0.7696 -0.8075
  181POPC  H13Y20800   2.758   3.143   4.873  0.4062  3.7733 -0.4919
  181POPC  C31420801   2.679   3.209   4.687 -0.5158  0.2393  0.1654
  181POPC  H14X20802   2.779   3.191   4.640 -1.5151 -3.5174 -0.8932
  181POPC  H14Y20803   2.680   3.316   4.715 -1.3632  0.7393 -1.5560
  181POPC  C31520804   2.572   3.176   4.584  0.6589  0.4027 -0.0252
  181POPC  H15X20805   2.483   3.238   4.608  2.4148  1.7487  3.6130
  181POPC  H15Y20806   2.541   3.069   4.580  0.2145  0.5571 -2.0852
  181POPC  C31620807   2.612   3.197   4.438 -0.2232 -0.6806 -0.3083
  181POPC  H16X20808   2.526   3.181   4.369 -0.2269  1.7955 -0.9679
  181POPC  H16Y20809   2.685   3.119   4.407 -2.6955 -2.7241 -1.3518
  181POPC  H16Z20810   2.646   3.302   4.427 -1.0301 -0.2156  1.2990
  182POPC     N20811   5.974   1.273   6.824 -0.3299 -0.6443  0.3506
  182POPC   C1220812   6.076   1.299   6.705  0.0980  0.2563 -0.5258
  182POPC  H12A20813   6.171   1.323   6.751 -0.3896  2.4151 -0.5474
  182POPC  H12B20814   6.031   1.388   6.664 -2.2775 -1.3844 -1.7175
  182POPC   C1320815   5.930   1.394   6.896  0.4165  0.0719 -0.0943
  182POPC  H13A20816   5.870   1.369   6.982  1.0680  1.1694  0.7111
  182POPC  H13B20817   6.017   1.450   6.927  1.6193 -1.4629 -0.5838
  182POPC  H13C20818   5.878   1.463   6.831  1.1197  1.0950  0.4024
  182POPC   C1420819   5.857   1.191   6.765 -0.8167 -1.1478 -0.9197
  182POPC  H14A20820   5.792   1.253   6.705 -1.7686 -1.7343 -0.5203
  182POPC  H14B20821   5.904   1.115   6.704  0.6711 -2.0498  1.2490
  182POPC  H14C20822   5.801   1.151   6.848 -1.1375  1.8555  0.4446
  182POPC   C1520823   6.047   1.186   6.923  0.5831  0.5884 -0.3347
  182POPC  H15A20824   6.076   1.088   6.886  0.2714 -0.0204  0.9730
  182POPC  H15B20825   5.983   1.188   7.010 -0.8218 -1.3566 -1.2473
  182POPC  H15C20826   6.141   1.232   6.950  0.4305 -0.1205  1.5395
  182POPC   C1120827   6.087   1.202   6.587 -0.0752 -0.3713 -0.2604
  182POPC  H11A20828   6.172   1.238   6.525  1.0934  1.1470  2.0756
  182POPC  H11B20829   5.998   1.212   6.521 -1.8211  0.9707  2.1751
  182POPC     P20830   6.232   0.989   6.631  0.4102 -0.0256  0.4900
  182POPC   O1320831   6.212   0.848   6.664  0.7764  0.5293  0.0868
  182POPC   O1420832   6.333   1.065   6.701 -0.2266  0.1268 -0.0328
  182POPC   O1220833   6.095   1.067   6.628 -0.2898 -0.1635  0.3475
  182POPC   O1120834   6.275   0.999   6.477 -0.7263 -0.0932 -0.2586
  182POPC    C120835   6.216   0.911   6.376  0.7031 -0.0573  0.9760
  182POPC    HA20836   6.129   0.853   6.412 -0.1040  1.3244  1.3195
  182POPC    HB20837   6.288   0.836   6.336 -0.0928  0.8755 -2.5323
  182POPC    C220838   6.174   1.008   6.254  0.3743 -0.1747 -0.0497
  182POPC    HS20839   6.095   1.083   6.277 -1.3172 -2.0835  0.6388
  182POPC   O2120840   6.126   0.931   6.143  0.1851  0.4892  0.2753
  182POPC   C2120841   6.033   0.847   6.159  0.6413 -0.1112  0.3669
  182POPC   O2220842   5.959   0.834   6.255  0.4520 -0.1618  0.7697
  182POPC   C2220843   6.026   0.761   6.032 -0.0774 -0.1090 -0.0116
  182POPC   H2R20844   6.118   0.701   6.016 -1.4706 -1.9524 -1.5415
  182POPC   H2S20845   6.026   0.829   5.944  0.9131 -0.5901 -0.3974
  182POPC    C320846   6.297   1.085   6.209 -0.3396 -0.5863  0.4622
  182POPC    HX20847   6.380   1.012   6.212  0.5558  0.3506 -0.6669
  182POPC    HY20848   6.318   1.160   6.288  0.0061  0.0360 -0.2097
  182POPC   O3120849   6.296   1.145   6.076  0.5600  0.5181  0.4947
  182POPC   C3120850   6.233   1.258   6.071 -0.2564  0.3456 -0.2450
  182POPC   O3220851   6.169   1.305   6.167  0.5791 -0.3831  0.3808
  182POPC   C3220852   6.240   1.315   5.928 -0.2799 -0.3222  0.3105
  182POPC   H2X20853   6.210   1.233   5.859 -1.7298 -1.1581  1.8627
  182POPC   H2Y20854   6.342   1.350   5.903 -0.4679 -1.0243 -1.6099
  182POPC   C2320855   5.905   0.669   6.034 -0.0855 -0.4109  0.3706
  182POPC   H3R20856   5.805   0.719   6.035 -0.4959 -1.1878 -0.2963
  182POPC   H3S20857   5.901   0.620   6.133  1.9933 -0.9399  0.2272
  182POPC   C2420858   5.910   0.571   5.919 -0.0334 -0.1361  0.4594
  182POPC   H4R20859   5.818   0.511   5.936 -0.9801  1.6354  1.8814
  182POPC   H4S20860   6.002   0.508   5.924 -1.3298 -2.0161  1.7932
  182POPC   C2520861   5.907   0.642   5.782  0.6188  0.4480  0.6426
  182POPC   H5R20862   6.014   0.666   5.768  0.5380  0.0571 -0.7438
  182POPC   H5S20863   5.847   0.735   5.791  0.3964  0.1909  2.1391
  182POPC   C2620864   5.856   0.553   5.669  0.7235 -0.0339  0.0793
  182POPC   H6R20865   5.748   0.527   5.665  0.5669  0.7441 -1.7506
  182POPC   H6S20866   5.903   0.455   5.689  1.4765  0.0682 -1.0852
  182POPC   C2720867   5.895   0.604   5.528  0.0703  0.3983 -0.6560
  182POPC   H7R20868   6.006   0.598   5.531  0.1134  0.7294  2.8079
  182POPC   H7S20869   5.862   0.708   5.507  0.7036  0.6887 -0.2508
  182POPC   C2820870   5.848   0.510   5.419 -0.4734  0.1103 -0.6076
  182POPC   H8R20871   5.883   0.405   5.429  0.6750  0.3279 -2.0646
  182POPC   H8S20872   5.912   0.536   5.332  1.5427 -1.7204  0.2230
  182POPC   C2920873   5.696   0.509   5.400 -0.4388 -0.0379 -0.5843
  182POPC   H9120874   5.637   0.448   5.469 -0.2954 -1.4435 -1.6605
  182POPC  C21020875   5.626   0.578   5.307 -0.1148 -1.2204  1.1542
  182POPC  H10120876   5.517   0.585   5.302  0.0036  0.1003 -1.3391
  182POPC  C21120877   5.689   0.661   5.197 -0.1518  0.0958  0.2635
  182POPC  H11R20878   5.791   0.696   5.223  0.5137 -1.1995 -0.5109
  182POPC  H11S20879   5.636   0.756   5.173 -0.4712 -0.2846 -0.5925
  182POPC  C21220880   5.714   0.585   5.066 -0.1214  0.3531 -0.0771
  182POPC  H12R20881   5.784   0.506   5.102  0.6169  0.7642 -0.5763
  182POPC  H12S20882   5.758   0.658   4.995  0.4360  0.4315  0.3383
  182POPC  C21320883   5.589   0.513   5.006 -0.4967 -0.1301 -0.2535
  182POPC  H13R20884   5.507   0.588   5.015  0.9347  1.5469 -0.7041
  182POPC  H13S20885   5.571   0.425   5.071 -0.8742  1.2262  1.5909
  182POPC  C21420886   5.615   0.482   4.855 -0.2049 -0.3349 -1.0948
  182POPC  H14R20887   5.603   0.373   4.843  1.8106 -1.0857  2.3038
  182POPC  H14S20888   5.720   0.505   4.830  0.4110 -1.4389  0.3586
  182POPC  C21520889   5.534   0.571   4.761  0.2775 -0.3563 -0.4820
  182POPC  H15R20890   5.548   0.679   4.780  3.2464 -0.3909 -1.8473
  182POPC  H15S20891   5.426   0.556   4.782  0.7735 -2.4074  0.8302
  182POPC  C21620892   5.565   0.549   4.615 -0.2515  0.2477 -0.0615
  182POPC  H16R20893   5.566   0.448   4.567 -1.5035  0.6854 -1.0716
  182POPC  H16S20894   5.673   0.576   4.605  0.1209  0.1995  2.9170
  182POPC  C21720895   5.493   0.646   4.523 -0.3972 -0.4503  0.7094
  182POPC  H17R20896   5.502   0.752   4.555 -1.6947 -0.0574 -0.1738
  182POPC  H17S20897   5.386   0.617   4.535 -0.2677 -1.1630  0.2135
  182POPC  C21820898   5.548   0.638   4.377 -0.2338 -0.1947  0.1020
  182POPC  H18R20899   5.537   0.533   4.341  0.2128 -1.0191  2.1838
  182POPC  H18S20900   5.656   0.664   4.374 -0.1496 -0.3123  1.4836
  182POPC  H18T20901   5.490   0.712   4.319  0.2677  0.0095 -0.1410
  182POPC   C3320902   6.145   1.428   5.905  0.5384  0.2690 -0.4588
  182POPC   H3X20903   6.159   1.495   5.992  1.9140 -0.7264  0.1029
  182POPC   H3Y20904   6.041   1.389   5.908  0.7551 -0.3774 -0.9868
  182POPC   C3420905   6.146   1.494   5.767 -0.2482  0.2743 -0.3902
  182POPC   H4X20906   6.248   1.498   5.724 -0.7687 -1.9352 -1.9987
  182POPC   H4Y20907   6.103   1.596   5.771  2.2412  1.3337  2.0489
  182POPC   C3520908   6.066   1.419   5.658 -0.2349 -0.1625  1.0016
  182POPC   H5X20909   5.958   1.418   5.687  0.1447 -1.7116  2.5077
  182POPC   H5Y20910   6.093   1.312   5.657  0.7986  0.0968  0.0855
  182POPC   C3620911   6.088   1.493   5.522  0.3878 -0.6723  0.2242
  182POPC   H6X20912   6.190   1.471   5.484 -0.2902 -0.9130 -1.5776
  182POPC   H6Y20913   6.077   1.600   5.549 -0.1556 -0.9188  1.0366
  182POPC   C3720914   5.984   1.456   5.420  0.1737  0.6654  0.1372
  182POPC   H7X20915   5.883   1.477   5.460 -0.0703 -2.4122  1.3988
  182POPC   H7Y20916   5.997   1.345   5.414  0.5159  0.6062  1.5469
  182POPC   C3820917   5.999   1.531   5.292  0.3325  0.3011 -0.3626
  182POPC   H8X20918   6.097   1.507   5.245 -0.2486  3.5814 -3.7029
  182POPC   H8Y20919   6.004   1.640   5.313 -2.1617  0.3143  0.5136
  182POPC   C3920920   5.895   1.498   5.176  0.2299 -0.5128 -0.0501
  182POPC   H9X20921   5.911   1.573   5.096 -0.7083  2.3945  2.3082
  182POPC   H9Y20922   5.796   1.514   5.224  0.2605  0.8200 -0.4087
  182POPC  C31020923   5.913   1.359   5.111 -1.2038  0.0153  0.2715
  182POPC  H10X20924   5.882   1.278   5.181  1.3911 -1.7166 -0.4328
  182POPC  H10Y20925   6.020   1.344   5.087 -1.7017  0.1388 -2.2023
  182POPC  C31120926   5.841   1.360   4.983  0.5542 -0.3427  0.2025
  182POPC  H11X20927   5.737   1.401   4.988  1.6109  2.5051  0.7598
  182POPC  H11Y20928   5.826   1.254   4.955  0.6051  0.0728 -1.5180
  182POPC  C31220929   5.922   1.436   4.882  0.5837  0.1382  0.2934
  182POPC  H12X20930   6.027   1.401   4.887  0.1489 -1.1607  0.7625
  182POPC  H12Y20931   5.909   1.546   4.885  3.2510  0.5058  1.5727
  182POPC  C31320932   5.877   1.409   4.737  0.5620  0.2563  0.6226
  182POPC  H13X20933   5.776   1.454   4.720  0.0627  0.2523  3.1600
  182POPC  H13Y20934   5.863   1.301   4.717  1.9458  0.1715  0.0070
  182POPC  C31420935   5.959   1.476   4.633 -0.9100  0.2335 -0.4618
  182POPC  H14X20936   6.067   1.448   4.637 -0.7610  0.8942  2.1632
  182POPC  H14Y20937   5.971   1.583   4.659 -1.8088  0.3499 -0.5017
  182POPC  C31520938   5.905   1.459   4.489  0.4655 -0.4126 -0.2964
  182POPC  H15X20939   5.803   1.500   4.474  1.3364  1.1312 -2.6834
  182POPC  H15Y20940   5.905   1.352   4.462  2.4727  0.2120 -3.2721
  182POPC  C31620941   5.995   1.521   4.388 -0.3592 -0.5584 -0.2545
  182POPC  H16X20942   6.033   1.617   4.427 -1.0492 -1.0677  1.8145
  182POPC  H16Y20943   5.953   1.529   4.285 -1.3518  2.1246  0.2875
  182POPC  H16Z20944   6.087   1.458   4.385 -1.5112 -2.3348 -0.1313
  183POPC     N20945   2.115   6.351   6.785 -0.1119  0.2808  0.2547
  183POPC   C1220946   2.123   6.436   6.659 -0.4627  0.5731 -0.1753
  183POPC  H12A20947   2.078   6.381   6.578  0.1557  0.7379 -0.6407
  183POPC  H12B20948   2.228   6.452   6.638 -0.1312  1.4549  1.9254
  183POPC   C1320949   2.191   6.221   6.762  0.1028 -0.1220  0.5460
  183POPC  H13A20950   2.181   6.190   6.659 -0.7819  1.0145  0.2679
  183POPC  H13B20951   2.298   6.231   6.776  0.4628 -3.5444  0.9997
  183POPC  H13C20952   2.160   6.138   6.823  1.7438  1.0615  3.1832
  183POPC   C1420953   2.161   6.415   6.910 -0.0629 -0.0013  0.4302
  183POPC  H14A20954   2.092   6.495   6.933 -1.8293 -2.1597  3.3065
  183POPC  H14B20955   2.162   6.348   6.994 -1.0907 -1.1920 -0.4842
  183POPC  H14C20956   2.260   6.456   6.895  0.4865 -0.9749  1.2790
  183POPC   C1520957   1.973   6.304   6.820  0.1370  0.0573 -0.8517
  183POPC  H15A20958   1.962   6.243   6.909 -0.5412 -1.0505 -1.6694
  183POPC  H15B20959   1.925   6.257   6.736 -0.0611  2.1703 -2.0020
  183POPC  H15C20960   1.917   6.393   6.845  0.7985 -0.2292  2.0119
  183POPC   C1120961   2.066   6.580   6.676 -0.3130 -0.1789  0.0023
  183POPC  H11A20962   2.071   6.629   6.577 -0.3504 -1.7109 -0.8000
  183POPC  H11B20963   2.132   6.641   6.741 -1.6591  0.8141  0.4874
  183POPC     P20964   1.840   6.697   6.711  0.0014 -0.0054 -0.1727
  183POPC   O1320965   1.922   6.819   6.742 -0.7242 -0.1385  0.1426
  183POPC   O1420966   1.716   6.666   6.779  0.5702  1.0756  0.4858
  183POPC   O1220967   1.935   6.573   6.728 -0.1636 -1.2529  0.4688
  183POPC   O1120968   1.798   6.709   6.561 -0.2490 -0.2664  0.8991
  183POPC    C120969   1.734   6.595   6.508  0.9875 -0.4409 -0.7469
  183POPC    HA20970   1.680   6.622   6.414 -1.6114  0.4510  0.9085
  183POPC    HB20971   1.660   6.543   6.572  2.1896 -0.5356  0.6003
  183POPC    C220972   1.841   6.489   6.455  0.6589 -0.0591 -0.3928
  183POPC    HS20973   1.899   6.458   6.544 -1.2292  0.1263  0.9524
  183POPC   O2120974   1.929   6.557   6.365  0.1719 -0.3072  0.1262
  183POPC   C2120975   2.037   6.487   6.332 -0.2100  0.3107 -0.0670
  183POPC   O2220976   2.068   6.384   6.387 -0.7145  0.8659  0.4877
  183POPC   C2220977   2.122   6.552   6.228  0.3477 -0.0306 -0.3254
  183POPC   H2R20978   2.224   6.535   6.270  0.9216  1.8399 -0.8549
  183POPC   H2S20979   2.103   6.661   6.220  2.0449  0.6206  2.8356
  183POPC    C320980   1.778   6.368   6.385 -0.8357 -0.2518 -0.4824
  183POPC    HX20981   1.701   6.330   6.457  0.8916 -2.9133  0.0900
  183POPC    HY20982   1.857   6.290   6.382 -0.5528  0.0309 -3.8656
  183POPC   O3120983   1.736   6.407   6.251 -0.0016  0.2412  0.2847
  183POPC   C3120984   1.602   6.393   6.228  0.1236  0.1007  0.1135
  183POPC   O3220985   1.518   6.375   6.315 -0.1602 -0.2731 -0.0037
  183POPC   C3220986   1.576   6.389   6.078  0.9214 -0.0188  0.5148
  183POPC   H2X20987   1.670   6.398   6.020  0.4220  1.9910 -0.0845
  183POPC   H2Y20988   1.516   6.481   6.056  1.0909  0.2243  1.0640
  183POPC   C2320989   2.087   6.485   6.094 -0.4063 -0.6952 -0.3030
  183POPC   H3R20990   2.059   6.379   6.113  1.0328 -1.2262 -0.9182
  183POPC   H3S20991   2.180   6.499   6.034  0.1808 -0.7369  0.5841
  183POPC   C2420992   1.976   6.548   6.016  0.0968  0.4887 -0.5732
  183POPC   H4R20993   2.014   6.650   5.996  2.7486 -0.4150 -0.5482
  183POPC   H4S20994   1.879   6.550   6.069 -0.5069 -1.8907 -1.4618
  183POPC   C2520995   1.958   6.496   5.873 -0.2893 -0.4710 -0.3576
  183POPC   H5R20996   1.925   6.390   5.879 -1.2931 -0.1216  0.6591
  183POPC   H5S20997   2.056   6.486   5.822 -0.1239  1.4001 -0.4689
  183POPC   C2620998   1.870   6.575   5.776 -0.0135 -0.0010 -0.3870
  183POPC   H6R20999   1.867   6.519   5.680  4.4138  0.5058 -1.0330
  183POPC   H6S21000   1.904   6.679   5.755 -2.7017  0.8221 -1.0695
  183POPC   C2721001   1.727   6.602   5.832 -0.6250  0.0578 -0.0743
  183POPC   H7R21002   1.723   6.635   5.938  2.5667  0.8334 -0.0824
  183POPC   H7S21003   1.683   6.501   5.816 -0.1080  0.2414 -3.4921
  183POPC   C2821004   1.634   6.680   5.730 -0.3699 -0.2425 -0.1145
  183POPC   H8R21005   1.661   6.633   5.633 -2.7715 -0.3067 -0.8088
  183POPC   H8S21006   1.674   6.782   5.716  1.8662 -1.0244  0.0350
  183POPC   C2921007   1.487   6.670   5.754 -0.1216 -0.0885  0.4103
  183POPC   H9121008   1.445   6.726   5.839 -3.0904  0.0826 -1.0219
  183POPC  C21021009   1.396   6.610   5.682  0.8643  0.3919 -0.0122
  183POPC  H10121010   1.295   6.618   5.726  0.6770  1.4365 -0.6035
  183POPC  C21121011   1.410   6.502   5.579 -0.9539 -0.4055 -0.0790
  183POPC  H11R21012   1.333   6.422   5.589  1.0345 -2.3299  0.8111
  183POPC  H11S21013   1.514   6.463   5.572 -0.0599  1.5606  1.3443
  183POPC  C21221014   1.382   6.560   5.440 -0.7220 -1.0227 -0.3121
  183POPC  H12R21015   1.449   6.647   5.422  0.0297 -1.6018 -0.3517
  183POPC  H12S21016   1.279   6.600   5.431 -0.9964 -1.5673  0.3563
  183POPC  C21321017   1.398   6.455   5.327  0.3531  1.0608 -0.3943
  183POPC  H13R21018   1.490   6.395   5.317 -0.2675 -0.1848  1.0629
  183POPC  H13S21019   1.397   6.522   5.238  3.1682  1.0662 -0.4851
  183POPC  C21421020   1.282   6.356   5.311 -0.0532  0.6497  0.4344
  183POPC  H14R21021   1.237   6.330   5.409 -1.6727  2.9853  0.3952
  183POPC  H14S21022   1.329   6.263   5.273 -0.6938 -0.2738  1.8263
  183POPC  C21521023   1.172   6.391   5.211  1.2828 -0.1869 -0.2704
  183POPC  H15R21024   1.221   6.379   5.112  0.1898  0.7660 -0.9467
  183POPC  H15S21025   1.152   6.497   5.237 -0.5033 -1.3530  3.7673
  183POPC  C21621026   1.039   6.315   5.235 -0.1530 -0.7071  0.5536
  183POPC  H16R21027   0.992   6.319   5.335 -0.7255  2.2364  0.2501
  183POPC  H16S21028   1.063   6.210   5.206  1.3178 -0.1197 -0.5084
  183POPC  C21721029   0.930   6.360   5.135  0.1794 -0.0367  0.5453
  183POPC  H17R21030   0.960   6.346   5.029  2.1374  0.2013  1.0230
  183POPC  H17S21031   0.905   6.468   5.128 -2.3356 -0.6332 -1.3407
  183POPC  C21821032   0.801   6.279   5.153 -0.0997  0.1677  0.1703
  183POPC  H18R21033   0.812   6.169   5.152 -0.3719  0.0952  1.9413
  183POPC  H18S21034   0.727   6.312   5.078 -0.4799 -1.2751 -0.1164
  183POPC  H18T21035   0.751   6.304   5.249 -1.6771  1.5196 -0.9420
  183POPC   C3321036   1.487   6.259   6.030  0.0084  0.5222 -0.9539
  183POPC   H3X21037   1.407   6.243   6.105  1.6035 -1.0336  0.5002
  183POPC   H3Y21038   1.549   6.167   6.040 -0.5706 -0.0277 -2.2469
  183POPC   C3421039   1.436   6.274   5.886 -0.8757  0.2873 -0.9541
  183POPC   H4X21040   1.518   6.296   5.814  0.1104  0.8978  0.3160
  183POPC   H4Y21041   1.377   6.367   5.875  1.3900  2.1114  1.2653
  183POPC   C3521042   1.344   6.156   5.848 -0.9084 -0.3666  0.1044
  183POPC   H5X21043   1.250   6.157   5.907 -0.9328  0.3998  0.0544
  183POPC   H5Y21044   1.396   6.063   5.880  0.0259  0.2021  0.2685
  183POPC   C3621045   1.318   6.137   5.694 -0.0029  0.7238 -0.3320
  183POPC   H6X21046   1.291   6.233   5.644  0.8240  1.3110  0.3271
  183POPC   H6Y21047   1.234   6.065   5.679 -1.1050  1.9574 -0.3137
  183POPC   C3721048   1.443   6.078   5.628  0.1322  0.6104  0.3226
  183POPC   H7X21049   1.456   5.973   5.662 -2.5955  0.1285  0.1085
  183POPC   H7Y21050   1.528   6.144   5.656  2.5091 -0.8119 -2.9243
  183POPC   C3821051   1.452   6.089   5.476  0.8260  0.4111 -0.2732
  183POPC   H8X21052   1.497   6.189   5.458 -0.3588  0.8758 -0.6964
  183POPC   H8Y21053   1.352   6.093   5.429  1.4772 -3.4287 -2.3653
  183POPC   C3921054   1.526   5.971   5.423  0.1998 -0.6212 -0.1571
  183POPC   H9X21055   1.470   5.880   5.453  0.0662 -0.7794 -0.8514
  183POPC   H9Y21056   1.623   5.985   5.475 -0.6630  0.4276  1.2070
  183POPC  C31021057   1.553   5.971   5.274  0.3187 -0.4682 -0.4050
  183POPC  H10X21058   1.592   6.072   5.250  0.7623 -0.3236  0.8662
  183POPC  H10Y21059   1.450   5.969   5.233  0.0461 -1.1126  0.2799
  183POPC  C31121060   1.654   5.873   5.225 -0.5173  0.3705  0.0359
  183POPC  H11X21061   1.627   5.777   5.274  2.4121 -1.8863 -2.3415
  183POPC  H11Y21062   1.756   5.895   5.262  0.0230 -1.6579 -0.0978
  183POPC  C31221063   1.647   5.853   5.068  0.4073  0.9620 -0.1879
  183POPC  H12X21064   1.552   5.804   5.037  0.5203  1.0532 -0.6913
  183POPC  H12Y21065   1.724   5.783   5.030  2.8748  3.5313 -0.2147
  183POPC  C31321066   1.673   5.983   4.990  0.4849  0.1554 -0.1047
  183POPC  H13X21067   1.774   6.019   5.019  0.3477  2.9925 -2.5724
  183POPC  H13Y21068   1.612   6.063   5.038  0.2326 -1.6291  2.7817
  183POPC  C31421069   1.649   5.968   4.841 -0.6206  0.9013  0.0568
  183POPC  H14X21070   1.541   5.948   4.825 -0.7732  3.0225 -2.3008
  183POPC  H14Y21071   1.706   5.882   4.802  0.6000  1.3299  0.8581
  183POPC  C31521072   1.685   6.082   4.745 -0.1020  0.5721 -0.5038
  183POPC  H15X21073   1.789   6.060   4.715 -0.7299 -1.6992 -1.2305
  183POPC  H15Y21074   1.673   6.181   4.793 -0.2233  0.5872 -0.5661
  183POPC  C31621075   1.584   6.081   4.620 -0.2807  0.3886 -0.3952
  183POPC  H16X21076   1.603   5.991   4.557 -2.0648  0.2474 -0.7710
  183POPC  H16Y21077   1.598   6.164   4.548  0.4524  0.0552 -0.6458
  183POPC  H16Z21078   1.482   6.092   4.661  0.0047 -0.2631  0.5248
  184POPC     N21079   4.694   0.242   7.194 -0.1983 -0.1458 -0.1018
  184POPC   C1221080   4.764   0.307   7.072  0.2115 -0.4528  0.1203
  184POPC  H12A21081   4.710   0.393   7.035  0.2943  0.6040  2.2940
  184POPC  H12B21082   4.756   0.231   6.996  0.0690  0.6597 -1.0109
  184POPC   C1321083   4.555   0.226   7.157 -0.7297  0.4058  0.9894
  184POPC  H13A21084   4.546   0.155   7.077 -2.8568 -1.8570  3.0375
  184POPC  H13B21085   4.505   0.190   7.246 -0.6765  1.6464  1.5442
  184POPC  H13C21086   4.511   0.319   7.123  1.5475  1.6562  1.3102
  184POPC   C1421087   4.759   0.111   7.225 -0.6226  0.5162 -0.0704
  184POPC  H14A21088   4.866   0.123   7.234 -0.3798  0.1908 -2.0632
  184POPC  H14B21089   4.719   0.051   7.305 -0.8853 -0.1836 -0.7114
  184POPC  H14C21090   4.757   0.049   7.136  2.2876 -0.1461  0.2131
  184POPC   C1521091   4.703   0.329   7.313  0.2628 -0.6109  0.5740
  184POPC  H15A21092   4.662   0.427   7.294 -0.7243 -1.0726  0.2251
  184POPC  H15B21093   4.804   0.349   7.346  0.5333 -0.6862 -0.1902
  184POPC  H15C21094   4.650   0.290   7.399  0.8263  3.7804  3.2551
  184POPC   C1121095   4.913   0.343   7.071  0.2405  0.0924 -0.5231
  184POPC  H11A21096   4.920   0.422   7.149  1.8292 -0.9098  0.4141
  184POPC  H11B21097   4.943   0.389   6.975 -2.0094  4.0872  0.4633
  184POPC     P21098   5.079   0.137   7.026 -0.4668  0.1058  0.0058
  184POPC   O1321099   5.065  -0.005   7.067 -0.0590  0.1836  0.0967
  184POPC   O1421100   5.222   0.190   7.016 -0.0457 -0.2017 -0.0594
  184POPC   O1221101   4.996   0.236   7.121 -0.1822  0.5239 -0.2699
  184POPC   O1121102   5.028   0.152   6.875 -0.5432  0.2614  0.0798
  184POPC    C121103   4.923   0.076   6.815  0.4383 -0.1802  0.0639
  184POPC    HA21104   4.830   0.136   6.828  0.6462  0.8584 -2.5133
  184POPC    HB21105   4.906  -0.024   6.859 -1.3179 -1.3013 -2.8780
  184POPC    C221106   4.955   0.058   6.662 -0.1035 -0.3242  0.0420
  184POPC    HS21107   4.889  -0.026   6.631  0.7289 -2.0218  2.5968
  184POPC   O2121108   5.090   0.013   6.650  0.7246 -0.4961 -0.6506
  184POPC   C2121109   5.112  -0.113   6.674 -0.3581 -0.1781  0.0639
  184POPC   O2221110   5.029  -0.191   6.714  0.4755  0.6015 -0.1497
  184POPC   C2221111   5.256  -0.145   6.660 -1.0750  0.0946  0.4761
  184POPC   H2R21112   5.271  -0.248   6.699 -1.7155 -0.1334  0.1312
  184POPC   H2S21113   5.322  -0.070   6.709 -2.4962 -0.6984  3.8741
  184POPC    C321114   4.932   0.191   6.589 -0.5278  0.5770  0.4474
  184POPC    HX21115   4.991   0.269   6.642 -0.9264 -0.2551  2.1703
  184POPC    HY21116   4.825   0.213   6.604 -0.6186 -0.3107  1.2426
  184POPC   O3121117   4.953   0.183   6.447  0.1992 -0.5708 -0.0560
  184POPC   C3121118   5.069   0.207   6.405  0.0813 -0.4349  0.6129
  184POPC   O3221119   5.170   0.221   6.471 -0.8413 -0.1499 -0.0822
  184POPC   C3221120   5.078   0.201   6.262  0.5162  0.3143 -0.3285
  184POPC   H2X21121   5.065   0.304   6.223 -3.1695 -0.4330 -1.4674
  184POPC   H2Y21122   4.995   0.139   6.220  1.2168 -0.6891 -0.2729
  184POPC   C2321123   5.314  -0.161   6.514 -0.2571 -0.3827 -0.4001
  184POPC   H3R21124   5.416  -0.202   6.530 -0.2091  0.1988  0.8968
  184POPC   H3S21125   5.320  -0.058   6.471  2.2134 -0.9581 -1.6331
  184POPC   C2421126   5.241  -0.238   6.411  0.2961  0.7277 -0.6184
  184POPC   H4R21127   5.285  -0.237   6.309 -0.6329 -3.3253 -1.2088
  184POPC   H4S21128   5.133  -0.215   6.418  0.5809  1.6547  1.1566
  184POPC   C2521129   5.255  -0.394   6.446  0.1091 -0.7208 -0.2235
  184POPC   H5R21130   5.268  -0.411   6.555  2.6546 -0.3184 -0.4083
  184POPC   H5S21131   5.355  -0.436   6.419  0.1720 -0.3103 -0.6425
  184POPC   C2621132   5.155  -0.487   6.382 -0.0011  0.6498  0.2384
  184POPC   H6R21133   5.054  -0.466   6.424  0.1890  2.8830 -0.2945
  184POPC   H6S21134   5.197  -0.589   6.384 -0.0416  0.6095 -0.6038
  184POPC   C2721135   5.148  -0.457   6.231  0.1770 -0.3441 -0.6319
  184POPC   H7R21136   5.255  -0.469   6.206  1.0167  1.6345  1.5892
  184POPC   H7S21137   5.101  -0.357   6.215 -0.8608 -0.1964  2.6241
  184POPC   C2821138   5.076  -0.565   6.154  0.0592  0.0125 -0.3134
  184POPC   H8R21139   5.132  -0.660   6.161  1.4246  0.7567 -0.6690
  184POPC   H8S21140   5.084  -0.526   6.050 -0.1891  0.0420 -0.3232
  184POPC   C2921141   4.929  -0.561   6.198  0.0572  0.7630  0.5629
  184POPC   H9121142   4.916  -0.575   6.306 -2.0765  4.0243  0.8586
  184POPC  C21021143   4.819  -0.531   6.128 -0.0136 -0.7323 -0.2478
  184POPC  H10121144   4.723  -0.522   6.182  1.1725  2.0110  1.6690
  184POPC  C21121145   4.816  -0.506   5.980  0.0067  0.6163 -0.8429
  184POPC  H11R21146   4.907  -0.521   5.917 -1.2250 -0.4300 -2.4477
  184POPC  H11S21147   4.780  -0.404   5.959 -1.6765 -0.1182 -1.7163
  184POPC  C21221148   4.702  -0.584   5.919  0.0916  0.0364 -0.1462
  184POPC  H12R21149   4.599  -0.585   5.961  0.1121  0.4808 -0.0754
  184POPC  H12S21150   4.734  -0.690   5.919 -0.3155 -0.0920  0.5988
  184POPC  C21321151   4.679  -0.543   5.773  0.7796 -0.9340  0.0872
  184POPC  H13R21152   4.777  -0.529   5.723  1.3645 -1.8830  0.9166
  184POPC  H13S21153   4.635  -0.441   5.770  1.1287 -0.7689  0.4461
  184POPC  C21421154   4.589  -0.635   5.692 -0.1265  0.3452  0.0608
  184POPC  H14R21155   4.514  -0.691   5.752 -1.9655  0.5043 -1.9567
  184POPC  H14S21156   4.654  -0.703   5.633  2.0016  3.2913 -1.2390
  184POPC  C21521157   4.499  -0.559   5.597 -0.0184  0.1499 -0.8385
  184POPC  H15R21158   4.560  -0.501   5.525  0.0303 -1.1123 -1.8523
  184POPC  H15S21159   4.445  -0.483   5.657 -0.2286 -1.5443  1.2534
  184POPC  C21621160   4.395  -0.659   5.531 -0.2446 -0.2160 -0.2871
  184POPC  H16R21161   4.331  -0.700   5.612 -0.8990 -1.4516 -1.4044
  184POPC  H16S21162   4.461  -0.745   5.504  0.9712 -0.6985  3.5902
  184POPC  C21721163   4.313  -0.615   5.412  0.1376 -0.9822  0.4630
  184POPC  H17R21164   4.371  -0.554   5.340 -0.7401 -0.9132 -0.2078
  184POPC  H17S21165   4.232  -0.549   5.450  0.1457 -0.4508 -0.4166
  184POPC  C21821166   4.244  -0.735   5.336 -0.5923  0.4366 -0.4566
  184POPC  H18R21167   4.316  -0.820   5.327  0.3471  1.2572 -0.8620
  184POPC  H18S21168   4.206  -0.718   5.233  0.0804 -2.6051 -1.3051
  184POPC  H18T21169   4.160  -0.773   5.397  0.0223  0.5174  0.4636
  184POPC   C3321170   5.210   0.154   6.212  0.7771 -0.5565  0.3087
  184POPC   H3X21171   5.238   0.053   6.251 -0.1403 -1.1678 -0.5721
  184POPC   H3Y21172   5.295   0.216   6.249  2.0663 -1.8695 -0.3047
  184POPC   C3421173   5.216   0.143   6.058 -0.2865  0.2192  0.2222
  184POPC   H4X21174   5.314   0.134   6.008 -0.9902 -0.4576 -1.0817
  184POPC   H4Y21175   5.187   0.245   6.023  2.0560  1.4473  1.5753
  184POPC   C3521176   5.125   0.037   6.002 -0.1402 -0.7385 -0.3921
  184POPC   H5X21177   5.102   0.063   5.896 -2.2260 -0.1371  0.1594
  184POPC   H5Y21178   5.028   0.039   6.056  0.3015  1.0142  0.4226
  184POPC   C3621179   5.178  -0.108   6.023  0.1243 -0.8051  0.2862
  184POPC   H6X21180   5.092  -0.173   5.999 -1.2166  1.3226 -1.0054
  184POPC   H6Y21181   5.200  -0.129   6.130 -2.2775  2.7560  1.6761
  184POPC   C3721182   5.294  -0.153   5.929 -0.7559  1.2717  0.4009
  184POPC   H7X21183   5.304  -0.262   5.948  1.0803  1.2224 -0.6678
  184POPC   H7Y21184   5.381  -0.093   5.961 -0.6104  0.1098  2.2929
  184POPC   C3821185   5.258  -0.135   5.789  0.7322 -0.2435 -0.4512
  184POPC   H8X21186   5.244  -0.027   5.769 -0.3629  0.1396  1.9752
  184POPC   H8Y21187   5.160  -0.183   5.769 -0.1391  0.5911  1.5195
  184POPC   C3921188   5.363  -0.188   5.690  1.1142 -0.3516 -0.2972
  184POPC   H9X21189   5.378  -0.297   5.704 -3.4405 -1.3458 -1.6170
  184POPC   H9Y21190   5.457  -0.129   5.687 -0.2047  1.8427 -1.8952
  184POPC  C31021191   5.336  -0.184   5.537 -0.0488 -0.9106  0.2082
  184POPC  H10X21192   5.293  -0.083   5.518 -0.9697 -1.0970  1.1584
  184POPC  H10Y21193   5.249  -0.249   5.512 -0.5546 -0.5850  1.0717
  184POPC  C31121194   5.453  -0.224   5.445  0.4107 -0.0860 -0.3118
  184POPC  H11X21195   5.519  -0.283   5.512  0.0827 -0.0108  0.0846
  184POPC  H11Y21196   5.505  -0.131   5.415  1.4382 -0.8834 -1.0624
  184POPC  C31221197   5.416  -0.298   5.316  0.2104 -1.0679  0.0724
  184POPC  H12X21198   5.349  -0.381   5.347  0.2262 -1.4376 -0.8438
  184POPC  H12Y21199   5.514  -0.329   5.275  1.1956  0.3056  1.3053
  184POPC  C31321200   5.358  -0.197   5.222  0.2996  0.8036 -0.3197
  184POPC  H13X21201   5.437  -0.122   5.198  1.5482 -0.8868 -1.7223
  184POPC  H13Y21202   5.272  -0.145   5.269  0.1395  1.0211 -0.8578
  184POPC  C31421203   5.326  -0.239   5.080  0.1090  0.4015 -0.0293
  184POPC  H14X21204   5.273  -0.153   5.034 -1.4105 -0.8336 -0.6627
  184POPC  H14Y21205   5.266  -0.333   5.079  1.1934 -0.4016  2.2736
  184POPC  C31521206   5.451  -0.280   4.991 -0.4124 -0.1800 -0.2696
  184POPC  H15X21207   5.503  -0.367   5.036 -0.0413 -0.0927 -0.5248
  184POPC  H15Y21208   5.511  -0.186   4.991 -1.8163  0.9333  3.8178
  184POPC  C31621209   5.413  -0.302   4.847  0.2125 -1.0241  0.5378
  184POPC  H16X21210   5.307  -0.334   4.838 -0.6521  2.1836 -2.7966
  184POPC  H16Y21211   5.471  -0.385   4.802  1.7014  0.8312 -1.1649
  184POPC  H16Z21212   5.418  -0.210   4.785 -1.2900 -1.5483 -0.3995
  185POPC     N21213   6.194   1.635   1.906 -0.0044  0.1219 -0.4566
  185POPC   C1221214   6.153   1.727   2.017 -0.0140 -0.6960 -0.7946
  185POPC  H12A21215   6.213   1.816   2.004 -1.3424  0.6554  1.6647
  185POPC  H12B21216   6.169   1.688   2.116  0.2954 -1.3451 -1.0928
  185POPC   C1321217   6.177   1.703   1.777  0.3602 -0.1392  0.0681
  185POPC  H13A21218   6.209   1.641   1.694 -3.3702 -3.5262  0.8175
  185POPC  H13B21219   6.071   1.720   1.766  0.1928 -1.0033  0.2766
  185POPC  H13C21220   6.224   1.800   1.770 -0.2802  0.1108 -1.0591
  185POPC   C1421221   6.340   1.600   1.919 -0.0161  0.0752  0.1459
  185POPC  H14A21222   6.410   1.674   1.956  2.3327 -1.5903 -0.7260
  185POPC  H14B21223   6.352   1.525   1.995  0.0059 -0.5517 -0.4726
  185POPC  H14C21224   6.378   1.561   1.826  2.0862  1.9478  0.1339
  185POPC   C1521225   6.105   1.506   1.896 -0.7229 -0.1269 -0.5950
  185POPC  H15A21226   6.014   1.518   1.952 -0.5637 -0.5206 -0.2445
  185POPC  H15B21227   6.155   1.437   1.962 -0.8888  1.1255  0.9092
  185POPC  H15C21228   6.108   1.470   1.794 -0.9987 -1.7861 -0.0454
  185POPC   C1121229   6.005   1.791   2.024  0.0129  0.8053 -0.3156
  185POPC  H11A21230   6.003   1.866   1.942 -2.4266  3.0739  1.6230
  185POPC  H11B21231   6.000   1.868   2.105 -2.0386 -1.0371  1.4274
  185POPC     P21232   5.800   1.669   2.128 -0.1580  0.0058 -0.2594
  185POPC   O1321233   5.777   1.522   2.157  0.4449 -0.4524 -0.0145
  185POPC   O1421234   5.675   1.748   2.107  0.0176 -0.4195 -0.7545
  185POPC   O1221235   5.899   1.689   2.010 -0.0313  0.0362  0.5156
  185POPC   O1121236   5.869   1.721   2.258 -0.1912 -0.4282 -0.5692
  185POPC    C121237   5.984   1.646   2.309 -0.6304  0.7224  0.1242
  185POPC    HA21238   6.069   1.714   2.329 -1.3150  0.9840  2.4928
  185POPC    HB21239   6.013   1.566   2.237 -1.7243 -0.1352  0.5949
  185POPC    C221240   5.939   1.570   2.430 -0.4525  0.1304 -0.2317
  185POPC    HS21241   5.852   1.504   2.409 -1.1653  0.8098  0.5071
  185POPC   O2121242   5.905   1.662   2.538 -0.1882 -0.3663  0.2171
  185POPC   C2121243   5.794   1.635   2.607  0.3468  0.5960 -0.3350
  185POPC   O2221244   5.721   1.540   2.593  0.1155 -0.4915  0.1060
  185POPC   C2221245   5.775   1.740   2.719  0.1660  0.0129 -0.1694
  185POPC   H2R21246   5.681   1.780   2.677 -0.3714 -1.6204 -0.6092
  185POPC   H2S21247   5.861   1.810   2.718  0.5339 -0.4407 -0.4609
  185POPC    C321248   6.063   1.488   2.469  0.3286  0.0046  0.0618
  185POPC    HX21249   6.137   1.568   2.491  1.7749 -1.2894  0.0643
  185POPC    HY21250   6.093   1.422   2.385 -0.5669 -1.4496  0.8420
  185POPC   O3121251   6.042   1.413   2.593 -0.0063  0.2890 -0.1865
  185POPC   C3121252   5.996   1.291   2.575  0.6341 -0.3951 -0.6972
  185POPC   O3221253   6.014   1.224   2.476  0.2001  0.1503 -0.4518
  185POPC   C3221254   5.919   1.237   2.697 -0.7065  0.0582  0.5138
  185POPC   H2X21255   5.937   1.128   2.712  0.6658 -0.0061 -1.3063
  185POPC   H2Y21256   5.812   1.255   2.674 -1.3257 -0.9465  2.3817
  185POPC   C2321257   5.739   1.672   2.852 -0.7383  0.2095  0.0677
  185POPC   H3R21258   5.821   1.609   2.893 -1.9428 -1.4662  0.0319
  185POPC   H3S21259   5.658   1.597   2.835 -0.3997 -0.0408 -0.4659
  185POPC   C2421260   5.687   1.769   2.959  0.3516  0.0104 -0.4538
  185POPC   H4R21261   5.590   1.811   2.927  0.0654 -1.3273 -1.4665
  185POPC   H4S21262   5.752   1.860   2.957  0.5810 -0.1416 -0.0072
  185POPC   C2521263   5.704   1.731   3.105  1.0797  0.6663 -0.2938
  185POPC   H5R21264   5.675   1.824   3.159 -1.0381  1.9670 -3.4138
  185POPC   H5S21265   5.813   1.716   3.117  0.9701 -2.2642 -2.0209
  185POPC   C2621266   5.617   1.621   3.165 -0.2013 -0.1649 -0.2239
  185POPC   H6R21267   5.635   1.527   3.109  1.3462 -0.3069  0.4724
  185POPC   H6S21268   5.510   1.652   3.159 -0.0926  0.7739  1.8995
  185POPC   C2721269   5.669   1.598   3.313 -0.5598 -0.3587  0.6204
  185POPC   H7R21270   5.681   1.700   3.357  1.4406 -0.0391 -0.5206
  185POPC   H7S21271   5.771   1.555   3.309 -0.4059  0.0851 -0.7554
  185POPC   C2821272   5.577   1.517   3.408 -0.4615  0.2683  0.7629
  185POPC   H8R21273   5.647   1.470   3.481 -1.8424  1.1999  2.8116
  185POPC   H8S21274   5.530   1.438   3.346  1.2998  0.4011 -0.8132
  185POPC   C2921275   5.470   1.598   3.479  0.7057  0.4714 -0.2311
  185POPC   H9121276   5.389   1.629   3.410  0.9152 -0.8547 -1.1033
  185POPC  C21021277   5.470   1.634   3.606  0.7743  0.2861 -0.2639
  185POPC  H10121278   5.378   1.683   3.641  0.2465  1.1081 -2.6029
  185POPC  C21121279   5.566   1.593   3.713 -0.0483  0.3761  0.0735
  185POPC  H11R21280   5.610   1.678   3.768 -1.7980  2.4733 -1.5553
  185POPC  H11S21281   5.655   1.536   3.678  0.0687  0.0062  0.9362
  185POPC  C21221282   5.494   1.501   3.817  0.0840 -0.9148  0.0425
  185POPC  H12R21283   5.459   1.407   3.770  1.0004 -2.3410  2.0663
  185POPC  H12S21284   5.406   1.547   3.867  0.0064  0.3899 -1.2293
  185POPC  C21321285   5.590   1.453   3.928  0.0491  0.2649  0.0669
  185POPC  H13R21286   5.693   1.450   3.885 -0.5468 -1.2853 -1.3398
  185POPC  H13S21287   5.568   1.350   3.961  0.1540  0.4089  0.5951
  185POPC  C21421288   5.582   1.548   4.053  0.4599  0.4572  1.1857
  185POPC  H14R21289   5.479   1.546   4.095 -0.1323 -0.5653 -0.2202
  185POPC  H14S21290   5.595   1.650   4.013 -0.2957 -0.4160 -1.4667
  185POPC  C21521291   5.675   1.520   4.164  0.7924 -0.0146  0.5119
  185POPC  H15R21292   5.662   1.591   4.248 -0.4915 -1.5461  1.6519
  185POPC  H15S21293   5.779   1.533   4.127  0.9522 -1.2556  0.4956
  185POPC  C21621294   5.658   1.390   4.228  0.3981  0.9390  0.0273
  185POPC  H16R21295   5.721   1.379   4.318 -1.1047  1.7594  1.2373
  185POPC  H16S21296   5.672   1.315   4.148  1.1496  2.6967 -1.5693
  185POPC  C21721297   5.526   1.343   4.287  0.1346  0.5315 -0.0658
  185POPC  H17R21298   5.453   1.323   4.205 -1.0933  0.4938  1.0020
  185POPC  H17S21299   5.483   1.420   4.354 -2.9991  0.9006 -2.2720
  185POPC  C21821300   5.545   1.215   4.367  0.4606 -0.6691  0.2731
  185POPC  H18R21301   5.452   1.154   4.373 -0.8628  1.3008  0.8748
  185POPC  H18S21302   5.574   1.249   4.469 -0.3550  0.1680  0.2359
  185POPC  H18T21303   5.628   1.152   4.329 -0.5524 -0.9060 -1.6288
  185POPC   C3321304   5.952   1.323   2.827  0.0497 -0.4166 -0.2638
  185POPC   H3X21305   5.945   1.431   2.803 -2.8279 -0.5087 -0.1790
  185POPC   H3Y21306   6.055   1.283   2.838 -0.0694 -1.0641 -1.3135
  185POPC   C3421307   5.867   1.278   2.946 -0.4911 -0.1605 -0.3726
  185POPC   H4X21308   5.764   1.298   2.911  0.7392  0.2276 -4.2333
  185POPC   H4Y21309   5.885   1.355   3.024 -1.5514  0.2557 -0.5265
  185POPC   C3521310   5.897   1.141   3.003 -0.3717  0.0221  0.5954
  185POPC   H5X21311   6.007   1.130   3.003 -0.3978 -0.2513  1.5275
  185POPC   H5Y21312   5.861   1.061   2.935  1.1439 -2.4763  2.5846
  185POPC   C3621313   5.841   1.109   3.142 -0.1831 -0.4744  0.2252
  185POPC   H6X21314   5.844   0.999   3.155 -0.2382 -0.8303 -2.1916
  185POPC   H6Y21315   5.738   1.150   3.136  0.4492  1.0190 -1.1267
  185POPC   C3721316   5.900   1.175   3.262 -0.3753  0.2820  0.1511
  185POPC   H7X21317   5.853   1.275   3.270 -0.7228  0.0031  2.4980
  185POPC   H7Y21318   6.009   1.192   3.246 -0.8850  2.3608 -1.3583
  185POPC   C3821319   5.881   1.102   3.400 -0.1904  0.4737 -0.0746
  185POPC   H8X21320   5.964   1.131   3.468  1.2473 -1.3163 -1.0032
  185POPC   H8Y21321   5.859   0.994   3.385  0.3660  0.4978 -1.1389
  185POPC   C3921322   5.757   1.161   3.478  0.3086  0.9077 -0.3103
  185POPC   H9X21323   5.668   1.126   3.422 -1.2562  2.7145  0.9698
  185POPC   H9Y21324   5.743   1.270   3.462 -1.8995  0.8200  0.7130
  185POPC  C31021325   5.755   1.108   3.622 -0.2913  0.1376 -0.5974
  185POPC  H10X21326   5.849   1.142   3.671  0.8021 -2.0585 -1.0157
  185POPC  H10Y21327   5.757   0.997   3.629 -0.7756  0.2411  2.5130
  185POPC  C31121328   5.629   1.145   3.707  0.3127 -0.2961 -0.0848
  185POPC  H11X21329   5.632   1.255   3.724 -0.8048  0.1486 -2.3979
  185POPC  H11Y21330   5.635   1.088   3.803  2.0015  3.1376  2.0315
  185POPC  C31221331   5.496   1.121   3.631  1.0477 -0.1786 -0.1414
  185POPC  H12X21332   5.498   1.168   3.530 -0.8175 -0.0879 -0.1674
  185POPC  H12Y21333   5.412   1.160   3.692 -0.0660 -0.1888 -1.5966
  185POPC  C31321334   5.463   0.969   3.612  0.0434  0.8775 -0.4362
  185POPC  H13X21335   5.488   0.910   3.703 -0.8629 -3.3465 -2.6755
  185POPC  H13Y21336   5.534   0.930   3.537 -0.4326 -1.8537  0.4358
  185POPC  C31421337   5.317   0.956   3.569  0.2812  0.2177 -0.6705
  185POPC  H14X21338   5.303   1.023   3.481 -0.0790 -1.3951 -1.8815
  185POPC  H14Y21339   5.250   0.997   3.648  1.1985  2.3412 -0.9079
  185POPC  C31521340   5.272   0.822   3.515 -0.1924 -0.8834 -0.1375
  185POPC  H15X21341   5.351   0.784   3.448 -0.5473 -0.6019 -0.7233
  185POPC  H15Y21342   5.180   0.836   3.453  0.0761 -1.5580 -0.6929
  185POPC  C31621343   5.248   0.710   3.621 -0.3247 -0.1183 -1.1087
  185POPC  H16X21344   5.168   0.739   3.693  1.6231  1.2505  0.5990
  185POPC  H16Y21345   5.339   0.693   3.682 -0.8813 -3.0694 -0.9260
  185POPC  H16Z21346   5.221   0.613   3.572 -0.3570  0.4024 -2.1566
  186POPC     N21347   0.388   0.295   2.241 -0.3536 -0.1934  0.3459
  186POPC   C1221348   0.525   0.369   2.250 -0.3412 -0.2416  0.2030
  186POPC  H12A21349   0.606   0.298   2.254 -0.3304 -0.4059 -1.9404
  186POPC  H12B21350   0.521   0.430   2.340  1.7435  0.2360  0.0088
  186POPC   C1321351   0.278   0.389   2.230  0.1753  0.5562  0.2898
  186POPC  H13A21352   0.263   0.431   2.328  1.3288 -0.6430  1.0215
  186POPC  H13B21353   0.303   0.458   2.151  0.3813 -0.7166 -0.7898
  186POPC  H13C21354   0.190   0.328   2.214  0.2800  0.1783  1.0930
  186POPC   C1421355   0.386   0.217   2.113  0.6643  0.2313 -0.2919
  186POPC  H14A21356   0.412   0.284   2.032  0.1732  2.1952  1.0891
  186POPC  H14B21357   0.458   0.137   2.119  0.1074 -0.2560 -0.0385
  186POPC  H14C21358   0.292   0.170   2.088  0.2896 -0.1458  1.7092
  186POPC   C1521359   0.362   0.206   2.354 -0.2794 -0.3469 -0.4550
  186POPC  H15A21360   0.439   0.132   2.365  1.1343  1.0588 -0.6043
  186POPC  H15B21361   0.266   0.155   2.357 -0.1285 -0.6284  2.0626
  186POPC  H15C21362   0.362   0.258   2.449  1.0927 -0.3459 -0.4414
  186POPC   C1121363   0.563   0.459   2.129  0.0514 -0.1241  0.6680
  186POPC  H11A21364   0.577   0.392   2.042 -3.5438  0.9154 -0.8846
  186POPC  H11B21365   0.663   0.507   2.138 -0.3673  1.6440 -2.7653
  186POPC     P21366   0.445   0.696   2.166  0.1061 -0.2318 -0.1629
  186POPC   O1321367   0.301   0.736   2.144 -0.2799 -0.1979  0.0828
  186POPC   O1421368   0.548   0.788   2.112 -0.3373  1.0241  0.0876
  186POPC   O1221369   0.467   0.555   2.092 -0.5963  0.2572  0.4718
  186POPC   O1121370   0.467   0.657   2.326 -0.3125  0.7322  0.1102
  186POPC    C121371   0.603   0.685   2.373  0.5215  0.0442  0.7856
  186POPC    HA21372   0.624   0.794   2.364  1.5154 -0.3045 -1.7766
  186POPC    HB21373   0.687   0.633   2.323  0.0658 -1.7085  1.7423
  186POPC    C221374   0.618   0.650   2.528  0.1459 -0.4708  0.4589
  186POPC    HS21375   0.724   0.676   2.550  0.3743 -0.8327 -0.1835
  186POPC   O2121376   0.588   0.510   2.549  0.4318  0.2326  0.4379
  186POPC   C2121377   0.641   0.458   2.650  0.4553 -0.0739  1.3304
  186POPC   O2221378   0.716   0.514   2.729  0.0320  1.1250 -0.0505
  186POPC   C2221379   0.599   0.308   2.660  0.4629 -0.1355  0.7694
  186POPC   H2R21380   0.638   0.257   2.569 -2.7104  0.0817 -0.8288
  186POPC   H2S21381   0.490   0.292   2.652  0.6257 -0.2420 -3.4877
  186POPC    C321382   0.538   0.755   2.606 -0.8107  0.0392 -0.3396
  186POPC    HX21383   0.434   0.727   2.580 -0.3798 -3.3711  1.0682
  186POPC    HY21384   0.570   0.851   2.560  0.8280 -0.4877 -0.3711
  186POPC   O3121385   0.562   0.759   2.748 -0.0530  0.1404 -0.1094
  186POPC   C3121386   0.485   0.686   2.825 -0.7660 -0.4050 -0.3350
  186POPC   O3221387   0.412   0.603   2.784 -0.1728 -0.5538  0.2172
  186POPC   C3221388   0.525   0.722   2.972  0.8320 -0.0497  0.4190
  186POPC   H2X21389   0.430   0.759   3.016 -0.4471 -1.4602 -1.0729
  186POPC   H2Y21390   0.603   0.802   2.975  0.5379  0.2187  1.0108
  186POPC   C2321391   0.648   0.245   2.798  0.2261  0.5079  0.8139
  186POPC   H3R21392   0.645   0.326   2.873  1.7474  0.4806  0.9425
  186POPC   H3S21393   0.758   0.229   2.790  0.1815  1.0624 -2.2649
  186POPC   C2421394   0.584   0.115   2.841  0.3738 -0.1004 -0.6002
  186POPC   H4R21395   0.626   0.088   2.941 -1.9251 -0.9554  0.1864
  186POPC   H4S21396   0.614   0.033   2.773  1.7495  0.2025 -0.3858
  186POPC   C2521397   0.433   0.114   2.840 -0.5822 -0.1602  0.4349
  186POPC   H5R21398   0.391   0.114   2.737  1.4430 -0.5848 -0.4362
  186POPC   H5S21399   0.392   0.200   2.897  1.9112  1.3889  0.0464
  186POPC   C2621400   0.386  -0.015   2.894  0.2085  0.4785  0.1356
  186POPC   H6R21401   0.431  -0.043   2.992  1.7661 -0.3293 -0.7812
  186POPC   H6S21402   0.415  -0.087   2.815  1.3551 -0.6056  1.4896
  186POPC   C2721403   0.232  -0.029   2.903  0.2422  0.4400  0.1876
  186POPC   H7R21404   0.186   0.026   2.818  1.1003  2.7130  1.1314
  186POPC   H7S21405   0.205   0.023   2.998  1.1316 -0.7446  1.1195
  186POPC   C2821406   0.183  -0.176   2.903  0.2952  0.1370 -0.2055
  186POPC   H8R21407   0.231  -0.236   2.983 -0.4361 -0.8631 -0.5009
  186POPC   H8S21408   0.211  -0.223   2.806  0.8890 -0.3054  0.1705
  186POPC   C2921409   0.037  -0.187   2.927 -1.0400 -0.7351  0.0538
  186POPC   H9121410  -0.028  -0.185   2.838 -1.2912 -1.6811  0.2010
  186POPC  C21021411  -0.031  -0.194   3.043  0.8021  0.1430  0.1524
  186POPC  H10121412  -0.140  -0.187   3.038  0.7942  0.9540  1.1693
  186POPC  C21121413   0.037  -0.192   3.179  0.1582  0.1478  0.0556
  186POPC  H11R21414   0.014  -0.094   3.226  2.4170  0.3931  0.7665
  186POPC  H11S21415   0.148  -0.206   3.176 -0.1246 -2.5395 -1.2345
  186POPC  C21221416  -0.012  -0.302   3.269  0.2595 -0.4413  0.2929
  186POPC  H12R21417   0.009  -0.407   3.237  1.5499  0.0564 -0.5593
  186POPC  H12S21418  -0.120  -0.280   3.282  0.2832 -0.9898  1.5201
  186POPC  C21321419   0.054  -0.291   3.403 -0.2659  0.6494  0.0999
  186POPC  H13R21420  -0.010  -0.327   3.486  1.3313 -1.5070  0.5146
  186POPC  H13S21421   0.091  -0.188   3.420 -1.5357  1.1410 -0.0609
  186POPC  C21421422   0.167  -0.394   3.426  0.0233  0.5180 -0.5277
  186POPC  H14R21423   0.248  -0.392   3.349  1.4078 -0.5304  0.8544
  186POPC  H14S21424   0.131  -0.498   3.410  3.2924 -0.6257 -1.2000
  186POPC  C21521425   0.226  -0.391   3.569  0.1298 -0.6236  0.7832
  186POPC  H15R21426   0.141  -0.415   3.636  0.9161 -1.6015  1.4661
  186POPC  H15S21427   0.254  -0.285   3.590  0.6864 -0.7511  0.7041
  186POPC  C21621428   0.352  -0.474   3.589 -0.8111  0.0871  0.4184
  186POPC  H16R21429   0.432  -0.414   3.541  0.0591 -0.3466  1.3012
  186POPC  H16S21430   0.364  -0.566   3.526 -0.2298  1.7704 -2.0908
  186POPC  C21721431   0.390  -0.495   3.732 -0.8962 -0.2758 -0.2375
  186POPC  H17R21432   0.482  -0.557   3.735 -0.3657  0.5226  1.0126
  186POPC  H17S21433   0.317  -0.555   3.789 -0.3575  1.1806  2.1281
  186POPC  C21821434   0.430  -0.364   3.808  0.5235 -0.7075  0.1058
  186POPC  H18R21435   0.480  -0.287   3.745  0.3329 -0.7802 -0.1376
  186POPC  H18S21436   0.335  -0.310   3.829  1.1380  0.9816 -1.2432
  186POPC  H18T21437   0.472  -0.378   3.909 -1.4001 -0.6673  0.9538
  186POPC   C3321438   0.559   0.594   3.052  0.3734 -0.0324  0.4222
  186POPC   H3X21439   0.662   0.563   3.027  0.4921  1.6825 -1.3702
  186POPC   H3Y21440   0.497   0.503   3.033  1.8455 -0.8282 -0.7183
  186POPC   C3421441   0.564   0.612   3.203  0.6580 -0.2856 -0.3709
  186POPC   H4X21442   0.617   0.706   3.230  0.7928 -0.4918  0.0947
  186POPC   H4Y21443   0.605   0.518   3.247  2.0342  0.3723 -0.1802
  186POPC   C3521444   0.422   0.626   3.263 -0.2552  0.0739  0.6059
  186POPC   H5X21445   0.358   0.543   3.228 -1.5129  0.8056  1.1260
  186POPC   H5Y21446   0.379   0.719   3.220  1.4390  0.9878  0.7934
  186POPC   C3621447   0.412   0.635   3.417 -0.2909 -0.8836  0.5211
  186POPC   H6X21448   0.415   0.742   3.445 -0.5540 -0.3340 -1.3911
  186POPC   H6Y21449   0.504   0.593   3.464  0.1148 -1.1570 -0.4784
  186POPC   C3721450   0.286   0.577   3.486 -0.5107 -0.2161  0.7651
  186POPC   H7X21451   0.290   0.466   3.494 -1.7634 -0.1739  2.5701
  186POPC   H7Y21452   0.200   0.608   3.423  1.2124 -0.8011 -2.0453
  186POPC   C3821453   0.264   0.628   3.628 -0.4494 -0.3020 -0.0819
  186POPC   H8X21454   0.181   0.586   3.689  0.4747 -1.7613  0.2394
  186POPC   H8Y21455   0.249   0.738   3.631 -1.4390 -0.3905 -1.0815
  186POPC   C3921456   0.384   0.613   3.727 -0.0294 -0.2529  1.1272
  186POPC   H9X21457   0.478   0.652   3.681  0.1421 -1.2699  0.5735
  186POPC   H9Y21458   0.388   0.502   3.735 -0.0618 -0.2555  1.1057
  186POPC  C31021459   0.366   0.676   3.869 -0.3876 -0.3557  0.4929
  186POPC  H10X21460   0.261   0.670   3.905 -1.2165  1.9912 -1.2684
  186POPC  H10Y21461   0.416   0.775   3.872 -0.4145 -0.3334  3.6984
  186POPC  C31121462   0.438   0.602   3.981 -0.0771 -0.2552 -0.7907
  186POPC  H11X21463   0.404   0.496   3.987 -0.6465 -0.0339  0.0322
  186POPC  H11Y21464   0.416   0.637   4.084  1.6026 -1.4298  0.0205
  186POPC  C31221465   0.596   0.601   3.978  0.1899 -0.0298  0.5899
  186POPC  H12X21466   0.639   0.532   3.903  0.0555 -0.8007  1.2035
  186POPC  H12Y21467   0.614   0.556   4.078 -1.1776 -1.0960  0.4007
  186POPC  C31321468   0.665   0.740   3.977  0.6268  0.5195 -0.1464
  186POPC  H13X21469   0.590   0.805   4.026 -0.3882  0.9358 -2.1933
  186POPC  H13Y21470   0.652   0.764   3.870  2.3881  1.0506 -0.2802
  186POPC  C31421471   0.808   0.741   4.028 -0.3671  0.5999  0.3227
  186POPC  H14X21472   0.838   0.845   4.051 -1.6222  1.0400  0.0553
  186POPC  H14Y21473   0.872   0.703   3.946 -2.2772  0.7917 -1.3434
  186POPC  C31521474   0.838   0.656   4.160 -0.1368 -0.3245 -0.0211
  186POPC  H15X21475   0.824   0.550   4.130  0.7883 -0.5257  0.2175
  186POPC  H15Y21476   0.780   0.691   4.248  1.2973 -2.7105  2.0319
  186POPC  C31621477   0.989   0.677   4.191 -0.4470  0.1676  0.4616
  186POPC  H16X21478   1.006   0.612   4.280 -2.2116  0.7398  1.2479
  186POPC  H16Y21479   1.021   0.781   4.214  1.4650 -0.5095  1.1103
  186POPC  H16Z21480   1.047   0.626   4.111  0.1833  0.8281  0.4885
  187POPC     N21481   4.264   1.273   1.932  0.0688  0.3507  0.0152
  187POPC   C1221482   4.411   1.306   1.964  0.0388 -0.9157 -0.1245
  187POPC  H12A21483   4.424   1.389   2.031  2.5827 -1.6340  0.3790
  187POPC  H12B21484   4.446   1.322   1.863 -1.2412 -1.6374 -0.7031
  187POPC   C1321485   4.198   1.397   1.880 -0.3915  0.6446  0.3756
  187POPC  H13A21486   4.254   1.441   1.799  0.6881 -1.9264 -0.3811
  187POPC  H13B21487   4.103   1.367   1.839 -1.5248  2.1496  1.7594
  187POPC  H13C21488   4.170   1.462   1.961  1.8790  0.0341  1.7328
  187POPC   C1421489   4.249   1.171   1.826  0.0558 -0.4069  0.1489
  187POPC  H14A21490   4.145   1.166   1.801  0.5103 -2.8812 -1.5926
  187POPC  H14B21491   4.304   1.194   1.736 -0.4005  0.2171  0.0255
  187POPC  H14C21492   4.285   1.072   1.852  0.2751 -1.0146 -2.2747
  187POPC   C1521493   4.178   1.227   2.047 -0.3049 -1.1518 -0.3590
  187POPC  H15A21494   4.211   1.133   2.089 -1.6087 -2.5259 -2.2392
  187POPC  H15B21495   4.078   1.200   2.016 -0.1359  0.5044 -2.6558
  187POPC  H15C21496   4.176   1.301   2.125 -1.2098 -2.8549  1.2950
  187POPC   C1121497   4.493   1.199   2.026 -0.2889  0.8352 -0.6312
  187POPC  H11A21498   4.440   1.190   2.123 -0.1791  0.0873 -0.6294
  187POPC  H11B21499   4.598   1.232   2.042 -0.9553  1.9428  1.8029
  187POPC     P21500   4.477   0.936   2.001  0.3770  0.0545  0.2219
  187POPC   O1321501   4.574   0.840   1.943 -0.5212  0.6448  0.1141
  187POPC   O1421502   4.335   0.897   1.992  0.2588 -0.3153 -0.4924
  187POPC   O1221503   4.492   1.079   1.943  0.2278  0.0702  0.3792
  187POPC   O1121504   4.512   0.962   2.152 -0.1754 -0.4895  0.1036
  187POPC    C121505   4.554   0.852   2.234  0.7838 -0.6961  0.0094
  187POPC    HA21506   4.634   0.795   2.182 -0.8988 -0.7942 -2.6772
  187POPC    HB21507   4.467   0.784   2.250 -0.5557  1.1307  0.9383
  187POPC    C221508   4.620   0.902   2.373 -0.1417  0.0436 -0.6621
  187POPC    HS21509   4.670   0.811   2.413 -0.8967 -0.5876 -1.1266
  187POPC   O2121510   4.514   0.956   2.458  0.3005 -0.0358  0.5202
  187POPC   C2121511   4.429   0.866   2.505 -0.1317  0.0620  0.5071
  187POPC   O2221512   4.441   0.745   2.484  0.3428 -0.3237 -0.0550
  187POPC   C2221513   4.316   0.947   2.569 -0.1504  0.1827 -0.3230
  187POPC   H2R21514   4.236   0.874   2.594  0.0796  0.1737  0.4039
  187POPC   H2S21515   4.271   1.022   2.500 -0.2512  0.2650 -0.1677
  187POPC    C321516   4.735   1.008   2.352 -0.3793 -0.5418  0.4397
  187POPC    HX21517   4.675   1.094   2.318  1.8727  1.4686  1.2925
  187POPC    HY21518   4.802   0.978   2.268  1.1930  0.9920  1.0880
  187POPC   O3121519   4.806   1.037   2.471 -0.4351 -0.0439 -0.4787
  187POPC   C3121520   4.899   0.943   2.512  0.6256 -0.8540  0.5045
  187POPC   O3221521   4.945   0.860   2.435 -0.3175 -0.7242  0.0674
  187POPC   C3221522   4.934   0.961   2.654  0.1233  1.1877  0.1410
  187POPC   H2X21523   4.989   1.057   2.660  0.7908  0.7069  2.3065
  187POPC   H2Y21524   5.011   0.886   2.683  1.0152  1.4041 -1.5257
  187POPC   C2321525   4.375   1.025   2.690  0.1938  0.0313  0.0217
  187POPC   H3R21526   4.420   1.123   2.665 -0.2149 -0.1186 -1.3745
  187POPC   H3S21527   4.472   0.977   2.716  0.1978 -0.0421 -0.1282
  187POPC   C2421528   4.275   1.025   2.808 -0.0600  0.3273  0.5108
  187POPC   H4R21529   4.263   0.916   2.820 -0.2636  0.3398  0.4175
  187POPC   H4S21530   4.185   1.087   2.785 -0.1147 -0.1615 -0.6285
  187POPC   C2521531   4.357   1.070   2.927 -0.1347  0.0189 -0.7179
  187POPC   H5R21532   4.376   1.178   2.912 -2.2462  0.4225 -0.9171
  187POPC   H5S21533   4.456   1.021   2.931 -0.5632 -0.8865  2.6213
  187POPC   C2621534   4.284   1.033   3.057  0.4986 -0.5471  0.1835
  187POPC   H6R21535   4.269   0.923   3.059 -2.2385 -0.3965 -3.1288
  187POPC   H6S21536   4.187   1.087   3.051 -0.0030 -1.2999  1.2416
  187POPC   C2721537   4.354   1.073   3.187 -0.4029 -0.2485 -0.6937
  187POPC   H7R21538   4.417   1.163   3.171  0.5893 -0.9194 -0.6029
  187POPC   H7S21539   4.431   0.999   3.217 -0.4831 -0.6251 -1.4110
  187POPC   C2821540   4.276   1.108   3.310 -0.2520 -0.6479 -0.2875
  187POPC   H8R21541   4.232   1.210   3.308 -2.3082 -1.3403  2.6327
  187POPC   H8S21542   4.331   1.104   3.407 -1.0118 -1.9840  0.1230
  187POPC   C2921543   4.159   1.013   3.337  0.0375  0.4522  0.1852
  187POPC   H9121544   4.072   1.030   3.271 -0.0146 -0.9893 -0.1663
  187POPC  C21021545   4.141   0.924   3.434  0.0874 -0.0787 -0.1392
  187POPC  H10121546   4.048   0.868   3.450  0.1942  0.1437  1.3700
  187POPC  C21121547   4.247   0.881   3.534  0.7393  0.4109  0.0016
  187POPC  H11R21548   4.346   0.909   3.493  0.1063  1.5860 -0.7805
  187POPC  H11S21549   4.240   0.770   3.543  0.5731  0.4233  0.0297
  187POPC  C21221550   4.233   0.939   3.670 -0.0655 -0.0147 -0.0690
  187POPC  H12R21551   4.142   0.908   3.726 -1.2767  1.0914 -1.3353
  187POPC  H12S21552   4.244   1.047   3.647  3.0261 -0.0454  0.8321
  187POPC  C21321553   4.357   0.911   3.760  0.3705  1.2276 -0.4787
  187POPC  H13R21554   4.350   0.976   3.850  0.5872  1.2861 -0.5014
  187POPC  H13S21555   4.443   0.937   3.694 -0.3242  1.9886 -1.0973
  187POPC  C21421556   4.366   0.760   3.811  0.2107  0.6739  0.1623
  187POPC  H14R21557   4.365   0.679   3.734 -1.6266 -1.1726  1.9989
  187POPC  H14S21558   4.272   0.734   3.864  0.0912  1.0145  0.1216
  187POPC  C21521559   4.485   0.724   3.905 -0.0967  0.1019 -0.7975
  187POPC  H15R21560   4.500   0.805   3.979  0.0913 -1.3394  0.7995
  187POPC  H15S21561   4.576   0.712   3.842  1.0272  1.2329  0.5560
  187POPC  C21621562   4.458   0.596   3.986 -0.3275 -0.4415 -0.8615
  187POPC  H16R21563   4.455   0.508   3.918 -0.1781 -0.9972 -0.1623
  187POPC  H16S21564   4.360   0.609   4.038  0.8347 -1.0519  1.6217
  187POPC  C21721565   4.573   0.568   4.075  0.0804 -0.3235  1.4662
  187POPC  H17R21566   4.601   0.659   4.133  2.0134  0.4716 -0.5567
  187POPC  H17S21567   4.662   0.572   4.009 -1.2485  2.1055 -0.3163
  187POPC  C21821568   4.558   0.446   4.177 -0.1454 -0.1567  0.2736
  187POPC  H18R21569   4.628   0.443   4.263 -2.0380 -2.0118  1.8622
  187POPC  H18S21570   4.550   0.348   4.125 -1.4374 -0.8922  1.8001
  187POPC  H18T21571   4.457   0.473   4.214  1.2813  3.4435  1.9758
  187POPC   C3321572   4.815   0.949   2.742 -0.7371  0.4498 -0.1982
  187POPC   H3X21573   4.791   0.840   2.742  0.7964  0.0801 -1.5481
  187POPC   H3Y21574   4.718   0.990   2.706 -2.8569 -0.8542  3.4659
  187POPC   C3421575   4.848   0.994   2.886  0.3171  0.0478 -0.5745
  187POPC   H4X21576   4.958   0.986   2.900  0.0868  0.1579  1.6549
  187POPC   H4Y21577   4.794   0.931   2.961  2.5300 -1.9736 -0.5557
  187POPC   C3521578   4.809   1.141   2.908  0.0897 -0.5487 -0.2155
  187POPC   H5X21579   4.700   1.147   2.889 -0.5417 -1.0659  2.7043
  187POPC   H5Y21580   4.853   1.197   2.823  1.2527 -3.4144 -1.6197
  187POPC   C3621581   4.828   1.200   3.048  1.0871 -1.0752 -1.0826
  187POPC   H6X21582   4.794   1.305   3.043  1.4488 -0.9631 -1.2113
  187POPC   H6Y21583   4.935   1.213   3.075  0.3246 -0.4028  1.9239
  187POPC   C3721584   4.735   1.140   3.159 -0.3682 -0.5081  0.0081
  187POPC   H7X21585   4.771   1.039   3.188  0.4426 -0.1853  0.1639
  187POPC   H7Y21586   4.628   1.134   3.128 -0.8262  1.3389  1.0483
  187POPC   C3821587   4.733   1.235   3.276 -0.0891 -0.0245 -0.6793
  187POPC   H8X21588   4.677   1.320   3.232 -0.0465  1.0458  1.1946
  187POPC   H8Y21589   4.834   1.266   3.309 -1.6444  2.8054  1.9418
  187POPC   C3921590   4.659   1.187   3.400 -0.8897  0.2804  0.5065
  187POPC   H9X21591   4.655   1.076   3.400 -0.7015  0.2558 -0.7625
  187POPC   H9Y21592   4.557   1.229   3.388 -0.1965  1.3925 -2.5328
  187POPC  C31021593   4.709   1.240   3.533 -0.4207 -0.3727  0.0611
  187POPC  H10X21594   4.707   1.351   3.527  0.2010 -0.4112 -1.1869
  187POPC  H10Y21595   4.812   1.206   3.558  0.6412  0.4440 -2.7762
  187POPC  C31121596   4.606   1.198   3.638 -0.6949  0.9662 -0.1277
  187POPC  H11X21597   4.615   1.088   3.630  1.4459  1.1030 -0.3497
  187POPC  H11Y21598   4.507   1.237   3.607 -0.7692 -0.4036 -1.7638
  187POPC  C31221599   4.647   1.244   3.776 -0.1755  0.5778  0.0956
  187POPC  H12X21600   4.632   1.353   3.784 -3.1051  0.3257 -0.9087
  187POPC  H12Y21601   4.755   1.219   3.783  0.1955  2.4779  1.7502
  187POPC  C31321602   4.564   1.176   3.887  0.0367 -0.2412  0.0331
  187POPC  H13X21603   4.564   1.066   3.872 -2.6310 -0.5347  1.5281
  187POPC  H13Y21604   4.458   1.208   3.890 -0.3167 -1.3797  3.2304
  187POPC  C31421605   4.605   1.210   4.029  1.1178  0.7907 -0.1526
  187POPC  H14X21606   4.591   1.319   4.041  1.4762  0.9179 -0.8479
  187POPC  H14Y21607   4.711   1.184   4.050  0.2506 -0.6296  3.3000
  187POPC  C31521608   4.511   1.152   4.140  0.5950  0.2367  0.2103
  187POPC  H15X21609   4.493   1.044   4.122 -2.4092  0.5631  0.7691
  187POPC  H15Y21610   4.416   1.208   4.133  1.0638  0.9302 -0.8161
  187POPC  C31621611   4.567   1.177   4.277  0.2302 -0.4435 -0.5729
  187POPC  H16X21612   4.675   1.153   4.283  0.8363  2.1677  0.1532
  187POPC  H16Y21613   4.504   1.135   4.359 -2.4238  2.3926 -0.9459
  187POPC  H16Z21614   4.556   1.283   4.308 -2.5272 -0.9958  0.6847
  188POPC     N21615   5.951   3.489   1.810  0.4395  0.1243  0.5220
  188POPC   C1221616   6.064   3.482   1.910  0.1646  0.8010 -0.0590
  188POPC  H12A21617   6.105   3.381   1.914  0.5415  0.9190 -0.7017
  188POPC  H12B21618   6.018   3.507   2.004  0.8202  0.5585  0.3390
  188POPC   C1321619   6.003   3.431   1.683  0.0196 -0.7038 -0.0294
  188POPC  H13A21620   6.104   3.461   1.659 -0.6034 -0.0456 -2.0661
  188POPC  H13B21621   6.005   3.323   1.692 -0.9122 -0.6738  0.5707
  188POPC  H13C21622   5.937   3.456   1.601  1.2850  2.1232 -0.2850
  188POPC   C1421623   5.838   3.399   1.846 -0.1817 -0.7753 -0.4119
  188POPC  H14A21624   5.807   3.414   1.948  1.7596  2.1750 -0.1428
  188POPC  H14B21625   5.756   3.399   1.776 -0.6744  0.6935  0.1326
  188POPC  H14C21626   5.867   3.295   1.854 -0.0718 -0.6032  2.2270
  188POPC   C1521627   5.893   3.624   1.796  0.2134 -0.5375  0.3842
  188POPC  H15A21628   5.791   3.626   1.759  0.3753 -1.3383 -0.1263
  188POPC  H15B21629   5.951   3.673   1.718  1.4869 -1.3450  0.7987
  188POPC  H15C21630   5.896   3.686   1.884 -1.2175  0.7930 -0.4329
  188POPC   C1121631   6.190   3.571   1.905  0.0574  0.1420  0.0860
  188POPC  H11A21632   6.241   3.566   1.806 -0.0325 -2.0408  0.1147
  188POPC  H11B21633   6.256   3.535   1.987 -1.1808 -0.6138  0.7716
  188POPC     P21634   6.118   3.761   2.054  0.2058  0.0351 -0.1824
  188POPC   O1321635   6.039   3.661   2.132 -0.0212 -0.0292  0.3283
  188POPC   O1421636   6.061   3.892   2.039  0.2299 -0.0687 -0.2902
  188POPC   O1221637   6.147   3.708   1.913 -0.2548  0.8677 -0.4422
  188POPC   O1121638   6.261   3.789   2.117  0.3655 -0.2362 -0.2348
  188POPC    C121639   6.286   3.727   2.244 -0.5548  0.3932 -0.3870
  188POPC    HA21640   6.396   3.726   2.258 -0.2970 -0.8169 -2.0848
  188POPC    HB21641   6.263   3.618   2.242 -0.1009  0.2637  0.9289
  188POPC    C221642   6.217   3.789   2.367 -0.5111 -0.4708  0.7412
  188POPC    HS21643   6.123   3.830   2.323  1.5244  2.0195 -1.6498
  188POPC   O2121644   6.314   3.886   2.423  0.6181 -0.1305  0.5662
  188POPC   C2121645   6.255   3.997   2.464  0.0034  0.2067 -0.0646
  188POPC   O2221646   6.139   4.029   2.445  0.4262  0.7173 -0.4573
  188POPC   C2221647   6.353   4.080   2.560 -0.1512 -0.2220  0.7053
  188POPC   H2R21648   6.289   4.166   2.587 -0.2372 -0.9292  2.9215
  188POPC   H2S21649   6.427   4.125   2.490 -0.2679  0.2803  0.8995
  188POPC    C321650   6.181   3.688   2.477  0.1080  0.2644  0.6135
  188POPC    HX21651   6.268   3.630   2.514 -2.1463 -3.6892  0.3489
  188POPC    HY21652   6.118   3.609   2.432  2.7005 -1.5338 -0.0986
  188POPC   O3121653   6.118   3.745   2.587 -0.5406 -0.6526 -0.0957
  188POPC   C3121654   5.990   3.760   2.581  0.4450  0.3433  0.4159
  188POPC   O3221655   5.911   3.697   2.514  0.0649  0.1620 -0.0560
  188POPC   C3221656   5.946   3.874   2.679  0.3364 -0.5226  0.0241
  188POPC   H2X21657   5.838   3.893   2.665  0.1478 -1.7488 -0.2962
  188POPC   H2Y21658   6.004   3.964   2.646  1.7797 -0.5371  2.3019
  188POPC   C2321659   6.414   4.018   2.686 -0.3089  0.1405  0.4206
  188POPC   H3R21660   6.509   4.072   2.707 -0.4182  1.2266 -1.6863
  188POPC   H3S21661   6.449   3.915   2.662 -2.0647 -0.5485  0.7316
  188POPC   C2421662   6.305   4.020   2.796 -0.1527  0.0908  0.2282
  188POPC   H4R21663   6.209   3.972   2.767 -0.0517 -0.8834  1.4450
  188POPC   H4S21664   6.284   4.129   2.787  0.8671  0.1636 -2.0000
  188POPC   C2521665   6.347   3.979   2.934 -0.4067  0.1241 -0.1636
  188POPC   H5R21666   6.369   3.870   2.925 -0.3140  0.2873 -2.7792
  188POPC   H5S21667   6.265   4.002   3.005 -0.3026 -0.0436  0.0146
  188POPC   C2621668   6.479   4.043   2.982  0.1110  0.4364 -0.8061
  188POPC   H6R21669   6.462   4.152   2.996  0.0271  0.5897 -2.0262
  188POPC   H6S21670   6.554   4.039   2.901  0.4667  2.2362 -0.6106
  188POPC   C2721671   6.548   3.981   3.110 -0.3336  0.1371 -0.5789
  188POPC   H7R21672   6.641   4.030   3.147 -0.3943 -2.0523  3.0312
  188POPC   H7S21673   6.571   3.883   3.062  0.3897 -0.6759  1.3158
  188POPC   C2821674   6.452   3.938   3.218  0.4236  0.3121  0.0053
  188POPC   H8R21675   6.364   3.880   3.181  1.1339 -1.4156  0.8969
  188POPC   H8S21676   6.427   4.028   3.277  1.0513 -1.3817  3.0774
  188POPC   C2921677   6.530   3.841   3.310 -0.1644  0.1995  0.1083
  188POPC   H9121678   6.543   3.738   3.273 -0.3553 -0.0471  0.7214
  188POPC  C21021679   6.568   3.872   3.432  0.1769 -1.0208 -0.3292
  188POPC  H10121680   6.614   3.795   3.495  1.7470 -0.5273 -0.8413
  188POPC  C21121681   6.560   4.005   3.507 -0.0448  0.4615  0.5483
  188POPC  H11R21682   6.523   4.094   3.451 -0.5341 -0.4601 -0.6367
  188POPC  H11S21683   6.663   4.041   3.523 -0.4368  1.5353  0.7295
  188POPC  C21221684   6.482   3.998   3.644  0.3476  0.0208 -0.4107
  188POPC  H12R21685   6.396   3.931   3.623 -1.5894  2.7702 -1.7633
  188POPC  H12S21686   6.438   4.096   3.672  0.7558  0.0554  0.1098
  188POPC  C21321687   6.566   3.945   3.759  0.2892 -0.0742  0.1261
  188POPC  H13R21688   6.661   4.004   3.754 -1.1483  2.4807  0.8684
  188POPC  H13S21689   6.594   3.841   3.734 -1.0972 -0.3738 -0.2464
  188POPC  C21421690   6.495   3.937   3.898 -0.6666  0.6904  0.4806
  188POPC  H14R21691   6.403   3.877   3.884  1.3928 -2.5356 -0.2836
  188POPC  H14S21692   6.461   4.039   3.925 -0.2076  0.7699  0.7680
  188POPC  C21521693   6.573   3.869   4.016  0.4074  0.6077  0.6440
  188POPC  H15R21694   6.661   3.925   4.052 -1.1819  1.9041  2.7029
  188POPC  H15S21695   6.612   3.773   3.974  2.4949  1.2686  0.9763
  188POPC  C21621696   6.483   3.841   4.135 -0.3951  0.0050  0.2312
  188POPC  H16R21697   6.388   3.804   4.091  1.2306 -0.4262 -3.2636
  188POPC  H16S21698   6.459   3.940   4.178 -0.1424  0.6059 -0.9652
  188POPC  C21721699   6.556   3.749   4.236  0.9081  0.6802  0.5203
  188POPC  H17R21700   6.646   3.803   4.271  1.7494 -2.2986  3.4696
  188POPC  H17S21701   6.584   3.660   4.174 -1.7683 -1.1928  1.8046
  188POPC  C21821702   6.467   3.716   4.352 -0.9125  0.2444  0.3063
  188POPC  H18R21703   6.439   3.808   4.408 -1.3229 -0.5902  1.5110
  188POPC  H18S21704   6.514   3.645   4.424 -0.5374  0.2283  0.0478
  188POPC  H18T21705   6.377   3.662   4.315  0.5239  0.0857 -3.3923
  188POPC   C3321706   5.965   3.859   2.836  0.3848  0.7114  0.6427
  188POPC   H3X21707   6.068   3.820   2.851 -0.0584 -0.3216  1.0941
  188POPC   H3Y21708   5.885   3.791   2.870 -0.2047  1.3394  0.5325
  188POPC   C3421709   5.960   3.990   2.917 -0.9088  0.4403  0.6561
  188POPC   H4X21710   5.863   4.037   2.891 -1.3551 -1.1166 -0.6562
  188POPC   H4Y21711   6.037   4.065   2.889 -1.0788  0.9857  1.6124
  188POPC   C3521712   5.959   3.965   3.070  0.1023  0.3335 -0.4944
  188POPC   H5X21713   6.042   3.896   3.094  0.2629  1.2102  1.6495
  188POPC   H5Y21714   5.858   3.926   3.096  0.4740 -1.1351 -1.0988
  188POPC   C3621715   5.987   4.084   3.157  0.0287 -0.4255  0.6357
  188POPC   H6X21716   5.902   4.154   3.139  0.2137 -0.5165 -0.6616
  188POPC   H6Y21717   6.082   4.137   3.134 -0.4901  0.3799  0.2987
  188POPC   C3721718   6.006   4.038   3.302  0.7690 -0.9265  0.3964
  188POPC   H7X21719   6.085   3.961   3.300  0.4200 -1.3388  1.7803
  188POPC   H7Y21720   5.906   3.994   3.324  0.0585  0.5055  0.1748
  188POPC   C3821721   6.044   4.141   3.404 -0.3314  0.4437  0.5114
  188POPC   H8X21722   5.984   4.234   3.396  1.4352  1.7760  1.9751
  188POPC   H8Y21723   6.143   4.181   3.372 -0.1691  0.0190  0.4788
  188POPC   C3921724   6.079   4.088   3.544  0.0948 -0.1092  0.6301
  188POPC   H9X21725   6.137   4.152   3.613  0.0124  1.7503 -0.9330
  188POPC   H9Y21726   6.142   3.997   3.533 -0.1901 -0.4549  1.7052
  188POPC  C31021727   5.963   4.033   3.614  0.2894 -0.2568 -0.0404
  188POPC  H10X21728   5.907   3.958   3.554 -0.9858  0.2233  0.4879
  188POPC  H10Y21729   5.898   4.122   3.630  0.6682  0.1373 -0.6820
  188POPC  C31121730   5.976   3.967   3.752  0.3980  0.0035  0.3558
  188POPC  H11X21731   6.006   3.860   3.754 -0.8034 -0.3546  3.0158
  188POPC  H11Y21732   5.870   3.966   3.787 -0.2653 -0.7549 -1.5298
  188POPC  C31221733   6.056   4.055   3.848 -0.1088 -0.2424  0.2723
  188POPC  H12X21734   6.019   4.159   3.840  0.1830 -0.0381  1.3668
  188POPC  H12Y21735   6.164   4.046   3.824 -0.1366 -0.9186  0.3702
  188POPC  C31321736   6.051   3.995   3.990 -0.5574 -0.2464  0.2697
  188POPC  H13X21737   6.128   4.052   4.046  0.9303  0.3485 -2.2129
  188POPC  H13Y21738   6.084   3.889   3.983  0.9673  0.2633 -0.6542
  188POPC  C31421739   5.913   4.008   4.053 -0.1351 -0.0373  0.5243
  188POPC  H14X21740   5.844   3.934   4.008 -1.1483 -0.9688  3.3510
  188POPC  H14Y21741   5.871   4.110   4.041 -0.5129 -0.3334 -0.8460
  188POPC  C31521742   5.916   3.976   4.200 -0.5113 -0.1177 -0.2489
  188POPC  H15X21743   5.968   3.879   4.220 -0.1186  0.3569  1.1863
  188POPC  H15Y21744   5.808   3.966   4.225 -0.1311  1.3378  2.3114
  188POPC  C31621745   5.990   4.076   4.282  0.5636  0.0092 -0.1462
  188POPC  H16X21746   5.999   4.034   4.384 -1.0342 -0.8928 -0.3427
  188POPC  H16Y21747   5.942   4.176   4.288  1.1210  0.4190 -1.8192
  188POPC  H16Z21748   6.085   4.108   4.233  0.0124 -0.6866 -1.7451
  189SAPI   C1221749   0.582   1.521   6.496 -0.3181 -0.3585  0.1956
  189SAPI    H221750   0.675   1.523   6.435 -1.0781 -0.5674 -1.0147
  189SAPI    O221751   0.505   1.405   6.462 -0.5563  0.2570 -0.0481
  189SAPI   HO221752   0.521   1.374   6.372 -0.6453 -3.6734  1.1237
  189SAPI   C1321753   0.640   1.499   6.644  0.5642  0.2084  0.6227
  189SAPI    H321754   0.724   1.571   6.656  0.2362  1.2296 -2.3056
  189SAPI    O321755   0.696   1.367   6.664  0.5262  0.3411  0.0711
  189SAPI   HO321756   0.792   1.364   6.670  0.5799 -2.7655 -0.6458
  189SAPI   C1421757   0.530   1.527   6.751  0.1435 -0.8166 -0.0183
  189SAPI    H421758   0.474   1.431   6.754  0.7649 -1.3599 -2.8889
  189SAPI    O421759   0.584   1.545   6.879  0.0877 -0.1925 -0.2984
  189SAPI   HO421760   0.551   1.477   6.938  0.4337 -0.8970 -0.9027
  189SAPI   C1521761   0.423   1.633   6.732  0.1225 -0.2807 -0.3167
  189SAPI    H521762   0.468   1.732   6.753  1.1187 -0.6215 -0.7660
  189SAPI    O521763   0.312   1.616   6.824  0.0106 -0.6220 -0.8239
  189SAPI   HO521764   0.347   1.638   6.911  1.9525 -1.7137 -1.2608
  189SAPI   C1621765   0.386   1.661   6.586 -0.6105  0.0204  0.6665
  189SAPI    H621766   0.310   1.585   6.559  0.3682 -0.4208 -0.9721
  189SAPI    O621767   0.325   1.786   6.572 -0.0167 -0.0647  0.2381
  189SAPI   HO621768   0.355   1.828   6.491  0.7980 -2.3832 -0.7449
  189SAPI   C1121769   0.497   1.645   6.487  0.2924  0.1614  0.2439
  189SAPI    H121770   0.568   1.731   6.498  0.2653  0.0933  1.0073
  189SAPI     P21771   0.432   1.754   6.250  0.0746  0.0687 -0.1268
  189SAPI   O1321772   0.403   1.879   6.324 -0.1040 -0.1025  0.2118
  189SAPI   O1421773   0.321   1.707   6.157 -0.1998  0.0749  0.3123
  189SAPI   O1221774   0.443   1.632   6.352 -0.3165  0.1625 -0.3427
  189SAPI   O1121775   0.569   1.766   6.170  0.0960  0.0415  0.1285
  189SAPI    C121776   0.612   1.642   6.111 -0.8794  0.2853 -0.5104
  189SAPI    HA21777   0.619   1.555   6.179  0.5735  0.2844 -0.6279
  189SAPI    HB21778   0.549   1.616   6.023 -0.2034 -1.2043 -0.5975
  189SAPI    C221779   0.755   1.653   6.038  0.3961 -0.9386  0.0944
  189SAPI    HS21780   0.816   1.658   6.131  0.4404 -0.1606  0.0336
  189SAPI   O2121781   0.762   1.781   5.965  0.0332  0.4506  0.4369
  189SAPI   C2121782   0.889   1.805   5.932 -0.5874  0.0620  0.2209
  189SAPI   O2221783   0.989   1.748   5.973 -0.0544 -0.1914 -0.2584
  189SAPI   C2221784   0.882   1.913   5.830  0.0488  0.4868 -0.6478
  189SAPI   H2R21785   0.786   1.908   5.775 -0.0566  0.8663 -0.5062
  189SAPI   H2S21786   0.876   2.010   5.884 -1.6327  1.5811 -2.6605
  189SAPI    C321787   0.784   1.516   5.964  0.3367  0.2193  0.6579
  189SAPI    HX21788   0.760   1.442   6.043 -1.3827 -0.5068 -0.4737
  189SAPI    HY21789   0.890   1.504   5.932 -0.0739  0.7038 -1.0310
  189SAPI   O3121790   0.687   1.509   5.854 -0.2131  1.0399  0.1504
  189SAPI   C3121791   0.729   1.539   5.733  0.2348 -0.6442 -0.3128
  189SAPI   O3221792   0.848   1.554   5.703  0.1605 -0.1990 -0.2708
  189SAPI   C3221793   0.615   1.543   5.637  0.0019  0.1461 -0.1556
  189SAPI   H2X21794   0.567   1.639   5.666  1.3781  0.3493  1.6302
  189SAPI   H2Y21795   0.544   1.458   5.647 -0.8255  0.9241  0.6806
  189SAPI   C2321796   0.988   1.927   5.721 -0.4233  0.0965 -0.3576
  189SAPI   H3R21797   0.997   1.830   5.668 -0.6787 -0.8593  1.2829
  189SAPI   H3S21798   1.082   1.927   5.782 -0.4076  1.2056 -0.3524
  189SAPI   C2421799   0.970   2.056   5.637 -0.7420  0.9331  0.4473
  189SAPI   H4R21800   0.969   2.138   5.712  0.3853  0.6100  0.8448
  189SAPI   H4S21801   0.867   2.048   5.596 -0.1167 -0.8753 -0.8834
  189SAPI   C2521802   1.065   2.082   5.524  0.1671  0.2851 -0.1324
  189SAPI   H5R21803   1.170   2.052   5.542 -0.0193  0.2536  0.9617
  189SAPI   C2621804   1.036   2.151   5.410  0.2933 -0.1172 -0.2131
  189SAPI   H6R21805   1.107   2.160   5.327  1.3492 -0.5079  0.6322
  189SAPI   C2721806   0.896   2.213   5.380 -0.0247  0.2869 -0.1594
  189SAPI   H7R21807   0.828   2.211   5.468 -1.1963  2.2309 -0.9677
  189SAPI   H7S21808   0.841   2.142   5.315 -0.4429  1.2103 -0.8395
  189SAPI   C2821809   0.900   2.354   5.337  0.0274  0.4228 -0.8052
  189SAPI   H8R21810   0.995   2.406   5.356  1.6896 -1.4641 -3.4058
  189SAPI   C2921811   0.795   2.427   5.288 -0.1917 -0.0108  0.0548
  189SAPI   H9R21812   0.803   2.535   5.268  1.3284 -0.5711 -2.8548
  189SAPI  C21021813   0.659   2.370   5.274  0.4815  0.5457  0.0447
  189SAPI  H10R21814   0.583   2.424   5.335 -0.6798 -0.9302 -0.0553
  189SAPI  H10S21815   0.648   2.265   5.306  1.8308 -0.0916 -1.4239
  189SAPI  C21121816   0.622   2.380   5.127  0.0193 -0.3340 -0.2290
  189SAPI  H11R21817   0.612   2.486   5.098  2.3993  0.4323  1.4659
  189SAPI  C21221818   0.614   2.292   5.027  0.2793 -0.2717  0.1007
  189SAPI  H12R21819   0.574   2.323   4.929  1.8722 -1.0612 -0.8488
  189SAPI  C21321820   0.611   2.140   5.039 -0.4719 -0.6777 -0.4696
  189SAPI  H13R21821   0.615   2.109   5.146  0.6085 -2.0760 -0.8814
  189SAPI  H13S21822   0.706   2.105   4.994 -1.1249  1.1984 -3.6275
  189SAPI  C21421823   0.506   2.068   4.963  0.6258  0.1076 -0.4325
  189SAPI  H14R21824   0.415   2.030   5.013  1.4848  1.7020  2.5505
  189SAPI  C21521825   0.508   2.027   4.838 -0.9697  0.2259  0.0678
  189SAPI  H15R21826   0.433   1.954   4.803 -0.3388 -0.6314  0.4632
  189SAPI  C21621827   0.623   2.051   4.745  0.6434  0.5490 -0.4164
  189SAPI  H16R21828   0.716   2.019   4.797 -0.5872 -3.0154 -0.1622
  189SAPI  H16S21829   0.643   2.151   4.700  1.2331  1.0718  0.9511
  189SAPI  C21721830   0.628   1.945   4.628  1.2897 -0.7500 -0.2320
  189SAPI  H17R21831   0.607   1.845   4.671 -1.6190 -0.2878 -0.3897
  189SAPI  H17S21832   0.729   1.954   4.583  2.0416 -1.0744  1.3175
  189SAPI  C21821833   0.512   1.968   4.538  0.6162 -0.1800 -0.3396
  189SAPI  H18R21834   0.509   2.079   4.528  1.4329  0.0532  1.5624
  189SAPI  H18S21835   0.411   1.945   4.578  0.6597  0.7366  0.3418
  189SAPI  C21921836   0.527   1.914   4.396  0.6690 -0.7665  1.0587
  189SAPI  H19R21837   0.635   1.923   4.369  0.1879  0.0442 -0.7177
  189SAPI  H19S21838   0.461   1.968   4.325  2.0434 -0.6532 -0.1995
  189SAPI  C22021839   0.484   1.767   4.384  0.4078 -0.2165  0.0313
  189SAPI  H20R21840   0.533   1.712   4.301  0.8669 -0.1758  0.2731
  189SAPI  H20S21841   0.375   1.756   4.366  0.3319 -1.3876  1.0235
  189SAPI  H20T21842   0.511   1.712   4.477 -0.9987 -0.4854  0.2977
  189SAPI   C3321843   0.660   1.562   5.490 -0.1219 -0.1132  0.0921
  189SAPI   H3X21844   0.570   1.543   5.427 -0.8570 -0.1691  1.1358
  189SAPI   H3Y21845   0.739   1.488   5.463  0.0757 -0.3241  1.2060
  189SAPI   C3421846   0.698   1.702   5.441 -0.5748 -0.1933  0.2510
  189SAPI   H4X21847   0.784   1.731   5.506 -1.1889 -1.3329  1.6156
  189SAPI   H4Y21848   0.622   1.783   5.445  2.7989  3.4106 -1.4830
  189SAPI   C3521849   0.749   1.702   5.296 -0.4728  0.0514 -0.0207
  189SAPI   H5X21850   0.670   1.681   5.221 -0.7001  1.0539 -0.0809
  189SAPI   H5Y21851   0.816   1.614   5.285 -0.7733 -0.3073  0.9573
  189SAPI   C3621852   0.828   1.828   5.260  0.2146  0.2100  0.4374
  189SAPI   H6X21853   0.901   1.836   5.343  0.0763 -1.7930  0.8053
  189SAPI   H6Y21854   0.763   1.918   5.271 -0.8656 -0.2183 -1.8295
  189SAPI   C3721855   0.902   1.826   5.134 -0.4496  0.1516  0.1009
  189SAPI   H7X21856   0.836   1.841   5.046 -1.2014  0.8776  0.7642
  189SAPI   H7Y21857   0.941   1.723   5.123  1.5826  0.8777  0.1917
  189SAPI   C3821858   1.017   1.927   5.142 -0.5048 -0.0154  0.0981
  189SAPI   H8X21859   1.090   1.889   5.217 -0.0352  1.4569  0.4072
  189SAPI   H8Y21860   0.973   2.019   5.185  0.1423  0.3119  0.0585
  189SAPI   C3921861   1.090   1.962   5.013 -0.5137 -0.6086 -0.8015
  189SAPI   H9X21862   1.135   1.867   4.976 -3.6215 -1.6634 -2.2304
  189SAPI   H9Y21863   1.165   2.039   5.040 -1.5135 -0.0194  0.4104
  189SAPI  C31021864   1.005   2.014   4.898  0.1153  0.0497 -0.6170
  189SAPI  H10X21865   0.943   2.095   4.942  1.1501 -0.5854  2.2601
  189SAPI  H10Y21866   0.948   1.937   4.843 -1.1309  1.1042 -0.8433
  189SAPI  C31121867   1.095   2.067   4.785  0.8629  0.4571 -0.0133
  189SAPI  H11X21868   1.142   1.979   4.736  0.0297 -0.6476  1.0955
  189SAPI  H11Y21869   1.177   2.131   4.824  2.3554  0.2426 -2.5651
  189SAPI  C31221870   1.021   2.158   4.684 -0.3652  0.6982 -0.0941
  189SAPI  H12X21871   0.934   2.100   4.646  0.8102 -0.6633 -0.8165
  189SAPI  H12Y21872   1.083   2.167   4.592  2.5264 -2.4578  1.3087
  189SAPI  C31321873   0.973   2.292   4.737 -0.5143  0.2199  0.0792
  189SAPI  H13X21874   1.063   2.352   4.764 -0.7073 -0.7217  3.2289
  189SAPI  H13Y21875   0.919   2.281   4.834 -1.2441  2.1776 -0.0695
  189SAPI  C31421876   0.888   2.373   4.642  0.3039 -0.1451 -0.4132
  189SAPI  H14X21877   0.833   2.446   4.705  1.2340  0.1018  0.1313
  189SAPI  H14Y21878   0.807   2.303   4.612  1.4175 -1.4481 -0.4602
  189SAPI  C31521879   0.969   2.446   4.529 -0.0038 -0.5094 -0.1305
  189SAPI  H15X21880   0.886   2.500   4.478  1.7265  0.3799 -2.1523
  189SAPI  H15Y21881   1.033   2.377   4.472  2.1804 -0.1753  1.7793
  189SAPI  C31621882   1.067   2.560   4.577  0.3363  0.1954  0.3286
  189SAPI  H16X21883   1.149   2.523   4.642  2.3951  3.1329 -0.3882
  189SAPI  H16Y21884   1.011   2.637   4.635 -0.3216 -0.7528  0.9716
  189SAPI  C31721885   1.116   2.629   4.447  0.4904  0.0175  0.3490
  189SAPI  H17X21886   1.181   2.566   4.383 -1.2568  0.4494 -2.0113
  189SAPI  H17Y21887   1.177   2.717   4.476  2.4936 -1.0811 -0.3592
  189SAPI  C31821888   1.002   2.692   4.355 -0.0618  0.3891 -0.1468
  189SAPI  H18X21889   0.923   2.736   4.420 -0.2380 -0.7244  0.4072
  189SAPI  H18Y21890   0.960   2.611   4.292 -1.4779  2.1179 -1.5570
  189SAPI  H18Z21891   1.045   2.770   4.287  1.2752  0.4237  0.7072
  190SAPI   C1221892   1.117   0.927   6.963  0.0417 -0.0850 -0.0157
  190SAPI    H221893   1.194   0.883   6.896 -0.7311 -2.2631  0.4623
  190SAPI    O221894   1.098   0.829   7.066 -0.0890  0.0485  0.0361
  190SAPI   HO221895   1.183   0.823   7.110  0.4484 -0.0260 -0.9957
  190SAPI   C1321896   1.157   1.063   7.005  0.1106  0.0265 -0.2552
  190SAPI    H321897   1.165   1.123   6.912 -1.8868 -1.2958 -1.3466
  190SAPI    O321898   1.284   1.054   7.072 -0.2738  0.1134  0.5278
  190SAPI   HO321899   1.355   1.091   7.019 -0.7229  3.0422  1.7846
  190SAPI   C1421900   1.054   1.129   7.095  0.3868 -0.3442  0.1814
  190SAPI    H421901   1.067   1.071   7.189  0.9498 -1.5444 -0.6135
  190SAPI    O421902   1.089   1.267   7.123 -0.0510 -0.0922  0.5134
  190SAPI   HO421903   1.071   1.309   7.038 -0.9723 -0.5256  0.4780
  190SAPI   C1521904   0.905   1.106   7.057 -0.6973  0.0445  0.4338
  190SAPI    H521905   0.871   1.193   6.996  2.4769  0.7720 -0.4458
  190SAPI    O521906   0.827   1.122   7.177  0.0515  0.2500 -0.0016
  190SAPI   HO521907   0.801   1.214   7.184  0.9677  0.4471  1.1895
  190SAPI   C1621908   0.874   0.986   6.964  0.2073  0.3153 -0.5197
  190SAPI    H621909   0.845   0.905   7.035  1.0961  0.7345  0.3438
  190SAPI    O621910   0.760   1.014   6.881  0.5034 -0.3451 -0.8234
  190SAPI   HO621911   0.769   0.962   6.801  0.4903 -0.1023 -0.9853
  190SAPI   C1121912   0.989   0.954   6.878 -0.0263  1.2827  0.0440
  190SAPI    H121913   1.014   1.033   6.805 -1.9151  0.0513 -2.0830
  190SAPI     P21914   1.001   0.794   6.659 -0.2654 -0.4761  0.4235
  190SAPI   O1321915   0.944   0.907   6.580  0.2296  0.0645  0.0247
  190SAPI   O1421916   0.965   0.654   6.619 -0.1369 -0.1047 -0.3397
  190SAPI   O1221917   0.957   0.826   6.816  0.0553 -0.2713  0.0795
  190SAPI   O1121918   1.154   0.798   6.671 -0.2920 -0.1460 -0.2141
  190SAPI    C121919   1.237   0.882   6.597 -0.2275 -0.8270  0.1912
  190SAPI    HA21920   1.185   0.980   6.589 -0.4649 -0.8773  0.9974
  190SAPI    HB21921   1.333   0.906   6.648  0.9757 -0.8450 -1.9737
  190SAPI    C221922   1.281   0.828   6.456  0.1815 -0.3107  0.0047
  190SAPI    HS21923   1.359   0.895   6.413 -1.4905  2.2156  0.6758
  190SAPI   O2121924   1.167   0.819   6.365 -0.3309 -0.1708  0.4397
  190SAPI   C2121925   1.125   0.937   6.308 -1.3366 -0.4960 -0.2665
  190SAPI   O2221926   1.185   1.046   6.323  0.5702 -0.0220  0.6373
  190SAPI   C2221927   1.012   0.907   6.211 -0.6607 -0.0802  0.8184
  190SAPI   H2R21928   1.029   0.813   6.155  0.6184 -0.3125  1.5528
  190SAPI   H2S21929   0.922   0.881   6.271 -2.9228  0.5706 -2.0436
  190SAPI    C321930   1.358   0.690   6.474  0.5611 -0.2525  0.1476
  190SAPI    HX21931   1.307   0.618   6.542  1.0793  1.4509  2.4975
  190SAPI    HY21932   1.452   0.716   6.528  1.7527  0.9366 -2.3386
  190SAPI   O3121933   1.376   0.631   6.350  0.1283 -0.1053  0.4337
  190SAPI   C3121934   1.461   0.693   6.266 -0.9476 -0.2139 -0.3826
  190SAPI   O3221935   1.541   0.780   6.307  0.2576  0.2065  0.4031
  190SAPI   C3221936   1.455   0.642   6.126  0.3111  0.1061 -0.2527
  190SAPI   H2X21937   1.371   0.697   6.076  1.0523  0.2779 -1.3545
  190SAPI   H2Y21938   1.416   0.538   6.131  0.0849  0.2040  0.0325
  190SAPI   C2321939   0.966   1.030   6.133 -0.3774 -0.1632 -0.4451
  190SAPI   H3R21940   0.962   1.117   6.202  0.5348 -0.8963  0.5595
  190SAPI   H3S21941   0.864   1.024   6.088 -0.1112 -0.8260 -0.9775
  190SAPI   C2421942   1.060   1.055   6.010  0.0553  0.4788 -0.9829
  190SAPI   H4R21943   1.043   0.965   5.947 -0.0049 -0.6394  0.5714
  190SAPI   H4S21944   1.164   1.060   6.050 -0.4967  3.0327  0.3213
  190SAPI   C2521945   1.043   1.193   5.957  0.2665  0.0156 -0.9483
  190SAPI   H5R21946   1.077   1.268   6.029  0.8890 -1.3580  0.2580
  190SAPI   C2621947   1.000   1.230   5.836  0.0574  0.3458  0.0660
  190SAPI   H6R21948   0.975   1.335   5.819  0.1630  0.4863  0.7614
  190SAPI   C2721949   0.971   1.130   5.732 -0.1550 -0.4564  0.5514
  190SAPI   H7R21950   0.881   1.075   5.766 -0.5973  0.1490  0.3765
  190SAPI   H7S21951   1.059   1.061   5.731  0.2992  0.1161  0.9351
  190SAPI   C2821952   0.962   1.189   5.595  0.6776 -0.6474  0.3828
  190SAPI   H8R21953   1.053   1.236   5.555 -0.4106  1.9305  0.6794
  190SAPI   C2921954   0.858   1.181   5.509  0.1097  0.7626 -0.5068
  190SAPI   H9R21955   0.868   1.237   5.415  2.4637  0.9808 -0.1923
  190SAPI  C21021956   0.724   1.104   5.519  0.4823 -0.4018  0.3072
  190SAPI  H10R21957   0.648   1.183   5.539  0.0975 -0.9962  1.2669
  190SAPI  H10S21958   0.725   1.041   5.610 -0.3334 -1.3155 -0.2922
  190SAPI  C21121959   0.675   1.016   5.401  0.3215 -0.2925  0.1206
  190SAPI  H11R21960   0.684   0.907   5.409 -0.3127 -0.3869 -0.4698
  190SAPI  C21221961   0.634   1.060   5.280 -0.0057  0.5657  0.9189
  190SAPI  H12R21962   0.597   0.986   5.208  0.8013  1.1644 -0.1469
  190SAPI  C21321963   0.616   1.205   5.231  0.3164  0.3231  0.1030
  190SAPI  H13R21964   0.630   1.270   5.320  0.4737  2.3776 -1.3587
  190SAPI  H13S21965   0.511   1.218   5.198 -0.0665 -0.7882  0.7902
  190SAPI  C21421966   0.718   1.261   5.131  0.3583  0.7430  0.1155
  190SAPI  H14R21967   0.820   1.219   5.134 -0.3844 -1.1712 -0.0509
  190SAPI  C21521968   0.699   1.351   5.032  0.3346  0.0247 -0.5087
  190SAPI  H15R21969   0.776   1.372   4.957 -0.3747 -0.0493 -1.2629
  190SAPI  C21621970   0.564   1.402   4.990 -0.4632 -0.8276  0.0547
  190SAPI  H16R21971   0.581   1.505   4.952  1.7210 -1.0685  0.2489
  190SAPI  H16S21972   0.493   1.408   5.075 -1.4576  1.4659 -0.8278
  190SAPI  C21721973   0.515   1.334   4.867  0.0610 -0.3047  0.6972
  190SAPI  H17R21974   0.417   1.367   4.827 -0.0936 -0.5064  0.9103
  190SAPI  H17S21975   0.503   1.224   4.877  0.4215 -0.5061 -0.7331
  190SAPI  C21821976   0.618   1.352   4.751  0.1888  0.1174  0.3703
  190SAPI  H18R21977   0.703   1.281   4.762  1.8437  2.0766  0.6296
  190SAPI  H18S21978   0.665   1.451   4.739  2.1350 -0.7110  0.7775
  190SAPI  C21921979   0.569   1.302   4.616 -0.4567 -0.1415 -1.0174
  190SAPI  H19R21980   0.463   1.333   4.609 -0.3791 -0.0637 -1.9172
  190SAPI  H19S21981   0.554   1.192   4.619 -2.3260  0.0901 -0.1285
  190SAPI  C22021982   0.647   1.344   4.491 -1.2146 -0.0575 -0.1477
  190SAPI  H20R21983   0.598   1.314   4.397  0.1634  1.7911 -1.5195
  190SAPI  H20S21984   0.744   1.289   4.493 -2.0459 -1.6362 -1.1079
  190SAPI  H20T21985   0.670   1.452   4.495  1.2292 -0.5209  0.3160
  190SAPI   C3321986   1.588   0.663   6.046  0.2369  0.0523 -0.3612
  190SAPI   H3X21987   1.679   0.609   6.081 -0.1825  0.4569  1.4311
  190SAPI   H3Y21988   1.610   0.772   6.056 -3.1529  0.6688  2.2639
  190SAPI   C3421989   1.568   0.619   5.900  1.1008 -0.2241 -0.3060
  190SAPI   H4X21990   1.468   0.658   5.871  0.8229 -0.2772  0.5622
  190SAPI   H4Y21991   1.551   0.510   5.895 -1.6468  0.0938  0.8551
  190SAPI   C3521992   1.684   0.662   5.800 -0.5594  0.2275 -0.4951
  190SAPI   H5X21993   1.769   0.659   5.872 -0.1696 -0.1489 -0.9622
  190SAPI   H5Y21994   1.665   0.764   5.761 -1.0537  1.0162  1.6610
  190SAPI   C3621995   1.716   0.554   5.699  0.1674 -0.0649 -0.1773
  190SAPI   H6X21996   1.723   0.459   5.756 -1.7624  1.4612  2.9141
  190SAPI   H6Y21997   1.814   0.580   5.652 -0.3596 -1.7358 -2.3149
  190SAPI   C3721998   1.615   0.553   5.589  0.0734  0.0188 -0.0514
  190SAPI   H7X21999   1.612   0.656   5.548  3.0945  0.6365  0.9951
  190SAPI   H7Y22000   1.512   0.522   5.617  0.2166 -0.1744  0.2766
  190SAPI   C3822001   1.660   0.453   5.479  0.4124 -0.0743  0.5871
  190SAPI   H8X22002   1.617   0.360   5.522 -0.2999  0.9975  2.2626
  190SAPI   H8Y22003   1.771   0.458   5.474  0.3901 -0.5794 -3.0521
  190SAPI   C3922004   1.606   0.493   5.335  0.9841 -0.0890  0.1197
  190SAPI   H9X22005   1.647   0.595   5.319  0.5798 -0.2193 -2.0732
  190SAPI   H9Y22006   1.496   0.498   5.345  0.9777 -0.2669  0.1353
  190SAPI  C31022007   1.647   0.408   5.212  0.1804  0.3955  1.1555
  190SAPI  H10X22008   1.643   0.299   5.230 -1.4564 -0.4113 -2.8727
  190SAPI  H10Y22009   1.754   0.429   5.192  0.2015 -0.7426 -0.0779
  190SAPI  C31122010   1.574   0.440   5.083  0.2094  0.1147  1.1443
  190SAPI  H11X22011   1.607   0.543   5.059  4.1646 -1.1037  0.6372
  190SAPI  H11Y22012   1.463   0.446   5.084  0.2361  0.8406  0.7713
  190SAPI  C31222013   1.628   0.344   4.985 -0.4344  0.2773  0.0280
  190SAPI  H12X22014   1.636   0.241   5.026  1.1367  0.5181  0.4245
  190SAPI  H12Y22015   1.733   0.372   4.959 -0.4654 -0.0801 -0.4810
  190SAPI  C31322016   1.552   0.328   4.850 -0.1655  0.3142 -0.8484
  190SAPI  H13X22017   1.452   0.287   4.878  1.3834 -3.7558 -0.5876
  190SAPI  H13Y22018   1.600   0.254   4.782  0.1196  0.3780 -0.7166
  190SAPI  C31422019   1.539   0.462   4.774 -0.6798  0.1398  0.0507
  190SAPI  H14X22020   1.490   0.544   4.832 -1.0876  2.2387 -3.0090
  190SAPI  H14Y22021   1.481   0.439   4.682 -1.2228  0.0043  0.4235
  190SAPI  C31522022   1.684   0.507   4.726  1.2725  0.2532  0.1165
  190SAPI  H15X22023   1.746   0.436   4.665  1.5550  2.9329 -2.9931
  190SAPI  H15Y22024   1.735   0.530   4.822 -0.7308  1.0487  1.0395
  190SAPI  C31622025   1.681   0.626   4.635  0.4512  0.6650  0.1760
  190SAPI  H16X22026   1.594   0.684   4.673  0.1427  0.6879 -0.5394
  190SAPI  H16Y22027   1.637   0.596   4.538  0.0540  4.7088 -1.0786
  190SAPI  C31722028   1.815   0.693   4.596  0.5520 -0.3376 -0.3729
  190SAPI  H17X22029   1.888   0.623   4.549  0.6886 -0.2877 -0.2341
  190SAPI  H17Y22030   1.869   0.732   4.684  0.3057  0.2382 -0.4761
  190SAPI  C31822031   1.797   0.810   4.506 -0.0068 -0.3466  0.4601
  190SAPI  H18X22032   1.725   0.889   4.535 -2.6423 -2.3996 -0.0804
  190SAPI  H18Y22033   1.755   0.772   4.410  1.0743  1.5207 -0.8393
  190SAPI  H18Z22034   1.901   0.849   4.496  0.0054  0.1936  2.4103
  191SAPI   C1222035   3.535   4.861   2.580  0.8821 -0.5706 -0.2892
  191SAPI    H222036   3.618   4.792   2.605  0.6718 -0.0608  2.1196
  191SAPI    O222037   3.554   4.903   2.447 -0.1749 -0.0454 -0.4458
  191SAPI   HO222038   3.625   4.849   2.412 -1.3523 -1.9880 -0.0041
  191SAPI   C1322039   3.401   4.799   2.603 -0.1299  0.1071 -0.1986
  191SAPI    H322040   3.418   4.768   2.708  2.1297 -1.1066 -0.8643
  191SAPI    O322041   3.380   4.678   2.537 -0.2790 -0.3821 -0.0731
  191SAPI   HO322042   3.385   4.692   2.442 -1.2253  0.1566 -0.0551
  191SAPI   C1422043   3.277   4.892   2.600  0.0268  0.2454 -0.3616
  191SAPI    H422044   3.262   4.918   2.493  3.1226  1.6251 -0.5542
  191SAPI    O422045   3.158   4.824   2.648  0.5292  0.6490 -0.2687
  191SAPI   HO422046   3.096   4.802   2.577 -1.9862  0.2090  1.9029
  191SAPI   C1522047   3.294   5.032   2.666  0.8216  0.3621 -0.8145
  191SAPI    H522048   3.278   4.998   2.771 -0.1215  0.1294 -1.0250
  191SAPI    O522049   3.190   5.132   2.641  0.5121  0.2389 -0.3139
  191SAPI   HO522050   3.217   5.190   2.570  0.8647 -0.5298 -0.8181
  191SAPI   C1622051   3.435   5.084   2.672  0.6332  0.2600 -0.1536
  191SAPI    H622052   3.450   5.131   2.573 -0.0357 -1.8791 -1.3278
  191SAPI    O622053   3.451   5.182   2.776  0.5323  0.4646 -0.1856
  191SAPI   HO622054   3.511   5.254   2.752  0.3551  1.3147  1.7405
  191SAPI   C1122055   3.544   4.983   2.680  0.0987  0.1461  0.0550
  191SAPI    H122056   3.539   4.942   2.783  1.7920 -1.9332 -0.6161
  191SAPI     P22057   3.802   5.010   2.741 -0.3565  0.0345  0.0171
  191SAPI   O1322058   3.921   5.082   2.682  0.0417 -0.1730  0.0919
  191SAPI   O1422059   3.807   4.868   2.738  0.0212  0.2873 -0.0150
  191SAPI   O1222060   3.663   5.052   2.657 -0.5766 -0.1874 -0.0425
  191SAPI   O1122061   3.783   5.067   2.890 -0.3443  0.2789 -0.1593
  191SAPI    C122062   3.813   5.197   2.923 -0.5900 -0.6011 -0.5129
  191SAPI    HA22063   3.922   5.220   2.925 -1.1751  2.8220 -1.9881
  191SAPI    HB22064   3.769   5.263   2.845  0.2422 -0.2429 -0.6835
  191SAPI    C222065   3.755   5.241   3.062 -0.2835  0.5321 -0.2095
  191SAPI    HS22066   3.767   5.351   3.071 -3.1464  0.9707 -0.5743
  191SAPI   O2122067   3.811   5.163   3.168 -0.0386 -0.8640 -0.0628
  191SAPI   C2122068   3.847   5.239   3.272 -0.3030  0.3739  0.3509
  191SAPI   O2222069   3.822   5.355   3.291  0.0768 -0.6446  0.1912
  191SAPI   C2222070   3.913   5.146   3.376  0.4930 -0.3320  0.3898
  191SAPI   H2R22071   3.975   5.070   3.324  2.4006  1.9991 -0.9286
  191SAPI   H2S22072   3.974   5.210   3.443 -1.2515 -1.7936  3.6157
  191SAPI    C322073   3.597   5.228   3.059 -0.1095  0.8100 -0.2568
  191SAPI    HX22074   3.574   5.124   3.028  1.1974  0.2600  0.5258
  191SAPI    HY22075   3.554   5.295   2.981 -0.8489  0.7994  0.1362
  191SAPI   O3122076   3.549   5.257   3.198  0.4030 -0.0411 -0.3342
  191SAPI   C3122077   3.439   5.328   3.222 -0.9202  0.1565 -0.0314
  191SAPI   O3222078   3.355   5.367   3.142 -0.0839 -0.1265  0.1505
  191SAPI   C3222079   3.427   5.341   3.370  0.6945  0.7096  0.1298
  191SAPI   H2X22080   3.491   5.423   3.409 -1.7724  1.1923  3.6545
  191SAPI   H2Y22081   3.449   5.239   3.408  0.8941  1.0133  0.8578
  191SAPI   C2322082   3.802   5.074   3.459  0.1171  0.7759 -0.7211
  191SAPI   H3R22083   3.862   4.989   3.497  2.4480  1.4764 -2.5832
  191SAPI   H3S22084   3.730   5.023   3.392  0.6577 -1.6378  0.4114
  191SAPI   C2422085   3.726   5.166   3.567  0.4288  0.3093 -0.2311
  191SAPI   H4R22086   3.630   5.114   3.589  0.6088 -0.1023 -0.4208
  191SAPI   H4S22087   3.711   5.257   3.505  0.5213 -0.4871 -1.4491
  191SAPI   C2522088   3.802   5.183   3.691 -0.5611 -0.8208  0.3974
  191SAPI   H5R22089   3.910   5.194   3.672 -0.9907  1.1274 -1.2723
  191SAPI   C2622090   3.748   5.198   3.811 -0.4302  0.1683 -0.1481
  191SAPI   H6R22091   3.808   5.220   3.901  0.0259  1.2908 -0.7042
  191SAPI   C2722092   3.602   5.180   3.846  0.1652 -0.2599  0.6693
  191SAPI   H7R22093   3.601   5.124   3.942 -1.8217  1.2441  1.6009
  191SAPI   H7S22094   3.558   5.114   3.767  0.2752 -0.1776  0.5388
  191SAPI   C2822095   3.526   5.309   3.844  0.4462 -0.6671  0.6729
  191SAPI   H8R22096   3.537   5.362   3.748  1.1556 -2.1769 -0.1006
  191SAPI   C2922097   3.475   5.381   3.939 -0.2694  0.2060 -0.3239
  191SAPI   H9R22098   3.418   5.473   3.920 -2.9991 -1.6187 -1.7518
  191SAPI  C21022099   3.477   5.340   4.083 -0.4145 -0.8049  0.0499
  191SAPI  H10R22100   3.507   5.235   4.104  1.8446 -0.2104  0.0226
  191SAPI  H10S22101   3.370   5.350   4.113 -0.6595 -0.5800 -0.8549
  191SAPI  C21122102   3.557   5.434   4.178  0.3878  0.7242  0.5321
  191SAPI  H11R22103   3.643   5.481   4.128  3.3645 -3.1009  1.5669
  191SAPI  C21222104   3.522   5.467   4.303 -0.2730  0.1747 -0.0140
  191SAPI  H12R22105   3.577   5.548   4.354 -0.0598  1.4862 -2.1913
  191SAPI  C21322106   3.408   5.421   4.391 -0.4379 -0.2944 -0.3094
  191SAPI  H13R22107   3.357   5.344   4.330 -0.3786 -1.6685  1.3069
  191SAPI  H13S22108   3.338   5.502   4.421 -0.8679 -1.2451  1.3459
  191SAPI  C21422109   3.457   5.341   4.513  0.3564  0.2505  0.1597
  191SAPI  H14R22110   3.484   5.234   4.501  1.0391  0.5556 -1.1736
  191SAPI  C21522111   3.448   5.385   4.643  0.0614 -0.5314  0.4378
  191SAPI  H15R22112   3.477   5.315   4.722 -1.3113 -0.9495  0.5980
  191SAPI  C21622113   3.390   5.512   4.697  0.4397  0.0598  0.8185
  191SAPI  H16R22114   3.301   5.494   4.761  1.9957 -0.8226  2.8657
  191SAPI  H16S22115   3.356   5.582   4.619  1.4364  0.6096  0.8639
  191SAPI  C21722116   3.490   5.589   4.787  0.0387 -0.1123 -0.4170
  191SAPI  H17R22117   3.443   5.679   4.831 -0.9447 -0.8498  0.0722
  191SAPI  H17S22118   3.576   5.622   4.724 -0.8807  0.8334 -1.2089
  191SAPI  C21822119   3.548   5.513   4.903  0.5769  0.1379 -0.3373
  191SAPI  H18R22120   3.633   5.446   4.878 -0.7780 -1.3478 -1.1346
  191SAPI  H18S22121   3.470   5.452   4.953 -0.5656  0.2461 -1.8874
  191SAPI  C21922122   3.603   5.611   5.008  0.4356 -0.3623 -1.1123
  191SAPI  H19R22123   3.634   5.541   5.089  0.8894 -2.0349 -2.6486
  191SAPI  H19S22124   3.513   5.670   5.032 -0.4374 -1.5003 -1.4910
  191SAPI  C22022125   3.727   5.689   4.974  0.7192 -0.4313 -0.2262
  191SAPI  H20R22126   3.701   5.782   4.920  0.1781 -0.0774  0.6239
  191SAPI  H20S22127   3.796   5.635   4.906  2.2747  1.2735 -0.0576
  191SAPI  H20T22128   3.783   5.727   5.062 -0.3502 -1.2589  0.8518
  191SAPI   C3322129   3.279   5.389   3.404  0.1594  0.3967 -0.0400
  191SAPI   H3X22130   3.219   5.296   3.396 -0.0315  0.6745 -3.0501
  191SAPI   H3Y22131   3.244   5.465   3.331  0.4030  0.8612  0.3253
  191SAPI   C3422132   3.269   5.441   3.547  0.9412  0.2911 -0.1251
  191SAPI   H4X22133   3.337   5.528   3.562 -0.5214  1.2491  1.3472
  191SAPI   H4Y22134   3.323   5.359   3.599 -1.2647 -3.4756 -3.2004
  191SAPI   C3522135   3.130   5.458   3.594  0.4107  0.3425  0.2584
  191SAPI   H5X22136   3.066   5.375   3.557  1.4696  0.5043 -2.1538
  191SAPI   H5Y22137   3.083   5.548   3.549 -3.2906 -0.9027  1.3402
  191SAPI   C3622138   3.130   5.471   3.753  0.4285 -0.2207  0.1097
  191SAPI   H6X22139   3.159   5.577   3.768  0.7283  0.3771 -3.6760
  191SAPI   H6Y22140   3.213   5.401   3.777 -0.2347 -1.1998 -0.3633
  191SAPI   C3722141   3.005   5.428   3.830  0.3309  0.5979  0.4358
  191SAPI   H7X22142   2.970   5.329   3.794 -1.2687  1.2948 -0.0167
  191SAPI   H7Y22143   2.922   5.497   3.805  1.3747  1.6392 -0.2272
  191SAPI   C3822144   3.039   5.419   3.977  0.2323 -0.1735 -0.7015
  191SAPI   H8X22145   3.124   5.352   3.999 -1.9881 -3.1513 -0.5832
  191SAPI   H8Y22146   2.949   5.370   4.019  0.3147 -0.1949 -0.5522
  191SAPI   C3922147   3.057   5.559   4.039 -0.0163 -0.9270  0.2458
  191SAPI   H9X22148   2.967   5.622   4.020  0.6077  0.4266  1.5988
  191SAPI   H9Y22149   3.140   5.607   3.983 -2.1051  1.4579 -1.0293
  191SAPI  C31022150   3.077   5.566   4.196  0.1263 -0.1217  0.5473
  191SAPI  H10X22151   3.159   5.494   4.218  0.9140  0.9308  1.1475
  191SAPI  H10Y22152   2.981   5.532   4.238 -0.9740  0.6097 -1.2356
  191SAPI  C31122153   3.102   5.709   4.234 -0.3738  0.1579  0.2845
  191SAPI  H11X22154   3.029   5.774   4.180 -1.4333 -1.0906  0.1749
  191SAPI  H11Y22155   3.204   5.745   4.209 -0.6307  0.7157  0.0248
  191SAPI  C31222156   3.098   5.723   4.393  0.1779  0.8352  0.7376
  191SAPI  H12X22157   3.162   5.809   4.422 -0.5679  1.4874  0.4913
  191SAPI  H12Y22158   3.138   5.627   4.433  1.4756  0.3479 -1.5537
  191SAPI  C31322159   2.960   5.742   4.469  0.2451 -0.0760 -0.2234
  191SAPI  H13X22160   2.906   5.648   4.447  0.0877 -0.3615  1.2693
  191SAPI  H13Y22161   2.900   5.821   4.421 -0.4778 -0.0939  0.6381
  191SAPI  C31422162   2.965   5.730   4.618 -0.4194 -0.2363 -0.3415
  191SAPI  H14X22163   2.976   5.626   4.654 -1.6277 -0.5070 -0.7144
  191SAPI  H14Y22164   2.866   5.758   4.660  0.6281 -0.9611  2.9280
  191SAPI  C31522165   3.062   5.817   4.694 -0.5176 -0.8045  0.5150
  191SAPI  H15X22166   3.059   5.926   4.670  1.2115 -0.7901  0.2361
  191SAPI  H15Y22167   3.169   5.793   4.672 -0.2028  0.6478  0.3259
  191SAPI  C31622168   3.046   5.808   4.845  0.9963  0.0286  0.3709
  191SAPI  H16X22169   2.937   5.801   4.862  0.3012  0.1902 -3.2065
  191SAPI  H16Y22170   3.090   5.896   4.896  1.9903  0.6659 -1.4715
  191SAPI  C31722171   3.114   5.685   4.897 -0.1378  0.1357 -0.3001
  191SAPI  H17X22172   3.223   5.685   4.879 -0.1290 -1.6073 -0.4411
  191SAPI  H17Y22173   3.068   5.597   4.846  0.6003 -0.2713 -0.2631
  191SAPI  C31822174   3.074   5.673   5.043 -0.0163 -0.3277 -0.2751
  191SAPI  H18X22175   3.074   5.770   5.096  0.9429 -0.1636 -0.5530
  191SAPI  H18Y22176   3.135   5.597   5.098 -1.5476 -0.1296  1.8367
  191SAPI  H18Z22177   2.969   5.639   5.048  0.0234 -0.4999 -0.5666
  192SAPI   C1222178   5.228   4.583   2.159 -0.2877 -0.4166  0.9985
  192SAPI    H222179   5.279   4.653   2.228 -1.3769  0.7246  0.6722
  192SAPI    O222180   5.184   4.465   2.234 -0.9427 -0.6571  0.5806
  192SAPI   HO222181   5.255   4.401   2.241  1.5695  2.0505  2.1741
  192SAPI   C1322182   5.113   4.651   2.099  0.1242  1.3464 -0.5504
  192SAPI    H322183   5.163   4.738   2.050  0.5647  2.1722  1.2906
  192SAPI    O322184   5.026   4.702   2.193  0.2893  0.5771 -0.2180
  192SAPI   HO322185   5.008   4.628   2.252 -1.2367  0.7683 -0.4073
  192SAPI   C1422186   5.037   4.552   2.006  0.6333  0.5008 -0.3695
  192SAPI    H422187   4.973   4.491   2.074 -2.8477  2.9362 -1.1826
  192SAPI    O422188   4.938   4.611   1.926  0.0810  0.2823 -0.9310
  192SAPI   HO422189   4.890   4.675   1.979  2.2115  2.1307 -1.0632
  192SAPI   C1522190   5.118   4.443   1.932 -0.3297  0.0046 -0.4940
  192SAPI    H522191   5.109   4.473   1.826  0.4067 -1.5703 -1.0304
  192SAPI    O522192   5.054   4.314   1.919  0.6558  0.1882 -1.0211
  192SAPI   HO522193   5.046   4.295   1.825 -1.9260  0.8945 -1.0157
  192SAPI   C1622194   5.267   4.432   1.966  1.0796  1.0286 -0.1072
  192SAPI    H622195   5.264   4.346   2.036 -2.8553  2.2892  1.5822
  192SAPI    O622196   5.341   4.399   1.850  0.0766 -0.0325 -0.1977
  192SAPI   HO622197   5.408   4.467   1.845 -1.0312  0.9854 -1.9803
  192SAPI   C1122198   5.323   4.545   2.049 -0.3280  0.5626  0.3016
  192SAPI    H122199   5.337   4.630   1.979 -1.7760 -0.5489 -1.4410
  192SAPI     P22200   5.574   4.613   2.127 -0.0338 -0.3051  0.0656
  192SAPI   O1322201   5.519   4.747   2.121  0.1048  0.5336 -0.4837
  192SAPI   O1422202   5.692   4.588   2.044  0.1549  0.1610  0.0899
  192SAPI   O1222203   5.456   4.502   2.096  0.1758 -0.5302 -0.1890
  192SAPI   O1122204   5.617   4.587   2.274  0.1324 -0.0409 -0.5327
  192SAPI    C122205   5.528   4.604   2.387 -1.0053  0.6680  0.6437
  192SAPI    HA22206   5.463   4.694   2.382  1.1203  2.2031 -1.0133
  192SAPI    HB22207   5.456   4.519   2.392 -1.7874  1.0953 -1.9074
  192SAPI    C222208   5.597   4.616   2.520 -0.4836  0.1897 -0.0070
  192SAPI    HS22209   5.613   4.725   2.531  2.5786 -0.2351  0.7151
  192SAPI   O2122210   5.717   4.543   2.518 -0.3447  0.5909  0.1987
  192SAPI   C2122211   5.829   4.606   2.486  0.1516 -0.1867 -0.2320
  192SAPI   O2222212   5.841   4.723   2.464  0.5537 -0.4953  0.6018
  192SAPI   C2222213   5.949   4.515   2.491 -0.6453  0.2858 -0.2717
  192SAPI   H2R22214   5.956   4.454   2.398  0.2903 -0.2359  0.1246
  192SAPI   H2S22215   6.036   4.584   2.484 -0.2251 -0.3155 -1.3309
  192SAPI    C322216   5.509   4.563   2.643  0.0334 -0.0025 -0.6218
  192SAPI    HX22217   5.451   4.468   2.635 -0.2293  0.0714  0.3348
  192SAPI    HY22218   5.430   4.642   2.645 -0.1291 -0.0409 -2.9147
  192SAPI   O3122219   5.589   4.576   2.762  0.2020  0.2506 -0.8465
  192SAPI   C3122220   5.645   4.473   2.816  0.3041  0.1657 -0.1481
  192SAPI   O3222221   5.625   4.355   2.791 -0.1887  0.2103  0.0369
  192SAPI   C3222222   5.702   4.521   2.949  0.5259  0.4748 -0.3617
  192SAPI   H2X22223   5.614   4.517   3.016 -1.3268  0.4473 -2.6460
  192SAPI   H2Y22224   5.731   4.627   2.960 -1.3599  0.8337  1.6587
  192SAPI   C2322225   5.947   4.424   2.618  0.2682  0.1203  0.6125
  192SAPI   H3R22226   5.857   4.361   2.635  1.1116 -0.7873  1.9439
  192SAPI   H3S22227   5.955   4.498   2.700  2.5157  0.6543 -0.0171
  192SAPI   C2422228   6.069   4.334   2.638  0.6148  0.0500 -0.6949
  192SAPI   H4R22229   6.080   4.252   2.564  0.9773 -0.5758  0.0386
  192SAPI   H4S22230   6.051   4.292   2.740  0.9526 -3.1501 -1.8565
  192SAPI   C2522231   6.188   4.430   2.638 -0.0714  0.6164 -0.5763
  192SAPI   H5R22232   6.219   4.480   2.545  1.9678 -0.6695 -0.6530
  192SAPI   C2622233   6.275   4.451   2.739  0.0708 -0.1541 -0.0508
  192SAPI   H6R22234   6.343   4.535   2.718 -2.2024  1.7677 -0.2203
  192SAPI   C2722235   6.268   4.395   2.876  0.0589  0.5174 -0.2140
  192SAPI   H7R22236   6.339   4.310   2.886  0.1508  0.6025 -0.1402
  192SAPI   H7S22237   6.177   4.336   2.903  0.9210 -0.3969  0.7973
  192SAPI   C2822238   6.294   4.495   2.979 -0.2097  0.0324 -0.1742
  192SAPI   H8R22239   6.310   4.597   2.939 -0.6533  0.8852  1.7125
  192SAPI   C2922240   6.314   4.480   3.112  0.0281  0.7244  0.0526
  192SAPI   H9R22241   6.346   4.564   3.175 -0.5101  0.4541  0.7041
  192SAPI  C21022242   6.294   4.347   3.174 -0.8621 -0.2954 -0.3238
  192SAPI  H10R22243   6.279   4.259   3.108 -1.9011 -1.8171  1.8151
  192SAPI  H10S22244   6.196   4.351   3.227 -0.3001  0.3536  0.7121
  192SAPI  C21122245   6.406   4.318   3.273  0.4352 -0.4548 -0.9903
  192SAPI  H11R22246   6.497   4.271   3.234  1.5332  0.5768  0.2110
  192SAPI  C21222247   6.404   4.344   3.411  0.1107  0.6214 -0.1079
  192SAPI  H12R22248   6.489   4.302   3.467 -0.9737 -0.8571  0.4795
  192SAPI  C21322249   6.296   4.397   3.493 -0.0153  0.1762 -0.0010
  192SAPI  H13R22250   6.292   4.340   3.588  2.8539 -0.6700 -0.2898
  192SAPI  H13S22251   6.201   4.368   3.443  0.5242  0.3395 -1.1657
  192SAPI  C21422252   6.299   4.543   3.525 -0.0397 -0.3249 -0.3298
  192SAPI  H14R22253   6.291   4.603   3.433  0.7936 -1.1429 -0.9599
  192SAPI  C21522254   6.321   4.604   3.640  0.6330  0.2727 -0.0515
  192SAPI  H15R22255   6.328   4.713   3.654 -1.2348  0.1760  2.3925
  192SAPI  C21622256   6.329   4.528   3.772 -0.2103  1.1960  0.2345
  192SAPI  H16R22257   6.395   4.440   3.757  0.0876  1.1805  1.4785
  192SAPI  H16S22258   6.230   4.487   3.802 -0.2394  1.0926  0.0016
  192SAPI  C21722259   6.385   4.606   3.895  0.1320  0.5920 -0.6618
  192SAPI  H17R22260   6.483   4.654   3.876  0.6423 -0.1646  0.0005
  192SAPI  H17S22261   6.397   4.542   3.985 -2.2465  1.5450  0.4181
  192SAPI  C21822262   6.280   4.715   3.939 -0.3579  0.3780 -0.1553
  192SAPI  H18R22263   6.181   4.671   3.964 -0.1459  0.6940  1.3631
  192SAPI  H18S22264   6.263   4.793   3.861  0.8475  2.5921  1.6680
  192SAPI  C21922265   6.335   4.789   4.063 -0.0402 -0.8870 -0.5918
  192SAPI  H19R22266   6.307   4.897   4.063  1.5045 -0.4598 -1.7339
  192SAPI  H19S22267   6.444   4.773   4.065 -0.0262 -0.9538  1.7227
  192SAPI  C22022268   6.282   4.739   4.205 -0.2181  0.0443  0.0584
  192SAPI  H20R22269   6.328   4.797   4.288 -2.4197  3.5027 -0.9228
  192SAPI  H20S22270   6.314   4.633   4.212 -1.3631 -0.2668  0.8019
  192SAPI  H20T22271   6.171   4.747   4.209 -0.2295 -0.0924  0.0067
  192SAPI   C3322272   5.813   4.419   3.004  0.4608  0.9525 -0.4791
  192SAPI   H3X22273   5.903   4.408   2.939  1.7917 -0.3808  1.4538
  192SAPI   H3Y22274   5.768   4.318   3.015 -0.0459  0.9541 -2.2435
  192SAPI   C3422275   5.854   4.455   3.148  0.2018 -0.0458  0.0962
  192SAPI   H4X22276   5.904   4.367   3.194  0.5390  0.5837  0.9394
  192SAPI   H4Y22277   5.767   4.469   3.215  0.8841 -0.3350  1.0736
  192SAPI   C3522278   5.949   4.570   3.162 -0.8256 -0.8589  0.0301
  192SAPI   H5X22279   5.895   4.658   3.121  1.0507 -0.3495 -1.5560
  192SAPI   H5Y22280   6.032   4.544   3.093 -0.4772 -0.4946  0.3069
  192SAPI   C3622281   6.003   4.593   3.301 -0.6165 -0.4728  0.5268
  192SAPI   H6X22282   6.084   4.666   3.281 -1.5464  0.1177 -1.2361
  192SAPI   H6Y22283   6.037   4.493   3.336 -1.7257 -0.5760  1.3818
  192SAPI   C3722284   5.893   4.647   3.405 -0.2361 -0.3564 -0.5620
  192SAPI   H7X22285   5.819   4.566   3.425  2.3415 -2.5544  0.7562
  192SAPI   H7Y22286   5.842   4.736   3.364  2.3636  0.5030 -2.2132
  192SAPI   C3822287   5.943   4.688   3.546 -0.2453  0.0027  0.3663
  192SAPI   H8X22288   6.035   4.742   3.514 -0.9863  1.0796 -0.0477
  192SAPI   H8Y22289   5.974   4.594   3.596  0.2857  0.0316  0.1087
  192SAPI   C3922290   5.852   4.788   3.625 -0.2626  0.5572  0.3572
  192SAPI   H9X22291   5.748   4.747   3.626 -0.7639  1.6661 -1.3429
  192SAPI   H9Y22292   5.843   4.877   3.559 -0.1485  0.4037  0.1320
  192SAPI  C31022293   5.912   4.834   3.761  0.5041  0.9486 -0.4823
  192SAPI  H10X22294   6.002   4.773   3.784  0.1346  0.5409 -0.1172
  192SAPI  H10Y22295   5.838   4.823   3.843 -3.1242  3.3947 -3.1048
  192SAPI  C31122296   5.953   4.985   3.752 -0.8500 -0.2211  0.2177
  192SAPI  H11X22297   5.868   5.055   3.761 -1.3260 -1.0257  2.6932
  192SAPI  H11Y22298   6.005   5.009   3.656 -0.7323  1.2178  0.6186
  192SAPI  C31222299   6.053   5.021   3.867 -0.5659  0.4757  0.7997
  192SAPI  H12X22300   6.048   5.131   3.882 -1.6152  0.3699  1.3178
  192SAPI  H12Y22301   6.156   4.992   3.836  0.5038  3.1432  1.5297
  192SAPI  C31322302   6.016   4.966   4.016 -0.3752  0.5707  0.1136
  192SAPI  H13X22303   6.097   5.003   4.082 -0.5401  0.2270  0.5119
  192SAPI  H13Y22304   6.025   4.856   4.031 -0.3848  0.8232  2.2110
  192SAPI  C31422305   5.886   5.025   4.061 -0.2164 -0.4176  0.1977
  192SAPI  H14X22306   5.800   4.969   4.018 -2.7589  2.0337  1.7141
  192SAPI  H14Y22307   5.867   5.132   4.037 -0.4756 -0.5850 -0.3544
  192SAPI  C31522308   5.866   5.006   4.219  0.0366  0.3572 -0.0509
  192SAPI  H15X22309   5.961   5.005   4.277 -0.3585 -2.5598  0.7051
  192SAPI  H15Y22310   5.818   4.910   4.248  1.8298  0.0857  2.2850
  192SAPI  C31622311   5.773   5.118   4.282 -0.2780 -0.2769  0.3650
  192SAPI  H16X22312   5.672   5.113   4.235  0.3761 -0.0854 -1.1393
  192SAPI  H16Y22313   5.823   5.215   4.261  0.8640 -0.3163  2.6370
  192SAPI  C31722314   5.767   5.113   4.434  0.3205 -0.4564  0.0808
  192SAPI  H17X22315   5.718   5.017   4.461  1.8452 -0.7117  2.1912
  192SAPI  H17Y22316   5.704   5.196   4.472  0.7957 -0.9656  2.1375
  192SAPI  C31822317   5.898   5.125   4.504  0.4398  0.1159 -0.1791
  192SAPI  H18X22318   5.945   5.217   4.464  0.2595 -0.8129 -2.6714
  192SAPI  H18Y22319   5.970   5.041   4.499 -1.0003 -1.5107  3.0160
  192SAPI  H18Z22320   5.880   5.137   4.614  2.0275 -1.7128  0.3246
  193SOD    SOD22321   0.797   2.627   7.074 -0.1992  0.3478 -0.0620
  194SOD    SOD22322   4.562   5.494   0.366 -0.4828 -0.6119  0.0052
  195SOD    SOD22323   5.856   6.069   7.418  0.4020 -0.5395 -0.1512
  196SOD    SOD22324   3.525   2.555   8.080  0.0803 -0.1598 -0.1770
  197SOD    SOD22325   3.419   1.463   2.087 -0.4953 -0.2315 -0.3798
  198SOD    SOD22326   1.482   4.556   6.686  0.3918  0.2005 -0.0791
  199SOD    SOD22327   5.438   5.441   8.196  0.0752 -0.5884 -0.0978
  200SOD    SOD22328   6.601   4.089   1.340 -0.2892  0.2081 -0.4164
  201SOD    SOD22329   4.856   4.068   0.661  0.3294 -0.0916  0.0129
  202SOD    SOD22330   1.493   4.443   7.331 -0.1971 -0.1383 -0.0231
  203SOD    SOD22331   4.334   0.828   1.417 -0.3171 -0.1029  0.5478
  204SOD    SOD22332   5.037   0.495   2.493 -0.4738 -0.0381 -0.6357
  205SOD    SOD22333   0.726   4.931   7.075 -0.1618  0.1937  0.5717
  206SOD    SOD22334   2.841   5.413   2.666  0.0462  0.4388 -0.1806
  207SOD    SOD22335   0.597   1.178   6.551 -0.0462 -1.0222 -0.0464
  208SOD    SOD22336   0.397   4.793   6.681  0.1016  0.4796  0.4122
  209SOD    SOD22337   3.405   5.732   6.855 -0.0754 -0.2930  0.1227
  210SOD    SOD22338   5.364   1.556   7.834 -0.3554  0.2809  0.5804
  211SOD    SOD22339   2.013   0.826   7.838 -0.5484 -0.3295  0.9373
  212SOD    SOD22340   1.667   1.099   1.405 -0.1805  0.2127 -0.2747
  213SOD    SOD22341   5.671   3.525   7.263 -0.0258  0.2011  0.3904
  214SOD    SOD22342   4.965   1.481   0.487  0.5505 -0.0285 -0.3351
  215SOD    SOD22343   6.534   3.743   8.438 -0.2471  0.0863  0.0232
  216SOD    SOD22344   3.273   1.723   8.094  0.1382 -0.3135  0.0127
  217SOD    SOD22345   3.190   0.833   8.080  0.3369 -0.3125  0.2784
  218SOD    SOD22346   1.291   1.445   2.291 -0.2979  0.2877 -0.6786
  219SOD    SOD22347   0.092   0.314   7.877  0.0454  0.0959 -0.1181
  220SOD    SOD22348   1.019   0.682   2.129  0.1260  0.6845  0.6845
  221SOD    SOD22349   1.873   2.944   1.996 -0.1612 -0.1802 -0.3509
  222SOD    SOD22350   3.965   0.447   2.299 -0.0809  0.5925  0.2369
  223SOD    SOD22351   0.535   2.398   1.723 -0.0077  0.3964 -0.2879
  224SOD    SOD22352   0.646   0.779   8.659 -0.1954 -0.7498 -0.1740
  225SOD    SOD22353   6.626   2.381   7.858 -0.1372  0.4219 -0.3493
  226SOD    SOD22354   2.287   4.310   1.555  0.2728 -0.2280  0.5375
  227SOD    SOD22355   5.952   0.440   6.570  0.4244 -0.3415 -0.6917
  228SOD    SOD22356   1.610   6.275   2.409 -0.8091 -0.0752  0.5690
  229SOD    SOD22357   1.010   5.724   1.200 -0.0772 -0.5659  0.7732
  230CLA    CLA22358   4.204   0.992   7.938  0.2549  0.2315  0.2511
  231CLA    CLA22359   3.138   6.576   1.770 -0.0609 -0.1618  0.5156
  232CLA    CLA22360   6.470   5.013   8.182 -0.0888 -0.4543  0.0318
  233CLA    CLA22361   5.478   0.355   7.980  0.0432  0.0632 -0.2493
  234CLA    CLA22362   3.097   4.617   1.417  0.2231  0.4584 -0.4485
  235CLA    CLA22363   2.954   0.513   1.416 -0.4413  0.1219 -0.5122
  236CLA    CLA22364   5.385   5.296   7.756 -0.0963 -0.3809  0.3499
  237CLA    CLA22365   6.101   3.695   0.368  0.0412 -0.3087 -0.0468
  238CLA    CLA22366   3.957   6.690   8.458 -0.3016  0.1644 -0.3845
  239CLA    CLA22367   0.779   0.629   7.625  0.4131  0.1284 -0.1236
  240CLA    CLA22368   1.726   3.143   0.079 -0.3820  0.2820  0.2093
  241CLA    CLA22369   1.663   3.977   1.580 -0.1954 -0.0378  0.0621
  242CLA    CLA22370   6.405   2.993   7.163  0.2582  0.1775  0.1280
  243CLA    CLA22371   3.419   2.057   0.038 -0.3763  0.5027  0.1928
  244CLA    CLA22372   1.315   1.325   1.121 -0.2307 -0.0294 -0.1616
  245CLA    CLA22373   5.224   4.537   1.203 -0.1026 -0.5096 -0.5830
  246CLA    CLA22374   0.685   1.026   0.679 -0.1217  0.2369 -0.2084
  247TIP3   OH222375   0.988   6.139   7.856  0.0689  0.8357 -0.1884
  247TIP3    H122376   1.016   6.181   7.775  0.8940  0.3195 -0.1855
  247TIP3    H222377   0.895   6.122   7.844  0.3785 -0.1426 -1.4581
  248TIP3   OH222378   5.312   0.477   7.720 -0.3141  0.0512 -0.5793
  248TIP3    H122379   5.269   0.561   7.737  0.6691  0.8600 -1.9476
  248TIP3    H222380   5.359   0.458   7.802 -0.3571  0.9397 -0.3376
  249TIP3   OH222381   1.813   2.293   0.918 -0.2288  0.1001 -0.4140
  249TIP3    H122382   1.778   2.234   0.984 -0.9506 -0.6450 -1.4217
  249TIP3    H222383   1.907   2.297   0.936  0.3257 -3.3660 -1.7452
  250TIP3   OH222384   5.301   1.077   7.062  0.9957  0.4426 -0.4725
  250TIP3    H122385   5.388   1.079   7.103  0.4265  1.2448  0.7579
  250TIP3    H222386   5.319   1.073   6.968  2.3417 -1.4638 -0.1767
  251TIP3   OH222387   1.721   6.423   6.939  0.3306  0.2781  0.6031
  251TIP3    H122388   1.720   6.353   6.874 -0.2449 -0.3761  1.2948
  251TIP3    H222389   1.709   6.504   6.889 -1.0716 -0.2849 -0.0257
  252TIP3   OH222390   4.323   6.681   8.510 -0.1110  0.2532 -0.4672
  252TIP3    H122391   4.251   6.734   8.476  0.7739  1.1019 -1.0659
  252TIP3    H222392   4.380   6.667   8.435  1.0301  0.7298  0.2855
  253TIP3   OH222393   2.248   4.808   8.123  0.4090 -0.7681  0.2707
  253TIP3    H122394   2.257   4.883   8.182 -0.0809  0.7338 -1.4375
  253TIP3    H222395   2.229   4.734   8.180 -3.0978  1.0876  1.8517
  254TIP3   OH222396   0.287   3.027   0.098 -0.1918 -0.2801  0.0776
  254TIP3    H122397   0.276   3.084   0.175 -0.8100 -0.0843 -0.1479
  254TIP3    H222398   0.347   3.075   0.041  0.7122 -0.6784  0.6736
  255TIP3   OH222399   6.726   2.016   0.257  0.2211  0.2615  0.7056
  255TIP3    H122400   6.797   1.971   0.211 -0.5645 -2.7050  2.1657
  255TIP3    H222401   6.771   2.074   0.318  1.3460  0.1066  0.0590
  256TIP3   OH222402   0.069   4.462   1.328  0.4111  0.0546  0.0531
  256TIP3    H122403   0.066   4.483   1.421 -0.9771  0.0570  0.0314
  256TIP3    H222404   0.075   4.547   1.284  0.4249  0.0858  0.1148
  257TIP3   OH222405   4.484   2.019   7.930 -0.6820 -0.0331  0.1222
  257TIP3    H122406   4.408   2.017   7.988 -1.3456  1.5383 -0.6476
  257TIP3    H222407   4.462   2.084   7.863  0.5500 -0.9250 -1.2163
  258TIP3   OH222408   6.855   5.638   1.764 -0.2019 -0.4300 -0.0449
  258TIP3    H122409   6.775   5.672   1.803  0.1831  0.8573 -0.3172
  258TIP3    H222410   6.901   5.596   1.836 -1.3597 -1.7034  0.0005
  259TIP3   OH222411   3.571   2.739   7.517  0.1091  0.0799 -0.0762
  259TIP3    H122412   3.545   2.653   7.482  2.8785 -1.3757  1.0941
  259TIP3    H222413   3.546   2.736   7.609 -0.1350  0.6928 -0.1218
  260TIP3   OH222414   5.785   3.983   7.564 -0.5049  0.1609  0.3544
  260TIP3    H122415   5.881   3.983   7.568 -0.4901  0.8904  0.1072
  260TIP3    H222416   5.762   4.072   7.538 -1.0941 -0.9268 -3.4265
  261TIP3   OH222417   4.701   0.602   1.869 -0.2028  0.6339 -0.4825
  261TIP3    H122418   4.657   0.680   1.901  0.2709 -0.0783  2.1781
  261TIP3    H222419   4.773   0.635   1.815 -1.4670  1.9123 -1.4407
  262TIP3   OH222420   4.547   1.398   7.561  0.0075 -0.2246 -0.1336
  262TIP3    H122421   4.492   1.458   7.509  1.3115  0.9632 -0.1998
  262TIP3    H222422   4.559   1.444   7.644  1.7937  0.0844 -0.5205
  263TIP3   OH222423   6.505   1.035   1.465  0.9583 -0.7377 -0.0392
  263TIP3    H122424   6.455   0.994   1.394  1.3977 -0.4191 -0.5398
  263TIP3    H222425   6.508   1.128   1.441  0.2019 -0.4404  0.9425
  264TIP3   OH222426   5.748   2.683   7.985 -0.4422 -0.5682  0.5106
  264TIP3    H122427   5.695   2.744   8.036  0.9147  0.8545  0.3120
  264TIP3    H222428   5.787   2.737   7.916  2.1348 -1.2623  1.3096
  265TIP3   OH222429   5.927   1.724   6.559 -0.2443 -0.2091 -0.0928
  265TIP3    H122430   5.925   1.638   6.517  0.0743  0.1021 -0.7696
  265TIP3    H222431   6.013   1.759   6.537 -1.0988  1.1096 -1.5690
  266TIP3   OH222432   2.854   4.364   6.633  0.3345 -0.2585 -0.3564
  266TIP3    H122433   2.797   4.287   6.642 -1.1358  1.0104  2.1814
  266TIP3    H222434   2.838   4.394   6.543 -1.3234 -1.2433 -0.4458
  267TIP3   OH222435   1.394   4.511   0.848  0.3551 -0.0651 -0.0739
  267TIP3    H122436   1.487   4.491   0.838  0.2017 -0.6857 -0.3662
  267TIP3    H222437   1.351   4.426   0.838 -0.0997 -0.1750  2.2216
  268TIP3   OH222438   2.860   2.702   0.411 -0.0316 -0.5194 -0.0852
  268TIP3    H122439   2.917   2.735   0.481  0.3074 -1.3793  0.0555
  268TIP3    H222440   2.819   2.623   0.448 -1.3314  0.0725 -0.1797
  269TIP3   OH222441   1.939   5.932   0.344  0.1548 -0.3435  0.2745
  269TIP3    H122442   1.971   5.850   0.380 -0.4393 -1.7222 -2.0916
  269TIP3    H222443   1.893   5.907   0.264 -0.7784  2.2311 -0.1052
  270TIP3   OH222444   0.063   4.639   8.528 -0.1641  0.0012 -0.0058
  270TIP3    H122445   0.038   4.587   8.453  4.1616 -2.4311 -0.0758
  270TIP3    H222446   0.085   4.725   8.492  1.3181 -0.9634 -1.5226
  271TIP3   OH222447   0.942   3.843   7.388 -0.1073  0.7033 -0.1805
  271TIP3    H122448   0.971   3.786   7.459 -0.9419  0.2438 -0.1888
  271TIP3    H222449   0.954   3.932   7.422 -1.4580  0.4857  0.9628
  272TIP3   OH222450   3.979   3.965   1.444  0.1255 -0.3933  0.2507
  272TIP3    H122451   3.906   3.980   1.504 -1.5047 -3.2738 -0.8320
  272TIP3    H222452   4.057   3.968   1.500 -1.1386 -0.9929  2.1380
  273TIP3   OH222453   1.029   4.418   0.590  0.1491 -0.4807 -0.1314
  273TIP3    H122454   1.066   4.476   0.524  1.7195 -0.0756  1.0436
  273TIP3    H222455   0.965   4.365   0.543 -0.6498  1.5347 -1.4307
  274TIP3   OH222456   5.127   0.505   6.762 -0.0174  0.1347 -0.1035
  274TIP3    H122457   5.184   0.582   6.766 -0.7946  0.7194 -0.1059
  274TIP3    H222458   5.038   0.540   6.759 -0.4699 -0.7760  1.3495
  275TIP3   OH222459   0.889   3.566   1.408 -0.2923  0.2960  0.1763
  275TIP3    H122460   0.893   3.516   1.327  0.9243  0.1507  0.3144
  275TIP3    H222461   0.948   3.521   1.468 -1.2202  0.3652  1.1840
  276TIP3   OH222462   3.904   5.411   0.687 -0.1521 -0.0169  0.0664
  276TIP3    H122463   3.848   5.348   0.732  0.5718  0.5628  1.8685
  276TIP3    H222464   3.973   5.432   0.751  1.9282 -0.4209 -1.8917
  277TIP3   OH222465   4.374   5.709   7.645  0.1000  0.4182 -0.0809
  277TIP3    H122466   4.305   5.725   7.581 -0.6393  1.3774  0.9107
  277TIP3    H222467   4.432   5.644   7.603 -1.8890 -1.1216 -0.5742
  278TIP3   OH222468   0.919   3.110   7.534 -0.6033  0.0907 -0.6933
  278TIP3    H122469   0.931   3.056   7.612  0.2788  0.7743 -0.3439
  278TIP3    H222470   0.934   3.200   7.564  2.9612  0.1774 -2.2198
  279TIP3   OH222471   0.321   4.295   1.677 -0.3009  0.6039  0.0658
  279TIP3    H122472   0.285   4.208   1.661  1.2457  0.1050 -0.9624
  279TIP3    H222473   0.245   4.351   1.690 -1.2891 -1.2407  2.9008
  280TIP3   OH222474   3.369   2.815   2.096  1.1158 -0.5159 -0.5734
  280TIP3    H122475   3.449   2.863   2.077  1.5584  0.0076  2.2510
  280TIP3    H222476   3.383   2.776   2.182 -2.3696  1.2331  0.9940
  281TIP3   OH222477   3.370   3.054   8.499  0.0300 -0.2892 -0.1564
  281TIP3    H122478   3.278   3.048   8.524 -0.1714 -1.2904 -1.0728
  281TIP3    H222479   3.410   3.105   8.570 -0.8597 -1.4127  1.2132
  282TIP3   OH222480   2.455   5.469   8.211  0.6296 -0.5474 -0.0307
  282TIP3    H122481   2.461   5.538   8.145  1.4073 -0.4930  0.0950
  282TIP3    H222482   2.371   5.426   8.193  1.2505 -1.1345 -1.6508
  283TIP3   OH222483   1.128   0.302   2.336 -0.0781 -0.3062  0.4812
  283TIP3    H122484   1.209   0.349   2.316 -0.3977  0.3515  0.6862
  283TIP3    H222485   1.154   0.235   2.399  0.3193 -0.1397  0.4968
  284TIP3   OH222486   2.578   4.937   1.525  0.4911 -0.0767  0.1222
  284TIP3    H122487   2.584   5.032   1.514  0.6779 -0.2745 -1.7747
  284TIP3    H222488   2.652   4.902   1.474 -1.5503 -1.3842 -2.1278
  285TIP3   OH222489   2.059   1.460   7.524  0.0344 -0.1971 -0.2758
  285TIP3    H122490   2.080   1.501   7.440 -1.2387 -0.9064 -0.9676
  285TIP3    H222491   2.067   1.366   7.508 -1.8213 -0.4232 -0.0941
  286TIP3   OH222492   4.163   1.081   7.214 -0.7633 -0.4606  0.5494
  286TIP3    H122493   4.223   1.074   7.289 -0.7226 -1.3735  0.4421
  286TIP3    H222494   4.106   1.155   7.236  1.2105  1.3183  0.0625
  287TIP3   OH222495   3.687   5.265   0.355  0.0782 -0.7106  0.5747
  287TIP3    H122496   3.780   5.242   0.351  0.1116 -0.4466 -0.7764
  287TIP3    H222497   3.681   5.349   0.311 -0.8853 -1.0243  0.0703
  288TIP3   OH222498   0.203   3.666   0.684 -0.2157  0.1171 -0.0919
  288TIP3    H122499   0.143   3.605   0.641  0.4165 -1.0985  0.6719
  288TIP3    H222500   0.221   3.733   0.618 -2.3761  0.5225 -0.3420
  289TIP3   OH222501   5.186   3.722   0.312  0.3904  0.5300 -0.4319
  289TIP3    H122502   5.238   3.708   0.392 -1.0586 -0.6296  0.3412
  289TIP3    H222503   5.150   3.636   0.291 -2.8266  1.6133  0.2102
  290TIP3   OH222504   2.098   2.587   7.865 -0.2916  0.5597  0.2529
  290TIP3    H122505   2.156   2.530   7.914  0.6570  1.7365  0.5645
  290TIP3    H222506   2.032   2.529   7.828  0.5338 -0.6954  0.6842
  291TIP3   OH222507   1.385   5.167   7.922  0.2995  0.6288  0.0548
  291TIP3    H122508   1.432   5.221   7.859  1.1163 -0.2441 -0.1113
  291TIP3    H222509   1.450   5.148   7.990 -0.0476  0.0580  0.2337
  292TIP3   OH222510   3.071   5.769   2.568  0.0693  0.1102 -0.0120
  292TIP3    H122511   3.122   5.721   2.632 -1.9196  1.4468  2.8109
  292TIP3    H222512   3.125   5.845   2.545  0.7760 -0.3589  0.0818
  293TIP3   OH222513   6.531   2.436   8.359 -0.3890 -0.0366  0.5674
  293TIP3    H122514   6.545   2.492   8.283 -0.2805  0.5856  1.0472
  293TIP3    H222515   6.618   2.414   8.390 -0.4318  1.2802  1.6639
  294TIP3   OH222516   0.812   5.568   0.658 -0.2325 -0.7496 -0.4149
  294TIP3    H122517   0.736   5.620   0.683 -0.7803 -2.0572  0.7412
  294TIP3    H222518   0.867   5.629   0.609  0.5842  1.8808  3.3217
  295TIP3   OH222519   0.393   6.899   8.466 -0.3784 -0.2355  0.4083
  295TIP3    H122520   0.457   6.861   8.526 -1.2129 -1.1266  0.7659
  295TIP3    H222521   0.414   6.992   8.464 -0.1583 -0.2347  1.8820
  296TIP3   OH222522   5.647   2.027   7.974  0.8280 -0.0598  1.0222
  296TIP3    H122523   5.687   2.114   7.970 -0.3561  0.5224  1.4107
  296TIP3    H222524   5.565   2.041   8.020  0.0297 -1.1569 -0.0165
  297TIP3   OH222525   1.562   5.478   6.936  0.6732  0.4306  0.7061
  297TIP3    H122526   1.636   5.425   6.905  0.4201  0.1103  0.6448
  297TIP3    H222527   1.540   5.535   6.862  0.3842  0.0084  0.4615
  298TIP3   OH222528   2.219   1.215   7.568 -0.7248  0.0038 -0.5601
  298TIP3    H122529   2.257   1.213   7.656  0.2446 -0.6248 -0.9785
  298TIP3    H222530   2.283   1.169   7.513  0.0068  2.7050 -2.1289
  299TIP3   OH222531   6.163   4.085   7.286 -0.1738  0.0062 -0.2879
  299TIP3    H122532   6.123   4.160   7.331  1.1402  1.1618 -0.9677
  299TIP3    H222533   6.105   4.070   7.211 -2.5835 -2.1639  1.7964
  300TIP3   OH222534   2.551   4.616   0.467 -0.8141  0.2743  0.5186
  300TIP3    H122535   2.507   4.624   0.382  0.6584 -1.5887 -0.5050
  300TIP3    H222536   2.630   4.670   0.457 -0.9417  0.5444  0.9492
  301TIP3   OH222537   4.366   4.744   2.179  0.0080  0.0093  0.5497
  301TIP3    H122538   4.390   4.721   2.090  0.2150  0.8409  0.3781
  301TIP3    H222539   4.426   4.815   2.203 -1.5685  1.4265  0.4840
  302TIP3   OH222540   2.467   6.440   8.035 -0.0903  0.5260  0.1422
  302TIP3    H122541   2.487   6.489   8.115  1.8055 -0.6675  0.4728
  302TIP3    H222542   2.374   6.420   8.042  0.1841 -0.3082  2.5325
  303TIP3   OH222543   0.987   3.594   0.798  0.0135  0.3884 -0.1474
  303TIP3    H122544   1.075   3.596   0.761 -0.1026  0.5220 -0.4191
  303TIP3    H222545   0.988   3.663   0.865 -0.1463  0.9982 -0.7585
  304TIP3   OH222546   0.921   0.070   0.651 -0.1660 -0.0285  0.3389
  304TIP3    H122547   0.889  -0.005   0.600  0.0219 -1.5841  2.3680
  304TIP3    H222548   0.864   0.072   0.728  1.4203  0.2954  1.5615
  305TIP3   OH222549   1.269   0.159   8.550  0.3437 -0.3407 -0.1481
  305TIP3    H122550   1.204   0.150   8.620  1.1912  0.1216  0.7177
  305TIP3    H222551   1.339   0.211   8.588  0.1524  1.2581 -1.8232
  306TIP3   OH222552   1.224   5.160   7.566  0.5306  0.0818 -0.6441
  306TIP3    H122553   1.200   5.113   7.486  0.9259  0.8250 -1.2143
  306TIP3    H222554   1.142   5.197   7.598 -0.0074 -1.9468  0.4795
  307TIP3   OH222555   0.721   5.588   8.027  0.3136 -0.1571 -0.0713
  307TIP3    H122556   0.627   5.575   8.044  0.3310 -1.4352 -0.8119
  307TIP3    H222557   0.757   5.617   8.111 -0.6017 -0.5061  0.4554
  308TIP3   OH222558   4.155   2.392   7.695 -0.5704 -0.0748 -0.0278
  308TIP3    H122559   4.184   2.364   7.608  0.5950  0.4633  0.1671
  308TIP3    H222560   4.178   2.319   7.752 -1.6649 -0.5799 -0.2116
  309TIP3   OH222561   2.058   1.255   7.148  0.4772  0.3892  0.6740
  309TIP3    H122562   2.149   1.281   7.155  0.6571 -0.1823  0.4837
  309TIP3    H222563   2.059   1.173   7.100  0.1137 -1.0654  2.9912
  310TIP3   OH222564   5.547   1.093   7.189 -0.2198  0.1069 -0.1348
  310TIP3    H122565   5.547   1.125   7.279  0.9740  0.1542 -0.1288
  310TIP3    H222566   5.583   1.004   7.195 -3.9764 -1.5957 -0.0750
  311TIP3   OH222567   1.984   4.942   1.225 -0.2893 -0.0578 -0.0805
  311TIP3    H122568   2.013   5.024   1.265  0.7326 -0.6922  0.5525
  311TIP3    H222569   1.890   4.952   1.214  0.0140  1.7628 -1.3700
  312TIP3   OH222570   0.652   2.253   1.865 -0.0892  0.0308 -0.1898
  312TIP3    H122571   0.680   2.329   1.916 -0.6776 -0.2212  0.5214
  312TIP3    H222572   0.687   2.178   1.913  1.0922 -0.1418 -1.2627
  313TIP3   OH222573   6.355   2.727   7.812  0.5327  0.0648 -0.3812
  313TIP3    H122574   6.433   2.682   7.778 -0.4858 -1.5221 -0.7400
  313TIP3    H222575   6.378   2.749   7.902  0.9297 -1.6504 -0.0255
  314TIP3   OH222576   0.106   1.470   1.692  0.3874  0.0947  1.2342
  314TIP3    H122577   0.188   1.499   1.732  0.6194 -0.6499  1.3007
  314TIP3    H222578   0.098   1.378   1.717  1.5196 -1.0020 -1.9790
  315TIP3   OH222579   1.451   1.353   0.397 -0.1739  0.5778 -0.4076
  315TIP3    H122580   1.384   1.341   0.329 -0.8376  3.8101 -0.5193
  315TIP3    H222581   1.521   1.402   0.354  1.4525 -1.0992  0.2080
  316TIP3   OH222582   6.209   6.729   0.067 -0.2198 -0.1644  0.4573
  316TIP3    H122583   6.235   6.805   0.015  0.6647 -2.3807 -2.6902
  316TIP3    H222584   6.122   6.706   0.034  0.0400 -1.1944  0.4344
  317TIP3   OH222585   1.407   4.053   6.694 -0.1336  0.1337 -0.2120
  317TIP3    H122586   1.434   3.963   6.711  0.2590  0.1844 -0.5598
  317TIP3    H222587   1.320   4.045   6.656 -0.2539 -0.0772  0.1041
  318TIP3   OH222588   4.851   2.797   2.477  0.4431  0.2601  0.2053
  318TIP3    H122589   4.852   2.879   2.527 -0.0837  0.1124  0.4647
  318TIP3    H222590   4.760   2.768   2.480  0.8252 -0.9241  1.1003
  319TIP3   OH222591   4.993   5.167   0.839  0.7561  0.4853  0.4093
  319TIP3    H122592   4.898   5.162   0.854  0.9047 -0.9474  1.0143
  319TIP3    H222593   5.024   5.078   0.855  2.8376  1.7399  4.4358
  320TIP3   OH222594   2.065   0.384   8.287  0.1356  0.4610  0.5833
  320TIP3    H122595   1.987   0.367   8.339 -0.4754  1.3188 -0.0265
  320TIP3    H222596   2.125   0.429   8.347  0.3032 -0.4615  1.1355
  321TIP3   OH222597   3.747   1.562   8.639 -0.2558  0.4510  0.5093
  321TIP3    H122598   3.741   1.524   8.727  0.4078 -0.6596  0.1026
  321TIP3    H222599   3.672   1.621   8.633  0.0495  1.0450  2.0502
  322TIP3   OH222600   4.888   5.863   2.707 -0.5235 -0.0171  0.1212
  322TIP3    H122601   4.891   5.957   2.689 -1.4089  0.2649  1.2612
  322TIP3    H222602   4.879   5.822   2.621 -1.9001  1.0589 -0.2941
  323TIP3   OH222603   5.315   5.994   3.090  0.0830 -0.2965  0.3517
  323TIP3    H122604   5.350   5.920   3.041  2.7344 -0.2020  1.8874
  323TIP3    H222605   5.265   5.955   3.161 -1.2623 -0.4943 -0.6760
  324TIP3   OH222606   3.545   5.334   0.565  0.6557  0.1062  0.0745
  324TIP3    H122607   3.590   5.305   0.486 -0.8079 -0.4123 -0.6124
  324TIP3    H222608   3.590   5.289   0.637 -0.1026 -2.1165 -0.7700
  325TIP3   OH222609   3.382   2.882   0.540  0.2844 -0.4973 -0.5071
  325TIP3    H122610   3.386   2.842   0.453  0.2705 -0.4997 -0.5066
  325TIP3    H222611   3.436   2.825   0.595 -1.7587 -1.9864  0.0860
  326TIP3   OH222612   6.339   5.928   1.331 -0.3265  0.4305 -0.8095
  326TIP3    H122613   6.318   5.869   1.403  2.8984 -0.9415 -0.7944
  326TIP3    H222614   6.283   6.004   1.345 -3.6380 -1.9468  0.0159
  327TIP3   OH222615   4.158   6.070   2.089 -0.0312  0.4229  0.1575
  327TIP3    H122616   4.232   6.033   2.137 -0.1453 -1.0925 -0.7697
  327TIP3    H222617   4.141   6.154   2.132  0.7750 -0.2208  1.8261
  328TIP3   OH222618   6.862   2.675   2.028 -0.9267  0.4497  0.0341
  328TIP3    H122619   6.893   2.745   2.085  1.1806 -0.6690  0.3531
  328TIP3    H222620   6.766   2.680   2.033 -0.8155  2.5477  0.9293
  329TIP3   OH222621   0.311   6.843   1.554 -0.4521  0.1029 -0.3137
  329TIP3    H122622   0.388   6.795   1.584  1.0040  0.6788 -2.8149
  329TIP3    H222623   0.239   6.780   1.561  0.8892 -1.5770 -0.9793
  330TIP3   OH222624   3.496   4.611   0.718 -0.0249  0.2632  0.1562
  330TIP3    H122625   3.420   4.614   0.659  0.6119  1.3975 -0.6412
  330TIP3    H222626   3.494   4.522   0.754 -1.0159 -0.1300 -0.7997
  331TIP3   OH222627   6.033   1.740   1.345  0.0107 -0.1267  0.2405
  331TIP3    H122628   5.966   1.797   1.383 -0.0338  0.4068 -0.6093
  331TIP3    H222629   6.112   1.759   1.397  0.4919  2.1238 -1.1545
  332TIP3   OH222630   3.895   4.409   8.348  0.2523  0.0615  0.1907
  332TIP3    H122631   3.868   4.323   8.379 -0.1307 -0.8730 -2.4639
  332TIP3    H222632   3.817   4.445   8.307  0.2596  1.9553  1.7244
  333TIP3   OH222633   5.656   3.140   0.054 -0.2893 -0.0679 -0.0958
  333TIP3    H122634   5.752   3.133   0.054 -0.3896 -2.2624 -1.0617
  333TIP3    H222635   5.634   3.170   0.142  1.2841  0.7541  0.0603
  334TIP3   OH222636   3.911   0.818   6.347  0.1877 -0.0722  0.3271
  334TIP3    H122637   3.974   0.799   6.278 -0.8350 -0.4160 -0.5519
  334TIP3    H222638   3.860   0.892   6.313 -1.8503 -1.6898 -0.3733
  335TIP3   OH222639   4.958   2.160   7.940  0.0308  0.0557 -0.0980
  335TIP3    H122640   4.937   2.120   7.855  1.6098  1.0371 -1.0043
  335TIP3    H222641   5.053   2.146   7.949 -0.1790 -0.3738  1.7092
  336TIP3   OH222642   0.284   0.321   7.309 -0.0948 -0.1175 -0.0343
  336TIP3    H122643   0.278   0.375   7.231  0.0553  2.2341  1.4922
  336TIP3    H222644   0.248   0.375   7.379  1.2560 -1.4915  1.8432
  337TIP3   OH222645   3.760   5.609   7.361  0.2860 -0.1733 -0.3390
  337TIP3    H122646   3.779   5.665   7.436  0.0349 -0.7141  0.1409
  337TIP3    H222647   3.691   5.654   7.314  2.2527  1.5243 -1.7744
  338TIP3   OH222648   1.595   3.207   7.011 -0.6342  0.0880 -0.7575
  338TIP3    H122649   1.573   3.114   7.025 -0.6937 -0.0383 -1.6302
  338TIP3    H222650   1.540   3.233   6.937  0.7128  0.3062 -1.7152
  339TIP3   OH222651   2.254   5.423   7.830  0.4177 -0.3696  0.5326
  339TIP3    H122652   2.335   5.467   7.856  0.2338 -1.2415  2.7946
  339TIP3    H222653   2.185   5.469   7.877 -0.1333 -1.0510  0.4157
  340TIP3   OH222654   2.635   1.035   1.597  0.2123  0.4599  0.0528
  340TIP3    H122655   2.630   0.979   1.675  0.4542  0.9000  0.3907
  340TIP3    H222656   2.573   0.995   1.535 -1.1538  0.9640  1.0346
  341TIP3   OH222657   2.466   2.848   8.322 -0.2722 -0.0786  0.8694
  341TIP3    H122658   2.397   2.784   8.308 -0.1601 -0.0103 -0.0031
  341TIP3    H222659   2.462   2.905   8.246  1.8076 -1.0277 -0.0089
  342TIP3   OH222660   2.190   6.025   0.813 -0.0112 -0.2024 -0.3897
  342TIP3    H122661   2.174   6.051   0.722  0.7172  0.4792 -0.3425
  342TIP3    H222662   2.284   6.009   0.817  0.0496  0.2861  0.3621
  343TIP3   OH222663   0.456   6.117   1.223  0.1016 -0.3202 -0.0808
  343TIP3    H122664   0.413   6.136   1.140 -1.4411  0.1714  0.7827
  343TIP3    H222665   0.447   6.022   1.232  0.7716 -0.4510 -0.7231
  344TIP3   OH222666   3.356   2.608   0.076 -0.6501  0.2361 -0.0264
  344TIP3    H122667   3.434   2.556   0.056 -0.7410 -0.1693  0.6366
  344TIP3    H222668   3.318   2.629  -0.009  0.2292  0.5057 -0.3586
  345TIP3   OH222669   3.849   6.779   0.368 -0.1987 -0.5864  0.5045
  345TIP3    H122670   3.934   6.799   0.329  0.3859 -0.0224  1.9825
  345TIP3    H222671   3.816   6.864   0.398 -1.7217 -0.6576 -0.8534
  346TIP3   OH222672   1.510   5.565   7.733 -0.3905  0.3776 -0.0373
  346TIP3    H122673   1.453   5.593   7.662  1.8870  0.1402 -2.0770
  346TIP3    H222674   1.536   5.476   7.710  0.3173  0.2461  1.1373
  347TIP3   OH222675   1.838   2.233   7.944 -1.1099  0.0163  0.0741
  347TIP3    H122676   1.924   2.203   7.971 -1.1502 -0.5328 -0.3667
  347TIP3    H222677   1.835   2.214   7.850 -1.7098  0.0180  0.0889
  348TIP3   OH222678   4.385   5.854   0.138  0.3242  0.1603  0.1181
  348TIP3    H122679   4.435   5.854   0.057 -2.8745 -1.7110 -2.0486
  348TIP3    H222680   4.412   5.775   0.184  0.0182 -0.3421 -0.5696
  349TIP3   OH222681   4.280   0.361   7.106  0.4023 -0.0046 -0.2782
  349TIP3    H122682   4.192   0.393   7.127 -2.2502 -4.5771 -2.9303
  349TIP3    H222683   4.297   0.393   7.017  0.9657 -0.0190 -0.1827
  350TIP3   OH222684   2.482   6.158   2.634  0.1836 -0.5118 -0.7002
  350TIP3    H122685   2.554   6.214   2.606  1.4365 -0.8794  1.5601
  350TIP3    H222686   2.523   6.093   2.691 -1.9467 -0.6465  0.7713
  351TIP3   OH222687   3.213   1.557   8.243  0.4215  0.1408  0.0427
  351TIP3    H122688   3.120   1.540   8.226  0.2457  0.5990  0.5366
  351TIP3    H222689   3.244   1.477   8.285  0.0529  0.2893  0.6108
  352TIP3   OH222690   5.093   1.398   7.567 -0.4079  0.0832  0.4890
  352TIP3    H122691   5.089   1.384   7.473  0.0819 -1.4915  0.6749
  352TIP3    H222692   5.051   1.320   7.605  1.8528 -0.6902  1.6151
  353TIP3   OH222693   1.496   0.530   7.624  0.1601 -0.1079 -0.4200
  353TIP3    H122694   1.548   0.595   7.670 -1.3173  1.7891 -1.3031
  353TIP3    H222695   1.495   0.454   7.683  0.0556  1.4678  1.7246
  354TIP3   OH222696   4.982   4.940   2.543  0.5248 -0.3215  0.8101
  354TIP3    H122697   4.914   4.874   2.526  0.9177 -0.4844 -0.1733
  354TIP3    H222698   4.936   5.011   2.589 -0.2700 -0.4992  0.3014
  355TIP3   OH222699   1.965   0.284   8.036  0.6136 -0.0709  0.6712
  355TIP3    H122700   2.053   0.266   8.005 -0.1057 -1.8629 -0.5001
  355TIP3    H222701   1.975   0.301   8.129  2.3394  1.2902  0.2977
  356TIP3   OH222702   5.056   2.408   7.731  0.0486  0.1075  0.1617
  356TIP3    H122703   5.122   2.387   7.797  1.0607  0.5381 -0.6700
  356TIP3    H222704   5.074   2.500   7.708 -0.1510 -0.0869 -0.8341
  357TIP3   OH222705   0.823   4.866   1.387  0.1537 -0.3237 -0.1408
  357TIP3    H122706   0.905   4.816   1.383 -0.1518 -0.9027  0.5470
  357TIP3    H222707   0.755   4.799   1.400 -0.3799  0.1934 -0.2144
  358TIP3   OH222708   1.766   1.923   7.124  0.2306  0.0965  0.1932
  358TIP3    H122709   1.706   1.855   7.091 -1.7125  2.4207 -1.4222
  358TIP3    H222710   1.837   1.924   7.060 -0.2609  0.2628 -0.3618
  359TIP3   OH222711   0.387   4.949   0.045 -0.1744 -0.7069 -0.1326
  359TIP3    H122712   0.447   4.889   0.002  1.7661  1.4027 -0.5570
  359TIP3    H222713   0.395   4.929   0.138 -0.4805 -1.8520 -0.3332
  360TIP3   OH222714   6.752   4.703   1.361  0.2393 -0.1591 -0.0299
  360TIP3    H122715   6.716   4.792   1.356 -1.4264 -0.7747  0.0739
  360TIP3    H222716   6.767   4.688   1.454 -0.2227 -0.2394  0.0366
  361TIP3   OH222717   2.725   0.645   0.376  0.3581 -0.6658 -0.4777
  361TIP3    H122718   2.739   0.556   0.345 -0.5173 -1.5859  1.5635
  361TIP3    H222719   2.629   0.654   0.378  0.4389  0.5030 -1.0981
  362TIP3   OH222720   1.577   1.164   1.208 -0.5406 -0.2321 -0.5865
  362TIP3    H122721   1.627   1.230   1.160 -1.1500  0.8499  0.2410
  362TIP3    H222722   1.487   1.175   1.176 -2.1008  3.8945  4.0248
  363TIP3   OH222723   2.698   2.807   7.886  0.4176 -0.2110 -0.4936
  363TIP3    H122724   2.688   2.844   7.974  1.9081  1.3154 -0.9175
  363TIP3    H222725   2.614   2.765   7.869 -0.4146  0.6811  1.1082
  364TIP3   OH222726   6.735   5.825   7.692 -0.3087 -0.0860 -0.3016
  364TIP3    H122727   6.665   5.888   7.678  0.7028  1.0218 -0.5656
  364TIP3    H222728   6.802   5.874   7.740  1.9416  0.1088 -3.3788
  365TIP3   OH222729   1.525   3.224   7.882  0.3601 -0.4003 -0.8255
  365TIP3    H122730   1.615   3.257   7.883  0.2353 -0.0564 -1.0301
  365TIP3    H222731   1.535   3.129   7.876  0.7373 -0.5064  0.9451
  366TIP3   OH222732   3.311   0.441   0.619 -0.4916 -0.0036 -0.1063
  366TIP3    H122733   3.254   0.495   0.564 -0.6788 -1.2982 -1.2308
  366TIP3    H222734   3.400   0.459   0.586 -0.6380 -1.1234 -1.2180
  367TIP3   OH222735   1.162   4.493   8.169  0.1938 -0.0112  0.0419
  367TIP3    H122736   1.093   4.530   8.224 -1.0192 -2.6293  0.4176
  367TIP3    H222737   1.120   4.482   8.083  1.1596  1.2238 -0.6411
  368TIP3   OH222738   4.090   3.140   1.979 -0.0919  0.1216 -1.0379
  368TIP3    H122739   4.104   3.232   1.954  1.8819 -0.2652 -1.5351
  368TIP3    H222740   4.178   3.104   1.986 -0.7601 -1.3031  0.8882
  369TIP3   OH222741   5.397   1.628   7.624 -0.6319  0.5076  0.1271
  369TIP3    H122742   5.485   1.635   7.586 -0.3414  1.1276  0.8840
  369TIP3    H222743   5.339   1.662   7.556 -0.2927  0.0821 -0.3878
  370TIP3   OH222744   2.904   0.970   1.998 -0.1365  0.3676  0.4110
  370TIP3    H122745   2.997   0.980   2.019 -0.0377 -0.7729  0.6034
  370TIP3    H222746   2.861   0.962   2.084 -0.3945  0.6867  0.3168
  371TIP3   OH222747   4.588   5.876   1.941  0.4535  0.1354 -0.1733
  371TIP3    H122748   4.570   5.803   2.001  0.9425 -0.9075 -1.2643
  371TIP3    H222749   4.679   5.863   1.915  0.7097  1.4370 -0.0140
  372TIP3   OH222750   4.722   5.659   2.155 -0.0017 -0.5542  0.2812
  372TIP3    H122751   4.800   5.648   2.100  0.0491 -1.5407  0.5313
  372TIP3    H222752   4.699   5.570   2.183  0.3614 -0.0372  2.3994
  373TIP3   OH222753   2.319   4.446   2.170 -0.3344 -0.1992 -0.1306
  373TIP3    H122754   2.238   4.443   2.120 -1.3240  3.0252  1.0296
  373TIP3    H222755   2.378   4.499   2.117  1.2609 -2.8107 -1.1327
  374TIP3   OH222756   5.813   1.086   1.834 -0.2893 -0.0998  0.5374
  374TIP3    H122757   5.724   1.104   1.806 -0.1193  0.4724  0.3424
  374TIP3    H222758   5.857   1.054   1.755 -0.0437  0.6664  0.3473
  375TIP3   OH222759   1.486   6.092   0.104 -0.9605  0.0087 -0.6033
  375TIP3    H122760   1.533   6.175   0.110 -1.0881 -0.0255  3.3506
  375TIP3    H222761   1.462   6.085   0.011  2.9242  2.1156 -2.0117
  376TIP3   OH222762   1.258   4.370   1.552  0.1575  0.1422  0.6993
  376TIP3    H122763   1.305   4.288   1.567 -0.9176 -0.5176  0.5415
  376TIP3    H222764   1.167   4.350   1.574 -0.7995  0.2399 -2.6284
  377TIP3   OH222765   0.963   6.276   0.104  0.0857  0.2859  0.4054
  377TIP3    H122766   0.977   6.234   0.019 -2.1370  1.3081 -0.5393
  377TIP3    H222767   1.048   6.314   0.126  2.0417 -3.8842  0.9755
  378TIP3   OH222768   1.931   4.263   1.173  0.1815 -0.5685  0.2384
  378TIP3    H122769   1.861   4.316   1.210  0.6366 -0.2805  0.7134
  378TIP3    H222770   1.901   4.240   1.085 -0.1356  0.2656  0.1192
  379TIP3   OH222771   4.429   3.844   1.772 -0.3242 -0.1466 -0.3966
  379TIP3    H122772   4.444   3.778   1.840 -0.3166 -0.7913 -1.0112
  379TIP3    H222773   4.333   3.853   1.768 -0.2995  0.6317  0.3789
  380TIP3   OH222774   5.046   1.805   0.042 -0.0156  0.3123  0.1523
  380TIP3    H122775   5.070   1.714   0.060 -0.1270  0.3584  0.5585
  380TIP3    H222776   5.095   1.855   0.107  1.4836  0.7181 -1.2216
  381TIP3   OH222777   1.930   4.886   8.399  0.4121  0.2000  0.4654
  381TIP3    H122778   1.877   4.886   8.319  0.0918  1.9606  0.6317
  381TIP3    H222779   2.014   4.849   8.371 -0.5526 -1.7772 -0.0112
  382TIP3   OH222780   0.441   5.859   8.257 -0.2188 -0.5179 -0.0118
  382TIP3    H122781   0.392   5.883   8.336  0.4968 -3.0067  1.2913
  382TIP3    H222782   0.533   5.870   8.282  0.0202  1.3465 -1.4877
  383TIP3   OH222783   5.163   5.177   8.397 -0.1990  0.4440  0.0066
  383TIP3    H122784   5.213   5.110   8.351 -1.0475 -0.1038 -0.1245
  383TIP3    H222785   5.154   5.143   8.486 -0.3820  0.5192  0.0172
  384TIP3   OH222786   2.009   6.661   1.394 -0.5095  0.5100  0.6283
  384TIP3    H122787   2.028   6.719   1.468  0.5022 -0.6863  1.3453
  384TIP3    H222788   2.080   6.596   1.395 -0.8623  0.0546 -0.9742
  385TIP3   OH222789   4.969   3.456   0.826 -0.6700  0.2459  0.5825
  385TIP3    H122790   4.967   3.377   0.881 -0.9372  1.5311  2.5041
  385TIP3    H222791   4.978   3.528   0.888 -0.9919  1.7891 -1.0883
  386TIP3   OH222792   4.054   5.340   2.652 -0.0727 -0.6124 -0.7709
  386TIP3    H122793   4.046   5.395   2.730  0.6580 -0.6216 -0.6814
  386TIP3    H222794   3.989   5.271   2.665 -0.1399 -0.4694 -0.3008
  387TIP3   OH222795   2.221   5.257   1.601 -0.4751 -0.2135 -0.3217
  387TIP3    H122796   2.198   5.221   1.687 -1.2311  0.3572 -0.2665
  387TIP3    H222797   2.316   5.259   1.600 -0.3943  2.1030  1.5417
  388TIP3   OH222798   5.524   4.421   1.550  0.6799  0.2878  0.1825
  388TIP3    H122799   5.538   4.477   1.627  0.2715 -0.5810  0.9161
  388TIP3    H222800   5.520   4.333   1.586 -1.4574  0.0223 -0.5723
  389TIP3   OH222801   3.130   5.852   1.861  0.2785  0.0562 -0.1603
  389TIP3    H122802   3.180   5.829   1.939  0.8299  0.3462 -0.4194
  389TIP3    H222803   3.153   5.784   1.797 -0.5187 -0.4386  0.0630
  390TIP3   OH222804   3.077   6.712   1.470 -0.5668 -0.4635 -0.0345
  390TIP3    H122805   3.165   6.750   1.481 -0.7409  0.4297 -1.5361
  390TIP3    H222806   3.065   6.659   1.549  0.2294  1.5556  1.5450
  391TIP3   OH222807   6.513   6.304   7.573 -0.0576 -0.2171  0.1957
  391TIP3    H122808   6.438   6.279   7.628 -0.9589  1.4502 -0.1944
  391TIP3    H222809   6.477   6.368   7.512  1.4512 -0.2745 -0.7936
  392TIP3   OH222810   0.631   1.135   8.450 -0.1332  0.0313  0.1563
  392TIP3    H122811   0.648   1.041   8.446  1.6079  0.3858 -1.9552
  392TIP3    H222812   0.538   1.143   8.429 -0.5978 -1.2451  1.5166
  393TIP3   OH222813   4.902   0.387   8.622  0.3340  0.9862  0.1151
  393TIP3    H122814   4.844   0.445   8.672  1.0382  1.2921  0.5891
  393TIP3    H222815   4.888   0.413   8.531  0.2134  1.5165  0.2778
  394TIP3   OH222816   0.317   6.894   0.152 -0.5456  0.3825 -0.2253
  394TIP3    H122817   0.346   6.982   0.178  1.8899  0.2160 -2.0050
  394TIP3    H222818   0.257   6.910   0.079  0.1768  0.5810 -0.7852
  395TIP3   OH222819   3.922   1.783   1.275 -0.3068  0.3413  0.0263
  395TIP3    H122820   3.917   1.832   1.193 -1.0224 -0.5127 -0.4486
  395TIP3    H222821   3.844   1.810   1.324 -1.5122 -1.3754 -0.8548
  396TIP3   OH222822   4.103   4.374   8.182 -0.0005  1.2371  0.5120
  396TIP3    H122823   4.031   4.382   8.244 -1.3615  0.3510 -0.8880
  396TIP3    H222824   4.175   4.339   8.234 -1.5090 -0.8094  1.3920
  397TIP3   OH222825   3.420   5.385   0.942  0.7001 -0.2473  0.7054
  397TIP3    H122826   3.493   5.446   0.960 -0.1321  0.6085  1.2972
  397TIP3    H222827   3.453   5.300   0.968  1.5867  0.0864  0.7149
  398TIP3   OH222828   2.404   3.218   0.879 -0.4151  0.2211 -0.0709
  398TIP3    H122829   2.448   3.277   0.940  1.1638 -0.7188 -0.2359
  398TIP3    H222830   2.435   3.245   0.793 -0.1743 -0.4226 -0.1947
  399TIP3   OH222831   0.128   1.912   1.292  0.1679  0.2093  0.1434
  399TIP3    H122832   0.154   1.942   1.205  1.1109 -0.7435  0.0695
  399TIP3    H222833   0.168   1.825   1.300 -2.9729 -1.3490  0.0872
  400TIP3   OH222834   0.050   6.413   1.641  0.3094 -0.5490  0.1958
  400TIP3    H122835   0.065   6.366   1.723 -1.6674 -0.1522  0.8169
  400TIP3    H222836  -0.035   6.382   1.610  0.5112  0.1403 -1.1353
  401TIP3   OH222837   6.337   2.415   7.389  0.3156  0.8847  0.6724
  401TIP3    H122838   6.270   2.459   7.442 -1.7507 -1.7616  0.4910
  401TIP3    H222839   6.375   2.485   7.335 -1.9754  2.6266  1.1425
  402TIP3   OH222840   1.504   2.062   0.188  0.1146 -0.1746 -0.3426
  402TIP3    H122841   1.531   1.984   0.237 -0.5369 -1.0948 -1.4114
  402TIP3    H222842   1.409   2.055   0.182 -0.2250  1.8205  1.3552
  403TIP3   OH222843   1.851   3.877   2.349  0.5506  0.0839  0.2032
  403TIP3    H122844   1.931   3.871   2.401  0.1146 -1.7372  0.7239
  403TIP3    H222845   1.780   3.864   2.412 -0.2567  2.4127 -0.1210
  404TIP3   OH222846   5.727   6.324   2.027 -0.8225  0.4498  1.0230
  404TIP3    H122847   5.761   6.266   1.959 -0.9811  1.1762  0.3226
  404TIP3    H222848   5.718   6.267   2.104 -1.2639 -0.5301  0.2666
  405TIP3   OH222849   0.012   2.309   6.986 -0.2374 -0.3846 -0.1777
  405TIP3    H122850  -0.076   2.327   7.018  0.2468  0.2742  0.8427
  405TIP3    H222851   0.017   2.213   6.983 -0.1412 -0.5171  2.3192
  406TIP3   OH222852   6.235   3.741   8.287  0.1517  0.2994  0.3833
  406TIP3    H122853   6.276   3.695   8.214  0.2152  1.6142 -0.4233
  406TIP3    H222854   6.252   3.684   8.363  0.2731 -0.9695 -0.5598
  407TIP3   OH222855   3.427   2.693   0.325 -0.3902  0.0611 -0.5345
  407TIP3    H122856   3.390   2.678   0.239 -1.7898  0.0655  0.0345
  407TIP3    H222857   3.414   2.611   0.372  0.1424  0.1336 -0.2556
  408TIP3   OH222858   1.849   1.268   2.384  0.1154 -0.3405 -0.3508
  408TIP3    H122859   1.868   1.340   2.445  0.6661 -0.4147 -0.4306
  408TIP3    H222860   1.868   1.189   2.434  0.2778 -0.4098 -0.5249
  409TIP3   OH222861   3.367   6.235   1.241  0.8489  0.2911 -0.1276
  409TIP3    H122862   3.431   6.290   1.287  2.4270 -1.6057  0.0815
  409TIP3    H222863   3.349   6.163   1.302  1.4835 -1.2386 -1.6531
  410TIP3   OH222864   6.265   5.391   7.306  0.2334  0.3388 -0.3475
  410TIP3    H122865   6.240   5.316   7.359  0.5258  0.2243 -0.3724
  410TIP3    H222866   6.341   5.362   7.256  0.0643  0.5014 -0.7045
  411TIP3   OH222867   4.771   6.487   1.805  0.7557  0.3611  0.2501
  411TIP3    H122868   4.679   6.502   1.827  0.7550  0.7241  0.0266
  411TIP3    H222869   4.808   6.445   1.882  0.0360 -1.2701 -0.2556
  412TIP3   OH222870   3.041   6.305   7.511 -0.1380  0.9652 -0.1028
  412TIP3    H122871   3.062   6.379   7.453 -0.5943  1.3412  0.2035
  412TIP3    H222872   3.050   6.228   7.455  0.6829  1.2185 -0.3371
  413TIP3   OH222873   5.474   4.229   6.634  0.2366  0.3506 -0.6244
  413TIP3    H122874   5.384   4.224   6.602  0.6656 -1.0565 -1.6798
  413TIP3    H222875   5.521   4.162   6.586  1.2780 -0.8686  1.9113
  414TIP3   OH222876   5.930   5.302   7.270 -0.6005  0.2248 -0.0729
  414TIP3    H122877   5.988   5.233   7.303  1.6758  2.1644  0.2404
  414TIP3    H222878   5.925   5.286   7.176 -0.2831 -0.4763  0.0239
  415TIP3   OH222879   0.229   3.167   7.999  0.4425 -0.5818  0.0243
  415TIP3    H122880   0.217   3.251   8.043  2.6186 -0.5019  0.6183
  415TIP3    H222881   0.152   3.116   8.023 -0.7155  1.0937 -0.0107
  416TIP3   OH222882   0.857   5.418   7.865  0.4603  0.1841  0.0256
  416TIP3    H122883   0.844   5.485   7.931 -0.9653 -0.8281  0.8348
  416TIP3    H222884   0.778   5.365   7.868  0.9188 -0.6840 -1.5959
  417TIP3   OH222885   4.245   4.836   6.972 -0.4137  0.3429  0.1133
  417TIP3    H122886   4.189   4.891   6.918 -0.0951  0.3605 -0.2064
  417TIP3    H222887   4.189   4.807   7.044 -0.5214  1.2860  0.4222
  418TIP3   OH222888   5.963   6.588   6.908  0.1147  0.5008  0.8174
  418TIP3    H122889   5.914   6.506   6.904 -1.9850  1.6769 -2.8355
  418TIP3    H222890   5.926   6.634   6.983 -2.9133  0.3552 -0.4414
  419TIP3   OH222891   0.501   6.160   0.608  0.2919 -0.2980  0.7923
  419TIP3    H122892   0.447   6.116   0.673  0.6644 -0.1189  1.2299
  419TIP3    H222893   0.493   6.106   0.529  0.2324 -0.7932  1.1321
  420TIP3   OH222894   4.295   5.814   3.136  0.7482 -0.2876  0.3485
  420TIP3    H122895   4.242   5.739   3.162 -0.0489  0.3410  0.5726
  420TIP3    H222896   4.379   5.801   3.180  0.3061 -0.5726  1.1147
  421TIP3   OH222897   3.403   6.839   8.418 -0.0767 -0.7734  0.3227
  421TIP3    H122898   3.363   6.758   8.386  0.9436 -1.2400  0.2015
  421TIP3    H222899   3.382   6.842   8.511  0.7329 -1.7072  0.5495
  422TIP3   OH222900   5.623   1.416   7.425 -0.3035  0.0250 -0.0617
  422TIP3    H122901   5.657   1.329   7.440 -0.3445  0.2245  1.2712
  422TIP3    H222902   5.529   1.403   7.413 -1.0037  0.1595  3.9019
  423TIP3   OH222903   5.300   5.994   7.804  0.0932 -0.2256 -0.8153
  423TIP3    H122904   5.338   5.919   7.849 -2.6607 -1.3143 -0.1162
  423TIP3    H222905   5.276   5.961   7.718 -1.1176 -0.1836 -0.5118
  424TIP3   OH222906   6.397   5.082   0.007  0.2938  0.1422  1.0756
  424TIP3    H122907   6.477   5.030  -0.006  0.0688  0.1929 -0.9313
  424TIP3    H222908   6.428   5.165   0.043  0.8527 -0.6880  2.6253
  425TIP3   OH222909   2.595   5.130   8.595 -0.1312  0.4090 -0.2277
  425TIP3    H122910   2.555   5.181   8.524  1.4278  0.6387 -0.9909
  425TIP3    H222911   2.685   5.161   8.598  1.2419 -2.9499 -1.4110
  426TIP3   OH222912   4.345   4.270   6.828  0.1225 -0.2870  0.3880
  426TIP3    H122913   4.297   4.293   6.748  0.2598 -1.7936 -0.1474
  426TIP3    H222914   4.411   4.339   6.837  0.8529 -0.6948 -1.4449
  427TIP3   OH222915   1.787   3.340   0.559  0.0208 -0.1994  0.2855
  427TIP3    H122916   1.874   3.300   0.568 -0.5915 -1.5557  0.4321
  427TIP3    H222917   1.745   3.326   0.643 -0.4477  0.2037  0.1251
  428TIP3   OH222918   0.092   6.692   1.572 -0.0304 -0.5602  0.2664
  428TIP3    H122919   0.016   6.712   1.627  0.0570 -0.5874  0.3970
  428TIP3    H222920   0.101   6.597   1.577  0.2824 -0.5169  0.6139
  429TIP3   OH222921   0.809   6.354   8.407 -0.2657 -0.2916  0.1425
  429TIP3    H122922   0.842   6.437   8.440  1.1565 -1.0967  0.8307
  429TIP3    H222923   0.744   6.379   8.341 -1.0599  1.3465  1.4676
  430TIP3   OH222924   1.166   1.372   1.780 -0.2854 -0.1041  0.4417
  430TIP3    H122925   1.086   1.368   1.727  0.2947  1.5433 -0.6380
  430TIP3    H222926   1.210   1.452   1.751  0.9795 -0.1258  2.1526
  431TIP3   OH222927   0.860   3.791   1.553 -0.4216 -0.2181 -0.0018
  431TIP3    H122928   0.944   3.836   1.541  0.3870 -1.2763  1.4143
  431TIP3    H222929   0.868   3.712   1.500  0.4807 -1.5137  1.9450
  432TIP3   OH222930   6.872   4.073   0.970  0.4425 -0.3154 -0.2585
  432TIP3    H122931   6.914   4.057   0.886  0.2745 -0.5667 -0.2990
  432TIP3    H222932   6.903   4.159   0.998 -0.1271  0.1285 -0.9557
  433TIP3   OH222933   2.634   4.459   1.049 -0.4324 -0.2994  0.0021
  433TIP3    H122934   2.690   4.422   0.981  0.7670  1.8239 -0.2634
  433TIP3    H222935   2.694   4.478   1.121 -1.2680 -0.2946  0.7185
  434TIP3   OH222936   1.880   0.661   8.516  0.5586 -0.0533  0.0970
  434TIP3    H122937   1.939   0.595   8.551 -1.0535 -1.6875 -0.0872
  434TIP3    H222938   1.830   0.615   8.448  0.7069  1.8950 -1.4288
  435TIP3   OH222939   2.353   0.930   2.073  0.1186 -0.1575  0.6307
  435TIP3    H122940   2.372   0.849   2.024  0.1151 -0.4982  1.1848
  435TIP3    H222941   2.391   0.915   2.160  1.3187  0.9799  0.3341
  436TIP3   OH222942   1.649   1.704   7.416  0.1150  0.3648  0.1139
  436TIP3    H122943   1.601   1.623   7.436 -2.0962  1.5229 -0.2683
  436TIP3    H222944   1.696   1.724   7.497  0.3372 -1.0387  0.3598
  437TIP3   OH222945   1.752   5.096   0.799  0.1623 -0.1960  0.2234
  437TIP3    H122946   1.846   5.085   0.785 -0.2199  0.5679 -4.7450
  437TIP3    H222947   1.739   5.191   0.801 -0.5077 -0.2930  1.1377
  438TIP3   OH222948   5.305   6.729   8.104 -0.0283  0.1334 -0.3697
  438TIP3    H122949   5.214   6.739   8.077 -0.3194 -1.9208 -0.3072
  438TIP3    H222950   5.327   6.813   8.145 -1.4009  1.2061 -1.7104
  439TIP3   OH222951   6.896   1.191   8.328 -0.3498 -0.2365  0.5065
  439TIP3    H122952   6.968   1.170   8.269  0.6514 -0.6920  1.8425
  439TIP3    H222953   6.842   1.253   8.279  0.8313 -0.0450 -0.6027
  440TIP3   OH222954   4.990   1.728   6.725  0.1411 -0.0404  0.2067
  440TIP3    H122955   5.039   1.792   6.672  0.3161  0.1478  0.5885
  440TIP3    H222956   5.028   1.644   6.702 -0.6251 -0.1191 -0.9052
  441TIP3   OH222957   5.647   1.298   1.235  0.2986 -0.0892 -0.0103
  441TIP3    H122958   5.697   1.369   1.196  0.0523 -0.6569 -1.4031
  441TIP3    H222959   5.595   1.340   1.304  0.4567  1.0022 -0.5378
  442TIP3   OH222960   4.224   3.195   6.644  0.2162  0.0776 -0.5372
  442TIP3    H122961   4.297   3.167   6.588 -0.5228 -1.6704 -0.7054
  442TIP3    H222962   4.254   3.276   6.685  1.2641  0.7583 -2.5158
  443TIP3   OH222963   1.462   4.860   7.783 -0.0532 -0.0229 -0.4185
  443TIP3    H122964   1.513   4.894   7.857 -0.6575  1.2694 -0.5757
  443TIP3    H222965   1.515   4.787   7.750  1.1835  0.6164  0.0735
  444TIP3   OH222966   6.394   4.984   1.602  0.4853 -0.0342  0.4886
  444TIP3    H122967   6.325   4.978   1.537  0.5170  1.4214  0.2852
  444TIP3    H222968   6.416   5.077   1.605  0.3256 -0.0155  2.7503
  445TIP3   OH222969   2.688   5.023   7.173 -0.1691  0.1155 -0.4029
  445TIP3    H122970   2.764   5.057   7.220 -0.3800 -1.3420  1.0812
  445TIP3    H222971   2.681   5.079   7.096  1.7573  0.9605 -0.0354
  446TIP3   OH222972   0.139   2.276   7.918 -0.0731  0.3687  0.4358
  446TIP3    H122973   0.219   2.233   7.948 -0.8334 -0.7034  1.0123
  446TIP3    H222974   0.071   2.208   7.925 -0.6346  0.5694 -2.1425
  447TIP3   OH222975   4.759   0.188   0.094  0.0580  0.7101 -0.2633
  447TIP3    H122976   4.827   0.244   0.057  1.2091 -0.7785 -0.5219
  447TIP3    H222977   4.769   0.105   0.047 -1.6193  0.2929  0.0583
  448TIP3   OH222978   0.397   0.868   7.214 -0.2934 -0.3614 -1.0747
  448TIP3    H122979   0.437   0.916   7.141  2.2418 -0.8189 -0.0946
  448TIP3    H222980   0.366   0.936   7.273 -0.4325  0.0236 -1.5823
  449TIP3   OH222981   0.538   1.885   6.957  0.0276  0.2858 -0.0164
  449TIP3    H122982   0.591   1.866   6.879 -1.2665 -1.6672 -0.4636
  449TIP3    H222983   0.578   1.832   7.026 -0.0549  0.4782  0.1798
  450TIP3   OH222984   5.248   0.263   0.333 -0.1430 -0.1700  0.0782
  450TIP3    H122985   5.198   0.213   0.269 -0.8828  0.3646  0.2335
  450TIP3    H222986   5.284   0.336   0.283 -0.2376 -0.0716  0.1555
  451TIP3   OH222987   6.785   0.643   8.087 -0.4203  0.2023  0.3000
  451TIP3    H122988   6.741   0.625   8.003 -0.9470 -0.8766  0.7980
  451TIP3    H222989   6.722   0.697   8.135  0.1686  1.4328 -0.2389
  452TIP3   OH222990   5.586   5.923   0.522  0.1504  0.2119 -0.4965
  452TIP3    H122991   5.542   5.996   0.478 -0.7191 -0.7392 -1.2400
  452TIP3    H222992   5.665   5.909   0.470 -0.0474  0.1622 -0.7889
  453TIP3   OH222993   2.880   3.356   7.129 -0.0831 -0.1077 -0.0272
  453TIP3    H122994   2.890   3.290   7.060 -1.2492 -0.5126  0.1698
  453TIP3    H222995   2.969   3.372   7.160  0.4151 -0.2273 -1.3343
  454TIP3   OH222996   4.995   1.328   8.042  0.5010  0.4790  0.2490
  454TIP3    H122997   4.972   1.399   8.102 -1.2580  0.4971 -0.4095
  454TIP3    H222998   4.926   1.327   7.977  2.4486  0.5729 -1.9549
  455TIP3   OH222999   6.800   3.867   1.334 -0.0274  0.0428  0.6150
  455TIP3    H123000   6.851   3.925   1.277 -1.4172  0.3785 -0.3260
  455TIP3    H223001   6.814   3.780   1.297  0.6131 -0.0040  0.9449
  456TIP3   OH223002   3.183   5.802   6.816  0.1114 -0.0421 -0.8460
  456TIP3    H123003   3.091   5.822   6.830  0.0789  0.0477 -1.1714
  456TIP3    H223004   3.216   5.877   6.766  0.6711  0.5723  0.3759
  457TIP3   OH223005   3.069   0.808   1.489  0.2786  0.4853 -0.1962
  457TIP3    H123006   3.010   0.734   1.472 -2.9793  2.5305  1.3450
  457TIP3    H223007   3.106   0.789   1.575  0.3541  0.1522 -0.2969
  458TIP3   OH223008   5.840   4.585   8.629 -0.0356  0.0741  1.0921
  458TIP3    H123009   5.747   4.586   8.607  0.3147 -0.1951 -0.5334
  458TIP3    H223010   5.871   4.499   8.601  1.1174  0.9276 -0.4367
  459TIP3   OH223011   0.650   3.706   1.205  0.2179 -0.3312  0.2295
  459TIP3    H123012   0.732   3.704   1.156 -0.9126  2.4992 -2.1416
  459TIP3    H223013   0.588   3.657   1.151 -0.3249  0.1451  0.4029
  460TIP3   OH223014   1.955   5.364   0.727  0.0270  0.3613 -0.2579
  460TIP3    H123015   2.012   5.373   0.651 -0.5090 -0.5451 -0.7803
  460TIP3    H223016   2.010   5.388   0.802  0.9577 -0.0737 -0.7978
  461TIP3   OH223017   3.218   0.422   0.142 -0.6204  0.2307 -0.1027
  461TIP3    H123018   3.233   0.516   0.128 -1.5720  0.1478 -1.9215
  461TIP3    H223019   3.127   0.416   0.168 -0.9388 -0.2774 -1.2754
  462TIP3   OH223020   4.514   1.742   2.268  0.1530 -0.6921 -0.2495
  462TIP3    H123021   4.545   1.712   2.354 -0.8105 -1.6793 -0.2226
  462TIP3    H223022   4.483   1.662   2.225 -2.8444  0.2257 -0.0482
  463TIP3   OH223023   4.908   6.761   1.873 -0.2785  0.3891 -0.1689
  463TIP3    H123024   4.880   6.708   1.947  1.0871  1.3889  1.1263
  463TIP3    H223025   4.832   6.764   1.815 -1.2560 -0.7265  1.0027
  464TIP3   OH223026   4.342   3.769   1.049  0.1778 -0.0632 -0.6290
  464TIP3    H123027   4.249   3.761   1.072 -0.0602  0.8024 -1.2041
  464TIP3    H223028   4.361   3.862   1.062  1.2899 -0.4455  0.6177
  465TIP3   OH223029   2.238   4.229   7.426 -0.1621  0.2865  0.3024
  465TIP3    H123030   2.306   4.231   7.359 -0.4652 -1.7161 -0.1291
  465TIP3    H223031   2.223   4.136   7.443 -0.9162  0.7117  2.3352
  466TIP3   OH223032   5.636   0.783   6.489  0.0656 -0.1405  0.1958
  466TIP3    H123033   5.717   0.833   6.484  0.4594 -0.7687  0.1738
  466TIP3    H223034   5.567   0.849   6.493  0.4947  0.4055 -1.0154
  467TIP3   OH223035   0.787   6.065   1.808  0.1401 -0.3082  0.1520
  467TIP3    H123036   0.869   6.112   1.798  0.3923 -1.0624 -1.5572
  467TIP3    H223037   0.733   6.122   1.863  1.4770  0.5880  0.5729
  468TIP3   OH223038   1.010   5.969   1.185  0.9881 -0.5547 -0.4321
  468TIP3    H123039   0.963   6.014   1.255  2.1143 -1.0126  0.6649
  468TIP3    H223040   0.980   6.011   1.105  1.1075  1.3525  0.4662
  469TIP3   OH223041   1.614   6.048   2.326  0.1030  0.3905 -0.2303
  469TIP3    H123042   1.533   6.000   2.341  0.8237 -0.6210  0.5634
  469TIP3    H223043   1.680   5.981   2.312  0.7556  1.2063 -1.2025
  470TIP3   OH223044   6.619   6.343   8.014  0.1637 -0.0774 -0.8435
  470TIP3    H123045   6.551   6.410   8.010 -0.4568 -0.6997 -1.0365
  470TIP3    H223046   6.656   6.342   7.926 -0.1617 -0.3171 -0.9818
  471TIP3   OH223047   2.344   1.488   8.425  0.0500  0.7717  0.3137
  471TIP3    H123048   2.270   1.485   8.364 -0.6977 -0.8282  1.2548
  471TIP3    H223049   2.413   1.532   8.375  0.0222 -1.8600 -2.3180
  472TIP3   OH223050   0.656   0.469   6.785 -0.3707 -0.5509 -0.4478
  472TIP3    H123051   0.652   0.516   6.701  2.3034  0.4997 -0.1147
  472TIP3    H223052   0.726   0.514   6.833 -2.1767 -0.7604  2.6093
  473TIP3   OH223053   6.890   6.047   7.757 -0.5022 -0.6591 -0.1772
  473TIP3    H123054   6.968   6.065   7.810 -0.1227  0.6482 -1.1469
  473TIP3    H223055   6.817   6.053   7.819  0.0246 -0.2051  0.4103
  474TIP3   OH223056   3.107   3.154   2.112  0.4084  0.1099  0.2538
  474TIP3    H123057   3.195   3.179   2.139  0.5229 -0.4062  0.3571
  474TIP3    H223058   3.053   3.230   2.135  0.6533  0.0226  1.1369
  475TIP3   OH223059   1.728   4.713   1.111  0.6313  0.4170  0.0256
  475TIP3    H123060   1.735   4.806   1.133  1.5023  0.2483  0.5155
  475TIP3    H223061   1.659   4.709   1.045  0.6357  1.4217 -0.0558
  476TIP3   OH223062   1.120   0.293   7.301 -0.2399 -0.1264 -0.3179
  476TIP3    H123063   1.093   0.383   7.283 -0.8006 -0.5377 -1.6798
  476TIP3    H223064   1.124   0.252   7.214  2.8913 -0.6465 -0.0260
  477TIP3   OH223065   3.244   2.521   2.490  0.2941 -0.2689  0.6310
  477TIP3    H123066   3.317   2.491   2.545  1.2576 -1.0181 -0.9515
  477TIP3    H223067   3.284   2.583   2.429 -0.4951 -0.3237  0.0413
  478TIP3   OH223068   1.855   1.171   0.017 -0.2543  0.0638 -0.4323
  478TIP3    H123069   1.798   1.231  -0.031 -0.3233 -0.2345 -0.7342
  478TIP3    H223070   1.943   1.190  -0.015 -0.3915 -0.7267 -1.3469
  479TIP3   OH223071   5.053   4.868   6.542 -0.4920 -0.2401  0.2559
  479TIP3    H123072   5.098   4.792   6.580 -0.1371 -0.0556  0.2096
  479TIP3    H223073   5.053   4.850   6.448 -0.3245 -0.1394  0.2364
  480TIP3   OH223074   5.106   3.276   1.472 -0.2125 -0.3421  0.1339
  480TIP3    H123075   5.127   3.320   1.389 -0.3071  0.1643  0.3760
  480TIP3    H223076   5.183   3.221   1.490 -0.2967 -0.6481 -0.4132
  481TIP3   OH223077   0.952   6.696   1.742 -0.2502  0.0313 -0.3826
  481TIP3    H123078   0.997   6.722   1.822  0.0451  0.2083 -0.6057
  481TIP3    H223079   0.900   6.619   1.767 -0.6656  0.4714  0.1341
  482TIP3   OH223080   3.591   1.867   6.953 -0.3324  0.0765  0.0611
  482TIP3    H123081   3.539   1.893   7.029 -0.5376  0.0616 -0.0732
  482TIP3    H223082   3.643   1.945   6.932  0.3735 -0.1914  0.7447
  483TIP3   OH223083   3.736   5.349   7.262  0.2454 -0.6081 -0.3094
  483TIP3    H123084   3.723   5.363   7.168  0.3659 -0.1779 -0.2633
  483TIP3    H223085   3.726   5.436   7.301  1.0962 -0.6184 -0.0318
  484TIP3   OH223086   5.369   6.717   0.576 -0.3115  0.2841  0.5198
  484TIP3    H123087   5.283   6.757   0.559 -0.0730  0.9838  0.9301
  484TIP3    H223088   5.418   6.784   0.622 -0.0857 -0.6805  1.7396
  485TIP3   OH223089   2.732   4.202   7.720  0.6267  0.4573  0.6040
  485TIP3    H123090   2.739   4.281   7.667  2.6847  0.1678  0.3566
  485TIP3    H223091   2.802   4.145   7.688 -0.4624 -1.2754  1.1229
  486TIP3   OH223092   0.499   3.457   0.639  0.2244  0.5105  0.3114
  486TIP3    H123093   0.585   3.491   0.667 -0.6458  2.6516  0.5682
  486TIP3    H223094   0.465   3.524   0.580 -2.1010  0.6672  1.7326
  487TIP3   OH223095   4.150   3.433   0.866 -0.2544  0.0541 -0.4843
  487TIP3    H123096   4.120   3.502   0.807 -1.4153 -0.6069 -0.6879
  487TIP3    H223097   4.075   3.415   0.922  0.0862 -0.9390 -0.3331
  488TIP3   OH223098   3.717   6.190   0.117 -0.4674 -0.3922  0.4461
  488TIP3    H123099   3.768   6.248   0.061  2.5331 -4.1804 -1.1804
  488TIP3    H223100   3.626   6.201   0.088  0.0294  2.7943 -0.2210
  489TIP3   OH223101   6.468   5.007   6.902 -0.1391 -0.4888  0.4294
  489TIP3    H123102   6.562   4.987   6.911  0.3433  2.0704  2.1133
  489TIP3    H223103   6.455   5.017   6.808  1.2054 -1.1815  0.1368
  490TIP3   OH223104   1.738   1.209   1.919  0.0242 -0.0461 -0.2417
  490TIP3    H123105   1.650   1.217   1.883 -0.0023  0.8863  0.0273
  490TIP3    H223106   1.768   1.123   1.888 -1.2434 -0.7111  0.2698
  491TIP3   OH223107   5.187   4.178   8.451 -0.1876  0.4686  0.2618
  491TIP3    H123108   5.148   4.236   8.386  0.6499  1.9888  1.0405
  491TIP3    H223109   5.142   4.200   8.533  1.0680  1.0276  0.8315
  492TIP3   OH223110   6.165   0.477   2.105 -0.0220 -0.1110 -0.9303
  492TIP3    H123111   6.260   0.461   2.102  0.3808  2.2009 -2.2083
  492TIP3    H223112   6.130   0.428   2.031 -0.0209 -1.7859  0.1189
  493TIP3   OH223113   1.431   6.359   2.283  0.1320 -0.3122 -0.7331
  493TIP3    H123114   1.361   6.399   2.334 -0.3375 -1.2102 -0.6439
  493TIP3    H223115   1.387   6.288   2.234  1.0422 -1.1358 -0.3837
  494TIP3   OH223116   4.202   5.682   2.920  0.0284 -0.4456 -0.1107
  494TIP3    H123117   4.275   5.684   2.858 -0.5728 -0.5323 -0.8445
  494TIP3    H223118   4.226   5.744   2.988  0.5482 -0.0809 -0.6146
  495TIP3   OH223119   4.792   4.581   0.225 -0.1048  0.3980  0.3065
  495TIP3    H123120   4.720   4.551   0.170 -0.1233 -0.7589  0.9357
  495TIP3    H223121   4.824   4.502   0.268 -0.4352  1.3122  2.3797
  496TIP3   OH223122   5.956   0.855   7.056  0.3507 -0.4418  0.3564
  496TIP3    H123123   6.050   0.863   7.044  0.4329  1.0787  1.6956
  496TIP3    H223124   5.927   0.801   6.982  1.7868  1.9965 -2.1755
  497TIP3   OH223125   3.117   5.878   2.910 -0.0676 -0.3353  0.3175
  497TIP3    H123126   3.084   5.966   2.891  0.4038 -0.0752  0.6659
  497TIP3    H223127   3.085   5.858   2.998  0.4428 -0.2054  0.5351
  498TIP3   OH223128   3.756   6.371   8.214  0.2397 -0.0208  0.7871
  498TIP3    H123129   3.849   6.395   8.219  0.1970  1.0444 -2.0222
  498TIP3    H223130   3.714   6.426   8.281  1.1982  2.2474 -0.3541
  499TIP3   OH223131   4.804   0.049   7.880 -0.1054 -0.3145  0.3844
  499TIP3    H123132   4.872   0.008   7.826 -2.0243 -2.5846 -0.5244
  499TIP3    H223133   4.829   0.030   7.970  1.3856  0.5097  0.1642
  500TIP3   OH223134   4.567   3.289   7.600 -0.3990  0.0722  0.1227
  500TIP3    H123135   4.575   3.200   7.635  0.5492  1.1531  2.9814
  500TIP3    H223136   4.614   3.286   7.516 -1.4735 -2.3691 -0.4728
  501TIP3   OH223137   4.653   5.393   7.319 -0.3030  0.5318  0.0542
  501TIP3    H123138   4.666   5.313   7.268 -0.9354  0.4172  0.0713
  501TIP3    H223139   4.570   5.428   7.287  0.1042  1.3289 -0.1517
  502TIP3   OH223140   4.343   6.288   7.821 -0.2186  0.0197 -0.4452
  502TIP3    H123141   4.340   6.289   7.726  0.8028  0.4587 -0.4920
  502TIP3    H223142   4.287   6.216   7.847  1.3902 -1.6984 -1.4761
  503TIP3   OH223143   1.134   5.807   0.313  0.0081  0.1776  0.0776
  503TIP3    H123144   1.211   5.750   0.316 -0.5224 -0.5297  2.9844
  503TIP3    H223145   1.169   5.895   0.333  0.4735  0.5042 -1.9689
  504TIP3   OH223146   0.421   4.089   8.211 -0.1428 -0.1358 -0.4259
  504TIP3    H123147   0.394   4.018   8.152 -0.1711  0.8196 -1.6068
  504TIP3    H223148   0.517   4.085   8.209 -0.0598 -2.2626  2.2088
  505TIP3   OH223149   1.460   6.407   1.544  0.6239 -0.0716 -0.0040
  505TIP3    H123150   1.445   6.327   1.594  1.2937 -0.2548 -0.0876
  505TIP3    H223151   1.373   6.446   1.534  0.2455 -0.9728 -0.2892
  506TIP3   OH223152   0.315   4.303   0.755 -0.0159 -0.6835 -0.4043
  506TIP3    H123153   0.359   4.334   0.834 -0.7288 -0.3629 -0.1262
  506TIP3    H223154   0.226   4.337   0.762  0.3841  0.9574 -2.2276
  507TIP3   OH223155   6.391   0.809   7.828 -0.2906  0.2024  0.2512
  507TIP3    H123156   6.384   0.899   7.860  1.7914  0.2033  0.8706
  507TIP3    H223157   6.375   0.755   7.905  1.4439  0.1419  0.6095
  508TIP3   OH223158   4.192   5.822   1.565 -0.0352  0.3857  0.4742
  508TIP3    H123159   4.245   5.790   1.492  1.4414  2.0820  0.7012
  508TIP3    H223160   4.252   5.820   1.640 -0.7114  1.0603  1.0498
  509TIP3   OH223161   3.863   6.371   8.619 -0.3008 -0.3110  0.1278
  509TIP3    H123162   3.806   6.447   8.631  0.7153  0.7842 -1.5164
  509TIP3    H223163   3.952   6.407   8.626  0.2237 -1.7478  1.3785
  510TIP3   OH223164   0.342   0.157   1.755 -0.1459 -0.1395 -0.4065
  510TIP3    H123165   0.281   0.128   1.686 -1.8186 -0.4166  1.1299
  510TIP3    H223166   0.366   0.246   1.730 -2.0461  0.3761 -0.4966
  511TIP3   OH223167   0.580   0.074   0.289  0.2281  0.2662  0.2029
  511TIP3    H123168   0.663   0.097   0.248  0.4812 -0.3789  0.3282
  511TIP3    H223169   0.583  -0.022   0.295  0.4418  0.3452  2.2039
  512TIP3   OH223170   1.002   6.478   7.681  0.3147  0.4942  0.6315
  512TIP3    H123171   1.019   6.553   7.624 -0.0024  0.0012 -0.1257
  512TIP3    H223172   1.083   6.427   7.679 -0.1236 -0.1798 -0.3995
  513TIP3   OH223173   0.710   6.715   8.328  0.0303 -0.4182 -0.5123
  513TIP3    H123174   0.654   6.645   8.293  0.2070 -0.0418 -1.6067
  513TIP3    H223175   0.782   6.720   8.265  0.5004  0.1199  0.0692
  514TIP3   OH223176   2.121   4.462   7.130  0.2887  0.2437 -0.2891
  514TIP3    H123177   2.195   4.519   7.109 -1.0287  1.5450 -1.6705
  514TIP3    H223178   2.073   4.509   7.197 -0.0827  0.1008 -0.4555
  515TIP3   OH223179   0.217   4.817   1.336 -0.1656 -0.4887 -0.4067
  515TIP3    H123180   0.258   4.904   1.334 -0.3444 -0.3528  0.9228
  515TIP3    H223181   0.167   4.812   1.254  1.1123  0.0221 -1.2413
  516TIP3   OH223182   4.304   6.321   6.951 -0.3348 -0.0914  0.4753
  516TIP3    H123183   4.389   6.278   6.961  0.2219  0.3201 -1.8281
  516TIP3    H223184   4.326   6.415   6.947 -1.0967  0.1459  1.4141
  517TIP3   OH223185   5.110   5.486   0.463  0.6416  0.6193 -0.0767
  517TIP3    H123186   5.093   5.432   0.539  0.3057  0.4135 -0.2961
  517TIP3    H223187   5.023   5.505   0.427  0.7503  1.3323  0.0186
  518TIP3   OH223188   6.037   0.547   6.378 -0.1465  1.0129 -0.4207
  518TIP3    H123189   6.086   0.629   6.371 -0.8409  1.3754 -1.1730
  518TIP3    H223190   6.089   0.483   6.329  1.3898  0.5005  1.7679
  519TIP3   OH223191   0.953   2.245   7.158 -0.1303 -0.6539  0.1779
  519TIP3    H123192   1.007   2.189   7.103 -0.1192 -0.0775 -0.4078
  519TIP3    H223193   0.878   2.267   7.103 -2.2496 -3.3479  1.7252
  520TIP3   OH223194   2.353   2.251   8.628  0.1991 -0.5114  0.1755
  520TIP3    H123195   2.286   2.313   8.658 -0.6211 -0.0702 -2.3752
  520TIP3    H223196   2.307   2.168   8.618 -0.1020 -0.1338 -1.8820
  521TIP3   OH223197   4.651   5.517   1.820  0.3448  0.0553  0.3683
  521TIP3    H123198   4.686   5.556   1.741 -3.0779  1.1975 -0.7777
  521TIP3    H223199   4.594   5.446   1.790  0.1131 -0.4707  1.9119
  522TIP3   OH223200   5.851   5.661   1.575 -0.0834  0.1826  0.6183
  522TIP3    H123201   5.755   5.656   1.583 -0.0615  1.4431  2.1475
  522TIP3    H223202   5.866   5.691   1.486 -1.0591 -0.7983  0.0835
  523TIP3   OH223203   6.876   4.748   0.253 -0.7680 -0.1293 -0.1517
  523TIP3    H123204   6.830   4.719   0.332 -2.2671 -1.0928 -1.3199
  523TIP3    H223205   6.904   4.667   0.210  0.0646  0.3783 -0.5953
  524TIP3   OH223206   5.371   2.511   1.622  0.1334 -0.4098 -0.9919
  524TIP3    H123207   5.295   2.453   1.613  0.8727 -1.4149 -0.8308
  524TIP3    H223208   5.442   2.464   1.579  1.0882 -0.2772  0.4135
  525TIP3   OH223209   1.946   2.952   1.258 -0.1874  0.8397  0.1460
  525TIP3    H123210   1.949   3.033   1.309  0.6326  1.3740 -0.7276
  525TIP3    H223211   2.001   2.891   1.308  1.8745  1.8132 -0.7952
  526TIP3   OH223212   6.303   3.516   6.725 -0.2198 -0.3063  0.3669
  526TIP3    H123213   6.387   3.535   6.682  0.4848  0.9428  2.1405
  526TIP3    H223214   6.304   3.421   6.738  1.4635 -0.2226  1.2739
  527TIP3   OH223215   5.628   3.518   2.092 -0.1222 -0.5403  0.4072
  527TIP3    H123216   5.703   3.529   2.150 -0.8638 -1.3219  1.5450
  527TIP3    H223217   5.574   3.595   2.108  0.6482  0.2830 -0.7880
  528TIP3   OH223218   4.417   2.936   6.478  0.1604  0.2397  0.1277
  528TIP3    H123219   4.345   2.879   6.449 -0.4240  0.8259  0.4026
  528TIP3    H223220   4.496   2.890   6.451 -0.3461  0.3687 -1.6504
  529TIP3   OH223221   3.638   4.468   8.185  0.9438  0.0072 -0.8291
  529TIP3    H123222   3.557   4.467   8.134 -0.6860 -2.9288  1.4983
  529TIP3    H223223   3.694   4.403   8.142  0.4951 -0.7742 -0.2494
  530TIP3   OH223224   3.649   6.218   1.467 -0.7458 -0.2226  0.2147
  530TIP3    H123225   3.635   6.142   1.523 -0.5875 -0.1367  0.3727
  530TIP3    H223226   3.698   6.185   1.392 -0.4279 -0.2221  0.4206
  531TIP3   OH223227   0.944   1.599   1.872  0.6709  0.1785 -0.3317
  531TIP3    H123228   0.972   1.650   1.796 -0.9798 -0.9571 -1.7608
  531TIP3    H223229   0.941   1.508   1.841  1.5823 -0.5621  1.5852
  532TIP3   OH223230   4.763   6.878   1.465 -0.2015 -0.1206  0.3422
  532TIP3    H123231   4.817   6.945   1.508  1.8122 -0.8577 -0.9109
  532TIP3    H223232   4.712   6.839   1.537  1.1764  0.3977  1.6520
  533TIP3   OH223233   1.517   1.847   7.702  0.0181 -0.5227 -0.1695
  533TIP3    H123234   1.464   1.790   7.646 -0.1692 -2.1087  1.5490
  533TIP3    H223235   1.457   1.875   7.771  0.8766 -0.6131  0.6221
  534TIP3   OH223236   2.669   1.116   0.963 -0.7929 -0.1762  0.6952
  534TIP3    H123237   2.663   1.021   0.970  1.3819 -0.4650 -0.3536
  534TIP3    H223238   2.741   1.140   1.021 -0.1098  0.5526 -0.3961
  535TIP3   OH223239   3.578   0.582   0.450  0.2840 -0.3668  0.5051
  535TIP3    H123240   3.561   0.519   0.380 -0.2849 -2.3712  2.3233
  535TIP3    H223241   3.494   0.625   0.464  0.4887  0.3064 -0.2404
  536TIP3   OH223242   6.188   1.506   0.209  0.1277 -0.7004  0.1918
  536TIP3    H123243   6.162   1.427   0.163 -1.5219  0.4570 -1.0036
  536TIP3    H223244   6.110   1.562   0.206  1.4285  1.2333  0.3605
  537TIP3   OH223245   4.659   1.994   1.039 -0.4970  0.2157  0.6016
  537TIP3    H123246   4.754   2.004   1.038 -0.4483  0.1101  2.0710
  537TIP3    H223247   4.645   1.903   1.066 -1.0144  0.7075  2.0224
  538TIP3   OH223248   0.332   4.129   8.626  0.8960  0.9139 -0.5298
  538TIP3    H123249   0.282   4.175   8.558  0.4417 -0.5546 -1.2409
  538TIP3    H223250   0.418   4.116   8.588  0.1495 -1.4183 -1.5993
  539TIP3   OH223251   6.148   5.238   1.705  0.3316 -0.2851  0.0960
  539TIP3    H123252   6.222   5.253   1.645 -0.2255  1.1027 -0.2716
  539TIP3    H223253   6.180   5.268   1.790  0.2237  0.2395 -0.0468
  540TIP3   OH223254   0.092   3.820   0.995  0.1328 -0.3584 -0.0144
  540TIP3    H123255   0.026   3.889   0.998  0.8599  0.4293 -1.3225
  540TIP3    H223256   0.132   3.828   0.908  0.9598 -1.7498  0.1997
  541TIP3   OH223257   5.645   6.371   0.359  0.7795 -0.0124  0.3296
  541TIP3    H123258   5.643   6.384   0.264  0.7976  2.1158  0.5797
  541TIP3    H223259   5.585   6.437   0.394  0.1902 -1.2600  1.7766
  542TIP3   OH223260   6.029   0.088   1.542  0.1635  0.9393 -0.2097
  542TIP3    H123261   6.067   0.103   1.628  3.1161 -0.2131 -1.1915
  542TIP3    H223262   5.963   0.020   1.556  2.6349 -1.4024  0.7801
  543TIP3   OH223263   6.039   1.812   0.727 -0.6448 -0.3006 -0.0048
  543TIP3    H123264   6.010   1.734   0.774 -1.6068 -1.6064 -2.5620
  543TIP3    H223265   5.967   1.874   0.737 -1.3175 -0.9672 -0.6203
  544TIP3   OH223266   1.588   3.419   8.662  0.5067 -0.1790 -0.1750
  544TIP3    H123267   1.644   3.350   8.698  0.2930  0.8929  2.4337
  544TIP3    H223268   1.500   3.382   8.662  0.4481 -0.0496  0.8607
  545TIP3   OH223269   5.650   4.961   7.355 -0.1728  0.0067  0.4908
  545TIP3    H123270   5.577   4.993   7.408 -1.0211 -0.6138 -0.2702
  545TIP3    H223271   5.636   5.000   7.269  0.1939 -0.3934  0.2461
  546TIP3   OH223272   5.526   4.712   0.256 -0.4284 -0.3456 -0.1818
  546TIP3    H123273   5.562   4.780   0.198  0.5278 -0.9414 -0.3112
  546TIP3    H223274   5.515   4.756   0.340  0.7787 -0.1730 -0.0945
  547TIP3   OH223275   3.028   3.038   7.690 -0.2674 -0.4327 -0.0080
  547TIP3    H123276   3.110   3.026   7.642  0.8646  2.7648  0.8813
  547TIP3    H223277   2.963   3.058   7.622  0.8915  2.1156 -0.4837
  548TIP3   OH223278   2.972   2.024   0.980  0.6212 -0.3012 -0.5785
  548TIP3    H123279   2.900   1.964   1.000  1.1168 -0.4591  0.8134
  548TIP3    H223280   3.000   2.000   0.892 -0.3560 -0.9147 -0.7314
  549TIP3   OH223281   3.701   5.898   7.704 -0.5695  0.3176 -0.0599
  549TIP3    H123282   3.616   5.866   7.676 -0.2786 -0.5930  0.0785
  549TIP3    H223283   3.749   5.914   7.622 -0.1857 -1.0787 -0.1310
  550TIP3   OH223284   1.330   5.587   1.408 -0.2051  0.5121 -0.0899
  550TIP3    H123285   1.389   5.554   1.340  1.9221  0.2649  1.7421
  550TIP3    H223286   1.273   5.649   1.363  1.8816  1.2471 -1.9161
  551TIP3   OH223287   0.206   5.175   7.679 -0.6761  0.4446 -0.1410
  551TIP3    H123288   0.193   5.194   7.772  0.3188 -3.1071  0.8820
  551TIP3    H223289   0.278   5.232   7.652  0.4333  0.0953  1.8861
  552TIP3   OH223290   6.468   2.734   7.021  0.2770 -0.1557 -0.2283
  552TIP3    H123291   6.522   2.765   6.949 -0.3327 -0.6343 -0.9013
  552TIP3    H223292   6.439   2.814   7.066 -0.6698  0.2502 -1.4912
  553TIP3   OH223293   3.180   2.344   7.802 -0.3340  0.7212 -0.1409
  553TIP3    H123294   3.204   2.254   7.781  0.7557  0.8767  0.3388
  553TIP3    H223295   3.085   2.345   7.802 -0.3652 -0.5876  0.5254
  554TIP3   OH223296   3.630   5.570   2.915 -0.0446 -0.4403  0.2245
  554TIP3    H123297   3.626   5.628   2.839 -2.4811  0.9831  1.3476
  554TIP3    H223298   3.708   5.600   2.963  0.0413  0.3647 -0.3828
  555TIP3   OH223299   3.627   6.040   7.463 -0.4418 -0.0721  0.4683
  555TIP3    H123300   3.532   6.045   7.477 -0.3462  1.2273  0.7420
  555TIP3    H223301   3.658   6.129   7.477  0.7010 -0.2849 -0.5328
  556TIP3   OH223302   6.828   3.109   0.425 -0.2066 -0.1146  0.6433
  556TIP3    H123303   6.794   3.058   0.351 -0.9787  0.4397  0.6020
  556TIP3    H223304   6.923   3.105   0.416 -0.2591 -1.1900  0.3986
  557TIP3   OH223305   5.215   4.953   8.272 -0.5623 -0.5096  0.0088
  557TIP3    H123306   5.208   4.859   8.288  0.8965 -0.3618  1.9385
  557TIP3    H223307   5.303   4.965   8.237 -1.2977  0.0086 -1.7536
  558TIP3   OH223308   1.073   6.083   8.126  0.4903  0.2850  0.1948
  558TIP3    H123309   1.060   6.107   8.034 -1.5130 -0.1480  0.3187
  558TIP3    H223310   1.018   6.006   8.139  1.3403 -0.1292  1.5836
  559TIP3   OH223311   6.542   5.563   6.703  0.6937  0.0741 -0.2302
  559TIP3    H123312   6.459   5.553   6.657 -0.0829  0.9311  0.9266
  559TIP3    H223313   6.597   5.492   6.670 -0.7597 -0.9957 -0.4280
  560TIP3   OH223314   0.437   5.533   8.478 -0.0692  0.5729  0.2921
  560TIP3    H123315   0.489   5.608   8.507  1.1679 -0.4831  0.9018
  560TIP3    H223316   0.348   5.552   8.509  0.6361  0.8225  2.3127
  561TIP3   OH223317   1.193   6.328   8.256 -0.1560 -0.2530  0.2708
  561TIP3    H123318   1.217   6.420   8.269  1.7294 -0.7606  0.5767
  561TIP3    H223319   1.132   6.330   8.182  0.5097  1.1607 -0.2750
  562TIP3   OH223320   0.887   5.740   7.033  0.1570  0.3404 -0.8790
  562TIP3    H123321   0.803   5.739   6.986  0.7320  0.3772 -1.9369
  562TIP3    H223322   0.869   5.789   7.113 -0.8814  0.1781 -0.9977
  563TIP3   OH223323   0.555   4.417   1.779 -0.1486 -0.2995  0.4365
  563TIP3    H123324   0.563   4.493   1.721  0.5330 -0.7800 -0.1048
  563TIP3    H223325   0.477   4.371   1.747 -0.2629 -0.1125  0.4411
  564TIP3   OH223326   5.796   6.129   1.457 -0.1301 -0.0491 -0.0106
  564TIP3    H123327   5.721   6.140   1.398  0.7036  2.7409 -0.6913
  564TIP3    H223328   5.775   6.051   1.508 -2.4679 -0.6050 -1.6717
  565TIP3   OH223329   6.759   0.039   8.023 -0.2303 -0.5456  0.1527
  565TIP3    H123330   6.804  -0.042   8.048 -0.5950 -0.9919 -0.5764
  565TIP3    H223331   6.676   0.009   7.986 -0.7194  0.2128  0.6021
  566TIP3   OH223332   4.936   1.675   0.340  0.1429  0.3795 -0.2644
  566TIP3    H123333   4.960   1.744   0.402  0.2154  0.3361 -0.2439
  566TIP3    H223334   4.860   1.710   0.294  0.2897  0.5483 -0.3817
  567TIP3   OH223335   5.353   1.411   7.367 -0.3976  0.3279 -0.2247
  567TIP3    H123336   5.333   1.505   7.374 -2.3091 -0.1403  1.9513
  567TIP3    H223337   5.281   1.375   7.316 -0.4286 -0.1539  0.1540
  568TIP3   OH223338   3.683   2.142   1.087  0.0659  0.3245 -0.0540
  568TIP3    H123339   3.737   2.209   1.131  0.3256 -0.5375  0.9991
  568TIP3    H223340   3.641   2.095   1.159 -0.0255 -0.7126 -0.7658
  569TIP3   OH223341   2.937   6.723   8.149 -0.1412 -0.6808  0.6551
  569TIP3    H123342   2.879   6.749   8.220 -0.7385 -0.5205  0.1223
  569TIP3    H223343   2.950   6.629   8.161 -0.0300 -0.6089  1.1201
  570TIP3   OH223344   3.185   5.380   1.545 -0.1930 -0.2155 -0.5930
  570TIP3    H123345   3.195   5.303   1.601  1.5086 -0.8647 -1.7102
  570TIP3    H223346   3.198   5.347   1.456  0.2031  1.3000 -1.1275
  571TIP3   OH223347   3.625   0.293   7.676 -0.1427 -0.3305 -0.7365
  571TIP3    H123348   3.647   0.200   7.670  0.6621 -0.1221 -1.0545
  571TIP3    H223349   3.706   0.336   7.703 -0.0923  0.4551 -2.0438
  572TIP3   OH223350   3.583   0.357   0.975 -0.1526 -0.3779  0.0046
  572TIP3    H123351   3.643   0.283   0.979  1.7138  1.1071  2.2955
  572TIP3    H223352   3.638   0.431   0.948 -1.0823  0.8802  1.3822
  573TIP3   OH223353   4.747   4.127   1.264  0.4873 -0.5650  0.4911
  573TIP3    H123354   4.706   4.084   1.339 -0.4794  0.7199  0.7279
  573TIP3    H223355   4.740   4.063   1.192 -1.5936 -0.5315  0.6217
  574TIP3   OH223356   4.505   2.405   7.618 -0.3067 -0.5452 -0.3485
  574TIP3    H123357   4.600   2.408   7.626 -0.0788 -2.4656 -1.6434
  574TIP3    H223358   4.475   2.488   7.654  1.9292  0.6312 -1.0369
  575TIP3   OH223359   6.378   2.064   8.023 -0.5774 -0.1544 -0.6894
  575TIP3    H123360   6.328   2.144   8.005  1.3030  0.6983 -2.5590
  575TIP3    H223361   6.469   2.093   8.028 -0.0846 -1.8417  1.2692
  576TIP3   OH223362   1.426   3.849   2.251  0.1451  0.0304  0.5750
  576TIP3    H123363   1.432   3.943   2.265  2.3363 -0.0539  0.5099
  576TIP3    H223364   1.337   3.835   2.216 -0.0476  2.1002  0.1339
  577TIP3   OH223365   5.653   5.473   8.630  0.6385 -0.0158 -0.7617
  577TIP3    H123366   5.666   5.459   8.724 -1.6799  1.0272 -0.2234
  577TIP3    H223367   5.623   5.388   8.597  1.7145 -0.4603 -0.6466
  578TIP3   OH223368   2.674   0.407   0.261 -0.2433  0.2447 -0.1484
  578TIP3    H123369   2.608   0.361   0.314  0.0864  0.1389  0.1679
  578TIP3    H223370   2.628   0.426   0.179 -0.6553  0.1242  0.0487
  579TIP3   OH223371   4.395   5.090   7.618  0.1110 -0.0078 -0.2422
  579TIP3    H123372   4.374   5.012   7.669  4.2614 -0.7605  0.6254
  579TIP3    H223373   4.446   5.058   7.544  1.3981  1.7732 -0.2032
  580TIP3   OH223374   5.658   5.001   7.078 -0.2631 -0.1728  0.4492
  580TIP3    H123375   5.654   4.931   7.014  0.4759 -0.7832  1.0494
  580TIP3    H223376   5.566   5.027   7.092 -0.4956 -0.6547 -0.1561
  581TIP3   OH223377   3.412   3.817   1.724  0.5304 -0.1764  0.8091
  581TIP3    H123378   3.487   3.839   1.669 -0.5048  1.7776  0.0954
  581TIP3    H223379   3.449   3.767   1.796  2.6781  1.4950  0.9671
  582TIP3   OH223380   0.991   4.187   0.240  0.1379  0.5075 -0.1465
  582TIP3    H123381   0.958   4.187   0.150  2.5740 -0.5931 -1.1247
  582TIP3    H223382   1.041   4.268   0.247 -0.6697  0.9603  0.4896
  583TIP3   OH223383   2.449   3.106   8.165  0.8694  0.6094  0.0120
  583TIP3    H123384   2.495   3.155   8.096 -1.0918  1.5981 -0.6724
  583TIP3    H223385   2.440   3.168   8.237 -0.4468  0.8424 -0.3388
  584TIP3   OH223386   3.260   6.629   0.601 -0.0970 -0.0675 -0.4668
  584TIP3    H123387   3.216   6.622   0.686 -0.7878 -0.3983 -0.8514
  584TIP3    H223388   3.323   6.700   0.613  0.4119 -0.6632  0.5900
  585TIP3   OH223389   1.212   4.124   1.008  0.3967 -0.1344 -0.3045
  585TIP3    H123390   1.183   4.178   0.935 -2.3138 -0.2178  0.6028
  585TIP3    H223391   1.223   4.037   0.971 -0.5279 -0.0832 -0.7287
  586TIP3   OH223392   0.689   5.754   6.840  0.0763  0.2577 -0.3326
  586TIP3    H123393   0.615   5.780   6.785  0.1530 -0.2079 -0.6642
  586TIP3    H223394   0.734   5.687   6.789  0.2519 -0.0524  0.2202
  587TIP3   OH223395   5.481   6.610   6.962  0.4906 -0.1737  0.2602
  587TIP3    H123396   5.405   6.638   7.012 -1.5808 -2.1849 -1.5583
  587TIP3    H223397   5.545   6.680   6.974 -1.8723  1.9472  1.3016
  588TIP3   OH223398   4.386   2.733   7.180  0.0832  0.6061 -0.2087
  588TIP3    H123399   4.450   2.662   7.187 -0.0140  0.4795 -0.5680
  588TIP3    H223400   4.414   2.797   7.245 -1.6046 -1.1322  2.4049
  589TIP3   OH223401   2.704   5.004   0.662 -0.2273 -0.3270  0.2148
  589TIP3    H123402   2.639   5.066   0.631 -1.7320 -1.4950  0.8791
  589TIP3    H223403   2.701   5.013   0.758  0.6181 -0.3799  0.2510
  590TIP3   OH223404   3.054   1.498   7.197 -0.7689 -0.1629  0.0569
  590TIP3    H123405   3.032   1.525   7.108 -0.5732 -0.7007 -0.1629
  590TIP3    H223406   3.105   1.571   7.232 -0.3883 -0.1660 -0.4627
  591TIP3   OH223407   6.671   1.952   6.648  0.2610  0.1402  0.1080
  591TIP3    H123408   6.606   2.011   6.611  0.8631  0.9549  0.3387
  591TIP3    H223409   6.645   1.865   6.617  0.0625  0.6599 -1.2322
  592TIP3   OH223410   0.421   3.641   7.963  0.4821  0.1572 -0.2192
  592TIP3    H123411   0.393   3.603   7.880 -0.5423 -0.4670  0.3738
  592TIP3    H223412   0.452   3.728   7.941  0.8965 -0.2567 -1.3432
  593TIP3   OH223413   4.417   1.755   8.315  0.0469  0.0027 -0.6639
  593TIP3    H123414   4.331   1.713   8.307 -0.1593 -0.0155  1.2036
  593TIP3    H223415   4.472   1.689   8.355  1.0296 -0.0547 -2.0389
  594TIP3   OH223416   4.370   6.100   7.556  0.1980 -0.0806  0.0281
  594TIP3    H123417   4.382   6.022   7.502  1.9518  0.1741 -0.0161
  594TIP3    H223418   4.457   6.140   7.560 -0.5530  1.5856  0.4983
  595TIP3   OH223419   6.574   4.734   0.891  0.4342  0.4081 -0.7083
  595TIP3    H123420   6.503   4.697   0.838 -0.3194  0.3917  0.2892
  595TIP3    H223421   6.532   4.804   0.941  1.1344  0.4193 -0.1292
  596TIP3   OH223422   5.985   0.627   6.709  0.3178  0.3490 -0.0487
  596TIP3    H123423   5.950   0.705   6.751  0.3835  0.5439 -0.3521
  596TIP3    H223424   6.079   0.644   6.700  0.4284 -0.0144  0.4208
  597TIP3   OH223425   3.483   0.418   0.253 -0.0086  0.1983 -0.3708
  597TIP3    H123426   3.531   0.355   0.199 -0.7492 -0.5768 -0.1390
  597TIP3    H223427   3.409   0.446   0.199  0.8590  1.6716 -0.8676
  598TIP3   OH223428   4.249   0.151   1.261 -0.5489 -0.2628 -0.3230
  598TIP3    H123429   4.239   0.057   1.249  0.0930 -0.2569 -0.9548
  598TIP3    H223430   4.209   0.190   1.183 -2.9040  0.1187  0.9740
  599TIP3   OH223431   0.216   2.331   7.413 -0.1630 -0.3141  0.1714
  599TIP3    H123432   0.191   2.244   7.384 -1.2142  0.2003 -0.5163
  599TIP3    H223433   0.136   2.370   7.447  0.2162  0.5056  0.1602
  600TIP3   OH223434   6.428   6.000   0.122  0.3082  0.4273 -0.0689
  600TIP3    H123435   6.334   5.986   0.137  0.1074  0.1720 -1.4290
  600TIP3    H223436   6.447   6.083   0.165 -0.9888  1.4575 -1.3719
  601TIP3   OH223437   3.905   5.529   1.093  0.0049 -0.1511  0.5164
  601TIP3    H123438   3.892   5.623   1.108 -0.6358  0.1188 -1.4333
  601TIP3    H223439   3.822   5.489   1.116  0.0583 -0.1502  0.7096
  602TIP3   OH223440   2.474   1.851   1.987  0.3003  0.0271  0.1317
  602TIP3    H123441   2.444   1.784   2.048 -0.2695 -0.1937 -0.3765
  602TIP3    H223442   2.399   1.865   1.929  0.7481  0.4081 -0.3619
  603TIP3   OH223443   4.841   5.495   2.538 -0.5853  0.3031 -0.0331
  603TIP3    H123444   4.816   5.553   2.465  0.4356  1.1607  0.2747
  603TIP3    H223445   4.860   5.411   2.496  1.1859  1.1130 -0.9672
  604TIP3   OH223446   4.113   5.795   7.540  0.8013  0.3015  1.0942
  604TIP3    H123447   4.075   5.772   7.456  2.5297 -1.3412  0.7194
  604TIP3    H223448   4.136   5.888   7.531  0.0125  0.4279  0.1675
  605TIP3   OH223449   3.938   0.472   2.074 -0.0114 -0.1187  0.0302
  605TIP3    H123450   3.921   0.528   1.999 -0.5236 -1.1425 -0.6297
  605TIP3    H223451   3.899   0.388   2.052 -2.8570  0.3248  2.6317
  606TIP3   OH223452   0.108   0.203   0.537 -0.2367  0.0364 -0.2222
  606TIP3    H123453   0.092   0.238   0.449  0.9308  1.7397  0.1877
  606TIP3    H223454   0.203   0.191   0.541 -0.4147 -1.3395  0.3630
  607TIP3   OH223455   2.503   2.584   0.429 -0.2389 -0.2994 -0.7357
  607TIP3    H123456   2.417   2.542   0.420 -0.3039 -0.5737  0.8487
  607TIP3    H223457   2.484   2.663   0.480  0.3835 -0.1174 -0.7890
  608TIP3   OH223458   3.509   1.227   7.211 -0.0020 -0.3447  0.4922
  608TIP3    H123459   3.523   1.272   7.294  1.0748  1.0332 -0.4026
  608TIP3    H223460   3.534   1.136   7.229 -1.6997 -0.5485  2.1816
  609TIP3   OH223461   6.523   2.693   0.264 -0.1129 -0.9022 -0.0914
  609TIP3    H123462   6.542   2.786   0.278  0.5403 -0.8238 -1.3427
  609TIP3    H223463   6.608   2.651   0.260 -0.3724 -1.4068 -0.4267
  610TIP3   OH223464   2.350   6.288   0.300  0.0106  0.3601 -0.4085
  610TIP3    H123465   2.307   6.304   0.384  1.9119  0.4611  0.6047
  610TIP3    H223466   2.430   6.241   0.322  0.3048 -0.1080 -2.2427
  611TIP3   OH223467   5.703   0.641   1.576  0.1988 -0.1301  0.3530
  611TIP3    H123468   5.796   0.619   1.580  0.4455  0.1393 -1.9710
  611TIP3    H223469   5.661   0.563   1.538 -0.3845  0.0444  0.6239
  612TIP3   OH223470   2.317   2.004   8.070  0.1140 -0.5525 -0.7754
  612TIP3    H123471   2.337   1.910   8.070  0.4757 -0.4819 -0.3934
  612TIP3    H223472   2.354   2.036   8.153 -0.5168 -0.1813 -0.6263
  613TIP3   OH223473   6.727   2.263   7.199  0.3263  0.4180 -0.5014
  613TIP3    H123474   6.812   2.232   7.231  0.0368 -0.3988 -0.5184
  613TIP3    H223475   6.663   2.220   7.255 -0.0627  1.8349  0.1880
  614TIP3   OH223476   3.457   0.106   2.513  0.5323  0.2814  0.1385
  614TIP3    H123477   3.538   0.071   2.550  0.4477  0.0526  0.1126
  614TIP3    H223478   3.457   0.077   2.422 -0.6849 -1.7463  0.7161
  615TIP3   OH223479   3.154   0.560   8.474  0.1924 -0.2443 -0.1288
  615TIP3    H123480   3.082   0.566   8.537  0.9978 -0.2583  0.8144
  615TIP3    H223481   3.232   0.580   8.525  0.9501 -0.9931 -0.9622
  616TIP3   OH223482   1.887   6.460   0.064 -0.8303 -0.3070  0.1807
  616TIP3    H123483   1.866   6.511   0.142 -1.4815  3.1286 -2.0609
  616TIP3    H223484   1.981   6.473   0.052 -0.9428  0.1594 -0.2268
  617TIP3   OH223485   6.279   1.134   7.784  0.0046 -0.1037 -0.0328
  617TIP3    H123486   6.284   1.203   7.718 -0.0673 -0.1194 -0.0555
  617TIP3    H223487   6.192   1.095   7.771  0.5240 -1.0302 -0.8513
  618TIP3   OH223488   5.874   5.256   8.405  0.2124  0.3361  0.0074
  618TIP3    H123489   5.930   5.241   8.328  0.3511  0.5844  0.0572
  618TIP3    H223490   5.830   5.172   8.419 -1.0955  0.7403 -1.3547
  619TIP3   OH223491   2.647   5.485   2.561  0.0144 -0.4150  0.3513
  619TIP3    H123492   2.661   5.524   2.474  0.3728 -2.4345 -0.5673
  619TIP3    H223493   2.557   5.509   2.583 -0.7423 -1.3056 -1.4519
  620TIP3   OH223494   0.244   0.022   1.193  0.2187  0.1007  0.1888
  620TIP3    H123495   0.178  -0.002   1.258 -1.0604  0.4645 -0.9285
  620TIP3    H223496   0.324   0.034   1.244 -1.0967  2.1025  1.9980
  621TIP3   OH223497   6.074   6.063   7.342  0.4946 -0.1076  0.4289
  621TIP3    H123498   6.107   5.976   7.321 -1.2172 -0.6087 -0.4075
  621TIP3    H223499   6.084   6.113   7.262  0.4304  0.1201  0.5616
  622TIP3   OH223500   4.379   4.855   7.774  0.3934 -0.0118  0.9605
  622TIP3    H123501   4.381   4.763   7.802  3.1208  0.2780  2.0567
  622TIP3    H223502   4.392   4.905   7.855  1.0891  1.2349  0.1212
  623TIP3   OH223503   6.690   2.794   0.531  0.7912 -0.0607 -0.2133
  623TIP3    H123504   6.775   2.793   0.487  0.0267  2.6087 -1.9790
  623TIP3    H223505   6.636   2.851   0.476 -1.7635 -0.6223  1.5741
  624TIP3   OH223506   1.247   4.077   8.542  0.3651  0.1835 -0.1923
  624TIP3    H123507   1.228   4.149   8.483 -0.0189 -0.4416 -0.8385
  624TIP3    H223508   1.210   3.999   8.499 -1.1712 -0.0914  1.4942
  625TIP3   OH223509   0.801   5.858   1.615 -0.2136 -0.2989  0.3345
  625TIP3    H123510   0.808   5.908   1.697 -1.0507 -1.5093  1.1660
  625TIP3    H223511   0.712   5.875   1.584 -0.6599 -1.5791  0.8515
  626TIP3   OH223512   1.690   4.863   7.413 -0.3272 -0.2103  0.5039
  626TIP3    H123513   1.627   4.926   7.449  0.6649  1.4324 -0.5105
  626TIP3    H223514   1.637   4.806   7.357 -1.0523  0.5893  0.3503
  627TIP3   OH223515   1.515   3.667   1.107  0.0120 -0.2131  1.0033
  627TIP3    H123516   1.589   3.653   1.166 -0.1193  2.8617  2.0813
  627TIP3    H223517   1.539   3.745   1.056 -0.4776 -1.9797 -2.1551
  628TIP3   OH223518   1.500   3.622   1.482 -0.0703 -0.4341 -0.0602
  628TIP3    H123519   1.488   3.529   1.463 -0.2351 -0.3603 -0.3274
  628TIP3    H223520   1.559   3.624   1.558  0.7174 -0.7348 -0.6449
  629TIP3   OH223521   1.911   2.934   0.987  0.2446  0.4501 -0.3140
  629TIP3    H123522   1.938   2.946   1.078 -0.1462  0.6226 -0.2194
  629TIP3    H223523   1.948   2.849   0.963  0.0609  0.2436  0.1138
  630TIP3   OH223524   0.822   4.087   0.492 -0.0815 -0.2833  0.1290
  630TIP3    H123525   0.858   4.169   0.459 -2.3032  1.2647  1.3229
  630TIP3    H223526   0.898   4.028   0.498  1.1870  0.8443 -3.0037
  631TIP3   OH223527   2.493   4.243   1.665 -0.7216  0.7287 -0.1542
  631TIP3    H123528   2.486   4.285   1.751 -0.8291  1.7591 -0.6527
  631TIP3    H223529   2.587   4.240   1.647 -0.6983  0.4930  0.0157
  632TIP3   OH223530   2.099   0.879   1.400  0.1438  0.0867 -0.4357
  632TIP3    H123531   2.136   0.804   1.446 -1.5515 -0.1951  0.5316
  632TIP3    H223532   2.109   0.953   1.461 -0.6546  0.0554 -0.2593
  633TIP3   OH223533   1.784   3.314   7.871 -0.0239 -0.7695 -0.1818
  633TIP3    H123534   1.868   3.270   7.885 -0.4661 -2.5236 -2.4366
  633TIP3    H223535   1.807   3.395   7.826  0.6850  0.7834  2.7265
  634TIP3   OH223536   2.965   3.871   7.490 -0.4317  0.0829  0.7583
  634TIP3    H123537   2.905   3.846   7.420  1.1064  0.0733 -0.6031
  634TIP3    H223538   2.941   3.960   7.513 -1.7234 -0.3294  1.0965
  635TIP3   OH223539   2.686   6.474   1.893 -0.0200  0.4755  0.1607
  635TIP3    H123540   2.759   6.464   1.831  0.4331  0.2032  0.7303
  635TIP3    H223541   2.651   6.561   1.875  0.0206  0.3533 -0.5672
  636TIP3   OH223542   4.575   3.327   8.021 -0.4164 -0.3261  0.2158
  636TIP3    H123543   4.670   3.334   8.027 -0.5176  0.7582  0.6671
  636TIP3    H223544   4.560   3.274   7.942  0.5401  0.1313 -0.2885
  637TIP3   OH223545   0.598   6.166   8.402  0.0266 -0.4254 -0.2985
  637TIP3    H123546   0.573   6.076   8.423  1.1812 -0.4972  0.8453
  637TIP3    H223547   0.693   6.163   8.393  0.0971  0.7124 -0.0623
  638TIP3   OH223548   2.080   5.134   8.179  0.0919  0.1323  0.2640
  638TIP3    H123549   2.145   5.083   8.227 -0.0189 -0.2889 -0.0301
  638TIP3    H223550   2.088   5.105   8.089 -0.6511 -0.0807  0.2617
  639TIP3   OH223551   4.799   4.366   7.024 -0.0549  0.3350 -0.1405
  639TIP3    H123552   4.862   4.342   6.956  0.9282  1.3521  0.3772
  639TIP3    H223553   4.853   4.399   7.096 -1.0947 -0.3508  0.9991
  640TIP3   OH223554   3.920   5.061   7.822 -0.6329  0.3670  0.2725
  640TIP3    H123555   3.919   4.968   7.845  1.1566 -0.0149 -0.9590
  640TIP3    H223556   3.858   5.068   7.748 -1.1073  0.2505  0.6560
  641TIP3   OH223557   1.977   5.656   7.678  0.2998 -0.1574  0.2779
  641TIP3    H123558   1.898   5.707   7.661 -0.1286 -1.3427 -1.6314
  641TIP3    H223559   2.048   5.719   7.669 -0.3462  0.6401  0.5983
  642TIP3   OH223560   6.121   6.477   7.430  0.6771 -0.0905  0.2293
  642TIP3    H123561   6.104   6.395   7.476  3.7071 -1.1418 -0.3196
  642TIP3    H223562   6.106   6.457   7.338 -0.9265  0.7229  0.2786
  643TIP3   OH223563   2.778   3.972   1.119 -0.0392  0.0660  0.3719
  643TIP3    H123564   2.732   4.056   1.117 -1.0468 -0.4905 -0.3572
  643TIP3    H223565   2.710   3.906   1.107  1.0832 -0.7284 -2.5518
  644TIP3   OH223566   6.183   2.340   2.575  0.1904 -0.1131  0.3202
  644TIP3    H123567   6.258   2.362   2.521  1.3715 -2.3378  0.9180
  644TIP3    H223568   6.132   2.279   2.522 -0.9725  1.0057  0.1071
  645TIP3   OH223569   0.669   3.855   0.860 -0.0751 -0.0967 -0.3878
  645TIP3    H123570   0.668   3.906   0.941  1.3820 -1.5558  0.6318
  645TIP3    H223571   0.586   3.807   0.861 -1.8725  2.7339 -1.7988
  646TIP3   OH223572   3.826   1.436   7.443 -0.2109 -0.2482 -0.2248
  646TIP3    H123573   3.842   1.528   7.466 -0.3079 -0.1148 -0.6759
  646TIP3    H223574   3.732   1.424   7.457 -0.4036  0.0240 -1.1650
  647TIP3   OH223575   5.082   2.461   1.844 -0.1750  0.0785 -0.0395
  647TIP3    H123576   5.022   2.533   1.864  3.1527  2.8048  1.0413
  647TIP3    H223577   5.072   2.447   1.750 -1.4077  1.4741 -0.1545
  648TIP3   OH223578   1.840   4.547   7.063 -0.1290 -0.0469  0.6039
  648TIP3    H123579   1.933   4.527   7.075  0.2236  0.7291 -0.6614
  648TIP3    H223580   1.838   4.637   7.031 -1.2092 -0.5330 -0.8260
  649TIP3   OH223581   6.881   0.387   8.089 -0.2275 -0.4898 -0.1906
  649TIP3    H123582   6.860   0.354   8.176  0.5239  0.4737  0.3814
  649TIP3    H223583   6.863   0.481   8.094  1.5108 -0.1101 -0.5101
  650TIP3   OH223584   1.974   3.817   8.471 -0.1923  0.6567 -0.0282
  650TIP3    H123585   2.034   3.744   8.455  0.8555  1.3203  0.7036
  650TIP3    H223586   2.018   3.869   8.539 -2.3831  0.2368  1.8428
  651TIP3   OH223587   6.894   6.882   0.435 -0.2578 -0.3414  1.0611
  651TIP3    H123588   6.922   6.961   0.481  0.8715 -0.1868  0.1444
  651TIP3    H223589   6.975   6.836   0.414 -0.3163  1.0874 -3.3629
  652TIP3   OH223590   4.857   1.397   8.297  0.1732  0.2559  0.9088
  652TIP3    H123591   4.898   1.395   8.383  0.0830 -0.6174  0.9391
  652TIP3    H223592   4.831   1.307   8.280 -0.8596  0.6161  0.4703
  653TIP3   OH223593   5.418   4.983   8.517  0.0288  0.8520 -0.1362
  653TIP3    H123594   5.356   5.040   8.563  0.4337 -0.1270  1.7255
  653TIP3    H223595   5.420   4.903   8.569  0.4401 -0.3870 -1.9742
  654TIP3   OH223596   4.405   4.796   0.669 -0.0424  0.1970 -0.0616
  654TIP3    H123597   4.454   4.810   0.750  1.5233  1.4334 -1.1541
  654TIP3    H223598   4.381   4.703   0.671  2.4710 -0.5252  0.5086
  655TIP3   OH223599   3.182   0.162   2.755  0.1620  0.2524 -0.5753
  655TIP3    H123600   3.262   0.117   2.727  0.9639  0.8243  0.6891
  655TIP3    H223601   3.211   0.252   2.774 -1.5078  1.6181 -3.6858
  656TIP3   OH223602   1.798   0.604   8.144  0.3394  0.7104  0.4425
  656TIP3    H123603   1.865   0.596   8.077  0.0358  0.1211  0.1991
  656TIP3    H223604   1.815   0.531   8.204 -0.5939  0.0283 -0.0922
  657TIP3   OH223605   2.699   1.090   0.373  0.0328 -0.4112 -0.0052
  657TIP3    H123606   2.785   1.053   0.388 -0.4296 -0.7927  2.0873
  657TIP3    H223607   2.708   1.183   0.397  0.4253  0.1600 -2.1905
  658TIP3   OH223608   2.908   1.600   7.657 -0.1236  0.2517  0.3985
  658TIP3    H123609   2.879   1.678   7.610  1.5632  1.4448  1.2386
  658TIP3    H223610   2.988   1.573   7.613 -0.2820 -0.5882  0.5951
  659TIP3   OH223611   2.256   1.924   1.787 -0.2679  0.3464 -0.1923
  659TIP3    H123612   2.232   2.013   1.813 -0.5984 -0.4640  2.5190
  659TIP3    H223613   2.172   1.879   1.777 -0.0730 -0.2758  0.8743
  660TIP3   OH223614   4.829   6.635   8.313  0.0860  0.1715  0.1615
  660TIP3    H123615   4.755   6.601   8.363  1.0691  0.6618  2.0086
  660TIP3    H223616   4.826   6.586   8.231 -1.5930 -0.6338  0.6545
  661TIP3   OH223617   2.696   1.352   2.640  0.5047 -0.4408  0.1953
  661TIP3    H123618   2.736   1.300   2.709 -0.9975 -0.2981  1.2353
  661TIP3    H223619   2.761   1.419   2.619  0.9898 -0.4875  1.4906
  662TIP3   OH223620   2.061   2.330   7.219  0.1883 -0.1196  0.4012
  662TIP3    H123621   2.102   2.353   7.136  2.1184  1.0507  1.5836
  662TIP3    H223622   2.132   2.335   7.283 -1.3171 -0.5003  2.2090
  663TIP3   OH223623   6.677   3.345   0.418 -0.3833 -0.2855  0.1590
  663TIP3    H123624   6.590   3.316   0.445  1.1160 -1.4693  4.3670
  663TIP3    H223625   6.732   3.267   0.423  2.1275  1.4104  4.0534
  664TIP3   OH223626   2.936   2.009   1.527  0.3407 -0.2701 -0.1235
  664TIP3    H123627   2.970   1.975   1.444 -0.2810 -3.2728  0.7496
  664TIP3    H223628   2.855   2.053   1.503  0.1703 -1.0962 -1.1247
  665TIP3   OH223629   3.146   3.968   7.183  0.3471 -0.0006 -0.1480
  665TIP3    H123630   3.065   4.017   7.189  1.2509  1.3972  1.7653
  665TIP3    H223631   3.174   3.978   7.092 -0.6460  1.1456 -0.3446
  666TIP3   OH223632   3.835   4.930   0.715 -0.0334 -0.2929 -0.0401
  666TIP3    H123633   3.862   4.862   0.653  2.0904  0.5009 -0.0659
  666TIP3    H223634   3.904   4.931   0.781 -0.3849  1.3502  0.3484
  667TIP3   OH223635   6.282   2.563   6.870 -0.1165 -0.2026 -0.1028
  667TIP3    H123636   6.334   2.634   6.907  1.5360 -1.4263  0.0219
  667TIP3    H223637   6.319   2.484   6.908 -0.9850 -1.2329 -1.3181
  668TIP3   OH223638   0.241   1.567   0.726 -0.0354  0.0549 -0.0269
  668TIP3    H123639   0.263   1.557   0.634  0.0709  0.2155 -0.0188
  668TIP3    H223640   0.320   1.601   0.767  0.2573 -1.0025  0.3171
  669TIP3   OH223641   4.832   0.500   2.077 -0.0753  0.6570 -0.1180
  669TIP3    H123642   4.775   0.525   2.005 -1.4830  0.3827  0.8724
  669TIP3    H223643   4.852   0.583   2.121  2.0051  1.0438 -1.6166
  670TIP3   OH223644   3.031   4.992   8.127 -0.4664  0.1922 -0.8082
  670TIP3    H123645   3.057   5.044   8.203  1.3801  1.7948 -2.4374
  670TIP3    H223646   2.956   5.039   8.091 -1.4458 -0.6569  0.0279
  671TIP3   OH223647   2.847   2.529   1.350 -0.3931  0.6268  0.1704
  671TIP3    H123648   2.840   2.437   1.375 -1.9084  1.4592  3.3666
  671TIP3    H223649   2.941   2.547   1.350 -0.1470 -0.4001  1.9558
  672TIP3   OH223650   4.747   2.577   0.561 -0.1087  0.4290  0.3893
  672TIP3    H123651   4.652   2.574   0.569 -0.0671  0.5124  0.9423
  672TIP3    H223652   4.775   2.639   0.628  0.4023 -0.2229  0.7923
  673TIP3   OH223653   3.274   5.380   2.883  0.4128  0.6787 -0.4971
  673TIP3    H123654   3.273   5.367   2.978  3.0762 -0.0360 -0.4683
  673TIP3    H223655   3.323   5.304   2.850  1.5420  2.0630 -2.1688
  674TIP3   OH223656   3.289   5.887   7.803 -0.1289 -0.4316  0.1535
  674TIP3    H123657   3.315   5.821   7.868 -3.2015 -0.7503  1.2169
  674TIP3    H223658   3.262   5.962   7.855 -2.0974 -0.4731 -0.7122
  675TIP3   OH223659   1.784   2.327   1.593 -0.5557 -0.4503  0.1560
  675TIP3    H123660   1.829   2.395   1.543  0.3440 -0.3737  1.0425
  675TIP3    H223661   1.762   2.260   1.528 -1.2257  0.5573 -0.6847
  676TIP3   OH223662   4.206   2.926   6.707 -0.5822 -0.3789 -0.0066
  676TIP3    H123663   4.222   3.019   6.692  2.4089 -0.9819 -1.3720
  676TIP3    H223664   4.154   2.897   6.632  0.5134 -0.2350 -0.8359
  677TIP3   OH223665   5.969   1.677   0.182  0.3976 -0.0977  0.2658
  677TIP3    H123666   6.031   1.741   0.216 -0.3941  1.1299 -0.5263
  677TIP3    H223667   5.883   1.718   0.196 -0.0577 -0.4800 -1.2661
  678TIP3   OH223668   3.583   0.928   7.311  0.5625 -0.3862  0.3905
  678TIP3    H123669   3.607   0.994   7.377 -0.0925  0.2350  0.0201
  678TIP3    H223670   3.632   0.953   7.233 -2.9030  2.3512 -1.1546
  679TIP3   OH223671   6.231   3.103   1.494  0.4390 -0.0394 -0.1553
  679TIP3    H123672   6.193   3.058   1.569  1.1032  0.8308  0.7297
  679TIP3    H223673   6.170   3.086   1.422 -0.6284 -0.2417  0.7642
  680TIP3   OH223674   2.745   0.072   7.342  0.3986 -0.0040 -0.8467
  680TIP3    H123675   2.805   0.006   7.308 -0.4629 -0.6578 -1.1350
  680TIP3    H223676   2.667   0.023   7.369  0.0293  0.8095 -0.3792
  681TIP3   OH223677   0.906   6.308   1.653  1.0035 -0.2739 -0.4137
  681TIP3    H123678   0.982   6.359   1.681  0.8265  1.3341 -2.5944
  681TIP3    H223679   0.942   6.243   1.592  0.9781 -1.5791  0.9122
  682TIP3   OH223680   5.823   3.377   7.197  0.1909 -0.6224  0.0597
  682TIP3    H123681   5.828   3.359   7.103 -0.8774 -0.9117  0.0400
  682TIP3    H223682   5.877   3.309   7.238 -0.2758 -1.2075 -0.2813
  683TIP3   OH223683   4.219   5.710   2.074 -0.0051  0.7146 -0.0623
  683TIP3    H123684   4.270   5.700   2.154  1.1868  2.3999 -0.5680
  683TIP3    H223685   4.280   5.689   2.004 -0.9856 -0.5606 -0.5704
  684TIP3   OH223686   2.091   3.274   8.186 -0.2794 -0.1196 -0.0266
  684TIP3    H123687   2.085   3.182   8.161  0.7998  0.0403 -0.9523
  684TIP3    H223688   2.000   3.301   8.199 -0.6084 -1.3485  0.4597
  685TIP3   OH223689   6.708   3.508   1.286  0.5136  0.2522  0.0112
  685TIP3    H123690   6.696   3.512   1.381 -0.1560 -1.3931  0.0287
  685TIP3    H223691   6.792   3.550   1.270  0.3503  1.0958  1.2603
  686TIP3   OH223692   2.453   4.179   7.859  0.0605 -0.4246  0.6682
  686TIP3    H123693   2.519   4.206   7.922 -1.2899  0.8144  1.6357
  686TIP3    H223694   2.500   4.169   7.776  1.3608  0.9287  1.2135
  687TIP3   OH223695   2.267   1.279   0.462 -1.0350  0.1306  0.2333
  687TIP3    H123696   2.355   1.241   0.455 -0.5108  1.2175  0.7222
  687TIP3    H223697   2.219   1.243   0.388 -0.1572 -0.4265 -0.0749
  688TIP3   OH223698   1.440   0.234   0.203  0.4043 -0.1850  0.0170
  688TIP3    H123699   1.398   0.320   0.206 -1.8326 -1.1857 -0.3693
  688TIP3    H223700   1.519   0.244   0.256  0.2936  2.1227 -0.1319
  689TIP3   OH223701   4.949   5.328   0.064  0.3354 -1.0730 -0.3782
  689TIP3    H123702   4.898   5.254   0.099  0.8751 -1.0634  0.4507
  689TIP3    H223703   5.040   5.308   0.086  0.5539 -0.4406 -0.6683
  690TIP3   OH223704   0.618   2.321   7.932 -0.3794  0.4962  0.6867
  690TIP3    H123705   0.552   2.275   7.984 -1.3889  2.0392  0.8227
  690TIP3    H223706   0.568   2.367   7.865  0.5261  1.8873  0.9275
  691TIP3   OH223707   2.801   4.719   6.875 -0.1303  0.4961 -0.4930
  691TIP3    H123708   2.849   4.802   6.875  0.9840 -0.1033  0.8266
  691TIP3    H223709   2.731   4.732   6.939  2.0945 -0.5976  2.3867
  692TIP3   OH223710   2.297   5.732   2.223 -0.4004  0.0284 -0.6217
  692TIP3    H123711   2.286   5.640   2.196  2.4060 -0.3633 -0.7787
  692TIP3    H223712   2.266   5.735   2.313  2.0802 -1.8662  0.4108
  693TIP3   OH223713   4.620   3.558   1.539 -0.4361  0.0600 -0.1481
  693TIP3    H123714   4.640   3.615   1.613  0.9872 -0.5734 -0.0162
  693TIP3    H223715   4.537   3.517   1.562 -0.5199  0.6465  0.6179
  694TIP3   OH223716   3.829   2.521   7.430 -0.2877 -0.4718 -0.4240
  694TIP3    H123717   3.825   2.453   7.498 -0.2786  1.4667  1.6661
  694TIP3    H223718   3.919   2.555   7.436 -0.9442  1.2284  0.2066
  695TIP3   OH223719   3.687   5.344   2.162  0.0157 -0.6804  0.2439
  695TIP3    H123720   3.614   5.283   2.151 -0.1655 -0.2243 -1.2564
  695TIP3    H223721   3.664   5.394   2.240 -1.2480 -0.5902 -0.1719
  696TIP3   OH223722   2.279   0.278   6.650 -0.5360 -0.5260  0.9651
  696TIP3    H123723   2.242   0.194   6.678 -0.7333 -0.5059  0.7737
  696TIP3    H223724   2.278   0.332   6.728 -1.6792 -0.2592  0.7883
  697TIP3   OH223725   2.750   5.907   2.634  0.1537  0.1052 -0.3362
  697TIP3    H123726   2.724   5.946   2.717  2.1944  0.1688  0.3357
  697TIP3    H223727   2.680   5.931   2.573 -1.8832 -0.7594  1.5444
  698TIP3   OH223728   1.236   1.399   7.990 -0.5983  0.0510 -0.1486
  698TIP3    H123729   1.233   1.407   7.895 -2.5038 -1.2860 -0.2518
  698TIP3    H223730   1.171   1.462   8.021 -1.6762 -1.1548  0.1064
  699TIP3   OH223731   1.010   3.423   1.616 -0.5368 -0.0407  0.0853
  699TIP3    H123732   0.999   3.351   1.678  1.9839 -1.4088 -0.9022
  699TIP3    H223733   1.084   3.474   1.651  0.6557 -0.6042 -1.5124
  700TIP3   OH223734   4.826   6.859   8.149  0.3527  0.2308  0.2207
  700TIP3    H123735   4.903   6.890   8.197  0.8136 -1.7398  0.8746
  700TIP3    H223736   4.799   6.781   8.197 -3.3470  1.9433  1.2708
  701TIP3   OH223737   5.025   1.016   1.862  0.2835 -0.1583  0.0672
  701TIP3    H123738   4.953   0.961   1.893 -0.4717  1.2025  0.8154
  701TIP3    H223739   5.103   0.979   1.904 -0.1191 -1.0048  0.0921
  702TIP3   OH223740   2.642   6.724   0.506 -0.0532 -0.5260  0.2210
  702TIP3    H123741   2.659   6.673   0.585  0.0898  0.4724  0.8555
  702TIP3    H223742   2.728   6.739   0.468 -0.1401 -1.1823 -0.2467
  703TIP3   OH223743   4.010   3.113   7.751  0.4006  0.3334 -0.1942
  703TIP3    H123744   4.036   3.186   7.807  1.0096  0.2579 -0.3730
  703TIP3    H223745   3.955   3.154   7.683 -0.7569  0.3516  0.7124
  704TIP3   OH223746   4.072   4.543   0.332  0.4848 -0.0551  0.1984
  704TIP3    H123747   4.020   4.622   0.342  0.3650 -0.1947  0.7076
  704TIP3    H223748   4.012   4.479   0.294  1.2441  0.8130 -2.7284
  705TIP3   OH223749   3.506   3.290   8.151  0.0055 -0.1768  0.2729
  705TIP3    H123750   3.539   3.353   8.215 -1.9920  0.8620  0.3637
  705TIP3    H223751   3.577   3.280   8.088  0.4992  1.9863  0.4147
  706TIP3   OH223752   4.269   5.089   0.244  0.2790 -0.2699  0.2774
  706TIP3    H123753   4.269   5.100   0.339 -1.6439  0.4499  0.2385
  706TIP3    H223754   4.261   5.178   0.210 -0.2980 -0.6071 -0.5038
  707TIP3   OH223755   6.356   0.392   8.562  0.0824 -0.2833 -0.3989
  707TIP3    H123756   6.352   0.478   8.603  1.3041  0.7644 -2.3102
  707TIP3    H223757   6.267   0.358   8.567 -0.0394  0.2513  2.0337
  708TIP3   OH223758   0.340   0.898   6.104 -0.5374 -0.7747  0.0385
  708TIP3    H123759   0.256   0.852   6.105 -0.2187 -1.3655 -0.2069
  708TIP3    H223760   0.317   0.990   6.092 -1.1178 -1.0130 -0.7433
  709TIP3   OH223761   3.193   6.342   8.540 -0.0687 -0.1844 -0.0260
  709TIP3    H123762   3.240   6.410   8.492 -0.7864  1.7782  1.9080
  709TIP3    H223763   3.103   6.349   8.508 -0.1258 -0.3002  0.1079
  710TIP3   OH223764   5.709   1.781   0.138  0.1966  0.0927 -0.5249
  710TIP3    H123765   5.633   1.724   0.123 -0.9834  1.4773  0.0357
  710TIP3    H223766   5.722   1.826   0.054  1.5933 -1.4551 -1.2082
  711TIP3   OH223767   3.640   0.620   1.147  0.0184 -0.2641 -0.6464
  711TIP3    H123768   3.636   0.714   1.167 -1.5038 -0.4275 -0.0531
  711TIP3    H223769   3.729   0.594   1.174 -0.3023  0.5478  1.3956
  712TIP3   OH223770   5.566   3.907   7.966  0.4419 -0.2075  0.2597
  712TIP3    H123771   5.576   3.843   7.895 -1.2269  1.9924 -2.1354
  712TIP3    H223772   5.627   3.977   7.944 -0.2545  0.6135  0.8849
  713TIP3   OH223773   2.722   5.267   0.316  0.0032 -0.1109  0.2083
  713TIP3    H123774   2.697   5.247   0.406 -2.6743  1.7501 -0.0152
  713TIP3    H223775   2.642   5.253   0.265  0.9716  0.5693 -1.6112
  714TIP3   OH223776   2.670   4.164   6.623  0.2426  0.1657 -0.2444
  714TIP3    H123777   2.597   4.224   6.635  0.1650  0.1382 -0.5703
  714TIP3    H223778   2.642   4.082   6.665 -0.1871 -0.0573 -0.9385
  715TIP3   OH223779   1.407   5.444   1.632 -0.2648 -0.4851 -0.6009
  715TIP3    H123780   1.416   5.358   1.591 -1.6273 -0.2837 -1.3838
  715TIP3    H223781   1.362   5.498   1.567 -1.6359  0.1068  0.7540
  716TIP3   OH223782   1.630   0.158   1.650 -0.0226 -0.6163  0.3237
  716TIP3    H123783   1.591   0.088   1.701 -1.2667 -0.7928 -0.8065
  716TIP3    H223784   1.702   0.116   1.602 -0.8517 -1.1614 -0.4573
  717TIP3   OH223785   2.030   5.567   7.389  0.7560  0.4403  0.0051
  717TIP3    H123786   1.989   5.626   7.326 -1.2588 -0.9201 -0.0593
  717TIP3    H223787   2.005   5.602   7.475  3.3017  2.1561  0.1476
  718TIP3   OH223788   2.200   3.460   0.384 -0.2788  0.2292  0.8391
  718TIP3    H123789   2.120   3.502   0.353 -0.2241  0.3290  0.8325
  718TIP3    H223790   2.178   3.366   0.388 -0.2043  0.1796  0.2322
  719TIP3   OH223791   2.574   2.382   8.547  0.1362 -0.3493  0.6039
  719TIP3    H123792   2.497   2.342   8.588 -0.7613  1.7071  1.0635
  719TIP3    H223793   2.537   2.443   8.482  1.4482 -0.6321 -0.4575
  720TIP3   OH223794   4.058   4.861   7.607  0.0775 -0.3188 -0.5269
  720TIP3    H123795   3.995   4.814   7.554  0.6958 -1.0221 -0.6556
  720TIP3    H223796   4.025   4.854   7.697 -0.0303 -0.6729 -0.5938
  721TIP3   OH223797   0.030   2.012   6.607  0.2655  0.7877  0.4190
  721TIP3    H123798   0.068   1.958   6.677  1.8521  0.0672 -0.9386
  721TIP3    H223799  -0.063   1.991   6.608  0.7594 -1.7309  0.1971
  722TIP3   OH223800   3.758   3.997   2.703 -0.4522 -0.3075  0.2049
  722TIP3    H123801   3.684   4.018   2.645 -0.2573  1.2252  0.4566
  722TIP3    H223802   3.718   3.975   2.787 -0.6728 -0.8386 -0.0383
  723TIP3   OH223803   5.773   5.256   7.024  0.5796  0.0093 -0.4094
  723TIP3    H123804   5.758   5.288   6.935  2.4365 -1.7703 -1.4465
  723TIP3    H223805   5.740   5.166   7.023  1.0646 -0.1900  0.5319
  724TIP3   OH223806   5.972   4.891   1.246  0.0282 -0.2111 -0.3553
  724TIP3    H123807   6.021   4.816   1.212  0.5056  0.2097 -0.6187
  724TIP3    H223808   5.927   4.927   1.170 -0.2752 -0.2832 -0.2111
  725TIP3   OH223809   4.324   6.789   1.470 -0.7148 -0.9220  0.5656
  725TIP3    H123810   4.346   6.715   1.413 -1.6609  0.2429 -1.4499
  725TIP3    H223811   4.403   6.843   1.472 -0.2954 -1.5520  1.3516
  726TIP3   OH223812   4.712   1.784   7.507 -0.0837 -0.6353  0.1837
  726TIP3    H123813   4.680   1.834   7.433  0.5642 -0.1752  0.2050
  726TIP3    H223814   4.648   1.799   7.576  1.4738  2.5679  1.1547
  727TIP3   OH223815   2.603   4.849   2.792 -0.4773  0.0344  0.2476
  727TIP3    H123816   2.643   4.778   2.843 -1.8056 -0.4080  0.6988
  727TIP3    H223817   2.511   4.824   2.783 -0.2248 -0.1510 -2.8227
  728TIP3   OH223818   1.255   1.243   8.200 -0.0148  0.1321  0.1262
  728TIP3    H123819   1.320   1.202   8.143  0.8048  0.3342  0.8883
  728TIP3    H223820   1.195   1.287   8.140  1.2052  0.8955 -0.5924
  729TIP3   OH223821   5.956   0.569   0.843 -0.1827 -0.1369  0.0352
  729TIP3    H123822   5.933   0.651   0.887 -0.5408 -0.3113  0.1768
  729TIP3    H223823   6.018   0.527   0.903 -0.5211 -0.2831  0.2903
  730TIP3   OH223824   5.052   2.258   0.431 -0.0138 -0.3039  0.0666
  730TIP3    H123825   5.031   2.242   0.523  0.5837 -1.6227  0.0006
  730TIP3    H223826   5.145   2.235   0.424  0.2276  0.8116 -0.6465
  731TIP3   OH223827   2.581   1.605   0.523  0.6715 -0.0237 -0.0959
  731TIP3    H123828   2.665   1.593   0.567  0.2582 -1.6124  0.3303
  731TIP3    H223829   2.539   1.676   0.573  1.0953 -0.3281  0.7259
  732TIP3   OH223830   4.194   4.501   1.975  0.1530  0.2743  0.7586
  732TIP3    H123831   4.285   4.499   1.947 -0.0803  2.7706 -0.5155
  732TIP3    H223832   4.144   4.473   1.899 -0.2526  2.3000  0.2181
  733TIP3   OH223833   2.214   2.573   0.404 -0.3734 -0.5534  0.3476
  733TIP3    H123834   2.207   2.621   0.487 -0.8072  1.5197 -0.8009
  733TIP3    H223835   2.126   2.578   0.366  0.6397  2.2059 -2.0528
  734TIP3   OH223836   4.279   2.791   1.837  0.4939  0.0393  0.2709
  734TIP3    H123837   4.349   2.736   1.873 -0.4672 -1.2950  0.1277
  734TIP3    H223838   4.237   2.737   1.771  0.8051  1.6679 -1.3483
  735TIP3   OH223839   1.937   4.114   0.594 -0.3926  0.0951 -0.0308
  735TIP3    H123840   1.891   4.034   0.569  0.9980 -0.2942 -1.5309
  735TIP3    H223841   1.874   4.184   0.580 -1.0741 -0.5724 -0.3904
  736TIP3   OH223842   3.407   4.679   2.262  0.5374  0.0394 -0.0381
  736TIP3    H123843   3.379   4.685   2.171  0.5883 -0.1432 -0.0650
  736TIP3    H223844   3.478   4.615   2.262 -0.3539 -0.9716  0.3393
  737TIP3   OH223845   3.806   2.999   1.243  0.2120 -0.2254 -0.1570
  737TIP3    H123846   3.792   2.910   1.276 -0.7153 -0.4718 -1.1390
  737TIP3    H223847   3.794   2.991   1.148 -2.3543  1.3645 -0.0516
  738TIP3   OH223848   2.605   3.253   1.977  0.0919 -0.1763  0.5870
  738TIP3    H123849   2.561   3.314   2.037  0.1421 -1.1811  1.6800
  738TIP3    H223850   2.555   3.172   1.985  0.0556 -0.3162 -0.8126
  739TIP3   OH223851   5.194   1.265   1.781  0.3293 -0.3499  0.5144
  739TIP3    H123852   5.168   1.188   1.832 -0.5850 -0.6336 -0.3520
  739TIP3    H223853   5.122   1.327   1.792  0.5574 -0.0466  0.3261
  740TIP3   OH223854   4.879   5.912   1.905 -0.0811 -0.3097 -0.0580
  740TIP3    H123855   4.880   6.007   1.906 -0.8637 -0.2397 -1.8505
  740TIP3    H223856   4.916   5.888   1.820 -0.0018 -1.5949  0.3151
  741TIP3   OH223857   2.190   5.535   2.451  0.3292 -0.3932 -0.1237
  741TIP3    H123858   2.246   5.463   2.420  0.2600 -1.3651  1.8138
  741TIP3    H223859   2.106   5.493   2.470  0.1886  0.2542  0.7471
  742TIP3   OH223860   6.407   5.158   0.506  0.5292 -0.2374 -0.3692
  742TIP3    H123861   6.430   5.250   0.521  0.8133 -0.6192  1.9649
  742TIP3    H223862   6.476   5.109   0.552  0.0179 -1.6063 -1.0287
  743TIP3   OH223863   0.015   3.999   0.287  0.4459  0.3119  0.4324
  743TIP3    H123864   0.007   4.013   0.193  1.1808  2.4453  0.6354
  743TIP3    H223865  -0.055   4.053   0.325  0.1357 -0.5545  1.1253
  744TIP3   OH223866   0.395   6.218   7.634 -0.1352 -0.0125  0.6099
  744TIP3    H123867   0.451   6.242   7.561 -2.2778  3.8596 -0.0192
  744TIP3    H223868   0.423   6.275   7.706 -1.5574  0.1309  1.0765
  745TIP3   OH223869   2.003   0.740   1.190 -0.1461 -0.4581 -0.3597
  745TIP3    H123870   1.907   0.747   1.186 -0.0248  2.1293 -0.3710
  745TIP3    H223871   2.028   0.796   1.264  1.3541 -1.4511 -0.0785
  746TIP3   OH223872   3.524   3.729   0.806 -0.4379 -0.1980  0.1216
  746TIP3    H123873   3.449   3.760   0.857  0.1283  1.6607 -0.0975
  746TIP3    H223874   3.485   3.686   0.730 -1.2777 -0.1374  0.5067
  747TIP3   OH223875   4.221   4.683   6.596 -0.0898  0.1763 -0.0163
  747TIP3    H123876   4.208   4.748   6.527  1.0821  1.0730  0.5528
  747TIP3    H223877   4.288   4.624   6.562  0.7376  0.8201  0.4614
  748TIP3   OH223878   0.530   3.926   1.263  0.2448  0.0067 -0.3407
  748TIP3    H123879   0.556   3.983   1.191  0.3531 -1.1441 -1.2574
  748TIP3    H223880   0.573   3.842   1.243 -0.8503 -0.7379  0.3127
  749TIP3   OH223881   2.519   4.665   2.151 -0.0652 -0.2255 -0.5209
  749TIP3    H123882   2.474   4.677   2.235 -0.4614  0.7900 -0.8701
  749TIP3    H223883   2.456   4.695   2.086  0.7267  0.2168 -1.0907
  750TIP3   OH223884   2.646   5.499   7.939 -0.4541 -1.0281  0.3121
  750TIP3    H123885   2.620   5.565   8.003 -1.3657 -0.3383 -0.7478
  750TIP3    H223886   2.587   5.425   7.956 -1.0684 -0.6330 -0.0914
  751TIP3   OH223887   6.827   5.095   7.790 -0.2803  0.2444  0.2452
  751TIP3    H123888   6.850   5.188   7.782  1.7269 -0.2788 -0.8321
  751TIP3    H223889   6.847   5.058   7.704  0.4104 -1.4692  1.0897
  752TIP3   OH223890   3.052   4.754   1.776  0.1278  0.1850  0.2331
  752TIP3    H123891   3.071   4.743   1.683 -1.0910  1.3888 -0.1943
  752TIP3    H223892   2.998   4.833   1.780 -1.8568 -1.1518  1.6987
  753TIP3   OH223893   6.415   1.057   6.962 -0.4174  0.0361  0.0074
  753TIP3    H123894   6.384   1.065   6.872  0.8047  0.3625 -0.4045
  753TIP3    H223895   6.370   0.980   6.996  1.3189 -1.9614 -1.8720
  754TIP3   OH223896   1.935   6.242   8.212  0.1797  0.3611  0.3675
  754TIP3    H123897   1.954   6.148   8.219 -0.5238  0.2109  0.3129
  754TIP3    H223898   1.963   6.278   8.296  1.4205  0.2850  0.0162
  755TIP3   OH223899   5.934   4.313   1.743 -0.3558  0.5721  0.6004
  755TIP3    H123900   6.019   4.270   1.746 -0.8651 -0.4377  1.0214
  755TIP3    H223901   5.935   4.373   1.818  0.0913  0.8005  0.4179
  756TIP3   OH223902   2.267   0.768   6.917  0.4109 -0.2864 -0.4299
  756TIP3    H123903   2.342   0.714   6.941  1.7999  1.8869  0.4051
  756TIP3    H223904   2.289   0.855   6.949 -2.3465  0.5166 -0.4563
  757TIP3   OH223905   1.040   5.398   0.652  0.1974  0.2001 -0.2201
  757TIP3    H123906   1.055   5.341   0.576  0.0503  1.5521 -1.3108
  757TIP3    H223907   0.959   5.445   0.631 -0.5782 -0.3577  1.4053
  758TIP3   OH223908   0.603   1.053   7.493  0.1917  0.7548 -0.0746
  758TIP3    H123909   0.647   1.099   7.565  0.7803  1.3281 -0.7895
  758TIP3    H223910   0.527   1.107   7.474 -1.7038 -0.9340  2.0773
  759TIP3   OH223911   4.128   2.598   7.432 -0.4921 -0.0245 -0.0881
  759TIP3    H123912   4.165   2.664   7.490 -1.1043  0.0585  0.2238
  759TIP3    H223913   4.195   2.530   7.426 -0.1324  0.3081  0.1345
  760TIP3   OH223914   1.044   4.904   1.763 -0.5178 -0.0731  0.2614
  760TIP3    H123915   0.950   4.922   1.773 -0.8077 -1.8971  1.1854
  760TIP3    H223916   1.063   4.836   1.828  1.0841 -0.8938 -0.9790
  761TIP3   OH223917   3.252   4.678   0.589  0.3059  0.1069  0.4178
  761TIP3    H123918   3.245   4.769   0.615 -1.7526 -0.6218  2.7625
  761TIP3    H223919   3.268   4.681   0.495  0.6768  2.8445  0.4867
  762TIP3   OH223920   5.333   0.677   7.442  0.1683 -0.1628 -0.1037
  762TIP3    H123921   5.385   0.691   7.363  0.8748  0.1445  0.4090
  762TIP3    H223922   5.382   0.611   7.492 -0.8855 -1.2588 -0.4587
  763TIP3   OH223923   0.183   5.615   8.494 -0.3283 -0.1686  0.0016
  763TIP3    H123924   0.123   5.658   8.555 -0.9883 -0.2262 -0.5935
  763TIP3    H223925   0.177   5.667   8.414  1.8457  0.9552  0.4942
  764TIP3   OH223926   2.316   2.183   2.266  0.2462 -0.0062 -0.2596
  764TIP3    H123927   2.256   2.253   2.289  0.2758 -0.1917  0.3852
  764TIP3    H223928   2.269   2.131   2.200 -0.4865 -0.4206  0.5786
  765TIP3   OH223929   3.536   3.340   7.269 -0.0503  0.3764  0.4722
  765TIP3    H123930   3.569   3.429   7.258 -0.9438  0.5596 -0.8757
  765TIP3    H223931   3.452   3.351   7.314 -0.6362  0.3128 -0.5762
  766TIP3   OH223932   3.529   4.880   6.821 -0.1038  0.0808  0.0617
  766TIP3    H123933   3.560   4.789   6.826  0.2852  0.1883 -0.3797
  766TIP3    H223934   3.457   4.884   6.884 -0.5023 -0.6828 -0.3384
  767TIP3   OH223935   0.066   2.915   6.401 -0.3417 -0.4659 -0.0447
  767TIP3    H123936   0.032   2.835   6.361  1.8345 -2.2195  1.3541
  767TIP3    H223937   0.156   2.921   6.368  0.3130  0.0353  1.7446
  768TIP3   OH223938   1.603   6.603   0.230 -0.3609  0.9100 -0.3678
  768TIP3    H123939   1.625   6.623   0.321  1.6881  0.0466 -0.6271
  768TIP3    H223940   1.528   6.659   0.211 -2.4243 -0.5660  2.5476
  769TIP3   OH223941   1.500   5.747   1.689  0.4434 -0.0225 -0.3824
  769TIP3    H123942   1.595   5.757   1.680  0.6611 -2.2290 -0.9469
  769TIP3    H223943   1.479   5.667   1.641 -1.4232 -0.7045  1.4241
  770TIP3   OH223944   2.218   2.316   7.446  0.0056 -0.3950  0.1166
  770TIP3    H123945   2.181   2.397   7.481 -0.7975 -0.9075  0.5058
  770TIP3    H223946   2.220   2.256   7.521  0.4275 -0.7923 -0.2027
  771TIP3   OH223947   4.432   0.033   1.043 -0.2523 -0.0656 -0.0909
  771TIP3    H123948   4.389  -0.042   1.001  0.9947  0.6150 -2.8024
  771TIP3    H223949   4.489  -0.006   1.108  0.7873 -1.6179 -1.8228
  772TIP3   OH223950   5.135   3.244   1.823 -0.1812 -0.6167 -0.3658
  772TIP3    H123951   5.078   3.209   1.754  1.5689 -1.8909 -1.2315
  772TIP3    H223952   5.165   3.167   1.871  0.3162  0.0862  0.4642
  773TIP3   OH223953   0.255   0.666   0.168 -0.4024 -0.1460  0.2820
  773TIP3    H123954   0.163   0.644   0.179 -0.3674 -0.9830 -0.8929
  773TIP3    H223955   0.302   0.605   0.225 -0.5126 -0.7068 -0.2113
  774TIP3   OH223956   3.269   2.521   1.530  0.1730  0.2986 -0.0180
  774TIP3    H123957   3.305   2.472   1.604 -0.3510  0.2544  0.2150
  774TIP3    H223958   3.322   2.601   1.526  0.2344  0.2781  0.3813
  775TIP3   OH223959   1.208   6.381   0.114 -0.2860  0.1049  0.8947
  775TIP3    H123960   1.259   6.435   0.053 -0.4726  0.4313  1.0275
  775TIP3    H223961   1.269   6.361   0.185  1.0040 -2.9790 -0.8680
  776TIP3   OH223962   6.711   1.004   7.614  0.0376  0.7451 -0.3233
  776TIP3    H123963   6.806   1.002   7.623  0.1269 -0.0081 -1.2977
  776TIP3    H223964   6.695   1.023   7.522 -0.7153 -1.4880 -0.7230
  777TIP3   OH223965   5.886   6.232   0.463  0.0404 -0.0973 -0.0101
  777TIP3    H123966   5.815   6.270   0.412  0.2561  1.6930  0.9342
  777TIP3    H223967   5.929   6.307   0.504  0.8041 -1.3315  1.5816
  778TIP3   OH223968   2.531   3.241   7.291 -0.0638 -0.4891 -0.3212
  778TIP3    H123969   2.438   3.227   7.270  0.0058  1.0975 -1.9322
  778TIP3    H223970   2.547   3.186   7.368 -1.8682 -2.2067 -1.0956
  779TIP3   OH223971   6.029   4.597   6.936  0.3715  0.3558  0.3873
  779TIP3    H123972   6.083   4.630   6.863  1.4211 -0.7044  0.6522
  779TIP3    H223973   6.073   4.516   6.963 -1.4347 -0.6229  0.5464
  780TIP3   OH223974   4.794   1.358   7.840 -0.5340 -0.3391 -0.0100
  780TIP3    H123975   4.858   1.343   7.771 -0.4476  0.1442 -0.0420
  780TIP3    H223976   4.765   1.448   7.826 -1.7389 -0.7735 -0.4193
  781TIP3   OH223977   6.711   6.633   7.820  0.3549 -0.3342 -0.2499
  781TIP3    H123978   6.668   6.709   7.857  0.3637 -0.5326  0.1802
  781TIP3    H223979   6.640   6.571   7.803  0.3534 -0.2503 -0.5472
  782TIP3   OH223980   0.879   4.343   7.625 -0.6766 -0.1727  0.3970
  782TIP3    H123981   0.940   4.395   7.574 -0.8835  0.0084  0.3337
  782TIP3    H223982   0.847   4.403   7.693 -0.7331 -0.2855  0.4705
  783TIP3   OH223983   3.255   2.608   8.441 -0.2794  0.0048 -0.5170
  783TIP3    H123984   3.178   2.662   8.421 -0.5844  0.1544  0.9397
  783TIP3    H223985   3.224   2.518   8.431 -0.1964  0.0700 -1.4478
  784TIP3   OH223986   4.058   4.926   0.149  0.0895 -0.6597 -0.1930
  784TIP3    H123987   4.036   4.877   0.228 -0.0410 -0.4268 -0.0832
  784TIP3    H223988   4.121   4.993   0.178 -0.8410  0.1769 -0.0570
  785TIP3   OH223989   2.541   6.848   6.980  0.2124 -0.1659 -0.3009
  785TIP3    H123990   2.451   6.815   6.977  0.2850 -0.3410 -0.5904
  785TIP3    H223991   2.575   6.835   6.892  0.4430  0.1306 -0.2612
  786TIP3   OH223992   3.847   3.545   1.145  0.0084 -0.0580 -0.7713
  786TIP3    H123993   3.844   3.500   1.229  0.6834  0.7241 -0.3127
  786TIP3    H223994   3.870   3.477   1.082  0.9557 -0.3702 -0.1039
  787TIP3   OH223995   3.131   4.914   0.913 -0.8619 -0.1842 -0.0689
  787TIP3    H123996   3.194   4.924   0.984 -0.3323  0.2405 -0.5815
  787TIP3    H223997   3.121   4.819   0.903  0.4824 -0.2910 -0.6405
  788TIP3   OH223998   4.942   2.172   1.945  0.0124  0.3133 -0.1996
  788TIP3    H123999   4.851   2.145   1.931  0.0062  1.1346 -1.9849
  788TIP3    H224000   4.944   2.204   2.035 -1.7500  1.3428 -0.4816
  789TIP3   OH224001   4.072   3.730   1.132  0.6880 -0.0042 -0.4585
  789TIP3    H124002   4.096   3.695   1.218 -0.7051 -1.4865 -0.6311
  789TIP3    H224003   3.993   3.682   1.107 -0.0684  1.7724 -1.7220
  790TIP3   OH224004   3.035   0.149   0.672  0.0664 -0.0121  0.4869
  790TIP3    H124005   3.102   0.181   0.732 -0.4377  0.9010  0.5794
  790TIP3    H224006   3.078   0.150   0.586 -0.0883  1.4471  0.4031
  791TIP3   OH224007   6.275   0.592   6.601  0.0732  0.0031  0.1863
  791TIP3    H124008   6.259   0.682   6.630 -2.1948 -0.1353 -0.4662
  791TIP3    H224009   6.370   0.588   6.588  0.1206  2.6871 -0.9950
  792TIP3   OH224010   2.223   4.098   0.216  0.3024  0.2631  0.3995
  792TIP3    H124011   2.182   4.073   0.298  0.9363  0.0667  0.6629
  792TIP3    H224012   2.180   4.180   0.192 -1.0293 -0.4959  0.0829
  793TIP3   OH224013   5.227   2.926   0.075 -0.0916  0.4711  0.1373
  793TIP3    H124014   5.314   2.937   0.038 -0.2421  1.1104 -0.0281
  793TIP3    H224015   5.243   2.887   0.161  0.4409  1.6623  0.6015
  794TIP3   OH224016   1.740   5.376   6.779  0.6126 -0.1828 -0.0286
  794TIP3    H124017   1.728   5.284   6.755  1.3185 -0.8203  1.8974
  794TIP3    H224018   1.761   5.420   6.697  0.1026 -1.7072 -1.0078
  795TIP3   OH224019   2.342   4.766   2.773 -0.1557 -0.0885 -0.0978
  795TIP3    H124020   2.299   4.802   2.695 -0.8181 -0.9071 -0.1282
  795TIP3    H224021   2.318   4.673   2.772  0.5088 -0.2733  0.6391
  796TIP3   OH224022   6.270   2.849   0.778  0.2778  0.1208 -0.0904
  796TIP3    H124023   6.303   2.884   0.695  0.6936 -1.4812 -0.6286
  796TIP3    H224024   6.317   2.767   0.791 -1.1305 -0.5993  0.7888
  797TIP3   OH224025   2.512   5.247   1.631 -0.6490 -0.1256  0.3166
  797TIP3    H124026   2.570   5.261   1.557 -1.3963  0.5343 -0.1666
  797TIP3    H224027   2.532   5.320   1.691  0.4013 -1.0113  1.0788
  798TIP3   OH224028   3.905   1.061   2.440  0.5147 -0.5632  0.4433
  798TIP3    H124029   3.991   1.022   2.456  1.0199  1.0328  1.9385
  798TIP3    H224030   3.913   1.151   2.472 -2.1491 -0.8346  2.1855
  799TIP3   OH224031   0.759   6.407   0.736 -0.5757  0.2192  0.0122
  799TIP3    H124032   0.685   6.456   0.772 -1.9146 -1.7708  0.0933
  799TIP3    H224033   0.834   6.436   0.787 -1.3958  1.7839  0.3909
  800TIP3   OH224034   3.889   0.963   6.875 -0.0342  0.2616 -0.1569
  800TIP3    H124035   3.859   0.928   6.791 -0.0873  0.6723 -0.3134
  800TIP3    H224036   3.950   1.033   6.851  0.2192  0.1492  0.1518
  801TIP3   OH224037   6.451   2.398   8.004 -0.2593 -0.7852  0.0544
  801TIP3    H124038   6.380   2.350   8.046 -0.0059 -0.1330  1.2651
  801TIP3    H224039   6.442   2.487   8.037  0.8421 -0.5876 -0.1571
  802TIP3   OH224040   3.310   5.702   7.080 -0.3577 -0.6746  0.2600
  802TIP3    H124041   3.265   5.753   7.148  1.1596 -0.1171  0.8815
  802TIP3    H224042   3.277   5.612   7.092  0.4634 -0.7574  2.2822
  803TIP3   OH224043   2.200   1.967   0.799  0.2490 -0.0769  0.7598
  803TIP3    H124044   2.275   2.019   0.825  1.8973 -0.9879 -1.8182
  803TIP3    H224045   2.139   2.030   0.759  0.4831  0.3885  1.1303
  804TIP3   OH224046   0.218   0.491   8.382 -0.1434  0.9174 -0.1226
  804TIP3    H124047   0.313   0.483   8.383 -0.0635  1.3024  2.3626
  804TIP3    H224048   0.200   0.559   8.317  1.1162 -0.2087 -1.7276
  805TIP3   OH224049   5.272   3.867   0.795 -0.0947  0.2795  0.2891
  805TIP3    H124050   5.323   3.825   0.865  1.3391 -1.6808 -1.7824
  805TIP3    H224051   5.266   3.959   0.821  0.1030 -0.4247  3.1050
  806TIP3   OH224052   5.072   0.248   1.221 -0.2715 -0.3275  0.2693
  806TIP3    H124053   5.036   0.160   1.222 -1.4733  0.1383 -0.5253
  806TIP3    H224054   4.996   0.306   1.230  0.5914  0.6413  2.0528
  807TIP3   OH224055   6.812   1.592   7.076 -0.1725 -0.0281 -0.0834
  807TIP3    H124056   6.717   1.598   7.060 -0.1794 -1.7644 -0.8532
  807TIP3    H224057   6.836   1.680   7.105 -2.1174  0.3224  0.6634
  808TIP3   OH224058   5.947   3.331   0.571 -0.3792  0.3886  0.1006
  808TIP3    H124059   5.877   3.270   0.599 -0.9283 -0.0288 -2.0171
  808TIP3    H224060   5.913   3.418   0.592 -0.8125  0.1122  0.5758
  809TIP3   OH224061   5.278   5.723   0.143  0.2356  0.1270  0.0693
  809TIP3    H124062   5.300   5.794   0.202  1.3354  1.1176 -1.4598
  809TIP3    H224063   5.358   5.707   0.093 -0.0388 -2.0689  0.2162
  810TIP3   OH224064   4.928   5.060   0.048  0.2454  0.0844  0.2621
  810TIP3    H124065   4.911   4.970   0.020  1.9141 -0.3944  0.6244
  810TIP3    H224066   4.908   5.114  -0.028 -1.9058 -0.4470  0.4128
  811TIP3   OH224067   2.820   1.687   1.957 -0.3999 -0.5400  0.3349
  811TIP3    H124068   2.808   1.718   2.047  0.4733  1.5056 -0.1883
  811TIP3    H224069   2.798   1.763   1.903  1.4074 -0.9649 -1.0831
  812TIP3   OH224070   1.464   4.271   1.072  0.3315  0.0189  0.6063
  812TIP3    H124071   1.427   4.307   1.152 -0.8588 -1.2894  0.6924
  812TIP3    H224072   1.395   4.213   1.038  1.4117 -0.6541 -0.5213
  813TIP3   OH224073   6.135   2.509   6.634 -0.4212 -0.1488  0.3580
  813TIP3    H124074   6.202   2.548   6.690  1.6417 -2.7610 -0.0694
  813TIP3    H224075   6.175   2.428   6.603 -2.5193 -0.1701 -2.7041
  814TIP3   OH224076   0.618   3.619   6.906 -0.5193 -0.3093 -0.1112
  814TIP3    H124077   0.642   3.693   6.850 -0.4290  0.6411  1.1227
  814TIP3    H224078   0.591   3.550   6.846  1.7939 -0.1722 -1.4259
  815TIP3   OH224079   4.919   1.822   1.752  0.1985  0.2555  0.3804
  815TIP3    H124080   4.942   1.806   1.844 -1.9947  0.9711  1.1169
  815TIP3    H224081   4.932   1.916   1.741  1.5244  0.0044 -0.4065
  816TIP3   OH224082   2.753   0.269   0.653  0.4533 -0.2013 -0.4163
  816TIP3    H124083   2.757   0.364   0.650  2.5702 -0.2232  0.1026
  816TIP3    H224084   2.844   0.241   0.657 -0.0670 -2.3038 -1.5763
  817TIP3   OH224085   4.674   2.851   7.859  0.2059 -0.5229 -0.3569
  817TIP3    H124086   4.769   2.847   7.851  0.4188  1.6343  0.4797
  817TIP3    H224087   4.658   2.849   7.953 -0.5331 -0.0851 -0.4654
  818TIP3   OH224088   4.500   3.234   8.585 -0.1230 -0.1906 -0.2268
  818TIP3    H124089   4.563   3.208   8.518 -1.2461  2.2288 -2.4022
  818TIP3    H224090   4.553   3.247   8.664  1.3956 -2.2844 -0.8264
  819TIP3   OH224091   3.775   2.109   7.413  0.1159 -0.2688  0.4225
  819TIP3    H124092   3.786   2.163   7.491  1.2873  0.5470 -0.2800
  819TIP3    H224093   3.689   2.134   7.379  0.6216  1.1639  0.1289
  820TIP3   OH224094   5.252   4.313   0.532  0.8297  0.3582 -0.3863
  820TIP3    H124095   5.294   4.227   0.534  0.1946  0.0432 -0.1736
  820TIP3    H224096   5.324   4.375   0.535  1.2976 -0.1677 -0.5318
  821TIP3   OH224097   4.037   4.063   7.550 -0.0887  0.0857  1.0331
  821TIP3    H124098   4.041   4.133   7.616 -1.1423 -1.3314  2.6967
  821TIP3    H224099   4.003   3.988   7.598 -0.7950 -1.0576 -1.1505
  822TIP3   OH224100   5.205   3.394   7.725 -0.4875  0.0196 -0.0646
  822TIP3    H124101   5.289   3.423   7.762 -0.6675  0.6388 -0.1203
  822TIP3    H224102   5.150   3.379   7.802 -0.4903  0.1386 -0.0426
  823TIP3   OH224103   5.620   6.102   7.459  0.5255  0.1077  0.1174
  823TIP3    H124104   5.537   6.149   7.453  0.9980  0.9264 -0.1685
  823TIP3    H224105   5.595   6.009   7.464 -0.4058  0.3575  0.3175
  824TIP3   OH224106   0.152   4.214   8.202  0.1130  0.5343 -0.3013
  824TIP3    H124107   0.172   4.292   8.150  0.6415  0.4293 -0.2636
  824TIP3    H224108   0.237   4.172   8.216 -0.3253 -0.9180 -1.6723
  825TIP3   OH224109   3.907   4.709   0.537  0.2243 -0.0087 -0.2307
  825TIP3    H124110   3.829   4.715   0.482  0.0609 -0.0267 -0.0014
  825TIP3    H224111   3.902   4.623   0.578 -1.2332  1.0915  2.1322
  826TIP3   OH224112   4.679   2.025   1.886  0.1627  0.5393 -0.4892
  826TIP3    H124113   4.640   1.969   1.819  2.7611 -0.5041 -1.2416
  826TIP3    H224114   4.656   1.983   1.969 -0.1507 -0.1470 -0.9130
  827TIP3   OH224115   0.916   3.900   1.920  0.6155 -0.7146  0.0980
  827TIP3    H124116   0.985   3.838   1.897  0.4325 -1.4367  1.4167
  827TIP3    H224117   0.962   3.983   1.936  1.0173 -0.8575 -0.2978
  828TIP3   OH224118   4.894   1.749   2.502 -0.0959 -0.5870 -0.1932
  828TIP3    H124119   4.870   1.807   2.574  1.0668 -2.1921  1.5889
  828TIP3    H224120   4.988   1.764   2.491 -0.3466 -0.0262 -1.7377
  829TIP3   OH224121   3.384   0.776   1.409  0.3161  0.4168 -0.3253
  829TIP3    H124122   3.291   0.795   1.417 -0.2696 -1.8711 -0.9018
  829TIP3    H224123   3.393   0.687   1.443  1.6654 -0.7276 -3.3414
  830TIP3   OH224124   3.286   6.228   2.116  0.4807  0.6071  0.5871
  830TIP3    H124125   3.344   6.240   2.041  0.0585  0.2936  0.2001
  830TIP3    H224126   3.204   6.270   2.089 -0.4152 -1.4538 -0.0495
  831TIP3   OH224127   0.826   6.817   1.035 -0.2486 -0.7161 -0.8361
  831TIP3    H124128   0.785   6.888   0.985  1.2761  0.7007 -0.1467
  831TIP3    H224129   0.804   6.836   1.126  2.7840  0.8116 -0.2902
  832TIP3   OH224130   6.390   1.608   0.035  0.2962 -0.0869 -0.4329
  832TIP3    H124131   6.391   1.695   0.076  2.1315  0.3988 -1.4305
  832TIP3    H224132   6.334   1.556   0.093  1.8798  0.8542  2.1342
  833TIP3   OH224133   3.751   3.631   2.037  0.5827  0.0877  0.4215
  833TIP3    H124134   3.675   3.576   2.052  0.3498  0.7542  1.8149
  833TIP3    H224135   3.765   3.676   2.120  1.3388  1.4084 -0.3887
  834TIP3   OH224136   5.028   3.187   0.346 -1.0479 -0.3238 -0.8381
  834TIP3    H124137   4.965   3.222   0.409  0.5273  1.0428  0.0553
  834TIP3    H224138   5.010   3.236   0.265  0.4924  2.0488  0.1356
  835TIP3   OH224139   0.975   2.641   7.556  0.5846 -0.0882  0.0866
  835TIP3    H124140   1.045   2.702   7.580 -1.5670  2.4107  0.4061
  835TIP3    H224141   0.956   2.661   7.465 -0.1196 -0.2907  0.1813
  836TIP3   OH224142   0.061   5.384   8.581 -0.0800 -0.4719 -0.1783
  836TIP3    H124143   0.021   5.416   8.662  0.0075 -1.3291  0.2117
  836TIP3    H224144   0.101   5.462   8.542 -0.8234  0.1128  0.1829
  837TIP3   OH224145   5.657   5.449   7.689 -0.2834  0.3307 -0.1092
  837TIP3    H124146   5.678   5.400   7.609  2.9747 -1.2356  1.4892
  837TIP3    H224147   5.574   5.412   7.718 -0.2260 -0.9547 -1.4252
  838TIP3   OH224148   1.481   3.729   0.686  0.2661  0.2285  0.5054
  838TIP3    H124149   1.544   3.681   0.633  0.4025 -0.9421  1.6797
  838TIP3    H224150   1.532   3.763   0.759 -0.1937  0.5706  0.6708
  839TIP3   OH224151   1.974   3.837   6.902  0.0570 -0.1042 -0.4606
  839TIP3    H124152   1.983   3.924   6.864 -1.3755  0.0590 -0.4961
  839TIP3    H224153   2.005   3.846   6.992  1.6865 -0.0354 -0.9962
  840TIP3   OH224154   1.036   2.052   8.260 -0.2480  0.4739 -0.2341
  840TIP3    H124155   1.116   2.003   8.281 -0.0231 -0.2574 -2.4346
  840TIP3    H224156   1.062   2.108   8.187 -1.9959 -0.7344 -1.8779
  841TIP3   OH224157   3.321   6.801   1.845  0.3665  0.1599  0.5450
  841TIP3    H124158   3.290   6.785   1.935  1.0197 -0.3111  0.6958
  841TIP3    H224159   3.256   6.757   1.790 -0.8247  1.6537  0.6986
  842TIP3   OH224160   0.857   5.884   0.254  0.1018 -0.1393  0.0432
  842TIP3    H124161   0.797   5.809   0.261  1.4854 -1.3662 -0.8055
  842TIP3    H224162   0.942   5.849   0.280  0.6336  1.3842  0.4662
  843TIP3   OH224163   4.769   2.769   6.923 -0.3208 -0.3803 -0.3274
  843TIP3    H124164   4.835   2.726   6.868 -0.6563 -0.6263 -0.5403
  843TIP3    H224165   4.772   2.861   6.898 -0.8639 -0.5778 -1.1665
  844TIP3   OH224166   3.972   3.170   7.243  0.8277  0.4200 -0.1479
  844TIP3    H124167   3.919   3.244   7.275  1.7069  0.3450  1.5770
  844TIP3    H224168   4.044   3.211   7.196  0.8692  0.6307  0.0980
  845TIP3   OH224169   5.965   5.349   7.589 -0.4842  0.1578 -0.0700
  845TIP3    H124170   6.019   5.366   7.666  0.7588 -0.3430 -0.7930
  845TIP3    H224171   6.017   5.382   7.515 -1.4024  0.1401 -0.7470
  846TIP3   OH224172   1.807   6.331   2.241  0.1631  0.4349  0.0726
  846TIP3    H124173   1.889   6.297   2.276 -1.0505 -0.5440  2.1317
  846TIP3    H224174   1.813   6.314   2.147  1.1946 -2.1635  0.5110
  847TIP3   OH224175   5.227   6.444   0.729 -0.2084  0.2369 -0.0791
  847TIP3    H124176   5.273   6.368   0.765 -0.0788 -0.3696 -1.4813
  847TIP3    H224177   5.283   6.474   0.658 -0.2722  1.6557  0.4422
  848TIP3   OH224178   6.071   1.329   8.003  0.2821 -0.3926 -0.4940
  848TIP3    H124179   6.019   1.294   7.930 -1.1916 -0.0536  0.3344
  848TIP3    H224180   6.078   1.256   8.064 -0.3965 -0.0737 -0.0137
  849TIP3   OH224181   1.465   5.271   7.676 -0.8305  0.4639  0.1023
  849TIP3    H124182   1.524   5.274   7.600 -0.3999  0.8579  0.4490
  849TIP3    H224183   1.381   5.245   7.639 -0.6200  0.6335 -0.5116
  850TIP3   OH224184   2.811   6.827   0.026  0.0961 -0.3433 -0.0050
  850TIP3    H124185   2.776   6.743  -0.006  1.5478 -1.3158  0.8122
  850TIP3    H224186   2.750   6.854   0.094 -0.7179 -0.4076 -0.6859
  851TIP3   OH224187   2.207   4.653   7.561 -0.7573  0.4204  0.1725
  851TIP3    H124188   2.278   4.716   7.546  1.2147 -1.9958 -1.3253
  851TIP3    H224189   2.251   4.570   7.575 -3.3243 -1.2240 -0.8462
  852TIP3   OH224190   1.336   5.014   0.205  0.5401 -0.2260 -0.3880
  852TIP3    H124191   1.376   5.084   0.154 -0.5437  0.1307 -0.7929
  852TIP3    H224192   1.333   5.048   0.295  0.6803 -0.0460 -0.4514
  853TIP3   OH224193   2.144   4.183   8.092 -0.1699  0.3918 -0.1092
  853TIP3    H124194   2.222   4.136   8.063 -1.0240 -1.7428  0.9050
  853TIP3    H224195   2.076   4.117   8.098 -1.7508  1.9694  0.2998
  854TIP3   OH224196   5.794   2.997   7.163 -0.3013 -0.3306  0.2491
  854TIP3    H124197   5.707   3.006   7.126  0.0467 -0.5033 -0.6388
  854TIP3    H224198   5.786   2.926   7.227 -0.4270 -1.6412 -1.1480
  855TIP3   OH224199   3.746   0.882   7.080  0.1335 -0.8045 -0.0427
  855TIP3    H124200   3.801   0.898   7.003 -0.6297 -1.4481 -0.7461
  855TIP3    H224201   3.807   0.884   7.154  0.8385  0.1285 -0.6208
  856TIP3   OH224202   4.100   0.568   8.611 -0.1805 -0.1808  0.5671
  856TIP3    H124203   4.044   0.644   8.620  1.4536  1.0114  1.1427
  856TIP3    H224204   4.060   0.501   8.667 -0.8307  0.7402  1.2194
  857TIP3   OH224205   3.395   0.495   1.169 -0.5098 -0.0409 -0.0407
  857TIP3    H124206   3.488   0.517   1.173 -0.3960 -0.4895 -0.0618
  857TIP3    H224207   3.388   0.437   1.094 -0.7320 -0.3415  0.2072
  858TIP3   OH224208   1.727   3.037   1.817 -0.1897 -0.0565 -0.1749
  858TIP3    H124209   1.676   3.117   1.805 -3.1205 -1.7062  0.3473
  858TIP3    H224210   1.719   2.991   1.733  0.1597 -0.5058  0.0326
  859TIP3   OH224211   6.745   6.644   0.563  0.3362 -0.2056  0.8010
  859TIP3    H124212   6.680   6.665   0.630 -0.1436  0.4080  0.1586
  859TIP3    H224213   6.768   6.728   0.524 -0.2176 -0.6527 -0.5501
  860TIP3   OH224214   6.425   1.214   2.337  0.1994  0.6829  0.3911
  860TIP3    H124215   6.377   1.151   2.390 -2.9547  2.5250  0.0066
  860TIP3    H224216   6.508   1.171   2.317 -0.1901 -1.7294  3.2823
  861TIP3   OH224217   5.560   1.702   0.799 -0.4073 -0.1241 -0.3298
  861TIP3    H124218   5.586   1.673   0.886 -0.2974  1.1193  0.0662
  861TIP3    H224219   5.619   1.655   0.740 -0.7905 -1.3348  0.2149
  862TIP3   OH224220   3.603   1.123   7.488  0.1900  0.3783 -0.2269
  862TIP3    H124221   3.651   1.203   7.470 -0.3354  1.1431  1.5703
  862TIP3    H224222   3.519   1.152   7.525 -0.5122 -0.9710 -0.6788
  863TIP3   OH224223   5.618   2.218   7.639  0.5656  0.4526 -0.8834
  863TIP3    H124224   5.584   2.131   7.659  1.8828 -0.0777 -0.8916
  863TIP3    H224225   5.543   2.265   7.601 -0.4111 -0.3556  0.0037
  864TIP3   OH224226   3.221   1.700   6.794 -0.3384  0.3586  0.1377
  864TIP3    H124227   3.290   1.635   6.782  0.2179  0.7685  0.9812
  864TIP3    H224228   3.207   1.736   6.707  0.2428 -0.0158 -0.1167
  865TIP3   OH224229   3.889   2.838   8.235  0.2740  0.5364 -0.5486
  865TIP3    H124230   3.880   2.931   8.216  2.0704  0.6686 -0.9485
  865TIP3    H224231   3.948   2.805   8.167  0.5908 -0.6534  0.2622
  866TIP3   OH224232   3.923   3.220   8.656  0.7107  0.8980 -0.3712
  866TIP3    H124233   4.006   3.208   8.702  0.4125 -0.7899 -0.1998
  866TIP3    H224234   3.917   3.143   8.599 -0.8522  0.8557 -0.1790
  867TIP3   OH224235   3.249   2.616   8.054 -0.3518  0.7467  0.1309
  867TIP3    H124236   3.194   2.620   7.975 -3.5136 -1.5254  1.9885
  867TIP3    H224237   3.215   2.686   8.110 -1.8163 -0.9689  1.4810
  868TIP3   OH224238   5.453   4.304   0.771 -0.4029 -0.1598  0.4267
  868TIP3    H124239   5.449   4.368   0.842  0.2968  0.3944 -0.0138
  868TIP3    H224240   5.432   4.355   0.692 -0.9986 -0.7288  0.2074
  869TIP3   OH224241   3.089   4.315   1.436 -0.0135  0.5986 -0.1294
  869TIP3    H124242   3.097   4.410   1.433  2.4098  0.4954  0.9336
  869TIP3    H224243   3.058   4.296   1.524 -3.7461  0.4469 -1.2916
  870TIP3   OH224244   4.993   3.925   8.582  0.2881 -0.3141  0.3282
  870TIP3    H124245   4.943   4.006   8.587  1.6260  0.5271  0.2972
  870TIP3    H224246   5.037   3.918   8.667  1.0983 -0.3974 -0.0886
  871TIP3   OH224247   0.977   4.763   7.566 -0.8796 -0.1258 -0.5064
  871TIP3    H124248   1.015   4.683   7.529  0.0610  0.3288 -0.5411
  871TIP3    H224249   1.050   4.806   7.610 -1.7547 -0.1649  1.0612
  872TIP3   OH224250   0.925   3.004   1.554  0.6064  0.1707  0.1809
  872TIP3    H124251   0.887   3.062   1.488  0.8104 -1.1434 -1.1688
  872TIP3    H224252   0.936   3.058   1.632 -0.7148  1.4898 -0.5068
  873TIP3   OH224253   4.702   2.895   1.942 -0.1981 -0.2410  0.0140
  873TIP3    H124254   4.732   2.876   2.031 -0.0484 -0.2113 -0.0289
  873TIP3    H224255   4.756   2.969   1.914 -1.1637  0.6163  0.3760
  874TIP3   OH224256   4.331   5.518   1.478  0.3459  0.1422 -1.0101
  874TIP3    H124257   4.412   5.471   1.456 -1.2144 -1.8368 -2.9541
  874TIP3    H224258   4.277   5.453   1.522  0.1652  1.7705  1.3349
  875TIP3   OH224259   4.333   5.070   0.912 -0.4931  0.1730 -0.4379
  875TIP3    H124260   4.397   5.089   0.843 -1.6780  0.0789 -1.6143
  875TIP3    H224261   4.385   5.048   0.989  0.8770 -0.1687 -1.4356
  876TIP3   OH224262   5.075   6.823   0.268  0.0899 -0.0178  0.0086
  876TIP3    H124263   5.096   6.729   0.264 -0.5136 -0.1358 -0.5614
  876TIP3    H224264   5.059   6.840   0.360 -0.0333 -0.5294  0.0825
  877TIP3   OH224265   0.536   0.148   0.744 -0.0348 -0.2741 -0.2631
  877TIP3    H124266   0.545   0.209   0.817  0.3006 -1.0721  0.3920
  877TIP3    H224267   0.601   0.079   0.762 -2.7235 -2.6979  0.9846
  878TIP3   OH224268   2.254   3.023   6.767  0.3014 -0.4877 -0.1251
  878TIP3    H124269   2.269   3.111   6.732  0.1058  0.2114  1.4792
  878TIP3    H224270   2.167   2.998   6.734  0.5385 -0.2788 -0.9346
  879TIP3   OH224271   6.210   2.632   6.118 -0.4665  0.3368 -0.3596
  879TIP3    H124272   6.266   2.661   6.189 -1.2143  0.0690  0.3497
  879TIP3    H224273   6.139   2.697   6.115  0.4909  1.3845 -2.0580
  880TIP3   OH224274   6.809   1.350   6.935  0.4111 -0.1620  0.3852
  880TIP3    H124275   6.783   1.301   7.014  1.9740 -0.0842  0.9883
  880TIP3    H224276   6.832   1.437   6.967 -0.0746  0.2501 -0.3532
  881TIP3   OH224277   1.496   4.778   6.730 -0.1208  0.0264  0.6914
  881TIP3    H124278   1.581   4.822   6.731  0.0723 -0.3307  0.3815
  881TIP3    H224279   1.432   4.849   6.732  0.0807  0.7281 -4.2952
  882TIP3   OH224280   2.558   5.034   0.908 -0.1922  0.1490  0.2175
  882TIP3    H124281   2.488   4.978   0.874  0.2282  0.1198 -0.6352
  882TIP3    H224282   2.513   5.110   0.943 -0.6599  0.1134 -0.2899
  883TIP3   OH224283   3.104   1.804   0.582  0.3055  0.5270 -0.1064
  883TIP3    H124284   3.041   1.748   0.537  0.7537 -0.9942  1.0697
  883TIP3    H224285   3.183   1.798   0.528  0.7260 -0.9931  0.6193
  884TIP3   OH224286   0.960   4.432   8.465 -0.0511  0.0433 -0.2706
  884TIP3    H124287   0.874   4.463   8.436 -0.9505 -0.0487  2.1180
  884TIP3    H224288   0.949   4.337   8.472  1.6454 -0.6438 -4.1322
  885TIP3   OH224289   5.426   1.785   2.237 -0.1217  0.2326  0.3946
  885TIP3    H124290   5.391   1.710   2.189 -1.9612  2.2274 -1.5899
  885TIP3    H224291   5.520   1.785   2.216 -0.4199 -0.4947 -1.0535
  886TIP3   OH224292   0.929   1.715   1.349 -0.2671 -0.2551 -0.5365
  886TIP3    H124293   0.952   1.624   1.331  1.0169 -0.0493 -0.0643
  886TIP3    H224294   1.012   1.763   1.338  0.0246  0.2998  2.9387
  887TIP3   OH224295   0.096   6.330   6.452 -0.1971  0.4382  0.0049
  887TIP3    H124296   0.187   6.313   6.475 -0.8113  0.1115  2.5242
  887TIP3    H224297   0.048   6.256   6.489 -1.5531  0.8861 -0.7841
  888TIP3   OH224298   6.135   1.780   8.489  0.3129 -0.0300 -0.2722
  888TIP3    H124299   6.217   1.817   8.457  0.0260  1.1096  0.2604
  888TIP3    H224300   6.125   1.817   8.577 -1.3447  0.8148 -0.7672
  889TIP3   OH224301   3.152   3.936   1.721  0.5873  0.4941 -0.4060
  889TIP3    H124302   3.238   3.893   1.715 -0.0490 -0.5995 -2.0841
  889TIP3    H224303   3.104   3.883   1.785  1.0368  0.9066  0.2828
  890TIP3   OH224304   4.991   2.446   1.217 -0.0213 -0.4119  0.0600
  890TIP3    H124305   5.052   2.519   1.213  0.5168 -0.6401  2.4487
  890TIP3    H224306   4.927   2.472   1.284 -1.7524 -0.7891 -1.3651
  891TIP3   OH224307   6.747   0.243   7.425 -0.2765 -0.2515  0.0020
  891TIP3    H124308   6.674   0.287   7.381 -0.6277 -1.1633 -0.3310
  891TIP3    H224309   6.816   0.240   7.359  0.6105  1.8380  0.7156
  892TIP3   OH224310   2.270   5.902   7.247  0.5757 -0.1763  0.0321
  892TIP3    H124311   2.256   5.937   7.159  0.7551 -2.8600 -1.1577
  892TIP3    H224312   2.193   5.928   7.296  0.9009  2.1793 -0.5858
  893TIP3   OH224313   3.993   6.081   0.518  0.3442 -0.4602 -0.3081
  893TIP3    H124314   3.990   6.170   0.484 -1.8458 -0.7370 -0.9887
  893TIP3    H224315   4.075   6.045   0.484  0.6118  0.8641 -1.1270
  894TIP3   OH224316   2.271   2.445   8.040 -0.4846  0.1989  0.1675
  894TIP3    H124317   2.351   2.400   8.068 -0.8994  0.0141  1.0650
  894TIP3    H224318   2.205   2.377   8.034 -0.1605 -0.0025 -2.4780
  895TIP3   OH224319   2.746   2.722   1.107  0.0712 -0.1256 -0.0843
  895TIP3    H124320   2.716   2.687   1.023 -0.9138  1.2148 -0.3236
  895TIP3    H224321   2.700   2.669   1.173 -0.6933  0.1086 -0.4226
  896TIP3   OH224322   0.448   6.078   6.737 -0.9605 -0.0250 -0.4814
  896TIP3    H124323   0.491   6.088   6.652  0.8745 -2.0209  0.1074
  896TIP3    H224324   0.429   5.984   6.743 -0.6756  0.0026  1.4702
  897TIP3   OH224325   5.616   6.838   2.380 -0.5861  0.0752  0.1885
  897TIP3    H124326   5.538   6.889   2.357  0.2598  0.1042 -3.1336
  897TIP3    H224327   5.586   6.747   2.384 -1.1254  0.2772  0.9276
  898TIP3   OH224328   5.129   3.954   0.163  0.2016  0.0406  0.0252
  898TIP3    H124329   5.115   3.877   0.218  1.6821 -0.4015 -0.1962
  898TIP3    H224330   5.224   3.963   0.156  0.0607  1.6744 -0.2659
  899TIP3   OH224331   5.978   2.771   6.171  0.4583  0.0515  0.1293
  899TIP3    H124332   5.948   2.694   6.220 -0.0085 -1.2887 -2.1552
  899TIP3    H224333   5.915   2.839   6.195  0.3910 -0.4598  1.5448
  900TIP3   OH224334   4.555   5.314   7.805  0.2034 -0.2429  0.0418
  900TIP3    H124335   4.501   5.242   7.839  0.4962 -0.9845 -1.0320
  900TIP3    H224336   4.639   5.304   7.852  0.4577 -0.9993 -0.5443
  901TIP3   OH224337   5.863   6.220   8.408 -0.9566 -0.0200  0.0651
  901TIP3    H124338   5.846   6.170   8.329 -2.0073 -0.0291  0.2798
  901TIP3    H224339   5.954   6.202   8.429 -0.6063  0.1431 -1.2449
  902TIP3   OH224340   1.188   3.027   7.154 -0.1964 -0.0429 -0.3918
  902TIP3    H124341   1.217   3.109   7.194 -1.1791 -1.2756  3.2916
  902TIP3    H224342   1.237   2.959   7.200 -2.2397 -1.6635 -0.4477
  903TIP3   OH224343   3.840   0.596   0.591 -0.3530 -0.0351 -0.2505
  903TIP3    H124344   3.763   0.593   0.534 -1.2704 -1.1480  0.9913
  903TIP3    H224345   3.807   0.575   0.678  1.3007 -0.1416  0.3950
  904TIP3   OH224346   0.064   4.463   0.843 -0.0232  0.1927 -0.0488
  904TIP3    H124347  -0.013   4.517   0.828 -0.5979 -0.8291 -0.9310
  904TIP3    H224348   0.042   4.406   0.917 -0.9156 -1.4462 -1.4951
  905TIP3   OH224349   4.530   5.249   0.428  0.4575  0.2496 -0.1211
  905TIP3    H124350   4.464   5.214   0.488 -0.3845  1.0423 -0.5542
  905TIP3    H224351   4.546   5.178   0.366 -2.2287  0.9895 -1.8058
  906TIP3   OH224352   6.525   1.321   8.040 -0.2694  0.5719 -0.6374
  906TIP3    H124353   6.475   1.244   8.014 -0.6536  0.6963 -0.2796
  906TIP3    H224354   6.459   1.386   8.063  0.0180  0.3650  0.9637
  907TIP3   OH224355   2.962   2.020   8.623  0.3465  0.0454 -0.0784
  907TIP3    H124356   2.915   2.085   8.571  1.6146  1.4117  0.4162
  907TIP3    H224357   2.895   1.955   8.645 -1.1808  1.5586  0.0318
  908TIP3   OH224358   0.813   4.362   0.417 -0.2234  0.4905 -0.8166
  908TIP3    H124359   0.776   4.444   0.450 -1.2736  0.1493 -1.1072
  908TIP3    H224360   0.737   4.307   0.397  0.3175  0.5463 -3.4641
  909TIP3   OH224361   3.709   6.413   1.820 -0.2275 -0.2021  0.1456
  909TIP3    H124362   3.802   6.412   1.797 -0.7371 -0.6213 -2.2081
  909TIP3    H224363   3.690   6.323   1.847 -0.1494 -0.3701 -0.3455
  910TIP3   OH224364   1.258   5.531   7.572 -0.0947 -0.2798  0.3513
  910TIP3    H124365   1.268   5.511   7.479 -1.1319  2.4100 -0.4513
  910TIP3    H224366   1.171   5.498   7.595  0.0712 -0.7476  0.3059
  911TIP3   OH224367   2.631   1.666   0.244  0.1711  0.4293 -0.0123
  911TIP3    H124368   2.695   1.736   0.232  0.7435 -0.0715  0.0785
  911TIP3    H224369   2.633   1.647   0.338  0.5415 -0.1960 -0.1453
  912TIP3   OH224370   1.938   6.149   0.924  0.3837  0.3402  0.2306
  912TIP3    H124371   1.921   6.069   0.874  2.2636  0.5124 -0.7743
  912TIP3    H224372   1.856   6.197   0.920  0.2386  0.0301 -2.1718
  913TIP3   OH224373   3.616   2.911   2.114  0.2329  0.3264 -0.1809
  913TIP3    H124374   3.668   2.851   2.060  1.8585  1.1883  0.3667
  913TIP3    H224375   3.594   2.983   2.055  2.0646  1.3013  0.2208
  914TIP3   OH224376   3.576   4.348   1.790 -0.5461  0.3596 -0.1990
  914TIP3    H124377   3.581   4.253   1.782  1.2725  0.2616  1.3749
  914TIP3    H224378   3.508   4.374   1.728  0.7753 -1.6770 -2.7009
  915TIP3   OH224379   0.616   0.472   7.982  0.4136 -0.6833 -0.1774
  915TIP3    H124380   0.588   0.384   8.008  0.0144 -0.6299 -0.4259
  915TIP3    H224381   0.712   0.468   7.980  0.5323 -0.4761  2.1344
  916TIP3   OH224382   5.200   1.157   8.007  0.1865 -0.3150  0.5007
  916TIP3    H124383   5.164   1.106   7.935 -0.6718 -1.9240  1.9778
  916TIP3    H224384   5.135   1.225   8.025  0.1892 -0.1962  0.0531
  917TIP3   OH224385   3.153   0.989   7.582  0.1882  0.2427 -0.4741
  917TIP3    H124386   3.219   0.927   7.550 -0.7924 -1.9320  1.4911
  917TIP3    H224387   3.078   0.935   7.604 -1.3202  2.3603 -0.1224
  918TIP3   OH224388   0.918   6.477   2.181  0.1553  0.5399  0.3913
  918TIP3    H124389   0.986   6.534   2.145 -0.4775  0.8885 -0.2620
  918TIP3    H224390   0.836   6.515   2.151 -0.2869 -0.6068  0.1024
  919TIP3   OH224391   6.639   2.017   7.424 -0.1519  0.0649  0.6180
  919TIP3    H124392   6.653   1.928   7.392 -1.3219 -0.1137  0.5613
  919TIP3    H224393   6.674   2.016   7.513 -1.4611 -0.8833  1.1455
  920TIP3   OH224394   1.605   2.064   0.583  0.5078 -0.3718 -0.2633
  920TIP3    H124395   1.652   2.138   0.622 -1.1224  0.1908  0.7113
  920TIP3    H224396   1.577   2.011   0.657  0.4425 -1.2256 -0.8882
  921TIP3   OH224397   3.319   6.853   0.013  0.3289 -0.3071 -0.8385
  921TIP3    H124398   3.257   6.926   0.011  0.6920  0.0732  0.4427
  921TIP3    H224399   3.358   6.858   0.101  1.9853 -0.6748 -1.5087
  922TIP3   OH224400   0.092   1.731   6.033 -0.5405 -0.0345 -0.2464
  922TIP3    H124401   0.187   1.723   6.043 -0.2278  1.0098 -1.9781
  922TIP3    H224402   0.064   1.650   5.990 -0.1287  0.4386 -1.4373
  923TIP3   OH224403   2.738   3.114   1.437 -0.8240  0.8380  0.5282
  923TIP3    H124404   2.732   3.149   1.348  0.9402  0.2604  0.1400
  923TIP3    H224405   2.739   3.019   1.426 -1.0439  0.7438  1.2168
  924TIP3   OH224406   0.682   6.175   8.023  0.0443  0.1113 -0.1852
  924TIP3    H124407   0.695   6.154   7.931 -2.6307  0.2494 -0.6713
  924TIP3    H224408   0.689   6.270   8.027  2.0728 -0.0052  0.1687
  925TIP3   OH224409   1.293   3.120   7.612  0.0273 -0.4528  0.7350
  925TIP3    H124410   1.243   3.071   7.546  3.1111 -1.6471 -0.9204
  925TIP3    H224411   1.311   3.055   7.681 -0.4151 -0.1024  1.1906
  926TIP3   OH224412   6.722   4.409   7.569 -0.5120 -0.3081  0.1754
  926TIP3    H124413   6.691   4.500   7.574  1.5824  0.4330  0.9104
  926TIP3    H224414   6.805   4.415   7.522  0.3454 -1.6215  1.4340
  927TIP3   OH224415   5.081   6.541   0.261 -0.0784 -0.2923 -0.0818
  927TIP3    H124416   5.160   6.533   0.209 -0.0775 -0.9890  0.0191
  927TIP3    H224417   5.012   6.505   0.206 -0.3942  0.6076 -0.2994
  928TIP3   OH224418   3.230   2.122   0.591 -1.4407 -0.2704  0.0375
  928TIP3    H124419   3.278   2.132   0.509  1.9093  0.7730  1.9276
  928TIP3    H224420   3.231   2.209   0.630 -1.7832 -0.9999  1.7747
  929TIP3   OH224421   0.182   2.133   7.256 -0.3447  0.1876  0.4838
  929TIP3    H124422   0.199   2.040   7.267 -0.0429  0.2484  0.5348
  929TIP3    H224423   0.160   2.142   7.163 -1.6425 -0.1256  0.7400
  930TIP3   OH224424   3.988   4.183   1.747  0.0345  0.1473 -0.4550
  930TIP3    H124425   3.929   4.225   1.810 -0.7133  0.1257 -1.1340
  930TIP3    H224426   4.051   4.251   1.724 -0.7559  0.6984 -1.0233
  931TIP3   OH224427   4.514   2.615   0.363 -0.5891 -0.3820 -0.0862
  931TIP3    H124428   4.534   2.524   0.381 -4.1687 -1.0001  1.5633
  931TIP3    H224429   4.564   2.635   0.284  1.7462 -3.1249  0.5069
  932TIP3   OH224430   2.744   1.766   7.286  0.4710  0.2398 -0.4460
  932TIP3    H124431   2.708   1.677   7.294  0.6666 -0.1250 -2.8239
  932TIP3    H224432   2.778   1.786   7.373 -1.1405 -1.3115  0.6209
  933TIP3   OH224433   1.510   3.434   0.922  0.0730 -0.4740 -0.0325
  933TIP3    H124434   1.503   3.521   0.962 -1.8658 -1.0984  1.0869
  933TIP3    H224435   1.535   3.452   0.831 -0.7533  1.2954  0.0509
  934TIP3   OH224436   4.889   5.199   7.762  0.3054 -0.2516  0.1326
  934TIP3    H124437   4.821   5.138   7.732  2.5059 -1.5115 -2.7865
  934TIP3    H224438   4.880   5.275   7.705  1.2836 -0.4178 -0.2588
  935TIP3   OH224439   1.326   1.166   0.144 -0.7007 -0.0471  0.2404
  935TIP3    H124440   1.296   1.188   0.055 -1.3301 -1.6731  0.0291
  935TIP3    H224441   1.414   1.130   0.131 -0.6298  0.0872  0.3380
  936TIP3   OH224442   0.507   6.555   7.611 -0.1596  0.2618  0.5028
  936TIP3    H124443   0.585   6.545   7.557  0.6390  1.4740  1.3633
  936TIP3    H224444   0.435   6.566   7.549  0.4398 -0.2566 -0.2964
  937TIP3   OH224445   1.247   2.611   0.516 -0.5331 -0.0091  0.3630
  937TIP3    H124446   1.305   2.539   0.541 -0.3425  0.4908  1.4080
  937TIP3    H224447   1.224   2.653   0.598  0.3455  1.8919 -0.2846
  938TIP3   OH224448   2.568   5.961   2.312 -0.3400 -0.1687  0.1217
  938TIP3    H124449   2.560   5.908   2.392  0.5625  0.9019  0.9499
  938TIP3    H224450   2.479   5.991   2.295 -1.0073 -2.4071 -0.7313
  939TIP3   OH224451   4.673   1.828   8.389  0.4817  0.3363  0.3048
  939TIP3    H124452   4.746   1.864   8.338  0.9332  0.0129  0.7057
  939TIP3    H224453   4.605   1.810   8.325 -0.0253  2.5125  0.1793
  940TIP3   OH224454   4.871   1.360   1.630 -0.6723 -0.4887  0.0429
  940TIP3    H124455   4.865   1.447   1.668 -1.3393 -0.6855  0.4160
  940TIP3    H224456   4.905   1.374   1.541  1.0244 -0.0359  0.7348
  941TIP3   OH224457   3.128   5.529   6.834 -0.0427  0.5165 -0.2734
  941TIP3    H124458   3.100   5.617   6.861 -2.6250  0.0669 -1.2105
  941TIP3    H224459   3.088   5.517   6.748  2.0753 -0.7830 -1.1354
  942TIP3   OH224460   5.166   0.366   8.325 -0.1769 -0.1857  0.1654
  942TIP3    H124461   5.171   0.422   8.248 -0.2942  0.3276  0.5232
  942TIP3    H224462   5.081   0.386   8.364  0.7463  1.1687  1.6195
  943TIP3   OH224463   0.759   1.445   1.266  0.0222 -0.3033  0.1906
  943TIP3    H124464   0.784   1.506   1.197  0.2877  0.6996  1.1503
  943TIP3    H224465   0.719   1.372   1.220 -0.0050  0.4482 -1.0108
  944TIP3   OH224466   3.213   1.079   2.056  0.6659 -0.2109 -0.0867
  944TIP3    H124467   3.297   1.034   2.067  0.1952 -0.9104  0.8905
  944TIP3    H224468   3.197   1.119   2.141  0.6443  1.0861 -0.6825
  945TIP3   OH224469   5.689   3.045   7.493  0.7678 -0.5708 -0.2132
  945TIP3    H124470   5.757   3.101   7.531  0.1504  1.1640 -1.5072
  945TIP3    H224471   5.651   3.099   7.423 -0.7349 -2.1676 -0.6811
  946TIP3   OH224472   0.215   4.775   7.185 -0.2132  0.1733 -0.1556
  946TIP3    H124473   0.162   4.752   7.108  1.1132 -0.9349 -0.8032
  946TIP3    H224474   0.249   4.691   7.216 -0.8362  0.5804  1.7802
  947TIP3   OH224475   0.220   3.223   1.734  0.1169 -0.5468 -0.0385
  947TIP3    H124476   0.266   3.168   1.797  1.2301  2.2273  1.7246
  947TIP3    H224477   0.287   3.283   1.701 -0.8444 -0.7495 -2.6042
  948TIP3   OH224478   4.714   4.526   7.361  0.6294 -0.1142  0.5915
  948TIP3    H124479   4.771   4.592   7.323  0.4926 -0.8833 -1.0558
  948TIP3    H224480   4.723   4.450   7.302 -2.4236 -0.1134 -0.0372
  949TIP3   OH224481   5.240   0.909   8.218 -0.1921  0.1881 -0.1819
  949TIP3    H124482   5.276   0.933   8.133 -0.3805 -0.6220 -0.4983
  949TIP3    H224483   5.148   0.937   8.214 -0.4307 -0.6499 -0.5769
  950TIP3   OH224484   0.300   4.610   0.078  0.2273 -0.8267 -0.0951
  950TIP3    H124485   0.212   4.646   0.067 -0.2512 -1.3002  1.7994
  950TIP3    H224486   0.347   4.637  -0.000 -1.0882  0.9708 -0.3344
  951TIP3   OH224487   6.241   2.952   0.388  0.1967 -0.5588  0.6798
  951TIP3    H124488   6.249   2.936   0.294  1.2201  0.4749  0.5548
  951TIP3    H224489   6.177   3.023   0.395  2.7693  1.9933  0.3870
  952TIP3   OH224490   4.854   2.425   0.182 -0.2340 -0.3371 -0.1713
  952TIP3    H124491   4.938   2.419   0.136  0.5069  2.6646  0.5453
  952TIP3    H224492   4.848   2.517   0.209 -2.4302 -1.0759  2.3378
  953TIP3   OH224493   5.245   0.851   1.737 -0.6930 -0.3599 -0.0690
  953TIP3    H124494   5.334   0.818   1.726 -0.3079  0.6898 -0.1936
  953TIP3    H224495   5.230   0.849   1.831  0.1147  1.0798  0.1102
  954TIP3   OH224496   2.792   4.864   8.388  0.3616 -0.2245  0.0716
  954TIP3    H124497   2.719   4.922   8.405 -0.2442 -0.9783  0.1021
  954TIP3    H224498   2.870   4.917   8.404 -0.1651 -0.0331  2.3007
  955TIP3   OH224499   5.418   5.124   7.138  0.1606 -0.0354  0.2047
  955TIP3    H124500   5.362   5.127   7.216  0.1572 -0.8162  0.2454
  955TIP3    H224501   5.414   5.213   7.102 -1.2991 -0.1147  0.0749
  956TIP3   OH224502   4.341   3.319   1.079  0.2225 -0.3911 -0.4657
  956TIP3    H124503   4.279   3.338   1.009 -0.8869  0.2511  0.6546
  956TIP3    H224504   4.353   3.403   1.124  0.7455 -0.8373  0.2487
  957TIP3   OH224505   0.633   6.673   0.372  0.5275 -0.4037 -0.8750
  957TIP3    H124506   0.626   6.630   0.287  2.6823 -1.8423 -0.3958
  957TIP3    H224507   0.615   6.604   0.436  0.4924  0.2823 -0.1253
  958TIP3   OH224508   1.748   4.365   0.610  0.0607  0.9229  0.6822
  958TIP3    H124509   1.792   4.350   0.526  1.7964  0.0927  1.6851
  958TIP3    H224510   1.655   4.365   0.588  0.3398 -1.3739 -0.9687
  959TIP3   OH224511   2.819   3.907   6.866  0.0830 -0.1252  0.1463
  959TIP3    H124512   2.889   3.878   6.925  0.2647 -0.9384 -0.4485
  959TIP3    H224513   2.800   3.997   6.894 -0.2762 -0.6820  1.8546
  960TIP3   OH224514   0.631   3.194   1.274 -0.1721  0.0576  0.5172
  960TIP3    H124515   0.613   3.264   1.336 -1.7935 -1.0928  1.3893
  960TIP3    H224516   0.585   3.118   1.308  2.4102 -1.7897  0.1901
  961TIP3   OH224517   5.772   1.108   1.372  0.2362  0.1501  0.4827
  961TIP3    H124518   5.777   1.027   1.321  0.6952 -0.0873  0.9068
  961TIP3    H224519   5.745   1.175   1.308  1.3789 -0.0247 -0.2105
  962TIP3   OH224520   2.762   4.407   0.369  0.3507 -0.5114  0.3999
  962TIP3    H124521   2.694   4.475   0.370 -0.6153 -1.4672  1.0919
  962TIP3    H224522   2.837   4.449   0.412  0.7051  1.0138 -1.5649
  963TIP3   OH224523   4.337   1.027   7.460  0.9357 -0.0504 -0.6620
  963TIP3    H124524   4.308   0.957   7.518  0.3915  0.6092 -0.1032
  963TIP3    H224525   4.356   0.984   7.377 -1.2169 -0.6324 -0.9291
  964TIP3   OH224526   2.184   6.189   1.037  0.1705 -0.1171 -0.0088
  964TIP3    H124527   2.105   6.145   1.004  0.0736  0.6999 -0.9182
  964TIP3    H224528   2.252   6.121   1.036 -0.1510 -0.4372 -0.6940
  965TIP3   OH224529   3.202   3.085   0.287 -0.2061 -0.2041  0.2003
  965TIP3    H124530   3.159   3.101   0.371 -0.4500  0.8779 -0.1123
  965TIP3    H224531   3.176   2.996   0.263 -2.6594  0.5439 -0.1848
  966TIP3   OH224532   4.630   4.743   2.854 -0.0543 -0.9904  0.0054
  966TIP3    H124533   4.708   4.690   2.865 -0.6752 -2.4162 -1.8705
  966TIP3    H224534   4.570   4.712   2.921  0.4102 -1.0248  0.4063
  967TIP3   OH224535   4.931   3.226   7.343 -0.0261  0.6882  0.2703
  967TIP3    H124536   4.986   3.242   7.420  1.9032  0.7551 -1.0406
  967TIP3    H224537   4.842   3.221   7.378  0.6935  1.4055  2.4029
  968TIP3   OH224538   1.488   3.523   7.457 -0.4259 -0.4468  0.3055
  968TIP3    H124539   1.572   3.515   7.413  0.6139 -0.1028  2.1115
  968TIP3    H224540   1.487   3.452   7.521 -1.3833 -0.2734  0.5053
  969TIP3   OH224541   5.958   2.023   1.721 -0.1934  0.2573 -0.4013
  969TIP3    H124542   5.919   2.094   1.671  0.9174  1.1894  0.0265
  969TIP3    H224543   5.955   2.051   1.812 -1.8132 -1.2504  0.0762
  970TIP3   OH224544   1.329   6.480   8.536 -0.1198 -0.1296  0.0611
  970TIP3    H124545   1.415   6.523   8.541 -0.5435  0.5973  1.3146
  970TIP3    H224546   1.277   6.537   8.479 -0.5183  0.7752  1.2989
  971TIP3   OH224547   5.464   1.013   8.027  0.2299 -0.5596  0.3506
  971TIP3    H124548   5.419   1.096   8.037  1.8586  0.3839  0.2972
  971TIP3    H224549   5.489   1.010   7.934  0.7765 -0.7789  0.5002
  972TIP3   OH224550   4.203   2.906   8.178  0.4555 -0.1541 -0.3809
  972TIP3    H124551   4.259   2.837   8.214  2.2295  1.7323  0.6113
  972TIP3    H224552   4.214   2.898   8.083  0.8875 -1.0213 -0.2730
  973TIP3   OH224553   2.100   5.011   7.921 -0.0777 -0.5142 -0.0916
  973TIP3    H124554   2.096   5.087   7.862  0.8658  0.1983  0.7313
  973TIP3    H224555   2.180   4.965   7.895 -0.0969 -0.6499  0.0902
  974TIP3   OH224556   5.596   2.074   2.408  0.6876  0.3900  0.1845
  974TIP3    H124557   5.505   2.056   2.385  1.0895  1.0632 -2.1976
  974TIP3    H224558   5.593   2.159   2.452  0.0420 -0.2559  1.4387
  975TIP3   OH224559   5.103   6.529   6.888  0.0845 -0.6040 -0.4024
  975TIP3    H124560   5.024   6.478   6.906 -0.1650 -0.2669 -0.5138
  975TIP3    H224561   5.074   6.596   6.826  0.4605 -0.4781 -0.4458
  976TIP3   OH224562   5.128   5.481   7.804  0.2345 -0.4545 -0.6868
  976TIP3    H124563   5.155   5.573   7.811  0.2798 -0.5335  0.3367
  976TIP3    H224564   5.209   5.431   7.804  0.1994 -0.6655  1.9907
  977TIP3   OH224565   0.055   0.252   8.377 -0.8072 -0.2901  0.3527
  977TIP3    H124566   0.103   0.333   8.396 -0.0235 -0.8757  0.9237
  977TIP3    H224567   0.112   0.203   8.318 -0.8016 -0.8823  0.8381
  978TIP3   OH224568   6.685   1.146   6.694 -0.0541 -0.1995  0.2312
  978TIP3    H124569   6.761   1.200   6.673  0.3871 -0.7169  0.4811
  978TIP3    H224570   6.623   1.207   6.735  0.9927 -0.1306  1.7920
  979TIP3   OH224571   6.571   1.390   7.558  0.7066 -0.5157 -0.1954
  979TIP3    H124572   6.593   1.483   7.545  0.5851 -0.6408 -1.3785
  979TIP3    H224573   6.654   1.349   7.581  1.1516 -0.4396 -1.5878
  980TIP3   OH224574   0.273   4.814   0.623  0.0200  0.1074 -1.0983
  980TIP3    H124575   0.224   4.885   0.662 -0.6545 -1.6969  1.6266
  980TIP3    H224576   0.363   4.846   0.618 -0.1830  1.0016  0.5289
  981TIP3   OH224577   4.262   6.873   2.483 -0.0933 -0.0803  0.3108
  981TIP3    H124578   4.344   6.883   2.435  0.6959 -1.3685  1.3466
  981TIP3    H224579   4.272   6.792   2.532 -1.4807  0.4063  1.4686
  982TIP3   OH224580   1.418   3.329   1.401 -0.1763 -0.0775  0.2698
  982TIP3    H124581   1.430   3.329   1.496 -0.9766 -1.7354  0.4223
  982TIP3    H224582   1.336   3.377   1.387 -0.9311 -1.2275  0.5996
  983TIP3   OH224583   4.887   5.569   7.032 -0.1266 -0.3744  0.0443
  983TIP3    H124584   4.797   5.554   7.003  0.1430 -1.5917 -0.2416
  983TIP3    H224585   4.882   5.645   7.089 -1.1019  0.4677 -1.1111
  984TIP3   OH224586   3.205   4.094   1.973  0.4082  0.2800  0.0377
  984TIP3    H124587   3.161   4.176   1.951 -0.3723 -0.2136 -0.3018
  984TIP3    H224588   3.262   4.116   2.046  1.5824  1.5402 -1.1930
  985TIP3   OH224589   1.990   5.960   8.196  0.0433 -0.7454 -0.1320
  985TIP3    H124590   1.984   5.865   8.191  1.6090 -0.8779 -0.0461
  985TIP3    H224591   2.083   5.978   8.208 -0.4094  0.6944  2.0174
  986TIP3   OH224592   0.635   5.852   1.268  0.2556  0.2486  0.3759
  986TIP3    H124593   0.612   5.883   1.180 -0.2507  0.2419  0.5028
  986TIP3    H224594   0.683   5.924   1.308 -0.2007  0.5528  0.3760
  987TIP3   OH224595   1.223   2.868   8.277 -0.4052  0.1786  0.0897
  987TIP3    H124596   1.210   2.914   8.360 -1.7246 -0.2244  0.1294
  987TIP3    H224597   1.237   2.777   8.303  0.0382  0.1945 -0.0932
  988TIP3   OH224598   5.106   6.387   8.566  0.3587 -0.1544 -0.4670
  988TIP3    H124599   5.188   6.386   8.616  0.9872  3.9831 -1.0457
  988TIP3    H224600   5.134   6.401   8.475 -0.9069  0.8511 -0.7323
  989TIP3   OH224601   2.542   4.756   2.444  0.0525 -0.2893  0.0940
  989TIP3    H124602   2.474   4.704   2.488 -1.4503  0.2976 -1.4399
  989TIP3    H224603   2.623   4.705   2.458 -1.2481 -2.8299 -0.8965
  990TIP3   OH224604   5.800   1.357   0.850  0.4864 -0.2167  0.3598
  990TIP3    H124605   5.729   1.293   0.860  1.5772 -1.6870 -0.7671
  990TIP3    H224606   5.772   1.411   0.777  0.2733 -0.4393  0.2722
  991TIP3   OH224607   6.144   6.401   0.154 -0.0176  0.1698  0.2862
  991TIP3    H124608   6.208   6.452   0.203  0.6808  0.0742 -0.5161
  991TIP3    H224609   6.061   6.446   0.170  0.7308  2.2780 -1.3133
  992TIP3   OH224610   4.006   3.466   6.835 -0.1533  0.5401  0.1143
  992TIP3    H124611   4.091   3.423   6.830 -0.7548 -0.7810  0.5906
  992TIP3    H224612   3.968   3.456   6.748 -0.4542 -0.3006  0.3276
  993TIP3   OH224613   0.533   3.419   2.100 -0.0596  0.3579 -0.3000
  993TIP3    H124614   0.617   3.385   2.130 -0.3867  1.3551  1.9002
  993TIP3    H224615   0.471   3.348   2.114  0.3559 -0.3565 -1.8689
  994TIP3   OH224616   3.094   3.313   8.103 -0.4356  0.4780 -0.1399
  994TIP3    H124617   3.102   3.314   8.008 -0.1135 -0.4846 -0.1319
  994TIP3    H224618   3.116   3.224   8.128 -0.8515  0.6302  0.8128
  995TIP3   OH224619   4.283   2.360   7.407 -0.2078  0.2199  0.5415
  995TIP3    H124620   4.339   2.312   7.467 -1.3897 -0.9733  0.7407
  995TIP3    H224621   4.292   2.314   7.324 -0.6038  0.2461  0.4839
  996TIP3   OH224622   0.674   3.333   7.091  0.3037 -0.4850 -0.2186
  996TIP3    H124623   0.637   3.252   7.055  1.8813 -1.1635 -0.4301
  996TIP3    H224624   0.747   3.303   7.145  0.4970  0.7785  0.2499
  997TIP3   OH224625   5.469   1.305   1.919  0.8162 -0.4296  0.4553
  997TIP3    H124626   5.476   1.385   1.867 -0.4691 -1.5522 -1.5956
  997TIP3    H224627   5.375   1.293   1.932  1.0578 -0.8368  2.0375
  998TIP3   OH224628   2.466   2.304   1.223  0.0864 -0.1973  1.0377
  998TIP3    H124629   2.561   2.304   1.238  0.4301  1.8273 -0.5087
  998TIP3    H224630   2.452   2.377   1.162 -2.4584 -0.5693  1.0545
  999TIP3   OH224631   6.389   0.742   0.302 -0.0299 -0.1414  0.0448
  999TIP3    H124632   6.364   0.698   0.383 -1.9945 -3.2749 -2.0587
  999TIP3    H224633   6.378   0.835   0.321 -1.7228 -0.8222  2.9621
 1000TIP3   OH224634   2.422   5.222   8.359 -0.2335  0.1703 -0.0947
 1000TIP3    H124635   2.495   5.190   8.305 -0.1856  1.7725 -1.0335
 1000TIP3    H224636   2.405   5.310   8.326 -1.3589  0.5386  1.3886
 1001TIP3   OH224637   4.703   6.024   1.102  0.3134 -0.2141  0.4109
 1001TIP3    H124638   4.773   6.069   1.149  0.3401 -1.1940  1.3330
 1001TIP3    H224639   4.627   6.030   1.160 -0.0309 -0.2479 -0.0287
 1002TIP3   OH224640   3.585   6.828   1.283 -0.0655  0.3749 -0.0832
 1002TIP3    H124641   3.523   6.770   1.240 -0.2672  1.5862 -1.5262
 1002TIP3    H224642   3.551   6.916   1.267 -0.1127  0.9237  2.5518
 1003TIP3   OH224643   0.450   4.410   7.005  0.3059 -0.1470  0.1145
 1003TIP3    H124644   0.527   4.356   6.990 -0.4788 -1.5966  1.0401
 1003TIP3    H224645   0.384   4.349   7.039 -1.1563  1.0947 -0.3662
 1004TIP3   OH224646   6.315   0.532   6.947  0.1592 -0.2886  0.0438
 1004TIP3    H124647   6.244   0.519   7.010  0.1442 -2.0181 -0.2633
 1004TIP3    H224648   6.347   0.443   6.929  0.0374  0.1126 -2.5180
 1005TIP3   OH224649   1.601   6.830   1.110 -0.3319 -0.0721 -0.2411
 1005TIP3    H124650   1.683   6.795   1.075  1.1475  1.1213  1.7660
 1005TIP3    H224651   1.604   6.924   1.091 -0.4623  0.2459  1.1560
 1006TIP3   OH224652   1.454   2.428   0.124  0.6407  0.6420  0.3816
 1006TIP3    H124653   1.433   2.518   0.149  1.9729  0.5652  1.9526
 1006TIP3    H224654   1.483   2.434   0.033  0.7372  1.8084  0.4729
 1007TIP3   OH224655   1.796   4.170   8.051  0.6162 -0.3298  0.2043
 1007TIP3    H124656   1.795   4.084   8.094 -1.2752  0.6191  2.2654
 1007TIP3    H224657   1.819   4.231   8.121  0.9315  0.9809 -1.0017
 1008TIP3   OH224658   4.435   5.186   2.391  0.2654 -0.3073  0.0107
 1008TIP3    H124659   4.387   5.151   2.466 -2.0526  0.2381 -1.1116
 1008TIP3    H224660   4.486   5.112   2.358  0.6882 -0.7662  1.6125
 1009TIP3   OH224661   1.921   2.518   1.420  0.1462  0.0221  0.0583
 1009TIP3    H124662   1.844   2.563   1.386  1.0489  1.2444 -0.4384
 1009TIP3    H224663   1.980   2.588   1.447  0.8796 -0.9008  0.9021
 1010TIP3   OH224664   3.466   4.989   7.670  0.1940 -0.0042  0.0893
 1010TIP3    H124665   3.427   4.902   7.666  0.9632 -0.3236 -2.4480
 1010TIP3    H224666   3.397   5.047   7.636  0.6197 -0.0573 -0.9058
 1011TIP3   OH224667   4.435   1.767   6.822 -0.9961 -0.9167  0.0292
 1011TIP3    H124668   4.391   1.703   6.766  1.2014 -2.4479 -0.0447
 1011TIP3    H224669   4.527   1.741   6.822  0.7547  3.9585 -2.4517
 1012TIP3   OH224670   6.633   0.959   0.522  0.8902 -0.3592 -0.2947
 1012TIP3    H124671   6.601   0.871   0.540 -2.9401  0.5168 -1.8619
 1012TIP3    H224672   6.636   1.002   0.608 -0.7535 -1.0141  0.1187
 1013TIP3   OH224673   0.667   3.884   0.579 -0.3050 -0.6534  0.3689
 1013TIP3    H124674   0.681   3.909   0.670 -0.2119 -0.3199  0.2644
 1013TIP3    H224675   0.737   3.928   0.531 -0.7924 -0.2235  0.0436
 1014TIP3   OH224676   2.527   5.154   6.753 -0.2331 -0.8629  0.1534
 1014TIP3    H124677   2.567   5.147   6.666 -1.1162 -2.4366 -0.1797
 1014TIP3    H224678   2.483   5.239   6.753 -0.1319 -0.8015 -0.9058
 1015TIP3   OH224679   1.231   6.324   7.651 -0.0053  0.2201 -0.0639
 1015TIP3    H124680   1.250   6.233   7.672  0.8095  0.6158  1.0384
 1015TIP3    H224681   1.286   6.344   7.575  0.7244  0.1274  0.4349
 1016TIP3   OH224682   3.163   6.232   8.019  0.0508 -0.0955 -0.0909
 1016TIP3    H124683   3.103   6.264   7.952  0.5512 -0.6577 -0.8232
 1016TIP3    H224684   3.244   6.280   8.003 -0.5577  1.7298  1.7827
 1017TIP3   OH224685   3.596   2.487   8.642  0.1711  0.1078 -0.6072
 1017TIP3    H124686   3.599   2.579   8.614  1.5471  0.2114 -0.1719
 1017TIP3    H224687   3.687   2.463   8.656 -0.1444 -1.4172 -0.9665
 1018TIP3   OH224688   1.593   2.978   1.369  0.1168  0.3613 -0.4058
 1018TIP3    H124689   1.669   3.031   1.345  0.7658  0.4231  1.5915
 1018TIP3    H224690   1.568   3.010   1.455 -1.8153 -0.0942 -0.7514
 1019TIP3   OH224691   0.276   6.024   1.941  0.1639  0.7503  0.5952
 1019TIP3    H124692   0.184   6.002   1.954  0.2268 -0.1725 -0.4016
 1019TIP3    H224693   0.299   5.983   1.858  0.7980  3.1099 -0.4849
 1020TIP3   OH224694   5.304   3.229   7.280 -0.3664 -0.1181 -0.3172
 1020TIP3    H124695   5.265   3.298   7.334 -1.0605 -0.5175 -0.2938
 1020TIP3    H224696   5.299   3.262   7.191 -2.2890 -0.8367 -0.5137
 1021TIP3   OH224697   2.266   5.640   0.046 -0.3280  0.3878  0.3697
 1021TIP3    H124698   2.201   5.586   0.091 -0.7331  1.8918  1.6867
 1021TIP3    H224699   2.214   5.707   0.002  0.2283  0.3454 -0.3686
 1022TIP3   OH224700   4.741   4.139   0.834 -0.1303  0.8887 -0.3731
 1022TIP3    H124701   4.712   4.229   0.848 -3.0495  0.1373 -0.9351
 1022TIP3    H224702   4.713   4.092   0.913  0.6164  0.2833 -0.4483
 1023TIP3   OH224703   1.829   3.860   1.842  0.5607 -0.4245 -0.3214
 1023TIP3    H124704   1.810   3.874   1.750  0.0452 -2.5147 -0.5647
 1023TIP3    H224705   1.805   3.769   1.859  0.5613 -0.0710  1.9003
 1024TIP3   OH224706   6.084   0.802   1.246 -0.3251  0.2153  0.0407
 1024TIP3    H124707   5.990   0.811   1.261 -0.6508 -0.4771 -1.4630
 1024TIP3    H224708   6.102   0.710   1.263  0.0391  0.2850  0.0397
 1025TIP3   OH224709   4.665   1.173   7.467  0.6784 -0.2676  0.2762
 1025TIP3    H124710   4.596   1.122   7.509 -0.1771  1.0324  0.5054
 1025TIP3    H224711   4.641   1.264   7.484  2.9353  0.2237  1.1633
 1026TIP3   OH224712   1.671   1.438   0.236 -0.4821  0.6663 -0.1966
 1026TIP3    H124713   1.756   1.428   0.278 -0.2350  0.6439 -0.6968
 1026TIP3    H224714   1.687   1.418   0.144 -1.2188 -0.3213 -0.1325
 1027TIP3   OH224715   6.752   3.060   6.311  0.9042 -0.2979  0.1753
 1027TIP3    H124716   6.771   3.153   6.298  1.0144 -0.3344  0.0768
 1027TIP3    H224717   6.833   3.023   6.345  1.3674 -0.6579 -1.2398
 1028TIP3   OH224718   6.096   3.379   0.331  0.1099 -0.9170  0.6106
 1028TIP3    H124719   6.085   3.473   0.316 -0.6193 -1.0191  0.4809
 1028TIP3    H224720   6.049   3.363   0.412  1.0090 -1.0168  1.1298
 1029TIP3   OH224721   2.154   2.441   1.939  0.3266  0.6220 -0.2423
 1029TIP3    H124722   2.061   2.418   1.950  0.3247  1.0220  0.6429
 1029TIP3    H224723   2.153   2.533   1.915  0.4823  0.4851 -0.8040
 1030TIP3   OH224724   2.863   0.677   1.054 -0.1317 -0.1766 -0.1601
 1030TIP3    H124725   2.935   0.684   1.116  0.8152  0.8748 -1.3301
 1030TIP3    H224726   2.903   0.642   0.974 -1.2016 -0.9315 -0.3823
 1031TIP3   OH224727   4.913   1.181   7.605  0.1334 -0.5937  0.3239
 1031TIP3    H124728   4.860   1.237   7.547 -1.4270  1.0704  3.1036
 1031TIP3    H224729   4.853   1.112   7.633  0.8687 -1.3974 -0.0694
 1032TIP3   OH224730   6.200   5.016   7.697 -0.5807  0.8452 -0.0894
 1032TIP3    H124731   6.112   5.016   7.658 -0.3376  1.6945 -0.6868
 1032TIP3    H224732   6.204   5.099   7.745 -0.3326  0.5050  0.4788
 1033TIP3   OH224733   6.063   3.171   1.954  0.3242  0.3028 -0.3693
 1033TIP3    H124734   6.049   3.078   1.971 -1.3544  0.5195 -0.3792
 1033TIP3    H224735   6.095   3.206   2.037  3.2432 -0.6353 -0.9763
 1034TIP3   OH224736   3.482   2.655   1.264 -0.4449 -0.0773 -0.0802
 1034TIP3    H124737   3.447   2.700   1.341 -0.7319 -1.9060  0.9282
 1034TIP3    H224738   3.577   2.653   1.278 -0.3839  0.6358 -0.3784
 1035TIP3   OH224739   4.926   4.530   1.324  0.0858 -0.7175 -0.3373
 1035TIP3    H124740   5.013   4.541   1.286  0.5986 -1.6521  0.5065
 1035TIP3    H224741   4.925   4.439   1.355 -1.9751 -1.4417 -2.2846
 1036TIP3   OH224742   3.321   6.420   2.445 -0.2267  0.1969 -0.1096
 1036TIP3    H124743   3.342   6.505   2.483 -0.8400  0.7420 -0.9407
 1036TIP3    H224744   3.402   6.391   2.403  0.1438  0.0977  0.6750
 1037TIP3   OH224745   6.899   2.664   8.111 -0.0499  0.2294 -0.1140
 1037TIP3    H124746   6.846   2.629   8.040 -0.9462  0.2614  0.5129
 1037TIP3    H224747   6.928   2.750   8.080 -0.4385  0.2441 -0.4417
 1038TIP3   OH224748   3.739   6.875   8.366  0.8281  0.2675 -0.1052
 1038TIP3    H124749   3.794   6.805   8.401  0.6486 -0.0804 -0.5066
 1038TIP3    H224750   3.684   6.832   8.300 -1.0939  0.2628  1.4086
 1039TIP3   OH224751   5.169   5.924   7.560 -0.1306 -0.3997  0.1872
 1039TIP3    H124752   5.086   5.972   7.551  0.2661 -0.0171 -1.8960
 1039TIP3    H224753   5.143   5.836   7.586 -1.1473 -0.1085  0.2006
 1040TIP3   OH224754   4.616   5.064   0.247  0.0927 -0.0536  0.2776
 1040TIP3    H124755   4.582   4.987   0.292 -0.2788 -1.1552 -1.7447
 1040TIP3    H224756   4.711   5.050   0.246  0.0020 -0.7537 -0.4401
 1041TIP3   OH224757   6.009   4.354   0.514  0.0314  0.4180 -0.0744
 1041TIP3    H124758   6.051   4.415   0.574 -0.8885  0.5795  0.4194
 1041TIP3    H224759   5.925   4.394   0.493  0.3360  0.3726 -1.4955
 1042TIP3   OH224760   4.002   6.886   1.431  0.1988 -0.6856  0.2208
 1042TIP3    H124761   3.996   6.978   1.456 -1.4249 -0.2237 -1.6528
 1042TIP3    H224762   3.939   6.842   1.487 -1.9243  0.0194 -1.4815
 1043TIP3   OH224763   4.976   4.879   7.933 -0.2969  0.6030 -0.4055
 1043TIP3    H124764   5.061   4.839   7.952 -1.1979 -1.2704 -0.0231
 1043TIP3    H224765   4.940   4.827   7.861 -1.9087  0.0880  0.7006
 1044TIP3   OH224766   6.115   0.305   8.610  0.7915  0.4608  0.3005
 1044TIP3    H124767   6.040   0.331   8.664  0.1683  1.6180 -1.0350
 1044TIP3    H224768   6.076   0.274   8.528  1.7563  0.5777 -0.2206
 1045TIP3   OH224769   0.969   4.334   1.933 -0.2315 -0.0329 -0.2670
 1045TIP3    H124770   0.937   4.244   1.934 -2.5529  0.7328  0.6442
 1045TIP3    H224771   0.966   4.361   2.025  1.2934  0.7407 -0.4095
 1046TIP3   OH224772   0.207   6.122   7.884  0.0943  0.2849 -0.3437
 1046TIP3    H124773   0.297   6.089   7.889  0.3962  1.2076  0.5871
 1046TIP3    H224774   0.212   6.210   7.919 -1.5925 -0.5076  2.1351
 1047TIP3   OH224775   0.989   4.749   7.894  0.2614  0.3279 -0.2036
 1047TIP3    H124776   0.919   4.813   7.896  0.2593  0.3363  2.1857
 1047TIP3    H224777   1.069   4.799   7.913  0.4410 -0.1495  0.3398
 1048TIP3   OH224778   4.361   5.339   1.977 -0.1959  0.6730 -0.6439
 1048TIP3    H124779   4.395   5.323   1.889 -1.6356  0.7974 -1.2424
 1048TIP3    H224780   4.268   5.317   1.972 -0.3247  0.7609  0.8287
 1049TIP3   OH224781   3.681   2.073   8.052  0.1038 -0.0432  0.3447
 1049TIP3    H124782   3.725   1.995   8.020  1.2883  0.4236  0.7714
 1049TIP3    H224783   3.733   2.146   8.018 -0.8226  0.5581  0.1716
 1050TIP3   OH224784   2.567   2.940   1.175  0.7912  0.4797 -0.2127
 1050TIP3    H124785   2.621   3.017   1.157  2.5024 -0.0115  2.2700
 1050TIP3    H224786   2.630   2.871   1.197 -0.7292 -1.3756 -1.3569
 1051TIP3   OH224787   4.110   4.322   7.689  0.2490  0.4877 -0.2982
 1051TIP3    H124788   4.203   4.329   7.665  0.4768  0.4734  0.5358
 1051TIP3    H224789   4.098   4.388   7.757 -0.2495  0.2114 -0.1147
 1052TIP3   OH224790   6.590   3.385   0.739  0.2606  0.5440  0.0773
 1052TIP3    H124791   6.614   3.356   0.827 -0.5006  0.2755  0.2057
 1052TIP3    H224792   6.620   3.315   0.682 -1.6063 -0.6003  0.3888
 1053TIP3   OH224793   4.817   5.727   8.086  0.1669 -0.2698  0.3465
 1053TIP3    H124794   4.834   5.659   8.021  0.8854 -0.6011  0.8648
 1053TIP3    H224795   4.877   5.798   8.063  0.1964 -0.2575  0.4621
 1054TIP3   OH224796   0.096   6.184   6.857 -0.3612  0.0828 -0.1853
 1054TIP3    H124797   0.014   6.165   6.901 -0.2086  1.9888  1.0082
 1054TIP3    H224798   0.106   6.113   6.794 -2.4391 -0.6925  0.2849
 1055TIP3   OH224799   0.593   4.482   0.736  0.2489  0.1275 -0.4634
 1055TIP3    H124800   0.631   4.394   0.723 -0.2464  0.1175 -2.1231
 1055TIP3    H224801   0.513   4.466   0.786  0.9633 -0.1762  0.6081
 1056TIP3   OH224802   1.751   4.796   6.935 -0.2783 -0.2183  0.2906
 1056TIP3    H124803   1.741   4.838   6.849  0.4713 -2.3228 -0.8892
 1056TIP3    H224804   1.836   4.827   6.967 -0.5371  0.5347  0.2700
 1057TIP3   OH224805   5.218   2.335   1.490  0.3069 -0.1080 -0.0701
 1057TIP3    H124806   5.227   2.330   1.395  0.9204 -1.6631  0.0325
 1057TIP3    H224807   5.138   2.385   1.504 -1.8596 -2.9043 -1.5347
 1058TIP3   OH224808   1.261   6.362   6.319 -0.3965  0.3701 -0.1478
 1058TIP3    H124809   1.257   6.268   6.301 -1.1821  0.0407  1.6398
 1058TIP3    H224810   1.352   6.385   6.301 -0.6472 -0.2428 -2.6866
 1059TIP3   OH224811   0.037   0.609   1.550 -0.2850  0.2792  0.0681
 1059TIP3    H124812  -0.018   0.557   1.491  0.8241  0.5001 -1.2058
 1059TIP3    H224813   0.015   0.700   1.530 -0.4616  0.3536  0.5703
 1060TIP3   OH224814   2.227   4.329   6.924 -0.0052  0.1040  0.4119
 1060TIP3    H124815   2.189   4.367   6.845  0.8455  0.7878  0.3251
 1060TIP3    H224816   2.174   4.365   6.995 -1.6885 -1.5939  0.1257
 1061TIP3   OH224817   2.654   0.770   7.457  0.3095  0.9832 -0.0372
 1061TIP3    H124818   2.717   0.725   7.401  1.0931  1.6233  0.3174
 1061TIP3    H224819   2.648   0.716   7.535  1.2693  1.4797  0.3988
 1062TIP3   OH224820   0.008   2.867   1.002  0.1878 -0.4961 -0.0615
 1062TIP3    H124821   0.069   2.794   1.010  1.0257  0.2424  0.4969
 1062TIP3    H224822   0.031   2.926   1.073 -0.6755  0.1729 -0.3107
 1063TIP3   OH224823   4.294   0.249   2.505 -0.1314 -0.3068  0.0932
 1063TIP3    H124824   4.298   0.156   2.482 -1.3058 -0.3905  0.1764
 1063TIP3    H224825   4.372   0.263   2.559 -1.2453 -1.9065  2.3108
 1064TIP3   OH224826   2.256   1.075   1.516  0.3677 -0.1307  0.0796
 1064TIP3    H124827   2.347   1.061   1.491  0.2834 -1.5245  0.4722
 1064TIP3    H224828   2.260   1.136   1.590  1.0361 -0.6775  0.5036
 1065TIP3   OH224829   1.052   3.269   7.283  0.4116 -0.3337 -0.2744
 1065TIP3    H124830   1.065   3.348   7.336  2.1291 -0.7662 -0.0024
 1065TIP3    H224831   1.140   3.234   7.269 -0.3072 -2.2039 -0.4171
 1066TIP3   OH224832   0.597   6.901   7.299  0.1929 -0.3281 -0.0644
 1066TIP3    H124833   0.677   6.953   7.301  0.8839 -1.1051 -2.9612
 1066TIP3    H224834   0.628   6.810   7.293 -0.8831 -0.6452 -1.2046
 1067TIP3   OH224835   2.088   0.343   1.805  0.3884  0.1621 -0.1964
 1067TIP3    H124836   2.184   0.347   1.807  0.5382 -0.4049 -2.6449
 1067TIP3    H224837   2.061   0.430   1.776  0.1999  0.1187 -0.1534
 1068TIP3   OH224838   3.823   4.403   1.854 -0.0665 -0.0840  0.0983
 1068TIP3    H124839   3.853   4.493   1.868  1.6383 -0.5243 -0.5062
 1068TIP3    H224840   3.734   4.412   1.822 -0.5607  1.3156  1.7029
 1069TIP3   OH224841   3.376   2.407   0.441  0.1569 -0.1652 -0.8103
 1069TIP3    H124842   3.406   2.360   0.519 -2.7689 -1.3313 -0.2784
 1069TIP3    H224843   3.407   2.353   0.368  1.2556 -0.0961 -0.4211
 1070TIP3   OH224844   1.090   5.504   1.226  0.0173  0.1885  0.5178
 1070TIP3    H124845   1.092   5.463   1.312  1.3872  0.6905  0.7508
 1070TIP3    H224846   1.164   5.466   1.179 -0.7839 -0.1546 -0.4791
 1071TIP3   OH224847   3.738   5.682   0.046 -0.0614 -0.2670  0.1478
 1071TIP3    H124848   3.665   5.744   0.053  0.6652  0.5178  0.9537
 1071TIP3    H224849   3.728   5.643  -0.041 -2.2619 -1.2287  0.7552
 1072TIP3   OH224850   1.015   1.047   1.210  0.3741 -0.2464  0.2658
 1072TIP3    H124851   1.019   0.954   1.232  0.3701 -0.4496 -0.5458
 1072TIP3    H224852   0.921   1.065   1.203  0.3880 -0.5771 -1.1024
 1073TIP3   OH224853   4.366   6.838   7.823  0.2019 -0.5869  0.2436
 1073TIP3    H124854   4.461   6.836   7.811  0.5077  2.5544  1.2086
 1073TIP3    H224855   4.354   6.849   7.917 -0.9623  1.2733 -0.0694
 1074TIP3   OH224856   2.173   4.247   1.747  0.5598 -0.0786  0.0525
 1074TIP3    H124857   2.125   4.168   1.773  0.8905  0.1819  1.5386
 1074TIP3    H224858   2.165   4.305   1.823 -0.1306  1.5477 -1.2118
 1075TIP3   OH224859   4.791   2.563   1.459  0.2696 -0.3181  0.3548
 1075TIP3    H124860   4.745   2.480   1.444  1.0337 -0.7462  0.3361
 1075TIP3    H224861   4.757   2.622   1.392 -0.1219 -0.6813  0.2307
 1076TIP3   OH224862   1.189   2.819   7.556 -0.8185  0.2056  0.7204
 1076TIP3    H124863   1.260   2.793   7.615 -0.5020 -0.7617 -0.0566
 1076TIP3    H224864   1.232   2.872   7.489 -0.4320 -1.7912 -0.7361
 1077TIP3   OH224865   1.144   6.598   6.297  0.1038 -0.2244 -0.1768
 1077TIP3    H124866   1.179   6.509   6.299  0.6329 -0.1329 -2.4836
 1077TIP3    H224867   1.049   6.587   6.288  0.3072 -0.6391 -2.2740
 1078TIP3   OH224868   6.427   2.327   7.697  0.0169 -0.2143 -0.1472
 1078TIP3    H124869   6.341   2.298   7.726  0.9434 -2.5075  0.5343
 1078TIP3    H224870   6.417   2.342   7.603 -1.1066 -0.4647 -0.0769
 1079TIP3   OH224871   0.496   2.718   1.035  0.5148  0.2770 -0.7070
 1079TIP3    H124872   0.550   2.749   0.962 -0.3319  1.6905 -0.7631
 1079TIP3    H224873   0.492   2.792   1.095  1.7944 -1.0978  1.1829
 1080TIP3   OH224874   4.307   4.443   8.549  0.3000  0.1258 -0.3760
 1080TIP3    H124875   4.271   4.531   8.554  2.4117  1.0685 -0.4018
 1080TIP3    H224876   4.301   4.420   8.456  1.2336  0.9607 -0.6654
 1081TIP3   OH224877   1.815   2.406   8.167 -0.3692  0.0842 -0.0712
 1081TIP3    H124878   1.799   2.358   8.086 -0.8104 -2.7592  1.5409
 1081TIP3    H224879   1.910   2.417   8.170 -0.2446 -0.7874 -0.4831
 1082TIP3   OH224880   1.866   5.080   6.275 -0.4718  0.2109  0.4259
 1082TIP3    H124881   1.824   5.155   6.232 -0.1323  1.2167  1.7958
 1082TIP3    H224882   1.795   5.035   6.321 -0.7919 -0.7251 -0.9162
 1083TIP3   OH224883   1.516   4.017   0.601 -0.3319  0.1669 -0.3637
 1083TIP3    H124884   1.482   3.931   0.624 -0.0408  0.1456 -0.0160
 1083TIP3    H224885   1.601   4.001   0.561  1.0276  0.4411  2.2371
 1084TIP3   OH224886   5.948   5.254   2.082 -0.1708 -0.8388  0.1342
 1084TIP3    H124887   6.027   5.210   2.052 -0.3850 -0.5845 -0.8179
 1084TIP3    H224888   5.877   5.196   2.056 -0.4224 -0.1692 -0.6989
 1085TIP3   OH224889   2.850   1.534   2.539  0.0022 -0.6332  0.4279
 1085TIP3    H124890   2.834   1.620   2.501 -0.4494 -1.6538 -1.8618
 1085TIP3    H224891   2.942   1.515   2.519  0.0210 -0.8049  0.6666
 1086TIP3   OH224892   3.840   1.506   7.773  0.3678  0.1846  0.2989
 1086TIP3    H124893   3.774   1.555   7.821  1.1867  1.0536  0.5659
 1086TIP3    H224894   3.805   1.416   7.768  0.3303  0.0176  2.6429
 1087TIP3   OH224895   3.396   0.348   1.403 -0.5432 -0.5985  0.3914
 1087TIP3    H124896   3.331   0.391   1.459 -2.1036 -0.9187 -1.0846
 1087TIP3    H224897   3.403   0.405   1.326 -0.3151 -1.4081 -0.2033
 1088TIP3   OH224898   0.318   5.778   7.666 -0.1080  0.3239 -0.3267
 1088TIP3    H124899   0.298   5.723   7.742  0.4334  0.4548 -0.0880
 1088TIP3    H224900   0.366   5.852   7.702  0.1970  0.3615 -0.8072
 1089TIP3   OH224901   2.926   0.222   2.226 -0.4612 -0.4653 -0.0595
 1089TIP3    H124902   2.895   0.164   2.296 -0.9050 -0.6588 -0.4116
 1089TIP3    H224903   2.847   0.268   2.197 -0.1073  0.3761  0.2661
 1090TIP3   OH224904   5.927   0.816   7.793  0.3710  0.6873  0.0722
 1090TIP3    H124905   5.985   0.822   7.717  2.0994  1.1491  1.3597
 1090TIP3    H224906   5.847   0.778   7.758  1.2233  0.5390 -1.9095
 1091TIP3   OH224907   5.244   4.627   0.221 -0.0869 -0.5561 -0.2458
 1091TIP3    H124908   5.332   4.617   0.257  0.0428 -1.5717 -0.8004
 1091TIP3    H224909   5.206   4.540   0.228 -0.3090 -0.6146 -1.8738
 1092TIP3   OH224910   4.215   3.704   0.047  0.0850  0.4828 -0.7801
 1092TIP3    H124911   4.214   3.610   0.030 -2.7679  0.3118 -0.1787
 1092TIP3    H224912   4.224   3.744  -0.039 -1.8041 -0.3662 -1.4165
 1093TIP3   OH224913   6.716   4.435   1.553  0.3612  0.1986  0.5412
 1093TIP3    H124914   6.805   4.434   1.587  1.2098 -0.6460 -1.4744
 1093TIP3    H224915   6.667   4.376   1.610  1.9019 -1.7908 -0.0780
 1094TIP3   OH224916   1.269   5.810   2.673  0.0022  0.2021 -0.4077
 1094TIP3    H124917   1.183   5.821   2.633  0.1820  1.5176 -0.4901
 1094TIP3    H224918   1.330   5.807   2.599 -0.0984 -2.7450 -0.4696
 1095TIP3   OH224919   4.253   1.356   8.260 -0.3267  0.1618  0.3261
 1095TIP3    H124920   4.236   1.271   8.220  0.6952  0.0584  0.0781
 1095TIP3    H224921   4.199   1.358   8.339 -0.9187 -0.4057 -0.0538
 1096TIP3   OH224922   3.024   0.199   1.367  0.2899 -0.1273 -0.2087
 1096TIP3    H124923   3.053   0.155   1.447  0.9236 -1.6373 -1.2307
 1096TIP3    H224924   3.010   0.290   1.394  0.3917 -0.6108  1.6325
 1097TIP3   OH224925   1.068   0.614   0.379  0.1921 -0.3649 -0.3469
 1097TIP3    H124926   0.975   0.632   0.395  0.8846  0.2984  4.3060
 1097TIP3    H224927   1.111   0.699   0.387  1.5918 -1.2408  2.7057
 1098TIP3   OH224928   2.252   6.105   1.960  0.5535 -0.0235 -0.1739
 1098TIP3    H124929   2.210   6.156   1.891  0.9243 -1.5894 -1.6471
 1098TIP3    H224930   2.298   6.035   1.913  2.8213  0.2109  1.5216
 1099TIP3   OH224931   5.467   2.844   0.517 -0.3747 -0.4686 -0.0354
 1099TIP3    H124932   5.399   2.849   0.585 -1.5706  2.3122 -1.2802
 1099TIP3    H224933   5.538   2.794   0.558 -2.2866 -1.6784  2.0764
 1100TIP3   OH224934   5.293   0.692   0.689 -0.1155  0.7107 -0.4420
 1100TIP3    H124935   5.202   0.722   0.688 -0.3293  0.1090  0.1305
 1100TIP3    H224936   5.335   0.745   0.757  0.3802  2.1110 -1.7808
 1101TIP3   OH224937   1.319   5.131   0.446 -0.2338 -0.4039  0.0858
 1101TIP3    H124938   1.237   5.096   0.481 -0.0853 -2.2110 -1.2240
 1101TIP3    H224939   1.386   5.102   0.507 -0.4552  0.4382  0.7536
 1102TIP3   OH224940   2.363   4.886   7.512 -0.1750  0.3319 -0.2198
 1102TIP3    H124941   2.384   4.979   7.523  1.5786 -0.2405  2.2601
 1102TIP3    H224942   2.443   4.848   7.476 -1.0666 -0.1817 -1.7304
 1103TIP3   OH224943   6.380   4.192   0.431 -0.1356  0.0104  0.3617
 1103TIP3    H124944   6.343   4.104   0.435 -0.6009  0.2209  0.8353
 1103TIP3    H224945   6.470   4.181   0.464  0.8599 -0.7932 -2.3385
 1104TIP3   OH224946   5.864   2.045   0.123  0.2784  0.0337  0.2110
 1104TIP3    H124947   5.823   2.131   0.110  1.3419  0.7556  1.4304
 1104TIP3    H224948   5.855   2.002   0.038  1.3060  2.0567 -1.0261
 1105TIP3   OH224949   4.725   1.132   8.298  0.2127 -0.4651 -0.1691
 1105TIP3    H124950   4.675   1.096   8.371 -0.5958  0.1766 -0.3943
 1105TIP3    H224951   4.660   1.150   8.230  0.6361  1.0780 -0.1933
 1106TIP3   OH224952   3.461   4.172   0.448  0.0338  0.0468  0.6828
 1106TIP3    H124953   3.472   4.249   0.393  1.2544 -0.8035 -0.3032
 1106TIP3    H224954   3.510   4.193   0.528 -2.0896  1.4531  1.7304
 1107TIP3   OH224955   0.915   0.231   6.212  0.9095  0.2069  0.0999
 1107TIP3    H124956   0.821   0.235   6.197  1.1652  2.2179 -1.4169
 1107TIP3    H224957   0.926   0.253   6.304  0.0084  4.0252 -0.5451
 1108TIP3   OH224958   2.200   5.811   1.594  0.4424  0.3706 -0.0939
 1108TIP3    H124959   2.268   5.793   1.659  2.8297 -0.3959 -2.6245
 1108TIP3    H224960   2.146   5.732   1.593 -0.1790  0.7326  1.4806
 1109TIP3   OH224961   5.152   1.632   8.177  0.1189  0.1550  0.1774
 1109TIP3    H124962   5.094   1.629   8.253  0.9848 -1.7747  0.8568
 1109TIP3    H224963   5.095   1.652   8.103 -0.9459  0.9166  1.1674
 1110TIP3   OH224964   5.185   0.656   1.488 -0.5210 -0.0440  0.2114
 1110TIP3    H124965   5.138   0.712   1.427 -0.0522 -0.0085 -0.1243
 1110TIP3    H224966   5.224   0.717   1.551 -1.0462 -0.0842  0.5822
 1111TIP3   OH224967   1.133   4.565   7.760 -0.0899  0.3460  0.4174
 1111TIP3    H124968   1.218   4.570   7.803 -0.0664 -0.0868  0.4318
 1111TIP3    H224969   1.075   4.616   7.816 -0.2410 -0.9033  1.4493
 1112TIP3   OH224970   5.471   4.613   1.342 -0.3238 -0.1601  0.1151
 1112TIP3    H124971   5.477   4.555   1.417 -0.3974  1.3263  1.3089
 1112TIP3    H224972   5.388   4.590   1.300  0.4269 -2.0363 -0.4457
 1113TIP3   OH224973   2.785   2.112   0.437  0.2724  0.0267  0.9023
 1113TIP3    H124974   2.773   2.020   0.457 -0.1537  0.3538  2.2141
 1113TIP3    H224975   2.868   2.115   0.389  1.0936 -0.8582  2.2123
 1114TIP3   OH224976   1.083   2.771   0.016  0.0733 -0.3068 -0.2828
 1114TIP3    H124977   1.092   2.747   0.109  1.0414  0.5353 -0.1448
 1114TIP3    H224978   1.090   2.688  -0.031  3.1276 -0.4018  0.1953
 1115TIP3   OH224979   2.493   4.546   7.421 -0.0267 -0.3067 -0.0794
 1115TIP3    H124980   2.497   4.503   7.507 -0.5555 -1.3646 -0.5538
 1115TIP3    H224981   2.553   4.620   7.428  0.0974 -0.4961  1.1343
 1116TIP3   OH224982   1.255   4.121   0.606 -0.2428 -0.3658 -0.0996
 1116TIP3    H124983   1.348   4.100   0.599 -0.3139 -0.2241 -1.7908
 1116TIP3    H224984   1.211   4.055   0.552 -1.3568 -1.7278  2.3128
 1117TIP3   OH224985   5.954   4.193   6.769  0.2289  0.4620  0.5402
 1117TIP3    H124986   5.948   4.098   6.756  2.2725  0.1265  1.5664
 1117TIP3    H224987   5.867   4.225   6.749 -0.2676 -1.5090 -0.8087
 1118TIP3   OH224988   5.164   4.102   1.325  0.3526  0.4555 -0.1127
 1118TIP3    H124989   5.239   4.062   1.368  0.7982  1.3115 -0.0654
 1118TIP3    H224990   5.202   4.150   1.251 -0.2305  0.3005 -0.5208
 1119TIP3   OH224991   5.939   1.222   8.482  0.4733 -0.0816  0.1738
 1119TIP3    H124992   5.958   1.281   8.556 -0.2947  0.3502  0.0373
 1119TIP3    H224993   6.012   1.236   8.422 -0.1329  1.4249 -0.2697
 1120TIP3   OH224994   0.697   0.116   6.940 -0.3833 -0.1277  0.6530
 1120TIP3    H124995   0.642   0.186   6.975  0.1120  0.6118 -0.0315
 1120TIP3    H224996   0.779   0.159   6.917 -0.7366 -0.5472 -1.5520
 1121TIP3   OH224997   1.120   2.290   1.166 -0.3915 -0.4904 -0.2607
 1121TIP3    H124998   1.185   2.269   1.099  1.9134  1.1180  1.3079
 1121TIP3    H224999   1.054   2.221   1.159  1.6738 -2.4406 -1.7050
 1122TIP3   OH225000   0.668   2.350   0.674 -0.1363 -0.0009 -0.1160
 1122TIP3    H125001   0.615   2.303   0.738 -0.0301  0.4078  0.2774
 1122TIP3    H225002   0.652   2.304   0.591  0.1253 -0.8432  0.2954
 1123TIP3   OH225003   5.694   4.419   7.907  0.5993  0.7353  0.2181
 1123TIP3    H125004   5.698   4.413   7.811 -0.6368  3.1745 -0.0617
 1123TIP3    H225005   5.780   4.388   7.936  0.7146 -0.8628 -1.5922
 1124TIP3   OH225006   2.969   0.342   6.451 -0.0691 -0.4376 -0.3949
 1124TIP3    H125007   2.957   0.433   6.478 -2.8351 -1.1598  1.2906
 1124TIP3    H225008   2.882   0.314   6.422  0.2847 -2.9756  0.7163
 1125TIP3   OH225009   2.641   3.714   1.501  0.3080  0.3596 -0.2847
 1125TIP3    H125010   2.614   3.756   1.419 -0.6955 -1.2296 -0.8198
 1125TIP3    H225011   2.637   3.784   1.566 -2.9298  0.8259 -0.7880
 1126TIP3   OH225012   2.943   0.515   8.651  0.4009 -0.0472 -0.5514
 1126TIP3    H125013   2.888   0.532   8.574 -0.0240 -1.1515 -0.5129
 1126TIP3    H225014   2.908   0.433   8.688  0.6729  0.3926  0.7474
 1127TIP3   OH225015   1.636   1.533   8.440  0.4189  0.0695 -0.0918
 1127TIP3    H125016   1.615   1.589   8.515 -1.3308 -1.5017  0.6866
 1127TIP3    H225017   1.564   1.548   8.379  0.9352  0.0564 -0.7109
 1128TIP3   OH225018   2.656   2.041   8.617  0.4643  0.3042  0.2919
 1128TIP3    H125019   2.564   2.047   8.591  0.6866 -0.3700 -0.7124
 1128TIP3    H225020   2.657   2.072   8.708 -0.8284 -0.1542  0.4877
 1129TIP3   OH225021   1.372   6.172   1.720 -0.5859  0.7695  0.2733
 1129TIP3    H125022   1.296   6.228   1.733 -0.6293  0.6091  0.7339
 1129TIP3    H225023   1.371   6.111   1.794 -1.4773 -0.9389 -1.0540
 1130TIP3   OH225024   5.520   5.470   7.959  0.1157  0.7950 -0.8243
 1130TIP3    H125025   5.468   5.427   7.891 -1.3928  0.1689  0.6564
 1130TIP3    H225026   5.610   5.445   7.941 -0.4748 -1.0286 -1.4025
 1131TIP3   OH225027   1.546   4.353   1.801  0.0415  0.2268  0.1417
 1131TIP3    H125028   1.548   4.413   1.875  0.2763 -0.9906  1.1525
 1131TIP3    H225029   1.454   4.327   1.793 -0.3905  2.0275 -1.4278
 1132TIP3   OH225030   3.351   0.281   7.837  0.2136 -0.0563  0.2693
 1132TIP3    H125031   3.309   0.330   7.767 -0.9223 -0.3928  0.6969
 1132TIP3    H225032   3.376   0.198   7.797 -0.5306 -0.2918  0.2868
 1133TIP3   OH225033   2.475   2.596   0.810 -0.1835  0.8535  0.0650
 1133TIP3    H125034   2.568   2.572   0.812 -0.4035  0.0244  1.1976
 1133TIP3    H225035   2.472   2.685   0.843  0.2227  0.9524 -0.1579
 1134TIP3   OH225036   3.396   6.022   1.426  0.0908 -0.3597  0.7483
 1134TIP3    H125037   3.471   6.043   1.482  1.1405  0.0646 -0.7405
 1134TIP3    H225038   3.329   5.991   1.486  0.2382  2.4326  2.5517
 1135TIP3   OH225039   3.571   4.104   8.622 -0.7244  0.0840  0.4957
 1135TIP3    H125040   3.531   4.109   8.535 -1.4603 -1.0529  0.7432
 1135TIP3    H225041   3.544   4.019   8.656 -1.6531  1.0482  2.4081
 1136TIP3   OH225042   5.456   5.847   1.098  0.1953  0.3451  0.2747
 1136TIP3    H125043   5.454   5.940   1.076 -2.1484  1.1884  3.3034
 1136TIP3    H225044   5.422   5.803   1.020 -2.7289  2.5189  0.1605
 1137TIP3   OH225045   2.635   3.286   1.625  0.0934  0.2553 -0.1289
 1137TIP3    H125046   2.700   3.248   1.566 -1.1611 -1.8594 -0.2554
 1137TIP3    H225047   2.587   3.211   1.659  0.2419  1.4729  3.0203
 1138TIP3   OH225048   1.140   4.103   7.259  0.3292  0.6429  0.1592
 1138TIP3    H125049   1.111   4.194   7.253  1.8990  1.0662 -1.6239
 1138TIP3    H225050   1.133   4.082   7.353 -4.1220  1.1541  0.1743
 1139TIP3   OH225051   2.893   2.524   1.749  0.4099 -0.1071  0.2011
 1139TIP3    H125052   2.906   2.588   1.818  1.9251  0.1903 -0.3178
 1139TIP3    H225053   2.939   2.560   1.673  1.4644 -1.8496 -0.0561
 1140TIP3   OH225054   4.335   5.503   0.312 -0.7473 -0.4063 -0.1113
 1140TIP3    H125055   4.284   5.441   0.260 -1.1974 -1.3653  1.4010
 1140TIP3    H225056   4.278   5.579   0.321 -0.1178  0.3851 -2.1403
 1141TIP3   OH225057   6.131   3.219   8.193  0.1094 -0.1926 -0.5851
 1141TIP3    H125058   6.161   3.281   8.259  1.5169 -0.1316 -1.2310
 1141TIP3    H225059   6.053   3.178   8.231 -0.7855  1.8537 -0.1014
 1142TIP3   OH225060   2.239   3.611   7.860  0.1877 -0.3151 -0.7139
 1142TIP3    H125061   2.192   3.657   7.790  0.9252  1.0734 -0.3322
 1142TIP3    H225062   2.291   3.679   7.902 -0.1578 -1.1387  1.1331
 1143TIP3   OH225063   5.706   5.969   2.684 -0.0036  0.5344  0.0096
 1143TIP3    H125064   5.792   5.930   2.701 -0.9307 -2.4853 -1.5515
 1143TIP3    H225065   5.709   5.991   2.591 -1.3452 -0.8661 -0.3876
 1144TIP3   OH225066   4.460   2.870   1.466  0.2228  0.0253 -0.0143
 1144TIP3    H125067   4.397   2.883   1.536 -0.3258 -1.6311 -0.1465
 1144TIP3    H225068   4.426   2.795   1.417 -0.1230  1.9048 -2.8662
 1145TIP3   OH225069   3.863   3.154   8.163  0.5408  0.0293  0.7692
 1145TIP3    H125070   3.807   3.167   8.239  0.0872  1.0822  0.2691
 1145TIP3    H225071   3.813   3.190   8.090  1.8301  0.9240  0.3030
 1146TIP3   OH225072   4.070   4.148   0.578  0.2725  0.0677  0.8382
 1146TIP3    H125073   4.118   4.188   0.505  1.2533 -0.6116  1.0900
 1146TIP3    H225074   4.120   4.069   0.598 -0.2816 -0.0161  1.9108
 1147TIP3   OH225075   2.465   2.769   1.996 -0.0977 -0.4335  0.0778
 1147TIP3    H125076   2.528   2.725   2.052  0.6748 -0.7003 -0.9521
 1147TIP3    H225077   2.391   2.708   1.989  0.3167 -0.9238 -0.1333
 1148TIP3   OH225078   3.139   0.058   7.898  0.3807  0.1026 -0.1362
 1148TIP3    H125079   3.205   0.115   7.940 -0.8805  0.7070  1.1035
 1148TIP3    H225080   3.088   0.117   7.843  0.9398 -0.3965 -1.2259
 1149TIP3   OH225081   2.468   1.330   7.069  0.1003  0.3620 -0.3807
 1149TIP3    H125082   2.439   1.318   7.160  0.4485  1.4142 -0.1165
 1149TIP3    H225083   2.547   1.277   7.062  1.7757  2.5466  0.8359
 1150TIP3   OH225084   0.654   6.603   1.130 -0.3974 -0.0707 -0.1110
 1150TIP3    H125085   0.740   6.631   1.099 -0.8330  0.6874 -0.6749
 1150TIP3    H225086   0.639   6.653   1.210 -0.3172 -0.2186 -0.0008
 1151TIP3   OH225087   0.783   1.876   7.602 -0.4239 -0.0955 -0.2167
 1151TIP3    H125088   0.862   1.876   7.656 -1.0420 -1.4690  0.7590
 1151TIP3    H225089   0.720   1.823   7.652 -1.8879  0.7614 -1.0736
 1152TIP3   OH225090   3.873   3.870   8.348 -0.3299 -0.4276 -0.3400
 1152TIP3    H125091   3.798   3.870   8.407  0.0086  0.5537  0.1151
 1152TIP3    H225092   3.883   3.779   8.321 -1.4104 -0.6340 -0.0614
 1153TIP3   OH225093   6.613   4.317   1.320 -0.0125  0.1067  0.3982
 1153TIP3    H125094   6.622   4.357   1.407 -1.9608 -2.2117  1.7902
 1153TIP3    H225095   6.559   4.379   1.271 -2.8588 -0.5386  2.4547
 1154TIP3   OH225096   3.053   6.839   1.231 -0.2250  0.6274  0.0151
 1154TIP3    H125097   3.058   6.931   1.256 -0.0808  0.1724  1.7404
 1154TIP3    H225098   3.081   6.791   1.308 -2.8921 -0.9862  0.0955
 1155TIP3   OH225099   6.572   1.120   8.467 -0.2133 -0.0086  0.9732
 1155TIP3    H125100   6.546   1.063   8.540 -0.2341  0.8109  1.6208
 1155TIP3    H225101   6.489   1.143   8.424 -0.1156 -1.3680  0.0010
 1156TIP3   OH225102   0.794   4.647   0.842  0.2843 -0.5071  0.1857
 1156TIP3    H125103   0.723   4.672   0.902  1.3480  0.3744  1.1007
 1156TIP3    H225104   0.752   4.585   0.782 -0.7430 -1.7703  2.0778
 1157TIP3   OH225105   5.137   3.354   8.302  0.5966  0.3947 -0.2217
 1157TIP3    H125106   5.145   3.259   8.312  0.1256  0.4148  0.4331
 1157TIP3    H225107   5.050   3.374   8.337  1.1725  1.2140  0.7835
 1158TIP3   OH225108   1.777   6.282   0.722  0.2493  0.0961 -0.2678
 1158TIP3    H125109   1.787   6.219   0.650  0.2425 -2.5032  1.8538
 1158TIP3    H225110   1.839   6.352   0.701  1.9177 -1.6767 -1.6841
 1159TIP3   OH225111   1.180   5.808   1.341  0.4051  0.0081  0.0554
 1159TIP3    H125112   1.175   5.899   1.310 -2.0882  0.4750  1.5607
 1159TIP3    H225113   1.210   5.814   1.431 -2.2364 -0.3135  1.0586
 1160TIP3   OH225114   0.673   6.009   2.341 -0.7644  0.2775 -0.0110
 1160TIP3    H125115   0.720   6.091   2.323  0.2342 -0.1704  0.4785
 1160TIP3    H225116   0.610   6.033   2.410 -0.2893  0.5710  0.3251
 1161TIP3   OH225117   0.965   1.955   7.866  0.8056 -0.1359 -0.4399
 1161TIP3    H125118   0.936   2.039   7.832  0.0130  0.0348  0.6268
 1161TIP3    H225119   0.947   1.959   7.959  3.0890 -0.5136  0.0906
 1162TIP3   OH225120   6.323   3.589   1.384  0.4582  0.0409  0.6242
 1162TIP3    H125121   6.245   3.533   1.384 -0.2061  0.9492  0.0114
 1162TIP3    H225122   6.291   3.674   1.354  1.9093  0.1112 -0.8601
 1163TIP3   OH225123   3.977   1.689   8.549 -0.6343 -0.2361  0.1379
 1163TIP3    H125124   3.899   1.640   8.577 -1.9814  1.0268 -1.2462
 1163TIP3    H225125   4.033   1.691   8.627 -1.4265 -2.2071  0.8118
 1164TIP3   OH225126   4.301   2.775   7.578 -0.3626 -0.3976 -0.1413
 1164TIP3    H125127   4.381   2.755   7.627 -0.1873 -1.6481 -0.8875
 1164TIP3    H225128   4.292   2.870   7.584  0.4632 -0.3699  1.0384
 1165TIP3   OH225129   4.457   3.322   2.349 -0.3481  0.4099  0.9062
 1165TIP3    H125130   4.383   3.381   2.362  0.1885  0.9250  1.7808
 1165TIP3    H225131   4.503   3.323   2.433 -0.6790 -1.7742  1.1737
 1166TIP3   OH225132   2.024   0.702   7.045  0.3389  0.1946  0.1207
 1166TIP3    H125133   2.108   0.700   6.999  0.3082  0.1166  0.0677
 1166TIP3    H225134   1.960   0.728   6.979  0.3201  0.2460  0.1595
 1167TIP3   OH225135   3.835   0.300   1.411 -0.1652  1.2378  0.1765
 1167TIP3    H125136   3.761   0.302   1.472 -1.0249 -2.4801 -0.4878
 1167TIP3    H225137   3.912   0.315   1.465 -1.0900  0.4481  1.7683
 1168TIP3   OH225138   5.624   6.431   0.713  0.2410 -0.1018 -0.4227
 1168TIP3    H125139   5.615   6.350   0.763 -0.2757 -0.2958 -0.8218
 1168TIP3    H225140   5.555   6.426   0.646  0.6581  0.3409 -0.8936
 1169TIP3   OH225141   6.060   5.000   8.357  0.9626 -0.3238 -0.2392
 1169TIP3    H125142   6.028   4.996   8.448  1.0487 -0.9896 -0.2382
 1169TIP3    H225143   6.129   5.066   8.360  0.0389  0.6751 -0.1082
 1170TIP3   OH225144   3.823   1.191   8.250  0.1471 -0.1451  0.0093
 1170TIP3    H125145   3.918   1.191   8.247  0.1361 -0.6463 -0.7636
 1170TIP3    H225146   3.799   1.281   8.272  0.7578  0.6479 -2.2762
 1171TIP3   OH225147   0.417   3.180   1.047  0.1326 -0.4253  0.2698
 1171TIP3    H125148   0.498   3.145   1.083 -0.3396 -1.4622  0.3857
 1171TIP3    H225149   0.354   3.174   1.119 -0.2031 -0.2283 -0.0035
 1172TIP3   OH225150   3.997   3.889   0.852  0.0392  0.2463  0.3004
 1172TIP3    H125151   4.051   3.836   0.910  0.4040  0.2437 -0.0399
 1172TIP3    H225152   4.056   3.956   0.818  0.0825 -0.3412 -0.8368
 1173TIP3   OH225153   4.060   0.647   2.322 -0.0859  0.9996  0.3997
 1173TIP3    H125154   3.998   0.720   2.322  1.0341  1.9790  0.1853
 1173TIP3    H225155   4.145   0.687   2.302  0.4482 -0.4633 -0.4225
 1174TIP3   OH225156   2.517   5.723   8.317 -0.3354  0.1369  0.4506
 1174TIP3    H125157   2.531   5.629   8.308 -0.1517  0.2331 -0.3336
 1174TIP3    H225158   2.501   5.736   8.410 -0.6186 -0.7052  0.5280
 1175TIP3   OH225159   3.853   5.954   7.223 -0.2531 -0.1413  0.5155
 1175TIP3    H125160   3.788   5.959   7.293  0.5929 -0.4842  1.3457
 1175TIP3    H225161   3.909   5.880   7.246  1.3586  1.0405  0.6450
 1176TIP3   OH225162   2.062   3.667   1.343 -0.1285 -0.7404 -0.1468
 1176TIP3    H125163   2.107   3.654   1.427  0.3418  0.3249 -0.2256
 1176TIP3    H225164   2.128   3.648   1.277 -0.3671 -1.1142 -0.2824
 1177TIP3   OH225165   4.441   0.369   0.503 -0.0612 -0.0698  0.0293
 1177TIP3    H125166   4.505   0.384   0.433  1.7711  0.7967  1.7912
 1177TIP3    H225167   4.373   0.315   0.462  1.3693 -0.3439 -2.1624
 1178TIP3   OH225168   1.447   4.793   0.107 -0.0568 -0.0024 -0.2167
 1178TIP3    H125169   1.543   4.789   0.105 -0.0857 -1.7114  0.0662
 1178TIP3    H225170   1.428   4.875   0.152  1.2801  0.1445  0.1452
 1179TIP3   OH225171   5.853   5.527   8.118  0.6823  0.2664 -0.3886
 1179TIP3    H125172   5.814   5.592   8.058 -1.3545  0.2647  0.8362
 1179TIP3    H225173   5.947   5.544   8.114  0.5187  0.9904 -2.7206
 1180TIP3   OH225174   1.245   0.351   6.341 -0.0011 -0.1357  0.9286
 1180TIP3    H125175   1.252   0.264   6.379 -0.0624 -0.2834  0.6036
 1180TIP3    H225176   1.325   0.396   6.370  0.1706 -0.3922  0.8588
 1181TIP3   OH225177   2.771   2.832   1.377  0.3756  0.3798  0.2036
 1181TIP3    H125178   2.732   2.767   1.435  2.1736  0.5444  1.6561
 1181TIP3    H225179   2.769   2.791   1.290 -0.2792 -0.8015  0.7633
 1182TIP3   OH225180   4.092   1.091   7.656 -0.2423 -0.5521  0.2739
 1182TIP3    H125181   4.168   1.068   7.602 -0.4938 -0.3205 -0.1790
 1182TIP3    H225182   4.122   1.078   7.746  1.5887  3.0846  0.3471
 1183TIP3   OH225183   3.811   4.211   0.596  0.1738 -0.2629  0.3670
 1183TIP3    H125184   3.774   4.124   0.582 -1.0004  0.4807 -1.4792
 1183TIP3    H225185   3.901   4.195   0.626 -0.8264 -2.0988  2.7282
 1184TIP3   OH225186   1.421   2.127   0.773  0.2378 -0.1031 -0.1896
 1184TIP3    H125187   1.430   2.032   0.775  1.0302 -0.0299  0.0147
 1184TIP3    H225188   1.447   2.153   0.685 -0.1136 -0.0825 -0.2905
 1185TIP3   OH225189   2.709   4.687   7.707 -0.0719  0.0396  0.9471
 1185TIP3    H125190   2.614   4.680   7.714 -0.1110 -1.4317 -0.4405
 1185TIP3    H225191   2.741   4.598   7.721  1.0248  0.3420  0.4814
 1186TIP3   OH225192   6.895   1.567   8.140  0.1275 -0.3385 -0.1570
 1186TIP3    H125193   6.836   1.509   8.189 -0.2708  0.9772  0.9639
 1186TIP3    H225194   6.850   1.583   8.057  0.3823 -1.8411 -0.6201
 1187TIP3   OH225195   5.379   5.092   0.766 -0.0365  0.2738 -0.1923
 1187TIP3    H125196   5.415   5.117   0.851 -0.1671 -1.2304  0.3539
 1187TIP3    H225197   5.455   5.080   0.710  0.3096 -1.6849  0.6079
 1188TIP3   OH225198   5.239   6.121   0.253  0.0423 -0.2689  0.3792
 1188TIP3    H125199   5.221   6.056   0.321 -1.7396  0.3402  0.5554
 1188TIP3    H225200   5.270   6.070   0.179 -1.2335 -1.3346  0.5415
 1189TIP3   OH225201   0.655   0.181   6.193 -0.4460 -0.1685  0.0255
 1189TIP3    H125202   0.612   0.256   6.153 -1.3110 -0.6034  0.1298
 1189TIP3    H225203   0.605   0.164   6.272 -0.8108 -1.3918 -0.4410
 1190TIP3   OH225204   1.455   0.771   1.679  0.1100 -0.2843 -0.0519
 1190TIP3    H125205   1.406   0.842   1.722 -0.0500 -0.5239  0.1610
 1190TIP3    H225206   1.521   0.746   1.743  0.3875 -0.0949 -0.2633
 1191TIP3   OH225207   1.162   5.297   2.519  0.0668  0.2152  0.2615
 1191TIP3    H125208   1.200   5.352   2.587 -2.3062  0.3689  1.6057
 1191TIP3    H225209   1.144   5.214   2.564  0.5740 -0.4984 -0.8288
 1192TIP3   OH225210   4.111   2.377   8.474 -0.4578  0.5818  0.8753
 1192TIP3    H125211   4.101   2.432   8.396 -0.3866  0.2782  0.6522
 1192TIP3    H225212   4.170   2.427   8.531 -0.2246  0.6372  0.5845
 1193TIP3   OH225213   2.114   2.790   7.681 -0.2905 -0.1919 -0.7838
 1193TIP3    H125214   2.191   2.839   7.710 -1.1349  0.8022 -0.1401
 1193TIP3    H225215   2.097   2.727   7.751 -1.4295  1.1841  0.2335
 1194TIP3   OH225216   5.270   5.097   7.966  0.1247  0.0364  0.2270
 1194TIP3    H125217   5.180   5.126   7.979  0.7416  1.9517  0.4909
 1194TIP3    H225218   5.308   5.163   7.908  1.2651 -0.9470 -0.1756
 1195TIP3   OH225219   6.116   3.467   7.891  0.2426 -0.3554 -0.2021
 1195TIP3    H125220   6.090   3.376   7.883 -3.2753  0.6263 -2.2254
 1195TIP3    H225221   6.079   3.495   7.975 -0.4068 -0.3409 -0.4871
 1196TIP3   OH225222   2.619   6.767   2.115 -0.7216  0.5801 -0.2488
 1196TIP3    H125223   2.632   6.862   2.112 -0.2648  0.5162 -0.2733
 1196TIP3    H225224   2.614   6.741   2.023 -0.3905  0.5159 -0.2478
 1197TIP3   OH225225   2.468   3.433   0.709  0.1829 -0.3203  0.1408
 1197TIP3    H125226   2.420   3.513   0.733 -4.5406 -1.7140 -3.1462
 1197TIP3    H225227   2.511   3.455   0.627 -0.4197 -0.8284 -0.3262
 1198TIP3   OH225228   0.796   0.324   7.528 -0.0872 -0.1137  0.3362
 1198TIP3    H125229   0.806   0.413   7.562  0.7700  0.7326 -1.9206
 1198TIP3    H225230   0.706   0.320   7.496 -0.0421  0.0407  0.1900
 1199TIP3   OH225231   1.521   5.329   0.624  0.4713  0.5459  0.1105
 1199TIP3    H125232   1.516   5.418   0.657 -0.1872  0.6051 -0.1380
 1199TIP3    H225233   1.466   5.278   0.683  1.2841  0.1958  0.5826
 1200TIP3   OH225234   5.921   6.629   1.914  0.4125  0.2601 -0.9759
 1200TIP3    H125235   5.863   6.698   1.884  1.5920  1.6397 -0.1869
 1200TIP3    H225236   5.913   6.630   2.010  0.5793 -0.5772 -0.9366
 1201TIP3   OH225237   3.385   5.645   0.120  0.0529 -0.2313 -0.3175
 1201TIP3    H125238   3.294   5.642   0.090 -0.0750 -2.1734  0.1208
 1201TIP3    H225239   3.417   5.731   0.093 -2.3810  1.1536  0.9049
 1202TIP3   OH225240   3.856   3.281   0.679 -0.3678 -0.1536 -0.0863
 1202TIP3    H125241   3.774   3.331   0.676  0.8482  2.1191  1.5724
 1202TIP3    H225242   3.881   3.271   0.587 -2.0579 -0.1758 -0.5839
 1203TIP3   OH225243   3.776   5.362   1.437 -0.2941  0.1775 -0.0384
 1203TIP3    H125244   3.779   5.315   1.521 -1.6737  0.5336  0.2425
 1203TIP3    H225245   3.816   5.447   1.456 -0.5322  0.2288  0.2450
 1204TIP3   OH225246   3.526   2.280   0.638 -0.4796 -0.0561  0.2964
 1204TIP3    H125247   3.468   2.210   0.668 -2.0472  0.7996 -0.5921
 1204TIP3    H225248   3.572   2.308   0.717  1.1860 -2.9027  0.4742
 1205TIP3   OH225249   2.199   6.442   8.096  0.2642  0.0043 -1.1541
 1205TIP3    H125250   2.201   6.538   8.091 -0.6317  0.0201 -1.4298
 1205TIP3    H225251   2.166   6.423   8.183  1.2942 -0.0739 -0.7701
 1206TIP3   OH225252   3.541   5.740   2.389 -0.1899 -0.1259  0.0042
 1206TIP3    H125253   3.592   5.682   2.445 -0.8813 -0.5690  0.1966
 1206TIP3    H225254   3.454   5.699   2.385 -0.7165  0.9238  0.1991
 1207TIP3   OH225255   3.647   3.152   2.577  0.2142  0.0804  0.3645
 1207TIP3    H125256   3.613   3.237   2.550  0.0796  0.2887  1.1510
 1207TIP3    H225257   3.624   3.093   2.505  0.9829  0.8508 -0.5329
 1208TIP3   OH225258   6.144   0.326   8.171 -0.2314  0.4703  0.3413
 1208TIP3    H125259   6.232   0.356   8.149  0.2331 -0.4773  0.8789
 1208TIP3    H225260   6.094   0.340   8.090  0.9249 -0.9167 -0.6587
 1209TIP3   OH225261   5.812   6.067   0.664 -0.3636  0.2312 -0.2959
 1209TIP3    H125262   5.719   6.047   0.657 -0.0048 -1.4749 -0.4169
 1209TIP3    H225263   5.824   6.144   0.608 -1.0968 -1.6041 -3.1958
 1210TIP3   OH225264   2.369   1.950   0.482 -0.1923  0.7045  0.2521
 1210TIP3    H125265   2.411   2.025   0.439  0.1947 -0.0517 -0.7403
 1210TIP3    H225266   2.433   1.922   0.548  1.3624 -0.9688 -1.8147
 1211TIP3   OH225267   5.043   5.321   8.203 -0.1135  0.8137  0.2057
 1211TIP3    H125268   5.086   5.260   8.263  0.7292  0.8696 -0.3342
 1211TIP3    H225269   5.038   5.273   8.120 -0.5212  1.0489  0.0904
 1212TIP3   OH225270   3.489   3.515   6.932  0.4682  0.2778  0.3396
 1212TIP3    H125271   3.459   3.428   6.958  1.2479 -0.6418 -1.5938
 1212TIP3    H225272   3.549   3.499   6.859 -0.0645  2.4927 -0.6950
 1213TIP3   OH225273   0.995   1.897   0.307  0.5780  0.2933 -0.5370
 1213TIP3    H125274   0.978   1.840   0.382 -0.0008  0.8700 -0.2138
 1213TIP3    H225275   0.942   1.860   0.236 -1.1374  1.3623  0.1294
 1214TIP3   OH225276   2.720   1.882   8.304  0.7940  0.2452  0.3069
 1214TIP3    H125277   2.690   1.948   8.241  0.9447  1.4004  1.4010
 1214TIP3    H225278   2.653   1.881   8.372  1.8598  0.9070  1.4185
 1215TIP3   OH225279   2.484   5.777   8.595 -0.1241  0.2697 -0.4139
 1215TIP3    H125280   2.403   5.739   8.628 -0.0649  0.0129 -0.5625
 1215TIP3    H225281   2.476   5.871   8.612  0.8591 -0.0611  2.3679
 1216TIP3   OH225282   2.455   5.439   0.774  0.2694 -0.3976 -0.3605
 1216TIP3    H125283   2.523   5.450   0.839 -0.3020  1.7811 -0.0476
 1216TIP3    H225284   2.380   5.488   0.809 -0.4749 -0.2720 -2.0352
 1217TIP3   OH225285   3.416   6.339   7.931 -0.2068  0.6142  0.4663
 1217TIP3    H125286   3.505   6.358   7.963 -0.1512  1.3459 -0.0897
 1217TIP3    H225287   3.427   6.325   7.837 -0.7853  1.4922  0.2582
 1218TIP3   OH225288   2.278   6.574   1.006  0.1478  0.1325  0.8450
 1218TIP3    H125289   2.367   6.540   1.001  0.5011  1.1050  0.1622
 1218TIP3    H225290   2.286   6.653   1.060 -0.0429  0.9633 -0.3154
 1219TIP3   OH225291   0.694   6.520   7.967 -0.2588 -0.1523  0.3821
 1219TIP3    H125292   0.702   6.610   7.934 -0.1053 -0.5547 -0.7462
 1219TIP3    H225293   0.784   6.488   7.970 -0.3598 -0.4581  0.1967
 1220TIP3   OH225294   2.416   5.022   1.783 -0.4769  0.1949 -0.0723
 1220TIP3    H125295   2.328   5.056   1.765  0.1129  1.0616 -1.5395
 1220TIP3    H225296   2.472   5.067   1.720  0.7920 -1.4993 -0.2189
 1221TIP3   OH225297   5.924   1.039   1.598 -0.3857  0.3319 -0.4107
 1221TIP3    H125298   5.867   1.008   1.528  0.9551 -0.9653 -0.9828
 1221TIP3    H225299   6.007   1.058   1.555  0.0457  0.8768  0.6160
 1222TIP3   OH225300   4.100   4.646   1.653 -0.7374 -0.0335  0.2899
 1222TIP3    H125301   4.031   4.643   1.719 -0.9658  1.9803  0.2033
 1222TIP3    H225302   4.078   4.576   1.592 -2.1383 -0.0815  0.8134
 1223TIP3   OH225303   0.833   5.725   1.036 -0.0046 -0.5441 -0.2374
 1223TIP3    H125304   0.780   5.646   1.042 -0.8469  0.0777  1.1705
 1223TIP3    H225305   0.768   5.796   1.027  0.7108  0.0372 -0.9780
 1224TIP3   OH225306   0.121   6.352   7.491 -0.3208  0.8423 -0.3383
 1224TIP3    H125307   0.177   6.284   7.528 -2.3976 -0.7007  0.2279
 1224TIP3    H225308   0.143   6.431   7.540 -0.2804 -0.2627  1.5580
 1225TIP3   OH225309   1.070   6.358   0.628 -0.0605 -0.2521 -0.2274
 1225TIP3    H125310   1.091   6.275   0.669  0.2400  0.4401  1.0715
 1225TIP3    H225311   1.029   6.410   0.698 -1.5549  0.1887 -1.3844
 1226TIP3   OH225312   0.302   6.029   7.006  0.2034 -0.5606 -0.3184
 1226TIP3    H125313   0.228   6.053   7.062  0.8327 -1.8941  1.1768
 1226TIP3    H225314   0.306   6.098   6.941 -1.9537 -0.1004 -0.0646
 1227TIP3   OH225315   2.463   0.846   7.252 -0.2150  0.1358  0.2558
 1227TIP3    H125316   2.433   0.755   7.255 -2.4639  0.8259  0.8163
 1227TIP3    H225317   2.536   0.849   7.314  0.8496 -1.5558 -0.8331
 1228TIP3   OH225318   2.635   6.061   1.283 -0.0727  0.1144 -0.7149
 1228TIP3    H125319   2.547   6.088   1.308  0.2299  0.9334 -0.4796
 1228TIP3    H225320   2.638   6.073   1.188  0.6140  2.7437 -0.4297
 1229TIP3   OH225321   6.100   4.189   0.027 -0.0105  0.2230  0.1780
 1229TIP3    H125322   6.059   4.241   0.097  0.0306  0.7678 -0.1963
 1229TIP3    H225323   6.167   4.139   0.071  0.2665  0.8439  0.4798
 1230TIP3   OH225324   0.705   1.270   8.213 -0.0669 -0.3159  0.5659
 1230TIP3    H125325   0.705   1.243   8.305 -1.9806 -0.2708  0.6077
 1230TIP3    H225326   0.684   1.363   8.215  2.4483  0.3392  0.1772
 1231TIP3   OH225327   3.875   2.586   0.293  0.3259  0.1052 -0.2142
 1231TIP3    H125328   3.815   2.657   0.316  0.1453 -0.3666  0.8355
 1231TIP3    H225329   3.873   2.527   0.369  1.7996 -0.1388 -0.3428
 1232TIP3   OH225330   6.467   1.131   1.816  0.4253 -0.1845 -0.0302
 1232TIP3    H125331   6.453   1.047   1.770  0.8069 -0.3337  0.1237
 1232TIP3    H225332   6.516   1.184   1.753 -0.2743  0.1166 -0.3314
 1233TIP3   OH225333   2.973   5.075   8.409  0.0753  0.9130 -0.6447
 1233TIP3    H125334   2.948   5.140   8.473 -0.6682 -0.1998  0.2377
 1233TIP3    H225335   3.067   5.064   8.421 -0.5183 -2.1846  3.2210
 1234TIP3   OH225336   1.847   5.696   2.545 -0.1297  0.1654 -0.0303
 1234TIP3    H125337   1.897   5.615   2.539 -0.9849 -0.3362 -0.6811
 1234TIP3    H225338   1.756   5.667   2.549 -0.5164  1.1194 -1.4289
 1235TIP3   OH225339   1.090   5.529   1.696  0.6393 -0.2790  0.2341
 1235TIP3    H125340   1.087   5.544   1.790 -0.1027  0.3588  0.1154
 1235TIP3    H225341   1.079   5.615   1.657 -0.7133 -0.7297 -0.4429
 1236TIP3   OH225342   5.317   5.261   1.604  0.4122  0.2394 -0.1588
 1236TIP3    H125343   5.306   5.355   1.617  5.2971  0.8733  1.2279
 1236TIP3    H225344   5.293   5.247   1.512 -1.6668  2.5062 -0.0626
 1237TIP3   OH225345   3.562   5.428   2.690  0.1225  0.1099 -0.7748
 1237TIP3    H125346   3.579   5.453   2.781  0.5324  0.7038 -1.0065
 1237TIP3    H225347   3.474   5.462   2.672 -0.0697 -0.2483 -0.5177
 1238TIP3   OH225348   2.962   0.331   0.265  0.1541 -0.0463 -0.0707
 1238TIP3    H125349   3.002   0.246   0.286 -2.2318 -0.8582  1.6294
 1238TIP3    H225350   2.868   0.315   0.273 -0.3765  2.6348 -0.2781
 1239TIP3   OH225351   5.024   6.432   7.375 -0.3229 -0.3868  0.6069
 1239TIP3    H125352   5.117   6.452   7.365  0.0330 -1.7998  0.8613
 1239TIP3    H225353   5.005   6.371   7.304 -0.8292 -0.8152  1.1017
 1240TIP3   OH225354   4.644   0.212   1.959 -0.0167  0.2236  0.0675
 1240TIP3    H125355   4.714   0.265   1.921 -0.4866 -1.0571 -2.8308
 1240TIP3    H225356   4.600   0.271   2.020  3.0506  1.2855  1.4387
 1241TIP3   OH225357   2.218   0.491   7.747 -0.1431  0.0392 -0.6841
 1241TIP3    H125358   2.179   0.404   7.746 -0.4134  0.1433 -2.0001
 1241TIP3    H225359   2.301   0.481   7.792 -0.3406 -0.8229 -0.5033
 1242TIP3   OH225360   4.566   3.194   2.662 -0.4995 -0.3131 -0.9964
 1242TIP3    H125361   4.473   3.181   2.643 -1.0038  1.0406  0.4001
 1242TIP3    H225362   4.576   3.288   2.673 -0.1432 -0.6728  4.3244
 1243TIP3   OH225363   5.122   0.929   0.155  0.4995  0.0743 -0.1191
 1243TIP3    H125364   5.108   0.854   0.213  4.7805 -1.2630 -0.4887
 1243TIP3    H225365   5.118   0.893   0.067 -1.0001  1.0933 -0.5059
 1244TIP3   OH225366   3.372   3.460   2.723  0.3194 -0.0725  0.0181
 1244TIP3    H125367   3.422   3.419   2.793 -3.1206  1.6934  3.9336
 1244TIP3    H225368   3.421   3.541   2.703  0.8899 -0.1476  1.0629
 1245TIP3   OH225369   0.014   3.140   1.524  0.2224 -0.5503  0.4773
 1245TIP3    H125370   0.050   3.200   1.591 -0.0924 -1.7371  1.7646
 1245TIP3    H225371  -0.025   3.197   1.459  3.4836  0.8143 -0.4922
 1246TIP3   OH225372   5.652   0.233   0.765  0.2789 -0.4673 -0.0947
 1246TIP3    H125373   5.560   0.259   0.771  0.4947  0.3897 -0.4069
 1246TIP3    H225374   5.694   0.278   0.838  0.2490 -1.8412  0.8101
 1247TIP3   OH225375   5.739   3.742   0.671 -0.3207 -0.5412  0.0805
 1247TIP3    H125376   5.714   3.816   0.616 -2.3603 -1.4355 -0.3208
 1247TIP3    H225377   5.684   3.669   0.639  0.0425 -1.6520  1.8491
 1248TIP3   OH225378   0.788   2.793   0.122 -0.5746  0.1687 -0.3316
 1248TIP3    H125379   0.882   2.782   0.136 -0.4605 -0.7888 -1.6195
 1248TIP3    H225380   0.766   2.873   0.169  0.8183  0.2302  0.2753
 1249TIP3   OH225381   4.963   0.674   1.757  0.3751 -0.3069  0.6416
 1249TIP3    H125382   5.029   0.744   1.768 -0.3569  0.5051 -0.0172
 1249TIP3    H225383   4.999   0.600   1.806  2.4101 -0.3184 -0.7655
 1250TIP3   OH225384   6.105   6.250   1.013  0.4040  0.5305  0.4313
 1250TIP3    H125385   6.069   6.170   0.977  0.6363 -0.2926  1.9157
 1250TIP3    H225386   6.200   6.243   0.998  0.3833  0.6978  0.2281
 1251TIP3   OH225387   4.368   1.553   1.220  0.4735  0.5218  0.3510
 1251TIP3    H125388   4.409   1.495   1.156 -0.5982 -0.1062  0.2033
 1251TIP3    H225389   4.274   1.543   1.205  0.2499  2.4178  0.2350
 1252TIP3   OH225390   3.464   2.326   2.451 -0.7581  0.2852  0.3581
 1252TIP3    H125391   3.555   2.345   2.431 -0.3022 -0.2193  1.8655
 1252TIP3    H225392   3.450   2.361   2.539 -1.5099 -1.1652  0.8549
 1253TIP3   OH225393   5.585   5.159   0.191 -0.4745 -0.3297 -0.1177
 1253TIP3    H125394   5.651   5.113   0.139 -0.7334 -0.2119 -0.5530
 1253TIP3    H225395   5.605   5.252   0.178  1.1801 -0.2720  2.1989
 1254TIP3   OH225396   0.304   4.335   6.622 -0.0220  0.5776  0.2571
 1254TIP3    H125397   0.229   4.296   6.578 -1.3121  0.1089  2.6934
 1254TIP3    H225398   0.331   4.269   6.686  1.3768  1.4294  0.5852
 1255TIP3   OH225399   5.052   0.751   8.587  0.1540 -0.3017 -0.4005
 1255TIP3    H125400   5.051   0.723   8.495 -0.8016  0.0203 -0.4988
 1255TIP3    H225401   4.963   0.784   8.603  0.3421 -0.2607  0.6115
 1256TIP3   OH225402   0.586   6.444   0.527 -0.1924 -0.0568 -0.2718
 1256TIP3    H125403   0.563   6.354   0.547 -0.0349  0.0234  0.3056
 1256TIP3    H225404   0.675   6.454   0.562  0.3673 -0.0944 -1.6111
 1257TIP3   OH225405   0.877   6.782   0.402  0.4884 -0.2759  0.0271
 1257TIP3    H125406   0.784   6.760   0.406  0.5456 -0.7503 -1.0377
 1257TIP3    H225407   0.922   6.708   0.443  0.3361  0.7118  2.1406
 1258TIP3   OH225408   4.849   3.069   7.629 -0.5638  0.1433 -0.4005
 1258TIP3    H125409   4.934   3.110   7.614 -0.0298  0.5984  3.0838
 1258TIP3    H225410   4.869   2.983   7.665 -1.6994 -1.4359 -3.2070
 1259TIP3   OH225411   5.055   6.759   1.474  0.4609 -0.1574  0.1595
 1259TIP3    H125412   5.024   6.674   1.506  1.7912 -0.9171 -0.5081
 1259TIP3    H225413   5.006   6.823   1.526 -0.1143 -1.3239  1.1064
 1260TIP3   OH225414   0.531   5.197   8.636  0.3446  0.2164 -0.4645
 1260TIP3    H125415   0.494   5.109   8.646  0.3116  0.3005  0.1368
 1260TIP3    H225416   0.522   5.216   8.542  1.8036 -1.0819 -0.9160
 1261TIP3   OH225417   6.665   1.634   0.101  0.5396 -0.3331 -0.1797
 1261TIP3    H125418   6.670   1.554   0.048 -0.8569 -0.3074 -0.3879
 1261TIP3    H225419   6.586   1.678   0.070  0.0819  0.0427  1.4382
 1262TIP3   OH225420   0.860   4.463   0.163  0.1331  0.2199  0.4130
 1262TIP3    H125421   0.776   4.421   0.146  0.4115  0.0782 -0.6519
 1262TIP3    H225422   0.881   4.437   0.253 -0.1487 -1.1628  0.1041
 1263TIP3   OH225423   5.963   3.606   0.639 -0.1531  0.6842 -0.0459
 1263TIP3    H125424   6.009   3.612   0.555  1.1247 -0.8310  0.4953
 1263TIP3    H225425   5.895   3.673   0.634 -0.5133  0.2343 -2.5333
 1264TIP3   OH225426   5.239   1.165   8.512 -0.1000 -0.3147  0.3256
 1264TIP3    H125427   5.313   1.107   8.494 -1.0418 -1.3187 -0.4597
 1264TIP3    H225428   5.248   1.236   8.448 -0.8546 -1.4502 -1.0973
 1265TIP3   OH225429   5.752   1.231   7.090  0.1502  0.3501  0.1115
 1265TIP3    H125430   5.822   1.180   7.131 -0.1514 -1.8439 -1.9251
 1265TIP3    H225431   5.672   1.184   7.111 -0.3118  0.7844 -0.6327
 1266TIP3   OH225432   0.100   2.088   0.944 -0.2690  0.4023 -0.3297
 1266TIP3    H125433   0.030   2.025   0.965  0.3648  0.1397  1.1199
 1266TIP3    H225434   0.053   2.169   0.925 -0.9952  0.9076  3.0016
 1267TIP3   OH225435   2.292   1.178   8.189 -0.6095 -0.5222  0.1997
 1267TIP3    H125436   2.249   1.175   8.275 -0.5108 -0.7220  0.2425
 1267TIP3    H225437   2.330   1.091   8.178 -0.7446 -0.5437 -0.1117
 1268TIP3   OH225438   6.751   4.072   7.039  0.2497  0.1949  0.7047
 1268TIP3    H125439   6.826   4.013   7.049 -0.4939 -0.8359  0.3153
 1268TIP3    H225440   6.677   4.022   7.073 -0.6288  0.3773 -0.8901
 1269TIP3   OH225441   3.685   4.351   0.912 -0.0268  0.4421  0.2788
 1269TIP3    H125442   3.654   4.275   0.863  1.4788 -0.6163  0.8655
 1269TIP3    H225443   3.760   4.317   0.962 -0.4261  1.8975  1.9380
 1270TIP3   OH225444   6.503   2.458   1.939  0.2651  0.7206  0.0450
 1270TIP3    H125445   6.570   2.390   1.932 -0.1697  0.4611 -2.3743
 1270TIP3    H225446   6.553   2.537   1.962  1.0664  0.0913  0.5726
 1271TIP3   OH225447   0.161   4.747   7.573  0.0596 -0.4743 -0.4110
 1271TIP3    H125448   0.237   4.697   7.544  0.2558  0.6380 -1.9132
 1271TIP3    H225449   0.138   4.708   7.657  0.9767 -2.2163 -0.9231
 1272TIP3   OH225450   5.425   2.825   8.237 -0.0964  0.6067  0.3766
 1272TIP3    H125451   5.434   2.754   8.174 -0.5280  0.4640  0.4708
 1272TIP3    H225452   5.400   2.781   8.319 -1.2643  0.9374  0.2142
 1273TIP3   OH225453   4.496   5.306   1.418 -0.1848 -0.0564 -0.2701
 1273TIP3    H125454   4.441   5.308   1.340  0.8032  2.4945 -0.9928
 1273TIP3    H225455   4.573   5.255   1.392 -0.5021 -0.4633 -0.4412
 1274TIP3   OH225456   0.087   2.606   1.498 -0.1670  0.2493 -0.0194
 1274TIP3    H125457   0.175   2.614   1.460 -0.0145 -0.1843  0.2429
 1274TIP3    H225458   0.071   2.691   1.540 -0.0373  0.4696 -0.4071
 1275TIP3   OH225459   3.345   2.080   2.374 -0.8329  0.2003 -0.1950
 1275TIP3    H125460   3.267   2.066   2.428  0.3723 -2.7319  1.0171
 1275TIP3    H225461   3.398   2.143   2.423 -0.6809 -0.8860  1.1002
 1276TIP3   OH225462   0.999   6.187   8.519 -0.7445  0.3160 -0.2393
 1276TIP3    H125463   1.080   6.212   8.476 -0.9928  0.4105 -0.6511
 1276TIP3    H225464   0.930   6.223   8.464 -1.0723 -0.0146 -0.0497
 1277TIP3   OH225465   2.275   2.282   2.599 -0.0126 -0.1427 -0.2070
 1277TIP3    H125466   2.213   2.215   2.631  2.4278 -2.3955  0.1519
 1277TIP3    H225467   2.239   2.364   2.632 -1.9457 -1.4969  1.3799
 1278TIP3   OH225468   0.705   1.184   7.935  0.3690  0.1968 -0.0481
 1278TIP3    H125469   0.729   1.183   8.027  0.1103  1.1957  0.0441
 1278TIP3    H225470   0.635   1.249   7.929 -1.4257 -1.6806 -0.5277
 1279TIP3   OH225471   6.217   1.112   8.077 -0.0677 -0.1100 -0.1197
 1279TIP3    H125472   6.156   1.038   8.073  1.5173 -1.5030  0.2568
 1279TIP3    H225473   6.225   1.141   7.986 -2.5721  1.2794  0.0083
 1280TIP3   OH225474   6.825   0.718   6.889  0.4256 -0.1225  0.2798
 1280TIP3    H125475   6.736   0.685   6.901 -0.1520  0.9721 -0.7267
 1280TIP3    H225476   6.818   0.778   6.815  2.1746 -0.6516 -0.3772
 1281TIP3   OH225477   1.486   0.021   8.409 -0.0003 -0.8010  0.2709
 1281TIP3    H125478   1.397   0.048   8.385  0.7678  0.7001 -1.1671
 1281TIP3    H225479   1.494   0.044   8.501 -0.2858  1.6415 -0.2360
 1282TIP3   OH225480   0.975   1.725   1.648  0.2299 -0.3771 -0.2194
 1282TIP3    H125481   1.045   1.745   1.586  0.8559 -0.8245  0.3234
 1282TIP3    H225482   0.894   1.734   1.597  0.6488  0.5788 -0.7415
 1283TIP3   OH225483   0.969   4.141   0.808  0.2659 -0.0554  0.0762
 1283TIP3    H125484   1.037   4.204   0.784  1.6436 -1.2668  0.6018
 1283TIP3    H225485   1.004   4.096   0.885 -0.8092 -1.2186 -0.0813
 1284TIP3   OH225486   1.150   4.549   7.085 -0.3338  0.1935 -1.1978
 1284TIP3    H125487   1.226   4.492   7.095 -0.2616  0.5430  0.6242
 1284TIP3    H225488   1.079   4.490   7.059 -0.3406 -0.8479  0.9508
 1285TIP3   OH225489   3.831   6.392   7.732 -0.2061 -0.0277 -0.3527
 1285TIP3    H125490   3.878   6.359   7.808  0.8636 -1.1825 -1.4783
 1285TIP3    H225491   3.888   6.372   7.657 -1.7889 -0.0692 -1.6013
 1286TIP3   OH225492   5.368   0.234   0.670  0.7703 -0.5490  0.0023
 1286TIP3    H125493   5.276   0.235   0.646  0.4941 -0.0010  1.0262
 1286TIP3    H225494   5.413   0.199   0.593 -0.1876  0.0417 -0.8456
 1287TIP3   OH225495   0.174   4.325   8.482  0.6291 -0.1906 -0.4150
 1287TIP3    H125496   0.140   4.403   8.524  1.0532  0.1374 -0.6731
 1287TIP3    H225497   0.111   4.306   8.411 -0.3186 -0.9914  0.5976
 1288TIP3   OH225498   4.890   6.505   7.757 -0.2551 -0.2363  0.3156
 1288TIP3    H125499   4.874   6.433   7.695 -0.3765 -0.2424  0.3520
 1288TIP3    H225500   4.982   6.498   7.780  0.5314  1.4550 -2.0029
 1289TIP3   OH225501   5.196   6.242   3.118 -0.4760 -0.0119  0.6882
 1289TIP3    H125502   5.156   6.213   3.200 -0.8360 -1.9379 -0.1164
 1289TIP3    H225503   5.231   6.162   3.079 -1.1687  0.6720 -1.4933
 1290TIP3   OH225504   1.939   5.782   7.233  0.9308 -0.3978 -0.0977
 1290TIP3    H125505   1.993   5.796   7.155 -0.6219 -1.7883 -1.5025
 1290TIP3    H225506   1.849   5.785   7.200  0.2156 -0.4362  1.7621
 1291TIP3   OH225507   0.066   0.988   0.067  0.1204  0.1272 -0.0547
 1291TIP3    H125508   0.036   0.986  -0.023  0.4829 -2.2159 -0.1835
 1291TIP3    H225509   0.111   0.905   0.079  0.8419  0.7580  2.0402
 1292TIP3   OH225510   6.073   6.638   8.317 -0.1629 -0.3155 -0.4121
 1292TIP3    H125511   6.167   6.658   8.325  0.1461 -1.4400 -1.0329
 1292TIP3    H225512   6.044   6.623   8.407  0.4578 -0.8243 -0.2888
 1293TIP3   OH225513   0.739   3.516   7.315  0.0149 -0.3127  0.0414
 1293TIP3    H125514   0.773   3.508   7.404  0.1772 -1.4196 -0.1060
 1293TIP3    H225515   0.669   3.451   7.309 -0.8185  0.5781 -0.2777
 1294TIP3   OH225516   5.936   3.249   8.437 -0.0992  0.0470  0.3249
 1294TIP3    H125517   5.846   3.256   8.407 -0.0828 -0.4708  0.1520
 1294TIP3    H225518   5.944   3.315   8.506 -0.4670  0.4318  0.0013
 1295TIP3   OH225519   4.239   6.332   1.747  0.5491 -0.6340 -0.4709
 1295TIP3    H125520   4.275   6.364   1.829  0.0458 -0.4677 -0.3135
 1295TIP3    H225521   4.297   6.368   1.680  0.0625  0.5089 -0.2891
 1296TIP3   OH225522   5.431   0.074   7.177  0.4818 -0.2030  0.0364
 1296TIP3    H125523   5.483   0.028   7.111  0.4488  0.6710 -0.6271
 1296TIP3    H225524   5.363   0.119   7.127 -0.1364 -0.2861  0.7705
 1297TIP3   OH225525   6.183   3.448   8.379  0.4822 -0.3136 -0.2806
 1297TIP3    H125526   6.262   3.409   8.417  0.8047  0.1245 -0.4941
 1297TIP3    H225527   6.128   3.469   8.454  0.6410 -0.4705 -0.1209
 1298TIP3   OH225528   4.629   1.515   1.040 -0.4339  0.0735 -0.4719
 1298TIP3    H125529   4.696   1.580   1.019 -2.4312  1.9258 -1.4490
 1298TIP3    H225530   4.674   1.454   1.099  1.2139  3.1310  1.8040
 1299TIP3   OH225531   3.117   2.513   0.541 -0.6074 -0.7268 -0.5283
 1299TIP3    H125532   3.053   2.443   0.555  0.6306 -1.6269  1.0056
 1299TIP3    H225533   3.191   2.469   0.499  0.4567 -0.5448  1.0651
 1300TIP3   OH225534   4.369   2.099   1.437 -0.0729  0.0540 -0.0685
 1300TIP3    H125535   4.292   2.148   1.467  0.6329  0.3825  1.2983
 1300TIP3    H225536   4.433   2.111   1.507  0.6071 -1.7057 -0.3415
 1301TIP3   OH225537   0.890   1.238   8.521 -0.0108 -0.3092 -0.1739
 1301TIP3    H125538   0.801   1.204   8.536  0.2178 -1.1688 -0.6509
 1301TIP3    H225539   0.880   1.333   8.522 -0.9541 -0.3943 -0.3074
 1302TIP3   OH225540   5.016   1.763   7.980  0.3115 -0.4941 -0.4739
 1302TIP3    H125541   5.062   1.826   7.923 -1.8929  3.5854  1.7972
 1302TIP3    H225542   4.933   1.806   8.002 -1.5888 -4.4443  1.1252
 1303TIP3   OH225543   0.826   5.873   7.270 -0.1001  0.1591 -0.0143
 1303TIP3    H125544   0.861   5.859   7.358  1.0604 -1.2395 -0.6479
 1303TIP3    H225545   0.766   5.947   7.279 -1.8840 -1.4383  2.4484
 1304TIP3   OH225546   5.267   6.345   7.165  0.2231 -0.0959  0.6247
 1304TIP3    H125547   5.330   6.302   7.107  0.4745  1.9574 -0.7361
 1304TIP3    H225548   5.185   6.298   7.149  0.5477 -0.3100 -0.5656
 1305TIP3   OH225549   5.025   5.442   2.740 -0.4380  0.2305  0.0802
 1305TIP3    H125550   4.958   5.447   2.673 -1.1735 -1.2752  0.6535
 1305TIP3    H225551   4.999   5.368   2.795 -0.6088  2.1961  2.8406
 1306TIP3   OH225552   5.337   4.788   0.828  0.2532 -0.2034  0.4002
 1306TIP3    H125553   5.261   4.732   0.840  0.7516 -1.1202 -0.5548
 1306TIP3    H225554   5.304   4.864   0.781  0.0844 -1.0839 -0.9675
 1307TIP3   OH225555   3.918   6.712   1.660  0.1641  0.3952 -0.3253
 1307TIP3    H125556   3.935   6.621   1.634 -0.9337 -0.2136  0.9265
 1307TIP3    H225557   3.828   6.729   1.631 -0.1689  0.5542  0.7310
 1308TIP3   OH225558   5.909   1.755   7.262  0.6054  1.0019  0.5631
 1308TIP3    H125559   5.867   1.832   7.223  0.8985  1.2037  0.6379
 1308TIP3    H225560   5.859   1.680   7.229  0.3603  1.2205  0.4351
 1309TIP3   OH225561   1.174   2.156   7.743 -0.0276 -0.6148  0.1887
 1309TIP3    H125562   1.152   2.064   7.759  0.4416 -0.5863  1.0620
 1309TIP3    H225563   1.231   2.180   7.816  0.2143  0.2472 -0.2712
 1310TIP3   OH225564   5.362   1.414   6.355  0.0739  0.0576  0.0226
 1310TIP3    H125565   5.423   1.416   6.429  1.4048 -2.0907 -0.9167
 1310TIP3    H225566   5.279   1.386   6.395  0.2611  0.7950  0.9761
 1311TIP3   OH225567   2.125   4.571   0.392  0.1243  0.2979  0.6792
 1311TIP3    H125568   2.164   4.483   0.394  1.4987  0.8389 -0.5162
 1311TIP3    H225569   2.128   4.601   0.483  0.9862 -0.3180  0.8624
 1312TIP3   OH225570   6.062   5.762   1.340 -0.3472 -0.3503 -0.1234
 1312TIP3    H125571   6.076   5.850   1.307  0.1401 -0.2182  0.4228
 1312TIP3    H225572   6.100   5.762   1.428 -1.8812 -0.6071  0.5776
 1313TIP3   OH225573   1.975   2.289   8.471 -0.0729  0.2303  0.0466
 1313TIP3    H125574   1.957   2.282   8.564 -0.4714 -1.5611 -0.1393
 1313TIP3    H225575   1.897   2.254   8.428  0.5888 -0.0898 -0.9270
 1314TIP3   OH225576   2.668   3.105   6.947 -0.5838  0.6176  0.0754
 1314TIP3    H125577   2.664   3.036   6.881 -0.6575 -0.0906  0.8150
 1314TIP3    H225578   2.577   3.125   6.967 -0.5602  0.7871  0.0196
 1315TIP3   OH225579   6.009   2.814   0.877 -0.3103  0.0882 -0.3895
 1315TIP3    H125580   6.009   2.730   0.924 -0.2496 -0.1074 -0.7372
 1315TIP3    H225581   6.100   2.825   0.848 -0.3088  0.2975 -0.3065
 1316TIP3   OH225582   6.711   5.992   7.978 -0.4437 -0.5366 -0.2858
 1316TIP3    H125583   6.695   6.085   7.995 -0.7876 -0.8538  1.1772
 1316TIP3    H225584   6.626   5.950   7.987 -0.1888 -1.0883 -0.3793
 1317TIP3   OH225585   0.318   2.819   0.399 -0.1645 -0.4984 -0.4351
 1317TIP3    H125586   0.347   2.807   0.490 -2.8596 -1.1469  0.4406
 1317TIP3    H225587   0.288   2.733   0.372  0.4348 -0.2716 -1.9153
 1318TIP3   OH225588   0.649   4.628   2.478  0.5464  0.0616  0.2821
 1318TIP3    H125589   0.632   4.721   2.491  2.1324  0.6244 -1.2441
 1318TIP3    H225590   0.743   4.623   2.458  0.2548 -1.6981 -0.9299
 1319TIP3   OH225591   0.197   5.507   7.857 -0.8432  0.4256  0.4226
 1319TIP3    H125592   0.230   5.464   7.777  0.2533  0.0825  1.0297
 1319TIP3    H225593   0.143   5.440   7.899 -1.3523  0.5767  0.0096
 1320TIP3   OH225594   1.475   0.075   7.442 -0.2832 -0.4234 -0.3775
 1320TIP3    H125595   1.522   0.073   7.359  1.8672  0.9008  0.7138
 1320TIP3    H225596   1.430   0.160   7.442 -0.0778 -0.3122 -0.0993
 1321TIP3   OH225597   2.135   0.102   8.307  0.2374 -0.3286  0.3170
 1321TIP3    H125598   2.126   0.193   8.280  0.3027 -0.4951 -0.2860
 1321TIP3    H225599   2.230   0.087   8.310  0.2249 -0.5936 -0.3626
 1322TIP3   OH225600   5.787   6.329   7.988 -0.4965 -0.3476 -0.4800
 1322TIP3    H125601   5.710   6.338   8.045 -0.3727 -0.6462 -0.2684
 1322TIP3    H225602   5.860   6.360   8.041 -0.3039 -1.0954 -0.2972
 1323TIP3   OH225603   2.655   2.072   1.019 -0.2292 -0.4544  0.0452
 1323TIP3    H125604   2.599   1.999   1.048 -0.7478  0.2949  0.9889
 1323TIP3    H225605   2.673   2.121   1.100  0.5547  0.1666 -0.4949
 1324TIP3   OH225606   6.536   3.139   8.240 -0.9652  0.1669 -0.5789
 1324TIP3    H125607   6.556   3.079   8.168 -1.8128 -0.9964  0.1173
 1324TIP3    H225608   6.454   3.181   8.213 -1.0339  0.0776 -0.5121
 1325TIP3   OH225609   3.279   6.302   0.721 -0.6723 -0.4679  0.0209
 1325TIP3    H125610   3.232   6.286   0.639 -0.6794  2.5849 -0.6897
 1325TIP3    H225611   3.372   6.299   0.696 -0.6306 -0.9635  0.2264
 1326TIP3   OH225612   2.659   6.143   7.231  0.1532  0.2354  0.1123
 1326TIP3    H125613   2.678   6.214   7.292  1.8873  0.5573 -0.7497
 1326TIP3    H225614   2.726   6.077   7.250  0.8676  0.4361 -1.5621
 1327TIP3   OH225615   4.504   2.301   1.920 -0.4488 -0.3247  0.8790
 1327TIP3    H125616   4.481   2.331   2.007  1.1894 -1.6866  1.8451
 1327TIP3    H225617   4.579   2.357   1.895 -0.5946 -0.2735  0.5492
 1328TIP3   OH225618   0.257   5.444   7.253  0.3868  0.8113 -0.3747
 1328TIP3    H125619   0.288   5.511   7.314  0.6576  0.5142 -0.1838
 1328TIP3    H225620   0.315   5.370   7.268 -2.3139 -1.0198  2.3865
 1329TIP3   OH225621   2.472   0.571   8.354  0.7040  0.4445  0.0862
 1329TIP3    H125622   2.426   0.564   8.270 -0.1241 -0.3341  0.5800
 1329TIP3    H225623   2.465   0.663   8.378 -3.5645 -0.0263  1.6700
 1330TIP3   OH225624   3.092   2.880   2.069  0.0650 -0.2455 -0.2086
 1330TIP3    H125625   3.175   2.843   2.100 -0.0740 -0.9497 -0.6561
 1330TIP3    H225626   3.101   2.974   2.083  0.9103 -0.3246 -0.1834
 1331TIP3   OH225627   4.831   3.139   1.943  0.2016  0.1702  0.0783
 1331TIP3    H125628   4.797   3.218   1.901  1.4303 -0.1229 -1.5638
 1331TIP3    H225629   4.925   3.143   1.930  0.5091 -0.5591  1.8196
 1332TIP3   OH225630   4.573   0.556   0.665 -0.0677 -0.0262 -0.5478
 1332TIP3    H125631   4.514   0.502   0.613 -0.7766 -0.0046  0.2167
 1332TIP3    H225632   4.614   0.615   0.602  0.3249 -1.0982 -1.3145
 1333TIP3   OH225633   5.387   3.191   8.612 -0.1407 -0.0065  0.0041
 1333TIP3    H125634   5.482   3.180   8.617 -0.1401 -0.4719 -0.8226
 1333TIP3    H225635   5.364   3.158   8.525 -1.3117 -1.7643  0.9440
 1334TIP3   OH225636   1.324   0.600   0.820 -0.4996  0.0720  0.6961
 1334TIP3    H125637   1.311   0.505   0.819  0.0040 -0.0724  2.7707
 1334TIP3    H225638   1.256   0.634   0.763  1.1557 -1.6720 -2.5979
 1335TIP3   OH225639   4.167   3.285   0.146  0.2480 -0.2999  0.7844
 1335TIP3    H125640   4.216   3.211   0.180 -1.3062 -1.4917  0.5166
 1335TIP3    H225641   4.202   3.361   0.194  2.1538 -1.1095  0.7468
 1336TIP3   OH225642   3.473   6.068   8.062 -0.0555 -0.3979  0.7969
 1336TIP3    H125643   3.550   6.033   8.018 -0.5749 -1.3805  0.6224
 1336TIP3    H225644   3.462   6.156   8.027  0.8249 -0.3481  0.6324
 1337TIP3   OH225645   0.515   1.013   7.023  0.0082 -0.1171 -0.3044
 1337TIP3    H125646   0.487   0.970   6.942 -0.0475 -0.2551 -0.2125
 1337TIP3    H225647   0.608   1.029   7.010  0.4325 -1.8499  0.3499
 1338TIP3   OH225648   4.089   5.311   1.989 -0.0525  0.5444 -0.0336
 1338TIP3    H125649   4.086   5.270   1.902  0.5346 -0.5345  0.4292
 1338TIP3    H225650   4.017   5.374   1.988 -0.7025 -0.1709 -0.9529
 1339TIP3   OH225651   5.246   0.084   1.875 -0.9939  0.5978 -0.0556
 1339TIP3    H125652   5.312   0.040   1.822 -0.4090  2.2477 -0.7701
 1339TIP3    H225653   5.270   0.063   1.965  0.8030  1.5023 -0.2839
 1340TIP3   OH225654   3.569   2.508   7.342 -0.3172 -0.1846 -0.8691
 1340TIP3    H125655   3.549   2.416   7.325  0.7506 -0.2320 -1.9857
 1340TIP3    H225656   3.664   2.510   7.353 -0.2371  0.8979 -1.6590
 1341TIP3   OH225657   1.806   1.315   7.225 -0.4081 -0.3623 -0.0806
 1341TIP3    H125658   1.896   1.284   7.220  0.0500  0.6700  1.1526
 1341TIP3    H225659   1.757   1.243   7.264  0.2673 -0.2498  0.9946
 1342TIP3   OH225660   0.056   6.127   1.180  0.2356 -0.0661  0.2955
 1342TIP3    H125661  -0.032   6.117   1.145 -0.4305 -0.0509  1.9063
 1342TIP3    H225662   0.072   6.222   1.181  0.3313 -0.0744 -0.0937
 1343TIP3   OH225663   2.446   0.549   1.043  0.5214  0.3065 -0.1596
 1343TIP3    H125664   2.375   0.613   1.049  1.4543  1.3281  0.3143
 1343TIP3    H225665   2.402   0.468   1.018 -0.8566  0.8186  0.4667
 1344TIP3   OH225666   5.727   5.040   2.080  0.2523  0.4447 -0.2812
 1344TIP3    H125667   5.678   5.002   2.007 -2.6476  0.5178  1.4649
 1344TIP3    H225668   5.689   5.000   2.158  0.4838  3.2091  1.3816
 1345TIP3   OH225669   4.372   6.703   0.398 -0.5392 -0.1655  0.1416
 1345TIP3    H125670   4.355   6.743   0.314 -2.4592 -1.9293 -0.3854
 1345TIP3    H225671   4.295   6.723   0.451 -0.1691 -0.5914  0.8606
 1346TIP3   OH225672   3.462   5.207   8.292 -0.0928  0.0744  0.0703
 1346TIP3    H125673   3.442   5.152   8.217 -0.4715 -1.1204  1.0155
 1346TIP3    H225674   3.509   5.282   8.255  1.5197 -1.4432 -1.1283
 1347TIP3   OH225675   4.994   6.479   0.903 -0.4812  0.4603  0.1441
 1347TIP3    H125676   5.061   6.476   0.836  2.0215  0.8087  2.4448
 1347TIP3    H225677   4.953   6.393   0.901 -1.1487  0.7707 -2.3568
 1348TIP3   OH225678   2.169   3.752   8.186 -0.0244 -0.2571 -0.1218
 1348TIP3    H125679   2.258   3.757   8.153  0.2910 -3.7607 -0.1602
 1348TIP3    H225680   2.163   3.665   8.226 -3.1576  0.2147  0.6853
 1349TIP3   OH225681   3.238   3.363   1.340  0.3777  0.0693 -0.2602
 1349TIP3    H125682   3.228   3.454   1.312  2.0611  0.0626 -1.0188
 1349TIP3    H225683   3.330   3.343   1.323 -0.1875 -2.0882 -1.0901
 1350TIP3   OH225684   6.388   0.283   1.584  0.3069 -0.3655  0.0205
 1350TIP3    H125685   6.408   0.240   1.668 -1.9309  0.4120  1.0326
 1350TIP3    H225686   6.434   0.366   1.588  4.3349 -2.2439 -1.7774
 1351TIP3   OH225687   1.854   2.925   1.582 -0.6226  0.4408  0.1546
 1351TIP3    H125688   1.925   2.983   1.553 -0.0922 -0.0783  0.3798
 1351TIP3    H225689   1.857   2.851   1.522 -2.5908  1.5253 -1.3799
 1352TIP3   OH225690   1.585   1.071   0.129 -0.1771 -0.3165 -0.4378
 1352TIP3    H125691   1.640   1.137   0.087  0.7734 -0.3234  0.7712
 1352TIP3    H225692   1.616   0.988   0.092 -0.0205 -0.2444 -0.4708
 1353TIP3   OH225693   5.259   3.729   7.119 -0.0351 -1.2070 -0.0473
 1353TIP3    H125694   5.170   3.757   7.098  0.3760  0.6593  0.5053
 1353TIP3    H225695   5.293   3.694   7.037 -0.3111  0.8090 -1.0868
 1354TIP3   OH225696   1.392   2.293   7.912  0.4196  0.8429  0.1680
 1354TIP3    H125697   1.393   2.380   7.952 -1.1129  1.4646 -1.0790
 1354TIP3    H225698   1.373   2.309   7.820 -0.4347 -0.8530  0.0194
 1355TIP3   OH225699   1.647   4.407   0.177  0.5781  0.1320 -0.1576
 1355TIP3    H125700   1.621   4.478   0.236 -1.9090 -0.6715 -0.1671
 1355TIP3    H225701   1.714   4.359   0.225 -0.0669  0.5861  1.2625
 1356TIP3   OH225702   0.982   0.427   6.491 -0.1373 -0.9829  0.0294
 1356TIP3    H125703   0.981   0.515   6.528  0.6883 -1.3441  0.9694
 1356TIP3    H225704   1.071   0.417   6.457 -1.2091 -0.2006 -3.2996
 1357TIP3   OH225705   2.994   1.480   6.501  0.3680 -0.0625 -0.0640
 1357TIP3    H125706   2.946   1.397   6.507 -1.0262  0.6031 -1.3852
 1357TIP3    H225707   3.022   1.498   6.590 -1.2766 -0.8294  0.6487
 1358TIP3   OH225708   2.840   6.460   7.219  0.6033  0.1290 -0.4967
 1358TIP3    H125709   2.773   6.524   7.243  0.5519 -0.3244  0.6605
 1358TIP3    H225710   2.882   6.497   7.141  0.7010  1.6801  0.2354
 1359TIP3   OH225711   4.543   5.310   2.630 -0.6052  0.4054 -0.3029
 1359TIP3    H125712   4.484   5.315   2.555 -0.4111  1.3687 -0.4094
 1359TIP3    H225713   4.602   5.386   2.619  0.7185 -0.5831 -0.2663
 1360TIP3   OH225714   1.227   1.543   1.539  0.0350 -0.1992  0.1829
 1360TIP3    H125715   1.141   1.541   1.496  0.0461  0.9346  0.0757
 1360TIP3    H225716   1.279   1.603   1.486  1.0753 -1.3044 -0.0583
 1361TIP3   OH225717   2.718   1.963   0.769  0.1142 -0.1279  0.3381
 1361TIP3    H125718   2.806   1.994   0.748 -0.3028  0.6152 -0.3589
 1361TIP3    H225719   2.700   2.001   0.855 -0.9542  2.9441 -1.0991
 1362TIP3   OH225720   6.292   1.782   0.271  0.7078 -0.5054 -0.0002
 1362TIP3    H125721   6.359   1.842   0.305 -1.3597  0.7680  2.1224
 1362TIP3    H225722   6.298   1.705   0.328 -0.6669  0.3271  1.3630
 1363TIP3   OH225723   4.737   1.401   8.572  0.0834  0.1132  0.0718
 1363TIP3    H125724   4.811   1.342   8.578  0.1367  0.0197 -1.2338
 1363TIP3    H225725   4.774   1.489   8.587  0.7893  0.2540 -2.2002
 1364TIP3   OH225726   1.708   5.102   0.151 -0.4313  0.1097 -0.5136
 1364TIP3    H125727   1.750   5.120   0.066  0.6642 -0.2507 -0.0626
 1364TIP3    H225728   1.658   5.181   0.169  0.2470  0.6578 -0.9622
 1365TIP3   OH225729   1.687   1.013   0.497 -0.0746 -0.0756  0.2031
 1365TIP3    H125730   1.745   1.068   0.444 -0.3174 -0.7823 -0.8355
 1365TIP3    H225731   1.706   0.923   0.468 -0.2130 -0.4876  1.3373
 1366TIP3   OH225732   0.023   3.643   1.208  0.1476  0.5056 -0.2114
 1366TIP3    H125733   0.113   3.614   1.219 -0.3195 -1.0636 -0.2585
 1366TIP3    H225734   0.027   3.707   1.136  1.5574  2.4586  1.4954
 1367TIP3   OH225735   4.528   3.088   1.833 -0.3176 -0.0050  0.5384
 1367TIP3    H125736   4.610   3.136   1.820  0.1956 -1.0808 -0.3140
 1367TIP3    H225737   4.555   2.997   1.846 -1.4546 -0.8109 -2.1926
 1368TIP3   OH225738   0.120   0.552   6.835 -0.8327 -0.2774 -0.3108
 1368TIP3    H125739   0.098   0.496   6.761 -2.6524 -0.4591  0.3083
 1368TIP3    H225740   0.050   0.618   6.837  0.7645  1.5308 -0.4850
 1369TIP3   OH225741   5.485   5.528   0.833  0.4620 -0.0748 -0.1799
 1369TIP3    H125742   5.574   5.557   0.854  0.3188  1.3250 -1.3257
 1369TIP3    H225743   5.492   5.494   0.744 -0.0840 -0.2904 -0.1424
 1370TIP3   OH225744   5.948   4.658   2.158 -0.5105 -0.5290 -0.4373
 1370TIP3    H125745   5.978   4.575   2.120 -0.5583 -0.9342  0.3886
 1370TIP3    H225746   5.854   4.659   2.142 -0.4494 -0.4381 -0.8052
 1371TIP3   OH225747   0.033   1.016   1.975  0.1189 -0.0044 -0.0216
 1371TIP3    H125748  -0.029   0.956   1.932  0.5266 -1.8002  1.7212
 1371TIP3    H225749   0.043   0.980   2.064  2.6301  0.9798  0.1828
 1372TIP3   OH225750   0.657   4.612   0.473  1.0001 -1.1866 -0.1252
 1372TIP3    H125751   0.618   4.596   0.559  1.0975 -1.5514 -0.1462
 1372TIP3    H225752   0.582   4.616   0.413  0.7930  0.7317  0.1999
 1373TIP3   OH225753   6.200   4.756   0.014  0.0835  0.6022 -0.0245
 1373TIP3    H125754   6.282   4.787  -0.023  0.6203 -0.1645  0.4799
 1373TIP3    H225755   6.205   4.660   0.006 -0.3997  0.5048  0.7478
 1374TIP3   OH225756   4.586   2.263   0.061  0.4252  0.2451 -0.2915
 1374TIP3    H125757   4.635   2.318   0.122  1.7673  0.4671 -1.5168
 1374TIP3    H225758   4.640   2.260  -0.018 -0.8017 -0.8155 -1.1411
 1375TIP3   OH225759   3.537   5.849   8.250  0.5112  0.3016  0.1121
 1375TIP3    H125760   3.575   5.869   8.336  2.4939 -0.8777 -0.4525
 1375TIP3    H225761   3.507   5.934   8.218  0.6949  0.9320  1.5159
 1376TIP3   OH225762   5.002   2.087   0.664 -0.1193 -0.0091 -0.4106
 1376TIP3    H125763   4.935   2.154   0.679 -2.5132 -1.9856 -1.5078
 1376TIP3    H225764   5.023   2.054   0.751 -1.7491 -0.3548 -0.1066
 1377TIP3   OH225765   3.724   4.141   7.405  0.0986 -0.0616  0.4959
 1377TIP3    H125766   3.743   4.176   7.492  1.4506  0.3800  0.0573
 1377TIP3    H225767   3.637   4.175   7.384 -0.3061 -0.2960  1.7229
 1378TIP3   OH225768   5.649   4.143   8.538 -0.2605 -0.6701  0.1147
 1378TIP3    H125769   5.666   4.144   8.632  0.5695 -0.2638 -0.0284
 1378TIP3    H225770   5.706   4.212   8.503 -1.2414 -0.1782 -0.5713
 1379TIP3   OH225771   2.804   1.008   2.594  0.2251 -0.2996  0.0017
 1379TIP3    H125772   2.718   1.022   2.555  0.5564 -0.3511 -0.7551
 1379TIP3    H225773   2.865   1.056   2.538  0.5165  1.1199  1.4315
 1380TIP3   OH225774   4.756   3.188   0.460  0.4285 -0.0472 -0.1711
 1380TIP3    H125775   4.670   3.209   0.423  0.9692  1.4227 -0.6570
 1380TIP3    H225776   4.752   3.224   0.549  0.3104 -0.5916  0.0475
 1381TIP3   OH225777   4.814   3.699   1.684  0.3893 -0.3762  0.0494
 1381TIP3    H125778   4.847   3.770   1.629 -1.1880  1.6327  1.5246
 1381TIP3    H225779   4.883   3.633   1.683  2.3092  1.5324 -0.7501
 1382TIP3   OH225780   4.310   5.046   1.569 -0.4945  0.1063  0.1273
 1382TIP3    H125781   4.307   4.965   1.620 -0.4820  0.4773  0.7275
 1382TIP3    H225782   4.293   5.018   1.479  2.0789 -0.9640 -0.1398
 1383TIP3   OH225783   5.062   3.445   7.246  0.3331 -0.0015 -0.2751
 1383TIP3    H125784   5.001   3.509   7.209  0.3823 -0.8910 -1.9719
 1383TIP3    H225785   5.011   3.364   7.252  1.4252 -0.8824 -2.1471
 1384TIP3   OH225786   0.370   5.868   0.142 -0.1755  0.3633 -0.2453
 1384TIP3    H125787   0.418   5.877   0.060  1.1086  0.9123  0.5442
 1384TIP3    H225788   0.387   5.777   0.169  1.6635  0.9516  0.7432
 1385TIP3   OH225789   4.219   1.309   1.346  0.0678 -0.1228  0.1081
 1385TIP3    H125790   4.280   1.325   1.275  0.7624  2.5353  1.1722
 1385TIP3    H225791   4.134   1.300   1.303  1.0184 -3.5970 -1.3704
 1386TIP3   OH225792   6.643   0.595   0.279 -0.1712 -0.2924  0.6364
 1386TIP3    H125793   6.575   0.650   0.316 -0.5640  0.4997 -1.1430
 1386TIP3    H225794   6.607   0.506   0.282 -1.8781  0.2423 -1.3692
 1387TIP3   OH225795   0.458   5.609   8.074 -0.0522  0.2112  0.0563
 1387TIP3    H125796   0.398   5.621   8.001 -1.5341 -0.1405  1.1650
 1387TIP3    H225797   0.449   5.689   8.126 -0.0342 -0.1062  0.5553
 1388TIP3   OH225798   5.610   6.289   6.768 -0.1830 -0.4890  0.0342
 1388TIP3    H125799   5.624   6.231   6.694 -0.8206 -1.5580  0.7197
 1388TIP3    H225800   5.522   6.326   6.754 -1.0453 -2.0279  1.0851
 1389TIP3   OH225801   0.446   3.701   1.788  0.2332 -0.3809 -0.1439
 1389TIP3    H125802   0.539   3.724   1.791  0.6838 -2.0219 -0.6154
 1389TIP3    H225803   0.437   3.650   1.708 -1.1585  0.0165 -0.2671
 1390TIP3   OH225804   0.250   4.929   6.547  0.0751 -0.4246 -0.4731
 1390TIP3    H125805   0.194   5.002   6.573 -2.8431 -2.3822 -0.7971
 1390TIP3    H225806   0.267   4.943   6.454  0.0209  0.1078 -0.4059
 1391TIP3   OH225807   4.229   4.527   1.105 -0.5380  0.1104 -0.0381
 1391TIP3    H125808   4.231   4.603   1.163  2.0763 -0.3651  0.5896
 1391TIP3    H225809   4.169   4.553   1.034 -1.5104  1.8185  1.3215
 1392TIP3   OH225810   2.000   2.796   2.136 -0.4106 -0.2385 -0.0198
 1392TIP3    H125811   2.072   2.807   2.198  0.0125  0.0793 -0.5558
 1392TIP3    H225812   1.956   2.716   2.164 -0.0418 -0.2603  0.5074
 1393TIP3   OH225813   2.363   2.535   1.470 -0.2978 -0.2238  0.5066
 1393TIP3    H125814   2.275   2.504   1.448 -1.2311  1.9331  0.9403
 1393TIP3    H225815   2.388   2.484   1.548 -1.6606 -0.0911  1.0612
 1394TIP3   OH225816   2.870   3.172   8.223  0.2342  0.2669 -0.4478
 1394TIP3    H125817   2.942   3.232   8.204  0.4838 -0.0403 -0.4848
 1394TIP3    H225818   2.816   3.174   8.144  0.8343 -0.3892 -0.8810
 1395TIP3   OH225819   5.024   2.098   6.584  0.2391  0.0558 -0.6292
 1395TIP3    H125820   5.026   2.008   6.553 -1.1727  0.3368 -1.6353
 1395TIP3    H225821   5.101   2.106   6.639  0.6161 -1.6424 -0.8574
 1396TIP3   OH225822   0.206   6.367   2.409  0.2904 -0.2462  0.1961
 1396TIP3    H125823   0.275   6.358   2.475 -1.1381 -1.3787  1.6138
 1396TIP3    H225824   0.204   6.281   2.366 -0.0041 -0.1138 -0.0566
 1397TIP3   OH225825   3.542   2.343   7.028  0.1645  0.0194 -0.2635
 1397TIP3    H125826   3.590   2.366   6.949  0.5821 -0.6289 -0.2027
 1397TIP3    H225827   3.480   2.416   7.041 -0.0465  0.0330 -1.2869
 1398TIP3   OH225828   3.403   5.014   6.606 -0.3320 -0.6085  0.3766
 1398TIP3    H125829   3.443   4.983   6.687 -1.0482 -1.8217  0.2846
 1398TIP3    H225830   3.359   4.937   6.570 -2.1832  0.5150  0.1410
 1399TIP3   OH225831   3.112   1.646   1.462 -0.4422 -0.1036  0.1277
 1399TIP3    H125832   3.151   1.630   1.548  0.1547 -0.6675 -0.2396
 1399TIP3    H225833   3.186   1.663   1.404 -0.8865  0.9773 -0.1416
 1400TIP3   OH225834   5.408   4.769   6.964 -0.4544 -0.8484  0.2949
 1400TIP3    H125835   5.414   4.829   6.890  2.3557 -0.4463  0.7542
 1400TIP3    H225836   5.378   4.686   6.925 -0.9429 -0.1208 -0.9364
 1401TIP3   OH225837   2.437   2.254   0.403 -0.0130 -0.8590  0.6455
 1401TIP3    H125838   2.480   2.237   0.319  1.3717 -2.0396  1.5642
 1401TIP3    H225839   2.353   2.293   0.378  1.6159  1.7820 -1.1984
 1402TIP3   OH225840   1.534   1.676   0.278 -0.0171 -0.2934  0.0789
 1402TIP3    H125841   1.602   1.610   0.285  0.0425 -0.2557 -0.1229
 1402TIP3    H225842   1.480   1.664   0.356  0.8848  0.4259  0.8472
 1403TIP3   OH225843   6.220   1.961   0.589  0.2353 -0.1563  0.5248
 1403TIP3    H125844   6.201   2.052   0.610  3.0183  0.6153  0.1271
 1403TIP3    H225845   6.172   1.911   0.654 -0.8359  1.6112  1.1638
 1404TIP3   OH225846   3.158   1.570   7.515 -0.0527 -0.3663 -0.6241
 1404TIP3    H125847   3.189   1.626   7.444  0.8813 -0.2199 -0.1066
 1404TIP3    H225848   3.180   1.481   7.487  0.3558 -0.3049 -0.5031
 1405TIP3   OH225849   2.044   1.691   0.388  0.1926  0.3420 -0.1853
 1405TIP3    H125850   2.037   1.781   0.420 -0.0246  1.2988 -2.7176
 1405TIP3    H225851   2.137   1.670   0.393  0.0301 -0.1049  2.2829
 1406TIP3   OH225852   1.772   6.445   1.392 -0.0948  0.0203 -0.0762
 1406TIP3    H125853   1.775   6.499   1.470  1.1713 -1.3318  0.8646
 1406TIP3    H225854   1.709   6.489   1.335 -0.3462  1.5476  1.3022
 1407TIP3   OH225855   5.468   6.705   0.996 -0.4792  0.1362  0.2835
 1407TIP3    H125856   5.396   6.642   0.996 -0.1279 -0.2755 -0.5283
 1407TIP3    H225857   5.425   6.790   0.982 -0.8497 -0.0578  0.2302
 1408TIP3   OH225858   6.496   0.521   1.686 -0.3474  0.0076 -0.0385
 1408TIP3    H125859   6.462   0.516   1.775  0.1250 -0.4227  0.1214
 1408TIP3    H225860   6.563   0.589   1.689 -2.1260  1.9018 -0.6803
 1409TIP3   OH225861   4.401   0.551   7.944 -0.2733 -0.2454 -0.1251
 1409TIP3    H125862   4.339   0.572   7.874 -0.6175  1.3148  0.5874
 1409TIP3    H225863   4.487   0.559   7.903 -0.4967 -2.4855 -1.1398
 1410TIP3   OH225864   5.464   2.208   2.105  0.0682 -0.2002  0.0312
 1410TIP3    H125865   5.535   2.153   2.071  0.8336 -0.1210  1.4372
 1410TIP3    H225866   5.414   2.150   2.161  0.3390  0.2949  0.7974
 1411TIP3   OH225867   0.139   1.745   1.806 -0.3106  0.2920  0.4720
 1411TIP3    H125868   0.230   1.734   1.833 -0.4939  0.0321  1.0060
 1411TIP3    H225869   0.107   1.655   1.793 -1.0139  0.2688  2.1022
 1412TIP3   OH225870   1.734   1.852   0.477 -0.0714 -0.2799 -0.1244
 1412TIP3    H125871   1.694   1.935   0.502  1.7176  0.1999  1.4561
 1412TIP3    H225872   1.662   1.791   0.471 -1.2428  0.9751  0.5650
 1413TIP3   OH225873   5.778   4.227   0.145 -0.0238 -0.0211  0.1230
 1413TIP3    H125874   5.865   4.220   0.186 -0.4106 -0.0074  0.9566
 1413TIP3    H225875   5.751   4.317   0.164  0.8068  0.7962 -2.2472
 1414TIP3   OH225876   6.683   4.083   0.497  0.3623  0.3201 -0.5900
 1414TIP3    H125877   6.723   4.007   0.540 -1.0275 -0.7100 -1.0392
 1414TIP3    H225878   6.686   4.153   0.562 -1.0207 -0.9908  0.9585
 1415TIP3   OH225879   0.251   6.332   0.636 -0.8853 -0.2056  0.6730
 1415TIP3    H125880   0.304   6.410   0.619 -0.2151 -0.5410  1.1872
 1415TIP3    H225881   0.162   6.357   0.609 -0.3378  0.1071 -0.9441
 1416TIP3   OH225882   0.908   6.818   8.157 -0.1035  0.1858  0.2946
 1416TIP3    H125883   0.832   6.820   8.099  0.5766  4.0418 -0.7755
 1416TIP3    H225884   0.984   6.823   8.098  0.7423  1.2678  1.4164
 1417TIP3   OH225885   4.058   5.132   8.171  0.0212 -0.4947 -0.5628
 1417TIP3    H125886   4.075   5.189   8.096 -2.3319 -0.5117 -1.2027
 1417TIP3    H225887   4.122   5.159   8.237  0.0873  1.7285 -1.4413
 1418TIP3   OH225888   4.535   3.822   8.602 -0.0467  0.0428 -0.3671
 1418TIP3    H125889   4.526   3.728   8.620 -0.3615 -0.1262 -1.3074
 1418TIP3    H225890   4.492   3.865   8.675  1.2739 -0.4975  0.7751
 1419TIP3   OH225891   1.100   2.315   8.385 -0.1217  0.4410  0.3474
 1419TIP3    H125892   1.037   2.336   8.316  0.5948 -0.0896 -0.4880
 1419TIP3    H225893   1.169   2.266   8.341  0.8812  0.9968  1.2387
 1420TIP3   OH225894   1.983   3.969   7.433  0.5256  0.4522  0.6685
 1420TIP3    H125895   1.899   3.923   7.436  1.0306 -1.1232 -3.1085
 1420TIP3    H225896   2.046   3.905   7.468  0.6610 -0.1608 -0.6266
 1421TIP3   OH225897   0.744   6.518   1.821 -0.4406  0.1408  0.1745
 1421TIP3    H125898   0.699   6.509   1.905 -0.7819  1.1082  0.1092
 1421TIP3    H225899   0.737   6.432   1.781 -1.0553 -0.0938  0.7608
 1422TIP3   OH225900   3.020   1.031   1.336 -0.2546 -0.4787  0.3680
 1422TIP3    H125901   3.039   0.959   1.396  2.4494  0.6743  1.0380
 1422TIP3    H225902   3.045   0.998   1.250  2.3453  0.0304  0.8583
 1423TIP3   OH225903   5.353   3.135   1.261 -0.6246 -0.3392 -0.4320
 1423TIP3    H125904   5.388   3.112   1.346 -2.0531 -0.5562  0.1188
 1423TIP3    H225905   5.328   3.052   1.221 -2.0565 -0.0951 -0.1017
 1424TIP3   OH225906   1.503   3.794   8.482  0.2747 -0.6053 -0.6209
 1424TIP3    H125907   1.581   3.752   8.446 -0.2358 -0.6096 -1.7693
 1424TIP3    H225908   1.430   3.749   8.438 -0.3093  0.9027 -1.2476
 1425TIP3   OH225909   0.380   1.318   6.995  0.2167 -0.1624 -0.1933
 1425TIP3    H125910   0.397   1.264   7.073  0.1394  0.4024  0.2180
 1425TIP3    H225911   0.305   1.372   7.020 -0.8510 -1.0937 -1.2177
 1426TIP3   OH225912   5.564   5.964   8.030  0.2074  0.6652  0.4867
 1426TIP3    H125913   5.514   5.884   8.017  1.3648 -0.3667  2.0164
 1426TIP3    H225914   5.498   6.030   8.050 -0.9188  0.5665 -2.4494
 1427TIP3   OH225915   0.059   3.930   7.073 -0.1306 -0.3807 -0.4364
 1427TIP3    H125916   0.105   3.888   7.001  0.6281 -1.2956  0.5575
 1427TIP3    H225917   0.127   3.974   7.123 -0.6344  0.1356 -0.1859
 1428TIP3   OH225918   3.831   4.161   8.435  0.0987  0.9860 -0.1062
 1428TIP3    H125919   3.918   4.123   8.422 -0.3666 -0.1716  0.0298
 1428TIP3    H225920   3.784   4.097   8.488 -1.2910  0.9099 -1.3437
 1429TIP3   OH225921   5.897   4.724   0.526 -0.4377  0.5070 -0.0796
 1429TIP3    H125922   5.856   4.738   0.612  0.1304 -0.0667  0.2926
 1429TIP3    H225923   5.953   4.800   0.513 -0.4233  0.5328  0.1248
 1430TIP3   OH225924   6.312   3.894   0.629 -0.2848  0.0523  0.5871
 1430TIP3    H125925   6.248   3.882   0.559  1.3936  2.7411 -1.5975
 1430TIP3    H225926   6.387   3.840   0.601 -1.0570 -2.2804  2.6231
 1431TIP3   OH225927   3.918   6.061   0.225 -0.3917  0.1736  0.3137
 1431TIP3    H125928   3.969   6.136   0.256 -0.1365  0.5616 -1.0047
 1431TIP3    H225929   3.834   6.099   0.200 -1.1412 -0.3645  1.8579
 1432TIP3   OH225930   2.317   1.118   1.847  0.0970 -0.0729 -0.0277
 1432TIP3    H125931   2.310   1.029   1.811 -0.8733 -0.2319  0.5269
 1432TIP3    H225932   2.388   1.112   1.912  1.1026 -0.0467 -1.0845
 1433TIP3   OH225933   3.816   5.614   0.498  0.1789  0.6273  0.2843
 1433TIP3    H125934   3.742   5.566   0.462  0.6850  0.1748 -0.1526
 1433TIP3    H225935   3.864   5.550   0.551  0.3525  0.8779  0.4391
 1434TIP3   OH225936   0.953   1.420   7.366  0.0150 -0.0482 -0.8021
 1434TIP3    H125937   0.874   1.411   7.312  0.2195 -0.5119 -1.0316
 1434TIP3    H225938   1.016   1.359   7.327  0.0260 -0.7208  0.2376
 1435TIP3   OH225939   0.653   2.196   6.993  0.3501 -0.1920  0.2086
 1435TIP3    H125940   0.617   2.114   6.960 -0.6765  0.3519 -0.0445
 1435TIP3    H225941   0.595   2.220   7.066  1.4490 -0.3826  1.1756
 1436TIP3   OH225942   5.023   4.654   1.662 -0.0696 -0.4873  0.3253
 1436TIP3    H125943   5.037   4.644   1.756 -0.6823  1.7802  0.7032
 1436TIP3    H225944   5.103   4.693   1.629 -0.4346  0.1452  0.1778
 1437TIP3   OH225945   4.694   5.466   0.151 -0.0454  0.5731  0.0018
 1437TIP3    H125946   4.786   5.450   0.132  0.2425 -0.6702  2.1031
 1437TIP3    H225947   4.666   5.529   0.085  1.3886 -1.4984 -2.7909
 1438TIP3   OH225948   0.511   1.198   7.215 -0.3747 -0.3783 -0.2267
 1438TIP3    H125949   0.581   1.263   7.209 -1.0725  0.3060 -1.2533
 1438TIP3    H225950   0.523   1.143   7.138 -1.0654 -0.1428 -0.5103
 1439TIP3   OH225951   3.524   5.661   2.000  0.0369 -0.0123  0.0227
 1439TIP3    H125952   3.603   5.714   2.007  0.7688 -1.1184  0.4359
 1439TIP3    H225953   3.532   5.618   1.915  0.3847 -0.8578  0.4620
 1440TIP3   OH225954   2.522   3.072   7.488 -0.2645  0.2934  0.0371
 1440TIP3    H125955   2.577   3.017   7.432 -1.1050  0.7568 -1.2874
 1440TIP3    H225956   2.466   3.009   7.534 -0.5384 -0.0419 -0.7248
 1441TIP3   OH225957   3.116   1.826   2.095 -0.1008  0.0957 -0.1249
 1441TIP3    H125958   3.151   1.914   2.081  1.0275 -0.3239  0.0346
 1441TIP3    H225959   3.116   1.786   2.008 -0.5092  0.2026 -0.1786
 1442TIP3   OH225960   0.657   6.299   8.656  0.4144 -0.7208 -0.5158
 1442TIP3    H125961   0.668   6.291   8.561  2.0186 -0.1200 -0.4045
 1442TIP3    H225962   0.674   6.212   8.690  0.4754 -0.7912 -0.7284
 1443TIP3   OH225963   3.558   4.870   0.755 -0.4944  0.4427 -0.3539
 1443TIP3    H125964   3.549   4.779   0.727 -1.3090 -0.0801  1.4563
 1443TIP3    H225965   3.651   4.889   0.746 -0.1295 -0.9309  0.2433
 1444TIP3   OH225966   3.119   0.659   7.449 -0.0339 -0.7383  0.1044
 1444TIP3    H125967   3.052   0.671   7.382 -0.1280  0.3657  0.3798
 1444TIP3    H225968   3.170   0.739   7.447 -0.8860 -0.0526  2.2645
 1445TIP3   OH225969   1.231   3.975   1.773 -0.8376  0.0572 -0.5095
 1445TIP3    H125970   1.165   4.043   1.786  0.4821  1.2116  0.5211
 1445TIP3    H225971   1.207   3.907   1.836 -0.5846  0.8662  0.5023
 1446TIP3   OH225972   5.362   6.676   7.357 -0.2620  0.1174  0.0106
 1446TIP3    H125973   5.349   6.771   7.366  3.8809  1.1298 -2.2509
 1446TIP3    H225974   5.325   6.656   7.271 -0.1604 -0.1069  0.0203
 1447TIP3   OH225975   4.668   4.582   6.660 -0.0185 -0.5091 -0.5083
 1447TIP3    H125976   4.653   4.496   6.620  1.0933  0.0043 -2.1335
 1447TIP3    H225977   4.714   4.632   6.593  0.8938  0.8160  1.0213
 1448TIP3   OH225978   3.990   5.316   0.396 -0.6232 -0.0635  0.1449
 1448TIP3    H125979   4.026   5.392   0.442 -0.6177  0.3120 -0.4551
 1448TIP3    H225980   3.985   5.345   0.304 -0.4399 -0.8621 -0.1186
 1449TIP3   OH225981   2.251   4.865   0.580  0.8162  0.8696 -0.3490
 1449TIP3    H125982   2.285   4.938   0.529 -0.6365  0.6145 -1.7865
 1449TIP3    H225983   2.292   4.787   0.541  0.0213  0.7080 -0.9057
 1450TIP3   OH225984   0.354   4.801   2.263 -0.3870  0.0633 -0.3329
 1450TIP3    H125985   0.309   4.856   2.327 -0.9318 -0.5187 -0.1962
 1450TIP3    H225986   0.373   4.859   2.190 -2.5452  0.0797 -0.9704
 1451TIP3   OH225987   1.928   1.139   7.566 -0.0199  0.5935 -0.2007
 1451TIP3    H125988   2.019   1.170   7.570  0.0810  0.4765 -1.3525
 1451TIP3    H225989   1.934   1.050   7.531 -0.5797  0.5844 -0.2834
 1452TIP3   OH225990   2.034   6.203   2.346  0.2377 -0.6661 -0.0046
 1452TIP3    H125991   2.123   6.226   2.374  0.8550 -0.0098 -2.2864
 1452TIP3    H225992   2.035   6.108   2.339  1.5026 -0.5760 -2.0208
 1453TIP3   OH225993   5.901   2.618   0.484  0.1980 -0.4986  0.5037
 1453TIP3    H125994   5.956   2.617   0.562 -0.3260 -3.7402  0.9914
 1453TIP3    H225995   5.963   2.619   0.411  0.8581 -1.4634  1.0309
 1454TIP3   OH225996   6.801   3.881   0.626  0.1034 -0.5053 -0.4529
 1454TIP3    H125997   6.891   3.898   0.655  0.8270 -1.2729 -2.0700
 1454TIP3    H225998   6.767   3.816   0.686  1.0559 -1.0562 -0.4937
 1455TIP3   OH225999   5.460   4.483   0.980  0.3006 -0.2136 -0.3398
 1455TIP3    H126000   5.380   4.534   0.996 -0.5410 -1.9907  1.5804
 1455TIP3    H226001   5.528   4.529   1.029 -0.4078 -0.7298  1.2013
 1456TIP3   OH226002   4.848   6.580   2.861 -0.1220  0.0335 -0.1473
 1456TIP3    H126003   4.870   6.637   2.787 -2.4227  0.3654 -0.6533
 1456TIP3    H226004   4.853   6.491   2.826  0.7412  0.0678 -0.1285
 1457TIP3   OH226005   4.649   2.791   8.468 -0.5614 -0.1987  0.0706
 1457TIP3    H126006   4.604   2.717   8.509 -0.3250 -0.5276 -0.2553
 1457TIP3    H226007   4.646   2.860   8.533 -0.4796 -0.6114  0.5167
 1458TIP3   OH226008   4.911   0.581   8.011 -0.4710  0.1562 -0.1576
 1458TIP3    H126009   4.994   0.535   7.996 -0.3391  0.7688 -1.4606
 1458TIP3    H226010   4.913   0.602   8.104  1.1979  0.8157 -0.2970
 1459TIP3   OH226011   4.996   6.717   8.523 -0.0959 -0.0228 -0.3215
 1459TIP3    H126012   4.949   6.679   8.449 -0.5437 -0.7065  0.2980
 1459TIP3    H226013   5.063   6.651   8.545 -0.5702 -0.2624  0.4582
 1460TIP3   OH226014   5.739   5.282   7.473  0.1249 -0.5240  0.3122
 1460TIP3    H126015   5.809   5.289   7.537 -0.0044  0.1223  0.3902
 1460TIP3    H226016   5.785   5.273   7.389  0.3287  0.8494  0.2538
 1461TIP3   OH226017   1.799   6.818   6.142  0.1262  0.7898 -0.5290
 1461TIP3    H126018   1.716   6.775   6.122  1.3623 -2.0019 -0.0627
 1461TIP3    H226019   1.829   6.853   6.057 -0.6363  0.1970 -1.0570
 1462TIP3   OH226020   1.632   0.481   0.623  0.2549 -0.0304  0.8465
 1462TIP3    H126021   1.705   0.428   0.656  1.3240  1.2467  0.6095
 1462TIP3    H226022   1.554   0.432   0.648  1.1987 -2.6565 -0.9674
 1463TIP3   OH226023   5.360   6.402   6.793 -0.7357 -0.4109  0.1238
 1463TIP3    H126024   5.394   6.443   6.873 -0.9059 -0.9659  0.4888
 1463TIP3    H226025   5.273   6.439   6.782 -0.5787 -0.0724 -0.0039
 1464TIP3   OH226026   5.434   6.104   2.029 -0.1944  0.3456  0.4467
 1464TIP3    H126027   5.391   6.164   1.968  1.4268  0.5201 -0.5723
 1464TIP3    H226028   5.495   6.159   2.078  0.3078 -0.2279  0.4713
 1465TIP3   OH226029   3.381   3.623   7.821 -0.2036  0.2620  0.4843
 1465TIP3    H126030   3.285   3.622   7.821 -0.2468  1.4569 -0.2068
 1465TIP3    H226031   3.404   3.679   7.746  1.0530 -0.6191  0.1728
 1466TIP3   OH226032   0.875   4.829   1.041 -0.2008 -0.3128 -0.6532
 1466TIP3    H126033   0.930   4.755   1.015 -0.5173 -0.4816 -0.8432
 1466TIP3    H226034   0.785   4.797   1.032 -0.3242 -0.3508  0.5619
 1467TIP3   OH226035   3.606   5.937   0.709  0.3382 -0.2779 -0.1906
 1467TIP3    H126036   3.656   6.015   0.729  1.2060 -0.4905 -1.4275
 1467TIP3    H226037   3.660   5.864   0.740 -0.3551 -0.4186  0.7394
 1468TIP3   OH226038   2.371   1.491   0.836  0.4273 -0.5619 -0.6501
 1468TIP3    H126039   2.307   1.461   0.900  0.2549  1.3682  0.1373
 1468TIP3    H226040   2.324   1.554   0.782  0.9109 -1.2541 -1.9044
 1469TIP3   OH226041   2.235   0.387   0.327  0.5324  0.4528 -0.0145
 1469TIP3    H126042   2.310   0.350   0.374  1.3444  0.4662 -1.2413
 1469TIP3    H226043   2.275   0.445   0.261 -0.5223 -0.0543 -1.1240
 1470TIP3   OH226044   6.374   4.161   6.926 -0.1172  0.1274 -0.0859
 1470TIP3    H126045   6.393   4.193   7.014 -0.7917  0.3239 -0.0097
 1470TIP3    H226046   6.369   4.066   6.935  3.4791 -0.2455 -0.5963
 1471TIP3   OH226047   6.209   3.644   7.703  0.6725 -0.5852  0.5926
 1471TIP3    H126048   6.168   3.639   7.617  0.4951 -1.0273  0.7022
 1471TIP3    H226049   6.149   3.596   7.761  0.3308  0.4613  1.1367
 1472TIP3   OH226050   1.187   0.809   7.499  0.3459 -0.0407 -0.3251
 1472TIP3    H126051   1.115   0.861   7.535  0.5835  0.4910 -0.5998
 1472TIP3    H226052   1.266   0.852   7.530  0.5533  0.2038 -1.1478
 1473TIP3   OH226053   3.637   6.392   1.057 -0.5323 -0.3670  0.6151
 1473TIP3    H126054   3.607   6.406   0.967  2.1559 -0.6834 -0.4237
 1473TIP3    H226055   3.674   6.304   1.057 -1.2988 -0.7369  2.3254
 1474TIP3   OH226056   6.553   1.393   0.817 -0.0078 -0.3423 -0.2525
 1474TIP3    H126057   6.520   1.362   0.901  0.7832 -1.9483 -0.5028
 1474TIP3    H226058   6.528   1.486   0.814 -1.7795 -0.7418  0.8614
 1475TIP3   OH226059   6.768   2.831   6.610 -0.1182 -0.3478 -0.6197
 1475TIP3    H126060   6.741   2.772   6.538  1.3175 -0.4062 -1.1327
 1475TIP3    H226061   6.790   2.913   6.566  0.4934 -0.2925 -0.2125
 1476TIP3   OH226062   0.016   3.723   0.323 -0.5931  0.1757 -0.5090
 1476TIP3    H126063   0.017   3.804   0.271 -0.5104  0.1582 -0.5360
 1476TIP3    H226064  -0.062   3.730   0.377 -0.1224  0.6824  0.1270
 1477TIP3   OH226065   3.595   2.358   0.895 -0.2928  0.2217  1.0470
 1477TIP3    H126066   3.617   2.294   0.962 -0.1807  0.2942  1.0792
 1477TIP3    H226067   3.499   2.362   0.897 -0.5233 -2.1047 -0.9579
 1478TIP3   OH226068   5.818   2.684   8.434 -0.9199 -0.6010 -0.7384
 1478TIP3    H126069   5.856   2.763   8.395 -1.7129 -0.4797 -1.3028
 1478TIP3    H226070   5.888   2.619   8.429 -0.8196 -0.4274 -1.8946
 1479TIP3   OH226071   2.801   4.067   8.244  0.3642  0.7677 -0.1322
 1479TIP3    H126072   2.858   4.057   8.168  1.0773  1.0067  0.3621
 1479TIP3    H226073   2.859   4.055   8.319 -0.2580  0.9138  0.3784
 1480TIP3   OH226074   5.297   3.283   0.384 -0.2773 -0.1528 -0.2140
 1480TIP3    H126075   5.295   3.313   0.293 -2.4227  2.6291  0.5804
 1480TIP3    H226076   5.211   3.243   0.397 -0.8948  1.4533  1.0540
 1481TIP3   OH226077   6.341   3.040   8.101 -0.3376 -0.1827  0.0265
 1481TIP3    H126078   6.328   3.024   8.008  0.3070  1.6929 -0.4406
 1481TIP3    H226079   6.280   3.111   8.122 -0.2317 -0.3530  0.9383
 1482TIP3   OH226080   5.913   0.020   7.662  0.2246 -0.5736  0.1402
 1482TIP3    H126081   5.818   0.018   7.671  0.2397 -0.8024  0.2370
 1482TIP3    H226082   5.945  -0.049   7.720  0.5093  0.1622  0.8808
 1483TIP3   OH226083   0.592   1.568   0.628 -0.2815 -0.3149 -0.1669
 1483TIP3    H126084   0.679   1.601   0.651 -0.1951 -1.5066  1.4766
 1483TIP3    H226085   0.605   1.474   0.614 -1.1660 -0.3683 -0.7262
 1484TIP3   OH226086   4.869   4.285   2.156  0.1032 -0.1379  0.4103
 1484TIP3    H126087   4.942   4.316   2.102 -0.1322 -0.4202 -0.0633
 1484TIP3    H226088   4.844   4.363   2.207 -0.9955  0.6974 -1.3348
 1485TIP3   OH226089   5.954   6.897   8.259 -0.0332  0.1942  0.0342
 1485TIP3    H126090   5.936   6.840   8.334 -0.7980  1.3696  0.7822
 1485TIP3    H226091   5.895   6.865   8.190  0.2894 -0.5630  0.1009
 1486TIP3   OH226092   2.467   3.633   2.682 -0.2338  0.5154  0.0135
 1486TIP3    H126093   2.470   3.700   2.750 -1.1875  0.9677 -0.3677
 1486TIP3    H226094   2.491   3.679   2.602 -3.3660  1.0948 -0.7242
 1487TIP3   OH226095   2.509   6.299   7.581  0.7317  0.1566 -0.4691
 1487TIP3    H126096   2.560   6.316   7.660  0.7238 -0.5746 -0.3034
 1487TIP3    H226097   2.562   6.336   7.510  0.8115  0.6755 -0.1419
 1488TIP3   OH226098   5.209   2.555   0.362 -0.3080 -0.2457  0.3743
 1488TIP3    H126099   5.217   2.460   0.375 -2.6503 -0.2968  2.3313
 1488TIP3    H226100   5.136   2.564   0.300  1.1886  0.3166 -1.3878
 1489TIP3   OH226101   2.045   5.732   6.977  0.2838  0.1396  0.0151
 1489TIP3    H126102   1.994   5.753   6.899 -1.7946 -1.0723  0.9925
 1489TIP3    H226103   2.120   5.683   6.943 -0.7870 -0.7284 -1.2027
 1490TIP3   OH226104   6.783   0.747   7.511  0.3241  0.6748 -0.6216
 1490TIP3    H126105   6.863   0.796   7.530  0.1192  0.5921  0.5557
 1490TIP3    H226106   6.805   0.693   7.436  1.6014  0.1430  0.1000
 1491TIP3   OH226107   2.692   0.027   7.880  0.1598 -0.2578  0.5435
 1491TIP3    H126108   2.759   0.049   7.945  1.1303 -3.0808  0.6351
 1491TIP3    H226109   2.738   0.029   7.796 -0.0533 -0.6761  0.4168
 1492TIP3   OH226110   1.495   0.920   0.336  0.0394  0.1398 -1.1609
 1492TIP3    H126111   1.510   0.988   0.270 -0.7807  1.5405  0.0420
 1492TIP3    H226112   1.535   0.955   0.416 -1.4000 -0.2693 -0.2363
 1493TIP3   OH226113   6.351   1.673   2.272  0.7384  0.5197 -0.2418
 1493TIP3    H126114   6.399   1.691   2.353 -0.6367  0.1810  0.6729
 1493TIP3    H226115   6.318   1.758   2.244 -2.2410  0.1825  1.8286
 1494TIP3   OH226116   6.531   0.308   0.214 -0.5000 -0.2532  0.1789
 1494TIP3    H126117   6.441   0.276   0.219 -0.1838 -1.2329 -0.2611
 1494TIP3    H226118   6.548   0.315   0.120 -0.9128  2.2777  0.2240
 1495TIP3   OH226119   3.955   4.214   7.965  0.1165 -0.0123  0.1536
 1495TIP3    H126120   4.044   4.243   7.987  0.4054  0.1639 -1.1506
 1495TIP3    H226121   3.943   4.135   8.017  0.8814  0.1875  0.6624
 1496TIP3   OH226122   6.815   4.969   1.204 -0.6351  0.0944  0.1125
 1496TIP3    H126123   6.886   5.029   1.228 -0.5159  0.9206 -2.1027
 1496TIP3    H226124   6.750   4.981   1.273  0.1938  1.4165  0.7017
 1497TIP3   OH226125   3.451   2.375   7.952  0.2046 -0.2516 -0.1487
 1497TIP3    H126126   3.356   2.366   7.940  0.1237  0.4852 -0.1492
 1497TIP3    H226127   3.489   2.317   7.886 -0.2370 -1.4785  0.6526
 1498TIP3   OH226128   0.223   1.598   8.297  0.0182 -0.6271  0.6467
 1498TIP3    H126129   0.176   1.530   8.346 -1.3620  0.2809  0.6451
 1498TIP3    H226130   0.168   1.614   8.220  0.4545  0.2993  0.5159
 1499TIP3   OH226131   2.472   1.419   0.289 -0.1520 -0.1017  0.3034
 1499TIP3    H126132   2.387   1.441   0.329  0.3086 -0.3165  1.4453
 1499TIP3    H226133   2.494   1.496   0.236 -0.2655  0.7029  1.3685
 1500TIP3   OH226134   6.316   3.648   8.050  0.0123  0.4464  0.2557
 1500TIP3    H126135   6.294   3.576   7.990  1.7152 -0.7916  1.0035
 1500TIP3    H226136   6.384   3.697   8.005  0.5656  0.1215  0.7113
 1501TIP3   OH226137   3.179   2.819   7.336 -0.3045  0.7709 -0.1647
 1501TIP3    H126138   3.258   2.796   7.287  0.2396 -1.1059  1.4770
 1501TIP3    H226139   3.107   2.802   7.275  0.4261 -0.1674 -0.7914
 1502TIP3   OH226140   6.763   6.303   2.036 -0.2628  0.2918  0.4836
 1502TIP3    H126141   6.675   6.338   2.027 -0.0370  0.7097 -0.0893
 1502TIP3    H226142   6.771   6.282   2.129 -0.5323  1.4041  0.7655
 1503TIP3   OH226143   5.837   2.029   6.522 -0.2345 -0.1483 -0.8103
 1503TIP3    H126144   5.823   1.941   6.484 -1.5816  0.0513 -0.8314
 1503TIP3    H226145   5.771   2.035   6.591  2.2375 -0.5350  1.7200
 1504TIP3   OH226146   6.459   5.876   8.004 -0.4743 -0.5169  0.1290
 1504TIP3    H126147   6.509   5.809   8.050 -0.7192  0.4917  1.9534
 1504TIP3    H226148   6.368   5.861   8.031 -0.8883 -0.9411 -1.3933
 1505TIP3   OH226149   0.909   6.743   6.814  0.6609  0.1894  0.5577
 1505TIP3    H126150   0.911   6.759   6.909  0.6721  0.0710  0.5781
 1505TIP3    H226151   0.866   6.820   6.777 -1.0144 -0.5666  0.8323
 1506TIP3   OH226152   6.207   1.322   7.175  0.0438 -0.0108 -0.0296
 1506TIP3    H126153   6.202   1.400   7.229 -1.2372  0.2037 -0.4167
 1506TIP3    H226154   6.241   1.352   7.090  0.2241 -0.0057  0.0440
 1507TIP3   OH226155   5.237   0.779   7.684  0.3167  0.2016 -0.1782
 1507TIP3    H126156   5.156   0.745   7.722  0.7720 -0.3829  0.2817
 1507TIP3    H226157   5.251   0.724   7.607 -1.1449  2.0182 -1.8619
 1508TIP3   OH226158   5.291   6.308   1.880  0.0487 -0.0900 -0.0046
 1508TIP3    H126159   5.375   6.348   1.901  0.6789 -0.8199 -0.9920
 1508TIP3    H226160   5.227   6.379   1.886  0.6961  0.4253  0.9733
 1509TIP3   OH226161   3.284   5.161   0.453 -0.0760  0.5293  0.0080
 1509TIP3    H126162   3.261   5.070   0.438 -0.4644  0.7304 -0.6742
 1509TIP3    H226163   3.324   5.162   0.540 -0.8245 -0.1531  0.3707
 1510TIP3   OH226164   0.641   0.563   0.539  0.0458  0.2181  0.4089
 1510TIP3    H126165   0.692   0.519   0.606 -0.2046  0.4153  0.7322
 1510TIP3    H226166   0.566   0.601   0.586 -0.9398 -0.9108 -0.2047
 1511TIP3   OH226167   3.454   1.315   8.080  0.1820  0.2917 -0.5574
 1511TIP3    H126168   3.422   1.352   8.162  1.0771  0.4065 -0.2450
 1511TIP3    H226169   3.521   1.252   8.107  1.0781  0.9305 -1.2131
 1512TIP3   OH226170   4.715   0.311   7.961 -0.3414 -0.6159 -0.2015
 1512TIP3    H126171   4.739   0.225   7.928  0.6114  0.1153 -1.5281
 1512TIP3    H226172   4.710   0.367   7.883  1.2591  1.0245  0.7836
 1513TIP3   OH226173   0.655   4.577   6.480  0.2238 -0.4713 -0.1926
 1513TIP3    H126174   0.721   4.590   6.549  0.4818  0.3720 -0.5896
 1513TIP3    H226175   0.685   4.499   6.434  0.8541 -0.2044 -0.2536
 1514TIP3   OH226176   6.111   0.144   1.847 -0.0413 -0.1394 -0.1758
 1514TIP3    H126177   6.073   0.161   1.933 -0.4561  0.5870 -0.4879
 1514TIP3    H226178   6.191   0.196   1.845  0.6477 -1.1648  0.2414
 1515TIP3   OH226179   1.840   1.902   0.796 -0.3697  0.3347 -0.2351
 1515TIP3    H126180   1.817   1.861   0.712  0.1870  0.5536 -0.5019
 1515TIP3    H226181   1.863   1.829   0.853  1.1146  0.2735 -0.8614
 1516TIP3   OH226182   5.038   6.670   7.985 -0.2193  0.2550  0.4184
 1516TIP3    H126183   4.947   6.686   8.013 -0.9719 -2.3161 -0.3068
 1516TIP3    H226184   5.047   6.722   7.904 -1.0006  0.6341  0.5628
 1517TIP3   OH226185   1.689   6.437   2.805  0.4703  0.5413 -0.0613
 1517TIP3    H126186   1.652   6.370   2.747  1.3811  0.3082 -0.3871
 1517TIP3    H226187   1.749   6.487   2.749 -0.4870  1.9032  0.0646
 1518TIP3   OH226188   3.702   0.241   8.407  0.9062 -0.0838 -0.2629
 1518TIP3    H126189   3.709   0.147   8.389 -0.1398 -0.1925 -0.1499
 1518TIP3    H226190   3.644   0.275   8.339  0.9631  0.4096 -0.0703
 1519TIP3   OH226191   2.159   3.959   0.500  0.0035  0.0051 -0.4157
 1519TIP3    H126192   2.240   3.960   0.552  0.6784 -0.7799 -1.4216
 1519TIP3    H226193   2.107   4.031   0.536  1.2779  0.7334  0.0295
 1520TIP3   OH226194   2.398   2.472   2.100 -0.3081 -0.0479  0.3399
 1520TIP3    H126195   2.309   2.447   2.074 -0.0362  1.2409 -2.1087
 1520TIP3    H226196   2.386   2.526   2.178 -1.5581 -0.8451  0.7329
 1521TIP3   OH226197   1.589   5.824   2.034 -0.1916  0.8675  0.8594
 1521TIP3    H126198   1.494   5.827   2.025 -0.4070 -2.5511  0.5509
 1521TIP3    H226199   1.603   5.805   2.126 -0.3198 -4.2987  0.1018
 1522TIP3   OH226200   2.059   1.350   8.420 -0.3206 -0.0155 -0.1804
 1522TIP3    H126201   1.976   1.317   8.385  0.2914 -0.4027 -1.3098
 1522TIP3    H226202   2.116   1.273   8.422 -0.2840  0.0077  1.6210
 1523TIP3   OH226203   1.628   2.131   1.391 -0.8474  0.1770  0.1910
 1523TIP3    H126204   1.548   2.124   1.443 -1.1467 -0.1008 -0.2915
 1523TIP3    H226205   1.623   2.217   1.350 -1.4718 -0.2806 -0.7346
 1524TIP3   OH226206   4.409   5.890   0.522  0.0474  0.0221 -0.0681
 1524TIP3    H126207   4.422   5.982   0.544  0.0121  0.1978 -0.7671
 1524TIP3    H226208   4.324   5.887   0.478  0.4470 -0.1926 -0.8544
 1525TIP3   OH226209   2.834   5.517   2.057 -0.5895 -0.0995  0.2155
 1525TIP3    H126210   2.758   5.556   2.098 -1.4385 -0.7266 -0.7050
 1525TIP3    H226211   2.842   5.430   2.098 -0.9748 -0.4242 -0.3945
 1526TIP3   OH226212   0.923   5.533   8.266  0.0606 -0.2863  0.3016
 1526TIP3    H126213   0.851   5.494   8.317  0.3235 -0.6795  0.3715
 1526TIP3    H226214   0.956   5.461   8.212  0.7711 -0.2450  0.6791
 1527TIP3   OH226215   0.444   6.051   8.041 -0.2511  0.1114  0.1065
 1527TIP3    H126216   0.523   6.104   8.038  1.4577 -2.2702 -2.8008
 1527TIP3    H226217   0.457   5.993   8.116  1.1109 -0.6368 -0.6675
 1528TIP3   OH226218   6.658   5.834   0.680  0.4595 -0.7706 -0.5674
 1528TIP3    H126219   6.716   5.910   0.672 -0.8007  0.3683  0.5583
 1528TIP3    H226220   6.677   5.799   0.767  0.2530 -1.0861 -0.6483
 1529TIP3   OH226221   0.517   6.787   0.009  0.3777 -0.4068 -0.3492
 1529TIP3    H126222   0.524   6.692   0.011  1.0542 -0.4050 -1.4421
 1529TIP3    H226223   0.462   6.809   0.084  0.2809 -1.6463 -0.0327
 1530TIP3   OH226224   2.679   5.588   0.035  0.2033  0.3444 -0.6592
 1530TIP3    H126225   2.641   5.669   0.000  1.8157  2.0097  1.2164
 1530TIP3    H226226   2.772   5.606   0.041  0.5944 -1.6477 -0.0501
 1531TIP3   OH226227   3.161   5.086   7.268 -0.3192 -0.4774 -0.0439
 1531TIP3    H126228   3.169   5.013   7.206  0.5365 -0.9547  0.5949
 1531TIP3    H226229   3.073   5.121   7.253  0.3300  0.2905 -2.4506
 1532TIP3   OH226230   0.191   5.224   7.931  0.2313 -0.2544 -0.7291
 1532TIP3    H126231   0.120   5.245   7.992  1.8360  2.7018  0.3100
 1532TIP3    H226232   0.242   5.156   7.976  2.2793  2.9119  2.2346
 1533TIP3   OH226233   5.360   5.098   0.327  0.5906  0.1382  0.2130
 1533TIP3    H126234   5.315   5.025   0.284  0.0493 -0.1595  1.2703
 1533TIP3    H226235   5.440   5.109   0.275 -0.2315  0.0755 -1.1342
 1534TIP3   OH226236   5.655   0.865   8.582 -0.4046  0.1503 -0.5430
 1534TIP3    H126237   5.579   0.918   8.607  0.1624  1.4918 -1.5227
 1534TIP3    H226238   5.637   0.779   8.618 -1.3568  1.0121  1.1704
 1535TIP3   OH226239   2.370   2.133   7.296 -0.6805  0.0006  0.6000
 1535TIP3    H126240   2.352   2.197   7.365  1.4801 -0.2493  1.4906
 1535TIP3    H226241   2.326   2.168   7.218  0.6564  2.7602  0.9692
 1536TIP3   OH226242   1.108   3.280   8.127  0.2970  0.3910 -0.3800
 1536TIP3    H126243   1.134   3.265   8.217 -0.8374  0.6049 -0.0028
 1536TIP3    H226244   1.108   3.375   8.116  0.2250  0.3736 -0.5465
 1537TIP3   OH226245   0.152   4.543   1.970  0.3168 -0.0119  0.2979
 1537TIP3    H126246   0.218   4.609   1.948  1.1604 -1.3649 -1.4501
 1537TIP3    H226247   0.069   4.588   1.956  0.7998  1.5261  1.9179
 1538TIP3   OH226248   2.647   1.140   7.151 -0.0959  0.4877 -0.1125
 1538TIP3    H126249   2.669   1.113   7.240 -2.7641  1.7217  1.0616
 1538TIP3    H226250   2.583   1.075   7.122 -0.3502  0.9048 -0.5021
 1539TIP3   OH226251   3.073   4.371   1.998 -0.3954  0.3742 -0.4561
 1539TIP3    H126252   3.017   4.332   1.932 -0.0340  0.5523 -0.8713
 1539TIP3    H226253   3.142   4.415   1.949 -0.8988  1.7233 -0.0058
 1540TIP3   OH226254   5.404   3.626   6.848  0.0516 -0.8229 -0.1372
 1540TIP3    H126255   5.403   3.675   6.766  2.0716  0.5135  0.5432
 1540TIP3    H226256   5.454   3.547   6.829  0.2814 -0.6452 -0.2820
 1541TIP3   OH226257   3.809   1.168   1.006 -0.4011 -0.4303 -0.0977
 1541TIP3    H126258   3.734   1.189   1.061  0.9301 -0.6416  1.8799
 1541TIP3    H226259   3.783   1.088   0.960 -2.7566  1.4470 -2.3274
 1542TIP3   OH226260   2.535   1.428   1.936  0.6596  0.1335  0.8587
 1542TIP3    H126261   2.443   1.454   1.935  0.8364  0.8191  1.6169
 1542TIP3    H226262   2.548   1.384   1.852 -0.1425  0.7949  0.3686
 1543TIP3   OH226263   6.757   2.299   7.681  0.0290 -0.1491  0.0001
 1543TIP3    H126264   6.786   2.208   7.675  2.5885  0.5373  0.4692
 1543TIP3    H226265   6.690   2.308   7.614  0.3802 -2.1568 -0.6798
 1544TIP3   OH226266   1.404   1.310   0.677 -0.3068  0.9539 -0.3189
 1544TIP3    H126267   1.415   1.314   0.582  0.1404  0.8973 -0.2721
 1544TIP3    H226268   1.450   1.231   0.704 -1.0296  0.5971 -0.1318
 1545TIP3   OH226269   3.563   2.504   6.491  0.2545 -0.3540 -0.3675
 1545TIP3    H126270   3.654   2.505   6.522 -0.1277  0.7155  0.7911
 1545TIP3    H226271   3.568   2.534   6.401  0.8105  2.6188  0.5526
 1546TIP3   OH226272   4.171   2.448   6.456 -0.1179  0.1593 -0.8766
 1546TIP3    H126273   4.078   2.434   6.471  0.1514 -0.8624  0.1055
 1546TIP3    H226274   4.213   2.375   6.503  1.2659  1.8040  0.5867
 1547TIP3   OH226275   5.058   5.962   1.248 -0.7301 -0.7265  0.3291
 1547TIP3    H126276   4.967   5.938   1.267 -2.4621  3.5990 -1.1009
 1547TIP3    H226277   5.071   5.938   1.157 -1.1353  0.2373  0.0039
 1548TIP3   OH226278   4.013   5.380   8.360  0.4661 -0.2386  0.3307
 1548TIP3    H126279   4.049   5.334   8.436 -2.0673 -1.5880  0.8202
 1548TIP3    H226280   4.032   5.472   8.378 -0.5149 -0.4520  2.9293
 1549TIP3   OH226281   0.104   0.849   6.488  0.0848  0.3619 -0.1345
 1549TIP3    H126282   0.169   0.868   6.556 -1.5853 -0.2645  1.7045
 1549TIP3    H226283   0.122   0.759   6.462  0.8920  0.6878 -0.7712
 1550TIP3   OH226284   5.567   5.908   1.760 -0.2729 -0.2017 -0.3067
 1550TIP3    H126285   5.658   5.902   1.733 -0.1997 -0.9993  0.0921
 1550TIP3    H226286   5.537   5.993   1.727  0.8482  0.4230  0.2605
 1551TIP3   OH226287   1.286   3.495   7.099 -0.0574 -0.1298  0.2100
 1551TIP3    H126288   1.347   3.568   7.089  0.3511 -0.5602 -0.5606
 1551TIP3    H226289   1.225   3.523   7.167  0.1918  0.8584  0.0321
 1552TIP3   OH226290   4.753   1.046   0.127  0.0880 -0.8315 -0.0393
 1552TIP3    H126291   4.688   1.111   0.100  0.1646 -1.0598 -0.7980
 1552TIP3    H226292   4.755   1.052   0.222  0.2655  0.4464 -0.1031
 1553TIP3   OH226293   3.532   0.884   1.210  0.6620  0.1546  0.3299
 1553TIP3    H126294   3.593   0.946   1.250  0.5462  0.2404  0.3740
 1553TIP3    H226295   3.469   0.864   1.278  1.1084 -0.5737  0.5446
 1554TIP3   OH226296   2.879   1.750   0.963 -0.9339  0.1257 -0.4165
 1554TIP3    H126297   2.784   1.759   0.949 -1.1917 -0.4418  0.8838
 1554TIP3    H226298   2.888   1.671   1.016  0.2684  0.2452 -0.4248
 1555TIP3   OH226299   2.784   1.424   6.949 -0.3639  0.0792  0.0548
 1555TIP3    H126300   2.760   1.348   6.897 -1.2239 -0.1476  0.7724
 1555TIP3    H226301   2.874   1.442   6.924 -0.1671 -1.1315 -0.1694
 1556TIP3   OH226302   5.331   4.251   1.178 -0.3016 -0.1186  1.0571
 1556TIP3    H126303   5.317   4.346   1.183  2.2882  0.4426 -0.4329
 1556TIP3    H226304   5.410   4.236   1.231  0.8456 -0.9593 -0.7897
 1557TIP3   OH226305   5.423   5.290   2.236 -0.6442  0.0837  0.2669
 1557TIP3    H126306   5.456   5.273   2.148  0.9115  0.5797  0.7104
 1557TIP3    H226307   5.503   5.301   2.289 -1.4647 -1.9156  2.0861
 1558TIP3   OH226308   2.223   3.172   7.611 -0.4417 -0.0732  0.1791
 1558TIP3    H126309   2.241   3.265   7.599 -1.1158  0.1781  1.0557
 1558TIP3    H226310   2.229   3.157   7.705  0.1270 -1.0279  0.0108
 1559TIP3   OH226311   0.721   3.611   0.695 -0.1826 -0.5710 -0.2016
 1559TIP3    H126312   0.805   3.628   0.738 -0.8729  0.7093  0.7218
 1559TIP3    H226313   0.681   3.698   0.686 -1.5974 -1.1885 -0.2180
 1560TIP3   OH226314   5.548   0.336   0.275 -0.0125  0.1453 -0.0104
 1560TIP3    H126315   5.487   0.325   0.202 -0.3187  0.4623  0.1911
 1560TIP3    H226316   5.547   0.252   0.321  0.5383 -0.2095 -0.6370
 1561TIP3   OH226317   4.831   5.894   1.377  0.1252  0.6671  0.8603
 1561TIP3    H126318   4.766   5.825   1.368 -0.3681  1.1299  0.8242
 1561TIP3    H226319   4.788   5.961   1.429  1.0419  0.4053  1.9951
 1562TIP3   OH226320   5.671   1.252   7.974 -0.2749  0.0328 -0.0379
 1562TIP3    H126321   5.693   1.252   8.068  0.1012  2.0738 -0.0740
 1562TIP3    H226322   5.668   1.160   7.950 -0.9659 -0.5730  2.1182
 1563TIP3   OH226323   2.573   6.030   7.900  0.2272 -0.6135 -0.1981
 1563TIP3    H126324   2.618   6.113   7.889  1.4319 -0.9875  1.5853
 1563TIP3    H226325   2.582   5.986   7.815  1.1974  0.2945 -0.5839
 1564TIP3   OH226326   2.167   5.392   1.223  0.3042  0.3511  0.0225
 1564TIP3    H126327   2.254   5.419   1.195  0.4397 -0.7553 -0.6745
 1564TIP3    H226328   2.121   5.371   1.141 -0.0175 -0.8179  0.4826
 1565TIP3   OH226329   5.119   4.830   8.568  0.3343 -0.2829  0.3940
 1565TIP3    H126330   5.087   4.919   8.588 -0.0994 -0.4740  0.5635
 1565TIP3    H226331   5.042   4.775   8.577  0.1671 -0.4340 -1.5190
 1566TIP3   OH226332   2.483   0.869   1.436  0.0315 -0.2410  0.7136
 1566TIP3    H126333   2.407   0.811   1.422  0.0679 -0.0500 -0.3910
 1566TIP3    H226334   2.557   0.819   1.403 -0.0843  0.8181 -1.3063
 1567TIP3   OH226335   1.866   0.349   8.460 -0.2073 -0.1730  0.2763
 1567TIP3    H126336   1.858   0.346   8.556 -0.9158  0.3460  0.2409
 1567TIP3    H226337   1.795   0.293   8.429 -1.1613  1.1234  0.0287
 1568TIP3   OH226338   2.962   0.566   0.812  0.8253  0.1140 -0.0527
 1568TIP3    H126339   2.881   0.588   0.765 -0.6108 -0.3118  2.0974
 1568TIP3    H226340   2.947   0.479   0.848  2.0520  0.2119  0.7709
 1569TIP3   OH226341   1.270   5.169   6.499  0.5551  0.1187  0.1187
 1569TIP3    H126342   1.198   5.166   6.563  0.6746  0.3442  0.2661
 1569TIP3    H226343   1.226   5.166   6.414  0.2982  1.2387  0.1878
 1570TIP3   OH226344   3.263   2.600   1.794  0.3964 -0.7231  0.2943
 1570TIP3    H126345   3.210   2.675   1.769 -0.3600 -1.7095 -1.1704
 1570TIP3    H226346   3.207   2.524   1.778  0.9141 -1.6171  2.3122
 1571TIP3   OH226347   6.396   6.861   7.630  0.0824 -0.3567  0.4898
 1571TIP3    H126348   6.396   6.765   7.634 -0.5512 -0.3072  2.4603
 1571TIP3    H226349   6.446   6.881   7.551 -0.0253 -2.3095 -0.1363
 1572TIP3   OH226350   5.990   6.355   1.853  0.2962  0.0406  0.2724
 1572TIP3    H126351   5.986   6.450   1.851 -0.6305 -0.0061 -0.8248
 1572TIP3    H226352   5.910   6.326   1.810  1.2105 -1.2314 -0.6761
 1573TIP3   OH226353   2.363   4.060   0.691 -0.0544  0.6421 -0.4195
 1573TIP3    H126354   2.434   4.014   0.736  0.8270  0.7086 -1.6752
 1573TIP3    H226355   2.316   4.106   0.760  1.0749  0.5213  0.4535
 1574TIP3   OH226356   0.781   1.663   0.100 -0.5930 -0.5715  0.1114
 1574TIP3    H126357   0.768   1.735   0.038 -1.5894 -1.4972 -0.7958
 1574TIP3    H226358   0.876   1.655   0.108 -0.4531  1.4360  0.9710
 1575TIP3   OH226359   3.320   1.772   1.824 -0.1060 -0.3845 -0.0059
 1575TIP3    H126360   3.249   1.712   1.845  0.6151 -1.8595 -1.5399
 1575TIP3    H226361   3.280   1.837   1.766 -0.1338 -1.6205 -1.4571
 1576TIP3   OH226362   3.955   6.302   7.957 -0.7350 -0.1990  0.1808
 1576TIP3    H126363   4.006   6.383   7.963 -0.9551 -0.0941  0.7315
 1576TIP3    H226364   4.018   6.232   7.978 -1.1251  0.0436  2.4708
 1577TIP3   OH226365   1.795   6.046   8.370  0.4554 -0.2339  0.1257
 1577TIP3    H126366   1.733   5.974   8.377  2.5397 -2.0052  2.5653
 1577TIP3    H226367   1.847   6.026   8.292 -2.2142  1.6590 -2.3921
 1578TIP3   OH226368   3.423   5.949   1.858  0.6315 -0.8694  0.8991
 1578TIP3    H126369   3.462   5.862   1.861  0.9595 -0.7024  1.5588
 1578TIP3    H226370   3.461   5.995   1.932 -0.2952 -0.4807  1.1514
 1579TIP3   OH226371   0.152   0.139   1.462  0.2862  0.6863 -0.2280
 1579TIP3    H126372   0.071   0.090   1.475 -0.2808  0.4529 -3.7623
 1579TIP3    H226373   0.222   0.075   1.473 -0.1433  0.3185  0.3898
 1580TIP3   OH226374   2.251   3.239   7.244  0.4710 -0.0057  0.0558
 1580TIP3    H126375   2.233   3.286   7.326 -0.6163  0.4694 -0.4316
 1580TIP3    H226376   2.213   3.153   7.258 -0.4085  0.3285 -0.2202
 1581TIP3   OH226377   4.632   3.706   0.437  0.1682 -0.0786  0.3197
 1581TIP3    H126378   4.661   3.772   0.500  0.4557 -0.6335  0.7738
 1581TIP3    H226379   4.542   3.731   0.417 -1.1684 -1.7810  3.5602
 1582TIP3   OH226380   6.546   0.678   1.182  0.3775  0.8717 -0.4415
 1582TIP3    H126381   6.538   0.596   1.134 -2.7498  0.5285  0.4341
 1582TIP3    H226382   6.546   0.653   1.274 -1.0542  1.7963 -0.1443
 1583TIP3   OH226383   2.050   5.781   8.609 -0.1535 -0.3018 -0.0761
 1583TIP3    H126384   1.962   5.753   8.585 -0.2934  0.9571 -1.1571
 1583TIP3    H226385   2.080   5.833   8.534  1.0640  0.2286  0.7450
 1584TIP3   OH226386   1.669   2.658   8.505 -0.1775  0.1971 -0.3893
 1584TIP3    H126387   1.677   2.574   8.551 -0.4363  0.8922  0.9653
 1584TIP3    H226388   1.580   2.688   8.526 -0.3622  0.4582 -1.4955
 1585TIP3   OH226389   2.134   2.113   7.032  0.1069 -0.7865 -0.2951
 1585TIP3    H126390   2.137   2.050   6.961  1.9557  0.1112 -1.0862
 1585TIP3    H226391   2.121   2.197   6.989 -0.6996 -0.4322  0.6039
 1586TIP3   OH226392   4.652   6.048   2.293 -0.6442  0.8085  0.1646
 1586TIP3    H126393   4.636   6.132   2.250 -1.1014  0.3505 -0.5829
 1586TIP3    H226394   4.734   6.017   2.253 -1.1353  0.3245 -0.4879
 1587TIP3   OH226395   6.454   0.223   6.381 -0.2612  0.2837  0.0504
 1587TIP3    H126396   6.416   0.136   6.371 -0.8710  0.6735 -1.2454
 1587TIP3    H226397   6.488   0.225   6.471 -0.5515 -1.1531  0.2074
 1588TIP3   OH226398   5.496   3.681   7.281  0.3902  0.4176 -0.0385
 1588TIP3    H126399   5.491   3.728   7.364  1.6660 -0.7677  0.7603
 1588TIP3    H226400   5.406   3.682   7.247 -0.4596 -0.2312  2.0330
 1589TIP3   OH226401   6.431   5.649   6.932  0.0954 -0.5038 -0.0169
 1589TIP3    H126402   6.477   5.615   6.855 -0.9426  2.0477 -1.9075
 1589TIP3    H226403   6.353   5.692   6.896 -0.7882  0.2115  2.5489
 1590TIP3   OH226404   4.411   2.608   1.351  0.3817 -0.1023 -0.0374
 1590TIP3    H126405   4.419   2.517   1.379  1.9925  0.4280  1.4031
 1590TIP3    H226406   4.367   2.603   1.266  1.0902 -2.2680 -0.3444
 1591TIP3   OH226407   2.808   1.198   2.820  0.2074 -0.0679  0.8469
 1591TIP3    H126408   2.823   1.115   2.775  0.3827 -0.1958  1.1373
 1591TIP3    H226409   2.887   1.211   2.873  0.1830  0.2875  0.7999
 1592TIP3   OH226410   5.080   1.840   0.540 -0.3289  0.3186 -0.0296
 1592TIP3    H126411   5.172   1.834   0.514  0.0235  0.1808  1.1914
 1592TIP3    H226412   5.068   1.932   0.565  0.4415 -0.3100  3.0649
 1593TIP3   OH226413   1.383   2.928   8.047  0.0955  0.4963 -0.1228
 1593TIP3    H126414   1.408   2.982   8.122 -0.2004  0.5543 -0.0643
 1593TIP3    H226415   1.293   2.902   8.065  0.6653 -1.1799  0.5252
 1594TIP3   OH226416   6.285   5.240   8.045  0.3268  0.1361 -0.4985
 1594TIP3    H126417   6.356   5.181   8.070 -0.3180 -0.6405 -0.4771
 1594TIP3    H226418   6.310   5.325   8.082 -0.3364 -0.8193  2.4057
 1595TIP3   OH226419   3.868   4.933   7.267 -0.5605  0.4119 -0.2266
 1595TIP3    H126420   3.815   4.867   7.311  0.4665  0.3491  0.9548
 1595TIP3    H226421   3.841   5.016   7.307  1.8697  0.1741  2.2352
 1596TIP3   OH226422   2.736   0.042   1.418 -0.3939  0.0092 -0.0918
 1596TIP3    H126423   2.769   0.058   1.329 -1.0825 -1.8197 -0.7205
 1596TIP3    H226424   2.700   0.126   1.445  2.3135  1.4077 -0.4007
 1597TIP3   OH226425   3.112   6.274   0.490 -0.3702  0.2825 -0.4569
 1597TIP3    H126426   3.080   6.185   0.500 -0.2329  0.2209 -0.5620
 1597TIP3    H226427   3.167   6.271   0.412 -0.8700  0.5965 -0.8280
 1598TIP3   OH226428   2.286   1.130   0.190  0.0751  0.2460 -0.5186
 1598TIP3    H126429   2.272   1.205   0.133 -0.0491  0.3090 -0.4072
 1598TIP3    H226430   2.201   1.086   0.193  0.2856 -0.2056 -1.0139
 1599TIP3   OH226431   0.740   2.023   1.986 -0.1406 -0.0599 -0.1952
 1599TIP3    H126432   0.776   1.941   1.953  1.6960  0.5579  0.1178
 1599TIP3    H226433   0.790   2.041   2.066 -1.0961  0.9390  0.2160
 1600TIP3   OH226434   0.853   6.758   1.496  0.0319  0.0506 -0.1077
 1600TIP3    H126435   0.870   6.743   1.589 -0.1650 -1.1588 -0.2603
 1600TIP3    H226436   0.902   6.690   1.451  1.5138  1.6265 -1.0180
 1601TIP3   OH226437   3.594   6.160   1.987  0.3069  0.1936 -0.4431
 1601TIP3    H126438   3.662   6.093   1.995  0.6879  0.6000 -0.2699
 1601TIP3    H226439   3.565   6.175   2.077  0.7946  0.8475 -0.3895
 1602TIP3   OH226440   2.336   4.665   7.130  0.6103 -0.1920  0.1643
 1602TIP3    H126441   2.393   4.645   7.056  1.8888  2.3672  0.3671
 1602TIP3    H226442   2.394   4.667   7.206  0.0393  1.1578  0.5930
 1603TIP3   OH226443   4.579   0.418   0.250  0.3487  0.5146  0.3037
 1603TIP3    H126444   4.617   0.504   0.232 -0.1993  1.0833  1.6879
 1603TIP3    H226445   4.555   0.384   0.164  0.1092  1.9740 -0.2450
 1604TIP3   OH226446   1.631   1.319   8.596 -0.7106  0.3168  0.8193
 1604TIP3    H126447   1.537   1.304   8.588 -0.3663 -1.4684 -0.5717
 1604TIP3    H226448   1.650   1.387   8.531 -0.9675  0.3166  0.7433
 1605TIP3   OH226449   5.353   0.582   1.045 -0.4186  0.2745 -0.2884
 1605TIP3    H126450   5.260   0.604   1.034 -0.4684  0.0692 -0.2877
 1605TIP3    H226451   5.367   0.510   0.984  0.1054  1.2882 -1.4121
 1606TIP3   OH226452   1.309   1.621   0.438  0.1424  0.1054  0.2210
 1606TIP3    H126453   1.243   1.582   0.381  1.4396 -3.5451  0.9567
 1606TIP3    H226454   1.299   1.575   0.521  1.9939  1.2219  1.1080
 1607TIP3   OH226455   6.639   4.048   1.111  0.2158  0.7775  0.4711
 1607TIP3    H126456   6.596   3.987   1.051 -1.5409  1.2892  1.1613
 1607TIP3    H226457   6.726   4.062   1.072  0.2851 -1.3246 -0.2526
 1608TIP3   OH226458   3.003   2.737   0.850 -0.1367 -0.2536 -0.2031
 1608TIP3    H126459   2.991   2.769   0.940 -1.3583  0.5284 -0.6208
 1608TIP3    H226460   3.098   2.739   0.837  0.0479 -0.1693  0.9975
 1609TIP3   OH226461   3.224   4.565   1.864  0.7080 -0.0765  0.3190
 1609TIP3    H126462   3.146   4.619   1.853 -0.2948 -1.8350 -2.2243
 1609TIP3    H226463   3.283   4.619   1.916 -1.7704  1.7352  1.4641
 1610TIP3   OH226464   3.150   0.218   8.129  0.1297 -0.0156 -0.1573
 1610TIP3    H126465   3.199   0.143   8.162  1.0189  0.4843 -0.3038
 1610TIP3    H226466   3.211   0.292   8.137 -0.9672  0.8369  0.6499
 1611TIP3   OH226467   3.458   6.089   1.005  0.0993 -0.0883 -0.3629
 1611TIP3    H126468   3.449   6.170   1.055  0.2029 -0.2038 -0.1557
 1611TIP3    H226469   3.434   6.019   1.067  0.1264 -0.2247 -0.5048
 1612TIP3   OH226470   2.964   5.835   1.567 -0.2585 -0.1252 -0.3306
 1612TIP3    H126471   3.007   5.840   1.652 -1.5304 -0.6256  0.3729
 1612TIP3    H226472   3.035   5.825   1.504  0.7363  0.7960  0.6141
 1613TIP3   OH226473   2.212   2.088   7.781 -0.4513  0.8997 -0.1653
 1613TIP3    H126474   2.148   2.067   7.713  1.0518 -2.0609 -0.8295
 1613TIP3    H226475   2.296   2.057   7.746  1.1621  3.1567  1.3260
 1614TIP3   OH226476   0.508   5.604   7.000 -0.5743 -0.2054  0.2022
 1614TIP3    H126477   0.569   5.663   6.958 -1.0329 -0.9188 -1.5490
 1614TIP3    H226478   0.443   5.661   7.042 -0.1790  0.5212 -0.1702
 1615TIP3   OH226479   1.139   6.781   0.044  0.3030  0.1941  0.1747
 1615TIP3    H126480   1.113   6.696   0.078  0.2705  0.6148  1.2337
 1615TIP3    H226481   1.064   6.838   0.062  0.0714  0.3126 -1.0929
 1616TIP3   OH226482   3.510   1.621   2.249  0.6007  0.9306 -0.0011
 1616TIP3    H126483   3.450   1.665   2.309 -1.0678  0.4382 -1.2201
 1616TIP3    H226484   3.562   1.691   2.210 -0.3262  1.5494 -0.1362
 1617TIP3   OH226485   6.721   5.387   0.955 -0.3133 -0.2416  0.3699
 1617TIP3    H126486   6.630   5.375   0.982  0.1268 -0.6005  1.8349
 1617TIP3    H226487   6.767   5.408   1.037  1.0056 -0.6188 -0.2453
 1618TIP3   OH226488   2.185   5.966   8.424 -0.0256 -0.0356  0.1607
 1618TIP3    H126489   2.269   6.010   8.438 -0.4649  0.9325 -0.1585
 1618TIP3    H226490   2.129   6.000   8.495 -0.2906 -0.2971  0.0771
 1619TIP3   OH226491   0.380   0.624   6.796 -0.6420 -0.3055 -0.0718
 1619TIP3    H126492   0.398   0.539   6.755 -0.6942 -0.5776  0.4666
 1619TIP3    H226493   0.291   0.617   6.829 -0.5709 -0.1157  0.1618
 1620TIP3   OH226494   3.366   5.322   7.598  0.0001  0.8476  0.4333
 1620TIP3    H126495   3.327   5.403   7.562  0.4616  0.8110 -0.1667
 1620TIP3    H226496   3.453   5.349   7.628 -0.3862  0.8795  1.5671
 1621TIP3   OH226497   5.072   0.457   1.879  0.7304  0.3414 -0.1269
 1621TIP3    H126498   5.016   0.379   1.878  1.6961 -0.3567 -0.8898
 1621TIP3    H226499   5.116   0.454   1.964  0.9365 -0.0659 -0.2471
 1622TIP3   OH226500   6.753   6.087   1.004 -0.0509  0.2726  0.2409
 1622TIP3    H126501   6.759   5.991   1.000 -0.7569  0.1530  1.4138
 1622TIP3    H226502   6.765   6.116   0.914  2.3924 -0.7704  0.1629
 1623TIP3   OH226503   1.316   3.342   8.643 -0.0058  0.1451 -0.0195
 1623TIP3    H126504   1.260   3.344   8.566 -0.5784 -0.6874  0.3592
 1623TIP3    H226505   1.263   3.379   8.713  0.2677  0.2731  0.1195
 1624TIP3   OH226506   2.618   4.748   8.183  0.0520  0.1718 -0.4339
 1624TIP3    H126507   2.673   4.761   8.260  0.7440 -1.2928 -0.6405
 1624TIP3    H226508   2.614   4.834   8.141 -1.5298  1.3584  1.9513
 1625TIP3   OH226509   1.723   5.372   0.879  0.2471 -0.7390  0.0448
 1625TIP3    H126510   1.659   5.433   0.843 -0.0259 -0.7272  0.5413
 1625TIP3    H226511   1.799   5.379   0.820 -0.3993 -1.1517 -0.8562
 1626TIP3   OH226512   6.781   5.297   8.392  0.0525 -0.0912 -0.0408
 1626TIP3    H126513   6.789   5.369   8.330 -0.5652  0.2198  0.2379
 1626TIP3    H226514   6.851   5.313   8.456  0.5723 -0.3106 -0.5398
 1627TIP3   OH226515   5.990   3.779   1.457 -0.0363 -0.4115  0.0516
 1627TIP3    H126516   5.968   3.862   1.415 -0.7969 -1.3569 -1.5182
 1627TIP3    H226517   6.021   3.803   1.544 -2.2868  1.3980  0.4344
 1628TIP3   OH226518   6.013   1.922   0.329 -0.5052  0.4541  0.6472
 1628TIP3    H126519   6.093   1.955   0.370 -0.1712 -1.9591  2.1630
 1628TIP3    H226520   5.993   1.986   0.261  2.6706  1.2136  0.2400
 1629TIP3   OH226521   1.661   2.872   2.158 -0.0534  0.2979  0.3985
 1629TIP3    H126522   1.624   2.903   2.241 -1.4053 -1.6748  0.5969
 1629TIP3    H226523   1.723   2.804   2.184  0.1943  0.3037 -0.1745
 1630TIP3   OH226524   6.139   2.960   1.735  0.3538  0.4199  0.2461
 1630TIP3    H126525   6.133   2.866   1.721 -1.1743  0.6028 -0.6270
 1630TIP3    H226526   6.117   2.972   1.827 -0.1448 -0.0348  0.1903
 1631TIP3   OH226527   3.213   4.975   7.530  0.6879 -0.7264  0.3809
 1631TIP3    H126528   3.167   4.896   7.504 -1.3132  0.5088 -0.0527
 1631TIP3    H226529   3.213   5.029   7.451  1.1515  0.1013  0.9322
 1632TIP3   OH226530   1.590   6.503   0.747 -0.5978 -0.4225  0.4570
 1632TIP3    H126531   1.536   6.471   0.675 -0.8364 -0.0076  0.4477
 1632TIP3    H226532   1.659   6.438   0.756 -0.4533 -0.3789 -0.2797
 1633TIP3   OH226533   4.349   0.828   1.181 -0.2563 -0.0051  0.3070
 1633TIP3    H126534   4.370   0.759   1.119 -0.7716  0.1971 -0.0967
 1633TIP3    H226535   4.285   0.883   1.136 -1.7912 -0.6885  1.5145
 1634TIP3   OH226536   0.347   4.687   8.189 -1.0099  0.1145 -0.9156
 1634TIP3    H126537   0.255   4.712   8.183 -1.1830  0.3638  1.5487
 1634TIP3    H226538   0.393   4.771   8.196 -0.5199  0.0081 -2.5984
 1635TIP3   OH226539   3.167   6.793   7.183 -0.0101  0.6949 -0.4893
 1635TIP3    H126540   3.196   6.738   7.110 -0.2320  1.3354 -1.0696
 1635TIP3    H226541   3.212   6.876   7.169  0.6764  0.5321  0.6301
 1636TIP3   OH226542   4.090   1.558   1.214 -0.2209 -0.1827 -0.0619
 1636TIP3    H126543   4.031   1.487   1.190 -0.8351  0.5639 -0.8323
 1636TIP3    H226544   4.033   1.629   1.242  0.3406  0.2745 -0.0474
 1637TIP3   OH226545   1.001   1.210   0.150  0.1913 -0.4577 -0.1304
 1637TIP3    H126546   0.920   1.255   0.171  0.5712  0.1384  0.0704
 1637TIP3    H226547   1.009   1.217   0.055  1.3001  1.7586  0.0732
 1638TIP3   OH226548   4.545   1.296   2.335 -0.3803 -0.3751 -0.5126
 1638TIP3    H126549   4.629   1.342   2.327  0.3919 -1.5223  0.6085
 1638TIP3    H226550   4.482   1.356   2.296  0.7899  1.0150 -0.3849
 1639TIP3   OH226551   0.226   2.541   8.553 -0.2200 -0.4639  0.6874
 1639TIP3    H126552   0.228   2.633   8.580  0.7390 -0.7413  1.6109
 1639TIP3    H226553   0.140   2.510   8.580 -0.5517  0.1546  0.3724
 1640TIP3   OH226554   0.989   6.038   0.494 -0.0858 -0.4202  0.1942
 1640TIP3    H126555   0.970   6.108   0.430 -1.2329  0.1680  1.1341
 1640TIP3    H226556   0.942   6.065   0.573  1.7311 -0.8625  1.4840
 1641TIP3   OH226557   3.285   5.926   2.523  0.0547  0.0312 -0.0130
 1641TIP3    H126558   3.326   5.916   2.438 -0.8530  0.1052 -0.4719
 1641TIP3    H226559   3.306   6.015   2.551 -1.3330  0.7421 -1.0996
 1642TIP3   OH226560   1.120   3.719   7.184  0.6102  0.5512 -0.6476
 1642TIP3    H126561   1.131   3.798   7.130  0.2287  0.3944 -0.9605
 1642TIP3    H226562   1.054   3.744   7.249  1.9164  1.1208  0.5036
 1643TIP3   OH226563   4.366   1.561   0.594 -0.1320 -0.5065  0.2488
 1643TIP3    H126564   4.280   1.543   0.633 -0.1082 -0.8003  0.1694
 1643TIP3    H226565   4.347   1.587   0.504 -0.1464 -0.4272  0.2745
 1644TIP3   OH226566   4.107   6.069   7.601  0.2749 -0.0733  0.0877
 1644TIP3    H126567   4.084   6.144   7.547  1.6066  0.5523  0.3502
 1644TIP3    H226568   4.201   6.079   7.617 -0.0123 -0.4145  2.2375
 1645TIP3   OH226569   2.916   4.542   7.374 -0.1200 -0.3622 -0.4258
 1645TIP3    H126570   2.983   4.490   7.329  0.9679 -0.0050  0.7376
 1645TIP3    H226571   2.884   4.602   7.306  1.3644  0.0440 -0.8167
 1646TIP3   OH226572   0.838   3.640   7.816 -0.1669 -0.4462  0.2139
 1646TIP3    H126573   0.803   3.573   7.874 -0.4664 -0.2594  0.2504
 1646TIP3    H226574   0.777   3.644   7.743 -0.8726  0.6928  0.8407
 1647TIP3   OH226575   2.408   5.745   7.744 -0.4359  0.6975  0.0237
 1647TIP3    H126576   2.328   5.775   7.699  0.0981  1.2961 -0.5370
 1647TIP3    H226577   2.471   5.816   7.732  0.3279  0.0401  0.0780
 1648TIP3   OH226578   2.624   4.605   8.523 -0.7308  0.5385 -0.0272
 1648TIP3    H126579   2.598   4.680   8.576 -0.3554  2.1005 -1.9241
 1648TIP3    H226580   2.714   4.625   8.497 -0.1739 -1.2203  0.4726
 1649TIP3   OH226581   1.006   3.888   0.616 -0.0989 -0.2471 -0.2529
 1649TIP3    H126582   1.100   3.876   0.609 -0.0058  0.8143 -0.9603
 1649TIP3    H226583   0.989   3.891   0.710  0.6058 -0.1638 -0.1232
 1650TIP3   OH226584   0.870   1.881   6.617  0.1279 -0.1706 -0.0316
 1650TIP3    H126585   0.799   1.942   6.600  0.5203  0.1641 -0.4908
 1650TIP3    H226586   0.944   1.936   6.644  0.4361 -0.4540 -0.2915
 1651TIP3   OH226587   5.976   4.105   7.040  0.1946  0.2938  0.4554
 1651TIP3    H126588   5.916   4.177   7.024 -1.5293 -1.0661  0.5145
 1651TIP3    H226589   5.986   4.062   6.955 -0.8881 -0.9208  0.9146
 1652TIP3   OH226590   2.036   3.940   7.142 -0.0932 -0.0557 -0.1612
 1652TIP3    H126591   2.026   3.972   7.232  0.9776 -0.1962  0.0191
 1652TIP3    H226592   2.117   3.980   7.111 -0.0091 -0.6821 -0.7741
 1653TIP3   OH226593   0.903   6.901   0.165 -0.6346 -0.0253 -0.0383
 1653TIP3    H126594   0.913   6.880   0.258 -1.5634 -0.7049 -0.0680
 1653TIP3    H226595   0.839   6.837   0.133 -0.8787  0.6622 -0.9816
 1654TIP3   OH226596   0.879   2.540   7.924  0.3643 -0.1432 -0.0942
 1654TIP3    H126597   0.925   2.624   7.920  1.7735 -0.9288 -0.9794
 1654TIP3    H226598   0.805   2.551   7.863  0.3043  0.5756  0.0975
 1655TIP3   OH226599   0.957   2.823   6.693 -0.4049  0.3526  0.2032
 1655TIP3    H126600   0.949   2.918   6.695  0.2293  0.4334  2.8061
 1655TIP3    H226601   1.048   2.806   6.670 -0.6775  0.3419 -0.8907
 1656TIP3   OH226602   1.718   2.133   8.589 -0.5476  0.1608 -0.3506
 1656TIP3    H126603   1.690   2.051   8.548 -0.7405  1.1981 -2.4738
 1656TIP3    H226604   1.674   2.134   8.674 -1.2212 -1.5243 -0.6470
 1657TIP3   OH226605   5.168   0.664   2.568  0.4766 -0.3242  0.3355
 1657TIP3    H126606   5.259   0.645   2.590  0.4272 -0.9940  0.0028
 1657TIP3    H226607   5.173   0.735   2.503  0.8203 -0.9730 -0.3659
 1658TIP3   OH226608   2.448   3.039   1.986  0.0332  0.3759  0.4910
 1658TIP3    H126609   2.436   2.944   1.984 -0.1491  0.3655  1.5469
 1658TIP3    H226610   2.408   3.067   2.069 -0.8909  1.5164 -0.3039
 1659TIP3   OH226611   4.662   5.645   3.015  0.3289 -0.1751  0.1022
 1659TIP3    H126612   4.673   5.592   2.936 -2.2886 -0.9418  0.1780
 1659TIP3    H226613   4.631   5.730   2.982 -1.0078 -0.5767  0.3044
 1660TIP3   OH226614   3.034   5.275   8.232 -0.3203  0.2042  0.2816
 1660TIP3    H126615   2.997   5.336   8.296 -0.6442 -0.0244  0.3172
 1660TIP3    H226616   2.990   5.299   8.150  0.8559  1.1859 -0.0870
 1661TIP3   OH226617   6.110   5.759   1.066  0.7483 -0.3055  0.2358
 1661TIP3    H126618   6.037   5.768   1.127  1.2382  3.6672  0.4418
 1661TIP3    H226619   6.181   5.725   1.120  0.4189  0.5183  1.2183
 1662TIP3   OH226620   2.911   2.389   2.689  0.2661  0.3518 -0.2671
 1662TIP3    H126621   2.908   2.404   2.594 -0.2808  0.6187 -0.2140
 1662TIP3    H226622   2.849   2.318   2.704  0.8042 -0.1103 -0.1756
 1663TIP3   OH226623   3.741   2.548   8.160  0.4015 -0.0531  0.4684
 1663TIP3    H126624   3.740   2.544   8.255  2.2807 -1.7320  0.4937
 1663TIP3    H226625   3.823   2.592   8.138  1.8064 -2.8186 -0.3012
 1664TIP3   OH226626   2.552   3.963   0.850 -0.3092 -0.9336 -0.0629
 1664TIP3    H126627   2.614   4.024   0.812 -2.5440  2.4601  1.2662
 1664TIP3    H226628   2.603   3.916   0.917  1.1319  0.8782  0.1969
 1665TIP3   OH226629   3.295   4.370   0.111  0.2995  0.1843  0.1072
 1665TIP3    H126630   3.384   4.336   0.102 -0.1275 -0.6933 -1.2069
 1665TIP3    H226631   3.272   4.356   0.202  1.0823 -0.6952  0.1813
 1666TIP3   OH226632   0.885   0.314   0.193  0.0344  0.1295  0.1477
 1666TIP3    H126633   0.842   0.396   0.217 -2.1172 -0.9791  0.4354
 1666TIP3    H226634   0.914   0.277   0.276  0.6619  0.4139  0.0583
 1667TIP3   OH226635   4.470   5.077   2.013 -0.5660 -0.2255 -0.5714
 1667TIP3    H126636   4.415   5.040   2.082 -0.2146  1.4805  0.6890
 1667TIP3    H226637   4.454   5.171   2.017  0.4673  0.0476 -1.9487
 1668TIP3   OH226638   1.491   6.124   0.448  0.2995 -0.3312 -0.0997
 1668TIP3    H126639   1.488   6.041   0.495  0.6786 -0.8656 -0.9906
 1668TIP3    H226640   1.572   6.166   0.477  1.1600 -1.2074 -1.1310
 1669TIP3   OH226641   4.121   0.704   7.404 -0.5093  0.3605  0.0314
 1669TIP3    H126642   4.206   0.687   7.362 -0.0530  0.0606  1.0485
 1669TIP3    H226643   4.095   0.620   7.441 -1.8101  0.1693 -1.2104
 1670TIP3   OH226644   0.008   0.847   1.426  0.7866  0.5687  0.1809
 1670TIP3    H126645  -0.048   0.864   1.351 -0.6981  0.9717  1.3268
 1670TIP3    H226646   0.095   0.834   1.389  0.0259  0.3558 -1.6183
 1671TIP3   OH226647   0.959   5.517   8.559 -0.0103 -0.4605 -0.0796
 1671TIP3    H126648   1.019   5.486   8.491  0.5279 -1.5838  0.8682
 1671TIP3    H226649   1.016   5.544   8.631 -0.5318  1.6119 -0.3901
 1672TIP3   OH226650   2.184   6.033   6.532 -0.1443  0.6896 -0.7432
 1672TIP3    H126651   2.212   5.958   6.480 -1.1786  0.9863 -1.7764
 1672TIP3    H226652   2.102   6.005   6.573  0.1342  0.8174 -0.0881
 1673TIP3   OH226653   2.179   1.071   1.197 -0.0320  0.1375 -0.2498
 1673TIP3    H126654   2.270   1.043   1.184 -0.3336 -0.7525 -0.5389
 1673TIP3    H226655   2.140   1.000   1.247 -1.0010 -0.2894 -1.5588
 1674TIP3   OH226656   2.510   5.712   0.978  0.1832 -0.3072 -0.5878
 1674TIP3    H126657   2.500   5.750   1.065  2.3348 -1.9821  0.4887
 1674TIP3    H226658   2.571   5.770   0.933  1.1315 -0.8303 -0.0060
 1675TIP3   OH226659   2.434   5.279   1.982  0.0359  0.0236 -0.0269
 1675TIP3    H126660   2.442   5.193   2.024  0.8610  1.1855  2.3040
 1675TIP3    H226661   2.523   5.299   1.952  0.1457  0.6944  0.7375
 1676TIP3   OH226662   4.230   2.861   8.511  0.6151  0.3555  0.2679
 1676TIP3    H126663   4.310   2.841   8.560  0.3468 -1.5433  0.0140
 1676TIP3    H226664   4.231   2.798   8.439 -1.0846  0.3387  0.2369
 1677TIP3   OH226665   2.463   0.039   0.492 -0.0752  0.0007 -0.1112
 1677TIP3    H126666   2.483  -0.043   0.538 -0.6072  0.7134  1.4422
 1677TIP3    H226667   2.431   0.010   0.406  0.4589 -1.3898  0.1224
 1678TIP3   OH226668   1.798   5.127   1.522  0.2374 -0.0257  0.0344
 1678TIP3    H126669   1.860   5.159   1.588 -0.1876 -0.1716  0.5087
 1678TIP3    H226670   1.817   5.178   1.444  0.6948  0.2025  0.2925
 1679TIP3   OH226671   2.364   1.788   7.112  0.1231  0.1206 -0.0058
 1679TIP3    H126672   2.285   1.796   7.058  1.4749  3.2161 -1.8110
 1679TIP3    H226673   2.415   1.720   7.070 -0.3413  0.0959 -0.5417
 1680TIP3   OH226674   4.026   0.256   8.069 -0.3319  0.1970  0.5449
 1680TIP3    H126675   4.042   0.268   8.163 -2.4000 -0.3890  1.0337
 1680TIP3    H226676   3.933   0.277   8.058 -0.2834 -0.3702 -1.2646
 1681TIP3   OH226677   0.837   4.606   1.519 -0.7547  0.7955 -0.0588
 1681TIP3    H126678   0.805   4.531   1.469  0.6951  0.5958 -0.7159
 1681TIP3    H226679   0.913   4.638   1.471 -0.4960  1.8229  0.9668
 1682TIP3   OH226680   2.998   6.079   7.740 -0.3265 -0.1893 -0.0076
 1682TIP3    H126681   2.998   5.994   7.696  0.0182 -0.2128  0.0314
 1682TIP3    H226682   2.983   6.143   7.670 -1.7019 -0.3531  0.1260
 1683TIP3   OH226683   6.224   3.294   0.958  0.5436 -0.5145  0.2056
 1683TIP3    H126684   6.293   3.308   1.023 -0.4556 -0.0040  1.1934
 1683TIP3    H226685   6.218   3.378   0.912 -0.8857  0.2057  1.6139
 1684TIP3   OH226686   6.816   1.355   0.617  0.1172 -0.0798  0.5003
 1684TIP3    H126687   6.759   1.328   0.545  0.5768 -1.4509  0.6195
 1684TIP3    H226688   6.760   1.410   0.672 -0.6489 -0.1754 -0.1571
 1685TIP3   OH226689   3.996   4.410   1.438  0.6573 -0.0979  0.3234
 1685TIP3    H126690   4.042   4.356   1.373 -1.0972 -1.4280  0.1230
 1685TIP3    H226691   3.905   4.380   1.434 -0.3343  2.6540  0.4759
 1686TIP3   OH226692   6.561   1.617   1.457  0.4209 -0.4884  0.2346
 1686TIP3    H126693   6.636   1.571   1.494  2.4815  2.1841 -0.3377
 1686TIP3    H226694   6.566   1.599   1.363  0.1216 -0.5904  0.2373
 1687TIP3   OH226695   4.860   5.857   0.244 -0.4209 -0.1143  0.1307
 1687TIP3    H126696   4.902   5.778   0.209 -1.5853  0.1820 -2.0955
 1687TIP3    H226697   4.834   5.833   0.333  1.1617 -1.4965  0.2696
 1688TIP3   OH226698   4.349   5.071   0.580 -0.0894  0.5047  0.0167
 1688TIP3    H126699   4.260   5.100   0.558 -0.6979 -1.5698 -0.4880
 1688TIP3    H226700   4.336   4.996   0.638  1.3463  0.3436  0.1644
 1689TIP3   OH226701   3.227   2.611   7.519 -0.2718 -0.1899  0.2937
 1689TIP3    H126702   3.208   2.682   7.459  0.4859 -1.1130 -1.0881
 1689TIP3    H226703   3.143   2.591   7.561 -0.4210  1.7035  0.9714
 1690TIP3   OH226704   2.948   4.168   2.416 -0.4130  0.6900  0.4099
 1690TIP3    H126705   2.855   4.184   2.398 -0.9680 -0.3530  2.0754
 1690TIP3    H226706   2.951   4.076   2.443  1.0569  0.8132  0.7289
 1691TIP3   OH226707   4.936   2.633   6.754 -0.1977  0.8743 -0.1863
 1691TIP3    H126708   4.909   2.550   6.791 -1.5793  1.1537 -0.5378
 1691TIP3    H226709   4.880   2.646   6.678  1.6887  0.9460 -1.6578
 1692TIP3   OH226710   1.384   2.142   6.433 -0.6956  0.4695  0.1259
 1692TIP3    H126711   1.310   2.184   6.389 -1.2771 -1.1589 -0.5034
 1692TIP3    H226712   1.448   2.126   6.363 -0.8015 -0.3624  0.2107
 1693TIP3   OH226713   1.050   0.126   1.807 -0.2712 -0.2270 -0.1045
 1693TIP3    H126714   0.967   0.121   1.854 -0.6809 -3.0785 -0.9519
 1693TIP3    H226715   1.025   0.137   1.715  0.4160  1.3787 -0.1395
 1694TIP3   OH226716   5.758   5.617   0.886 -0.2212  0.1655  0.0436
 1694TIP3    H126717   5.782   5.529   0.915  1.2475  0.4836 -0.1347
 1694TIP3    H226718   5.840   5.655   0.853 -0.8914  1.4848 -0.1785
 1695TIP3   OH226719   3.717   0.756   7.840  0.1882  0.1052 -0.0381
 1695TIP3    H126720   3.770   0.803   7.905 -0.5852  1.4181 -0.3128
 1695TIP3    H226721   3.717   0.814   7.763 -3.0625  1.0873  0.5351
 1696TIP3   OH226722   0.511   3.587   8.268  0.4033  0.2717 -0.2357
 1696TIP3    H126723   0.503   3.647   8.194  0.5837  1.2701  0.5363
 1696TIP3    H226724   0.598   3.605   8.304 -0.5990  1.5696  1.7026
 1697TIP3   OH226725   1.442   0.322   0.797 -0.0878 -0.3926 -0.3675
 1697TIP3    H126726   1.383   0.312   0.722  0.1614  1.1366 -0.8033
 1697TIP3    H226727   1.391   0.290   0.871 -0.9172 -0.4978 -0.9586
 1698TIP3   OH226728   4.350   2.211   8.558 -0.6288  0.0372  0.4349
 1698TIP3    H126729   4.358   2.299   8.594 -1.5258  1.0457 -1.6548
 1698TIP3    H226730   4.335   2.155   8.634  2.8436  1.1897  2.1656
 1699TIP3   OH226731   3.057   6.324   1.248  0.0013  0.1804  0.0049
 1699TIP3    H126732   3.104   6.357   1.171  2.0958 -0.7519  0.8253
 1699TIP3    H226733   3.100   6.242   1.270 -2.7561 -1.3377  0.1842
 1700TIP3   OH226734   4.309   6.435   7.534  0.0573 -0.4659 -0.6277
 1700TIP3    H126735   4.297   6.484   7.615  0.3240 -0.4004 -0.6278
 1700TIP3    H226736   4.365   6.490   7.480 -0.9000 -0.0691 -1.2447
 1701TIP3   OH226737   4.547   4.321   0.537  0.5073  0.0827 -0.0219
 1701TIP3    H126738   4.573   4.285   0.452  0.4406  0.7652 -0.3347
 1701TIP3    H226739   4.610   4.390   0.554  0.1779  0.3263  0.2136
 1702TIP3   OH226740   5.198   0.095   2.537  0.3341 -0.1342  0.3954
 1702TIP3    H126741   5.268   0.144   2.492 -0.9843 -0.5940 -2.4037
 1702TIP3    H226742   5.233   0.007   2.546  0.5335 -0.1032 -0.0320
 1703TIP3   OH226743   0.213   4.446   8.073  0.3969 -0.1339 -0.7971
 1703TIP3    H126744   0.247   4.523   8.118 -0.6277 -0.2292  0.1702
 1703TIP3    H226745   0.262   4.444   7.991  1.2068  0.9252 -0.3749
 1704TIP3   OH226746   0.008   3.238   1.017  0.8028 -0.1429 -0.0703
 1704TIP3    H126747   0.050   3.278   0.941  1.7396  0.0880  0.5514
 1704TIP3    H226748   0.054   3.275   1.092  0.9138 -1.5011  0.5635
 1705TIP3   OH226749   6.468   6.232   6.998 -0.4107  0.4147 -0.0557
 1705TIP3    H126750   6.480   6.148   6.952 -1.1738 -0.4905  1.3208
 1705TIP3    H226751   6.426   6.289   6.934 -0.4557 -0.4616 -0.8202
 1706TIP3   OH226752   3.523   4.667   0.169 -0.2502 -0.0164 -0.0883
 1706TIP3    H126753   3.567   4.617   0.100  0.1419 -0.2858  0.3545
 1706TIP3    H226754   3.511   4.754   0.132 -1.0763 -0.4624 -0.9284
 1707TIP3   OH226755   5.979   0.694   7.411 -0.0812 -0.1910 -0.0572
 1707TIP3    H126756   6.052   0.727   7.360  1.1217 -1.0500  1.0519
 1707TIP3    H226757   5.921   0.653   7.347  0.1811  0.8434 -0.9949
 1708TIP3   OH226758   2.798   2.065   7.612  0.2437 -0.9081 -0.4147
 1708TIP3    H126759   2.718   2.070   7.559  0.8175  1.3673 -1.1618
 1708TIP3    H226760   2.768   2.082   7.701 -0.0401  0.7233 -0.7967
 1709TIP3   OH226761   0.324   3.527   1.287 -0.1344  0.2834  0.1513
 1709TIP3    H126762   0.360   3.449   1.327  1.4292  1.3025  0.8095
 1709TIP3    H226763   0.372   3.537   1.205 -1.4913 -0.3335 -0.7594
 1710TIP3   OH226764   5.212   5.178   2.697 -0.8274  0.1809  0.5811
 1710TIP3    H126765   5.244   5.268   2.687  2.9767 -0.8090  2.3228
 1710TIP3    H226766   5.151   5.183   2.771  0.9273  1.0723  2.0383
 1711TIP3   OH226767   3.053   3.043   0.513  0.2289  0.2183  0.2034
 1711TIP3    H126768   3.076   2.953   0.537  3.7175  0.8856 -0.1580
 1711TIP3    H226769   2.982   3.032   0.449 -0.8816 -2.1237  1.7021
 1712TIP3   OH226770   6.792   5.373   7.761  0.0496  0.0947  0.4689
 1712TIP3    H126771   6.731   5.416   7.820  1.7407  0.5178  2.0131
 1712TIP3    H226772   6.833   5.444   7.711  0.6116  0.0068  0.7916
 1713TIP3   OH226773   4.773   1.895   0.606 -0.0589  0.7841  0.5340
 1713TIP3    H126774   4.846   1.954   0.625 -0.3239  1.2554  0.1173
 1713TIP3    H226775   4.695   1.947   0.626 -0.2800 -0.0378  1.9224
 1714TIP3   OH226776   0.318   3.439   0.414 -0.1383  0.3199 -0.1087
 1714TIP3    H126777   0.333   3.515   0.358 -2.8732  0.9142 -0.1606
 1714TIP3    H226778   0.223   3.430   0.417  0.0651 -2.2049  1.1316
 1715TIP3   OH226779   6.707   3.074   7.110 -0.0265  0.2585  0.7538
 1715TIP3    H126780   6.732   3.138   7.044 -0.8205  1.1266  1.2720
 1715TIP3    H226781   6.612   3.068   7.103  0.0316 -0.8405  0.7411
 1716TIP3   OH226782   2.689   1.122   1.898  0.0498  0.1950  0.2432
 1716TIP3    H126783   2.719   1.142   1.809 -0.7633  0.6306  0.0518
 1716TIP3    H226784   2.755   1.061   1.932  0.9774  0.8871 -0.2506
 1717TIP3   OH226785   6.481   4.217   2.274 -0.1288 -0.0103  0.3146
 1717TIP3    H126786   6.536   4.236   2.351  0.1425 -1.1210  0.4270
 1717TIP3    H226787   6.534   4.155   2.223 -1.3440 -1.2565  0.5168
 1718TIP3   OH226788   3.251   3.001   7.530  0.5744 -0.6970 -0.0380
 1718TIP3    H126789   3.202   3.059   7.471  2.6009  0.1385 -1.0263
 1718TIP3    H226790   3.264   2.921   7.480 -0.5586 -1.3117  0.5994
 1719TIP3   OH226791   4.886   1.360   0.311 -0.1824  0.5094  0.0123
 1719TIP3    H126792   4.926   1.320   0.234  0.8475  1.7834 -0.1347
 1719TIP3    H226793   4.834   1.289   0.350  0.7314 -0.6643 -0.8260
 1720TIP3   OH226794   0.674   5.826   6.499  0.3303 -0.3560  0.0537
 1720TIP3    H126795   0.591   5.848   6.541 -0.4571 -2.1056 -0.4918
 1720TIP3    H226796   0.714   5.911   6.480 -1.8043  0.5912 -0.5861
 1721TIP3   OH226797   0.244   1.306   6.501 -0.0157  0.2714 -0.0760
 1721TIP3    H126798   0.318   1.365   6.489  0.2201 -0.0366 -0.1515
 1721TIP3    H226799   0.283   1.220   6.513 -0.2848  0.3665  1.7683
 1722TIP3   OH226800   0.141   2.493   0.693 -0.0756 -0.3446  0.0147
 1722TIP3    H126801   0.232   2.471   0.674 -0.1678  0.8370 -2.0827
 1722TIP3    H226802   0.145   2.585   0.721 -0.2975 -1.2149  3.3346
 1723TIP3   OH226803   0.322   2.595   2.235 -0.1874 -0.3786 -0.4093
 1723TIP3    H126804   0.238   2.574   2.277  0.5034  1.7226  2.3470
 1723TIP3    H226805   0.387   2.550   2.289  0.6060  0.1926 -0.8746
 1724TIP3   OH226806   5.839   4.487   1.181 -0.2465  0.2397 -0.3307
 1724TIP3    H126807   5.828   4.427   1.108 -0.2546 -1.4735  1.0280
 1724TIP3    H226808   5.902   4.552   1.148 -0.0176 -0.6440 -1.7522
 1725TIP3   OH226809   2.980   6.557   6.985 -0.4723  0.1313 -0.2723
 1725TIP3    H126810   3.047   6.492   6.963  0.6689  1.5899 -1.2820
 1725TIP3    H226811   2.980   6.618   6.911 -1.6491  1.1940  0.5524
 1726TIP3   OH226812   3.577   3.275   8.591  0.2356 -0.5722 -0.3233
 1726TIP3    H126813   3.602   3.312   8.676  0.2019 -3.3732  1.0172
 1726TIP3    H226814   3.481   3.279   8.591  0.2158 -0.9372 -0.0192
 1727TIP3   OH226815   0.324   3.284   1.437 -0.3566 -0.5409  0.7145
 1727TIP3    H126816   0.378   3.206   1.451 -0.8631 -0.9209  0.5896
 1727TIP3    H226817   0.331   3.333   1.519 -0.2608 -0.8638  0.9030
 1728TIP3   OH226818   6.305   6.308   1.567  0.5447  0.0838  0.0567
 1728TIP3    H126819   6.309   6.398   1.537  0.1590  0.0913  0.0210
 1728TIP3    H226820   6.268   6.259   1.494  0.5620 -0.0689  0.1477
 1729TIP3   OH226821   0.214   3.760   7.768 -0.5850 -0.5250  0.3686
 1729TIP3    H126822   0.135   3.745   7.716  0.3453  0.4638 -1.4590
 1729TIP3    H226823   0.277   3.696   7.734 -0.0975 -0.1892  0.6246
 1730TIP3   OH226824   6.351   3.687   8.610 -0.1796 -0.0453  0.1127
 1730TIP3    H126825   6.259   3.710   8.626 -0.5693  0.8671 -2.7583
 1730TIP3    H226826   6.384   3.657   8.694 -2.7082  0.9897  1.5697
 1731TIP3   OH226827   6.641   3.723   0.450  0.1064  0.0768 -0.3111
 1731TIP3    H126828   6.664   3.784   0.520 -1.7282  0.9587 -0.4262
 1731TIP3    H226829   6.593   3.653   0.493 -1.7434  1.0303 -0.7423
 1732TIP3   OH226830   1.151   3.814   2.186  0.2222  0.2594  0.4533
 1732TIP3    H126831   1.077   3.794   2.244 -0.3972  2.7703  0.6295
 1732TIP3    H226832   1.129   3.771   2.104 -2.0134  1.7913  0.1641
 1733TIP3   OH226833   1.105   3.628   0.442 -0.0969  0.0917  0.4321
 1733TIP3    H126834   1.073   3.714   0.417 -0.6477  0.6047  2.7268
 1733TIP3    H226835   1.034   3.589   0.492  1.0052 -0.7554  1.4007
 1734TIP3   OH226836   0.231   3.424   0.008 -0.0011  0.0685  0.3922
 1734TIP3    H126837   0.305   3.367  -0.013 -0.0584 -0.2984  1.1294
 1734TIP3    H226838   0.269   3.497   0.056 -0.1535 -0.3389  1.1554
 1735TIP3   OH226839   0.165   0.007   8.592 -0.0254 -0.5739  0.1817
 1735TIP3    H126840   0.137   0.096   8.570 -1.5820 -1.1451 -0.3149
 1735TIP3    H226841   0.248  -0.004   8.546 -0.8475 -0.0756 -1.4978
 1736TIP3   OH226842   2.412   3.196   6.995  0.3446 -0.2842 -0.0456
 1736TIP3    H126843   2.358   3.198   7.074  1.7046 -0.1281  0.9200
 1736TIP3    H226844   2.351   3.212   6.924 -1.0473 -1.1121  0.8954
 1737TIP3   OH226845   4.367   0.978   8.587 -0.6407  0.6824  0.0970
 1737TIP3    H126846   4.341   0.895   8.627  1.1777  0.8993  1.8818
 1737TIP3    H226847   4.312   1.043   8.630 -0.2918  0.6666  0.5724
 1738TIP3   OH226848   0.507   0.467   8.386  0.0596 -0.7567 -0.2421
 1738TIP3    H126849   0.474   0.390   8.431  0.0320  0.6031  2.1874
 1738TIP3    H226850   0.601   0.450   8.376 -0.0389 -1.3290 -0.2230
 1739TIP3   OH226851   3.335   4.803   8.448  0.1621  0.4405 -0.3702
 1739TIP3    H126852   3.423   4.779   8.420 -0.8243 -1.1774 -2.3340
 1739TIP3    H226853   3.302   4.725   8.493 -0.8813  0.3312 -1.2700
 1740TIP3   OH226854   1.807   4.379   7.582  0.2924 -0.4326  0.1785
 1740TIP3    H126855   1.834   4.319   7.512 -0.7883  1.5965 -2.0959
 1740TIP3    H226856   1.885   4.387   7.637  1.4756 -1.4493 -1.2456
 1741TIP3   OH226857   0.187   0.581   0.474 -1.1092 -0.0048 -0.0897
 1741TIP3    H126858   0.103   0.624   0.484 -1.4688 -0.7972  0.4415
 1741TIP3    H226859   0.165   0.490   0.453 -0.3889 -0.1272 -0.3483
 1742TIP3   OH226860   4.959   1.255   8.577  0.7142 -0.3117 -0.1336
 1742TIP3    H126861   5.013   1.186   8.538 -0.7954 -1.9629  0.5786
 1742TIP3    H226862   4.981   1.254   8.670  2.1143  1.5803 -0.3781
 1743TIP3   OH226863   4.660   2.803   0.158 -0.0450  0.0819  0.1704
 1743TIP3    H126864   4.712   2.838   0.085 -0.3983  0.0554 -0.0987
 1743TIP3    H226865   4.691   2.851   0.235  0.3522  0.0905  0.0055
 1744TIP3   OH226866   1.370   5.455   8.608  0.3037  0.4662 -0.5041
 1744TIP3    H126867   1.313   5.474   8.533  1.0262  0.5392 -1.0418
 1744TIP3    H226868   1.408   5.540   8.631 -2.3080  1.1210  2.0016
 1745TIP3   OH226869   1.410   6.415   7.458 -0.0802 -0.0630  0.2377
 1745TIP3    H126870   1.427   6.508   7.443 -1.6193  0.4174  1.2060
 1745TIP3    H226871   1.475   6.389   7.523  0.6825  0.1986 -0.4106
 1746TIP3   OH226872   0.785   0.928   7.785 -0.0723  0.0709  0.3105
 1746TIP3    H126873   0.777   0.836   7.758  1.2505 -0.3137  1.1184
 1746TIP3    H226874   0.855   0.963   7.729 -0.3610  0.5094  0.2169
 1747TIP3   OH226875   3.448   4.095   1.710 -0.6271 -0.3355 -0.0202
 1747TIP3    H126876   3.353   4.091   1.719 -0.5848 -0.8646  0.2299
 1747TIP3    H226877   3.479   4.013   1.747  0.0541  0.5938  1.5451
 1748TIP3   OH226878   5.086   1.523   0.122 -0.0974  0.0438 -0.3929
 1748TIP3    H126879   5.091   1.536   0.216  1.4499 -0.9048 -0.3031
 1748TIP3    H226880   5.000   1.485   0.107 -1.6836  3.0933  0.2001
 1749TIP3   OH226881   3.817   2.473   0.981  0.0393 -0.3301  0.6158
 1749TIP3    H126882   3.858   2.414   1.043  2.0927 -2.7831 -2.7081
 1749TIP3    H226883   3.749   2.420   0.939  0.5556  0.2794 -1.0747
 1750TIP3   OH226884   2.248   5.110   0.172  0.4136  0.0769  0.1086
 1750TIP3    H126885   2.239   5.203   0.150  0.7987 -0.1443 -1.0508
 1750TIP3    H226886   2.160   5.083   0.198  0.2851  0.7514  0.3946
 1751TIP3   OH226887   6.127   5.471   0.786 -0.9231  0.2524 -0.3040
 1751TIP3    H126888   6.205   5.505   0.829 -0.0730 -1.2324 -0.6123
 1751TIP3    H226889   6.159   5.403   0.727 -2.4800 -0.5526 -0.2793
 1752TIP3   OH226890   5.917   4.546   1.889  0.1204  0.0779  0.1267
 1752TIP3    H126891   5.839   4.540   1.943  1.0971  2.1709  1.9256
 1752TIP3    H226892   5.918   4.637   1.858  1.5371 -0.0664 -0.3437
 1753TIP3   OH226893   3.203   1.669   6.416 -0.6443  0.3808 -0.5843
 1753TIP3    H126894   3.218   1.638   6.327 -0.8650  0.2802 -0.5898
 1753TIP3    H226895   3.129   1.615   6.447 -1.6386  1.5125 -0.9114
 1754TIP3   OH226896   5.283   1.851   8.242 -0.0376 -0.0135  0.5046
 1754TIP3    H126897   5.220   1.876   8.309  0.2285 -3.2197  2.1807
 1754TIP3    H226898   5.252   1.766   8.211 -0.3112  1.4255 -3.8328
 1755TIP3   OH226899   5.068   0.222   0.549  0.2119 -0.3460  0.0386
 1755TIP3    H126900   5.117   0.264   0.478  0.4562  0.0719  0.4516
 1755TIP3    H226901   4.986   0.271   0.553  1.0436  0.9899  1.4123
 1756TIP3   OH226902   1.895   4.138   2.305 -0.1644 -0.1747 -0.3318
 1756TIP3    H126903   1.873   4.046   2.317  0.8384 -0.2517  1.1342
 1756TIP3    H226904   1.884   4.177   2.392  0.7868  0.7995 -0.6275
 1757TIP3   OH226905   4.592   3.807   7.655  0.1531  0.0436  0.3431
 1757TIP3    H126906   4.668   3.824   7.600 -0.2506  0.6085 -0.0473
 1757TIP3    H226907   4.524   3.780   7.594 -0.5611  1.5094  0.4464
 1758TIP3   OH226908   1.898   3.875   0.888 -0.0539 -0.2273  0.3197
 1758TIP3    H126909   1.919   3.969   0.889  1.1540 -0.4556 -1.0560
 1758TIP3    H226910   1.971   3.835   0.842 -0.0584 -1.9987  1.7461
 1759TIP3   OH226911   4.647   3.905   0.694 -0.2569 -0.4615  0.4670
 1759TIP3    H126912   4.568   3.958   0.697  1.2500  1.9079  0.9072
 1759TIP3    H226913   4.644   3.851   0.773 -0.9326  0.3531  1.0021
 1760TIP3   OH226914   2.947   0.503   1.721 -0.5989 -0.1532  0.2657
 1760TIP3    H126915   2.941   0.507   1.625  0.0715 -0.4786  0.2068
 1760TIP3    H226916   2.931   0.592   1.750 -1.9300 -0.2567 -0.0830
 1761TIP3   OH226917   1.340   6.649   0.783  0.1819 -0.1156  0.4342
 1761TIP3    H126918   1.427   6.616   0.805 -0.1568 -1.3513 -0.0358
 1761TIP3    H226919   1.344   6.668   0.690  0.7522  2.4439  0.9045
 1762TIP3   OH226920   0.333   2.929   1.189  0.2800  0.2468  0.4480
 1762TIP3    H126921   0.244   2.952   1.163  0.0731 -0.1784  0.7870
 1762TIP3    H226922   0.333   2.933   1.284  0.0300 -1.8882  0.5800
 1763TIP3   OH226923   6.196   5.911   7.697  0.0847  0.5829  0.1808
 1763TIP3    H126924   6.188   5.975   7.768  1.9424 -0.9131  1.8645
 1763TIP3    H226925   6.108   5.875   7.688 -0.1253  0.5189  2.0695
 1764TIP3   OH226926   0.266   5.853   1.705  0.0902 -0.0811  0.1500
 1764TIP3    H126927   0.217   5.832   1.626 -1.8115  2.4888  0.5058
 1764TIP3    H226928   0.250   5.779   1.764 -0.3879 -0.9433 -1.0317
 1765TIP3   OH226929   4.324   3.457   8.470  0.3354  0.4030  0.2266
 1765TIP3    H126930   4.333   3.371   8.511  1.1230  0.8427  1.0092
 1765TIP3    H226931   4.315   3.437   8.377 -0.2265 -0.5529  0.4625
 1766TIP3   OH226932   2.610   5.484   1.790  0.2285 -0.7011  0.2011
 1766TIP3    H126933   2.696   5.507   1.754 -0.6187 -0.2156 -1.6636
 1766TIP3    H226934   2.554   5.559   1.769 -0.7442 -1.1498  1.0749
 1767TIP3   OH226935   5.449   2.664   0.919 -0.1034  0.6174  0.6525
 1767TIP3    H126936   5.402   2.582   0.909 -0.7933  1.0213  0.5131
 1767TIP3    H226937   5.409   2.723   0.855  0.5700  0.9851  0.5550
 1768TIP3   OH226938   0.545   5.856   1.872 -0.0502  0.5077 -0.1043
 1768TIP3    H126939   0.550   5.879   1.779  2.0879  1.1025  0.1173
 1768TIP3    H226940   0.536   5.761   1.873  1.9908  0.2665 -0.9300
 1769TIP3   OH226941   5.650   0.588   7.488  0.3304 -0.0087 -0.6794
 1769TIP3    H126942   5.657   0.585   7.584  1.4319  1.3953 -0.6862
 1769TIP3    H226943   5.684   0.503   7.459  0.1727 -0.3705  0.1701
 1770TIP3   OH226944   3.788   0.370   8.039 -0.4683  0.0020 -0.3729
 1770TIP3    H126945   3.729   0.353   8.112 -2.9558 -1.1869 -2.4979
 1770TIP3    H226946   3.735   0.420   7.976  1.7563  1.5148 -1.1671
 1771TIP3   OH226947   1.615   3.000   7.449  0.2461  0.3552 -0.0690
 1771TIP3    H126948   1.679   3.059   7.409  0.7135  1.0332  1.5901
 1771TIP3    H226949   1.577   3.051   7.521 -1.1823 -0.5094 -0.1855
 1772TIP3   OH226950   0.340   3.128   7.552  0.2354  0.8442 -0.4506
 1772TIP3    H126951   0.258   3.088   7.526  0.0320  1.8651 -1.4168
 1772TIP3    H226952   0.351   3.103   7.644  0.4311 -1.9132 -1.1351
 1773TIP3   OH226953   6.243   0.951   1.638  0.2044 -0.2653 -0.8926
 1773TIP3    H126954   6.173   0.886   1.644  0.5267 -0.8566 -2.8596
 1773TIP3    H226955   6.322   0.903   1.665  0.1374 -0.1271 -0.4511
 1774TIP3   OH226956   0.819   1.924   0.029 -0.5502  0.3262  0.3187
 1774TIP3    H126957   0.765   1.979   0.086 -1.8264 -0.6828  0.1386
 1774TIP3    H226958   0.879   1.985  -0.014 -0.2233  1.2350  1.9908
 1775TIP3   OH226959   2.411   1.385   2.580 -0.1281 -0.1685 -0.4039
 1775TIP3    H126960   2.507   1.382   2.578 -0.0454  1.5496 -1.6367
 1775TIP3    H226961   2.384   1.294   2.590  1.6300 -0.6331  0.4224
 1776TIP3   OH226962   3.518   5.222   0.032  0.0682 -0.0185 -0.4631
 1776TIP3    H126963   3.554   5.168   0.103  0.6389 -0.4570 -1.0689
 1776TIP3    H226964   3.528   5.167  -0.046  0.3837  0.8456 -1.0415
 1777TIP3   OH226965   4.577   6.111   7.860  0.3471 -0.0864 -0.3150
 1777TIP3    H126966   4.508   6.175   7.838  0.6044  0.6734  1.0084
 1777TIP3    H226967   4.533   6.027   7.858 -1.0176  0.5061  1.9336
 1778TIP3   OH226968   2.120   3.708   7.619  0.2404 -0.2715 -0.4920
 1778TIP3    H126969   2.039   3.745   7.654  1.1390  1.4549 -0.0959
 1778TIP3    H226970   2.184   3.779   7.629  2.7021 -2.5948  2.4217
 1779TIP3   OH226971   1.344   2.712   0.201  0.3133 -0.0194  0.7296
 1779TIP3    H126972   1.277   2.665   0.251  0.6627  0.2877  1.5159
 1779TIP3    H226973   1.370   2.785   0.258 -0.5243  1.4090 -0.6253
 1780TIP3   OH226974   2.455   3.449   2.401 -0.7476 -0.5015  0.4240
 1780TIP3    H126975   2.453   3.375   2.461 -0.8495 -2.4408 -1.8238
 1780TIP3    H226976   2.543   3.487   2.412 -0.8045 -0.7181  1.8178
 1781TIP3   OH226977   0.503   0.604   7.173 -0.2693 -0.0028  0.0271
 1781TIP3    H126978   0.478   0.694   7.151 -2.7665 -0.3003  1.2728
 1781TIP3    H226979   0.598   0.608   7.183 -0.2254  2.3426 -0.5503
 1782TIP3   OH226980   3.523   2.247   8.471 -0.8862 -0.1501 -0.5400
 1782TIP3    H126981   3.561   2.321   8.519  1.1518  0.5453 -2.9730
 1782TIP3    H226982   3.504   2.181   8.538  1.0951  1.0141  1.2718
 1783TIP3   OH226983   4.711   4.010   8.171 -0.4302  0.0596 -0.0454
 1783TIP3    H126984   4.797   4.038   8.202 -0.8792  1.9158 -0.3647
 1783TIP3    H226985   4.661   3.991   8.250  0.7350 -2.7332  0.1325
 1784TIP3   OH226986   6.165   4.966   1.434 -0.6175 -0.0321 -0.7151
 1784TIP3    H126987   6.097   4.953   1.500  0.7443  1.3589  1.0603
 1784TIP3    H226988   6.120   4.951   1.350 -3.0470  0.6779  0.3776
 1785TIP3   OH226989   1.014   1.387   7.745  0.4600  0.5364 -0.0635
 1785TIP3    H126990   0.982   1.469   7.783 -1.7146 -0.1843 -0.1962
 1785TIP3    H226991   0.970   1.381   7.660 -0.4144 -1.3406  0.4739
 1786TIP3   OH226992   6.296   1.996   0.927 -0.1563  0.3768 -0.4906
 1786TIP3    H126993   6.313   2.007   0.834  0.1665  0.3104 -0.4398
 1786TIP3    H226994   6.374   1.953   0.961  0.0875  1.1589 -0.0307
 1787TIP3   OH226995   2.685   2.883   8.153 -0.1564  0.2795  0.1518
 1787TIP3    H126996   2.675   2.953   8.216 -2.6173  0.9420 -0.8661
 1787TIP3    H226997   2.655   2.804   8.199 -2.3983  0.8354 -0.2206
 1788TIP3   OH226998   6.289   0.067   8.641  0.7135  0.8131 -0.5165
 1788TIP3    H126999   6.230   0.141   8.625  0.7517  0.6977 -1.2307
 1788TIP3    H227000   6.374   0.107   8.656  0.5649  0.9537 -0.0302
 1789TIP3   OH227001   0.677   6.003   0.413 -0.1204 -0.7269 -0.2770
 1789TIP3    H127002   0.688   6.098   0.419 -1.7869 -0.5776  0.7123
 1789TIP3    H227003   0.759   5.973   0.373 -0.2771  1.2947 -2.3450
 1790TIP3   OH227004   4.209   0.877   2.212  0.5874  0.3570 -0.0069
 1790TIP3    H127005   4.250   0.956   2.248  1.6472 -0.8142  1.4904
 1790TIP3    H227006   4.255   0.862   2.130  3.5843 -1.0668  1.7372
 1791TIP3   OH227007   4.331   3.424   8.165  0.3265  0.4763 -0.0974
 1791TIP3    H127008   4.399   3.379   8.115 -0.5276  0.1660 -1.0185
 1791TIP3    H227009   4.250   3.376   8.143 -0.1536  0.6917  1.1500
 1792TIP3   OH227010   3.676   0.114   1.746  0.6443  0.4312 -0.3538
 1792TIP3    H127011   3.673   0.047   1.677 -1.0009  1.1100 -0.9986
 1792TIP3    H227012   3.618   0.080   1.814  0.1647  0.9757 -0.4839
 1793TIP3   OH227013   1.726   0.941   1.784  0.1118  0.0754 -0.1180
 1793TIP3    H127014   1.814   0.962   1.752 -0.2666  1.0184 -0.5886
 1793TIP3    H227015   1.711   0.850   1.758  0.8924 -0.0422 -0.1612
 1794TIP3   OH227016   6.404   5.685   6.357  0.4075  0.0620  0.1234
 1794TIP3    H127017   6.378   5.611   6.413  0.7444 -0.8378 -0.8681
 1794TIP3    H227018   6.497   5.697   6.376  1.3494 -2.2587 -2.3414
 1795TIP3   OH227019   5.445   6.636   8.407  0.0369 -0.1349 -0.0272
 1795TIP3    H127020   5.528   6.589   8.411  0.5163  0.7071  0.1427
 1795TIP3    H227021   5.429   6.649   8.314  0.6653  0.6742 -0.0294
 1796TIP3   OH227022   1.537   6.659   8.242 -0.2853 -0.3964 -0.1549
 1796TIP3    H127023   1.532   6.752   8.264 -0.1873 -0.5496  0.5239
 1796TIP3    H227024   1.476   6.649   8.169  0.3972  0.3724 -0.8427
 1797TIP3   OH227025   1.063   0.282   8.110  0.1322  0.3742 -0.2408
 1797TIP3    H127026   1.098   0.271   8.198  0.6843 -2.4579 -0.7088
 1797TIP3    H227027   0.968   0.278   8.121  0.2017 -0.1554  0.2267
 1798TIP3   OH227028   3.247   2.072   2.044 -0.3223 -0.1900 -0.0545
 1798TIP3    H127029   3.286   2.130   2.110  1.1546 -0.2998 -0.8011
 1798TIP3    H227030   3.224   2.130   1.972 -0.5322 -0.2867 -0.0654
 1799TIP3   OH227031   0.760   0.279   6.603 -0.6136  0.8688 -0.2568
 1799TIP3    H127032   0.691   0.317   6.549  0.6560 -0.1242 -2.7492
 1799TIP3    H227033   0.841   0.311   6.563  0.3976 -0.0104  1.0182
 1800TIP3   OH227034   5.723   1.612   7.562  0.5624 -0.6992  0.3665
 1800TIP3    H127035   5.685   1.554   7.496 -1.7176 -0.4819  1.3674
 1800TIP3    H227036   5.772   1.554   7.620  0.1895 -1.3056  0.0869
 1801TIP3   OH227037   5.770   4.294   8.205 -0.1384  0.6035  0.1944
 1801TIP3    H127038   5.818   4.369   8.240 -0.6961  0.8226  0.5009
 1801TIP3    H227039   5.832   4.221   8.212 -0.1051  0.7155  1.3241
 1802TIP3   OH227040   6.252   6.851   1.354 -0.0035  0.1640  0.1955
 1802TIP3    H127041   6.182   6.889   1.407  0.7967  0.7270  0.8652
 1802TIP3    H227042   6.331   6.860   1.407  0.8236  0.7282 -1.0740
 1803TIP3   OH227043   2.939   3.362   2.143  0.0081 -0.2443 -0.2522
 1803TIP3    H127044   2.860   3.352   2.196 -0.3085 -0.6964 -0.7955
 1803TIP3    H227045   2.934   3.451   2.109  1.1431  0.7086  1.9198
 1804TIP3   OH227046   1.295   3.227   0.874  0.3744 -0.5232  0.9010
 1804TIP3    H127047   1.229   3.295   0.889  0.1443 -0.4411 -0.3827
 1804TIP3    H227048   1.377   3.267   0.904  0.7272  1.4006 -2.1618
 1805TIP3   OH227049   2.645   3.750   1.013 -0.2663 -0.2399 -0.0641
 1805TIP3    H127050   2.614   3.693   1.083 -1.1813  0.1226 -0.1593
 1805TIP3    H227051   2.697   3.692   0.956  0.0635 -0.6429  0.6280
 1806TIP3   OH227052   6.199   1.919   0.058  0.6685 -0.2687 -0.3533
 1806TIP3    H127053   6.204   1.880   0.145 -1.2862  0.5928  0.2119
 1806TIP3    H227054   6.202   2.014   0.075 -0.4185 -0.0783 -1.1242
 1807TIP3   OH227055   0.796   2.917   0.509  0.0706  0.3777 -0.6402
 1807TIP3    H127056   0.750   2.844   0.550  0.4153  1.6345  2.1890
 1807TIP3    H227057   0.880   2.879   0.482 -0.8317 -0.8846 -1.8400
 1808TIP3   OH227058   1.322   5.903   1.841  0.5830  1.1967  0.5127
 1808TIP3    H127059   1.244   5.912   1.787  0.9821 -0.3748 -0.4207
 1808TIP3    H227060   1.385   5.858   1.784  1.0783 -0.4192  2.2337
 1809TIP3   OH227061   6.622   5.579   7.815 -0.2282 -0.3811 -0.0446
 1809TIP3    H127062   6.530   5.607   7.820  0.0862  0.5165  1.1561
 1809TIP3    H227063   6.667   5.650   7.770  0.0494 -0.3456  0.2840
 1810TIP3   OH227064   0.055   5.231   7.287  0.2509 -0.4423  0.3801
 1810TIP3    H127065   0.103   5.314   7.294  1.2248 -1.0082  0.5870
 1810TIP3    H227066   0.005   5.225   7.368 -1.3880  0.8760 -0.4856
 1811TIP3   OH227067   4.447   0.738   0.254 -0.0549 -0.3657  0.6736
 1811TIP3    H127068   4.384   0.666   0.256 -0.5286 -0.1275 -1.7988
 1811TIP3    H227069   4.467   0.748   0.161 -0.5461  3.1323  0.8308
 1812TIP3   OH227070   1.717   5.622   1.294  0.5590  0.0780 -0.2891
 1812TIP3    H127071   1.796   5.611   1.347 -1.9778 -0.5201  3.7913
 1812TIP3    H227072   1.694   5.714   1.303  0.2623  0.0445 -0.6665
 1813TIP3   OH227073   0.030   6.756   8.073  0.1901 -0.6024 -0.3430
 1813TIP3    H127074  -0.018   6.673   8.064  0.2056 -0.7504  0.8274
 1813TIP3    H227075   0.118   6.730   8.100  0.2727 -0.2226 -0.2386
 1814TIP3   OH227076   6.870   1.636   0.712 -0.1017 -0.0283  0.0691
 1814TIP3    H127077   6.961   1.619   0.687 -0.3154 -1.7259  0.2913
 1814TIP3    H227078   6.870   1.627   0.807 -0.3200  1.0109  0.1750
 1815TIP3   OH227079   2.586   1.170   1.272 -0.2628 -0.2096  0.0062
 1815TIP3    H127080   2.674   1.177   1.234 -1.0868  0.3835 -1.8778
 1815TIP3    H227081   2.568   1.257   1.308 -0.4603 -0.0465 -0.4853
 1816TIP3   OH227082   0.358   4.644   6.869 -0.5141 -0.1132 -0.2462
 1816TIP3    H127083   0.271   4.613   6.845 -1.9030  2.0482  1.6356
 1816TIP3    H227084   0.393   4.575   6.926 -1.6064 -0.3509  0.1612
 1817TIP3   OH227085   4.041   0.425   7.256 -0.2932  0.1412 -0.2428
 1817TIP3    H127086   3.988   0.412   7.334  0.5898 -1.1256  0.1747
 1817TIP3    H227087   4.032   0.344   7.207  0.2186  0.4200 -0.8136
 1818TIP3   OH227088   6.621   5.579   2.057 -0.7793 -0.2444  0.5499
 1818TIP3    H127089   6.676   5.639   2.007 -1.7110 -1.0818 -1.6155
 1818TIP3    H227090   6.684   5.520   2.100  0.0675  0.7751  0.7474
 1819TIP3   OH227091   1.512   3.706   8.055 -0.6855 -0.3460  0.1447
 1819TIP3    H127092   1.516   3.624   8.104  0.0914  0.3903  1.4029
 1819TIP3    H227093   1.429   3.703   8.008  0.0360 -2.5186 -1.1008
 1820TIP3   OH227094   3.861   3.699   0.407  0.1093  0.0029  0.0205
 1820TIP3    H127095   3.923   3.771   0.404 -2.1745  2.0714 -1.8758
 1820TIP3    H227096   3.819   3.707   0.492  0.3787  0.4640  0.1134
 1821TIP3   OH227097   0.865   2.209   7.802 -0.0021  0.0086  0.6637
 1821TIP3    H127098   0.797   2.189   7.737  0.7940 -1.1063  0.1518
 1821TIP3    H227099   0.818   2.258   7.870 -0.7464  1.7140 -0.9691
 1822TIP3   OH227100   2.865   5.191   2.608  0.0887  0.5492 -0.7422
 1822TIP3    H127101   2.927   5.158   2.543 -1.0677  0.1198 -1.6582
 1822TIP3    H227102   2.824   5.112   2.643  0.3787  0.8068  0.1918
 1823TIP3   OH227103   2.520   2.009   7.088  0.2075  0.4444  0.0781
 1823TIP3    H127104   2.458   1.936   7.103  2.1020 -1.1266  0.6741
 1823TIP3    H227105   2.527   2.052   7.173 -0.6342  1.1282 -0.1853
 1824TIP3   OH227106   5.485   1.607   0.337  0.2421 -0.4358  0.4011
 1824TIP3    H127107   5.475   1.616   0.242  1.4916  2.2836  0.4142
 1824TIP3    H227108   5.572   1.569   0.348 -0.4091 -1.9599  0.4894
 1825TIP3   OH227109   5.602   1.047   0.166  0.0059  0.2461  0.5050
 1825TIP3    H127110   5.693   1.073   0.183 -0.1589  0.6304  0.8232
 1825TIP3    H227111   5.554   1.130   0.162 -0.0570  0.1688 -1.4298
 1826TIP3   OH227112   3.934   3.447   1.645 -0.0632  0.0782  0.0264
 1826TIP3    H127113   3.894   3.405   1.569  0.4044  0.1211 -0.2448
 1826TIP3    H227114   3.888   3.531   1.653  1.2821  1.0156 -1.4810
 1827TIP3   OH227115   1.401   2.538   8.036  0.0024 -0.4280  0.3986
 1827TIP3    H127116   1.407   2.496   8.122  0.0154  0.5170  0.8662
 1827TIP3    H227117   1.447   2.621   8.046 -1.4612  0.4836 -0.0024
 1828TIP3   OH227118   5.607   5.304   1.431  0.4491 -0.2715  0.0784
 1828TIP3    H127119   5.602   5.393   1.396  1.9879 -0.8575 -1.8228
 1828TIP3    H227120   5.659   5.313   1.511 -1.3648  0.8065  1.2142
 1829TIP3   OH227121   4.653   0.084   8.355  0.5320  0.3039 -0.2299
 1829TIP3    H127122   4.558   0.090   8.362  0.2662 -2.2416 -0.5975
 1829TIP3    H227123   4.668   0.043   8.269  1.9045  0.0352  0.1107
 1830TIP3   OH227124   0.139   5.837   0.761 -0.1218  0.4204 -0.6233
 1830TIP3    H127125   0.193   5.904   0.804  1.0760 -0.0188 -1.3862
 1830TIP3    H227126   0.148   5.760   0.816  0.2641  0.2692 -0.8919
 1831TIP3   OH227127   2.695   5.226   6.998 -0.0550 -0.2040 -0.2414
 1831TIP3    H127128   2.753   5.298   6.971 -3.1482  2.1982 -1.0950
 1831TIP3    H227129   2.667   5.186   6.916 -1.1597  0.0648 -0.0157
 1832TIP3   OH227130   2.334   4.869   7.851  0.2643 -0.3917  0.4070
 1832TIP3    H127131   2.312   4.850   7.942 -2.3142  0.9441  0.1412
 1832TIP3    H227132   2.341   4.783   7.809  2.3570 -1.0611  1.9739
 1833TIP3   OH227133   0.283   0.818   8.533 -0.0170 -0.1884  0.1485
 1833TIP3    H127134   0.371   0.780   8.528 -0.6296 -1.4730 -1.9382
 1833TIP3    H227135   0.228   0.746   8.563 -0.5878  0.2451  0.1488
 1834TIP3   OH227136   2.404   2.807   0.579 -0.4659  0.1714  0.0763
 1834TIP3    H127137   2.331   2.847   0.626 -0.1919  1.7968 -0.8160
 1834TIP3    H227138   2.474   2.873   0.583  0.6031 -0.9324  0.0220
 1835TIP3   OH227139   4.050   3.024   1.015 -0.2268  0.0739 -0.4728
 1835TIP3    H127140   4.105   3.024   1.094 -0.0815 -0.1492 -0.5724
 1835TIP3    H227141   4.086   2.954   0.961 -0.7445 -0.2187 -0.4482
 1836TIP3   OH227142   5.724   5.256   0.801 -0.7158 -0.1725  0.3569
 1836TIP3    H127143   5.696   5.331   0.748 -1.0088 -0.0740  0.6470
 1836TIP3    H227144   5.768   5.295   0.876 -0.2645 -0.3147  0.1680
 1837TIP3   OH227145   6.680   4.218   0.243 -0.0794 -0.2426 -0.0226
 1837TIP3    H127146   6.609   4.241   0.183 -1.3344 -0.9819  1.1226
 1837TIP3    H227147   6.638   4.166   0.311  1.5737 -0.6852  0.7090
 1838TIP3   OH227148   3.037   5.317   2.808  0.1853  0.1642  0.4064
 1838TIP3    H127149   3.034   5.250   2.740 -0.6002  0.4436  0.1631
 1838TIP3    H227150   3.129   5.344   2.811  0.3263 -0.2487 -0.1498
 1839TIP3   OH227151   3.661   5.347   6.722 -0.7200 -0.7434  0.5389
 1839TIP3    H127152   3.710   5.428   6.737 -0.4119 -0.2777 -2.4675
 1839TIP3    H227153   3.722   5.291   6.674 -1.7541 -1.8260  0.4394
 1840TIP3   OH227154   3.594   3.517   8.323  0.2418  0.1694  0.0752
 1840TIP3    H127155   3.687   3.540   8.327  0.4447 -0.5620 -0.1728
 1840TIP3    H227156   3.562   3.529   8.413  0.1978  1.8861 -0.1517
 1841TIP3   OH227157   4.081   6.643   0.898 -0.0542  0.0395 -0.4714
 1841TIP3    H127158   4.022   6.652   0.824 -0.9182 -2.1944 -0.1346
 1841TIP3    H227159   4.037   6.581   0.957  0.4480  1.9543  2.0815
 1842TIP3   OH227160   5.602   0.105   1.750 -0.4460 -0.0929 -0.2601
 1842TIP3    H127161   5.555   0.023   1.739  0.6057 -1.1495  2.3633
 1842TIP3    H227162   5.678   0.083   1.804  0.3232  2.4432 -0.1584
 1843TIP3   OH227163   5.489   6.163   0.439  0.0815 -0.9404 -0.1541
 1843TIP3    H127164   5.535   6.242   0.412 -0.6037 -0.3335  0.4218
 1843TIP3    H227165   5.397   6.189   0.446 -0.1372 -1.7552  0.1573
 1844TIP3   OH227166   2.695   4.148   0.703  0.4944  0.6142  0.6231
 1844TIP3    H127167   2.649   4.183   0.627 -2.4112 -0.0940  1.9386
 1844TIP3    H227168   2.738   4.224   0.742 -2.2821  2.0403  1.1292
 1845TIP3   OH227169   1.577   4.219   8.497 -0.1754 -0.0602  0.2895
 1845TIP3    H127170   1.504   4.193   8.553 -0.4386  1.8004  0.8641
 1845TIP3    H227171   1.552   4.304   8.461  2.3669  1.5362  1.9241
 1846TIP3   OH227172   0.522   6.856   1.726  0.1315  0.2963 -0.1731
 1846TIP3    H127173   0.478   6.938   1.702 -1.2692 -0.7121 -1.1724
 1846TIP3    H227174   0.540   6.865   1.819 -1.0020  1.2843 -0.0278
 1847TIP3   OH227175   1.063   5.661   8.046  1.1391  0.2221 -0.1662
 1847TIP3    H127176   1.043   5.617   8.128 -1.8011 -0.8810 -1.3659
 1847TIP3    H227177   1.112   5.597   7.995 -1.4088 -1.0878 -1.1328
 1848TIP3   OH227178   4.274   4.746   0.258 -0.1508  0.0663 -0.1877
 1848TIP3    H127179   4.230   4.665   0.234 -0.9585  0.9178 -1.7412
 1848TIP3    H227180   4.219   4.784   0.326  0.8597 -1.1956  1.4317
 1849TIP3   OH227181   3.803   0.430   6.992 -0.0709  0.0519 -0.1466
 1849TIP3    H127182   3.870   0.372   7.028  0.4801 -0.4206 -1.8323
 1849TIP3    H227183   3.852   0.489   6.935 -0.7759  1.4541  0.6676
 1850TIP3   OH227184   0.879   3.311   0.203  0.1615  0.4506 -0.0824
 1850TIP3    H127185   0.829   3.264   0.136  0.5641  0.9418 -0.7325
 1850TIP3    H227186   0.831   3.294   0.284 -0.2380 -0.2855 -0.4593
 1851TIP3   OH227187   5.617   5.673   7.240  0.3313 -0.0940  0.4047
 1851TIP3    H127188   5.534   5.643   7.276 -1.1282  0.6458 -2.1567
 1851TIP3    H227189   5.665   5.592   7.221 -0.6548 -0.5951 -0.0023
 1852TIP3   OH227190   1.091   2.370   7.595 -0.2647 -0.0801 -0.0792
 1852TIP3    H127191   1.115   2.295   7.650  0.5083  0.5393  0.4554
 1852TIP3    H227192   1.092   2.444   7.656 -0.6442  0.4171 -0.6816
 1853TIP3   OH227193   4.045   0.871   8.652  0.0315  0.1138  0.1622
 1853TIP3    H127194   4.088   0.903   8.731 -0.4724 -0.1297  0.5399
 1853TIP3    H227195   4.114   0.822   8.605 -0.3063 -2.0303  1.7555
 1854TIP3   OH227196   5.672   2.930   7.866  0.8315 -0.0724  0.3622
 1854TIP3    H127197   5.618   2.971   7.933  1.6194  3.4389 -0.9341
 1854TIP3    H227198   5.612   2.909   7.795  0.4351 -1.1607  0.9957
 1855TIP3   OH227199   4.089   5.995   8.379 -0.2740  0.0235  0.1520
 1855TIP3    H127200   4.021   6.055   8.410 -0.3725  0.6523 -1.1583
 1855TIP3    H227201   4.142   5.976   8.456 -2.2454 -0.9369  1.3299
 1856TIP3   OH227202   0.656   4.788   8.062  0.5712 -0.2593 -0.4482
 1856TIP3    H127203   0.581   4.730   8.051 -0.2810  0.7823 -0.1944
 1856TIP3    H227204   0.677   4.817   7.973 -0.0356  0.3130 -0.4133
 1857TIP3   OH227205   2.744   2.606   0.853  0.3065 -0.1981 -0.3492
 1857TIP3    H127206   2.834   2.635   0.837  0.9230  0.9703  3.9410
 1857TIP3    H227207   2.753   2.521   0.895 -0.2697  0.9903  2.3880
 1858TIP3   OH227208   5.585   0.555   0.003  0.3182  0.4857 -0.3196
 1858TIP3    H127209   5.540   0.471  -0.008  2.4471 -0.8405  0.5739
 1858TIP3    H227210   5.593   0.589  -0.086  0.0850 -0.6178 -0.7822
 1859TIP3   OH227211   5.047   2.113   0.187  0.2813 -0.3922  0.0254
 1859TIP3    H127212   5.074   2.169   0.260  1.7635 -0.5024 -0.4097
 1859TIP3    H227213   5.059   2.166   0.109  1.4267 -1.1760 -0.3672
 1860TIP3   OH227214   2.250   0.003   7.914  0.0676 -0.2600 -0.3820
 1860TIP3    H127215   2.286  -0.001   7.826  0.6483  0.8097 -0.2071
 1860TIP3    H227216   2.201  -0.078   7.923 -0.5225 -0.1181 -1.9130
 1861TIP3   OH227217   3.557   3.981   2.448  0.0683  0.2400  0.0266
 1861TIP3    H127218   3.498   4.054   2.467 -0.3630  0.3515 -1.6525
 1861TIP3    H227219   3.501   3.904   2.453 -0.0926  0.2871 -0.9220
 1862TIP3   OH227220   6.112   0.501   7.974 -0.1127 -0.4949 -0.1222
 1862TIP3    H127221   6.020   0.519   7.993 -0.9652 -0.8709 -3.2095
 1862TIP3    H227222   6.157   0.583   7.995 -1.3348  0.0740  0.3817
 1863TIP3   OH227223   0.106   1.436   1.320 -0.0147  0.0326  0.5308
 1863TIP3    H127224   0.199   1.450   1.335 -0.3013  1.9243  0.6960
 1863TIP3    H227225   0.064   1.517   1.348 -1.8653 -1.2486  1.7223
 1864TIP3   OH227226   2.117   0.454   0.978  0.6233 -0.0585 -0.1760
 1864TIP3    H127227   2.080   0.516   1.041  0.2311  0.0319 -0.4945
 1864TIP3    H227228   2.109   0.369   1.020 -2.0598 -0.3687 -1.1467
 1865TIP3   OH227229   2.318   3.945   7.855  0.3688  0.7490  0.2448
 1865TIP3    H127230   2.332   4.033   7.822  0.1563  1.3971  1.7928
 1865TIP3    H227231   2.312   3.955   7.950  0.0012 -0.8851  0.4368
 1866TIP3   OH227232   0.555   5.059   6.969  0.3847  0.5776  0.5036
 1866TIP3    H127233   0.558   5.140   6.918  1.6147 -0.4734 -1.2060
 1866TIP3    H227234   0.465   5.028   6.960  0.2253  1.1291  0.1522
 1867TIP3   OH227235   1.228   2.525   6.233  0.0838 -0.5564 -0.3988
 1867TIP3    H127236   1.135   2.521   6.252 -0.2945  1.9454 -1.4615
 1867TIP3    H227237   1.256   2.611   6.263  1.4651 -0.1982 -2.5198
 1868TIP3   OH227238   4.850   4.719   8.622 -0.4806  0.6284  0.0676
 1868TIP3    H127239   4.772   4.751   8.577 -0.5180 -0.3905 -0.6396
 1868TIP3    H227240   4.817   4.680   8.703 -0.8119 -0.3747 -0.5242
 1869TIP3   OH227241   1.084   3.981   8.263  0.2410 -0.1517 -0.0849
 1869TIP3    H127242   1.131   4.063   8.246 -1.7578  1.1230  0.1368
 1869TIP3    H227243   1.072   3.942   8.177 -0.3429  0.7224 -0.4118
 1870TIP3   OH227244   6.607   0.850   0.848  0.3498  0.1261 -0.0300
 1870TIP3    H127245   6.665   0.884   0.916  1.8189  0.6447 -1.4752
 1870TIP3    H227246   6.573   0.929   0.805  2.3990 -0.0904 -2.2621
 1871TIP3   OH227247   4.058   2.104   1.267 -0.0577 -0.1012  0.0399
 1871TIP3    H127248   4.151   2.084   1.279 -0.5465 -2.3839  0.5270
 1871TIP3    H227249   4.036   2.062   1.184 -0.4583  1.3258 -0.6109
 1872TIP3   OH227250   5.451   1.143   1.078 -0.1944 -0.4651 -0.2010
 1872TIP3    H127251   5.520   1.204   1.103 -1.6881  2.0751 -1.7718
 1872TIP3    H227252   5.495   1.078   1.023  1.2068  0.1139  0.1995
 1873TIP3   OH227253   3.583   2.897   8.394  0.9114 -0.2210  0.3116
 1873TIP3    H127254   3.507   2.937   8.435 -0.3691 -0.3317 -1.7823
 1873TIP3    H227255   3.633   2.970   8.358  0.7517 -0.2459  0.0313
 1874TIP3   OH227256   3.405   5.790   7.558 -0.5184  0.2916  0.7115
 1874TIP3    H127257   3.354   5.830   7.628  0.1157  2.0438  0.2117
 1874TIP3    H227258   3.458   5.724   7.602 -0.1102  1.3765  1.8918
 1875TIP3   OH227259   1.858   3.766   1.186  0.6010 -0.1175  0.2167
 1875TIP3    H127260   1.863   3.860   1.170  0.5814  0.2195  2.0120
 1875TIP3    H227261   1.913   3.751   1.263 -1.6255 -1.0877  1.7308
 1876TIP3   OH227262   1.607   3.238   2.287  0.4425 -0.2239  0.0866
 1876TIP3    H127263   1.536   3.176   2.303 -0.3672  0.6290 -0.0682
 1876TIP3    H227264   1.582   3.315   2.338  1.6840 -0.2041  0.6839
 1877TIP3   OH227265   6.334   6.043   1.683 -0.9035 -0.3097  0.0021
 1877TIP3    H127266   6.359   6.120   1.633 -1.6229 -0.7999 -1.1520
 1877TIP3    H227267   6.416   6.008   1.718 -0.6212  1.2982  1.0677
 1878TIP3   OH227268   4.753   5.744   8.353 -0.2245 -0.2529  0.3673
 1878TIP3    H127269   4.802   5.678   8.402  1.7252  2.3622  2.2681
 1878TIP3    H227270   4.759   5.717   8.262  3.3138 -1.0697  0.6955
 1879TIP3   OH227271   3.348   1.577   0.797 -0.8508 -0.3511 -0.6812
 1879TIP3    H127272   3.394   1.649   0.753  0.3359 -0.0389  0.9645
 1879TIP3    H227273   3.261   1.612   0.816  0.1473  1.2495  1.3460
 1880TIP3   OH227274   6.422   1.972   1.954  0.2861  0.0250  0.2284
 1880TIP3    H127275   6.416   2.061   1.989 -1.5601  0.2322 -0.5120
 1880TIP3    H227276   6.447   1.919   2.030 -2.3798  0.6365  1.6557
 1881TIP3   OH227277   1.343   4.606   0.292 -0.3813 -0.4313 -0.0488
 1881TIP3    H127278   1.377   4.653   0.217  0.9304 -0.8182  0.2871
 1881TIP3    H227279   1.400   4.631   0.365 -0.6734 -1.2640  0.4817
 1882TIP3   OH227280   1.837   0.991   1.276 -0.3461 -0.3666  0.3806
 1882TIP3    H127281   1.807   0.909   1.239 -1.8200 -0.9900  2.7355
 1882TIP3    H227282   1.883   0.966   1.357 -1.6731  1.0974  1.6681
 1883TIP3   OH227283   2.872   4.526   1.777 -0.0776  0.5300  0.0105
 1883TIP3    H127284   2.836   4.541   1.864 -2.7577  2.5889 -1.2916
 1883TIP3    H227285   2.921   4.606   1.757 -0.4325  0.5729 -0.7417
 1884TIP3   OH227286   6.583   0.552   6.928  0.7605 -0.0043 -0.1301
 1884TIP3    H127287   6.487   0.551   6.919  0.5103  2.3086  1.3587
 1884TIP3    H227288   6.615   0.505   6.851 -1.5585 -0.0033 -1.1778
 1885TIP3   OH227289   6.190   5.549   7.096 -0.6545 -0.7976 -0.2349
 1885TIP3    H127290   6.227   5.496   7.167 -2.0252 -1.4966  0.0037
 1885TIP3    H227291   6.262   5.560   7.034 -0.0800 -2.1908  0.1446
 1886TIP3   OH227292   0.629   4.965   1.219 -0.7537 -0.2857 -0.4152
 1886TIP3    H127293   0.624   5.059   1.199 -0.4273 -0.6624 -2.4737
 1886TIP3    H227294   0.703   4.958   1.279 -1.1973  0.8394  0.3060
 1887TIP3   OH227295   5.066   2.019   0.924  0.3675 -0.1515 -0.3292
 1887TIP3    H127296   5.035   2.039   1.013 -0.4349 -1.6019 -0.2666
 1887TIP3    H227297   5.157   1.992   0.936  0.1503 -0.7041  0.1056
 1888TIP3   OH227298   2.667   0.700   1.365  0.4305 -0.0689  0.0946
 1888TIP3    H127299   2.756   0.672   1.384 -0.5779 -2.3208  1.8573
 1888TIP3    H227300   2.654   0.676   1.273  1.4448 -0.1866 -0.0330
 1889TIP3   OH227301   1.532   1.368   8.011 -0.0934 -0.1627  0.2431
 1889TIP3    H127302   1.487   1.371   8.096 -1.1154  2.0963 -0.2964
 1889TIP3    H227303   1.461   1.374   7.946  0.7535 -0.4834 -0.7421
 1890TIP3   OH227304   5.805   5.054   0.031 -0.0665  0.2923  0.8445
 1890TIP3    H127305   5.813   4.964   0.063  0.9380  0.0104 -0.1476
 1890TIP3    H227306   5.895   5.084   0.021 -0.3590  0.8593 -0.3067
 1891TIP3   OH227307   2.695   5.746   2.168 -0.1837  0.3473  0.2746
 1891TIP3    H127308   2.642   5.819   2.199 -0.0198 -0.1458  1.7803
 1891TIP3    H227309   2.782   5.783   2.155 -0.0800  0.4158  1.1179
 1892TIP3   OH227310   5.088   2.903   0.922  0.1041  0.1504 -0.2408
 1892TIP3    H127311   5.074   2.811   0.899 -0.5629 -0.0444  0.9084
 1892TIP3    H227312   5.020   2.923   0.986  2.3073  0.4471  2.1756
 1893TIP3   OH227313   5.124   4.403   0.300  0.2660 -0.3487 -0.3955
 1893TIP3    H127314   5.166   4.363   0.377 -0.9628 -0.4614  0.2351
 1893TIP3    H227315   5.075   4.331   0.260 -0.9414  0.2234  0.0248
 1894TIP3   OH227316   4.640   6.008   8.115  0.2498 -0.3066  0.2167
 1894TIP3    H127317   4.617   6.040   8.027 -3.6784  0.3748  1.2827
 1894TIP3    H227318   4.601   5.920   8.119  1.3003 -0.7540  0.9667
 1895TIP3   OH227319   0.977   2.876   7.356 -0.0900 -0.3979  0.7700
 1895TIP3    H127320   0.948   2.905   7.269  0.2142 -3.2922 -0.4246
 1895TIP3    H227321   0.964   2.952   7.412  0.4901  1.8970 -1.9532
 1896TIP3   OH227322   6.535   5.748   7.510  0.5194 -0.4528 -0.5728
 1896TIP3    H127323   6.462   5.797   7.472  0.5407 -0.3250 -0.4488
 1896TIP3    H227324   6.572   5.807   7.576 -0.5445 -1.2978  0.8134
 1897TIP3   OH227325   0.509   1.970   0.404 -0.5197 -0.1002 -0.5917
 1897TIP3    H127326   0.434   2.030   0.402 -0.2050  0.3801  0.7790
 1897TIP3    H227327   0.564   1.998   0.331  0.3436  2.3056  0.8463
 1898TIP3   OH227328   6.212   6.113   8.380  0.1211 -0.0852  0.5836
 1898TIP3    H127329   6.241   6.023   8.396  1.7162  0.5117  1.2436
 1898TIP3    H227330   6.225   6.158   8.463  2.3961  1.5123 -0.5315
 1899TIP3   OH227331   0.521   0.162   6.690  0.2296 -0.4798  0.0066
 1899TIP3    H127332   0.601   0.214   6.681  1.6427 -2.8086 -2.2381
 1899TIP3    H227333   0.533   0.112   6.770  0.1294  0.5176  0.6640
 1900TIP3   OH227334   6.281   6.867   2.510  0.9207 -0.6209  0.2346
 1900TIP3    H127335   6.364   6.903   2.480  0.2691  1.0122  0.2747
 1900TIP3    H227336   6.304   6.788   2.559  2.4438 -0.0632  0.4430
 1901TIP3   OH227337   5.029   5.609   0.129 -0.2531 -0.5812  0.0032
 1901TIP3    H127338   5.119   5.642   0.121 -0.7295  0.7256 -0.1680
 1901TIP3    H227339   5.035   5.518   0.102  0.5356  0.2172 -2.7880
 1902TIP3   OH227340   1.086   6.120   0.790 -0.1784 -0.2176  0.2307
 1902TIP3    H127341   1.038   6.037   0.799  1.2439 -0.9110  1.8391
 1902TIP3    H227342   1.106   6.146   0.879  1.0999  0.8554 -0.3414
 1903TIP3   OH227343   1.924   1.680   7.634 -0.0112 -0.4440  0.1620
 1903TIP3    H127344   1.974   1.761   7.620 -2.0590  0.6504 -1.2734
 1903TIP3    H227345   1.975   1.612   7.589  0.5811  0.4771 -0.5783
 1904TIP3   OH227346   1.177   3.028   0.715 -0.1562  0.4588  0.3603
 1904TIP3    H127347   1.183   2.951   0.770  1.4326  0.3978  0.1328
 1904TIP3    H227348   1.247   3.086   0.745 -1.2591  1.7972  0.4741
 1905TIP3   OH227349   1.779   2.482   0.010  0.1752  0.2555  0.2446
 1905TIP3    H127350   1.845   2.414   0.023 -0.0134  0.0913  0.3568
 1905TIP3    H227351   1.768   2.522   0.096 -0.3696 -0.1819  0.3855
 1906TIP3   OH227352   4.744   0.977   0.609 -0.2063  0.0184  0.0157
 1906TIP3    H127353   4.698   0.910   0.559 -0.4633  1.4390 -1.7339
 1906TIP3    H227354   4.788   0.929   0.679 -0.3795 -1.9592 -1.1724
 1907TIP3   OH227355   2.673   0.854   0.976 -0.3275  0.4900  0.0371
 1907TIP3    H127356   2.733   0.828   1.046 -1.6049 -0.8786  0.7002
 1907TIP3    H227357   2.622   0.775   0.959 -1.8518  1.5581 -0.5683
 1908TIP3   OH227358   3.629   5.874   0.426  0.4072 -0.0237 -0.0007
 1908TIP3    H127359   3.645   5.793   0.475 -1.2254 -0.8905 -0.8145
 1908TIP3    H227360   3.623   5.942   0.493  1.7962 -0.5443  0.7053
 1909TIP3   OH227361   3.420   5.460   8.595  0.2656 -0.7910 -0.1456
 1909TIP3    H127362   3.466   5.382   8.626  1.8770  0.9135  2.0859
 1909TIP3    H227363   3.390   5.504   8.674 -1.5590  0.3585 -1.3855
 1910TIP3   OH227364   3.982   1.747   8.289  0.5345  0.3863  0.1079
 1910TIP3    H127365   3.986   1.730   8.383  0.1584  0.1541  0.0872
 1910TIP3    H227366   4.065   1.715   8.255  0.1424 -0.7842  0.1762
 1911TIP3   OH227367   2.243   2.892   7.018 -0.3744 -0.1071  0.5528
 1911TIP3    H127368   2.186   2.822   6.988  0.1933  0.1925 -1.3494
 1911TIP3    H227369   2.263   2.942   6.939  0.3172  1.4096  1.6358
 1912TIP3   OH227370   1.595   2.733   8.004  0.2752  0.0014  0.2922
 1912TIP3    H127371   1.537   2.795   7.960 -0.0103 -0.4413  0.0330
 1912TIP3    H227372   1.678   2.779   8.012 -0.1356  0.6806  0.7577
 1913TIP3   OH227373   2.914   3.970   0.585  0.2062 -0.0528  0.2565
 1913TIP3    H127374   2.873   4.002   0.505  1.7136 -0.1528 -0.5911
 1913TIP3    H227375   2.875   4.023   0.655 -1.9758 -0.7276 -0.3642
 1914TIP3   OH227376   4.914   5.480   3.413 -0.4584  0.5257  0.1065
 1914TIP3    H127377   4.942   5.425   3.339  0.0722 -0.1195  0.7742
 1914TIP3    H227378   4.880   5.559   3.372 -0.5376  0.0160 -0.8517
 1915TIP3   OH227379   5.513   1.604   0.055 -0.3993  0.1481 -0.5612
 1915TIP3    H127380   5.570   1.595  -0.022 -1.5049 -0.6603 -1.3197
 1915TIP3    H227381   5.442   1.542   0.040 -1.6312  1.2975  0.2375
 1916TIP3   OH227382   1.367   6.903   2.692  0.5032  0.3837 -0.1184
 1916TIP3    H127383   1.408   6.939   2.771  2.2652 -0.5906 -0.5475
 1916TIP3    H227384   1.377   6.808   2.701  0.0201  0.2205 -1.1568
 1917TIP3   OH227385   3.252   4.041   0.264 -0.0370 -0.5157 -0.5738
 1917TIP3    H127386   3.157   4.042   0.263 -0.0949 -2.0067  0.3414
 1917TIP3    H227387   3.277   4.112   0.323 -0.5871 -0.4974 -0.3653
 1918TIP3   OH227388   4.799   2.389   7.982  0.4624  0.2626  0.0415
 1918TIP3    H127389   4.862   2.318   7.967 -1.1119 -0.7563 -2.4132
 1918TIP3    H227390   4.732   2.351   8.038 -0.5562 -0.3976 -1.5469
 1919TIP3   OH227391   1.213   3.169   1.301 -0.3501  0.0414  0.0764
 1919TIP3    H127392   1.298   3.154   1.259 -0.7348 -0.2615 -0.6169
 1919TIP3    H227393   1.232   3.171   1.395  0.4658  0.2889 -0.0829
 1920TIP3   OH227394   3.134   3.635   0.016  0.2875  0.3832  0.0683
 1920TIP3    H127395   3.195   3.702  -0.015  2.0631 -1.7017 -1.2823
 1920TIP3    H227396   3.141   3.639   0.111  1.7899  0.8921 -0.0374
 1921TIP3   OH227397   4.552   5.172   0.007 -0.5368 -0.3882  0.1763
 1921TIP3    H127398   4.495   5.246   0.027  0.7035  0.1031  2.1881
 1921TIP3    H227399   4.578   5.138   0.093  1.8324 -0.8459 -0.6557
 1922TIP3   OH227400   2.818   3.225   6.575  0.0205  0.0204  0.4254
 1922TIP3    H127401   2.850   3.198   6.489  2.2858 -1.2879  1.5805
 1922TIP3    H227402   2.783   3.145   6.614 -0.3212  0.4469  1.0201
 1923TIP3   OH227403   4.417   3.092   7.890 -0.3085  0.0599 -0.4162
 1923TIP3    H127404   4.396   3.004   7.921 -1.5803  0.8070  0.9407
 1923TIP3    H227405   4.369   3.100   7.807  1.6867 -1.3039 -1.7962
 1924TIP3   OH227406   1.429   1.049   8.344 -0.3443  0.6908 -0.0957
 1924TIP3    H127407   1.426   0.954   8.333  1.0316  0.8235 -2.1494
 1924TIP3    H227408   1.521   1.068   8.364 -0.7641  1.5559  1.2055
 1925TIP3   OH227409   6.212   4.361   8.164  0.2484 -0.2348 -0.7239
 1925TIP3    H127410   6.205   4.419   8.088 -1.7374  0.0073 -0.4149
 1925TIP3    H227411   6.218   4.420   8.239 -0.9940 -0.4018 -0.4705
 1926TIP3   OH227412   1.124   0.131   7.062  0.3691 -0.2162  0.4770
 1926TIP3    H127413   1.209   0.105   7.028 -0.3950  1.0236 -2.7443
 1926TIP3    H227414   1.063   0.115   6.990 -2.6635 -3.2166  3.3217
 1927TIP3   OH227415   3.647   6.333   7.510 -0.0071  0.0847  0.7978
 1927TIP3    H127416   3.647   6.388   7.431  0.8867 -0.0719  0.6730
 1927TIP3    H227417   3.727   6.359   7.557 -0.0590 -0.4610  1.1923
 1928TIP3   OH227418   2.194   1.700   0.807  0.0920 -0.1852  0.0120
 1928TIP3    H127419   2.115   1.678   0.758 -2.3544  0.7528  3.1840
 1928TIP3    H227420   2.195   1.796   0.810  1.9064 -0.1439 -0.7028
 1929TIP3   OH227421   3.336   0.705   0.465 -0.5592  0.1271 -0.1322
 1929TIP3    H127422   3.276   0.688   0.538 -0.7388 -0.7938 -0.4865
 1929TIP3    H227423   3.288   0.766   0.408 -0.9968 -0.2804 -0.2053
 1930TIP3   OH227424   2.914   2.721   1.934 -0.3774 -0.0603 -0.3986
 1930TIP3    H127425   2.834   2.762   1.967 -1.0078 -1.1033 -0.5658
 1930TIP3    H227426   2.984   2.783   1.955 -0.8786 -0.1824  1.9057
 1931TIP3   OH227427   2.117   4.142   6.395 -0.8767  0.5062  0.0069
 1931TIP3    H127428   2.177   4.081   6.438  2.8507  2.2863 -2.2307
 1931TIP3    H227429   2.066   4.087   6.335 -0.0329 -0.8184  0.4713
 1932TIP3   OH227430   0.731   4.201   1.745  0.4401  0.4474 -0.3404
 1932TIP3    H127431   0.667   4.132   1.733  0.9824 -0.1741  0.2423
 1932TIP3    H227432   0.681   4.282   1.742 -0.4419 -0.0437  0.5466
 1933TIP3   OH227433   4.637   2.971   2.489  0.0684  0.8139 -0.0685
 1933TIP3    H127434   4.595   3.039   2.542 -0.8292  0.0494  0.2264
 1933TIP3    H227435   4.571   2.947   2.424 -0.4483 -1.2658  1.1543
 1934TIP3   OH227436   3.965   6.478   1.553 -0.5780  0.2485 -0.7029
 1934TIP3    H127437   3.997   6.467   1.463 -3.3969 -0.0379 -1.7623
 1934TIP3    H227438   3.980   6.393   1.594  0.4292  0.2779 -0.9721
 1935TIP3   OH227439   3.233   4.747   7.725  0.2487 -0.2402  0.5664
 1935TIP3    H127440   3.198   4.819   7.778 -1.2454 -0.1082 -0.5640
 1935TIP3    H227441   3.319   4.730   7.763 -0.8592 -0.3429  3.2172
 1936TIP3   OH227442   5.935   2.509   0.210 -0.3331 -0.1403  0.4371
 1936TIP3    H127443   5.982   2.452   0.149  1.9166  0.7878  1.2010
 1936TIP3    H227444   5.938   2.595   0.168 -0.6622  0.0898  0.8848
 1937TIP3   OH227445   6.803   5.506   0.145 -0.0435 -0.3881 -0.2724
 1937TIP3    H127446   6.813   5.535   0.235  2.0386  0.1684 -0.6199
 1937TIP3    H227447   6.803   5.411   0.150 -0.4532 -0.3580  0.3480
 1938TIP3   OH227448   1.800   6.880   7.538 -0.1360  0.1340  0.9740
 1938TIP3    H127449   1.799   6.817   7.610 -2.6666  0.6524  1.4871
 1938TIP3    H227450   1.770   6.830   7.462  1.3131 -0.0953  0.5116
 1939TIP3   OH227451   4.636   5.689   1.357 -0.1077 -0.3293  0.4141
 1939TIP3    H127452   4.639   5.641   1.274 -1.1858 -2.5592  1.5798
 1939TIP3    H227453   4.548   5.726   1.360  0.7711  2.0011 -0.5523
 1940TIP3   OH227454   0.375   3.107   7.241 -0.2011  0.1626 -0.0147
 1940TIP3    H127455   0.365   3.114   7.336  0.4563 -1.5406  0.2121
 1940TIP3    H227456   0.302   3.158   7.206 -1.1484 -0.1358  1.4262
 1941TIP3   OH227457   5.763   4.665   7.026 -0.3213 -0.6281 -0.7970
 1941TIP3    H127458   5.710   4.718   6.966 -0.1416  0.0240 -0.3959
 1941TIP3    H227459   5.850   4.707   7.022 -0.4634 -0.1978  0.3781
 1942TIP3   OH227460   4.672   2.237   8.213 -0.5931  0.7637  0.3321
 1942TIP3    H127461   4.593   2.191   8.241 -1.2457  2.1080  0.7364
 1942TIP3    H227462   4.710   2.272   8.293 -0.9383  2.2116 -0.1059
 1943TIP3   OH227463   0.664   6.196   7.181 -0.2650  0.0890  0.1049
 1943TIP3    H127464   0.714   6.221   7.103 -1.3071 -0.2423 -0.7008
 1943TIP3    H227465   0.635   6.106   7.164 -2.1949  0.6816 -0.0699
 1944TIP3   OH227466   5.745   2.538   1.062 -0.0391 -0.0377  0.2120
 1944TIP3    H127467   5.683   2.596   1.106  0.6354  0.0214  1.1226
 1944TIP3    H227468   5.701   2.512   0.981 -0.9748  0.5157  0.5284
 1945TIP3   OH227469   0.113   1.334   0.401  0.0365  0.7140  0.4036
 1945TIP3    H127470   0.163   1.407   0.438 -1.2394  1.9251 -0.1831
 1945TIP3    H227471   0.039   1.324   0.460  0.8721 -1.0332  1.2296
 1946TIP3   OH227472   5.524   5.369   0.602 -0.8381 -0.6395 -0.2432
 1946TIP3    H127473   5.520   5.439   0.538  0.1107 -0.6709 -0.3438
 1946TIP3    H227474   5.530   5.289   0.550  2.1628 -0.5522 -0.1884
 1947TIP3   OH227475   0.105   4.902   7.872  0.2253 -0.5716 -0.0924
 1947TIP3    H127476   0.095   4.841   7.945 -0.8800  0.8952  1.0351
 1947TIP3    H227477   0.028   4.959   7.877  1.6116  1.4569 -0.5426
 1948TIP3   OH227478   2.500   0.832   6.715  0.4314 -0.2653 -0.8098
 1948TIP3    H127479   2.470   0.780   6.640 -0.8833  0.7457 -1.0177
 1948TIP3    H227480   2.541   0.768   6.773  0.0283 -1.3264 -1.6542
 1949TIP3   OH227481   5.332   2.042   2.297  0.6944 -0.2463 -0.2222
 1949TIP3    H127482   5.238   2.039   2.314  0.4155 -1.5219 -1.7147
 1949TIP3    H227483   5.354   1.954   2.267  1.9173  0.5699 -1.9418
 1950TIP3   OH227484   2.330   6.541   7.748  0.1355  0.6264 -0.1264
 1950TIP3    H127485   2.392   6.598   7.703  0.1448 -0.2756 -1.3275
 1950TIP3    H227486   2.384   6.484   7.802  0.5028 -0.8075 -1.9057
 1951TIP3   OH227487   4.291   3.825   8.476 -0.8359  0.1928  0.2869
 1951TIP3    H127488   4.303   3.791   8.387 -2.2495  0.6589 -0.1185
 1951TIP3    H227489   4.379   3.837   8.510 -0.2782 -0.7250 -0.7706
 1952TIP3   OH227490   0.507   1.014   7.888  0.1143 -0.0906  0.2554
 1952TIP3    H127491   0.530   0.922   7.876  0.7553 -0.0932  1.3130
 1952TIP3    H227492   0.592   1.058   7.894 -0.1803  0.3784  1.0308
 1953TIP3   OH227493   2.661   2.176   7.287  0.2608 -0.3768 -0.1057
 1953TIP3    H127494   2.565   2.172   7.286  0.2653 -0.7380 -1.9366
 1953TIP3    H227495   2.681   2.266   7.312 -0.4698 -0.9036  2.7346
 1954TIP3   OH227496   3.572   3.465   2.477  0.8734  0.2628  0.2525
 1954TIP3    H127497   3.532   3.535   2.425 -0.8239 -2.5023 -2.5541
 1954TIP3    H227498   3.657   3.500   2.503  0.4285  3.0726 -1.6297
 1955TIP3   OH227499   5.465   5.765   6.494 -0.2968 -0.2490  0.9687
 1955TIP3    H127500   5.534   5.723   6.547 -1.0207 -0.4960  1.7314
 1955TIP3    H227501   5.508   5.841   6.455  0.8539 -1.2731  0.1285
 1956TIP3   OH227502   3.325   0.437   8.089  0.1446  0.0279  0.1043
 1956TIP3    H127503   3.361   0.524   8.072 -0.2517 -0.0297 -1.1166
 1956TIP3    H227504   3.331   0.392   8.005 -1.1403 -0.5764  0.3184
 1957TIP3   OH227505   6.103   5.290   7.843 -0.3090 -0.4556 -0.7199
 1957TIP3    H127506   6.011   5.292   7.869  0.1746  0.1853  1.1282
 1957TIP3    H227507   6.151   5.294   7.926  1.3786  0.9501 -1.6999
 1958TIP3   OH227508   1.066   4.595   0.885 -0.0281 -0.4698  0.3133
 1958TIP3    H127509   1.115   4.543   0.821 -0.7076 -0.9836  0.1918
 1958TIP3    H227510   0.975   4.593   0.853 -0.2588 -0.1564  0.9246
 1959TIP3   OH227511   6.571   2.559   1.393  0.0985  0.4031  0.1063
 1959TIP3    H127512   6.522   2.641   1.389  1.0730  1.0102  0.2435
 1959TIP3    H227513   6.653   2.578   1.347  2.2112  0.8695  3.6955
 1960TIP3   OH227514   6.265   1.531   1.541 -0.4284  0.4194  0.6611
 1960TIP3    H127515   6.262   1.554   1.448 -0.9385  0.4310  0.6786
 1960TIP3    H227516   6.352   1.493   1.553  1.3138  4.1374  1.0839
 1961TIP3   OH227517   4.071   6.230   1.549  0.6203 -0.2415 -0.5158
 1961TIP3    H127518   4.015   6.157   1.575  0.5928  0.3492  1.2395
 1961TIP3    H227519   4.140   6.233   1.616 -0.3669  2.3747  0.5246
 1962TIP3   OH227520   1.133   6.869   8.427  0.0376 -0.0155 -0.6476
 1962TIP3    H127521   1.123   6.810   8.501 -0.3410  0.8990  0.0432
 1962TIP3    H227522   1.177   6.946   8.463  0.1446  0.3101 -1.4422
 1963TIP3   OH227523   6.288   2.632   1.968  0.0665  0.2674 -0.2408
 1963TIP3    H127524   6.352   2.571   1.931 -0.6168 -0.5424 -0.1232
 1963TIP3    H227525   6.292   2.616   2.063  0.2439  0.7714 -0.1594
 1964TIP3   OH227526   0.907   5.083   7.445 -0.2670 -0.2469  0.4398
 1964TIP3    H127527   0.903   5.131   7.528  0.8738 -0.6465  0.7588
 1964TIP3    H227528   0.959   5.005   7.467  4.2891  1.8222 -1.6247
 1965TIP3   OH227529   3.036   2.958   1.425  0.5261  0.0183 -0.1482
 1965TIP3    H127530   3.038   2.975   1.519 -1.9862  0.6184 -0.1502
 1965TIP3    H227531   2.959   2.903   1.412 -0.6853  2.0574 -2.1259
 1966TIP3   OH227532   1.847   4.262   8.338 -0.0622 -0.1826  0.8170
 1966TIP3    H127533   1.793   4.203   8.392 -0.1531  1.1023  2.1988
 1966TIP3    H227534   1.785   4.329   8.308  0.7922  1.6767  2.9550
 1967TIP3   OH227535   5.958   4.724   7.688 -0.1496  0.7313 -0.4357
 1967TIP3    H127536   5.955   4.758   7.598  1.0464  1.4160 -0.2343
 1967TIP3    H227537   5.875   4.677   7.698  0.3941 -0.8041 -2.4671
 1968TIP3   OH227538   4.815   3.464   7.594 -0.7269  0.1354  0.4283
 1968TIP3    H127539   4.739   3.413   7.567  0.2117 -1.7933  1.2193
 1968TIP3    H227540   4.801   3.551   7.555 -4.1531  0.4208  1.9408
 1969TIP3   OH227541   6.051   6.814   0.536  0.2298 -0.3950 -0.7536
 1969TIP3    H127542   6.096   6.886   0.579 -0.9957  0.6199 -1.0947
 1969TIP3    H227543   6.010   6.765   0.607  1.5859 -1.1574 -0.4668
 1970TIP3   OH227544   6.458   3.901   1.964  0.2840  0.1225  0.1876
 1970TIP3    H127545   6.518   3.941   2.028 -0.0411  0.4846  0.2724
 1970TIP3    H227546   6.379   3.882   2.015  0.2304 -0.1143  0.0178
 1971TIP3   OH227547   6.120   3.144   7.886 -0.6963  0.4787 -0.4959
 1971TIP3    H127548   6.099   3.160   7.978 -0.7936  1.9334 -0.7415
 1971TIP3    H227549   6.052   3.085   7.855 -0.8648  0.2678  0.2670
 1972TIP3   OH227550   5.194   2.982   7.816 -0.5499 -0.8319 -0.9302
 1972TIP3    H127551   5.153   2.981   7.730 -0.4358 -1.2178 -0.9834
 1972TIP3    H227552   5.188   2.891   7.846 -2.1932 -0.3699  0.2450
 1973TIP3   OH227553   4.614   4.910   8.537  0.3204  0.2496  0.2496
 1973TIP3    H127554   4.599   5.004   8.549 -0.3156  0.0954  0.7348
 1973TIP3    H227555   4.541   4.868   8.582 -0.3031 -0.4589 -1.3379
 1974TIP3   OH227556   4.237   2.719   1.090  0.0125 -0.2175 -0.1953
 1974TIP3    H127557   4.248   2.626   1.070 -1.0374 -0.3356 -0.2929
 1974TIP3    H227558   4.222   2.760   1.005 -1.6140 -0.2888  0.0304
 1975TIP3   OH227559   3.195   0.851   0.271 -0.4432  0.1520  0.5059
 1975TIP3    H127560   3.167   0.936   0.305 -0.4812  0.3666 -0.0557
 1975TIP3    H227561   3.120   0.819   0.222 -0.6745 -0.5207  1.2731
 1976TIP3   OH227562   0.718   1.249   7.677 -0.4135 -0.6818  0.1990
 1976TIP3    H127563   0.753   1.209   7.757 -2.4575 -0.7472  1.1097
 1976TIP3    H227564   0.700   1.340   7.702  1.9041  0.2578 -1.1606
 1977TIP3   OH227565   4.250   5.073   8.589  0.0707  0.2960  0.5557
 1977TIP3    H127566   4.263   5.117   8.505  0.0360 -0.8386 -0.0624
 1977TIP3    H227567   4.165   5.102   8.619 -0.8903 -0.9088 -0.8562
 1978TIP3   OH227568   4.110   1.203   8.449 -0.3631  0.1551 -0.4604
 1978TIP3    H127569   4.053   1.151   8.505  0.1155  1.3150  1.1901
 1978TIP3    H227570   4.134   1.144   8.377 -1.2071 -1.3152  0.4221
 1979TIP3   OH227571   1.776   2.875   8.374  0.0978 -0.1960 -0.0191
 1979TIP3    H127572   1.775   2.931   8.451 -0.8102  1.2546 -1.0472
 1979TIP3    H227573   1.740   2.792   8.405  0.7994 -0.0076  1.3596
 1980TIP3   OH227574   2.510   5.271   7.985 -0.1464 -0.1176 -0.2147
 1980TIP3    H127575   2.475   5.233   7.904  1.1019 -0.6109 -0.5511
 1980TIP3    H227576   2.472   5.217   8.055 -0.4717 -0.3053 -0.5292
 1981TIP3   OH227577   3.232   1.337   7.368  0.4258  0.2421 -0.1906
 1981TIP3    H127578   3.203   1.402   7.305 -2.6916 -0.6067  0.1985
 1981TIP3    H227579   3.260   1.262   7.314 -0.5310  0.1730 -0.6102
 1982TIP3   OH227580   4.137   5.239   3.091  0.3025 -0.1973 -0.1359
 1982TIP3    H127581   4.140   5.155   3.045 -2.0599  0.2369 -1.2284
 1982TIP3    H227582   4.114   5.303   3.024 -0.6425  0.8960  1.1711
 1983TIP3   OH227583   2.048   2.295   2.255 -0.0827 -0.2375 -0.5259
 1983TIP3    H127584   2.086   2.252   2.179 -0.0699 -0.6673 -0.2797
 1983TIP3    H227585   1.963   2.327   2.225  0.4580  0.7257 -1.0800
 1984TIP3   OH227586   4.983   5.266   2.431  0.3575 -0.1159 -0.0466
 1984TIP3    H127587   5.041   5.212   2.377  1.3918  0.3624  0.5393
 1984TIP3    H227588   4.907   5.211   2.449  1.1505 -1.1844  0.1159
 1985TIP3   OH227589   2.582   4.820   7.379 -0.7325  0.1894 -0.0301
 1985TIP3    H127590   2.668   4.814   7.421 -0.7041 -0.7106 -0.2087
 1985TIP3    H227591   2.592   4.890   7.315  0.1426 -0.4939 -0.6736
 1986TIP3   OH227592   3.574   1.402   0.870  0.8093  0.1280  0.9941
 1986TIP3    H127593   3.639   1.430   0.935 -0.5764  0.1879  2.4133
 1986TIP3    H227594   3.513   1.475   0.865  2.1143  1.1844 -2.2301
 1987TIP3   OH227595   3.711   2.971   0.068 -0.3382 -1.0492  0.1750
 1987TIP3    H127596   3.629   3.019   0.082 -0.8519 -1.9040  0.1685
 1987TIP3    H227597   3.769   3.034   0.024 -1.9219 -1.2570 -2.3819
 1988TIP3   OH227598   1.484   5.237   1.450 -0.2701 -0.0142  0.1752
 1988TIP3    H127599   1.492   5.146   1.479  0.3936 -0.0992 -0.2647
 1988TIP3    H227600   1.427   5.233   1.373 -0.9238  0.0493  0.6474
 1989TIP3   OH227601   6.757   0.854   1.188  0.1857 -0.4688  0.1381
 1989TIP3    H127602   6.685   0.794   1.168  0.4600 -0.1378 -2.1736
 1989TIP3    H227603   6.834   0.811   1.150  0.5712  0.8022 -0.5642
 1990TIP3   OH227604   3.190   5.147   7.750 -0.1875  0.2820 -0.0617
 1990TIP3    H127605   3.239   5.201   7.688  1.0276 -1.2521 -0.5215
 1990TIP3    H227606   3.187   5.061   7.708 -0.4571 -0.4617  1.4473
 1991TIP3   OH227607   4.566   5.713   0.322 -0.2575 -0.0840  0.2784
 1991TIP3    H127608   4.627   5.773   0.278  0.3632 -0.1197  1.0569
 1991TIP3    H227609   4.520   5.768   0.385 -2.9029  0.4946 -1.9919
 1992TIP3   OH227610   4.230   3.171   0.672  0.1113 -0.1125 -0.0131
 1992TIP3    H127611   4.228   3.191   0.578  0.4052  2.7059  0.4818
 1992TIP3    H227612   4.154   3.216   0.708  0.3620 -0.6228  1.2022
 1993TIP3   OH227613   6.445   0.322   6.816 -0.2336 -0.0539 -0.3003
 1993TIP3    H127614   6.534   0.331   6.781 -0.2189  1.8727  0.1354
 1993TIP3    H227615   6.408   0.248   6.768  0.9720  0.2996 -1.8615
 1994TIP3   OH227616   2.637   2.406   2.229 -0.0608  0.4375  0.3015
 1994TIP3    H127617   2.570   2.394   2.296 -1.3867  1.3580 -0.8013
 1994TIP3    H227618   2.590   2.444   2.155  1.1322 -1.5977 -1.5925
 1995TIP3   OH227619   2.795   0.564   6.755  0.4389  0.6249 -0.5163
 1995TIP3    H127620   2.868   0.580   6.695  1.5909  1.0812  0.9398
 1995TIP3    H227621   2.801   0.634   6.820  0.9780 -1.3338  1.7241
 1996TIP3   OH227622   5.594   2.439   8.097  0.0317  0.3720  0.7798
 1996TIP3    H127623   5.670   2.394   8.059 -0.9246 -0.6620  0.0307
 1996TIP3    H227624   5.556   2.375   8.158 -1.2740  0.1773 -0.1998
 1997TIP3   OH227625   4.909   2.098   1.179 -0.2587  0.2379 -0.1397
 1997TIP3    H127626   4.882   2.077   1.269  0.2550 -0.6938 -0.1888
 1997TIP3    H227627   4.927   2.192   1.181  1.7686 -0.1069  1.2977
 1998TIP3   OH227628   1.360   5.736   8.652 -0.3725 -0.1823 -0.2815
 1998TIP3    H127629   1.269   5.764   8.639 -0.8122 -1.2116  0.4357
 1998TIP3    H227630   1.410   5.786   8.588 -1.0890  2.2445  0.9566
 1999TIP3   OH227631   0.368   2.482   0.945  0.4884  0.1568 -0.1664
 1999TIP3    H127632   0.407   2.398   0.968 -0.6495 -0.3889 -0.1624
 1999TIP3    H227633   0.423   2.547   0.989  1.1275 -0.6050  0.1778
 2000TIP3   OH227634   3.350   3.866   0.498  0.6515  0.1165  0.0100
 2000TIP3    H127635   3.388   3.937   0.447  0.1485 -0.0592 -0.6271
 2000TIP3    H227636   3.333   3.904   0.584 -0.2278  0.9565 -0.5194
 2001TIP3   OH227637   2.149   4.665   6.883 -0.7580 -0.1905 -0.3032
 2001TIP3    H127638   2.204   4.734   6.848 -3.0712  0.1170 -3.8138
 2001TIP3    H227639   2.176   4.586   6.837 -0.5376 -0.9232  1.0234
 2002TIP3   OH227640   5.605   0.051   7.382  0.3076 -0.6995  0.0866
 2002TIP3    H127641   5.678   0.112   7.375 -0.6454  0.5824  0.8304
 2002TIP3    H227642   5.558   0.060   7.300 -0.1522  0.0126  0.4214
 2003TIP3   OH227643   6.470   3.617   0.634  0.5508  0.8834 -0.3341
 2003TIP3    H127644   6.472   3.528   0.669 -2.9639  1.5258  2.0339
 2003TIP3    H227645   6.442   3.607   0.543 -0.1229 -0.4495  0.0002
 2004TIP3   OH227646   2.741   3.752   6.654 -0.2775 -0.0582 -0.0467
 2004TIP3    H127647   2.722   3.818   6.587 -0.5118  0.3095  0.3696
 2004TIP3    H227648   2.797   3.798   6.717 -1.3566  0.1070  0.8345
 2005TIP3   OH227649   0.727   3.462   1.882 -0.0536  0.5126  0.1960
 2005TIP3    H127650   0.748   3.430   1.794  3.2852 -2.7495  1.8977
 2005TIP3    H227651   0.810   3.492   1.918 -0.8946 -0.0259  2.8524
 2006TIP3   OH227652   4.914   4.690   7.720  0.2054 -0.2203 -0.0315
 2006TIP3    H127653   4.991   4.636   7.700 -0.3513 -0.3933 -1.9689
 2006TIP3    H227654   4.866   4.693   7.637  0.1743  3.2243 -0.0086
 2007TIP3   OH227655   4.132   0.534   8.337  0.2157 -0.4291 -0.2824
 2007TIP3    H127656   4.119   0.532   8.431 -1.9724 -1.0378 -0.5233
 2007TIP3    H227657   4.173   0.450   8.316  0.0659 -0.5883  0.0585
 2008TIP3   OH227658   2.901   1.968   1.803 -0.4269  0.1033 -0.5591
 2008TIP3    H127659   2.928   1.966   1.711  1.2232 -1.9252 -0.1119
 2008TIP3    H227660   2.864   2.055   1.815 -0.0513  0.6723 -2.9632
 2009TIP3   OH227661   3.571   4.187   7.815  0.1402  0.4903 -0.5817
 2009TIP3    H127662   3.481   4.152   7.814  0.4532 -0.3891  0.2692
 2009TIP3    H227663   3.626   4.109   7.809  0.8599  0.8155  1.1852
 2010TIP3   OH227664   0.308   5.960   8.465 -0.1745  0.2660 -0.0867
 2010TIP3    H127665   0.369   5.950   8.538 -2.3884  0.9728  1.9792
 2010TIP3    H227666   0.262   6.042   8.482 -2.3332 -0.6700 -1.0123
 2011TIP3   OH227667   4.391   3.761   8.191 -0.1737  0.1886 -0.1947
 2011TIP3    H127668   4.369   3.668   8.194 -0.0011  0.1517  2.7487
 2011TIP3    H227669   4.477   3.764   8.149  0.6730 -1.2372  1.3106
 2012TIP3   OH227670   5.397   6.235   1.075  0.2149 -0.1067  0.4117
 2012TIP3    H127671   5.319   6.207   1.026  0.5977  0.6537 -0.6567
 2012TIP3    H227672   5.385   6.329   1.086  0.6391 -0.1077  0.8979
 2013TIP3   OH227673   2.065   0.897   7.461 -0.4307 -0.1354  0.6388
 2013TIP3    H127674   2.153   0.890   7.425  0.5934  1.9224  2.5224
 2013TIP3    H227675   2.008   0.906   7.385  1.4168  2.1985 -0.5892
 2014TIP3   OH227676   1.367   0.435   8.647  0.3981 -0.4522  0.0660
 2014TIP3    H127677   1.352   0.510   8.590  0.8738 -0.9094 -0.6893
 2014TIP3    H227678   1.332   0.461   8.732  1.7203  1.1395  0.1828
 2015TIP3   OH227679   4.495   2.986   2.224  0.6870  0.1990 -0.3537
 2015TIP3    H127680   4.447   3.045   2.166 -0.4508 -2.3388 -2.2266
 2015TIP3    H227681   4.445   2.986   2.305  0.1233  1.0039 -0.6815
 2016TIP3   OH227682   3.675   3.883   7.571 -0.4541 -0.0606 -0.2982
 2016TIP3    H127683   3.660   3.953   7.507 -0.5323  1.2621  1.1209
 2016TIP3    H227684   3.734   3.921   7.636 -0.9738 -1.1111  0.8392
 2017TIP3   OH227685   2.824   2.225   8.469  0.3811  0.6168 -0.3383
 2017TIP3    H127686   2.769   2.179   8.533  1.2966 -0.5331 -0.3436
 2017TIP3    H227687   2.802   2.318   8.481 -1.2694  0.2260 -0.0957
 2018TIP3   OH227688   1.725   4.394   1.590 -0.1052 -0.6377  0.1317
 2018TIP3    H127689   1.792   4.329   1.613 -1.5530 -1.4690  2.3299
 2018TIP3    H227690   1.651   4.373   1.647 -1.0697  2.2396  0.0902
 2019TIP3   OH227691   3.229   0.501   1.535 -0.2612 -0.0985 -0.0454
 2019TIP3    H127692   3.204   0.557   1.609  0.1389  0.9922 -0.7141
 2019TIP3    H227693   3.155   0.507   1.475  0.7859  1.7400 -1.2377
 2020TIP3   OH227694   5.196   3.795   1.775  0.1064 -0.3049  0.1998
 2020TIP3    H127695   5.182   3.856   1.848 -0.3159 -0.4509  0.2431
 2020TIP3    H227696   5.196   3.709   1.817  0.0712 -0.3740  0.0559
 2021TIP3   OH227697   3.737   4.369   7.934 -0.2660  0.1311 -0.4695
 2021TIP3    H127698   3.812   4.321   7.969  0.1628  0.5470 -0.8097
 2021TIP3    H227699   3.685   4.302   7.889 -0.1593 -0.1748 -0.1496
 2022TIP3   OH227700   4.395   5.994   2.221  0.2902 -0.3817 -0.3803
 2022TIP3    H127701   4.458   6.046   2.270 -0.5946  0.2574  0.0967
 2022TIP3    H227702   4.449   5.940   2.163  1.2353  3.0632 -3.0258
 2023TIP3   OH227703   4.124   6.504   8.027  0.0155  0.2185 -0.0002
 2023TIP3    H127704   4.100   6.476   8.116 -1.7374  2.1194  0.1910
 2023TIP3    H227705   4.217   6.483   8.020 -0.0205 -0.8676  1.9179
 2024TIP3   OH227706   0.363   5.789   7.143 -0.4550 -0.0274 -0.1835
 2024TIP3    H127707   0.408   5.819   7.223 -0.2177 -1.2569  0.1663
 2024TIP3    H227708   0.348   5.869   7.093  2.0030  0.4965 -0.2542
 2025TIP3   OH227709   6.212   5.000   6.414  0.3685 -0.7451 -0.1159
 2025TIP3    H127710   6.134   4.948   6.395  1.2479 -1.6774 -1.3408
 2025TIP3    H227711   6.223   5.056   6.337  1.0203 -0.7634 -0.0406
 2026TIP3   OH227712   6.304   1.404   6.946  0.5536 -0.3121  0.9030
 2026TIP3    H127713   6.269   1.472   6.889  0.9110 -0.7492  0.1360
 2026TIP3    H227714   6.378   1.368   6.897  0.7782 -0.7986  1.5868
 2027TIP3   OH227715   6.088   1.443   8.390 -0.2951  0.5008 -0.2255
 2027TIP3    H127716   6.058   1.501   8.460 -0.5820 -0.3611  0.3705
 2027TIP3    H227717   6.183   1.444   8.397 -0.3549 -1.3231  1.6364
 2028TIP3   OH227718   6.341   0.168   0.836  0.1229  0.0194  0.2453
 2028TIP3    H127719   6.414   0.129   0.884  0.3757  1.7937  1.4084
 2028TIP3    H227720   6.270   0.104   0.842  1.2475 -1.2844 -0.0140
 2029TIP3   OH227721   6.895   5.523   0.743  0.3431  0.1466 -0.0220
 2029TIP3    H127722   6.862   5.483   0.824  0.1004 -0.9943 -0.6675
 2029TIP3    H227723   6.942   5.602   0.773 -1.4993  0.9088  1.0692
 2030TIP3   OH227724   4.838   2.338   0.664 -0.0358  0.1692  0.0580
 2030TIP3    H127725   4.822   2.424   0.627 -0.6610  0.2327  0.4424
 2030TIP3    H227726   4.833   2.352   0.759  1.3881 -0.0112  0.1670
 2031TIP3   OH227727   6.041   5.395   6.907 -0.4012  0.1024  0.4417
 2031TIP3    H127728   6.075   5.463   6.965  0.3152  1.5033 -1.5139
 2031TIP3    H227729   6.029   5.439   6.823 -1.2589 -1.8766 -0.5368
 2032TIP3   OH227730   6.859   1.756   2.052 -0.2466 -1.1843  0.2060
 2032TIP3    H127731   6.939   1.733   2.098 -0.7807 -1.7593  0.8640
 2032TIP3    H227732   6.872   1.847   2.026  1.5251 -1.8794 -1.6261
 2033TIP3   OH227733   5.168   6.162   0.943 -0.5120  0.2407 -0.7284
 2033TIP3    H127734   5.079   6.192   0.961 -1.3137 -2.5051  0.3310
 2033TIP3    H227735   5.161   6.119   0.858  0.6827  2.9982 -2.3633
 2034TIP3   OH227736   6.086   6.093   8.136 -0.3167 -0.2048 -0.1901
 2034TIP3    H127737   6.130   6.131   8.213 -1.0523 -0.1841  0.2298
 2034TIP3    H227738   6.084   5.999   8.155 -1.4640 -0.0913  0.3405
 2035TIP3   OH227739   3.329   4.059   7.767  0.0024 -0.3018 -0.6775
 2035TIP3    H127740   3.246   4.104   7.782  0.0649 -0.2641 -0.4335
 2035TIP3    H227741   3.323   4.027   7.677 -1.2463 -2.3264  0.0629
 2036TIP3   OH227742   0.946   0.649   1.138 -0.2883  0.1678 -0.1376
 2036TIP3    H127743   0.917   0.711   1.071  1.3389  0.8235 -0.2826
 2036TIP3    H227744   0.942   0.699   1.219 -0.9076 -0.1826  0.0494
 2037TIP3   OH227745   2.766   5.347   2.885 -0.1674 -0.4249  0.5009
 2037TIP3    H127746   2.847   5.353   2.936 -0.4180 -1.7237  1.0789
 2037TIP3    H227747   2.733   5.259   2.902 -1.5596 -0.0182  0.0421
 2038TIP3   OH227748   0.893   2.797   0.779 -0.6530  0.4060 -0.2428
 2038TIP3    H127749   0.944   2.750   0.846 -1.4587  0.3878  0.3630
 2038TIP3    H227750   0.926   2.761   0.696  1.2379  1.3171  0.0588
 2039TIP3   OH227751   0.302   3.896   7.531 -0.6515 -0.0911 -0.0357
 2039TIP3    H127752   0.216   3.938   7.529 -0.5735  0.0903  0.3173
 2039TIP3    H227753   0.331   3.904   7.622 -0.1734  0.0243 -0.1921
 2040TIP3   OH227754   2.078   1.931   7.238  0.3213  0.1776  0.4053
 2040TIP3    H127755   2.090   1.848   7.192  3.2342  0.1716  0.9907
 2040TIP3    H227756   2.097   1.998   7.172  0.0194  0.3273  0.4670
 2041TIP3   OH227757   5.699   4.257   0.645  0.5940 -0.2583 -0.3138
 2041TIP3    H127758   5.631   4.271   0.711  0.1188 -1.9145 -0.4104
 2041TIP3    H227759   5.715   4.343   0.607 -0.7493  0.3171  0.3987
 2042TIP3   OH227760   6.511   1.698   8.217  0.2301  0.2856  0.2655
 2042TIP3    H127761   6.590   1.752   8.205  0.6386 -0.0656  1.2097
 2042TIP3    H227762   6.462   1.708   8.136  2.2028 -1.0526 -1.1988
 2043TIP3   OH227763   6.106   3.155   8.659 -0.0300  0.4252  0.0390
 2043TIP3    H127764   6.025   3.152   8.710  1.3791  0.7077  2.4385
 2043TIP3    H227765   6.081   3.200   8.578 -2.1189  1.1353  0.9910
 2044TIP3   OH227766   1.421   1.165   6.529 -0.2180 -0.1995 -0.6095
 2044TIP3    H127767   1.341   1.114   6.523 -0.1018 -0.4503 -0.0678
 2044TIP3    H227768   1.407   1.240   6.471 -0.5039 -0.6923 -1.1846
 2045TIP3   OH227769   5.652   4.100   7.261  0.2192  0.6071  0.6321
 2045TIP3    H127770   5.682   4.077   7.173  0.0649  1.1481  0.4354
 2045TIP3    H227771   5.694   4.184   7.280  1.3390 -0.1535  1.6323
 2046TIP3   OH227772   0.391   3.558   7.719  0.2643 -0.3932  0.1026
 2046TIP3    H127773   0.477   3.579   7.682 -0.9186 -0.2668 -2.8103
 2046TIP3    H227774   0.351   3.498   7.656 -1.0420 -2.1156  2.4150
 2047TIP3   OH227775   1.520   0.615   0.405  0.4687 -0.2722  0.2068
 2047TIP3    H127776   1.585   0.575   0.463 -0.5934 -0.2088  1.4839
 2047TIP3    H227777   1.552   0.705   0.392  1.8920 -0.9189 -1.1916
 2048TIP3   OH227778   5.793   0.555   7.208  0.1949 -0.0475 -0.2281
 2048TIP3    H127779   5.831   0.468   7.200  0.1823 -0.0028 -0.7554
 2048TIP3    H227780   5.714   0.551   7.154 -0.4930 -0.1001  0.7374
 2049TIP3   OH227781   0.083   2.999   7.539 -0.5942 -0.3439 -0.1021
 2049TIP3    H127782   0.013   3.054   7.505 -0.8756 -0.1832  0.7194
 2049TIP3    H227783   0.050   2.910   7.530 -0.3889 -0.3463 -0.8687
 2050TIP3   OH227784   3.549   5.501   7.921 -0.1984  0.2226 -0.1471
 2050TIP3    H127785   3.551   5.507   7.826 -1.5417 -0.4771 -0.2486
 2050TIP3    H227786   3.616   5.436   7.942  0.1028  0.3782 -0.6072
 2051TIP3   OH227787   2.696   2.155   8.220  0.0214  0.3674  0.3365
 2051TIP3    H127788   2.733   2.186   8.138  1.5957  0.2682  0.9783
 2051TIP3    H227789   2.763   2.175   8.286 -1.2765  0.6165  1.6345
 2052TIP3   OH227790   3.484   6.558   1.191 -0.4021  0.5961  0.1267
 2052TIP3    H127791   3.548   6.504   1.146  0.1942  2.0752 -0.8844
 2052TIP3    H227792   3.490   6.531   1.283  1.2594  0.2811 -0.0379
 2053TIP3   OH227793   5.790   5.681   7.887  0.0541 -0.2997 -0.6632
 2053TIP3    H127794   5.871   5.668   7.838  0.1936  0.5621 -0.6696
 2053TIP3    H227795   5.725   5.703   7.820  0.2565  0.9327 -0.4706
 2054TIP3   OH227796   0.436   0.489   0.832  0.1891 -0.2086  0.2166
 2054TIP3    H127797   0.349   0.451   0.839  0.2169 -0.9029 -2.3559
 2054TIP3    H227798   0.427   0.559   0.768  1.2008  0.8689  1.2018
 2055TIP3   OH227799   5.584   4.266   1.311  0.2454  0.3051  0.6843
 2055TIP3    H127800   5.588   4.322   1.389  0.9134  0.6044  0.4456
 2055TIP3    H227801   5.607   4.179   1.343  0.7012  0.4629  0.7981
 2056TIP3   OH227802   4.878   1.807   0.934 -0.4569 -0.0335 -0.2212
 2056TIP3    H127803   4.920   1.765   1.009  1.7815 -0.5872 -1.6714
 2056TIP3    H227804   4.938   1.877   0.909 -1.1991  0.1956 -1.4532
 2057TIP3   OH227805   1.967   0.724   7.632 -0.1366  0.2050  0.4138
 2057TIP3    H127806   1.964   0.638   7.591 -2.6693  0.7505 -0.7143
 2057TIP3    H227807   2.006   0.781   7.565 -1.6103  0.5369 -0.2064
 2058TIP3   OH227808   4.514   0.089   1.755 -0.2548 -0.4083 -0.2055
 2058TIP3    H127809   4.536   0.148   1.827 -1.0485 -1.9370  1.3767
 2058TIP3    H227810   4.480   0.146   1.687 -1.6488  0.9589  1.5215
 2059TIP3   OH227811   6.776   5.231   1.990 -0.0796 -0.2636 -0.3288
 2059TIP3    H127812   6.773   5.145   2.031  2.7400 -0.6477 -0.7430
 2059TIP3    H227813   6.799   5.291   2.062  1.3309 -0.4200 -0.6077
 2060TIP3   OH227814   2.773   4.094   0.404  0.0357 -0.4984  0.1081
 2060TIP3    H127815   2.689   4.050   0.392  0.3772 -0.8501 -1.1198
 2060TIP3    H227816   2.755   4.186   0.382  0.2587 -0.8221 -1.5699
 2061TIP3   OH227817   0.111   6.393   1.120 -0.3485 -0.0711  0.3147
 2061TIP3    H127818   0.200   6.411   1.090 -0.2968  0.1821  0.6101
 2061TIP3    H227819   0.054   6.432   1.054 -0.2407 -0.0972  0.2073
 2062TIP3   OH227820   2.079   2.755   1.417 -0.2918  0.2389  0.5637
 2062TIP3    H127821   2.121   2.728   1.499 -1.6002 -2.4261  0.4889
 2062TIP3    H227822   2.133   2.716   1.348 -0.8049 -0.0390  0.3102
 2063TIP3   OH227823   6.225   6.609   6.801  0.3126  0.1452 -0.4723
 2063TIP3    H127824   6.190   6.697   6.786 -0.0729  0.0073 -0.3772
 2063TIP3    H227825   6.166   6.570   6.865 -0.0406 -0.5129 -1.1818
 2064TIP3   OH227826   0.573   0.769   8.431  0.0233  0.0953  0.5021
 2064TIP3    H127827   0.521   0.699   8.391 -1.2711  0.9986  0.5246
 2064TIP3    H227828   0.627   0.802   8.359  0.0144 -0.3672  0.2813
 2065TIP3   OH227829   6.393   2.360   0.016  0.2027 -0.5849  0.3857
 2065TIP3    H127830   6.364   2.435   0.067  0.6450 -0.5853  0.6438
 2065TIP3    H227831   6.417   2.295   0.082  2.4806  0.0452  0.2408
 2066TIP3   OH227832   5.402   2.344   7.503  0.1853 -0.3852 -0.2151
 2066TIP3    H127833   5.448   2.413   7.456 -1.0036 -0.0731 -0.9783
 2066TIP3    H227834   5.317   2.337   7.458 -0.5151 -0.9185  1.1319
 2067TIP3   OH227835   2.905   0.755   2.878  0.0398 -0.0689  0.7198
 2067TIP3    H127836   2.966   0.682   2.864  1.8310  1.3891  0.3935
 2067TIP3    H227837   2.962   0.832   2.883 -1.5528  1.0681  3.3777
 2068TIP3   OH227838   0.064   4.262   7.006 -0.0021 -0.1012  0.1412
 2068TIP3    H127839   0.010   4.282   6.930  0.7628 -1.6395 -0.8637
 2068TIP3    H227840   0.022   4.186   7.047  0.1287  0.1117  0.6793
 2069TIP3   OH227841   1.420   2.579   1.884 -0.3139  0.0647  0.6468
 2069TIP3    H127842   1.405   2.634   1.807  1.3583 -1.8698 -1.1706
 2069TIP3    H227843   1.510   2.599   1.910  0.4748 -2.0340 -0.3087
 2070TIP3   OH227844   3.570   5.604   7.638  0.4934  0.1029  0.1153
 2070TIP3    H127845   3.607   5.520   7.610  2.0187  1.4853 -2.2794
 2070TIP3    H227846   3.644   5.652   7.675  0.1345  1.1987 -0.5430
 2071TIP3   OH227847   5.170   1.213   6.859  0.4737 -0.2717 -0.0634
 2071TIP3    H127848   5.103   1.157   6.899 -0.2443  0.1885 -0.5863
 2071TIP3    H227849   5.240   1.153   6.834  0.8792 -0.5996  1.7195
 2072TIP3   OH227850   2.863   3.115   0.314  0.1317 -1.0353  0.2974
 2072TIP3    H127851   2.890   3.164   0.237  1.1482 -1.2191  0.5212
 2072TIP3    H227852   2.804   3.048   0.281 -0.8439 -0.0155 -0.0815
 2073TIP3   OH227853   1.390   3.303   0.388  0.0399  0.1083  0.7948
 2073TIP3    H127854   1.328   3.340   0.324 -0.8875  1.3241  2.3105
 2073TIP3    H227855   1.383   3.209   0.376 -0.6276  0.2882 -0.4229
 2074TIP3   OH227856   5.823   5.012   1.050  0.1266  0.3718 -0.3249
 2074TIP3    H127857   5.754   4.995   0.986  0.2178  0.2412 -0.3888
 2074TIP3    H227858   5.782   5.070   1.114 -0.1342  0.0466 -0.1960
 2075TIP3   OH227859   5.849   1.743   8.324  0.1186  0.0331 -0.0602
 2075TIP3    H127860   5.862   1.814   8.261  0.9907  0.5152  0.6396
 2075TIP3    H227861   5.897   1.669   8.287 -0.4749 -0.0962 -0.6018
 2076TIP3   OH227862   3.633   6.652   0.472 -0.3081  0.6083 -0.1809
 2076TIP3    H127863   3.675   6.589   0.531 -0.6576  0.0896 -0.4751
 2076TIP3    H227864   3.705   6.692   0.424 -0.1258 -0.2147 -0.6207
 2077TIP3   OH227865   1.525   1.733   7.143  0.2545 -0.2243 -0.5069
 2077TIP3    H127866   1.485   1.651   7.115 -0.9545 -0.0117  0.4853
 2077TIP3    H227867   1.541   1.721   7.237 -1.6864  1.2923  0.0911
 2078TIP3   OH227868   0.279   5.650   1.934 -0.8729  0.3655 -0.3711
 2078TIP3    H127869   0.192   5.625   1.964 -0.6716 -0.6083 -0.5544
 2078TIP3    H227870   0.331   5.658   2.015 -0.6077 -1.1737 -0.3514
 2079TIP3   OH227871   4.406   1.010   0.603 -0.8566  0.6227 -0.5613
 2079TIP3    H127872   4.466   1.027   0.676 -1.0823  1.0379 -0.4735
 2079TIP3    H227873   4.320   1.034   0.637 -0.7451  2.6619 -1.5789
 2080TIP3   OH227874   3.953   6.130   1.875  0.2038 -0.2746 -0.5224
 2080TIP3    H127875   4.014   6.105   1.945  0.3295  0.0468 -0.5168
 2080TIP3    H227876   3.945   6.225   1.883  1.0057 -0.0947 -1.5763
 2081TIP3   OH227877   5.961   1.155   7.821  0.4345  0.2217 -0.1396
 2081TIP3    H127878   5.967   1.153   7.726 -1.2943  1.3724 -0.2990
 2081TIP3    H227879   5.905   1.081   7.844  3.3159 -2.0187  0.3069
 2082TIP3   OH227880   6.653   2.928   7.382  0.1552 -0.5782  0.1630
 2082TIP3    H127881   6.673   2.995   7.316  1.6350 -0.9472  0.2119
 2082TIP3    H227882   6.579   2.880   7.344 -1.3839  1.4279  0.4043
 2083TIP3   OH227883   0.435   4.293   7.319 -0.1819  0.6408  0.1928
 2083TIP3    H127884   0.345   4.298   7.287 -0.9496 -1.0442  1.9231
 2083TIP3    H227885   0.474   4.220   7.272 -0.0638  0.6949  0.2062
 2084TIP3   OH227886   4.350   6.759   0.125  0.0921  0.8034 -0.4205
 2084TIP3    H127887   4.323   6.722   0.041  0.5443 -0.3506 -0.0796
 2084TIP3    H227888   4.446   6.756   0.122  0.1072  0.5537  0.2124
 2085TIP3   OH227889   2.149   6.883   6.448  0.1971 -0.7637 -0.1682
 2085TIP3    H127890   2.204   6.856   6.522 -1.4537  1.4127  2.0148
 2085TIP3    H227891   2.203   6.945   6.399  1.1952 -1.9737 -0.6235
 2086TIP3   OH227892   4.822   5.184   6.945  0.0294  0.2576  0.0149
 2086TIP3    H127893   4.755   5.222   6.888 -0.3304 -1.3435 -0.7115
 2086TIP3    H227894   4.778   5.174   7.030 -1.2784 -2.2313 -0.8547
 2087TIP3   OH227895   1.711   0.013   7.037  0.3153  0.1319 -0.2298
 2087TIP3    H127896   1.642   0.058   7.086 -1.2706 -1.3196 -1.0424
 2087TIP3    H227897   1.703   0.048   6.948  0.8507  0.1798 -0.2635
 2088TIP3   OH227898   5.217   5.622   2.643 -0.1872  0.4658 -0.1951
 2088TIP3    H127899   5.141   5.566   2.658  0.8836 -0.6080  1.5359
 2088TIP3    H227900   5.262   5.582   2.569 -1.2476  1.1052 -1.2328
 2089TIP3   OH227901   1.925   4.165   0.879 -0.3388  0.4978  0.2512
 2089TIP3    H127902   1.910   4.175   0.785 -0.2190  0.8855  0.2718
 2089TIP3    H227903   1.850   4.210   0.920 -0.7022 -0.1800  0.3396
 2090TIP3   OH227904   3.906   1.473   2.208  0.0486 -0.7971 -0.2850
 2090TIP3    H127905   3.829   1.514   2.248  0.6143 -1.1370  1.2023
 2090TIP3    H227906   3.975   1.539   2.216  0.5244 -1.3749  0.5992
 2091TIP3   OH227907   2.288   0.028   7.271 -0.1591 -0.0236 -0.2985
 2091TIP3    H127908   2.284  -0.067   7.284 -0.8444  0.1040  0.5668
 2091TIP3    H227909   2.201   0.059   7.297 -0.2602  0.7454 -1.5094
 2092TIP3   OH227910   5.022   2.899   0.371 -0.2304  0.1790 -0.0582
 2092TIP3    H127911   5.024   2.993   0.351 -0.0315  0.0491 -0.6852
 2092TIP3    H227912   5.113   2.876   0.389 -0.5087  0.4609  1.9018
 2093TIP3   OH227913   3.824   0.100   2.229 -0.3160 -0.2468  0.3432
 2093TIP3    H127914   3.822   0.144   2.145 -2.2660  2.0163  1.4514
 2093TIP3    H227915   3.908   0.054   2.231 -0.6441 -1.2595 -3.1765
 2094TIP3   OH227916   4.148   5.165   1.754 -0.2190 -0.3408  0.1412
 2094TIP3    H127917   4.123   5.076   1.730  1.1222 -0.8801  0.6421
 2094TIP3    H227918   4.137   5.216   1.673  0.7272 -1.3533 -0.6617
 2095TIP3   OH227919   6.900   6.787   1.331  0.2855 -0.1838  0.1626
 2095TIP3    H127920   6.947   6.749   1.405  0.4534  1.7143  1.0964
 2095TIP3    H227921   6.816   6.740   1.329  1.1363 -1.7559  0.1455
 2096TIP3   OH227922   3.198   1.264   6.668  0.0036  0.4944  0.1918
 2096TIP3    H127923   3.215   1.193   6.605 -1.1787  0.2115  0.1649
 2096TIP3    H227924   3.103   1.259   6.684  0.0610  1.4853  0.8985
 2097TIP3   OH227925   4.730   5.002   8.073 -0.2391 -0.5450  0.3493
 2097TIP3    H127926   4.800   4.999   8.139  0.2723 -0.5878 -0.1875
 2097TIP3    H227927   4.775   5.025   7.992 -1.2331  2.5616  0.5385
 2098TIP3   OH227928   6.132   3.637   1.070 -0.0640 -0.1322  0.6863
 2098TIP3    H127929   6.059   3.686   1.033  0.0655  0.1941  0.8544
 2098TIP3    H227930   6.179   3.602   0.994 -0.1513  0.0154  0.5642
 2099TIP3   OH227931   5.186   5.287   0.677  0.1180  0.1132  0.5049
 2099TIP3    H127932   5.124   5.244   0.736 -0.0474 -0.6586 -0.1994
 2099TIP3    H227933   5.270   5.244   0.693  0.4261  0.9688  1.2619
 2100TIP3   OH227934   3.815   6.826   1.094  0.0008 -0.5696 -1.0666
 2100TIP3    H127935   3.798   6.919   1.084  0.1209 -0.2750  0.9900
 2100TIP3    H227936   3.767   6.801   1.173  0.1125 -2.2147 -1.4765
 2101TIP3   OH227937   6.799   2.423   7.999 -0.1247 -0.6563  0.0532
 2101TIP3    H127938   6.881   2.403   7.954 -0.2679 -0.0302 -0.5126
 2101TIP3    H227939   6.794   2.360   8.070  2.5259  1.3884  2.2534
 2102TIP3   OH227940   2.540   3.467   6.438  0.0789  1.1776 -0.0200
 2102TIP3    H127941   2.445   3.475   6.432 -0.2881 -1.4796  1.0531
 2102TIP3    H227942   2.571   3.482   6.348 -1.4301  1.2199 -0.5632
 2103TIP3   OH227943   4.187   3.978   1.638 -0.4665  0.3424  0.2793
 2103TIP3    H127944   4.145   4.060   1.666 -0.3367  0.8471 -0.9073
 2103TIP3    H227945   4.275   4.005   1.612 -0.5716 -0.0843 -0.5506
 2104TIP3   OH227946   0.369   6.279   0.917  0.5176  0.3166  0.6054
 2104TIP3    H127947   0.418   6.334   0.977  1.3201 -1.1856  1.3896
 2104TIP3    H227948   0.332   6.339   0.853  1.0918  1.7702  1.6034
 2105TIP3   OH227949   0.370   3.214   0.569  0.4678 -0.0309 -0.4200
 2105TIP3    H127950   0.328   3.288   0.526 -0.5424  0.3492  1.1685
 2105TIP3    H227951   0.444   3.252   0.616  0.7198 -0.2303 -0.6531
 2106TIP3   OH227952   2.894   6.125   1.369 -0.1563 -0.3332 -0.2086
 2106TIP3    H127953   2.952   6.101   1.297 -0.7536  0.3963 -0.9455
 2106TIP3    H227954   2.805   6.111   1.334 -0.5030  1.7493 -0.2751
 2107TIP3   OH227955   1.333   4.658   1.639  0.0212  0.3598 -0.4178
 2107TIP3    H127956   1.291   4.640   1.724 -0.4140 -0.2350 -0.7505
 2107TIP3    H227957   1.305   4.585   1.583  0.2070  0.8129 -1.1081
 2108TIP3   OH227958   2.700   1.350   0.471  0.1837 -0.3790  0.3928
 2108TIP3    H127959   2.746   1.397   0.541  0.5418  0.6719 -0.5257
 2108TIP3    H227960   2.618   1.397   0.460  0.7578  0.3936 -0.8741
 2109TIP3   OH227961   3.302   6.608   6.987 -0.5996 -0.1769 -0.2993
 2109TIP3    H127962   3.286   6.621   6.893 -1.4352 -1.9636 -0.4493
 2109TIP3    H227963   3.273   6.519   7.004 -0.3625  0.0737  1.6603
 2110TIP3   OH227964   6.646   0.784   6.381  0.0567  0.2760  0.0555
 2110TIP3    H127965   6.612   0.868   6.411  0.7388  0.4612  0.3153
 2110TIP3    H227966   6.735   0.803   6.352 -0.6198  0.1627 -2.3347
 2111TIP3   OH227967   0.758   6.145   0.653  0.1353  0.5132  0.7017
 2111TIP3    H127968   0.666   6.154   0.628 -0.1780 -1.4016  1.0066
 2111TIP3    H227969   0.791   6.235   0.659 -1.8893  1.2610  1.2431
 2112TIP3   OH227970   3.063   6.038   2.203  0.2050 -0.2598 -0.0768
 2112TIP3    H127971   3.008   5.976   2.250 -1.5555  2.3964  1.5979
 2112TIP3    H227972   3.019   6.050   2.119 -0.3271 -0.1271  0.2149
 2113TIP3   OH227973   5.115   4.393   0.956  0.0163 -0.3053 -0.7716
 2113TIP3    H127974   5.152   4.314   0.996  1.2539 -0.3697 -1.9881
 2113TIP3    H227975   5.158   4.465   1.001  1.6727 -0.3807 -2.1577
 2114TIP3   OH227976   5.890   4.834   7.401  0.0833 -0.2520 -0.2386
 2114TIP3    H127977   5.925   4.829   7.312 -0.8654 -0.4556 -0.6205
 2114TIP3    H227978   5.800   4.864   7.389  0.4166  1.2660  0.7818
 2115TIP3   OH227979   4.518   3.893   1.278 -0.0288 -0.3151  0.1980
 2115TIP3    H127980   4.465   3.849   1.344 -0.6745 -0.0262 -0.1232
 2115TIP3    H227981   4.604   3.851   1.285 -0.0970 -0.3190  1.1804
 2116TIP3   OH227982   4.873   5.220   1.521 -0.4914 -0.3821  0.0516
 2116TIP3    H127983   4.954   5.208   1.471 -0.3188 -1.6133  0.5841
 2116TIP3    H227984   4.880   5.308   1.558 -0.0892  0.0992 -1.1291
 2117TIP3   OH227985   0.017   6.540   6.620  0.2382  0.1411 -0.0821
 2117TIP3    H127986   0.006   6.493   6.537  0.4651  0.5489 -0.3479
 2117TIP3    H227987   0.090   6.495   6.663 -0.5612 -0.7483  0.3903
 2118TIP3   OH227988   1.265   3.444   2.017  0.1769 -0.1072  0.2502
 2118TIP3    H127989   1.235   3.458   2.106  0.0819  0.8335  0.0768
 2118TIP3    H227990   1.216   3.367   1.987 -2.3734  1.5444 -0.1288
 2119TIP3   OH227991   2.568   5.928   7.646  0.0841 -0.2453 -0.1532
 2119TIP3    H127992   2.512   5.972   7.583  1.4152  1.1276 -0.4543
 2119TIP3    H227993   2.654   5.923   7.603  0.6889 -0.4897  1.0277
 2120TIP3   OH227994   4.493   1.015   1.397  0.1984  0.2919  0.0005
 2120TIP3    H127995   4.578   0.993   1.360 -0.2336  0.3343 -1.0648
 2120TIP3    H227996   4.513   1.063   1.477  1.1616 -0.4970  0.2431
 2121TIP3   OH227997   2.924   3.164   7.450 -0.3405  0.4092 -0.3947
 2121TIP3    H127998   3.003   3.160   7.396 -0.8270 -0.9644 -1.0573
 2121TIP3    H227999   2.856   3.124   7.395 -0.8604 -1.0470  1.2262
 2122TIP3   OH228000   2.554   2.971   6.464 -0.2280  0.0401 -0.0687
 2122TIP3    H128001   2.648   2.983   6.477 -0.2651  0.5839 -0.2638
 2122TIP3    H228002   2.544   2.877   6.451  0.4569  0.1074 -1.2642
 2123TIP3   OH228003   1.187   2.900   1.509  0.2656  0.6413 -0.3912
 2123TIP3    H128004   1.238   2.970   1.550 -0.6209  0.7297  0.5993
 2123TIP3    H228005   1.096   2.928   1.517 -0.1155 -0.6444  0.1126
 2124TIP3   OH228006   2.987   2.023   0.690 -0.1776 -0.1104  0.0378
 2124TIP3    H128007   2.984   1.943   0.638 -0.0234 -0.2985  0.3189
 2124TIP3    H228008   3.074   2.060   0.672 -0.6562  0.5884 -0.9730
 2125TIP3   OH228009   4.280   2.268   7.944 -0.2975 -0.0954  0.1100
 2125TIP3    H128010   4.229   2.239   8.020  1.1190 -1.6233  0.5393
 2125TIP3    H228011   4.346   2.326   7.981 -1.2535  1.3480 -0.3576
 2126TIP3   OH228012   4.283   4.619   8.070 -0.5290  0.1791  0.0842
 2126TIP3    H128013   4.290   4.547   8.132 -0.1877 -0.2992 -0.5063
 2126TIP3    H228014   4.234   4.687   8.117  0.5109  0.1748  1.1848
 2127TIP3   OH228015   1.449   2.056   7.173 -0.6382 -0.3559  0.1932
 2127TIP3    H128016   1.415   1.967   7.181  1.2080 -1.1984 -0.8185
 2127TIP3    H228017   1.386   2.101   7.116 -0.4979 -1.6441 -1.0257
 2128TIP3   OH228018   5.992   6.307   1.357 -0.2119  0.1496  0.0396
 2128TIP3    H128019   6.071   6.253   1.357 -0.9036 -0.9665 -1.4871
 2128TIP3    H228020   5.920   6.243   1.362 -1.0420  1.0408 -0.1994
 2129TIP3   OH228021   4.688   6.591   8.578  0.1030  0.0476  0.3133
 2129TIP3    H128022   4.767   6.559   8.622  0.6410  1.2927  0.3040
 2129TIP3    H228023   4.647   6.650   8.641  0.7802  1.6956 -0.7313
 2130TIP3   OH228024   2.990   1.517   8.423 -0.1303 -0.2014 -0.4477
 2130TIP3    H128025   3.072   1.509   8.472  0.6708 -0.0342 -1.7233
 2130TIP3    H228026   2.922   1.496   8.487  0.8443  0.4606  0.8448
 2131TIP3   OH228027   2.742   5.506   1.215 -0.4505  0.3675 -0.0710
 2131TIP3    H128028   2.804   5.526   1.285  0.5934 -0.9574 -0.5633
 2131TIP3    H228029   2.697   5.426   1.245  0.1665 -0.3417 -0.9741
 2132TIP3   OH228030   1.041   5.309   2.276  0.2310  0.4168 -0.2969
 2132TIP3    H128031   1.049   5.220   2.241 -0.3518 -0.6245  1.9930
 2132TIP3    H228032   1.080   5.304   2.363  0.4532  2.5024 -0.2296
 2133TIP3   OH228033   3.312   4.945   1.097  0.1545  0.1684 -0.8301
 2133TIP3    H128034   3.336   5.031   1.131 -0.6326  0.1239 -0.1462
 2133TIP3    H228035   3.394   4.895   1.098  0.6943  1.0112 -1.5779
 2134TIP3   OH228036   2.984   0.689   0.194 -0.0321  0.4583 -0.0843
 2134TIP3    H128037   2.990   0.610   0.141  0.1309  0.2076  0.2990
 2134TIP3    H228038   2.894   0.719   0.184 -0.0179  0.3767 -0.4481
 2135TIP3   OH228039   1.503   1.941   8.194  0.2900  0.0215 -0.2585
 2135TIP3    H128040   1.581   1.885   8.199  1.4474  1.6198  0.6566
 2135TIP3    H228041   1.538   2.029   8.175 -1.2015  0.9303  0.9535
 2136TIP3   OH228042   2.068   1.417   0.912  0.0502  0.5543  0.3724
 2136TIP3    H128043   2.000   1.396   0.848  1.4790 -0.8505 -0.7914
 2136TIP3    H228044   2.128   1.342   0.909  0.9216  1.0838  2.3718
 2137TIP3   OH228045   6.063   2.718   8.086  0.4802 -0.4267 -0.6727
 2137TIP3    H128046   6.085   2.756   8.001 -0.8633  0.3792 -0.6819
 2137TIP3    H228047   6.148   2.698   8.126  1.2624  2.3433 -0.7713
 2138TIP3   OH228048   5.804   4.974   8.226  0.7509  0.6721 -0.2484
 2138TIP3    H128049   5.891   4.975   8.267  0.5466 -0.0688  0.2236
 2138TIP3    H228050   5.811   4.908   8.156  1.3276  2.4659 -1.9821
 2139TIP3   OH228051   6.351   5.602   8.136  0.0616  0.1986 -0.2044
 2139TIP3    H128052   6.442   5.627   8.151 -0.0563  0.5482 -0.0840
 2139TIP3    H228053   6.324   5.560   8.218 -0.1039  0.7289  0.0155
 2140TIP3   OH228054   2.461   2.418   2.448  0.0477  0.4184  0.1973
 2140TIP3    H128055   2.421   2.498   2.414  0.2318  0.3715 -0.1368
 2140TIP3    H228056   2.388   2.367   2.483 -0.2643  0.1190 -0.8317
 2141TIP3   OH228057   3.233   2.101   1.044  0.1374  0.1195  0.1903
 2141TIP3    H128058   3.240   2.196   1.040  0.7866  0.0495 -0.4088
 2141TIP3    H228059   3.138   2.085   1.044 -0.0307  0.6998 -2.0629
 2142TIP3   OH228060   4.154   0.264   0.036 -0.1138 -0.0241 -0.4507
 2142TIP3    H128061   4.105   0.327   0.089 -0.5563 -1.7972  1.3848
 2142TIP3    H228062   4.088   0.206  -0.001  0.4073 -0.9599  0.0332
 2143TIP3   OH228063   4.696   4.729   0.563 -0.3342  0.5197 -0.5252
 2143TIP3    H128064   4.626   4.747   0.501 -0.8267 -1.8978 -0.7832
 2143TIP3    H228065   4.695   4.803   0.624 -2.6661  0.8602 -0.9006
 2144TIP3   OH228066   3.448   3.619   6.578  0.1448  0.1048 -0.5739
 2144TIP3    H128067   3.353   3.628   6.573  0.2207  0.4583 -1.3675
 2144TIP3    H228068   3.470   3.560   6.506  0.7922  2.0446 -2.0441
 2145TIP3   OH228069   4.425   1.608   2.042 -0.0388 -0.1012 -0.4032
 2145TIP3    H128070   4.336   1.641   2.057 -0.1946  0.1674 -1.8616
 2145TIP3    H228071   4.448   1.638   1.955  1.3397 -0.5292 -0.2068
 2146TIP3   OH228072   0.847   2.445   1.355 -0.4186 -0.1229 -0.2048
 2146TIP3    H128073   0.922   2.448   1.296  1.1399  0.7171  1.6873
 2146TIP3    H228074   0.813   2.356   1.346  1.7802 -1.0591 -0.0546
 2147TIP3   OH228075   1.866   3.438   8.172 -0.5478 -0.5688  0.5351
 2147TIP3    H128076   1.790   3.417   8.118  0.1946 -0.2739 -0.6857
 2147TIP3    H228077   1.902   3.518   8.133 -0.4818  0.1643  2.0325
 2148TIP3   OH228078   5.533   2.129   0.500 -0.2733  0.2572  0.4719
 2148TIP3    H128079   5.613   2.099   0.455  1.0024  1.7146  1.6504
 2148TIP3    H228080   5.515   2.061   0.565 -0.9543 -0.8557 -0.8192
 2149TIP3   OH228081   5.805   4.396   6.992 -0.5778 -0.0393 -0.0958
 2149TIP3    H128082   5.828   4.489   6.996  0.6915 -0.3740  0.6368
 2149TIP3    H228083   5.734   4.393   6.927  1.1031  1.1132 -2.1476
 2150TIP3   OH228084   5.361   1.442   0.697 -0.6222  0.0688  0.3567
 2150TIP3    H128085   5.401   1.517   0.740 -1.5007  1.4528 -1.1193
 2150TIP3    H228086   5.297   1.409   0.760 -0.9375  1.1943  0.6368
 2151TIP3   OH228087   1.501   2.838   0.438 -0.1979 -0.1089  0.3024
 2151TIP3    H128088   1.514   2.816   0.530 -1.3074 -2.5670 -0.0261
 2151TIP3    H228089   1.580   2.885   0.412  0.6655 -0.4402  2.2053
 2152TIP3   OH228090   2.939   5.846   0.725  0.0741  0.0609  0.9166
 2152TIP3    H128091   3.021   5.896   0.726 -1.4101  2.7537 -0.5338
 2152TIP3    H228092   2.871   5.911   0.742 -1.9127 -1.7656  0.3844
 2153TIP3   OH228093   4.183   0.082   2.069 -0.0933 -0.1631 -0.3338
 2153TIP3    H128094   4.122   0.031   2.016 -1.7779 -1.9778  3.0280
 2153TIP3    H228095   4.260   0.026   2.078  0.0545  0.0011 -0.5666
 2154TIP3   OH228096   1.712   0.419   1.672 -0.7364  0.3740 -0.0045
 2154TIP3    H128097   1.661   0.431   1.592 -1.8529 -0.2083  0.5925
 2154TIP3    H228098   1.715   0.324   1.684 -0.5272  0.4541  0.6024
 2155TIP3   OH228099   6.640   4.220   8.599  0.0950  0.3369 -0.0256
 2155TIP3    H128100   6.722   4.219   8.550  0.0490  1.1352 -0.1385
 2155TIP3    H228101   6.575   4.185   8.538  0.4697 -0.9933  0.3129
 2156TIP3   OH228102   0.830   2.709   6.376  0.0979 -0.0864  0.1530
 2156TIP3    H128103   0.803   2.701   6.284 -0.6665 -0.7413  0.4328
 2156TIP3    H228104   0.757   2.754   6.419  1.2534  2.0297  0.0826
 2157TIP3   OH228105   3.582   4.682   8.370  0.3036  0.4549 -0.2734
 2157TIP3    H128106   3.593   4.604   8.315 -0.0332  1.7830 -2.3322
 2157TIP3    H228107   3.618   4.754   8.318  0.8981  1.6622  1.6982
 2158TIP3   OH228108   1.366   2.932   7.357 -0.1240  0.5192 -0.3933
 2158TIP3    H128109   1.393   2.841   7.369  0.7822  0.5911 -1.6886
 2158TIP3    H228110   1.441   2.983   7.388 -1.4687  0.9548  2.4958
 2159TIP3   OH228111   2.725   0.824   0.058 -0.6257  0.2082 -0.3007
 2159TIP3    H128112   2.783   0.899   0.049  0.5216 -0.6267 -0.1256
 2159TIP3    H228113   2.655   0.854   0.117 -0.2650  1.1704 -0.3573
 2160TIP3   OH228114   5.485   2.860   2.228 -0.1505  0.1946  0.1767
 2160TIP3    H128115   5.403   2.889   2.188  0.6846  1.1292 -0.9110
 2160TIP3    H228116   5.552   2.915   2.188  1.0092 -0.4964  1.1118
 2161TIP3   OH228117   1.030   6.364   6.565  0.7350  0.7231 -0.4316
 2161TIP3    H128118   0.983   6.287   6.594  1.9501  0.6878  1.6389
 2161TIP3    H228119   1.095   6.331   6.503  0.7338  0.1968 -0.1535
 2162TIP3   OH228120   4.008   5.767   8.643 -0.1789 -0.2019 -0.0657
 2162TIP3    H128121   3.927   5.776   8.692 -0.5614  1.2240 -0.8923
 2162TIP3    H228122   4.056   5.848   8.660 -0.8418  0.9047 -2.8368
 2163TIP3   OH228123   0.536   4.830   7.153  0.7381  0.5753  0.2194
 2163TIP3    H128124   0.507   4.740   7.168  0.5127  0.8820  1.7947
 2163TIP3    H228125   0.460   4.873   7.114 -0.3362  0.8630  2.4666
 2164TIP3   OH228126   3.104   6.718   0.319  0.2291 -0.2182 -0.3360
 2164TIP3    H128127   3.177   6.671   0.359  1.3000  0.9449 -0.8360
 2164TIP3    H228128   3.115   6.705   0.225 -0.3126 -0.1812 -0.4080
 2165TIP3   OH228129   1.418   2.956   1.165  0.9273 -0.2999 -0.4090
 2165TIP3    H128130   1.439   2.863   1.158  1.1133 -0.2113 -1.1732
 2165TIP3    H228131   1.478   2.989   1.231  1.4191 -0.5680 -0.7120
 2166TIP3   OH228132   2.011   3.417   7.678  0.0061 -0.1956  0.4747
 2166TIP3    H128133   2.032   3.413   7.771  0.8483  0.2729  0.3154
 2166TIP3    H228134   1.937   3.477   7.672  1.3517  1.5698  0.6449
 2167TIP3   OH228135   5.199   0.809   2.001 -0.4856  0.1738  0.2275
 2167TIP3    H128136   5.237   0.877   2.057  1.1887 -0.6265  0.1284
 2167TIP3    H228137   5.177   0.738   2.061 -0.8266  0.2191  0.1536
 2168TIP3   OH228138   4.742   6.613   7.949  0.1598  0.5472  0.1964
 2168TIP3    H128139   4.721   6.535   8.001 -1.4912  1.3597  0.7870
 2168TIP3    H228140   4.808   6.582   7.886 -0.6079 -1.3747  0.2772
 2169TIP3   OH228141   6.014   2.594   1.043  0.4238  0.2142 -0.1275
 2169TIP3    H128142   5.924   2.563   1.048  0.0504  0.7553 -2.5576
 2169TIP3    H228143   6.067   2.518   1.068 -0.6067 -1.3519 -2.3510
 2170TIP3   OH228144   3.186   0.966   8.479 -0.3530 -0.4429  0.4656
 2170TIP3    H128145   3.250   0.946   8.547  0.5766 -0.0797 -0.2724
 2170TIP3    H228146   3.131   1.035   8.517  1.0166  0.7512  0.3778
 2171TIP3   OH228147   0.645   3.924   8.502  0.5414 -0.3873 -0.7464
 2171TIP3    H128148   0.631   3.852   8.563  1.3706  0.5591  0.6185
 2171TIP3    H228149   0.739   3.921   8.483  1.1009  1.7552  1.2637
 2172TIP3   OH228150   2.298   1.828   1.415  0.4950  0.6025 -0.0672
 2172TIP3    H128151   2.337   1.848   1.500 -1.7566  2.5481  0.5966
 2172TIP3    H228152   2.312   1.907   1.363  0.7585 -0.1157 -1.1283
 2173TIP3   OH228153   0.919   1.555   2.157 -0.3538 -0.0348  0.2905
 2173TIP3    H128154   0.942   1.590   2.072 -0.4059 -0.0512  0.2697
 2173TIP3    H228155   0.927   1.460   2.147 -0.1848 -0.0295  0.3547
 2174TIP3   OH228156   0.399   2.508   7.277  0.3507 -0.6567 -0.8904
 2174TIP3    H128157   0.326   2.450   7.299  0.8276 -1.3195 -1.0342
 2174TIP3    H228158   0.365   2.596   7.295 -0.5932 -0.9269 -1.2717
 2175TIP3   OH228159   4.783   0.553   1.516  0.2951  0.5865 -0.5091
 2175TIP3    H128160   4.715   0.578   1.579  0.3654 -3.5291  1.4848
 2175TIP3    H228161   4.865   0.576   1.559  0.4147 -3.3191  1.8388
 2176TIP3   OH228162   1.920   6.674   1.784 -0.4364 -0.1379  0.2706
 2176TIP3    H128163   1.953   6.588   1.812  0.0689 -0.2536 -0.6529
 2176TIP3    H228164   1.878   6.658   1.700 -1.6710  0.2678  0.7833
 2177TIP3   OH228165   0.795   0.428   8.355  0.2612 -0.4236  0.2264
 2177TIP3    H128166   0.850   0.358   8.388  0.3610 -0.2161  0.5003
 2177TIP3    H228167   0.852   0.478   8.297 -0.1376 -1.2782 -0.9445
 2178TIP3   OH228168   1.627   6.238   8.237 -0.3400 -0.0566 -0.5663
 2178TIP3    H128169   1.716   6.270   8.225 -0.1381 -0.4129 -0.0503
 2178TIP3    H228170   1.624   6.208   8.328 -1.3948  1.2198 -0.1401
 2179TIP3   OH228171   5.987   6.786   7.912  0.5220  0.4735 -0.0619
 2179TIP3    H128172   5.914   6.725   7.922  0.9286  0.1635  1.0912
 2179TIP3    H228173   5.957   6.868   7.952  0.1968  0.8752 -1.0851
 2180TIP3   OH228174   3.821   2.130   1.428  0.1001 -0.0498  0.3535
 2180TIP3    H128175   3.875   2.113   1.350 -1.8336 -1.5161 -0.7475
 2180TIP3    H228176   3.849   2.063   1.491  1.1141  0.6454  0.6803
 2181TIP3   OH228177   3.678   2.989   0.975 -0.3200  0.1620 -0.0250
 2181TIP3    H128178   3.695   2.978   0.881  1.1786  1.7953  0.0013
 2181TIP3    H228179   3.598   3.041   0.980 -0.0941  0.5466 -0.4093
 2182TIP3   OH228180   5.908   3.242   0.165  0.3337 -0.1220  0.0244
 2182TIP3    H128181   5.975   3.276   0.225  0.2952 -0.7007  0.4009
 2182TIP3    H228182   5.912   3.147   0.176  2.3074 -0.5058 -2.9664
 2183TIP3   OH228183   1.945   5.504   1.338 -0.2192 -0.4541 -0.2291
 2183TIP3    H128184   2.012   5.461   1.285 -0.9917 -2.5858  0.3896
 2183TIP3    H228185   1.886   5.433   1.364 -1.5046  0.9881  1.0372
 2184TIP3   OH228186   1.625   0.634   1.821 -0.0240  0.0052 -0.2866
 2184TIP3    H128187   1.582   0.595   1.898  0.4473 -0.5169 -0.2791
 2184TIP3    H228188   1.666   0.560   1.777 -1.9672 -0.0477 -2.1759
 2185TIP3   OH228189   0.447   3.042   8.317 -0.1119  0.2810 -0.1235
 2185TIP3    H128190   0.505   3.066   8.245 -0.3676 -1.6225 -1.0481
 2185TIP3    H228191   0.417   2.954   8.294 -1.9405  0.4966  1.2320
 2186TIP3   OH228192   4.133   2.680   6.828  0.4115  0.0604 -0.3807
 2186TIP3    H128193   4.113   2.736   6.904 -0.0301  0.6517 -0.9200
 2186TIP3    H228194   4.167   2.741   6.763 -0.1708 -0.2911 -1.0178
 2187TIP3   OH228195   2.493   5.810   1.226  0.2488 -0.1495  0.3792
 2187TIP3    H128196   2.470   5.898   1.256 -1.1563 -0.3841  0.0372
 2187TIP3    H228197   2.502   5.759   1.306  0.5386  0.1699  0.5551
 2188TIP3   OH228198   0.667   4.942   8.277  0.5592  0.0894 -0.4059
 2188TIP3    H128199   0.642   4.897   8.196  1.8730  0.4724 -1.0585
 2188TIP3    H228200   0.717   4.877   8.327 -2.2969 -0.9590  1.2938
 2189TIP3   OH228201   3.908   2.660   7.722  0.0652  0.1828  0.8269
 2189TIP3    H128202   3.952   2.731   7.675  1.0946 -1.2383 -0.4470
 2189TIP3    H228203   3.967   2.585   7.714 -1.9340 -1.4309  0.2351
 2190TIP3   OH228204   0.255   5.926   1.389 -0.4396 -0.4562 -0.2931
 2190TIP3    H128205   0.185   5.920   1.455 -0.5253  1.1038 -0.1884
 2190TIP3    H228206   0.297   6.010   1.408 -0.1358 -0.2221 -1.9122
 2191TIP3   OH228207   2.406   5.030   2.110 -0.1769  0.0748  0.2618
 2191TIP3    H128208   2.429   4.971   2.038 -0.3096  1.5864 -1.0716
 2191TIP3    H228209   2.311   5.022   2.119 -0.1958  0.1070  0.0819
 2192TIP3   OH228210   5.597   3.204   0.325  0.8924  0.6283  0.5902
 2192TIP3    H128211   5.604   3.292   0.286  0.9303  0.5454  0.4070
 2192TIP3    H228212   5.504   3.193   0.343  0.7615  0.3697 -0.1845
 2193TIP3   OH228213   5.990   6.494   0.876  0.1868  0.0752 -0.0615
 2193TIP3    H128214   6.051   6.435   0.920  1.1697  0.1528 -1.2595
 2193TIP3    H228215   5.905   6.471   0.912  0.7496 -0.9728  0.6729
 2194TIP3   OH228216   3.276   3.854   8.575  0.2122  0.1494  0.2452
 2194TIP3    H128217   3.341   3.868   8.643  0.1892 -0.4278  0.3818
 2194TIP3    H228218   3.214   3.927   8.586  0.2149  0.0645  0.8273
 2195TIP3   OH228219   2.900   5.132   0.532  0.0086  0.3081  0.0904
 2195TIP3    H128220   2.923   5.181   0.611  1.4424 -1.6287  0.9416
 2195TIP3    H228221   2.839   5.065   0.563 -1.4919  1.1368 -0.9577
 2196TIP3   OH228222   5.281   0.739   2.267 -0.1284 -0.1007 -0.2753
 2196TIP3    H128223   5.286   0.821   2.316 -1.6773  0.1517 -0.4826
 2196TIP3    H228224   5.328   0.675   2.320  0.8107  0.8388  0.0496
 2197TIP3   OH228225   1.493   5.513   8.265 -0.1589  0.2601 -0.1748
 2197TIP3    H128226   1.522   5.510   8.174  1.3596  0.9780  0.2545
 2197TIP3    H228227   1.574   5.507   8.316 -0.9855 -0.0823  1.1284
 2198TIP3   OH228228   0.752   5.723   7.733 -0.2196 -0.1301 -0.2394
 2198TIP3    H128229   0.744   5.674   7.814  3.0494 -1.1635 -0.4025
 2198TIP3    H228230   0.845   5.716   7.709  0.0576  4.3605 -1.4220
 2199TIP3   OH228231   6.230   4.720   7.762 -0.4934  0.4665 -0.4987
 2199TIP3    H128232   6.140   4.749   7.775 -0.6245 -0.3323  0.4757
 2199TIP3    H228233   6.281   4.769   7.826 -0.1136  1.3676 -1.4492
 2200TIP3   OH228234   2.997   2.907   7.942  0.3826  0.4422 -0.0977
 2200TIP3    H128235   2.977   2.959   7.864  0.3781 -2.2945 -2.0487
 2200TIP3    H228236   2.912   2.881   7.977  0.3767  1.7939  1.0404
 2201TIP3   OH228237   5.336   6.219   1.472 -0.2668 -0.3693 -0.1096
 2201TIP3    H128238   5.391   6.298   1.470 -0.5114 -0.2000 -0.1133
 2201TIP3    H228239   5.258   6.242   1.423 -0.4997 -0.4959  0.1990
 2202TIP3   OH228240   4.996   4.905   7.436  0.2527 -0.7468 -0.4675
 2202TIP3    H128241   4.972   4.988   7.478  0.3855 -2.2299  2.8723
 2202TIP3    H228242   5.080   4.923   7.394  0.8682  0.5575  1.1952
 2203TIP3   OH228243   2.165   0.055   0.571  0.0070  0.2927  0.7480
 2203TIP3    H128244   2.179   0.072   0.665 -0.1960  1.7607  0.5335
 2203TIP3    H228245   2.252   0.062   0.533 -0.3213  3.7337  0.2766
 2204TIP3   OH228246   0.714   3.267   2.232  0.2810  0.5964  0.5704
 2204TIP3    H128247   0.722   3.187   2.284 -0.0278 -0.2183 -0.5968
 2204TIP3    H228248   0.803   3.301   2.226  0.8436 -0.9733 -0.8994
 2205TIP3   OH228249   6.756   5.658   1.172  0.6273  0.0282 -0.0781
 2205TIP3    H128250   6.838   5.608   1.171  0.8122  0.2972  0.7937
 2205TIP3    H228251   6.715   5.633   1.255  0.2487  0.5738 -0.1021
 2206TIP3   OH228252   6.615   2.568   7.490 -0.5447  0.0844 -0.2289
 2206TIP3    H128253   6.593   2.478   7.467  0.1326 -0.3323  0.6776
 2206TIP3    H228254   6.675   2.597   7.421  0.0635 -0.5341  0.0205
 2207TIP3   OH228255   2.036   5.603   0.889 -0.3006 -0.3411  0.3288
 2207TIP3    H128256   2.069   5.653   0.964 -0.0087 -0.2886  0.1695
 2207TIP3    H228257   1.941   5.605   0.898 -0.4004  1.5256 -0.4643
 2208TIP3   OH228258   3.921   3.317   0.998 -0.8922 -0.1103 -0.7407
 2208TIP3    H128259   3.949   3.229   1.025  0.0584  0.2215 -0.6298
 2208TIP3    H228260   3.868   3.302   0.920 -0.8143 -0.7907 -0.6719
 2209TIP3   OH228261   5.059   2.807   1.630  0.1512  0.3066  0.5334
 2209TIP3    H128262   5.128   2.824   1.694  0.8120 -1.6985  0.4246
 2209TIP3    H228263   4.987   2.770   1.681  0.6542 -1.2323  0.2020
 2210TIP3   OH228264   1.440   4.543   8.454  0.3467 -0.0823 -0.1275
 2210TIP3    H128265   1.372   4.611   8.455  1.2498  0.9484 -2.3368
 2210TIP3    H228266   1.504   4.572   8.518  0.4767  0.9161 -0.6865
 2211TIP3   OH228267   4.459   4.165   8.116 -0.3573 -0.0077  0.2034
 2211TIP3    H128268   4.463   4.072   8.093 -0.3678 -0.6260  2.4347
 2211TIP3    H228269   4.521   4.208   8.057  1.6828 -1.8464  0.8990
 2212TIP3   OH228270   6.593   0.440   0.600 -0.0103 -0.3291 -0.2467
 2212TIP3    H128271   6.582   0.348   0.575 -0.2034 -0.2753 -0.3652
 2212TIP3    H228272   6.676   0.442   0.647 -0.7570 -0.8599  1.1523
 2213TIP3   OH228273   5.691   0.859   7.196  0.2588 -0.1668  0.5302
 2213TIP3    H128274   5.769   0.849   7.141 -0.2577  1.1418 -0.4815
 2213TIP3    H228275   5.724   0.903   7.275  0.8185 -1.1120  0.8347
 2214TIP3   OH228276   0.089   4.911   8.381  0.5592  0.0607  0.0324
 2214TIP3    H128277   0.159   4.964   8.420  0.6251 -0.5270  0.7339
 2214TIP3    H228278   0.026   4.975   8.349  0.4381  0.5743  1.2277
 2215TIP3   OH228279   2.633   1.370   0.866  0.7318 -0.0551 -0.4167
 2215TIP3    H128280   2.544   1.391   0.839  0.7762  1.6129  0.5550
 2215TIP3    H228281   2.624   1.291   0.918 -0.2316  0.2047 -0.1601
 2216TIP3   OH228282   1.300   6.032   7.655 -0.2306  0.0434 -0.3180
 2216TIP3    H128283   1.301   5.977   7.576 -0.0650 -0.2930 -0.0842
 2216TIP3    H228284   1.316   5.971   7.727 -0.7476  0.2912  0.0140
 2217TIP3   OH228285   6.071   4.656   1.128 -0.1390 -0.0674 -0.0382
 2217TIP3    H128286   6.146   4.627   1.180 -1.2744  0.4819  2.0258
 2217TIP3    H228287   6.102   4.655   1.038  2.5249  0.6943  0.7847
 2218TIP3   OH228288   5.006   5.512   2.316  0.3612 -0.6888  0.0113
 2218TIP3    H128289   5.035   5.439   2.371  1.2963 -1.2791 -1.2140
 2218TIP3    H228290   4.938   5.475   2.260  0.4965 -0.5094 -0.2766
 2219TIP3   OH228291   6.644   4.336   6.963 -1.1856 -0.5708 -0.4553
 2219TIP3    H128292   6.719   4.350   6.905 -0.4916 -0.9302  0.3462
 2219TIP3    H228293   6.666   4.258   7.013  0.3788  2.1166  3.5919
 2220TIP3   OH228294   0.958   1.668   7.817  0.3108 -0.2999 -0.5089
 2220TIP3    H128295   0.992   1.755   7.837  0.6338 -0.3611 -0.7705
 2220TIP3    H228296   0.978   1.656   7.724  0.6704 -0.8283 -0.3710
 2221TIP3   OH228297   1.344   3.258   7.229  0.0077 -0.0708 -0.9638
 2221TIP3    H128298   1.336   3.329   7.166  0.0312  0.4849 -0.3548
 2221TIP3    H228299   1.438   3.246   7.240  0.0367  1.0516  0.2807
 2222TIP3   OH228300   4.654   4.275   1.615 -0.2081  0.6663  0.4649
 2222TIP3    H128301   4.618   4.187   1.612  1.9197 -0.2738  0.6805
 2222TIP3    H228302   4.644   4.303   1.706 -1.4642  0.9446  0.2613
 2223TIP3   OH228303   1.725   2.662   0.764 -0.5648  0.2687 -0.3836
 2223TIP3    H128304   1.678   2.692   0.842  0.8785 -2.3689  1.6852
 2223TIP3    H228305   1.663   2.604   0.720  0.0012 -1.9569  1.4936
 2224TIP3   OH228306   3.995   2.091   7.740 -0.2537  0.1926 -0.1663
 2224TIP3    H128307   4.055   2.038   7.792  1.3435  1.2622 -0.8233
 2224TIP3    H228308   3.933   2.028   7.703  0.1814 -0.9000  0.8922
 2225TIP3   OH228309   5.650   4.635   8.073  0.1680 -0.1519 -0.3623
 2225TIP3    H128310   5.659   4.574   8.000  1.1512 -0.4002 -0.0466
 2225TIP3    H228311   5.586   4.593   8.131  0.5655 -0.7085 -0.3216
 2226TIP3   OH228312   1.311   5.899   2.119 -0.3022  0.5680 -0.2320
 2226TIP3    H128313   1.305   5.892   2.024 -4.1749  0.9567 -0.1467
 2226TIP3    H228314   1.246   5.837   2.152  0.1212  1.2847  2.1470
 2227TIP3   OH228315   4.711   4.387   1.883  0.2823  0.2370 -0.4238
 2227TIP3    H128316   4.696   4.469   1.931  3.0747  0.7536 -0.2422
 2227TIP3    H228317   4.805   4.387   1.867  0.3782 -2.9950 -0.3675
 2228TIP3   OH228318   1.274   6.779   2.314  0.0690  0.4251  0.3815
 2228TIP3    H128319   1.340   6.719   2.280 -0.8959  0.2712 -1.3453
 2228TIP3    H228320   1.322   6.836   2.374  1.4891 -0.5088  0.1771
 2229TIP3   OH228321   1.146   6.402   1.751 -0.1907 -0.3630 -0.6913
 2229TIP3    H128322   1.167   6.330   1.810 -0.2765 -1.7292 -2.2366
 2229TIP3    H228323   1.194   6.477   1.785  2.2722 -1.8653 -0.6378
 2230TIP3   OH228324   6.234   5.328   1.960  0.0113  0.3332 -0.1648
 2230TIP3    H128325   6.286   5.409   1.958  2.7825 -1.3017 -1.6845
 2230TIP3    H228326   6.287   5.267   2.011 -2.3958 -0.3656  1.6249
 2231TIP3   OH228327   1.054   5.884   2.284 -0.5679 -0.1185  0.3024
 2231TIP3    H128328   1.039   5.940   2.208  0.7027  2.1940  1.6584
 2231TIP3    H228329   1.052   5.795   2.249 -1.8981  0.7654 -2.0801
 2232TIP3   OH228330   2.812   6.850   7.632  0.4718  0.0598  0.4830
 2232TIP3    H128331   2.787   6.770   7.586  1.4550  0.0806 -0.1235
 2232TIP3    H228332   2.785   6.921   7.573 -0.0606  0.1701  0.8508
 2233TIP3   OH228333   2.834   5.928   2.352  0.4371  0.0655  0.4923
 2233TIP3    H128334   2.747   5.962   2.331  0.3071 -1.3939 -1.6995
 2233TIP3    H228335   2.838   5.926   2.447 -1.5308  1.0965  0.6343
 2234TIP3   OH228336   0.237   0.663   1.747 -0.0693  0.0971 -0.3390
 2234TIP3    H128337   0.307   0.603   1.771 -1.4806 -0.4875  2.7723
 2234TIP3    H228338   0.208   0.632   1.661  1.5208 -1.4968 -0.3573
 2235TIP3   OH228339   0.357   5.643   7.437 -0.2935 -0.6960  0.0442
 2235TIP3    H128340   0.331   5.673   7.524  0.2803  1.2772 -0.4072
 2235TIP3    H228341   0.445   5.607   7.451 -0.1890 -0.3602  0.2904
 2236TIP3   OH228342   1.323   0.156   6.503 -0.2281  0.2575  0.5599
 2236TIP3    H128343   1.340   0.111   6.586  0.6019 -0.4056  0.0516
 2236TIP3    H228344   1.388   0.226   6.501  1.3729 -1.1831 -0.5771
 2237TIP3   OH228345   0.910   2.019   2.198  0.0183 -0.6185  0.4710
 2237TIP3    H128346   0.923   1.982   2.285 -0.6680  2.1870  1.8958
 2237TIP3    H228347   0.999   2.036   2.166  0.2667 -0.3880  1.2503
 2238TIP3   OH228348   6.723   3.243   1.347 -0.6482 -0.1538  0.3761
 2238TIP3    H128349   6.715   3.333   1.314 -1.2045 -0.5674 -0.6729
 2238TIP3    H228350   6.637   3.224   1.384 -0.9860 -0.7088 -0.6496
 2239TIP3   OH228351   4.938   4.388   1.651  0.3803  0.2672  0.2259
 2239TIP3    H128352   4.942   4.483   1.658  2.6974  0.3129 -0.8277
 2239TIP3    H228353   4.924   4.372   1.557 -0.0275 -0.4386  0.4004
 2240TIP3   OH228354   5.089   4.159   7.925  0.1762  0.3862  0.1860
 2240TIP3    H128355   5.183   4.151   7.938 -0.1092 -0.9793  1.7298
 2240TIP3    H228356   5.051   4.085   7.973 -1.7385  1.3677  0.3165
 2241TIP3   OH228357   4.425   4.026   0.590  0.4055  0.0934 -0.1290
 2241TIP3    H128358   4.445   4.113   0.556  1.1165  0.6766  1.6551
 2241TIP3    H228359   4.387   3.979   0.515 -0.7427  2.1592 -0.9414
 2242TIP3   OH228360   0.580   0.710   1.854 -0.2625 -0.0697  0.6334
 2242TIP3    H128361   0.547   0.739   1.939  0.6770  0.3520  0.8668
 2242TIP3    H228362   0.547   0.775   1.792 -1.3587 -0.6460  0.5870
 2243TIP3   OH228363   6.226   2.029   7.775  0.1067  0.9076 -0.3315
 2243TIP3    H128364   6.231   2.006   7.868 -0.2551  0.8746 -0.3187
 2243TIP3    H228365   6.177   2.111   7.774  0.1735  0.9446 -0.4891
 2244TIP3   OH228366   2.312   2.939   8.002 -0.0842  0.6597 -0.1382
 2244TIP3    H128367   2.228   2.897   8.018 -0.7809  1.6264 -1.1198
 2244TIP3    H228368   2.329   2.989   8.081 -0.4793  0.5226  0.0357
 2245TIP3   OH228369   1.556   6.660   8.520 -0.0981  0.0511 -0.5934
 2245TIP3    H128370   1.590   6.652   8.431  0.2044  0.4597 -0.5136
 2245TIP3    H228371   1.500   6.737   8.518  0.2142  0.2866 -0.3331
 2246TIP3   OH228372   0.992   2.126   8.548 -0.3408  0.0888 -0.3542
 2246TIP3    H128373   1.026   2.171   8.470 -0.0782 -1.1488 -0.9840
 2246TIP3    H228374   1.013   2.184   8.620  0.6850  0.6158 -1.0502
 2247TIP3   OH228375   3.260   1.965   1.282  1.0103  0.2876 -0.8791
 2247TIP3    H128376   3.259   1.999   1.192 -0.3065  2.1259 -0.2412
 2247TIP3    H228377   3.181   1.910   1.287 -0.0734  1.8384 -0.3148
 2248TIP3   OH228378   6.677   2.296   0.371  0.1949  0.5261  0.3889
 2248TIP3    H128379   6.592   2.281   0.412 -0.8090  0.4559 -1.5729
 2248TIP3    H228380   6.715   2.369   0.421 -1.2577  0.9160  0.9837
 2249TIP3   OH228381   0.480   3.291   0.030 -0.1053 -0.4943 -0.0663
 2249TIP3    H128382   0.497   3.297   0.124 -0.4322 -0.0569 -0.0279
 2249TIP3    H228383   0.559   3.252  -0.007 -0.2368 -1.2813  0.4731
 2250TIP3   OH228384   2.308   6.630   0.513 -0.0026 -0.2335  0.0842
 2250TIP3    H128385   2.354   6.636   0.597  0.5100  0.0808 -0.2167
 2250TIP3    H228386   2.374   6.651   0.448 -0.6131  0.4075 -0.3445
 2251TIP3   OH228387   0.106   0.905   7.635 -0.0733 -0.0715  0.7100
 2251TIP3    H128388   0.186   0.859   7.612  0.3003  0.4978  0.8416
 2251TIP3    H228389   0.084   0.874   7.723 -0.5227 -0.9254  0.3054
 2252TIP3   OH228390   5.582   3.411   7.705  0.1085 -0.1276  0.8339
 2252TIP3    H128391   5.592   3.442   7.615  3.6572 -1.4788  0.6038
 2252TIP3    H228392   5.547   3.323   7.697 -0.3667  0.0555  0.8551
 2253TIP3   OH228393   0.572   4.883   7.487 -0.6940  0.3759 -0.3047
 2253TIP3    H128394   0.478   4.867   7.474 -1.1386  1.6952  0.9465
 2253TIP3    H228395   0.613   4.853   7.406 -2.3874  1.2783 -1.5602
 2254TIP3   OH228396   5.503   6.459   7.641 -0.1125 -0.0474 -0.2715
 2254TIP3    H128397   5.430   6.397   7.640 -1.7611  1.7850 -0.0791
 2254TIP3    H228398   5.579   6.406   7.665 -1.4025 -1.9977 -0.2469
 2255TIP3   OH228399   6.609   4.068   1.570 -0.0657 -0.4463  0.5120
 2255TIP3    H128400   6.537   4.008   1.589  0.7780 -2.3109 -1.6845
 2255TIP3    H228401   6.675   4.049   1.637 -0.6155 -0.4796  1.0549
 2256TIP3   OH228402   5.041   0.088   8.272  0.4141  0.6072 -0.0519
 2256TIP3    H128403   5.053   0.164   8.214  0.6034 -0.2239 -1.1388
 2256TIP3    H228404   5.102   0.103   8.344  1.2516  0.9542 -0.8103
 2257TIP3   OH228405   5.344   1.808   0.461  0.5048  0.8902  0.1729
 2257TIP3    H128406   5.295   1.834   0.384  2.4190 -0.3884 -1.5828
 2257TIP3    H228407   5.420   1.760   0.427  0.1612 -1.9440  2.8850
 2258TIP3   OH228408   4.317   4.321   0.678 -0.0170  0.1081  0.0719
 2258TIP3    H128409   4.266   4.266   0.619 -0.8287  1.6142 -0.6923
 2258TIP3    H228410   4.406   4.315   0.646 -0.5923  1.7272 -2.0749
 2259TIP3   OH228411   1.140   0.237   1.481 -0.7802 -0.1197 -0.5842
 2259TIP3    H128412   1.183   0.172   1.426  0.9828 -0.3323  0.9377
 2259TIP3    H228413   1.197   0.245   1.558 -1.5450  2.3382 -0.1614
 2260TIP3   OH228414   4.063   5.907   1.285  0.1925 -0.1246 -0.3081
 2260TIP3    H128415   4.144   5.936   1.327 -0.5932 -0.0659  1.2435
 2260TIP3    H228416   4.088   5.830   1.235  1.0037 -0.8087  1.0987
 2261TIP3   OH228417   6.766   0.878   6.658 -0.5282  0.2715 -0.0487
 2261TIP3    H128418   6.732   0.958   6.696 -0.8082  0.5643 -0.8803
 2261TIP3    H228419   6.849   0.904   6.618  1.3242 -0.6499  2.8767
 2262TIP3   OH228420   2.942   4.322   1.079  0.1529 -0.2671 -0.4787
 2262TIP3    H128421   2.884   4.265   1.028  0.2125 -1.5343  0.8211
 2262TIP3    H228422   3.018   4.268   1.100  0.7827  0.6804 -0.2388
 2263TIP3   OH228423   0.069   1.452   8.578 -0.4439  0.1000  0.2319
 2263TIP3    H128424   0.036   1.379   8.630 -0.3936 -0.2073 -0.1696
 2263TIP3    H228425   0.164   1.444   8.584 -0.3621 -1.4796 -2.0173
 2264TIP3   OH228426   6.685   2.687   0.782 -0.0750  0.1045  0.0439
 2264TIP3    H128427   6.677   2.765   0.836  0.2363  1.3420 -1.6387
 2264TIP3    H228428   6.704   2.720   0.694 -0.8228 -1.8222 -0.8997
 2265TIP3   OH228429   6.418   6.506   7.852 -0.0557 -0.1785  0.5821
 2265TIP3    H128430   6.407   6.588   7.901 -1.0587 -0.3626  0.6838
 2265TIP3    H228431   6.356   6.446   7.892  0.1004 -0.7473 -0.0231
 2266TIP3   OH228432   6.291   5.859   0.856 -0.2523 -0.4462  0.0291
 2266TIP3    H128433   6.326   5.772   0.837 -0.6579 -0.3096 -1.4827
 2266TIP3    H228434   6.264   5.854   0.947 -1.1437 -2.2251 -0.2867
 2267TIP3   OH228435   5.956   2.481   7.741  0.1515 -0.1501 -0.4483
 2267TIP3    H128436   5.976   2.542   7.812  0.8830  0.8443 -1.4706
 2267TIP3    H228437   5.890   2.525   7.689  0.7932 -0.1527 -1.2846
 2268TIP3   OH228438   0.953   0.607   8.193 -0.2127 -0.3058  0.3576
 2268TIP3    H128439   0.940   0.604   8.098  0.9160 -0.2466  0.1925
 2268TIP3    H228440   1.032   0.555   8.208  0.8329  1.4204  1.0313
 2269TIP3   OH228441   5.851   0.615   6.949 -0.6682 -0.9226  0.0081
 2269TIP3    H128442   5.896   0.547   6.899  0.4455  0.4001 -0.8247
 2269TIP3    H228443   5.860   0.587   7.041  1.0632 -1.1587 -0.2103
 2270TIP3   OH228444   1.145   4.861   6.677 -0.0680 -1.5101 -0.3149
 2270TIP3    H128445   1.198   4.848   6.598 -0.7956  4.3189 -2.2879
 2270TIP3    H228446   1.055   4.850   6.646 -0.3114 -0.3847 -0.0421
 2271TIP3   OH228447   2.934   1.027   1.653 -0.0590  0.1763  0.3745
 2271TIP3    H128448   2.859   1.081   1.626  0.2456  0.3075 -0.2257
 2271TIP3    H228449   2.976   1.077   1.723 -0.4431  0.1759  0.6064
 2272TIP3   OH228450   0.495   1.280   0.828 -0.1255 -0.4070  0.1464
 2272TIP3    H128451   0.585   1.277   0.858  0.1012 -2.0866 -0.5568
 2272TIP3    H228452   0.495   1.228   0.748 -1.8011 -0.8062  0.3660
 2273TIP3   OH228453   1.711   1.619   1.633 -0.2178  0.3470 -0.4596
 2273TIP3    H128454   1.714   1.579   1.719  0.3971 -0.4319 -0.8362
 2273TIP3    H228455   1.715   1.713   1.650  0.7161  0.1743  0.3181
 2274TIP3   OH228456   2.891   6.317   7.910 -0.2868 -0.5665  0.4353
 2274TIP3    H128457   2.954   6.359   7.851 -0.6668  0.1846  0.5532
 2274TIP3    H228458   2.902   6.223   7.893 -0.8004 -0.3568 -1.2804
 2275TIP3   OH228459   1.871   1.579   7.169 -0.2600 -0.1532  0.6408
 2275TIP3    H128460   1.806   1.643   7.194 -1.3001 -0.9054 -0.0416
 2275TIP3    H228461   1.838   1.496   7.203 -0.6371 -0.8420 -1.2715
 2276TIP3   OH228462   3.225   0.548   0.885 -0.6793 -0.0422 -0.5879
 2276TIP3    H128463   3.131   0.558   0.876 -0.9215 -1.1833  0.4394
 2276TIP3    H228464   3.253   0.509   0.802 -1.4757 -1.8292 -0.0605
 2277TIP3   OH228465   2.540   0.296   7.963  0.0631 -0.2220 -0.1624
 2277TIP3    H128466   2.549   0.201   7.961 -1.2529 -0.4133 -3.2902
 2277TIP3    H228467   2.596   0.324   8.035 -0.2607 -3.3905  1.5153
 2278TIP3   OH228468   5.852   6.506   1.470 -0.1845  0.1720 -0.6984
 2278TIP3    H128469   5.892   6.435   1.420 -1.5732 -0.7692 -0.5377
 2278TIP3    H228470   5.790   6.546   1.409  1.4382  2.1015 -1.1899
 2279TIP3   OH228471   6.176   2.198   0.277 -0.1485  0.0132  0.1968
 2279TIP3    H128472   6.100   2.210   0.334 -0.0141 -0.7684  0.5623
 2279TIP3    H228473   6.162   2.259   0.205 -3.1329 -2.6823 -1.7947
 2280TIP3   OH228474   2.044   1.140   0.577  0.2093  0.1126 -0.1581
 2280TIP3    H128475   2.136   1.165   0.574  0.3337 -0.3990 -0.6723
 2280TIP3    H228476   2.043   1.046   0.563 -0.3987  0.1211 -0.2316
 2281TIP3   OH228477   3.041   1.459   6.909 -0.2663  0.4887  0.0922
 2281TIP3    H128478   3.076   1.522   6.847  1.4533  1.4186  1.8693
 2281TIP3    H228479   3.099   1.383   6.900 -0.7121  0.1816 -0.2159
 2282TIP3   OH228480   0.445   6.719   8.088  0.2587 -0.2019 -0.5596
 2282TIP3    H128481   0.415   6.629   8.075 -1.2580  0.2633 -0.4756
 2282TIP3    H228482   0.404   6.746   8.171 -1.6488  1.4511 -1.9371
 2283TIP3   OH228483   6.063   5.031   1.979  0.9556 -0.8070 -0.0224
 2283TIP3    H128484   6.135   5.021   1.917  0.7343  1.4084 -0.7118
 2283TIP3    H228485   6.085   4.970   2.050  3.0012 -0.9048 -0.6593
 2284TIP3   OH228486   0.919   0.896   7.543 -0.6141  0.1571  0.1336
 2284TIP3    H128487   0.874   0.940   7.470  0.1451  0.7839  0.0235
 2284TIP3    H228488   0.872   0.814   7.554  0.3805 -0.8374 -2.3137
 2285TIP3   OH228489   2.638   3.519   1.874  0.0980  0.5257 -0.4555
 2285TIP3    H128490   2.634   3.424   1.859  2.2602  0.5317 -1.3815
 2285TIP3    H228491   2.712   3.530   1.934 -0.6898  1.5776  0.3576
 2286TIP3   OH228492   4.201   4.970   2.263 -0.6474  0.2295 -0.0544
 2286TIP3    H128493   4.185   5.061   2.290  0.2950  0.9103 -1.6500
 2286TIP3    H228494   4.196   4.920   2.345 -0.8760  1.7484  0.9114
 2287TIP3   OH228495   5.207   6.451   8.063  0.8103 -0.2043 -0.7308
 2287TIP3    H128496   5.170   6.461   7.975 -0.8306 -0.4038 -0.0971
 2287TIP3    H228497   5.241   6.538   8.084 -1.0479  0.5610 -0.6256
 2288TIP3   OH228498   1.626   0.596   8.394 -0.7530  0.1982  0.5650
 2288TIP3    H128499   1.583   0.627   8.314 -1.1818  0.0725  0.7436
 2288TIP3    H228500   1.592   0.652   8.463 -0.6551  0.0708  0.7171
 2289TIP3   OH228501   3.163   3.425   7.085  0.1958 -0.4782 -1.0009
 2289TIP3    H128502   3.203   3.467   7.161 -1.0899  0.5521 -0.8569
 2289TIP3    H228503   3.192   3.477   7.011 -1.2020  0.5597 -0.8480
 2290TIP3   OH228504   5.301   4.232   7.660 -0.0515  0.2510 -0.0434
 2290TIP3    H128505   5.370   4.166   7.654 -2.1762 -2.1304  0.3675
 2290TIP3    H228506   5.279   4.234   7.753 -2.6574 -1.4212 -0.5433
 2291TIP3   OH228507   5.357   5.623   7.678  0.0647 -0.4490  0.0856
 2291TIP3    H128508   5.297   5.657   7.612  0.7847  0.4792 -0.1101
 2291TIP3    H228509   5.349   5.528   7.671  2.2550 -0.5528 -3.4100
 2292TIP3   OH228510   1.784   6.842   8.080 -0.1224 -0.7124  0.3958
 2292TIP3    H128511   1.795   6.748   8.094  3.1974 -0.5776 -0.4558
 2292TIP3    H228512   1.853   6.883   8.132 -1.4673  1.3003  0.7261
 2293TIP3   OH228513   2.152   4.355   0.098 -0.7005  0.3765 -0.2864
 2293TIP3    H128514   2.168   4.410   0.175 -1.8452 -0.0238  0.2681
 2293TIP3    H228515   2.216   4.384   0.033  0.0099  1.0132  0.6712
 2294TIP3   OH228516   4.528   0.283   2.656  0.4411  0.3071  0.0059
 2294TIP3    H128517   4.575   0.203   2.632  0.0140 -0.2201  0.8699
 2294TIP3    H228518   4.556   0.300   2.746 -0.6559  0.2480  0.3688
 2295TIP3   OH228519   1.554   1.454   0.929  0.2206  0.6900  0.3320
 2295TIP3    H128520   1.487   1.439   0.996 -0.1297  1.1999  0.1036
 2295TIP3    H228521   1.622   1.388   0.947 -0.5972 -0.2058  0.2225
 2296TIP3   OH228522   6.746   6.578   2.565 -0.2534 -0.8023 -0.6188
 2296TIP3    H128523   6.756   6.545   2.654  3.9626  4.2147  1.2820
 2296TIP3    H228524   6.805   6.523   2.512 -1.1352 -2.4704  0.0773
 2297TIP3   OH228525   1.220   4.273   6.989  0.2683  0.8650 -0.3960
 2297TIP3    H128526   1.222   4.203   7.054  0.3677  0.8702 -0.3933
 2297TIP3    H228527   1.161   4.241   6.920  1.8640 -0.0920 -1.3748
 2298TIP3   OH228528   1.150   0.744   1.943 -0.5455 -0.4396 -0.2668
 2298TIP3    H128529   1.127   0.834   1.922 -0.6047 -0.2041  0.7467
 2298TIP3    H228530   1.177   0.706   1.860  0.6849  0.8740 -0.5029
 2299TIP3   OH228531   1.737   5.296   1.319 -0.2785  0.2473  0.5197
 2299TIP3    H128532   1.684   5.370   1.350 -0.2721  0.6280 -0.3608
 2299TIP3    H228533   1.676   5.242   1.269  0.2765  1.0197 -1.0506
 2300TIP3   OH228534   6.675   6.622   0.302 -0.7619 -0.1196 -0.4807
 2300TIP3    H128535   6.689   6.610   0.396  1.7332 -0.1180 -0.7820
 2300TIP3    H228536   6.625   6.703   0.295  0.2071  0.6211  0.8138
 2301TIP3   OH228537   2.571   3.000   0.475  0.7135 -0.5333  0.3239
 2301TIP3    H128538   2.493   3.053   0.459  1.8624  0.3976 -2.8935
 2301TIP3    H228539   2.613   3.042   0.551 -0.9562  0.0351  0.9706
 2302TIP3   OH228540   1.958   6.013   1.763  0.1403 -0.2535  0.7371
 2302TIP3    H128541   1.970   5.919   1.777 -1.1305 -0.8042 -1.4432
 2302TIP3    H228542   1.868   6.021   1.732  1.1490  1.2881 -2.0650
 2303TIP3   OH228543   3.333   0.345   1.905 -0.2180  0.4761 -0.0602
 2303TIP3    H128544   3.359   0.397   1.829 -1.2010  0.6275 -0.3029
 2303TIP3    H228545   3.238   0.352   1.908 -0.2154  0.2902  1.0595
 2304TIP3   OH228546   1.802   6.541   0.960  0.1144  0.1974  0.1528
 2304TIP3    H128547   1.858   6.476   1.002  0.2643 -1.9383 -3.0703
 2304TIP3    H228548   1.863   6.596   0.910 -0.3879 -0.6060 -1.4035
 2305TIP3   OH228549   4.442   3.795   2.300  0.3604  0.0217 -0.4903
 2305TIP3    H128550   4.518   3.772   2.353  0.6600  0.9655 -0.4866
 2305TIP3    H228551   4.372   3.809   2.363  1.1796  3.0523 -0.0686
 2306TIP3   OH228552   2.198   2.516   0.064  0.2644  0.9172 -0.2145
 2306TIP3    H128553   2.252   2.541  -0.012  2.2636 -0.6852  0.6047
 2306TIP3    H228554   2.236   2.565   0.137 -0.0763  0.5766  0.1946
 2307TIP3   OH228555   6.443   3.932   8.374 -0.3352 -0.4396  0.2327
 2307TIP3    H128556   6.354   3.948   8.343 -1.0307  0.7680  2.5552
 2307TIP3    H228557   6.499   3.980   8.313 -1.5285  1.0306  0.2160
 2308TIP3   OH228558   4.548   3.398   0.346 -0.1094  0.3262  0.5647
 2308TIP3    H128559   4.476   3.451   0.312  0.5092  1.1973  0.5578
 2308TIP3    H228560   4.525   3.382   0.437 -1.4868 -1.5173 -0.0481
 2309TIP3   OH228561   6.479   5.412   0.771 -0.2204 -0.1044  0.0184
 2309TIP3    H128562   6.464   5.500   0.805 -0.9738 -0.2433  0.0599
 2309TIP3    H228563   6.458   5.418   0.678  0.3597 -0.0850 -0.1103
 2310TIP3   OH228564   4.316   4.260   1.202  0.2822 -0.5516  0.1070
 2310TIP3    H128565   4.285   4.344   1.169  1.6258 -0.4732 -1.0509
 2310TIP3    H228566   4.390   4.282   1.259  0.6534 -0.9411 -0.2163
 2311TIP3   OH228567   0.640   1.603   7.336  0.0357  0.0976  0.2460
 2311TIP3    H128568   0.628   1.580   7.429  2.6071  1.6074  1.0546
 2311TIP3    H228569   0.655   1.697   7.336  1.0859 -0.0184 -1.5828
 2312TIP3   OH228570   6.404   4.464   7.368  0.2594 -0.3117  0.2578
 2312TIP3    H128571   6.318   4.502   7.386  0.7453  1.4004 -0.8168
 2312TIP3    H228572   6.465   4.515   7.422  0.8091 -0.2387 -0.4199
 2313TIP3   OH228573   0.581   1.753   2.082 -0.3194  0.2809  0.6419
 2313TIP3    H128574   0.499   1.703   2.090 -0.1144 -0.4640 -1.4109
 2313TIP3    H228575   0.553   1.839   2.050 -0.4777  0.8101  2.1415
 2314TIP3   OH228576   1.435   5.792   2.433 -0.4399 -0.4956  0.1663
 2314TIP3    H128577   1.521   5.778   2.394 -0.5195 -0.2554 -0.1027
 2314TIP3    H228578   1.396   5.704   2.436 -0.2962 -0.5651  0.0246
 2315TIP3   OH228579   6.511   3.836   0.972  0.2724 -0.1491  0.1395
 2315TIP3    H128580   6.492   3.762   1.029  0.4282 -0.4506 -0.1984
 2315TIP3    H228581   6.575   3.803   0.910 -0.4485 -0.0457 -0.6771
 2316TIP3   OH228582   6.614   6.352   0.091  0.4478 -0.5032 -0.2386
 2316TIP3    H128583   6.603   6.446   0.105  1.0653 -0.1246 -1.9853
 2316TIP3    H228584   6.539   6.312   0.134 -1.3924  1.0249 -1.8497
 2317TIP3   OH228585   5.409   5.204   8.173 -0.1307 -0.3631 -0.0247
 2317TIP3    H128586   5.339   5.165   8.120 -0.7106 -1.0360  1.1963
 2317TIP3    H228587   5.482   5.143   8.163  0.2471  0.2409 -1.1464
 2318TIP3   OH228588   3.024   0.206   7.687 -0.0691  1.2892  0.0140
 2318TIP3    H128589   2.946   0.254   7.660 -0.7171 -0.6350 -1.7536
 2318TIP3    H228590   3.082   0.208   7.611  0.7558  1.0103  0.6191
 2319TIP3   OH228591   5.310   1.829   0.928 -0.2746 -0.5738 -0.5446
 2319TIP3    H128592   5.342   1.786   1.008  1.0836 -0.3499 -0.9359
 2319TIP3    H228593   5.381   1.817   0.865 -0.9231  0.1064 -1.4200
 2320TIP3   OH228594   5.213   1.756   7.114 -0.2392 -0.3040  0.1794
 2320TIP3    H128595   5.196   1.689   7.048  0.3296  0.3124 -0.6114
 2320TIP3    H228596   5.248   1.830   7.065 -0.4261  0.4121  1.0944
 2321TIP3   OH228597   1.405   1.809   1.010 -0.1150 -0.2645  0.0722
 2321TIP3    H128598   1.492   1.789   1.043  0.0757 -2.2840 -1.4742
 2321TIP3    H228599   1.419   1.844   0.923 -0.8175  0.1987  0.1345
 2322TIP3   OH228600   3.071   0.437   2.142  0.2429  0.0120 -0.2262
 2322TIP3    H128601   3.051   0.401   2.056 -0.5657  1.3814 -0.6328
 2322TIP3    H228602   3.039   0.372   2.204 -2.9281  0.7842 -0.8944
 2323TIP3   OH228603   5.563   2.393   0.535 -0.7369  0.2751 -0.4063
 2323TIP3    H128604   5.595   2.440   0.458 -2.3579  1.5325 -0.3664
 2323TIP3    H228605   5.567   2.300   0.510  0.2244  0.5614 -1.4015
 2324TIP3   OH228606   4.969   3.023   7.176  0.0823  0.1052  0.1468
 2324TIP3    H128607   4.985   3.040   7.083 -0.1354  0.8789  0.2466
 2324TIP3    H228608   4.934   3.105   7.210  1.7662  0.3879  1.2990
 2325TIP3   OH228609   2.682   2.861   7.380  0.6081  0.1419  1.1306
 2325TIP3    H128610   2.718   2.783   7.338 -0.5204 -0.7753  1.7970
 2325TIP3    H228611   2.709   2.933   7.323 -1.6989 -1.1211 -1.9031
 2326TIP3   OH228612   5.430   4.529   8.180  0.1577 -0.3800 -0.2199
 2326TIP3    H128613   5.445   4.442   8.216 -1.1175  0.0193  1.3967
 2326TIP3    H228614   5.396   4.580   8.254  1.3153  1.6264 -0.9905
 2327TIP3   OH228615   2.107   2.237   8.016  0.4345  0.0951 -0.4971
 2327TIP3    H128616   2.147   2.207   8.098 -0.5602 -0.8482 -0.3251
 2327TIP3    H228617   2.141   2.177   7.949  0.9374  0.6174 -0.7198
 2328TIP3   OH228618   6.862   0.715   0.413 -0.6869  0.1815 -0.0168
 2328TIP3    H128619   6.816   0.689   0.492 -0.6459 -1.1535 -0.3981
 2328TIP3    H228620   6.816   0.670   0.342  0.6114 -0.4366 -0.5069
 2329TIP3   OH228621   6.722   3.541   1.575 -0.3927  0.3169  0.7725
 2329TIP3    H128622   6.793   3.478   1.585  0.0247  0.5228 -0.7288
 2329TIP3    H228623   6.765   3.626   1.581 -0.9962  0.5242  3.1077
 2330TIP3   OH228624   4.688   2.319   1.408 -0.0441 -0.1626 -0.0751
 2330TIP3    H128625   4.687   2.253   1.339  0.4992  0.7640 -0.9954
 2330TIP3    H228626   4.626   2.287   1.473  1.5095 -2.5004  0.3956
 2331TIP3   OH228627   6.883   5.297   8.082 -0.5740 -0.1074  0.3063
 2331TIP3    H128628   6.819   5.258   8.023  1.1470 -0.6908 -1.2837
 2331TIP3    H228629   6.891   5.235   8.154  0.5882 -1.7233 -1.1474
 2332TIP3   OH228630   6.870   1.842   7.207 -0.3118  0.5648  1.1836
 2332TIP3    H128631   6.873   1.931   7.172  0.2940  1.1457  2.6070
 2332TIP3    H228632   6.949   1.835   7.261 -0.6751 -0.6161  1.5981
 2333TIP3   OH228633   0.456   6.076   2.513 -0.0169  0.2547 -0.2668
 2333TIP3    H128634   0.373   6.054   2.553 -0.3962  0.4038 -0.9514
 2333TIP3    H228635   0.440   6.158   2.466  0.8110  0.8809  0.5055
 2334TIP3   OH228636   2.398   6.375   7.294  0.1503 -0.2548  0.3731
 2334TIP3    H128637   2.351   6.310   7.243  2.3838 -1.4429 -0.3208
 2334TIP3    H228638   2.383   6.350   7.385  0.2293 -1.2112  0.1362
 2335TIP3   OH228639   2.002   2.336   0.078  0.3704 -0.0477  0.0226
 2335TIP3    H128640   2.041   2.264   0.128 -0.2343  1.3510  2.7008
 2335TIP3    H228641   2.068   2.406   0.082  0.1970  0.1886 -0.9769
 2336TIP3   OH228642   4.667   6.155   8.326  0.3129 -0.5599 -0.0031
 2336TIP3    H128643   4.648   6.110   8.243 -0.9720 -0.0132 -0.0265
 2336TIP3    H228644   4.751   6.119   8.353 -0.3096 -2.4397 -0.3841
 2337TIP3   OH228645   2.798   3.260   7.971 -0.3322  0.3553 -0.1399
 2337TIP3    H128646   2.866   3.288   7.909  0.3304  1.0306  0.8388
 2337TIP3    H228647   2.718   3.300   7.938 -0.5548 -1.5223 -2.0432
 2338TIP3   OH228648   2.169   1.167   0.901  1.1798  0.8563  0.1644
 2338TIP3    H128649   2.238   1.111   0.866 -0.0857 -0.4548 -0.3373
 2338TIP3    H228650   2.132   1.118   0.975  0.5687  1.3648  0.2091
 2339TIP3   OH228651   6.294   3.000   0.128 -0.7152 -0.0590  0.3096
 2339TIP3    H128652   6.231   3.065   0.097 -0.6858  0.0091  0.3923
 2339TIP3    H228653   6.313   2.946   0.051 -0.4337  0.2802  0.1392
 2340TIP3   OH228654   2.077   3.343   1.156 -0.2150  0.3514 -0.0372
 2340TIP3    H128655   1.992   3.299   1.161  0.4252 -0.9483 -0.3898
 2340TIP3    H228656   2.061   3.429   1.196 -1.5759 -0.0485  0.3331
 2341TIP3   OH228657   0.537   5.862   1.549  0.1058 -0.0486  0.2118
 2341TIP3    H128658   0.460   5.814   1.581 -0.2510 -0.6208 -1.3881
 2341TIP3    H228659   0.509   5.898   1.465  0.7298  2.0926  0.8596
 2342TIP3   OH228660   2.906   0.155   8.610  0.1165  0.3819  0.4753
 2342TIP3    H128661   2.998   0.146   8.635  0.4498  2.3660  0.1015
 2342TIP3    H228662   2.863   0.081   8.653  1.4001  1.0392  3.1094
 2343TIP3   OH228663   0.692   0.213   0.030 -0.2491  0.0923  0.2231
 2343TIP3    H128664   0.734   0.182  -0.050  0.2637  2.0234 -0.3230
 2343TIP3    H228665   0.764   0.228   0.091 -0.6611 -1.6987  1.2339
 2344TIP3   OH228666   4.124   1.604   7.153  0.1457 -0.0898 -0.2318
 2344TIP3    H128667   4.123   1.542   7.080 -1.9564  1.3173 -1.5058
 2344TIP3    H228668   4.152   1.686   7.114 -1.7561  0.8760  0.3027
 2345TIP3   OH228669   5.131   6.016   2.060  0.1016  0.0111  0.8738
 2345TIP3    H128670   5.222   5.997   2.036 -0.1554  0.6584 -0.6904
 2345TIP3    H228671   5.080   5.951   2.012 -0.3623  0.7171  0.3953
 2346TIP3   OH228672   1.148   1.692   6.756  0.0214 -0.2154  0.2828
 2346TIP3    H128673   1.234   1.677   6.718  0.6572  3.0461  0.2134
 2346TIP3    H228674   1.163   1.689   6.851  0.3798  1.0346  0.2758
 2347TIP3   OH228675   1.157   4.716   0.462 -0.2481 -0.4052 -0.2277
 2347TIP3    H128676   1.217   4.691   0.534 -1.0665 -1.8049  0.0206
 2347TIP3    H228677   1.200   4.682   0.383 -0.1588 -0.3815 -0.1898
 2348TIP3   OH228678   1.478   0.783   8.236 -0.5995 -0.0471  0.0628
 2348TIP3    H128679   1.419   0.728   8.184 -0.2752  0.3260 -0.7167
 2348TIP3    H228680   1.514   0.846   8.173  1.5429 -1.0014  0.2251
 2349TIP3   OH228681   0.679   1.231   0.086  0.7291 -0.5979  0.0102
 2349TIP3    H128682   0.586   1.234   0.064  0.9429  1.1332 -0.8705
 2349TIP3    H228683   0.700   1.138   0.090 -0.6896 -1.0230 -1.3205
 2350TIP3   OH228684   3.610   3.700   7.949 -0.1857  0.8044 -0.5612
 2350TIP3    H128685   3.576   3.743   8.027 -1.1691  1.4107 -1.2889
 2350TIP3    H228686   3.532   3.661   7.908  0.6652 -1.8278  0.1186
 2351TIP3   OH228687   6.333   4.478   8.405 -0.1755 -0.4717 -0.1688
 2351TIP3    H128688   6.291   4.474   8.491 -1.1310 -0.7362 -0.6369
 2351TIP3    H228689   6.362   4.569   8.397  0.2372 -0.5308  0.5778
 2352TIP3   OH228690   1.216   5.462   8.375  0.2671 -0.0926 -0.0807
 2352TIP3    H128691   1.303   5.500   8.367 -0.1518  0.7132 -1.0905
 2352TIP3    H228692   1.224   5.374   8.338  0.6347  0.0014 -0.2240
 2353TIP3   OH228693   6.610   2.484   6.834  0.1515 -0.0813  0.0573
 2353TIP3    H128694   6.538   2.537   6.870 -0.6378 -1.9128  1.2925
 2353TIP3    H228695   6.583   2.466   6.744 -0.4201  0.1315  0.1818
 2354TIP3   OH228696   1.263   0.223   0.611 -0.6971 -0.3441 -0.8380
 2354TIP3    H128697   1.218   0.300   0.576 -0.9577 -0.2492 -0.3010
 2354TIP3    H228698   1.194   0.157   0.621 -0.7548 -0.1533  0.1136
 2355TIP3   OH228699   2.985   5.391   7.454  0.0941 -0.2490 -0.8039
 2355TIP3    H128700   2.984   5.329   7.527 -0.8238  0.8846  0.1765
 2355TIP3    H228701   2.943   5.343   7.382 -2.0820 -0.2715  0.3913
 2356TIP3   OH228702   5.617   6.740   1.430  0.8125 -0.0231  0.1095
 2356TIP3    H128703   5.547   6.804   1.445  0.4788 -0.1121 -0.9585
 2356TIP3    H228704   5.659   6.771   1.350 -0.5046 -2.1024 -1.4811
 2357TIP3   OH228705   0.955   5.473   2.065  0.6247  0.4388  0.2965
 2357TIP3    H128706   0.870   5.505   2.095 -0.0089  0.4358 -1.4215
 2357TIP3    H228707   0.977   5.403   2.127 -0.3155  0.8516  1.1266
 2358TIP3   OH228708   1.623   1.920   1.641 -0.6826 -0.3934 -0.1114
 2358TIP3    H128709   1.655   1.905   1.730 -0.5883  0.0280 -0.0756
 2358TIP3    H228710   1.580   2.005   1.644 -2.4594 -1.2638  0.0145
 2359TIP3   OH228711   2.097   0.237   7.736  0.2134  0.3133  0.0324
 2359TIP3    H128712   2.111   0.148   7.702  0.1256  0.4095 -0.2635
 2359TIP3    H228713   2.008   0.259   7.706  0.8131  1.0945 -1.2259
 2360TIP3   OH228714   5.814   6.119   7.197  0.0903  0.0676  0.0914
 2360TIP3    H128715   5.830   6.099   7.105  3.4662  1.3053  0.2622
 2360TIP3    H228716   5.753   6.192   7.196  0.5637  0.4833 -1.2298
 2361TIP3   OH228717   1.152   2.664   1.927 -0.0101 -0.7776 -0.2808
 2361TIP3    H128718   1.240   2.648   1.896  0.8543  2.3456  0.2553
 2361TIP3    H228719   1.158   2.655   2.022 -0.1090 -0.0103 -0.1953
 2362TIP3   OH228720   1.694   6.543   1.638  0.0089 -0.7997 -0.4348
 2362TIP3    H128721   1.664   6.616   1.693 -0.1084 -0.3313 -1.1049
 2362TIP3    H228722   1.616   6.514   1.591  0.5181  0.3030 -2.0450
 2363TIP3   OH228723   2.492   0.959   7.003 -0.4668 -0.4491 -0.4354
 2363TIP3    H128724   2.476   0.922   7.091  2.8134  1.1221  0.9806
 2363TIP3    H228725   2.557   0.900   6.964 -0.9522 -0.4105 -1.3318
 2364TIP3   OH228726   4.657   6.384   8.172  0.5706 -0.4063 -0.0071
 2364TIP3    H128727   4.750   6.399   8.156  0.9986 -2.4699  0.1805
 2364TIP3    H228728   4.656   6.321   8.244 -0.9671 -0.5554 -0.1371
 2365TIP3   OH228729   2.333   2.929   7.684 -0.4517  0.5580  0.9256
 2365TIP3    H128730   2.307   3.009   7.639 -0.8018  0.6565  1.2940
 2365TIP3    H228731   2.379   2.960   7.763 -1.2333  0.4123  1.4512
 2366TIP3   OH228732   6.772   2.597   0.264 -0.1656 -0.0356  0.0790
 2366TIP3    H128733   6.779   2.585   0.359  0.3015  0.8945  0.1697
 2366TIP3    H228734   6.830   2.530   0.227  0.6221  0.4154  0.4921
 2367TIP3   OH228735   1.367   5.228   0.842  0.0406 -0.3476  0.5461
 2367TIP3    H128736   1.345   5.312   0.882 -2.9761 -0.1342 -1.2271
 2367TIP3    H228737   1.360   5.165   0.913 -1.7444  0.4359  1.1325
 2368TIP3   OH228738   6.284   6.823   1.687 -0.1916 -0.1298  0.3271
 2368TIP3    H128739   6.366   6.811   1.640  1.1121  1.3891  2.1044
 2368TIP3    H228740   6.292   6.909   1.728 -1.6355 -0.9778  2.5660
 2369TIP3   OH228741   1.959   3.488   8.435  0.3885 -0.0528  0.1606
 2369TIP3    H128742   2.052   3.495   8.415 -0.0918  1.5214 -1.7543
 2369TIP3    H228743   1.919   3.458   8.354 -1.0133  1.2006  0.3526
 2370TIP3   OH228744   5.694   6.867   8.432  0.6552  0.1812  0.1345
 2370TIP3    H128745   5.603   6.867   8.463  0.4603  0.2932 -0.4282
 2370TIP3    H228746   5.740   6.922   8.496  0.2455  0.4648  0.1951
 2371TIP3   OH228747   6.060   6.841   2.345 -0.5130  0.6116  0.3716
 2371TIP3    H128748   6.005   6.918   2.335 -0.3075  0.6842 -0.2125
 2371TIP3    H228749   6.104   6.853   2.429 -0.7843  0.9334  0.4679
 2372TIP3   OH228750   6.837   3.595   8.231  0.4501 -0.2909  0.1373
 2372TIP3    H128751   6.842   3.597   8.136 -0.9126 -0.4283  0.0374
 2372TIP3    H228752   6.853   3.504   8.255 -0.1180 -0.4444 -0.0438
 2373TIP3   OH228753   2.193   2.223   8.283  0.0175  0.1924 -0.4464
 2373TIP3    H128754   2.142   2.257   8.357  0.4850 -0.1099  0.0128
 2373TIP3    H228755   2.246   2.153   8.320  0.9105  0.6264 -0.8838
 2374TIP3   OH228756   4.894   2.823   8.346 -0.6323  0.2527 -0.4686
 2374TIP3    H128757   4.957   2.764   8.387  1.2087 -0.1889 -3.5699
 2374TIP3    H228758   4.809   2.795   8.379  0.5282 -1.1314  1.5678
 2375TIP3   OH228759   1.503   3.080   1.597 -0.0101 -0.8722 -0.1996
 2375TIP3    H128760   1.556   3.159   1.607  0.6596 -1.2567 -0.6354
 2375TIP3    H228761   1.414   3.108   1.620  0.1858  0.0449 -0.5110
 2376TIP3   OH228762   3.274   6.546   8.351  0.6160  0.2258  0.2157
 2376TIP3    H128763   3.211   6.593   8.405  0.3330  0.9749 -0.7274
 2376TIP3    H228764   3.245   6.563   8.261  0.3568 -1.9452 -0.1773
 2377TIP3   OH228765   0.439   5.025   2.095  0.4930  0.1866  0.3770
 2377TIP3    H128766   0.397   5.101   2.053 -0.1973 -0.1566  0.4310
 2377TIP3    H228767   0.529   5.054   2.112  0.7380  0.3922 -1.1720
 2378TIP3   OH228768   0.152   1.985   6.342 -0.1770 -0.5760  0.4078
 2378TIP3    H128769   0.235   1.936   6.341 -0.1227 -0.4817  0.2201
 2378TIP3    H228770   0.141   2.012   6.433  0.9219  0.9671  0.1237
 2379TIP3   OH228771   6.280   3.207   7.666  0.2933  0.1809  0.2416
 2379TIP3    H128772   6.357   3.233   7.716  1.3788 -1.4503 -0.5166
 2379TIP3    H228773   6.212   3.194   7.733  0.9647  0.6259  1.0259
 2380TIP3   OH228774   6.008   2.165   2.415  0.3487  0.0152  0.0855
 2380TIP3    H128775   5.919   2.195   2.435  0.1213  0.8155 -1.8621
 2380TIP3    H228776   5.996   2.082   2.370  0.6014  0.0044  0.0384
 2381TIP3   OH228777   4.179   2.604   7.884 -0.4455 -0.0275  0.4612
 2381TIP3    H128778   4.182   2.580   7.791  0.1884  2.0441 -0.1117
 2381TIP3    H228779   4.251   2.555   7.923  2.0036  2.1218 -1.0198
 2382TIP3   OH228780   6.091   6.850   7.272 -0.6368 -0.2463 -0.7043
 2382TIP3    H128781   6.109   6.761   7.241 -0.8853 -1.2668  1.7787
 2382TIP3    H228782   6.000   6.847   7.301 -0.4694  0.6485 -0.0388
 2383TIP3   OH228783   0.886   4.106   8.648 -0.1196  0.6811 -0.2976
 2383TIP3    H128784   0.935   4.025   8.634  2.7937  2.3847 -0.8354
 2383TIP3    H228785   0.870   4.140   8.560  0.6094  1.7178 -0.0472
 2384TIP3   OH228786   0.613   6.461   8.218  0.2890 -0.7833  0.2059
 2384TIP3    H128787   0.633   6.480   8.126  0.3704  2.1619  0.7383
 2384TIP3    H228788   0.522   6.433   8.216  0.5385 -1.6021 -0.8519
 2385TIP3   OH228789   5.649   0.567   0.380  0.1131  0.3248  0.1372
 2385TIP3    H128790   5.674   0.521   0.461  3.1126 -1.2047 -1.5023
 2385TIP3    H228791   5.601   0.501   0.330  1.0234  0.2142 -0.6073
 2386TIP3   OH228792   3.752   2.766   8.551 -0.4821 -0.3193  0.0519
 2386TIP3    H128793   3.740   2.840   8.610  1.1605  0.5398 -0.6322
 2386TIP3    H228794   3.719   2.797   8.467  1.1302  0.0582 -0.4819
 2387TIP3   OH228795   2.664   1.320   2.373 -0.1232 -0.3561  0.1280
 2387TIP3    H128796   2.692   1.324   2.464 -0.3755 -0.2420  0.2006
 2387TIP3    H228797   2.606   1.244   2.370  0.5140 -0.8406 -0.1105
 2388TIP3   OH228798   2.730   0.538   0.638 -0.3890 -0.2755  0.3397
 2388TIP3    H128799   2.732   0.595   0.561 -1.1937 -0.4456  0.1872
 2388TIP3    H228800   2.637   0.524   0.655 -0.2328  0.2526  1.7185
 2389TIP3   OH228801   6.760   1.447   1.561  0.5475 -0.0052 -0.1951
 2389TIP3    H128802   6.775   1.361   1.521  0.6344  0.9463 -2.3320
 2389TIP3    H228803   6.846   1.472   1.597  1.1298  0.1545 -1.6248
 2390TIP3   OH228804   2.343   1.639   2.495  0.4130  0.5694  0.6925
 2390TIP3    H128805   2.430   1.655   2.530  1.5719 -3.7979  0.3341
 2390TIP3    H228806   2.318   1.553   2.529 -2.5078  0.3594 -1.5484
 2391TIP3   OH228807   4.518   5.465   7.567 -0.5157  0.2314  0.0183
 2391TIP3    H128808   4.544   5.426   7.650 -1.7713  0.3447  0.4853
 2391TIP3    H228809   4.576   5.425   7.502  0.8007  0.4918  0.9902
 2392TIP3   OH228810   1.363   1.259   8.539 -0.5472  0.2246 -0.0175
 2392TIP3    H128811   1.293   1.312   8.501 -0.0782 -0.1499 -1.4745
 2392TIP3    H228812   1.379   1.190   8.474  2.2453  1.2215 -0.5246
 2393TIP3   OH228813   3.580   5.474   7.080  0.1290  0.0062  0.0987
 2393TIP3    H128814   3.485   5.475   7.094  0.2262 -0.7518  0.8738
 2393TIP3    H228815   3.591   5.504   6.990 -0.7977  0.7807  0.2267
 2394TIP3   OH228816   1.627   6.443   7.626  0.2187 -0.6673 -0.0648
 2394TIP3    H128817   1.582   6.517   7.666  0.6804 -0.1462 -0.4882
 2394TIP3    H228818   1.703   6.427   7.682  0.1084 -0.8317  0.0374
 2395TIP3   OH228819   1.540   5.163   8.138 -0.7150 -0.4228  0.4662
 2395TIP3    H128820   1.629   5.187   8.114 -0.6688 -0.1269  0.9305
 2395TIP3    H228821   1.534   5.181   8.231 -1.2838 -0.3785  0.4266
 2396TIP3   OH228822   6.660   2.178   0.689  0.4371 -0.6638 -1.0401
 2396TIP3    H128823   6.585   2.197   0.632  0.8207  0.1041 -1.3146
 2396TIP3    H228824   6.664   2.252   0.749  1.3293 -0.3702 -1.4287
 2397TIP3   OH228825   1.361   2.697   1.025  0.3177 -0.5720 -0.2722
 2397TIP3    H128826   1.396   2.654   1.103 -0.5822  0.4321  0.7193
 2397TIP3    H228827   1.439   2.719   0.973  0.8603 -2.3246 -0.2787
 2398TIP3   OH228828   2.735   0.853   6.924 -0.1952 -0.4022 -0.5610
 2398TIP3    H128829   2.770   0.918   6.862 -0.1610  1.7244  1.5314
 2398TIP3    H228830   2.811   0.822   6.972 -0.4865 -0.0440  0.1567
 2399TIP3   OH228831   3.867   2.435   0.001  0.1507  0.3221  0.3807
 2399TIP3    H128832   3.921   2.487   0.061  0.2067 -0.2284  0.8139
 2399TIP3    H228833   3.869   2.346   0.038 -0.7512  0.2183  0.2006
 2400TIP3   OH228834   1.666   2.278   0.248 -0.2333 -0.1404 -0.4444
 2400TIP3    H128835   1.617   2.197   0.234 -2.4881  0.9664  0.4582
 2400TIP3    H228836   1.624   2.342   0.190  2.4706  0.1325 -2.2798
 2401TIP3   OH228837   5.836   0.350   0.300 -0.1629 -0.5502  0.5189
 2401TIP3    H128838   5.743   0.324   0.301 -0.1696 -0.5098  1.1220
 2401TIP3    H228839   5.882   0.270   0.275 -0.2497 -0.9484  1.5895
 2402TIP3   OH228840   4.512   6.733   0.651  0.9524 -0.0517  0.1425
 2402TIP3    H128841   4.543   6.644   0.631 -1.6862 -0.9628 -0.2288
 2402TIP3    H228842   4.461   6.758   0.575  1.1496  1.5804  0.5113
 2403TIP3   OH228843   3.116   6.731   8.471 -0.9117 -0.3379  0.0804
 2403TIP3    H128844   3.022   6.717   8.466 -1.1437  1.4021 -1.1432
 2403TIP3    H228845   3.130   6.817   8.433  1.1628 -0.4484  0.4663
 2404TIP3   OH228846   0.664   2.169   7.574 -0.1060 -0.2580 -0.3698
 2404TIP3    H128847   0.733   2.202   7.515  1.0847  0.4412  1.3434
 2404TIP3    H228848   0.657   2.076   7.553 -0.6415  0.2022 -2.4815
 2405TIP3   OH228849   1.021   5.592   7.240  0.2133  0.6351 -0.3231
 2405TIP3    H128850   0.956   5.609   7.308  0.9422  0.5305  0.4101
 2405TIP3    H228851   0.971   5.595   7.158 -0.7734  0.2401  0.2461
 2406TIP3   OH228852   4.965   0.281   8.045 -0.1078 -0.5866  0.2131
 2406TIP3    H128853   5.015   0.352   8.005 -0.8975 -0.0286  0.1883
 2406TIP3    H228854   4.874   0.299   8.019 -0.1856 -2.3177 -0.8729
 2407TIP3   OH228855   2.583   6.675   7.699 -0.5008 -0.4483 -0.0124
 2407TIP3    H128856   2.633   6.667   7.780 -0.4121 -2.5634 -0.2098
 2407TIP3    H228857   2.640   6.636   7.632 -1.8266 -1.6615 -0.4815
 2408TIP3   OH228858   5.891   3.755   0.930 -0.3875  0.1512 -0.3228
 2408TIP3    H128859   5.830   3.825   0.952 -0.7045 -0.4675  0.8562
 2408TIP3    H228860   5.858   3.719   0.848 -0.7101  0.8129 -0.4893
 2409TIP3   OH228861   6.215   3.814   1.289 -0.7538  0.2602  0.4020
 2409TIP3    H128862   6.138   3.793   1.341 -0.4202  0.7537  1.1066
 2409TIP3    H228863   6.187   3.798   1.198 -0.4950 -3.4396  0.7886
 2410TIP3   OH228864   6.285   1.654   0.732 -0.6630  0.4790 -0.1039
 2410TIP3    H128865   6.307   1.641   0.640  1.1035  0.0608  0.3453
 2410TIP3    H228866   6.213   1.717   0.730 -1.0007  0.1048 -1.7816
 2411TIP3   OH228867   0.467   0.480   7.648 -0.1342  0.3235 -0.2116
 2411TIP3    H128868   0.505   0.461   7.562 -1.7081 -2.0390 -0.4687
 2411TIP3    H228869   0.526   0.546   7.686  1.9969 -0.3768 -2.0689
 2412TIP3   OH228870   4.004   1.368   1.531 -0.5826  0.0536 -0.0990
 2412TIP3    H128871   4.093   1.374   1.497 -0.3225  0.7612  0.6834
 2412TIP3    H228872   3.969   1.288   1.491  1.0607 -1.3252  1.0770
 2413TIP3   OH228873   4.433   6.441   1.041  0.4776  0.1612 -0.4884
 2413TIP3    H128874   4.382   6.522   1.034  0.0153 -0.1302 -0.5347
 2413TIP3    H228875   4.388   6.390   1.109  2.5802  1.2466  1.8777
 2414TIP3   OH228876   4.637   5.873   2.501  0.0265 -0.1220  0.1001
 2414TIP3    H128877   4.617   5.927   2.577 -1.8581 -1.6931  0.7893
 2414TIP3    H228878   4.612   5.927   2.426  0.1406  0.7212  0.6516
 2415TIP3   OH228879   6.903   0.960   7.328 -0.4911 -0.3215 -0.4033
 2415TIP3    H128880   6.938   0.884   7.281  1.0519 -0.2387  0.5407
 2415TIP3    H228881   6.808   0.949   7.325 -0.3212 -1.8449 -0.9868
 2416TIP3   OH228882   6.655   5.321   1.790  0.3183  0.4388 -0.0747
 2416TIP3    H128883   6.710   5.317   1.868  1.1344  0.2818 -0.6426
 2416TIP3    H228884   6.626   5.412   1.786 -0.7662  0.1711  1.0902
 2417TIP3   OH228885   0.114   5.111   1.308 -0.6295 -0.2760 -0.7537
 2417TIP3    H128886   0.105   5.135   1.400  0.2125  0.9035 -0.9672
 2417TIP3    H228887   0.202   5.073   1.301  0.3494  1.9712 -1.5216
 2418TIP3   OH228888   2.887   3.325   2.612  0.0315  0.3304 -0.6619
 2418TIP3    H128889   2.818   3.372   2.659 -0.1862  1.4168 -2.0121
 2418TIP3    H228890   2.841   3.278   2.543  0.3189 -1.4614  0.3023
 2419TIP3   OH228891   6.291   2.131   7.227  0.6102 -0.3591  1.1410
 2419TIP3    H128892   6.338   2.121   7.310  0.4779  0.7460  1.3695
 2419TIP3    H228893   6.359   2.145   7.162  0.6540  0.3457  1.3278
 2420TIP3   OH228894   3.448   5.950   6.936  0.4235  0.2882  0.0057
 2420TIP3    H128895   3.540   5.946   6.963 -0.0329  0.4266  1.7175
 2420TIP3    H228896   3.424   6.042   6.949 -0.2842  0.0030  0.8056
 2421TIP3   OH228897   0.619   5.243   1.179  0.1444 -0.6853 -0.2398
 2421TIP3    H128898   0.676   5.273   1.249 -0.5825 -1.7231  0.8321
 2421TIP3    H228899   0.677   5.228   1.105  1.0869 -0.6293  0.4742
 2422TIP3   OH228900   6.309   6.756   8.396  0.0668  0.2895 -1.0281
 2422TIP3    H128901   6.382   6.759   8.334  0.0021 -0.4032 -1.1471
 2422TIP3    H228902   6.343   6.798   8.475  0.6109 -0.0657 -1.0707
 2423TIP3   OH228903   4.890   5.825   2.433  0.3399  0.5518  0.6454
 2423TIP3    H128904   4.907   5.843   2.341  1.1960 -0.7895  0.5207
 2423TIP3    H228905   4.797   5.846   2.444  0.0006 -0.0948 -0.7365
 2424TIP3   OH228906   6.020   0.601   8.469  0.0512  0.0666 -0.1389
 2424TIP3    H128907   6.041   0.518   8.510 -0.5998 -0.3399 -0.6135
 2424TIP3    H228908   6.020   0.664   8.542 -2.6230 -0.8919  0.8061
 2425TIP3   OH228909   4.951   6.301   0.619 -0.6559  0.2018  0.1335
 2425TIP3    H128910   5.028   6.309   0.564 -1.0165 -0.2861 -0.4556
 2425TIP3    H228911   4.943   6.386   0.662 -0.6606  0.7584 -0.9506
 2426TIP3   OH228912   5.329   2.984   7.425 -0.3706 -0.0493  0.6734
 2426TIP3    H128913   5.327   3.071   7.384 -0.4551 -0.1120  0.5433
 2426TIP3    H228914   5.243   2.946   7.404  0.0272 -0.5461 -0.0942
 2427TIP3   OH228915   5.196   0.928   0.962 -0.1019  0.4080  0.1421
 2427TIP3    H128916   5.200   0.963   1.050 -0.1264 -0.5384  0.5339
 2427TIP3    H228917   5.286   0.931   0.930 -0.4754  3.4126 -0.9134
 2428TIP3   OH228918   2.414   5.668   8.001 -0.3801 -0.5426  0.3743
 2428TIP3    H128919   2.406   5.708   7.915 -1.4139 -0.8968  0.2912
 2428TIP3    H228920   2.383   5.735   8.062 -0.5435 -0.6290  0.3860
 2429TIP3   OH228921   6.703   6.219   1.770  0.8214  0.1164  0.6795
 2429TIP3    H128922   6.672   6.129   1.764  1.3862 -0.1591  1.6295
 2429TIP3    H228923   6.737   6.226   1.860  0.4936  1.3692  0.7151
 2430TIP3   OH228924   3.106   3.100   8.646 -0.0525  0.4178  0.2429
 2430TIP3    H128925   3.116   3.053   8.728  0.7616  0.4580  0.1725
 2430TIP3    H228926   3.040   3.050   8.598  0.1251 -0.1203  0.5514
 2431TIP3   OH228927   0.885   2.482   8.200 -0.6384  0.6070  0.1290
 2431TIP3    H128928   0.801   2.443   8.225  0.2104 -0.7241  1.0423
 2431TIP3    H228929   0.885   2.480   8.105 -2.2474  1.9968  0.0724
 2432TIP3   OH228930   0.345   5.283   1.185 -0.0783 -0.0629 -0.1973
 2432TIP3    H128931   0.439   5.284   1.170  0.0510  1.1942  0.5751
 2432TIP3    H228932   0.332   5.216   1.252  0.5208  1.0005  1.0352
 2433TIP3   OH228933   3.739   2.302   0.459 -0.5123  0.8109 -0.1769
 2433TIP3    H128934   3.656   2.286   0.504 -1.2205  1.9344 -1.0239
 2433TIP3    H228935   3.718   2.294   0.366 -0.7144  4.9915 -0.6741
 2434TIP3   OH228936   2.782   5.875   0.077 -0.3806  0.2367 -0.5777
 2434TIP3    H128937   2.780   5.870  -0.019 -0.1169  0.6919 -0.6108
 2434TIP3    H228938   2.858   5.931   0.096  0.8084 -1.4833 -0.0315
 2435TIP3   OH228939   4.089   3.421   1.980 -0.5862 -0.2315 -0.6979
 2435TIP3    H128940   4.178   3.436   2.011  0.1498 -1.3041 -2.1543
 2435TIP3    H228941   4.046   3.507   1.986  0.6664  0.3943 -0.3793
 2436TIP3   OH228942   5.299   0.532   0.428  0.4608 -0.6037  0.2492
 2436TIP3    H128943   5.376   0.565   0.382 -0.4144 -0.0169 -0.8391
 2436TIP3    H228944   5.303   0.575   0.514  0.6601  0.4532 -0.2699
 2437TIP3   OH228945   5.454   0.664   8.049 -0.1601 -0.3125 -0.2633
 2437TIP3    H128946   5.453   0.570   8.064  0.6782 -0.9260 -3.2660
 2437TIP3    H228947   5.519   0.698   8.110  0.9642 -2.0063 -0.4463
 2438TIP3   OH228948   0.819   1.786   0.938  0.0538 -0.3035  0.4279
 2438TIP3    H128949   0.839   1.716   1.001 -0.0453  1.3564  2.4264
 2438TIP3    H228950   0.738   1.826   0.971  0.5516  1.2802 -0.1484
 2439TIP3   OH228951   4.556   3.989   1.547  0.1218  0.3244  0.1428
 2439TIP3    H128952   4.505   3.949   1.618  0.7517 -0.1220  0.3463
 2439TIP3    H228953   4.623   3.925   1.526 -0.3203  0.2728 -1.1656
 2440TIP3   OH228954   0.598   4.763   1.010 -0.2390 -0.3693 -0.6364
 2440TIP3    H128955   0.599   4.797   1.100 -0.4178  0.8877 -1.0821
 2440TIP3    H228956   0.507   4.768   0.984 -0.1388 -0.4039 -0.9962
 2441TIP3   OH228957   2.549   2.375   8.079 -0.1259  0.3766 -0.0151
 2441TIP3    H128958   2.577   2.304   8.136  1.3396  1.1787  0.3168
 2441TIP3    H228959   2.606   2.449   8.103  0.2435  0.8653 -2.1991
 2442TIP3   OH228960   4.026   6.421   8.303  1.1145  0.2235  0.6079
 2442TIP3    H128961   4.044   6.510   8.331  1.5801  0.7978 -1.3498
 2442TIP3    H228962   4.111   6.376   8.311  0.3200 -1.0052  4.4394
 2443TIP3   OH228963   1.136   5.861   7.218 -0.1902 -0.3481 -0.2348
 2443TIP3    H128964   1.056   5.847   7.268  1.7993  0.0449  3.5027
 2443TIP3    H228965   1.155   5.776   7.178 -1.8444 -0.7441 -0.2486
 2444TIP3   OH228966   5.422   3.983   0.181 -0.1740 -0.2510 -0.0867
 2444TIP3    H128967   5.457   4.068   0.152  0.2011 -0.1865  0.5239
 2444TIP3    H228968   5.500   3.928   0.192 -0.4736 -1.0015 -1.4283
 2445TIP3   OH228969   5.249   2.024   7.861  0.7114 -0.1565 -0.1710
 2445TIP3    H128970   5.185   1.971   7.814 -1.1061  0.8251  1.0879
 2445TIP3    H228971   5.269   2.095   7.801 -0.0576 -0.0006 -0.2558
 2446TIP3   OH228972   4.039   2.103   7.339 -0.5081  0.6558 -0.3225
 2446TIP3    H128973   4.049   2.158   7.261  0.1071 -1.7994 -2.1130
 2446TIP3    H228974   3.946   2.108   7.360 -0.8138  0.8561 -1.6459
 2447TIP3   OH228975   2.222   0.889   1.776 -0.0097 -0.0574  0.0633
 2447TIP3    H128976   2.298   0.841   1.809  1.2413  1.3314 -0.6558
 2447TIP3    H228977   2.184   0.831   1.711  0.8308 -0.5213 -0.0356
 2448TIP3   OH228978   1.950   5.954   6.648  0.3563  0.2472  0.7292
 2448TIP3    H128979   1.891   5.990   6.582  0.6434 -0.2386  0.1955
 2448TIP3    H228980   1.925   5.998   6.729  0.9789  1.9364  0.0336
 2449TIP3   OH228981   2.426   3.751   8.070 -0.0538 -0.1868  0.0976
 2449TIP3    H128982   2.522   3.749   8.075 -0.0482  0.5899  0.4726
 2449TIP3    H228983   2.403   3.842   8.089 -0.7640  0.1541 -2.0700
 2450TIP3   OH228984   5.038   3.090   8.637  0.3107 -0.2111 -0.0443
 2450TIP3    H128985   5.108   3.043   8.683  0.3515 -0.8354 -0.7292
 2450TIP3    H228986   5.027   3.171   8.687 -0.1499 -1.1802  1.4885
 2451TIP3   OH228987   3.140   4.940   0.621  0.4759 -0.0991  0.1838
 2451TIP3    H128988   3.179   4.953   0.708  0.6399  0.0612  0.0867
 2451TIP3    H228989   3.063   4.998   0.621  0.8407  0.3949 -0.0119
 2452TIP3   OH228990   5.995   5.431   1.549 -0.5786 -0.3285  0.0764
 2452TIP3    H128991   5.954   5.513   1.578 -0.2694 -0.1694  0.0684
 2452TIP3    H228992   5.999   5.377   1.628  1.4428  0.5923  0.6585
 2453TIP3   OH228993   0.690   3.837   1.755 -0.2719 -0.6645  0.2096
 2453TIP3    H128994   0.769   3.842   1.810  0.6298 -0.5500 -1.0395
 2453TIP3    H228995   0.722   3.808   1.670 -1.3429  0.8004 -0.7577
 2454TIP3   OH228996   1.954   0.558   1.715 -0.1185 -0.1338 -0.4811
 2454TIP3    H128997   1.917   0.579   1.800 -0.3619  1.3202 -0.9182
 2454TIP3    H228998   1.890   0.499   1.675 -1.6808  1.7410 -0.9183
 2455TIP3   OH228999   4.577   1.690   0.520 -0.1312  0.4343  0.4327
 2455TIP3    H129000   4.617   1.756   0.576 -0.3647 -0.9893  2.3515
 2455TIP3    H229001   4.516   1.643   0.577 -2.1209  0.4021 -1.5951
 2456TIP3   OH229002   6.393   4.131   7.568  0.0876 -0.4328  0.1197
 2456TIP3    H129003   6.333   4.183   7.622 -0.6458 -0.7634 -0.3555
 2456TIP3    H229004   6.342   4.053   7.544 -0.6885  0.9557 -3.3803
 2457TIP3   OH229005   1.936   2.211   1.259  0.3385 -0.2089  0.0330
 2457TIP3    H129006   1.950   2.148   1.188 -0.4862 -2.3914  1.6901
 2457TIP3    H229007   2.024   2.238   1.284  0.9626 -2.8104  0.9940
 2458TIP3   OH229008   1.641   2.841   0.101  0.1931 -0.4119 -0.8237
 2458TIP3    H129009   1.567   2.832   0.042 -2.1999  1.2521  1.7076
 2458TIP3    H229010   1.667   2.933   0.093  0.0463 -0.2516  0.4224
 2459TIP3   OH229011   2.276   6.625   7.291  0.1468 -0.0042  0.2368
 2459TIP3    H129012   2.317   6.543   7.317  0.0792  0.6515  2.7094
 2459TIP3    H229013   2.198   6.632   7.347 -0.2909  1.3651 -0.4811
 2460TIP3   OH229014   0.365   3.672   8.497 -0.0184 -0.5668  0.7002
 2460TIP3    H129015   0.420   3.597   8.522  1.0839  0.5354  1.7013
 2460TIP3    H229016   0.370   3.674   8.401 -0.6011 -2.1548  0.6132
 2461TIP3   OH229017   5.075   5.828   3.133 -0.2260  0.0871  0.5909
 2461TIP3    H129018   5.070   5.816   3.038  1.1527  0.9588  0.3878
 2461TIP3    H229019   4.999   5.882   3.155 -0.4972 -0.0404 -0.0122
 2462TIP3   OH229020   0.034   3.418   0.339 -0.7761 -0.5308  1.0151
 2462TIP3    H129021  -0.060   3.398   0.343 -0.5520 -2.0547 -0.3906
 2462TIP3    H229022   0.037   3.512   0.319 -1.9553 -0.1023  2.6709
 2463TIP3   OH229023   2.420   5.720   1.969 -0.4321 -0.5844  0.2754
 2463TIP3    H129024   2.360   5.665   1.918 -2.1133  0.1684  1.3767
 2463TIP3    H229025   2.395   5.707   2.060 -0.7522  1.7704  0.6067
 2464TIP3   OH229026   1.562   4.014   1.092  0.8989  0.1588 -0.7234
 2464TIP3    H129027   1.544   3.990   1.183 -3.0331  2.3842 -0.6547
 2464TIP3    H229028   1.578   4.108   1.095  1.8827  0.0827 -2.2789
 2465TIP3   OH229029   6.066   6.063   0.193  0.0073  0.2904 -0.7370
 2465TIP3    H129030   5.994   6.014   0.234  0.0902 -1.1908 -2.2495
 2465TIP3    H229031   6.076   6.141   0.248 -1.3760 -0.4764  0.7000
 2466TIP3   OH229032   2.373   3.451   7.670 -0.1441  0.6763  0.3205
 2466TIP3    H129033   2.298   3.485   7.719  1.3092  3.3450  0.9194
 2466TIP3    H229034   2.436   3.425   7.738 -0.9294 -2.8931 -0.1363
 2467TIP3   OH229035   4.201   6.860   7.119  0.0322 -0.2988  0.1431
 2467TIP3    H129036   4.109   6.879   7.098  0.1377  0.7651  0.5820
 2467TIP3    H229037   4.200   6.772   7.155 -0.7552 -0.4763 -0.2981
 2468TIP3   OH229038   1.148   1.929   6.662  0.1430 -0.1494 -0.4863
 2468TIP3    H129039   1.143   1.837   6.688  2.2212 -0.4547 -0.9814
 2468TIP3    H229040   1.198   1.971   6.732 -1.3798  0.7906  0.0839
 2469TIP3   OH229041   4.442   0.792   8.051  0.7111  0.0620 -0.5157
 2469TIP3    H129042   4.376   0.849   8.010 -0.2852  0.0825  0.9964
 2469TIP3    H229043   4.422   0.705   8.018  0.6806  0.2416 -0.9785
 2470TIP3   OH229044   0.416   2.507   0.614 -0.3761 -0.1340  0.3895
 2470TIP3    H129045   0.429   2.592   0.657 -2.1857  0.1245  0.5110
 2470TIP3    H229046   0.489   2.453   0.645  0.9339  1.4028  0.1652
 2471TIP3   OH229047   1.596   6.352   0.088  0.2212 -0.1400 -0.4240
 2471TIP3    H129048   1.625   6.441   0.111 -1.2683  0.4893 -0.8672
 2471TIP3    H229049   1.650   6.329   0.012  0.1253  0.6948 -0.7663
 2472TIP3   OH229050   1.181   6.590   8.347  0.3723 -0.0296  0.0014
 2472TIP3    H129051   1.190   6.679   8.312  1.1255 -1.5592 -4.2525
 2472TIP3    H229052   1.090   6.586   8.377  0.2584  2.0532  0.1249
 2473TIP3   OH229053   5.308   3.929   8.359 -0.3570  0.0413  0.2863
 2473TIP3    H129054   5.394   3.905   8.393 -0.8927 -0.7354  1.1415
 2473TIP3    H229055   5.285   4.008   8.408 -1.2578 -1.2434  2.0433
 2474TIP3   OH229056   1.119   5.659   2.130  0.1292 -0.2258 -0.2523
 2474TIP3    H129057   1.048   5.606   2.094 -0.5030  0.0036  0.6206
 2474TIP3    H229058   1.195   5.601   2.128 -0.3793 -0.9150  0.0000
 2475TIP3   OH229059   0.099   0.971   6.952  0.5323  0.0610  0.5893
 2475TIP3    H129060   0.133   0.911   7.019  0.2802 -1.4675 -0.5934
 2475TIP3    H229061   0.005   0.976   6.971  0.5752  0.1908  0.7725
 2476TIP3   OH229062   0.724   2.196   1.348  0.2947  0.3461 -0.2007
 2476TIP3    H129063   0.733   2.101   1.338  1.0505  0.5515 -1.8841
 2476TIP3    H229064   0.653   2.207   1.411  2.9506 -1.3483  3.4046
 2477TIP3   OH229065   0.995   6.459   0.880 -0.1406 -0.5905 -0.7916
 2477TIP3    H129066   1.031   6.521   0.943  0.3429  0.1674 -1.7728
 2477TIP3    H229067   0.970   6.383   0.932 -0.6242  0.3713  0.4264
 2478TIP3   OH229068   2.499   4.449   7.000  0.2450 -0.7521 -0.3229
 2478TIP3    H129069   2.440   4.407   6.938 -0.6352 -0.6130  0.4068
 2478TIP3    H229070   2.581   4.460   6.951 -0.4468 -0.5751 -1.4792
 2479TIP3   OH229071   5.149   5.805   7.219  0.0031  0.0429 -0.2238
 2479TIP3    H129072   5.055   5.789   7.217 -0.0337 -0.1244  1.3350
 2479TIP3    H229073   5.157   5.899   7.240  0.1544 -0.1790  0.7754
 2480TIP3   OH229074   4.258   0.433   1.986 -0.1359 -0.4009 -0.3613
 2480TIP3    H129075   4.332   0.392   2.030 -0.0255 -1.1547 -1.2113
 2480TIP3    H229076   4.205   0.470   2.056 -1.3710 -3.8320  0.7377
 2481TIP3   OH229077   6.890   0.835   7.891  1.0028  0.6354 -0.0957
 2481TIP3    H129078   6.818   0.886   7.928 -0.7524 -0.8140 -1.3386
 2481TIP3    H229079   6.906   0.766   7.957 -0.3863 -0.4226 -0.8110
 2482TIP3   OH229080   1.663   6.158   7.133  0.0474  0.4209 -0.4128
 2482TIP3    H129081   1.568   6.152   7.126  0.0835  0.2010 -0.7234
 2482TIP3    H229082   1.693   6.180   7.045  0.2842  0.4832 -0.3177
 2483TIP3   OH229083   1.853   0.944   2.264  0.2592 -0.0790  0.1789
 2483TIP3    H129084   1.903   0.977   2.339  2.1345 -1.9373 -0.1789
 2483TIP3    H229085   1.917   0.900   2.209 -1.4179 -0.5570 -1.5041
 2484TIP3   OH229086   6.036   3.339   1.331 -0.1713  0.0673  0.3007
 2484TIP3    H129087   5.979   3.268   1.360 -0.4756  0.9764  2.0775
 2484TIP3    H229088   5.981   3.392   1.273 -1.4255  1.2716  2.4646
 2485TIP3   OH229089   0.038   2.047   7.012  0.1907 -0.6452  0.0055
 2485TIP3    H129090  -0.041   2.001   6.982 -0.1850 -0.3704  0.5584
 2485TIP3    H229091   0.102   1.977   7.029  0.4140 -0.8143 -1.3966
 2486TIP3   OH229092   6.374   1.816   7.954  0.0134 -0.0715 -0.2584
 2486TIP3    H129093   6.302   1.775   8.003  0.6230 -1.1892 -0.2765
 2486TIP3    H229094   6.381   1.904   7.991 -0.7216 -0.2877  0.4177
 2487TIP3   OH229095   2.854   0.303   7.291 -0.2933  0.2934 -0.6713
 2487TIP3    H129096   2.817   0.215   7.292 -0.7146  0.4595 -1.0824
 2487TIP3    H229097   2.792   0.354   7.240  1.0520  0.3488 -2.3196
 2488TIP3   OH229098   1.155   1.622   7.027 -0.1203  0.3673  0.3199
 2488TIP3    H129099   1.135   1.605   7.119  0.7824 -0.1541  0.4310
 2488TIP3    H229100   1.242   1.585   7.014 -1.7668 -3.3149 -1.7736
 2489TIP3   OH229101   3.739   4.110   7.118  0.0685 -0.0883  0.4305
 2489TIP3    H129102   3.761   4.140   7.206 -0.5189  1.9915 -0.0726
 2489TIP3    H229103   3.646   4.090   7.122  0.1009 -0.2634  0.3379
 2490TIP3   OH229104   6.258   4.296   1.275  0.1750 -0.2312  0.7027
 2490TIP3    H129105   6.169   4.281   1.308 -0.1633  1.4128  0.6248
 2490TIP3    H229106   6.255   4.383   1.237  1.1839 -1.1371 -1.6069
 2491TIP3   OH229107   6.625   6.637   6.620  1.0009 -0.1928  0.3379
 2491TIP3    H129108   6.556   6.697   6.647  0.9154  0.0260 -0.3606
 2491TIP3    H229109   6.653   6.669   6.534  1.5817 -0.6117  0.3652
 2492TIP3   OH229110   4.458   5.552   0.575  0.1627  0.1948  0.0962
 2492TIP3    H129111   4.510   5.627   0.604 -1.2262  1.1496  0.1661
 2492TIP3    H229112   4.367   5.578   0.589 -0.3576 -1.4304 -0.0585
 2493TIP3   OH229113   6.654   2.594   6.455  0.1657 -0.2652 -0.7113
 2493TIP3    H129114   6.608   2.513   6.478 -1.4604  0.7095 -0.3488
 2493TIP3    H229115   6.676   2.584   6.363  2.1824 -2.1066 -0.0945
 2494TIP3   OH229116   5.746   2.267   7.890 -0.0702 -0.3430  0.4070
 2494TIP3    H129117   5.813   2.335   7.884  0.1356 -0.5092  0.7754
 2494TIP3    H229118   5.704   2.266   7.804 -1.1031  1.2993  0.8466
 2495TIP3   OH229119   4.898   3.296   7.790 -0.5766  0.1591 -0.4912
 2495TIP3    H129120   4.892   3.367   7.727  0.4038 -0.6562 -1.5416
 2495TIP3    H229121   4.859   3.220   7.745  0.5519 -0.5425 -0.3104
 2496TIP3   OH229122   3.487   5.125   2.287  0.0164  0.3282  0.1946
 2496TIP3    H129123   3.491   5.083   2.373 -3.3220 -2.0844 -0.6266
 2496TIP3    H229124   3.403   5.171   2.286  0.8126  1.8602 -1.2007
 2497TIP3   OH229125   1.937   6.244   1.991 -0.1128 -0.0378 -0.4372
 2497TIP3    H129126   1.949   6.292   1.910 -2.1912 -1.2872 -1.5488
 2497TIP3    H229127   1.931   6.153   1.965 -0.6105 -0.4954  1.1455
 2498TIP3   OH229128   3.357   3.299   1.972  0.4323  0.3519 -0.0759
 2498TIP3    H129129   3.314   3.300   1.887  0.6155 -0.6906 -0.1891
 2498TIP3    H229130   3.405   3.217   1.974  0.5807  0.4494  0.9623
 2499TIP3   OH229131   4.736   1.156   1.346  0.2036  0.6135 -0.0919
 2499TIP3    H129132   4.790   1.112   1.279  0.9390  2.0209 -0.4604
 2499TIP3    H229133   4.777   1.131   1.429 -0.1505 -0.3960 -0.2082
 2500TIP3   OH229134   4.991   5.133   7.999  0.2885  0.0262  0.8207
 2500TIP3    H129135   4.942   5.169   7.925 -0.3287 -0.8349  0.7991
 2500TIP3    H229136   5.005   5.041   7.976  3.2979  0.5601  0.1069
 2501TIP3   OH229137   3.461   4.652   7.851  0.2056  0.5788 -0.2760
 2501TIP3    H129138   3.417   4.598   7.917 -0.1537 -0.8456 -1.6166
 2501TIP3    H229139   3.523   4.704   7.901  0.4062 -0.9035  1.1297
 2502TIP3   OH229140   1.228   0.987   0.608 -0.0385 -0.8376 -0.0105
 2502TIP3    H129141   1.308   1.038   0.620 -0.5170  0.8015 -2.7934
 2502TIP3    H229142   1.164   1.050   0.576 -1.8925 -2.4813  0.2314
 2503TIP3   OH229143   3.848   2.553   6.698  0.6498 -0.7557  0.5389
 2503TIP3    H129144   3.878   2.498   6.626  2.2490 -1.2698  1.5528
 2503TIP3    H229145   3.834   2.639   6.658  2.8197 -0.6744 -0.1847
 2504TIP3   OH229146   3.961   2.883   2.765 -0.0388 -0.6471 -0.1170
 2504TIP3    H129147   3.990   2.898   2.855 -1.5647  1.2092  0.1433
 2504TIP3    H229148   4.021   2.934   2.711  0.0962 -0.7071 -0.0230
 2505TIP3   OH229149   4.015   0.576   6.851  0.3403 -0.3317  0.3680
 2505TIP3    H129150   4.089   0.523   6.820  0.6013  0.8687 -1.2001
 2505TIP3    H229151   3.964   0.592   6.772 -0.8514  0.0267  1.1992
 2506TIP3   OH229152   6.609   5.685   8.149  0.0381 -0.2673  0.5224
 2506TIP3    H129153   6.634   5.678   8.241  1.1389 -0.8002  0.2009
 2506TIP3    H229154   6.670   5.627   8.103 -1.3547 -1.0700 -0.3919
 2507TIP3   OH229155   1.056   4.937   8.441  0.0115 -0.4203  0.1398
 2507TIP3    H129156   0.996   4.943   8.367 -0.2123 -2.3385  0.1092
 2507TIP3    H229157   1.001   4.913   8.515  0.4633 -0.1987  0.5546
 2508TIP3   OH229158   5.506   6.219   8.370  0.3624 -0.4439 -0.2300
 2508TIP3    H129159   5.564   6.263   8.308 -1.2537  0.0131 -1.5066
 2508TIP3    H229160   5.543   6.131   8.380  1.5075 -0.0258 -0.6292
 2509TIP3   OH229161   0.171   0.364   0.847  0.0860  0.0511 -0.0638
 2509TIP3    H129162   0.136   0.348   0.760  0.7557  0.1048 -0.3494
 2509TIP3    H229163   0.096   0.395   0.898  0.2356  2.9055 -1.3849
 2510TIP3   OH229164   4.181   5.916   0.336  0.2491  0.0393  0.2310
 2510TIP3    H129165   4.223   5.940   0.253  0.6560  1.2595  0.7618
 2510TIP3    H229166   4.090   5.897   0.312  0.5608 -0.4488 -0.6082
 2511TIP3   OH229167   6.493   5.369   1.107 -0.0403  0.4790 -1.0176
 2511TIP3    H129168   6.398   5.366   1.117 -0.0125 -0.5822 -0.9821
 2511TIP3    H229169   6.522   5.434   1.170 -0.6586  0.0793 -0.3098
 2512TIP3   OH229170   0.837   2.568   1.047  0.2538 -0.6083  0.5235
 2512TIP3    H129171   0.915   2.622   1.055  0.0745 -0.0828 -0.9654
 2512TIP3    H229172   0.765   2.627   1.067  0.1728 -0.8065  0.8177
 2513TIP3   OH229173   4.560   4.692   6.391 -0.4244  0.3450  0.0111
 2513TIP3    H129174   4.561   4.781   6.427 -1.2391 -0.5751  2.4791
 2513TIP3    H229175   4.653   4.670   6.380 -0.1969  2.0373 -2.2656
 2514TIP3   OH229176   1.705   0.508   2.108  0.9964 -0.7407  0.1161
 2514TIP3    H129177   1.642   0.499   2.037  1.0355 -1.6159  0.1782
 2514TIP3    H229178   1.705   0.423   2.152  2.5074 -0.9082 -0.1317
 2515TIP3   OH229179   6.021   4.772   7.162 -0.5390  0.4687  0.0596
 2515TIP3    H129180   6.111   4.791   7.190 -0.3669 -3.2726  2.6835
 2515TIP3    H229181   6.031   4.714   7.086 -0.6741 -0.3689  0.6682
 2516TIP3   OH229182   1.536   5.023   0.600  0.5045 -0.1756 -0.0817
 2516TIP3    H129183   1.577   5.007   0.514  2.5019  1.0981  0.5480
 2516TIP3    H229184   1.610   5.036   0.659 -0.8418  0.7836  1.4715
 2517TIP3   OH229185   1.332   2.369   1.665 -1.4134 -0.3718  0.3134
 2517TIP3    H129186   1.303   2.434   1.729  0.9623 -0.0726  1.1831
 2517TIP3    H229187   1.304   2.404   1.581  0.0033  1.9606  0.7301
 2518TIP3   OH229188   5.314   1.431   0.022  0.3468 -0.4743 -0.1674
 2518TIP3    H129189   5.306   1.413  -0.072 -0.4870 -0.7191 -0.0534
 2518TIP3    H229190   5.235   1.480   0.044  1.3371  1.0762  0.0742
 2519TIP3   OH229191   3.841   3.313   2.726  1.0249 -0.0363  0.1678
 2519TIP3    H129192   3.761   3.260   2.727 -1.4473  3.3693  0.9384
 2519TIP3    H229193   3.889   3.283   2.803  0.1401 -1.6298  0.1578
 2520TIP3   OH229194   4.785   6.887   8.603  0.2280  0.0117 -0.8141
 2520TIP3    H129195   4.868   6.852   8.572 -0.8758 -2.3659 -1.3220
 2520TIP3    H229196   4.745   6.926   8.526 -0.2056 -1.1136 -1.1670
 2521TIP3   OH229197   4.120   5.628   0.409 -0.3850 -0.0777  0.4318
 2521TIP3    H129198   4.137   5.652   0.500 -1.2753  1.6667  0.1837
 2521TIP3    H229199   4.049   5.686   0.382  0.0487 -0.3689 -1.4725
 2522TIP3   OH229200   4.271   5.400   7.780  0.2697 -0.1646 -0.1287
 2522TIP3    H129201   4.223   5.322   7.755 -1.5158  1.0891 -0.8485
 2522TIP3    H229202   4.352   5.396   7.729 -0.1940 -1.1048 -0.8209
 2523TIP3   OH229203   0.942   3.389   0.525 -0.0079 -0.4821 -0.3863
 2523TIP3    H129204   0.946   3.305   0.570  0.5454 -0.5822 -0.6063
 2523TIP3    H229205   0.849   3.408   0.516 -0.1519 -0.2672  1.1556
 2524TIP3   OH229206   1.975   1.580   2.072 -0.1035  0.3600 -0.4754
 2524TIP3    H129207   1.905   1.521   2.098  0.3313 -0.4987 -1.2161
 2524TIP3    H229208   1.965   1.591   1.977  1.1515 -0.3276 -0.7144
 2525TIP3   OH229209   2.012   0.006   1.972  0.1721  0.5881 -0.4070
 2525TIP3    H129210   2.029  -0.016   2.063 -0.7862 -0.4499 -0.4513
 2525TIP3    H229211   1.957   0.084   1.976 -2.1552 -0.9674  0.0596
 2526TIP3   OH229212   4.243   4.007   0.811  0.0179 -0.0065  0.3323
 2526TIP3    H129213   4.275   4.035   0.897 -0.4397 -1.3002  0.9526
 2526TIP3    H229214   4.319   4.016   0.753  0.2981  0.9960  0.8415
 2527TIP3   OH229215   2.975   2.505   7.569 -0.1539  0.0706 -0.2101
 2527TIP3    H129216   2.958   2.457   7.650 -0.6511  2.7945  1.4312
 2527TIP3    H229217   2.897   2.559   7.556  0.6021  0.8895 -1.6037
 2528TIP3   OH229218   3.852   2.895   0.559  0.0884  0.2844 -0.3318
 2528TIP3    H129219   3.817   2.952   0.628  0.8996  0.8521 -0.3827
 2528TIP3    H229220   3.777   2.881   0.500 -0.8952 -1.0005  1.1348
 2529TIP3   OH229221   6.151   0.350   6.609 -0.2690 -0.2838 -0.4546
 2529TIP3    H129222   6.204   0.427   6.589  0.2637 -0.4714  0.1733
 2529TIP3    H229223   6.215   0.284   6.636 -0.6176 -1.2911 -1.9516
 2530TIP3   OH229224   5.347   5.188   1.331  0.5886 -0.0438  0.3319
 2530TIP3    H129225   5.413   5.252   1.304 -0.3606  0.0475 -2.0014
 2530TIP3    H229226   5.390   5.103   1.320  0.2378 -0.0100 -1.6517
 2531TIP3   OH229227   4.872   0.286   1.823 -0.3689 -0.0763  0.1438
 2531TIP3    H129228   4.934   0.221   1.788  0.1259  1.0695 -1.1882
 2531TIP3    H229229   4.834   0.326   1.745 -0.2589  1.6151  0.9314
 2532TIP3   OH229230   6.323   5.381   0.284 -0.1479  0.1478  0.9792
 2532TIP3    H129231   6.395   5.387   0.222 -1.9584  2.2124 -1.1184
 2532TIP3    H229232   6.282   5.297   0.265 -0.9735  0.9465 -1.1291
 2533TIP3   OH229233   3.054   0.836   6.695  0.1449 -0.2263 -0.1234
 2533TIP3    H129234   3.004   0.913   6.723 -2.7058 -1.7303 -0.6570
 2533TIP3    H229235   3.131   0.836   6.751 -1.3433  1.2728  2.1147
 2534TIP3   OH229236   5.068   0.193   0.911 -0.0112 -0.3297 -0.6332
 2534TIP3    H129237   5.095   0.251   0.982  0.4116 -1.9845  0.5960
 2534TIP3    H229238   5.066   0.250   0.834 -0.1265  1.4254  0.6126
 2535TIP3   OH229239   5.081   5.754   2.874  0.0638 -0.2404  0.0477
 2535TIP3    H129240   5.155   5.702   2.843  0.2702 -0.4217  0.8127
 2535TIP3    H229241   5.010   5.734   2.813  0.2913 -1.0288  0.0260
 2536TIP3   OH229242   2.848   0.030   2.422 -0.3774 -0.0584  0.3047
 2536TIP3    H129243   2.829  -0.038   2.486  1.9586 -1.6624 -0.5943
 2536TIP3    H229244   2.937   0.058   2.442 -0.9706  2.1678  0.0932
 2537TIP3   OH229245   6.523   1.882   8.432 -1.0425  0.0445 -0.2289
 2537TIP3    H129246   6.452   1.821   8.408 -2.3423  1.6148 -0.5580
 2537TIP3    H229247   6.579   1.885   8.354 -0.4699 -1.3299  0.0876
 2538TIP3   OH229248   0.375   6.415   1.425 -0.5078  0.9198  0.4426
 2538TIP3    H129249   0.398   6.466   1.502  1.8325  1.0145 -0.2583
 2538TIP3    H229250   0.428   6.335   1.432 -2.1225 -0.2329  0.1601
 2539TIP3   OH229251   0.351   2.026   7.888 -0.2288 -0.1469  0.3544
 2539TIP3    H129252   0.442   2.014   7.915  0.1067 -3.4477 -1.6955
 2539TIP3    H229253   0.301   1.971   7.948 -0.8383  0.9982  0.9380
 2540TIP3   OH229254   5.621   3.989   8.313 -0.0646 -0.0992  0.0807
 2540TIP3    H129255   5.642   3.999   8.406  0.9045  0.9147 -0.2302
 2540TIP3    H229256   5.706   3.989   8.269 -0.5637  2.5422 -1.0774
 2541TIP3   OH229257   2.721   2.890   0.235 -0.2791 -0.3651  0.0214
 2541TIP3    H129258   2.664   2.885   0.311  0.5130 -2.1858  0.5364
 2541TIP3    H229259   2.796   2.835   0.257 -0.1396 -1.1436 -2.1649
 2542TIP3   OH229260   4.098   3.276   8.143  0.2529 -0.1740 -0.2372
 2542TIP3    H129261   4.143   3.267   8.227  0.1420 -0.9951 -0.2590
 2542TIP3    H229262   4.018   3.225   8.154  1.6336 -2.8488 -1.8432
 2543TIP3   OH229263   3.707   3.963   0.610  0.5927 -0.0268  0.6428
 2543TIP3    H129264   3.664   3.896   0.557  0.4991 -0.1597  0.8880
 2543TIP3    H229265   3.772   3.916   0.662  1.0864  0.1825  0.2243
 2544TIP3   OH229266   3.107   1.968   7.117  0.3080 -0.4082  0.1242
 2544TIP3    H129267   3.027   2.019   7.133  0.9030  1.2971 -1.8898
 2544TIP3    H229268   3.113   1.962   7.021  2.1776 -1.1701  0.2444
 2545TIP3   OH229269   4.994   3.755   2.012 -0.0970  0.2831  0.0013
 2545TIP3    H129270   5.083   3.776   2.040 -0.0067 -1.0751  0.7975
 2545TIP3    H229271   4.947   3.839   2.016  0.9251  0.8564  0.3699
 2546TIP3   OH229272   2.264   1.683   1.069 -0.2243  0.0529  0.3567
 2546TIP3    H129273   2.183   1.679   1.018  0.1918 -0.9549 -0.2444
 2546TIP3    H229274   2.296   1.593   1.072  1.4740  0.5824 -0.3900
 2547TIP3   OH229275   3.855   5.464   1.978  0.5464 -0.6882 -1.0618
 2547TIP3    H129276   3.843   5.559   1.987  1.6631 -0.4388 -1.9181
 2547TIP3    H229277   3.792   5.426   2.038 -0.1977  0.5970 -0.9900
 2548TIP3   OH229278   2.639   2.266   6.565  0.6610 -0.3394 -0.2074
 2548TIP3    H129279   2.598   2.210   6.498  0.6255  0.3927 -0.8153
 2548TIP3    H229280   2.731   2.242   6.562  1.4613  2.3620 -3.3824
 2549TIP3   OH229281   3.555   4.179   0.723 -0.2056  0.0213  0.4376
 2549TIP3    H129282   3.617   4.119   0.682 -0.9722  0.2288 -1.1023
 2549TIP3    H229283   3.518   4.130   0.796  0.4767 -0.7375  0.2822
 2550TIP3   OH229284   0.495   1.254   1.113  0.0060 -0.1816  0.0589
 2550TIP3    H129285   0.580   1.267   1.071 -0.0558 -0.1994 -0.0719
 2550TIP3    H229286   0.431   1.264   1.042  0.0115 -2.8661 -0.4541
 2551TIP3   OH229287   5.780   2.893   0.777  0.0288  0.1689 -0.1939
 2551TIP3    H129288   5.732   2.825   0.729 -0.5435  0.3940  0.0481
 2551TIP3    H229289   5.870   2.861   0.781 -0.2002 -0.4957 -0.2302
 2552TIP3   OH229290   1.700   2.718   1.391  0.0578 -0.0649  0.3639
 2552TIP3    H129291   1.687   2.812   1.383  1.4682  0.2751  1.4829
 2552TIP3    H229292   1.612   2.681   1.391 -0.5496  1.3226  0.6318
 2553TIP3   OH229293   2.831   5.434   0.650  0.4714  0.2872  0.1646
 2553TIP3    H129294   2.883   5.403   0.724 -0.7104 -0.9956  0.5045
 2553TIP3    H229295   2.895   5.452   0.581  1.6643  2.1477  1.6678
 2554TIP3   OH229296   2.196   4.187   0.867 -0.3220  0.3125 -0.2079
 2554TIP3    H129297   2.209   4.258   0.805  0.9543  0.5681  0.3307
 2554TIP3    H229298   2.101   4.186   0.884 -0.5003  1.0827 -1.1379
 2555TIP3   OH229299   1.180   4.305   0.779 -0.3383 -0.7594  0.1379
 2555TIP3    H129300   1.233   4.245   0.727  0.6512  0.5908 -0.4850
 2555TIP3    H229301   1.120   4.345   0.715 -1.1000 -1.1947  0.5713
 2556TIP3   OH229302   4.850   1.165   7.226  0.2043 -0.2378  0.7335
 2556TIP3    H129303   4.794   1.199   7.296  0.2092  0.3813  0.4494
 2556TIP3    H229304   4.792   1.112   7.172  0.2373 -0.8652  1.2946
 2557TIP3   OH229305   0.607   1.577   8.419  0.3300  0.1781  0.0112
 2557TIP3    H129306   0.554   1.622   8.485  1.8119  0.2344  1.2047
 2557TIP3    H229307   0.552   1.576   8.341 -0.4730  2.3881  0.4799
 2558TIP3   OH229308   2.506   0.172   0.042  0.5689  0.4771  0.1345
 2558TIP3    H129309   2.514   0.080   0.065 -1.1620  0.3304  0.2452
 2558TIP3    H229310   2.572   0.186  -0.026  1.9618 -0.4205  1.2646
 2559TIP3   OH229311   6.703   3.157   8.447 -0.1746  0.3928  0.4727
 2559TIP3    H129312   6.783   3.113   8.420 -0.0149  0.9256  0.0691
 2559TIP3    H229313   6.649   3.159   8.369 -1.7977 -2.4608  1.3479
 2560TIP3   OH229314   4.166   3.824   8.057 -0.6439 -0.0629  0.2213
 2560TIP3    H129315   4.244   3.811   8.111 -0.3165  0.2296 -0.1758
 2560TIP3    H229316   4.200   3.852   7.972 -1.2180  0.9458  0.3057
 2561TIP3   OH229317   4.491   5.577   3.227 -0.0668 -0.2904  1.0391
 2561TIP3    H129318   4.513   5.598   3.317  0.7531 -2.5083  1.3968
 2561TIP3    H229319   4.571   5.595   3.178 -0.3874  0.5181  0.7830
 2562TIP3   OH229320   4.323   0.259   0.256 -0.4876  0.2360  0.0779
 2562TIP3    H129321   4.323   0.353   0.273 -0.9423  0.6151 -1.7700
 2562TIP3    H229322   4.251   0.246   0.195  1.2267 -0.8654 -1.8545
 2563TIP3   OH229323   3.949   4.784   7.865  0.4081 -0.2997  0.3260
 2563TIP3    H129324   3.859   4.771   7.894  0.8519  1.5974  2.9144
 2563TIP3    H229325   3.998   4.711   7.903  0.1449 -0.8088 -0.2904
 2564TIP3   OH229326   3.896   2.751   0.988 -0.2923  0.2008 -0.3449
 2564TIP3    H129327   3.813   2.798   0.981 -0.4053  0.0383 -0.0845
 2564TIP3    H229328   3.873   2.659   0.980 -0.5238 -0.0794  2.5618
 2565TIP3   OH229329   2.954   3.538   6.833  0.0916  0.0712  0.0477
 2565TIP3    H129330   2.996   3.519   6.917  2.0865  0.5646 -0.7648
 2565TIP3    H229331   3.027   3.550   6.772 -1.2850 -1.7474 -2.1370
 2566TIP3   OH229332   1.286   6.028   0.279 -0.0562  0.4474  0.1271
 2566TIP3    H129333   1.341   6.085   0.333  2.8868 -0.4736 -1.6659
 2566TIP3    H229334   1.330   6.025   0.194 -1.6401 -2.2560 -0.7198
 2567TIP3   OH229335   2.609   0.365   6.832  0.2730 -0.5274 -0.2666
 2567TIP3    H129336   2.685   0.417   6.808  0.7497 -1.2277 -0.3066
 2567TIP3    H229337   2.573   0.335   6.749  1.0578 -1.7298 -0.2005
 2568TIP3   OH229338   4.479   2.639   1.948  0.2513  0.0799  0.3360
 2568TIP3    H129339   4.500   2.630   2.041  1.3294 -0.5406  0.0390
 2568TIP3    H229340   4.563   2.652   1.905 -0.2464  0.4367 -0.5619
 2569TIP3   OH229341   4.045   5.461   2.903  0.0890  0.1999  0.5764
 2569TIP3    H129342   4.110   5.530   2.895 -0.1267  0.6407  2.2630
 2569TIP3    H229343   3.975   5.500   2.957 -0.2860 -1.1452  1.1047
 2570TIP3   OH229344   0.128   4.524   6.771  0.0183 -0.2716  0.2150
 2570TIP3    H129345   0.050   4.474   6.795  1.7800 -2.4534  1.8068
 2570TIP3    H229346   0.166   4.476   6.698  0.3386  0.2830  0.0154
 2571TIP3   OH229347   0.973   0.198   0.432 -0.1955  0.1721  0.1116
 2571TIP3    H129348   0.939   0.167   0.515 -0.2150  0.2072  0.1166
 2571TIP3    H229349   1.048   0.141   0.414  1.0101  1.3715  1.0878
 2572TIP3   OH229350   0.792   6.049   1.366 -0.3115  0.1180 -0.1865
 2572TIP3    H129351   0.716   6.104   1.383 -1.7969 -2.1189  0.7574
 2572TIP3    H229352   0.864   6.094   1.411 -1.1802  1.8716 -0.4542
 2573TIP3   OH229353   3.140   5.429   1.024 -0.4249 -0.1611 -0.3715
 2573TIP3    H129354   3.088   5.478   0.961  1.4547  1.6163 -0.6309
 2573TIP3    H229355   3.222   5.410   0.979  0.4106 -0.0878  1.0406
 2574TIP3   OH229356   0.718   5.885   8.291  0.6603  0.4308  0.1481
 2574TIP3    H129357   0.779   5.841   8.349  0.2533  0.9138  0.9617
 2574TIP3    H229358   0.772   5.921   8.221  1.0352 -1.0551 -0.3614
 2575TIP3   OH229359   2.883   2.359   7.767  0.2914  0.5643  0.8069
 2575TIP3    H129360   2.862   2.273   7.804  1.8127 -0.1170  0.1654
 2575TIP3    H229361   2.871   2.420   7.840 -0.6101 -0.2165  1.3276
 2576TIP3   OH229362   3.213   6.783   2.468  0.3032 -0.1979  0.0076
 2576TIP3    H129363   3.151   6.739   2.411  0.2528  0.4057 -0.4156
 2576TIP3    H229364   3.204   6.876   2.447 -0.2407  0.1231  1.5189
 2577TIP3   OH229365   2.215   0.920   7.731  0.4405 -0.1140 -0.3951
 2577TIP3    H129366   2.261   0.998   7.762  1.1261 -0.6434 -0.0374
 2577TIP3    H229367   2.247   0.907   7.641  2.8663 -1.7816  0.5706
 2578TIP3   OH229368   4.488   5.760   8.086  0.3908  0.0962 -0.1320
 2578TIP3    H129369   4.520   5.674   8.113 -0.3125 -0.5255 -1.2119
 2578TIP3    H229370   4.394   5.757   8.099  0.4863  1.2072  1.1033
 2579TIP3   OH229371   2.020   3.961   8.255  0.0660 -0.1667 -0.3380
 2579TIP3    H129372   2.029   3.931   8.345  1.0543  1.2483  0.0689
 2579TIP3    H229373   2.045   3.886   8.201  0.6210 -0.6552  0.5889
 2580TIP3   OH229374   5.665   6.685   0.807 -0.4637 -0.0116 -0.4856
 2580TIP3    H129375   5.653   6.595   0.778  0.7469 -0.2464 -0.3135
 2580TIP3    H229376   5.605   6.694   0.881 -0.0327 -0.9412  0.0063
 2581TIP3   OH229377   3.551   2.021   2.103 -0.5275  0.6385 -0.4197
 2581TIP3    H129378   3.458   1.999   2.094 -0.2583 -0.2390 -1.2067
 2581TIP3    H229379   3.551   2.111   2.134 -1.6371  1.3030 -2.1908
 2582TIP3   OH229380   3.046   3.208   0.720 -0.3658  0.2288  0.5384
 2582TIP3    H129381   3.068   3.141   0.655  0.2504  0.4977  0.4564
 2582TIP3    H229382   2.981   3.166   0.777  2.6560 -1.8759  2.8033
 2583TIP3   OH229383   0.245   2.831   2.070  0.6869 -0.4220 -0.5394
 2583TIP3    H129384   0.278   2.767   2.133 -1.1404 -2.7911 -1.8214
 2583TIP3    H229385   0.164   2.863   2.109  1.8894  1.7199  0.3809
 2584TIP3   OH229386   1.358   4.812   7.484 -0.1532  0.2538  0.2114
 2584TIP3    H129387   1.410   4.889   7.459  0.4801 -0.2442 -0.0135
 2584TIP3    H229388   1.306   4.842   7.558 -0.9167  1.2984 -0.7170
 2585TIP3   OH229389   0.386   1.445   8.047 -0.1924 -0.1275  0.0975
 2585TIP3    H129390   0.322   1.445   8.119  0.3912  0.6147  0.6283
 2585TIP3    H229391   0.336   1.416   7.971 -1.7813  2.5735 -0.0239
 2586TIP3   OH229392   2.085   1.062   6.953  0.2962 -1.0922  0.2059
 2586TIP3    H129393   2.104   1.031   6.865 -0.9736  0.8263 -0.8297
 2586TIP3    H229394   1.990   1.053   6.961 -0.0757  1.7698  0.0410
 2587TIP3   OH229395   2.224   1.016   6.656  0.5462  0.3138 -0.0257
 2587TIP3    H129396   2.216   0.921   6.650 -0.0804  0.0828  2.9004
 2587TIP3    H229397   2.156   1.049   6.597  0.4143 -1.0420 -0.6756
 2588TIP3   OH229398   4.304   4.058   7.430  0.0073 -0.4020  0.5374
 2588TIP3    H129399   4.224   4.037   7.479 -1.0744  0.8218 -0.6319
 2588TIP3    H229400   4.287   4.144   7.393  1.1035 -0.9578 -1.3557
 2589TIP3   OH229401   0.937   2.807   7.065  0.0393 -0.4224 -0.7345
 2589TIP3    H129402   0.898   2.874   7.009  0.5402  0.5630  0.0481
 2589TIP3    H229403   1.029   2.831   7.070  0.9242 -2.9384 -2.8857
 2590TIP3   OH229404   5.545   4.180   2.566 -0.0141  0.4774  0.1843
 2590TIP3    H129405   5.577   4.203   2.653  1.4155  0.3275 -0.2805
 2590TIP3    H229406   5.537   4.084   2.568  2.4313  0.2014 -0.5929
 2591TIP3   OH229407   5.751   3.235   6.850 -0.0832  0.0699 -0.0482
 2591TIP3    H129408   5.828   3.220   6.905 -1.2736  2.3979  2.5377
 2591TIP3    H229409   5.701   3.154   6.855  0.8114 -0.4573  0.6606
 2592TIP3   OH229410   2.511   2.171   7.897 -0.4996 -0.2275  0.0156
 2592TIP3    H129411   2.521   2.244   7.959 -1.3896  0.6965 -0.9087
 2592TIP3    H229412   2.422   2.140   7.910 -0.2380 -0.9534  0.1562
 2593TIP3   OH229413   6.335   3.899   6.904  0.0103  0.1278 -0.2095
 2593TIP3    H129414   6.258   3.886   6.849  1.7519  0.2689 -2.8982
 2593TIP3    H229415   6.397   3.832   6.875  0.5031 -0.9026  2.8551
 2594TIP3   OH229416   0.342   5.188   1.883  0.0787 -0.0512 -0.1928
 2594TIP3    H129417   0.300   5.271   1.860 -0.1624 -0.3772 -0.9597
 2594TIP3    H229418   0.279   5.121   1.858  0.8394 -0.5277 -0.8699
 2595TIP3   OH229419   5.887   0.457   1.455 -0.5617  0.6065 -1.0601
 2595TIP3    H129420   5.975   0.420   1.443  0.3152  2.3212 -0.1741
 2595TIP3    H229421   5.828   0.381   1.445  1.1099 -0.9178  0.0739
 2596TIP3   OH229422   6.315   4.943   7.279  0.0191  0.4245 -0.1272
 2596TIP3    H129423   6.407   4.969   7.282 -0.0612  0.6378  1.5760
 2596TIP3    H229424   6.303   4.908   7.191  2.0251 -0.6364 -0.0556
 2597TIP3   OH229425   4.901   6.012   7.974  0.2100  0.0705 -0.1006
 2597TIP3    H129426   4.956   6.061   8.035 -0.4500  1.4895 -0.6095
 2597TIP3    H229427   4.825   5.985   8.026  0.0718  0.5078 -0.0732
 2598TIP3   OH229428   1.777   3.592   7.754 -0.2055 -0.5633  0.0846
 2598TIP3    H129429   1.718   3.662   7.726 -1.4146 -2.2634 -1.9313
 2598TIP3    H229430   1.823   3.628   7.830 -0.9148  2.2979 -0.7244
 2599TIP3   OH229431   3.652   5.528   0.268 -0.1701 -0.5894  0.4712
 2599TIP3    H129432   3.700   5.577   0.201  0.1746 -1.7397 -0.1377
 2599TIP3    H229433   3.563   5.522   0.234 -0.0715 -0.8966  0.2665
 2600TIP3   OH229434   6.186   6.820   0.997  0.2247  0.2086 -0.2590
 2600TIP3    H129435   6.182   6.745   1.055 -0.3213  0.9599  0.7101
 2600TIP3    H229436   6.227   6.787   0.917 -0.8268 -1.3338 -0.2056
 2601TIP3   OH229437   0.119   5.867   0.480 -0.2542  0.0719  0.5994
 2601TIP3    H129438   0.139   5.853   0.572  0.5849 -1.2763  0.2399
 2601TIP3    H229439   0.128   5.961   0.467  1.3641  0.0722  1.5099
 2602TIP3   OH229440   4.646   4.585   8.453  0.3286  0.3319 -0.4668
 2602TIP3    H129441   4.625   4.558   8.364 -0.7649  0.3609 -0.2389
 2602TIP3    H229442   4.577   4.648   8.476 -1.3696 -2.0202  1.4725
 2603TIP3   OH229443   0.196   0.463   7.096 -0.1403  0.0135  0.1071
 2603TIP3    H129444   0.116   0.500   7.060 -1.1858 -2.3965 -0.2281
 2603TIP3    H229445   0.245   0.432   7.020  0.5082  0.3083  0.3960
 2604TIP3   OH229446   4.028   6.282   2.268  0.3529  0.6378  0.1765
 2604TIP3    H129447   4.090   6.278   2.341  0.7372  1.3149 -0.1058
 2604TIP3    H229448   3.942   6.273   2.310  0.6333 -0.5454  0.5448
 2605TIP3   OH229449   0.986   4.377   2.198  0.3589  0.3730  0.1991
 2605TIP3    H129450   0.989   4.445   2.265 -0.5353 -0.0537  0.6931
 2605TIP3    H229451   1.038   4.305   2.234 -0.8400 -0.1960  0.8508
 2606TIP3   OH229452   2.391   1.978   0.134  0.1834 -0.3325  0.5171
 2606TIP3    H129453   2.442   2.059   0.140  1.4079 -1.1640  2.3598
 2606TIP3    H229454   2.307   2.000   0.175 -1.1558  1.0644 -2.5931
 2607TIP3   OH229455   2.087   4.005   1.831 -0.5011  0.4816 -0.5678
 2607TIP3    H129456   2.028   3.999   1.906 -0.3274 -2.1696 -0.5413
 2607TIP3    H229457   2.042   3.958   1.761  0.8321 -0.1893 -1.0195
 2608TIP3   OH229458   3.197   3.196   1.120  0.1148 -0.0095 -0.0852
 2608TIP3    H129459   3.160   3.254   1.054 -2.0490 -1.7241 -0.4932
 2608TIP3    H229460   3.167   3.232   1.203  0.4535  0.5477 -0.1999
 2609TIP3   OH229461   3.029   5.810   7.655  0.9112 -0.2352 -0.1728
 2609TIP3    H129462   3.001   5.730   7.610  0.0234  0.4177 -0.7994
 2609TIP3    H229463   3.107   5.783   7.703 -0.1824 -1.8617  0.8144
 2610TIP3   OH229464   1.671   1.066   6.593 -0.2365  0.4297  0.1222
 2610TIP3    H129465   1.585   1.099   6.564 -1.7836 -1.6018  2.0547
 2610TIP3    H229466   1.651   1.009   6.667  2.6361 -1.6555 -0.5459
 2611TIP3   OH229467   1.195   1.607   1.050  0.2771 -0.2196  0.6939
 2611TIP3    H129468   1.274   1.660   1.058  1.1402 -1.5523  1.4905
 2611TIP3    H229469   1.224   1.518   1.072 -1.6876 -0.5566  2.1852
 2612TIP3   OH229470   4.100   0.821   8.343 -0.4009 -0.0889  0.0592
 2612TIP3    H129471   4.007   0.844   8.342 -0.7857 -1.5611 -1.1470
 2612TIP3    H229472   4.102   0.728   8.365  0.7825 -0.0891 -0.0069
 2613TIP3   OH229473   6.472   2.616   0.525  0.0718 -0.0720 -0.1803
 2613TIP3    H129474   6.463   2.624   0.430  0.5192 -0.0244 -0.2219
 2613TIP3    H229475   6.510   2.700   0.552  1.0477 -0.5147 -0.1102
 2614TIP3   OH229476   1.688   0.269   0.918  0.5590  0.3561  0.3642
 2614TIP3    H129477   1.600   0.273   0.881  0.0578 -0.1766  1.4511
 2614TIP3    H229478   1.711   0.176   0.915  2.1770  0.7188 -2.2836
 2615TIP3   OH229479   5.686   4.484   0.216  0.2423  0.3710  0.4520
 2615TIP3    H129480   5.742   4.516   0.145  2.2856  1.5190  2.4676
 2615TIP3    H229481   5.621   4.553   0.228  0.9556  1.0035  0.7983
 2616TIP3   OH229482   6.514   4.440   0.116 -0.1679  0.2159 -0.7337
 2616TIP3    H129483   6.574   4.514   0.106  0.8199 -0.2448  1.2158
 2616TIP3    H229484   6.545   4.376   0.053  1.4865 -0.0325  0.2684
 2617TIP3   OH229485   2.204   1.485   8.193  0.4209 -0.4232 -0.5076
 2617TIP3    H129486   2.180   1.549   8.126  0.9579 -1.5297 -1.8140
 2617TIP3    H229487   2.120   1.446   8.219  0.1473  0.4245 -0.0918
 2618TIP3   OH229488   4.743   1.526   2.355  0.1008 -0.0623  0.2582
 2618TIP3    H129489   4.769   1.614   2.382  1.3828 -0.7984  1.5483
 2618TIP3    H229490   4.721   1.481   2.437 -2.5715 -0.3664 -0.5351
 2619TIP3   OH229491   6.577   1.660   0.728  0.6607  0.1856  0.4607
 2619TIP3    H129492   6.526   1.741   0.721  0.5445  0.1401  0.7447
 2619TIP3    H229493   6.652   1.674   0.670  0.2335  0.1781 -0.0910
 2620TIP3   OH229494   1.778   0.458   7.797 -0.3642 -0.4011  0.1307
 2620TIP3    H129495   1.798   0.364   7.807 -0.6670 -0.4558  0.2155
 2620TIP3    H229496   1.696   0.470   7.844  0.0580  0.0584  0.7630
 2621TIP3   OH229497   0.881   6.831   7.115 -0.7276 -0.2059 -0.3464
 2621TIP3    H129498   0.811   6.768   7.135 -1.3112  0.0773 -1.4155
 2621TIP3    H229499   0.867   6.903   7.176 -0.8056 -0.5588  0.0573
 2622TIP3   OH229500   4.961   0.614   0.529  0.1468  0.2734  0.4900
 2622TIP3    H129501   4.999   0.695   0.497  2.5693 -0.2254  1.8193
 2622TIP3    H229502   4.966   0.554   0.455 -2.1564  1.3960 -0.6707
 2623TIP3   OH229503   0.705   2.816   1.682  0.4101 -0.0187  0.0290
 2623TIP3    H129504   0.747   2.840   1.764  0.8148  1.3282 -0.5415
 2623TIP3    H229505   0.614   2.797   1.706  0.3714  0.9818  0.7028
 2624TIP3   OH229506   3.831   1.562   1.851 -0.1022  0.3004  0.2207
 2624TIP3    H129507   3.900   1.626   1.870 -0.0141  0.2903 -0.0552
 2624TIP3    H229508   3.763   1.580   1.915  0.1587  0.3110  0.4973
 2625TIP3   OH229509   2.517   2.408   1.662 -0.3031 -0.0984  0.0509
 2625TIP3    H129510   2.475   2.324   1.644  1.7017 -0.8870 -1.2838
 2625TIP3    H229511   2.535   2.406   1.756 -2.4503 -0.0533  0.5190
 2626TIP3   OH229512   1.990   2.133   0.699  0.1681  0.0028 -0.0700
 2626TIP3    H129513   1.929   2.178   0.640  1.4179  2.0928  0.1405
 2626TIP3    H229514   1.933   2.092   0.765 -1.2862 -2.7045 -2.7715
 2627TIP3   OH229515   4.511   1.339   0.591  0.3332  0.0781 -0.1141
 2627TIP3    H129516   4.455   1.290   0.530 -0.0751  0.0850  0.2465
 2627TIP3    H229517   4.453   1.407   0.625  0.9204  0.8864 -0.6902
 2628TIP3   OH229518   0.349   4.576   7.460  0.0197  0.5038 -0.7139
 2628TIP3    H129519   0.409   4.573   7.385  1.1263 -0.4362  0.1626
 2628TIP3    H229520   0.406   4.562   7.536 -1.2764 -0.0747  0.1775
 2629TIP3   OH229521   4.847   5.118   8.451 -0.3890  0.2031  0.1933
 2629TIP3    H129522   4.859   5.036   8.404  0.0922 -0.7310  1.8602
 2629TIP3    H229523   4.865   5.186   8.387 -1.7929 -0.9410 -1.5210
 2630TIP3   OH229524   1.015   3.356   7.678  0.0002  0.0570  0.1955
 2630TIP3    H129525   1.055   3.331   7.761 -0.5806  1.1576  0.8404
 2630TIP3    H229526   1.088   3.379   7.621  0.4107 -0.8380  0.3464
 2631TIP3   OH229527   5.623   4.874   1.895  0.3631  0.2014  0.1481
 2631TIP3    H129528   5.562   4.810   1.932  0.4154 -0.5327 -0.9952
 2631TIP3    H229529   5.634   4.847   1.804  1.0417  1.3576 -0.1322
 2632TIP3   OH229530   2.778   4.573   2.030 -0.1974 -0.4824 -0.0226
 2632TIP3    H129531   2.692   4.606   2.053  0.5680  1.2268  0.5677
 2632TIP3    H229532   2.835   4.603   2.101  1.7180  2.4404 -2.5156
 2633TIP3   OH229533   1.937   3.322   7.165  0.1216  0.5852  0.0379
 2633TIP3    H129534   2.002   3.348   7.230 -0.0494  2.7777 -0.5731
 2633TIP3    H229535   1.988   3.295   7.089  0.3622  2.2116 -0.4074
 2634TIP3   OH229536   5.696   6.835   1.087  0.2648 -0.7068 -0.0238
 2634TIP3    H129537   5.644   6.897   1.137 -1.2915 -1.1694 -1.0255
 2634TIP3    H229538   5.636   6.764   1.064  0.8824 -0.5413 -2.5039
 2635TIP3   OH229539   4.435   4.472   7.065 -0.0359 -0.0383 -0.2621
 2635TIP3    H129540   4.366   4.504   7.007 -0.2231 -0.4977 -0.2913
 2635TIP3    H229541   4.489   4.415   7.009 -1.5586 -2.4033  0.5507
 2636TIP3   OH229542   3.938   4.353   6.991  0.6296  0.0835 -0.1484
 2636TIP3    H129543   3.846   4.378   6.993  0.5171  0.8126 -4.4278
 2636TIP3    H229544   3.942   4.269   7.037 -2.8218 -1.5042 -2.4030
 2637TIP3   OH229545   1.909   1.806   1.785 -0.0266 -0.2113  0.0189
 2637TIP3    H129546   1.954   1.800   1.869  0.4445  2.4620  0.0546
 2637TIP3    H229547   1.957   1.745   1.729  0.0530 -1.5675  1.4996
 2638TIP3   OH229548   1.644   0.459   6.885 -0.5127  0.3112  0.4802
 2638TIP3    H129549   1.697   0.389   6.846  0.8866  1.7071 -0.2442
 2638TIP3    H229550   1.674   0.465   6.975  0.5093  0.9795  0.1191
 2639TIP3   OH229551   2.894   0.776   1.774 -0.3087 -0.1422  0.1960
 2639TIP3    H129552   2.897   0.854   1.718 -0.7743 -0.2279  0.0424
 2639TIP3    H229553   2.908   0.810   1.862  0.6646 -0.0369  0.0106
 2640TIP3   OH229554   4.949   4.633   8.140 -0.4388  0.2243 -0.7009
 2640TIP3    H129555   4.909   4.698   8.082 -3.4910 -0.4187  0.4786
 2640TIP3    H229556   4.920   4.549   8.106 -0.0625 -0.2872  0.2117
 2641TIP3   OH229557   2.145   4.009   8.603  0.1395  0.3731  0.5140
 2641TIP3    H129558   2.172   3.982   8.691 -1.7016 -0.2505  0.9267
 2641TIP3    H229559   2.091   4.086   8.618 -1.8436 -0.8917  0.1554
 2642TIP3   OH229560   1.714   3.601   8.507  0.4055  0.8754  0.3039
 2642TIP3    H129561   1.805   3.570   8.504 -0.1554 -0.8170  0.2323
 2642TIP3    H229562   1.674   3.554   8.580 -0.4002  1.6796  0.3985
 2643TIP3   OH229563   2.372   6.878   0.250  0.1746 -0.0046 -0.0304
 2643TIP3    H129564   2.286   6.918   0.240 -0.1052 -0.5621  0.1197
 2643TIP3    H229565   2.368   6.798   0.197  0.3235 -0.4453  0.6125
 2644TIP3   OH229566   3.779   4.083   2.330 -0.0589 -0.3873 -0.0075
 2644TIP3    H129567   3.714   4.024   2.369 -2.5457 -1.0039 -4.4372
 2644TIP3    H229568   3.731   4.165   2.318 -0.0528 -0.7334 -3.0303
 2645TIP3   OH229569   3.906   5.317   6.957 -0.2500 -0.1965  0.2830
 2645TIP3    H129570   3.998   5.291   6.946 -0.3510 -0.9408  1.0257
 2645TIP3    H229571   3.868   5.246   7.009 -1.8286 -1.0609 -1.9291
 2646TIP3   OH229572   2.184   6.349   8.345 -0.2198  0.0937 -0.5111
 2646TIP3    H129573   2.126   6.319   8.415  0.4366  2.2291  1.0225
 2646TIP3    H229574   2.267   6.304   8.362 -0.2553  0.0942 -0.3380
 2647TIP3   OH229575   4.967   5.494   1.160  0.5011  0.1047  0.2519
 2647TIP3    H129576   4.914   5.416   1.175  0.4943 -0.1552 -0.9859
 2647TIP3    H229577   5.050   5.476   1.203  0.1900 -0.2210  0.7144
 2648TIP3   OH229578   1.465   6.125   1.125  0.1462  0.4877 -0.2766
 2648TIP3    H129579   1.556   6.142   1.099  0.6619 -1.1162  0.3362
 2648TIP3    H229580   1.461   6.153   1.216 -0.1237  1.0544 -0.4636
 2649TIP3   OH229581   2.525   3.931   6.732  0.2385  0.9437 -0.0619
 2649TIP3    H129582   2.440   3.902   6.764 -0.2913  2.3830 -0.1243
 2649TIP3    H229583   2.584   3.858   6.752 -0.8768  0.1789  0.5300
 2650TIP3   OH229584   6.454   6.562   8.128 -0.4373  0.2028 -0.6247
 2650TIP3    H129585   6.444   6.497   8.198  0.4865  0.3812 -0.3043
 2650TIP3    H229586   6.475   6.643   8.175  0.7874  0.1925 -1.1327
 2651TIP3   OH229587   3.886   1.880   1.735 -0.4805  0.2153 -0.3579
 2651TIP3    H129588   3.911   1.820   1.805  0.2343  0.6940 -0.1916
 2651TIP3    H229589   3.943   1.857   1.662 -1.0354 -0.0992 -0.7008
 2652TIP3   OH229590   3.520   1.229   7.828 -0.4740  0.3039 -0.1719
 2652TIP3    H129591   3.484   1.287   7.896  0.5689  0.7629  0.0156
 2652TIP3    H229592   3.452   1.225   7.761 -0.2366  2.5115 -0.6202
 2653TIP3   OH229593   0.779   3.035   6.945 -0.1953 -0.0223 -0.5046
 2653TIP3    H129594   0.764   3.042   7.039 -0.7305  0.0547 -0.5928
 2653TIP3    H229595   0.691   3.035   6.906 -0.0267 -1.1312 -0.9324
 2654TIP3   OH229596   4.184   4.293   0.379 -0.4438  0.1730  0.0732
 2654TIP3    H129597   4.182   4.382   0.414 -0.7713  0.1926  0.0124
 2654TIP3    H229598   4.173   4.305   0.284  2.9608  0.2921 -0.4136
 2655TIP3   OH229599   2.376   0.273   8.384 -0.2404  0.1522 -0.6094
 2655TIP3    H129600   2.338   0.295   8.469 -1.4522 -0.2769 -1.0128
 2655TIP3    H229601   2.441   0.341   8.367 -0.8927  0.9614  0.0794
 2656TIP3   OH229602   3.680   0.732   2.028 -0.3979  0.7512  0.0609
 2656TIP3    H129603   3.663   0.643   1.997 -1.8262  0.8473  0.4969
 2656TIP3    H229604   3.674   0.726   2.123  2.8546  0.6805  0.3953
 2657TIP3   OH229605   3.730   1.842   0.789  1.1807  0.3855  0.5196
 2657TIP3    H129606   3.768   1.916   0.742  2.2596 -0.0990  0.5881
 2657TIP3    H229607   3.761   1.765   0.740 -1.0214  0.0010 -0.3612
 2658TIP3   OH229608   5.894   5.059   7.590 -0.2761 -0.4654  0.3171
 2658TIP3    H129609   5.806   5.097   7.593 -0.4576 -0.8558 -0.0705
 2658TIP3    H229610   5.894   5.005   7.511  0.4559 -0.1121  0.0675
 2659TIP3   OH229611   4.200   0.896   0.975 -0.0710 -0.5349 -0.2832
 2659TIP3    H129612   4.168   0.953   0.904  0.5513 -1.1191 -1.0579
 2659TIP3    H229613   4.220   0.813   0.931 -0.8677 -1.3228  0.8144
 2660TIP3   OH229614   3.224   6.344   1.580  0.0533  0.2673 -0.0828
 2660TIP3    H129615   3.311   6.377   1.561 -0.0596  1.3903  1.2108
 2660TIP3    H229616   3.181   6.415   1.627 -0.5572 -1.2990  1.8525
 2661TIP3   OH229617   2.004   2.708   0.837  0.4412 -0.1850  0.4634
 2661TIP3    H129618   2.058   2.648   0.787  1.7738  0.7315  0.7339
 2661TIP3    H229619   1.917   2.700   0.799  1.0456 -0.7591 -0.8668
 2662TIP3   OH229620   3.253   5.219   6.752 -0.0373 -0.2798 -0.3904
 2662TIP3    H129621   3.299   5.144   6.714  1.2611  1.2164 -1.9814
 2662TIP3    H229622   3.255   5.204   6.846 -2.8101 -3.8646 -0.6834
 2663TIP3   OH229623   2.147   5.442   0.553  0.0331 -0.5150  0.1421
 2663TIP3    H129624   2.204   5.425   0.478 -0.2773 -1.0586  0.0310
 2663TIP3    H229625   2.202   5.425   0.630 -0.1063 -1.4642  0.0341
 2664TIP3   OH229626   2.689   4.916   0.357  0.1214 -0.0448 -0.1961
 2664TIP3    H129627   2.760   4.978   0.343 -0.2071  0.6935  1.2226
 2664TIP3    H229628   2.611   4.961   0.324  0.0584 -0.1993 -0.2617
 2665TIP3   OH229629   3.558   6.222   8.523  0.7322 -0.0220 -0.1139
 2665TIP3    H129630   3.595   6.148   8.475  0.6189 -0.1999  0.0739
 2665TIP3    H229631   3.515   6.275   8.456 -0.7185 -1.0368 -0.0313
 2666TIP3   OH229632   3.390   4.492   8.069 -0.1104  0.1672 -0.1606
 2666TIP3    H129633   3.373   4.401   8.092  0.2168 -0.2000 -1.2981
 2666TIP3    H229634   3.330   4.542   8.123  1.6134 -0.5158  2.6204
 2667TIP3   OH229635   5.084   0.883   0.575  0.4639 -0.1975 -0.0614
 2667TIP3    H129636   5.153   0.934   0.617  0.8601  2.0965 -3.1571
 2667TIP3    H229637   5.017   0.947   0.552 -1.3166 -1.9016  0.0694
 2668TIP3   OH229638   5.969   4.805   8.560 -0.0973 -0.5336 -0.5676
 2668TIP3    H129639   6.058   4.799   8.595  0.0010 -0.0542 -0.7167
 2668TIP3    H229640   5.930   4.720   8.577  0.4579 -0.8116 -0.6692
 2669TIP3   OH229641   6.089   4.726   8.051  0.6105 -0.4027 -0.5768
 2669TIP3    H129642   6.003   4.756   8.021 -0.3212  0.4221  2.5961
 2669TIP3    H229643   6.150   4.793   8.019 -0.6940  1.9278  1.4461
 2670TIP3   OH229644   2.803   2.248   1.796  0.3020 -0.2020  0.2443
 2670TIP3    H129645   2.719   2.271   1.835 -0.0220 -1.2902  0.2243
 2670TIP3    H229646   2.841   2.331   1.769 -0.7263  0.3092  0.3423
 2671TIP3   OH229647   1.742   3.828   8.330 -0.2102 -0.0049  0.6622
 2671TIP3    H129648   1.743   3.735   8.355  2.3342 -0.5570 -1.1318
 2671TIP3    H229649   1.822   3.864   8.368  0.1924  0.7681 -0.8539
 2672TIP3   OH229650   1.656   2.974   0.622  0.1317 -0.5803  0.1875
 2672TIP3    H129651   1.672   2.985   0.528 -0.7568  0.7830  0.1665
 2672TIP3    H229652   1.739   2.996   0.663  0.5472 -1.2481 -0.2613
 2673TIP3   OH229653   0.075   4.307   1.087 -0.5223 -0.1179 -0.1138
 2673TIP3    H129654   0.059   4.379   1.148 -0.0632 -2.1307  2.5823
 2673TIP3    H229655   0.149   4.259   1.124  0.7637 -0.7015 -3.0994
 2674TIP3   OH229656   2.359   0.429   1.749 -0.0653 -0.7811  0.4429
 2674TIP3    H129657   2.376   0.500   1.687  0.1735 -1.0734  0.1733
 2674TIP3    H229658   2.441   0.380   1.752  0.2545 -0.2097  1.7205
 2675TIP3   OH229659   0.065   5.762   1.548  0.3809 -0.1482 -0.2588
 2675TIP3    H129660   0.008   5.750   1.623  0.3739  0.7115 -0.1185
 2675TIP3    H229661   0.005   5.761   1.472  0.2374  0.2184 -0.1536
 2676TIP3   OH229662   4.820   2.843   2.196 -0.3642  0.3751 -0.2309
 2676TIP3    H129663   4.843   2.824   2.286 -0.4702 -1.1100 -0.5024
 2676TIP3    H229664   4.901   2.875   2.157 -0.0786  0.1153  0.1458
 2677TIP3   OH229665   2.088   0.937   2.082 -0.0651 -0.5603  0.2685
 2677TIP3    H129666   2.082   0.842   2.067 -1.0469 -0.8693  2.2930
 2677TIP3    H229667   2.178   0.959   2.056 -0.3330 -1.6917 -1.8291
 2678TIP3   OH229668   6.435   5.301   6.671  0.7643  0.0551 -0.4321
 2678TIP3    H129669   6.402   5.211   6.678  0.2416  0.2828  5.0672
 2678TIP3    H229670   6.511   5.303   6.730  1.0701  3.0815 -0.7623
 2679TIP3   OH229671   0.664   4.089   1.049 -0.0129  0.1574 -0.1437
 2679TIP3    H129672   0.684   4.183   1.053 -1.1828  0.4351 -0.3833
 2679TIP3    H229673   0.590   4.083   0.989 -0.8906 -0.7597  0.9855
 2680TIP3   OH229674   0.944   3.994   6.364  0.2314  0.6597  0.7319
 2680TIP3    H129675   1.020   4.049   6.383  0.3297 -0.0188  2.4725
 2680TIP3    H229676   0.922   3.954   6.448 -1.6268  0.2970  0.1100
 2681TIP3   OH229677   1.427   2.067   2.319 -0.3249  0.2071 -0.8957
 2681TIP3    H129678   1.403   1.977   2.341 -0.3426 -0.0006 -1.7516
 2681TIP3    H229679   1.390   2.120   2.390  0.8197 -0.5807  0.3300
 2682TIP3   OH229680   4.399   4.464   6.441  0.3017  0.1147  0.2295
 2682TIP3    H129681   4.463   4.530   6.414 -0.4540  0.6169 -0.3915
 2682TIP3    H229682   4.452   4.394   6.480  1.6182 -0.9563 -3.0585
 2683TIP3   OH229683   6.133   2.580   0.660  0.0022  0.1018 -0.8410
 2683TIP3    H129684   6.122   2.513   0.727  2.3398  0.2781 -0.2060
 2683TIP3    H229685   6.221   2.615   0.675 -0.0169  1.2541 -3.0207
 2684TIP3   OH229686   5.683   2.287   0.062 -0.8158  0.4029  0.1158
 2684TIP3    H129687   5.666   2.303  -0.031  0.0145  0.0459 -0.1033
 2684TIP3    H229688   5.664   2.371   0.105 -3.5949 -0.0719 -0.0199
 2685TIP3   OH229689   4.958   6.732   7.407  0.4816  0.1274 -0.0088
 2685TIP3    H129690   4.991   6.801   7.465 -1.3218  0.6368  0.4653
 2685TIP3    H229691   5.001   6.653   7.439 -0.0295  0.4863  1.7027
 2686TIP3   OH229692   0.037   5.522   2.513 -0.1428  0.3891 -0.5397
 2686TIP3    H129693   0.110   5.582   2.524 -0.3962  0.9082 -1.5847
 2686TIP3    H229694   0.069   5.456   2.450  0.2400 -0.7682  0.8160
 2687TIP3   OH229695   1.813   6.527   8.458 -0.4075 -0.7403  0.2611
 2687TIP3    H129696   1.863   6.491   8.532  0.2250 -2.0037 -0.7345
 2687TIP3    H229697   1.734   6.473   8.454 -0.3435 -0.8091 -0.1036
 2688TIP3   OH229698   1.035   4.348   7.941  0.3776  0.2842  0.1306
 2688TIP3    H129699   0.954   4.323   7.896 -0.5678 -0.4178  2.0947
 2688TIP3    H229700   1.091   4.270   7.935  0.3736  0.2946 -0.0546
 2689TIP3   OH229701   2.729   6.177   0.050  0.4943  0.2550  0.7292
 2689TIP3    H129702   2.695   6.249  -0.004 -0.9541 -1.6066 -0.9860
 2689TIP3    H229703   2.822   6.198   0.061  0.5930  1.3213 -1.5377
 2690TIP3   OH229704   4.071   2.053   6.861  0.5482  0.5911 -0.2800
 2690TIP3    H129705   4.049   2.127   6.805  0.4129  0.6145 -0.1967
 2690TIP3    H229706   4.154   2.077   6.902  2.0427 -0.5464 -2.4778
 2691TIP3   OH229707   6.821   0.415   7.064  0.1568 -0.0194 -0.2110
 2691TIP3    H129708   6.748   0.477   7.061 -0.9437 -1.2969 -2.3376
 2691TIP3    H229709   6.812   0.363   6.984  2.0086 -1.8271  0.6529
 2692TIP3   OH229710   6.821   6.464   0.882  0.1890  0.2561 -0.2927
 2692TIP3    H129711   6.773   6.449   0.800 -2.0635 -0.5986  1.1092
 2692TIP3    H229712   6.760   6.438   0.951  1.5105  2.1993  1.7437
 2693TIP3   OH229713   1.340   5.768   7.443 -0.4677  0.3102  0.4497
 2693TIP3    H129714   1.262   5.792   7.393  0.3832 -0.5554 -1.3589
 2693TIP3    H229715   1.313   5.692   7.494 -0.7756 -0.0883 -0.2925
 2694TIP3   OH229716   3.013   5.206   0.794  0.1770  0.4323  0.4250
 2694TIP3    H129717   3.095   5.257   0.796  0.0299  0.6536  1.3673
 2694TIP3    H229718   3.028   5.134   0.856  1.4506 -2.4392 -2.8475
 2695TIP3   OH229719   0.535   5.430   1.854 -0.5872 -0.0606  0.3298
 2695TIP3    H129720   0.441   5.438   1.840 -0.7938  0.2718  1.7793
 2695TIP3    H229721   0.545   5.425   1.949  0.8626 -0.0942  0.1980
 2696TIP3   OH229722   1.335   5.536   2.433 -0.0123  0.1170 -0.1512
 2696TIP3    H129723   1.276   5.463   2.449 -1.2356  0.9408 -0.7771
 2696TIP3    H229724   1.336   5.546   2.337  1.0231  0.2253 -0.1471
 2697TIP3   OH229725   1.073   5.222   0.010 -0.6304 -0.3594 -0.0629
 2697TIP3    H129726   1.083   5.134   0.046 -0.8848 -0.6774 -0.7381
 2697TIP3    H229727   1.019   5.209  -0.068  0.5478  0.1866 -0.9981
 2698TIP3   OH229728   2.824   3.622   2.076  0.3181 -0.4224  0.2495
 2698TIP3    H129729   2.762   3.619   2.149 -0.8018  0.6084 -0.6057
 2698TIP3    H229730   2.880   3.697   2.095  0.8921 -0.9505  0.6875
 2699TIP3   OH229731   3.416   0.917   2.816 -0.3148 -0.9475 -0.4705
 2699TIP3    H129732   3.411   0.987   2.751 -1.1302 -0.5055  0.0525
 2699TIP3    H229733   3.510   0.904   2.829 -0.1315  0.5228 -0.0988
 2700TIP3   OH229734   4.725   4.920   2.045  0.2488  0.8958  1.0087
 2700TIP3    H129735   4.797   4.963   1.999 -0.2809  0.2780 -0.4517
 2700TIP3    H229736   4.651   4.979   2.034 -0.4876 -0.2968 -1.0224
 2701TIP3   OH229737   4.589   4.249   7.430 -0.3209 -0.5721  0.4116
 2701TIP3    H129738   4.579   4.267   7.523  2.3908  1.1477  0.5028
 2701TIP3    H229739   4.504   4.270   7.392 -1.8650 -2.4475  2.5544
 2702TIP3   OH229740   1.436   4.250   0.240  0.4122 -0.0769 -0.0893
 2702TIP3    H129741   1.408   4.298   0.163  0.9239  0.5734  0.1240
 2702TIP3    H229742   1.522   4.286   0.261  0.8905 -1.2028 -0.0261
 2703TIP3   OH229743   4.842   4.755   1.426 -1.0794  0.2983 -0.4687
 2703TIP3    H129744   4.847   4.663   1.401  0.6764  0.0728  0.5200
 2703TIP3    H229745   4.872   4.757   1.516 -1.8448  1.7674 -0.2132
 2704TIP3   OH229746   3.295   4.374   1.664  0.2997  0.9283 -0.6816
 2704TIP3    H129747   3.295   4.452   1.721  3.1386  0.0848  0.6245
 2704TIP3    H229748   3.226   4.319   1.700  0.7421  1.2635  0.7582
 2705TIP3   OH229749   1.151   3.206   8.389  0.5719 -0.2599  0.3967
 2705TIP3    H129750   1.061   3.226   8.414  0.3744 -0.5880 -0.0514
 2705TIP3    H229751   1.182   3.148   8.459  0.4317 -0.1620  0.5426
 2706TIP3   OH229752   0.360   1.826   8.079  0.3738 -0.0913 -0.3037
 2706TIP3    H129753   0.278   1.848   8.124  0.7099 -0.9048  0.7523
 2706TIP3    H229754   0.429   1.857   8.139  0.8938  2.0251 -1.8716
 2707TIP3   OH229755   3.604   0.895   0.307 -0.1523 -0.6881 -0.1537
 2707TIP3    H129756   3.694   0.919   0.284  0.2538 -0.5474  1.4357
 2707TIP3    H229757   3.593   0.807   0.272 -0.7903  0.7076 -3.8186
 2708TIP3   OH229758   2.436   0.012   7.722  1.1282  0.0630  0.4266
 2708TIP3    H129759   2.492  -0.054   7.763  0.5125  0.6295  2.3246
 2708TIP3    H229760   2.497   0.076   7.684  1.7412 -0.5782  0.3236
 2709TIP3   OH229761   2.380   0.133   2.000 -0.2407  0.4080 -0.7406
 2709TIP3    H129762   2.475   0.129   2.012 -0.4055 -0.0714  0.6755
 2709TIP3    H229763   2.364   0.089   1.917  0.8019  0.9408 -1.2579
 2710TIP3   OH229764   4.593   3.576   8.124 -0.2250  0.1224  0.0773
 2710TIP3    H129765   4.622   3.592   8.034 -1.5517 -3.1618 -1.0609
 2710TIP3    H229766   4.565   3.485   8.125 -0.4626  0.0785  3.8164
 2711TIP3   OH229767   3.348   5.750   0.820 -0.1040  0.5082 -0.6332
 2711TIP3    H129768   3.352   5.825   0.760 -1.4619  0.8334 -0.3482
 2711TIP3    H229769   3.343   5.674   0.762 -1.0594  0.7948 -0.9454
 2712TIP3   OH229770   0.662   2.898   0.916 -0.1886 -0.4873  0.4240
 2712TIP3    H129771   0.747   2.884   0.874 -0.4716  1.1154 -0.7703
 2712TIP3    H229772   0.660   2.991   0.936 -1.6377 -0.5217  0.5179
 2713TIP3   OH229773   6.329   6.623   2.595  0.3818 -0.1040  0.0126
 2713TIP3    H129774   6.239   6.601   2.571  0.1023  0.3637  0.5929
 2713TIP3    H229775   6.380   6.610   2.515 -0.3270  0.2925 -0.5119
 2714TIP3   OH229776   5.830   5.302   7.866 -0.2850  0.1152  0.1387
 2714TIP3    H129777   5.768   5.233   7.888  0.3799 -0.6283 -0.2730
 2714TIP3    H229778   5.779   5.366   7.817 -0.7354 -0.4742 -0.1654
 2715TIP3   OH229779   2.849   5.771   8.497 -0.0546  0.2086  0.1697
 2715TIP3    H129780   2.801   5.713   8.438  0.2541 -0.9768  1.0539
 2715TIP3    H229781   2.925   5.799   8.446 -1.6694  2.2678 -1.3198
 2716TIP3   OH229782   0.275   2.352   1.410 -0.1666 -0.4503 -0.4703
 2716TIP3    H129783   0.237   2.288   1.349  0.0530 -1.3266  0.2877
 2716TIP3    H229784   0.257   2.437   1.369  0.3120 -1.0229 -1.9494
 2717TIP3   OH229785   3.580   1.675   7.838 -0.5120 -0.9634 -0.0848
 2717TIP3    H129786   3.539   1.669   7.924 -1.6457  0.8440 -0.4437
 2717TIP3    H229787   3.568   1.767   7.812  2.0766 -0.8403 -1.0860
 2718TIP3   OH229788   6.120   4.484   1.579 -0.3521  0.1042 -0.3744
 2718TIP3    H129789   6.092   4.576   1.580 -1.0762 -0.1026 -0.7375
 2718TIP3    H229790   6.068   4.442   1.647  2.6542  0.6716  2.5002
 2719TIP3   OH229791   2.142   5.024   2.101  0.8323  0.8684 -0.0898
 2719TIP3    H129792   2.113   5.115   2.098  0.1099  0.6326 -0.8131
 2719TIP3    H229793   2.127   4.997   2.192 -0.4365  1.0242 -0.2286
 2720TIP3   OH229794   3.914   0.289   0.811 -0.5017 -0.5542  0.3594
 2720TIP3    H129795   3.927   0.199   0.839 -1.1476 -0.9848 -0.6800
 2720TIP3    H229796   3.965   0.297   0.730 -1.1190 -0.2385 -0.0055
 2721TIP3   OH229797   2.958   6.361   0.795  0.3096  0.1024 -0.2120
 2721TIP3    H129798   2.975   6.312   0.715  0.7803  1.2411 -0.8429
 2721TIP3    H229799   2.869   6.394   0.785  0.3157  0.1192 -0.2125
 2722TIP3   OH229800   0.172   3.619   8.067  0.1578  0.4254  0.9620
 2722TIP3    H129801   0.259   3.648   8.038 -0.5708 -0.4954 -2.6505
 2722TIP3    H229802   0.190   3.542   8.121  1.6243  1.4496  2.0300
 2723TIP3   OH229803   5.397   3.423   8.338 -0.0060  0.3952 -0.0621
 2723TIP3    H129804   5.308   3.399   8.314  0.5485 -1.9554  0.0077
 2723TIP3    H229805   5.435   3.342   8.374  1.4643  1.8893  1.9800
 2724TIP3   OH229806   2.063   3.055   7.417 -0.4160  0.3153 -0.1638
 2724TIP3    H129807   2.124   2.990   7.383  0.0564  1.3196 -1.2593
 2724TIP3    H229808   2.116   3.113   7.471 -0.5328  0.7863 -0.5543
 2725TIP3   OH229809   0.537   3.942   6.388 -0.2325 -0.4415 -0.0155
 2725TIP3    H129810   0.493   4.020   6.353  1.7710  0.5655 -0.4220
 2725TIP3    H229811   0.575   3.900   6.311  1.0749 -0.2556  0.5143
 2726TIP3   OH229812   5.198   0.921   7.388 -0.2474 -0.7013  0.2787
 2726TIP3    H129813   5.220   0.828   7.395 -1.0857 -1.0757 -1.6399
 2726TIP3    H229814   5.104   0.925   7.402 -0.1765 -0.0853  0.6298
 2727TIP3   OH229815   4.107   6.865   0.231  0.1246 -0.2081  0.1402
 2727TIP3    H129816   4.084   6.958   0.227  0.4528  0.0148  2.2996
 2727TIP3    H229817   4.192   6.859   0.187  0.8102  0.8038  1.2713
 2728TIP3   OH229818   3.053   0.692   2.022  0.0168  0.0183 -0.1425
 2728TIP3    H129819   2.963   0.712   2.046  0.5320  0.9376  1.1542
 2728TIP3    H229820   3.067   0.602   2.053 -0.7902 -0.5845 -1.4440
 2729TIP3   OH229821   2.287   0.233   6.395  0.0888  0.3824 -0.1571
 2729TIP3    H129822   2.288   0.259   6.487  0.4958  0.2842 -0.1307
 2729TIP3    H229823   2.225   0.294   6.353  1.9306  2.2472 -0.3374
 2730TIP3   OH229824   1.813   1.514   8.033 -0.6010  0.0367  0.2574
 2730TIP3    H129825   1.746   1.481   7.972 -1.8366 -1.4559  2.2616
 2730TIP3    H229826   1.794   1.607   8.042 -0.0064  0.4307 -2.0262
 2731TIP3   OH229827   3.402   2.133   8.135 -0.2628 -0.6779  0.0320
 2731TIP3    H129828   3.491   2.114   8.106 -0.7403 -1.7996 -0.7834
 2731TIP3    H229829   3.406   2.222   8.170  1.4282 -1.1115  1.0887
 2732TIP3   OH229830   3.889   3.825   2.506 -0.3729  0.3105  0.1230
 2732TIP3    H129831   3.897   3.735   2.535 -0.9219 -0.1324 -1.0580
 2732TIP3    H229832   3.875   3.875   2.587  1.7346 -0.3920  0.9830
 2733TIP3   OH229833   1.564   4.771   7.178 -0.3020  0.4135 -0.7391
 2733TIP3    H129834   1.485   4.795   7.130 -0.2751 -2.6420 -2.6521
 2733TIP3    H229835   1.635   4.782   7.115 -0.1386 -2.8239 -1.3048
 2734TIP3   OH229836   3.973   3.151   1.438 -0.0515 -0.2218  0.2916
 2734TIP3    H129837   4.038   3.201   1.387 -2.5460  3.0456  0.0190
 2734TIP3    H229838   3.921   3.106   1.372  0.8497 -1.5343  0.4323
 2735TIP3   OH229839   0.599   5.561   7.492 -0.5876  0.5939  0.1085
 2735TIP3    H129840   0.675   5.520   7.449 -1.0841  0.2172 -0.4332
 2735TIP3    H229841   0.637   5.627   7.549  0.1100  1.0599 -0.8539
 2736TIP3   OH229842   0.085   5.899   2.316 -0.7473  0.4741 -0.0945
 2736TIP3    H129843   0.075   5.815   2.270 -3.2570  0.7349 -0.1682
 2736TIP3    H229844   0.004   5.908   2.366 -0.1916  2.5196  0.5128
 2737TIP3   OH229845   5.306   4.254   2.414 -0.3248  0.0859  0.2021
 2737TIP3    H129846   5.387   4.246   2.465 -0.5899  1.8096  0.9646
 2737TIP3    H229847   5.248   4.306   2.469 -1.8848 -0.9147 -0.4477
 2738TIP3   OH229848   3.020   0.376   2.641  0.8079  0.0807 -0.2107
 2738TIP3    H129849   3.089   0.314   2.666  1.6500  0.3341 -1.7847
 2738TIP3    H229850   2.948   0.320   2.610  1.4064 -0.1323 -1.2405
 2739TIP3   OH229851   2.823   4.495   1.250 -0.1177  0.3401  0.2608
 2739TIP3    H129852   2.873   4.450   1.182 -0.2128 -2.3475  1.8342
 2739TIP3    H229853   2.887   4.517   1.317 -0.4578  0.3391  0.5887
 2740TIP3   OH229854   1.217   5.218   8.244 -0.1055  0.3997  0.5626
 2740TIP3    H129855   1.192   5.151   8.307  1.0504 -1.6824 -1.0565
 2740TIP3    H229856   1.303   5.191   8.212 -0.3774  1.6718 -1.4600
 2741TIP3   OH229857   3.171   5.835   7.295 -0.1991 -0.0696 -0.1888
 2741TIP3    H129858   3.099   5.896   7.310 -0.8217 -0.7959 -0.1321
 2741TIP3    H229859   3.232   5.850   7.367 -0.5273  0.2239  0.0301
 2742TIP3   OH229860   5.660   2.862   1.220  0.5879 -0.2938 -0.7058
 2742TIP3    H129861   5.595   2.846   1.152  1.2112 -0.6331 -1.2427
 2742TIP3    H229862   5.736   2.897   1.173  0.6715  0.4448 -0.0489
 2743TIP3   OH229863   6.043   4.371   2.158 -0.3901 -0.0820 -0.6128
 2743TIP3    H129864   6.048   4.296   2.099  1.9898  0.8735 -1.7625
 2743TIP3    H229865   6.098   4.346   2.232  3.0002  1.5201 -2.3740
 2744TIP3   OH229866   6.108   2.362   0.053 -0.1730  0.2837 -0.2446
 2744TIP3    H129867   6.187   2.411   0.032  0.6572 -0.7994  0.2687
 2744TIP3    H229868   6.112   2.284  -0.002 -0.6047 -0.0421  0.1760
 2745TIP3   OH229869   4.107   3.790   0.273 -0.5581  0.0568 -0.1106
 2745TIP3    H129870   4.075   3.876   0.245  1.9069  0.4804 -2.0265
 2745TIP3    H229871   4.126   3.744   0.191  0.1523 -1.5145  0.8922
 2746TIP3   OH229872   2.827   5.953   7.518 -0.3878 -0.4389  0.6871
 2746TIP3    H129873   2.900   5.897   7.545  0.7265 -0.2273 -1.6295
 2746TIP3    H229874   2.844   5.971   7.426 -2.0419  1.7069  0.7235
 2747TIP3   OH229875   1.449   5.196   0.072  0.5539  0.4916  0.2689
 2747TIP3    H129876   1.408   5.270   0.027  2.6537  1.3781 -0.2958
 2747TIP3    H229877   1.511   5.236   0.132  1.2341 -0.8015  0.4681
 2748TIP3   OH229878   2.904   1.325   0.865 -0.5641  0.7834  0.2798
 2748TIP3    H129879   2.930   1.250   0.811  0.3654 -0.6539  2.5549
 2748TIP3    H229880   2.811   1.312   0.879 -0.2938 -0.3687  1.1821
 2749TIP3   OH229881   2.055   6.739   0.379 -0.6861  0.0976 -0.3599
 2749TIP3    H129882   2.141   6.720   0.417 -0.0651  0.7751 -1.3744
 2749TIP3    H229883   2.067   6.824   0.335 -0.3347 -1.9716 -4.8473
 2750TIP3   OH229884   2.910   1.844   7.514 -0.0027  0.1939  0.1528
 2750TIP3    H129885   2.992   1.837   7.563  0.5717 -0.0905 -0.8092
 2750TIP3    H229886   2.862   1.914   7.557 -0.6530 -1.6581  2.6832
 2751TIP3   OH229887   5.523   1.908   0.661  1.0263 -0.8600  0.1616
 2751TIP3    H129888   5.540   1.833   0.719  1.3586 -1.0608 -0.1872
 2751TIP3    H229889   5.462   1.874   0.596 -0.2828 -0.2999  1.0737
 2752TIP3   OH229890   0.721   3.138   0.036 -0.1159  0.2932  0.1735
 2752TIP3    H129891   0.720   3.044   0.055 -1.5420  0.0744 -0.8299
 2752TIP3    H229892   0.761   3.145  -0.051 -0.4263  0.5595  0.0483
 2753TIP3   OH229893   5.793   1.894   8.551  0.2529 -0.2793 -0.0191
 2753TIP3    H129894   5.864   1.893   8.486 -1.0540  1.3161 -1.5866
 2753TIP3    H229895   5.723   1.844   8.511  0.0504 -0.8457  1.0112
 2754TIP3   OH229896   1.176   0.068   0.325 -0.2117 -0.2406  0.3058
 2754TIP3    H129897   1.135   0.092   0.242 -0.9095 -4.6631 -0.9247
 2754TIP3    H229898   1.263   0.107   0.322 -0.5956  0.5634 -2.0541
 2755TIP3   OH229899   6.842   3.791   1.617 -0.5451  0.1660  0.4087
 2755TIP3    H129900   6.841   3.823   1.527 -2.0589  0.0444  0.3465
 2755TIP3    H229901   6.811   3.866   1.669 -0.5561 -0.0523  0.7175
 2756TIP3   OH229902   2.881   3.726   0.095 -0.1835 -0.0412 -0.5176
 2756TIP3    H129903   2.931   3.671   0.036 -0.0981  0.2325 -0.7014
 2756TIP3    H229904   2.796   3.682   0.103  0.7766 -1.6699  1.4811
 2757TIP3   OH229905   6.650   4.804   8.435  0.3398  0.5615  0.2418
 2757TIP3    H129906   6.668   4.896   8.419  1.5085  0.2925 -0.1115
 2757TIP3    H229907   6.696   4.758   8.364 -1.3874 -0.2326 -0.4170
 2758TIP3   OH229908   0.766   3.412   7.579  0.3545 -0.5227  0.3179
 2758TIP3    H129909   0.852   3.405   7.620 -0.3181  0.0947  1.9006
 2758TIP3    H229910   0.713   3.344   7.621 -0.4486  0.3585  0.7955
 2759TIP3   OH229911   3.771   2.648   1.841 -0.0226 -0.0817 -0.2813
 2759TIP3    H129912   3.815   2.571   1.876 -0.5972 -0.5715 -0.6226
 2759TIP3    H229913   3.678   2.626   1.842 -0.4085  1.3569  1.5104
 2760TIP3   OH229914   0.482   2.029   1.774 -0.2180  0.4991 -0.0330
 2760TIP3    H129915   0.504   2.110   1.820  0.7622  0.2156  0.0165
 2760TIP3    H229916   0.476   1.963   1.844  2.5900 -0.2214 -0.3364
 2761TIP3   OH229917   5.298   0.429   7.091  0.1387 -0.4195 -0.3016
 2761TIP3    H129918   5.294   0.334   7.098  1.4044 -0.3634  2.2463
 2761TIP3    H229919   5.332   0.445   7.003 -0.5510 -2.2582 -0.9596
 2762TIP3   OH229920   0.315   4.806   1.952 -0.1320  0.1608  0.4956
 2762TIP3    H129921   0.364   4.871   2.003 -0.4566  1.4128 -0.7289
 2762TIP3    H229922   0.317   4.839   1.862 -0.4893 -1.4360 -0.1412
 2763TIP3   OH229923   4.925   6.443   8.119 -0.0609 -0.2641 -0.6846
 2763TIP3    H129924   5.012   6.452   8.080  1.0032 -0.1620  1.5505
 2763TIP3    H229925   4.930   6.361   8.170 -1.2802 -0.2828 -0.5700
 2764TIP3   OH229926   4.835   3.503   0.443 -0.1291 -0.2917  0.3742
 2764TIP3    H129927   4.806   3.594   0.449  0.7302 -0.0159  0.5404
 2764TIP3    H229928   4.757   3.454   0.418 -1.0237  0.2228  2.0579
 2765TIP3   OH229929   0.609   3.642   7.593  0.1785  0.2039  0.0411
 2765TIP3    H129930   0.643   3.718   7.546  1.4558 -0.9053 -0.9224
 2765TIP3    H229931   0.645   3.567   7.546  0.0687 -0.9900  1.7622
 2766TIP3   OH229932   0.269   4.022   7.221 -0.3782 -0.0610 -0.0753
 2766TIP3    H129933   0.353   4.057   7.191 -1.1917  1.9155 -0.1667
 2766TIP3    H229934   0.275   4.025   7.317 -0.8759  1.5277 -0.0677
 2767TIP3   OH229935   6.166   6.241   7.589  0.4654  0.6225  0.6197
 2767TIP3    H129936   6.150   6.194   7.671  2.0553  1.2062  1.2878
 2767TIP3    H229937   6.162   6.172   7.522 -0.0288  0.0079  1.2552
 2768TIP3   OH229938   0.989   5.865   0.772  0.0273  0.1792 -0.1978
 2768TIP3    H129939   0.941   5.813   0.837 -1.1939  1.2883 -0.1701
 2768TIP3    H229940   0.998   5.806   0.697 -1.1080 -0.1788 -0.0771
 2769TIP3   OH229941   2.857   6.255   6.796  0.4364 -0.4968  0.5051
 2769TIP3    H129942   2.909   6.320   6.748 -2.1439  2.3268  1.2279
 2769TIP3    H229943   2.798   6.218   6.731 -0.1703  0.2012  0.6420
 2770TIP3   OH229944   0.187   2.811   7.931  0.1919 -0.2781 -0.0524
 2770TIP3    H129945   0.280   2.810   7.910 -0.0192 -0.4763 -0.9928
 2770TIP3    H229946   0.177   2.885   7.991  0.8733  0.0270 -0.3134
 2771TIP3   OH229947   4.375   6.082   1.528  0.8850  0.2094  0.3459
 2771TIP3    H129948   4.357   6.028   1.605  1.5764 -0.8488 -0.1985
 2771TIP3    H229949   4.437   6.148   1.559  2.3656 -1.1290  0.4163
 2772TIP3   OH229950   1.773   5.404   7.654 -0.0359 -0.1808 -0.0229
 2772TIP3    H129951   1.816   5.489   7.641 -1.9230  0.6604 -1.1811
 2772TIP3    H229952   1.808   5.349   7.584 -0.3981  0.3259 -0.6164
 2773TIP3   OH229953   1.764   4.873   2.192 -0.6287  0.2614 -0.8490
 2773TIP3    H129954   1.670   4.885   2.201 -0.5114 -0.1813  1.3015
 2773TIP3    H229955   1.773   4.793   2.139 -1.4347  0.5330 -1.4125
 2774TIP3   OH229956   3.691   1.687   7.571  0.0964 -0.3960  0.1045
 2774TIP3    H129957   3.633   1.679   7.495 -1.8467 -0.0990  1.4737
 2774TIP3    H229958   3.650   1.631   7.638  1.9393 -0.9154  0.8556
 2775TIP3   OH229959   3.226   3.330   7.615 -0.0517  0.1845  0.4053
 2775TIP3    H129960   3.263   3.244   7.594  0.6232  0.4024  0.6901
 2775TIP3    H229961   3.280   3.363   7.686 -0.6515  0.6189  0.6691
 2776TIP3   OH229962   3.707   2.494   7.815 -0.3423  0.6285 -0.2021
 2776TIP3    H129963   3.619   2.530   7.825 -0.5254 -0.1642  1.3850
 2776TIP3    H229964   3.760   2.568   7.788 -1.4250  1.1969 -0.8496
 2777TIP3   OH229965   6.563   6.063   6.613 -0.3564  0.6000  0.1992
 2777TIP3    H129966   6.540   6.156   6.612  0.6534  0.8798 -1.5194
 2777TIP3    H229967   6.486   6.019   6.576 -0.1954  0.9638 -0.6009
 2778TIP3   OH229968   2.753   6.486   0.688  0.1466  0.1542 -0.0987
 2778TIP3    H129969   2.782   6.423   0.621 -0.7170 -0.8824  0.4595
 2778TIP3    H229970   2.662   6.462   0.705 -0.1302  1.4281  0.3077
 2779TIP3   OH229971   4.788   2.983   8.631  0.3424  0.1181 -0.2707
 2779TIP3    H129972   4.749   3.029   8.705 -0.8682  0.0962 -0.8629
 2779TIP3    H229973   4.880   3.008   8.632  0.9708 -1.8352  2.7081
 2780TIP3   OH229974   5.646   4.232   1.056  0.1582 -0.0854 -0.0979
 2780TIP3    H129975   5.642   4.255   1.149 -2.8101  0.3223 -0.2161
 2780TIP3    H229976   5.607   4.306   1.011  0.4313 -0.7906 -1.5746
 2781TIP3   OH229977   4.756   0.239   0.936  0.3962  0.3024  0.1628
 2781TIP3    H129978   4.723   0.207   0.853 -1.1752 -1.8029  1.4974
 2781TIP3    H229979   4.846   0.208   0.940  0.2429 -0.2309 -0.4377
 2782TIP3   OH229980   2.253   2.632   8.261 -0.1619 -0.1431  0.1220
 2782TIP3    H129981   2.168   2.603   8.292 -1.2258  0.5783 -1.9227
 2782TIP3    H229982   2.275   2.571   8.190  1.0372 -0.3080  0.6075
 2783TIP3   OH229983   6.705   4.742   8.151  0.6261 -0.4558  0.3763
 2783TIP3    H129984   6.630   4.684   8.138  0.8895 -0.5991 -0.6311
 2783TIP3    H229985   6.686   4.819   8.097  0.8487 -0.1481  0.7294
 2784TIP3   OH229986   4.474   6.593   7.354 -0.2140  0.2712  0.4740
 2784TIP3    H129987   4.416   6.669   7.360 -1.4517 -0.6082 -0.1320
 2784TIP3    H229988   4.562   6.629   7.367 -0.8897  1.5991  1.6114
 2785TIP3   OH229989   3.891   0.230   7.421  0.0169 -0.0925 -0.2680
 2785TIP3    H129990   3.913   0.142   7.391  0.7829 -0.1604  0.4656
 2785TIP3    H229991   3.803   0.222   7.458 -1.4418  0.2053 -3.3569
 2786TIP3   OH229992   0.809   0.606   1.545  0.3025 -0.0496 -0.2900
 2786TIP3    H129993   0.813   0.616   1.640  0.1739  2.0293 -0.4565
 2786TIP3    H229994   0.736   0.546   1.530 -0.9095  1.0588  0.8809
 2787TIP3   OH229995   4.183   3.393   7.616 -0.1519  0.4423 -0.2907
 2787TIP3    H129996   4.130   3.408   7.694  0.9242  0.7328  0.4021
 2787TIP3    H229997   4.273   3.412   7.644  0.5167 -1.4498 -1.0177
 2788TIP3   OH229998   0.223   6.707   0.349  0.0403  0.7217 -0.0542
 2788TIP3    H129999   0.193   6.629   0.302  1.3976 -0.4835  0.9768
 2788TIP3    H230000   0.264   6.761   0.281 -0.8420  0.5198 -0.7711
 2789TIP3   OH230001   2.473   1.859   1.076  0.3588 -0.2426 -0.0765
 2789TIP3    H130002   2.542   1.796   1.055 -0.0476 -0.5968 -0.3629
 2789TIP3    H230003   2.397   1.805   1.097 -0.1296  0.1636 -0.7821
 2790TIP3   OH230004   3.339   6.091   7.409  0.2962 -0.9032 -0.3559
 2790TIP3    H130005   3.246   6.100   7.387 -0.3004 -0.7065  1.9815
 2790TIP3    H230006   3.385   6.116   7.330 -1.6214  1.1992 -0.8939
 2791TIP3   OH230007   0.394   3.862   0.115  0.1056 -0.1509 -0.2756
 2791TIP3    H130008   0.369   3.908   0.035 -2.3244 -1.3059 -0.2816
 2791TIP3    H230009   0.372   3.922   0.186  0.4644  0.1335 -0.4044
 2792TIP3   OH230010   6.570   1.389   6.051  0.4160 -0.2157 -0.5661
 2792TIP3    H130011   6.565   1.378   6.146 -0.0402  1.2670 -0.3892
 2792TIP3    H230012   6.502   1.454   6.031 -0.2234 -1.2868 -2.0523
 2793TIP3   OH230013   1.075   2.714   1.047 -0.8288 -0.4885 -0.0605
 2793TIP3    H130014   1.056   2.806   1.031 -2.0856 -0.8152 -0.6261
 2793TIP3    H230015   1.167   2.712   1.073 -0.3968  0.7782 -1.3500
 2794TIP3   OH230016   5.609   4.899   0.932  0.4002 -0.6140 -0.1298
 2794TIP3    H130017   5.619   4.823   0.990 -2.2837 -0.8262  0.1881
 2794TIP3    H230018   5.514   4.909   0.922  0.6849  2.2263 -0.8268
 2795TIP3   OH230019   1.195   1.659   8.116  0.1552  0.3674  0.3171
 2795TIP3    H130020   1.099   1.666   8.124  0.0357  0.0990 -0.7695
 2795TIP3    H230021   1.222   1.621   8.200 -0.8348 -0.6961  0.1970
 2796TIP3   OH230022   6.638   3.103   0.699  0.7807 -0.3900  0.4092
 2796TIP3    H130023   6.689   3.064   0.628  0.4758 -1.8578  0.9668
 2796TIP3    H230024   6.553   3.060   0.694 -0.0042  1.0992  0.3038
 2797TIP3   OH230025   2.193   2.318   1.288  0.3838 -0.6646 -0.1975
 2797TIP3    H130026   2.159   2.390   1.235 -1.1779  0.2155  1.8770
 2797TIP3    H230027   2.286   2.315   1.267 -0.1017 -0.2143 -2.7477
 2798TIP3   OH230028   1.585   5.511   7.998  0.4822 -0.2458 -0.4309
 2798TIP3    H130029   1.550   5.549   7.917 -0.6139 -0.4049 -0.0548
 2798TIP3    H230030   1.615   5.424   7.971 -1.9806 -1.2357 -0.2918
 2799TIP3   OH230031   4.433   3.211   6.437 -0.4682 -0.0427  0.6634
 2799TIP3    H130032   4.519   3.240   6.466 -1.0591  0.5336  1.9062
 2799TIP3    H230033   4.440   3.115   6.435  0.8872  0.0324 -1.5460
 2800TIP3   OH230034   1.399   6.211   7.058 -0.1050  0.1930 -0.6606
 2800TIP3    H130035   1.305   6.196   7.068  0.2590 -0.6650  2.6779
 2800TIP3    H230036   1.423   6.161   6.980 -2.2803 -0.2257 -1.1248
 2801TIP3   OH230037   4.728   3.958   1.040  0.1226 -0.3374 -0.0534
 2801TIP3    H130038   4.814   3.919   1.029 -0.8056 -2.0608 -2.0409
 2801TIP3    H230039   4.667   3.887   1.023 -1.6804  1.2618 -0.7457
 2802TIP3   OH230040   2.722   0.489   8.460 -0.0630 -0.2966 -1.0857
 2802TIP3    H130041   2.648   0.522   8.409  1.3603  0.0750 -3.0145
 2802TIP3    H230042   2.702   0.397   8.473 -1.0166 -0.1348 -1.3031
 2803TIP3   OH230043   5.718   6.622   7.859 -0.0774  0.4070  0.6903
 2803TIP3    H130044   5.768   6.582   7.789 -0.3848  0.1314  0.6238
 2803TIP3    H230045   5.723   6.716   7.843  2.3859  0.5702  2.0112
 2804TIP3   OH230046   5.816   1.762   1.738  0.2299 -0.1753  0.3594
 2804TIP3    H130047   5.852   1.850   1.724  1.3919 -0.7317 -0.2681
 2804TIP3    H230048   5.857   1.733   1.820 -1.0005  0.2631  1.1697
 2805TIP3   OH230049   3.414   5.145   7.334 -0.5892  0.6243  0.2067
 2805TIP3    H130050   3.325   5.128   7.301 -1.4122 -1.2451  3.0171
 2805TIP3    H230051   3.407   5.230   7.378 -0.3705  1.4934 -1.3715
 2806TIP3   OH230052   1.707   4.541   6.600  0.2095  0.1045 -0.3137
 2806TIP3    H130053   1.784   4.544   6.657  0.4400  1.7241 -0.6525
 2806TIP3    H230054   1.743   4.529   6.512  0.0525  0.4407 -0.4241
 2807TIP3   OH230055   4.971   4.557   8.430 -0.0004 -0.0762  0.4368
 2807TIP3    H130056   4.962   4.597   8.343  3.0655  0.6693  0.3473
 2807TIP3    H230057   4.905   4.601   8.483 -0.8025  0.6746 -1.1005
 2808TIP3   OH230058   6.130   3.980   8.388 -0.1179 -0.1481 -0.4092
 2808TIP3    H130059   6.065   3.962   8.456 -0.5476  0.1206 -0.7520
 2808TIP3    H230060   6.163   3.893   8.363  1.9283 -0.1861  1.9485
 2809TIP3   OH230061   1.173   2.071   0.235 -0.5405 -0.2811 -0.3549
 2809TIP3    H130062   1.106   2.007   0.260 -0.8211  0.2050  0.1676
 2809TIP3    H230063   1.206   2.104   0.319 -0.7445  0.6132 -0.6192
 2810TIP3   OH230064   4.970   4.873   0.895  0.5225 -0.0516 -0.2528
 2810TIP3    H130065   5.038   4.815   0.862  0.3587 -0.5021  0.1853
 2810TIP3    H230066   4.888   4.826   0.876  0.2591  0.8403 -1.5095
 2811TIP3   OH230067   0.583   4.988   7.750 -0.4980  0.0001 -0.2788
 2811TIP3    H130068   0.495   4.975   7.787 -0.7228 -1.4834 -1.2615
 2811TIP3    H230069   0.576   4.959   7.659  0.8682  0.4481 -0.5570
 2812TIP3   OH230070   4.429   0.848   1.648  0.1028  0.0023 -0.2801
 2812TIP3    H130071   4.472   0.768   1.677 -0.5999  0.0380  0.9458
 2812TIP3    H230072   4.484   0.919   1.680 -0.2715  0.0289  0.3226
 2813TIP3   OH230073   6.597   1.779   2.086 -0.1431  0.8390 -0.1051
 2813TIP3    H130074   6.691   1.763   2.080 -0.0420  1.6890 -1.0510
 2813TIP3    H230075   6.584   1.814   2.175  0.5036  1.1426 -0.1231
 2814TIP3   OH230076   1.294   0.086   8.046 -0.1223  0.1866 -0.1732
 2814TIP3    H130077   1.244   0.168   8.051  0.1126  0.5065 -2.1013
 2814TIP3    H230078   1.228   0.017   8.045 -0.3314  0.3365  1.2202
 2815TIP3   OH230079   2.735   1.412   8.084 -0.2052 -0.0626 -0.7629
 2815TIP3    H130080   2.714   1.436   7.993 -0.0846 -1.7569 -1.2868
 2815TIP3    H230081   2.783   1.487   8.119 -1.9518  1.4536 -1.4489
 2816TIP3   OH230082   6.292   0.692   0.684 -0.2172 -0.2439 -0.7270
 2816TIP3    H130083   6.320   0.650   0.766 -0.0566  0.2572 -0.5254
 2816TIP3    H230084   6.211   0.646   0.661  0.6809 -1.6330 -1.2625
 2817TIP3   OH230085   6.202   3.258   2.194 -0.3587 -0.1576 -0.5488
 2817TIP3    H130086   6.125   3.313   2.209 -1.0411 -0.7633 -1.7225
 2817TIP3    H230087   6.239   3.244   2.281  0.1078  2.5053 -0.2342
 2818TIP3   OH230088   4.756   1.886   7.910  0.1198 -0.3461  0.1364
 2818TIP3    H130089   4.774   1.815   7.848 -1.8586 -0.4576 -0.3816
 2818TIP3    H230090   4.661   1.896   7.907  0.0287  0.1017  2.6669
 2819TIP3   OH230091   1.120   3.742   1.839  0.4842  0.2100 -0.2107
 2819TIP3    H130092   1.148   3.700   1.758 -1.2546 -0.0769 -0.7003
 2819TIP3    H230093   1.039   3.697   1.863 -1.8054  3.5283 -1.0565
 2820TIP3   OH230094   0.519   0.960   0.069  0.3579 -0.2082  0.5496
 2820TIP3    H130095   0.462   0.996   0.002  2.2758  0.1659 -0.9745
 2820TIP3    H230096   0.469   0.967   0.150 -2.2096 -1.1066 -0.8757
 2821TIP3   OH230097   4.083   0.013   7.710 -0.2198 -0.5298 -0.2187
 2821TIP3    H130098   4.069  -0.081   7.696 -0.6958 -0.3518 -1.0435
 2821TIP3    H230099   4.175   0.020   7.732 -0.3431 -1.2657  0.5821
 2822TIP3   OH230100   2.023   1.567   1.349 -0.3643  0.2773  0.2206
 2822TIP3    H130101   1.964   1.493   1.341  0.2015 -0.1209 -0.3185
 2822TIP3    H230102   2.108   1.534   1.319  0.2366  0.7149  1.3634
 2823TIP3   OH230103   3.783   5.940   8.543  0.2601  0.5781  0.4488
 2823TIP3    H130104   3.867   5.893   8.535  0.5534  1.3324 -1.3536
 2823TIP3    H230105   3.803   6.029   8.515 -0.4708  1.6541  3.0562
 2824TIP3   OH230106   3.385   1.832   7.484  0.2963  0.2128  0.3745
 2824TIP3    H130107   3.364   1.916   7.444  0.3545  0.9266  1.7972
 2824TIP3    H230108   3.302   1.802   7.522  0.4756  0.0676  0.6533
 2825TIP3   OH230109   6.841   4.160   1.330 -0.7281  0.1819  0.1505
 2825TIP3    H130110   6.933   4.179   1.348 -0.6274 -0.9839  0.9614
 2825TIP3    H230111   6.798   4.246   1.335  0.1324  0.5915  0.8523
 2826TIP3   OH230112   2.923   3.146   6.976  0.3602 -0.2539  0.1786
 2826TIP3    H130113   2.828   3.135   6.981 -0.0336  2.5392  0.7735
 2826TIP3    H230114   2.951   3.089   6.904 -1.7664 -1.0432 -0.0857
 2827TIP3   OH230115   2.019   0.940   8.545  0.4401  0.7720 -0.0668
 2827TIP3    H130116   1.951   0.889   8.501  1.0438 -0.6255  0.5616
 2827TIP3    H230117   1.986   0.954   8.634  0.9404  0.0946  0.2396
 2828TIP3   OH230118   3.108   6.379   7.760  0.4853 -0.6114  0.0085
 2828TIP3    H130119   3.198   6.367   7.791  1.3629  1.5178 -1.4736
 2828TIP3    H230120   3.109   6.346   7.670  0.0447  0.2762 -0.3325
 2829TIP3   OH230121   0.555   4.173   8.472  0.2547  0.4090  0.3664
 2829TIP3    H130122   0.589   4.084   8.481 -0.4937  0.0576 -0.2424
 2829TIP3    H230123   0.490   4.168   8.402 -2.1215  0.7619  2.4132
 2830TIP3   OH230124   3.457   3.759   8.178  0.2346 -0.5446 -0.0728
 2830TIP3    H130125   3.367   3.789   8.188  0.2796 -1.0524  2.7161
 2830TIP3    H230126   3.451   3.664   8.185  0.8615 -0.6909 -1.3118
 2831TIP3   OH230127   3.246   5.075   8.411  0.5155 -0.3257  0.8097
 2831TIP3    H130128   3.263   4.981   8.419  0.0838 -0.2793  2.6404
 2831TIP3    H230129   3.314   5.106   8.352 -1.2328 -2.2718 -2.6076
 2832TIP3   OH230130   0.584   6.521   0.134 -0.0237  0.0166  0.4556
 2832TIP3    H130131   0.496   6.487   0.153  0.5009 -1.8134 -0.1248
 2832TIP3    H230132   0.622   6.455   0.076  2.6419 -0.6080  2.6901
 2833TIP3   OH230133   2.537   5.560   1.408 -0.5829  0.2734  0.0284
 2833TIP3    H130134   2.584   5.596   1.483  2.1169 -1.5359 -0.6754
 2833TIP3    H230135   2.459   5.519   1.446  1.1760 -1.3961  2.0016
 2834TIP3   OH230136   5.438   6.240   2.550 -0.2598 -0.2987 -0.0908
 2834TIP3    H130137   5.526   6.231   2.515 -0.4710 -1.2607 -0.4031
 2834TIP3    H230138   5.413   6.331   2.530  0.7513  0.0774  0.2631
 2835TIP3   OH230139   1.626   1.656   0.773 -0.2533 -0.5290 -0.2800
 2835TIP3    H130140   1.678   1.596   0.719  0.9164  0.3209 -0.1145
 2835TIP3    H230141   1.591   1.601   0.843 -1.9823 -1.7116 -1.9765
 2836TIP3   OH230142   2.672   5.715   1.591 -0.0767 -0.7390  0.3149
 2836TIP3    H130143   2.640   5.805   1.590  1.8815  0.0486 -1.8747
 2836TIP3    H230144   2.767   5.724   1.580  0.8862 -2.9498  4.5265
 2837TIP3   OH230145   4.613   3.383   0.954 -0.0473 -0.9448  0.7033
 2837TIP3    H130146   4.668   3.427   1.018  0.1868 -1.8069  1.1098
 2837TIP3    H230147   4.533   3.361   1.001  0.0277 -1.3646  0.6428
 2838TIP3   OH230148   2.340   5.358   0.017 -0.1007  0.0010  0.6144
 2838TIP3    H130149   2.328   5.451  -0.002 -3.1577 -0.3081  0.4616
 2838TIP3    H230150   2.347   5.317  -0.069 -1.5795 -0.1414  0.5325
 2839TIP3   OH230151   0.233   2.498   1.999  0.4332 -0.4008 -0.0517
 2839TIP3    H130152   0.297   2.534   2.060  0.8460 -0.9877 -0.1312
 2839TIP3    H230153   0.148   2.517   2.039  0.6589  0.2824  0.1058
 2840TIP3   OH230154   0.045   4.006   7.487 -0.1262  0.2356  0.0312
 2840TIP3    H130155   0.021   3.962   7.406  1.1453  1.9407 -1.3348
 2840TIP3    H230156  -0.039   4.026   7.529 -0.7676 -1.8060 -0.1593
 2841TIP3   OH230157   1.329   6.343   0.808  0.1161  0.0929  0.2197
 2841TIP3    H130158   1.302   6.284   0.738 -0.0058 -0.6832  0.9132
 2841TIP3    H230159   1.336   6.428   0.765 -0.2651 -0.3058 -0.6676
 2842TIP3   OH230160   1.980   1.032   1.801  0.4637 -0.1814  0.2015
 2842TIP3    H130161   2.073   1.012   1.794  0.3689 -0.4317 -0.3981
 2842TIP3    H230162   1.960   1.020   1.894  1.0887  0.1641  0.3883
 2843TIP3   OH230163   1.314   1.572   0.735 -0.0028 -0.2940  0.0032
 2843TIP3    H130164   1.354   1.485   0.738 -0.8223 -0.6865 -0.0195
 2843TIP3    H230165   1.262   1.577   0.816  0.9078  0.6131  0.5497
 2844TIP3   OH230166   0.066   0.568   7.796 -0.9989  0.2349 -0.0845
 2844TIP3    H130167   0.142   0.621   7.772 -1.6756  2.0589  1.5405
 2844TIP3    H230168  -0.009   0.621   7.772 -1.7305 -0.3970  0.7366
 2845TIP3   OH230169   5.771   1.879   0.997  0.2142 -0.2200 -0.8418
 2845TIP3    H130170   5.762   1.965   1.040 -0.5819  0.5678 -2.5232
 2845TIP3    H230171   5.770   1.816   1.070  0.3462  1.1535  0.3964
 2846TIP3   OH230172   5.112   0.665   0.259  0.2007  0.2310 -0.7310
 2846TIP3    H130173   5.119   0.583   0.211  0.9107 -0.9213  1.2003
 2846TIP3    H230174   5.182   0.661   0.325 -0.8368  1.5791  0.5406
 2847TIP3   OH230175   1.814   4.127   8.629 -0.0269 -0.4265 -0.0183
 2847TIP3    H130176   1.732   4.172   8.610 -0.3275 -1.1122 -0.3726
 2847TIP3    H230177   1.794   4.035   8.618 -0.1078 -0.9155  3.1619
 2848TIP3   OH230178   3.545   6.536   0.796  0.6184 -0.6558  0.5911
 2848TIP3    H130179   3.607   6.490   0.740  0.0109  1.3448 -1.9479
 2848TIP3    H230180   3.465   6.484   0.791  0.3063 -0.0850 -1.2348
 2849TIP3   OH230181   6.076   0.898   7.575  0.3379  0.1169 -0.4903
 2849TIP3    H130182   6.011   0.847   7.526 -1.4981  1.2588  0.6249
 2849TIP3    H230183   6.103   0.966   7.514 -0.1258  0.1178 -0.7006
 2850TIP3   OH230184   1.712   4.363   7.267  0.3706  0.1274  0.3736
 2850TIP3    H130185   1.768   4.433   7.234 -1.4008  0.1661 -2.9915
 2850TIP3    H230186   1.772   4.292   7.289  1.9390 -0.2930 -4.1950
 2851TIP3   OH230187   1.953   1.368   1.167  0.8783  0.6896  0.0904
 2851TIP3    H130188   2.004   1.379   1.087  2.9431  1.1360  1.3895
 2851TIP3    H230189   2.010   1.317   1.225 -1.2541 -1.1654  0.7011
 2852TIP3   OH230190   4.506   5.171   8.048  0.4303 -0.6189  0.0579
 2852TIP3    H130191   4.600   5.158   8.060  0.1732 -0.9007  2.0770
 2852TIP3    H230192   4.468   5.084   8.053 -0.1043 -0.3429  1.1796
 2853TIP3   OH230193   1.516   5.635   0.226 -0.3163 -0.0281 -0.4346
 2853TIP3    H130194   1.454   5.664   0.160  0.7418  1.0846 -0.9920
 2853TIP3    H230195   1.561   5.715   0.253  0.4942 -0.7242  0.3405
 2854TIP3   OH230196   0.209   3.088   0.385 -0.3447 -0.1543 -0.2492
 2854TIP3    H130197   0.244   3.143   0.455 -0.7403  0.0288 -0.1917
 2854TIP3    H230198   0.257   3.006   0.393  0.9714  0.5126 -0.9687
 2855TIP3   OH230199   4.728   6.603   2.292  0.0065  0.1352 -0.0373
 2855TIP3    H130200   4.724   6.687   2.338  1.5493 -0.7930  1.9601
 2855TIP3    H230201   4.686   6.541   2.353  2.4673 -1.2193  0.4017
 2856TIP3   OH230202   3.998   2.022   8.200 -0.2439 -0.0663  0.0548
 2856TIP3    H130203   3.902   2.019   8.196 -0.2140 -1.0864 -0.5005
 2856TIP3    H230204   4.023   1.932   8.224  0.6067 -0.2340 -1.3520
 2857TIP3   OH230205   2.800   5.286   8.065  0.3125 -0.4768  0.3538
 2857TIP3    H130206   2.762   5.372   8.086  1.3776 -0.2657  1.5981
 2857TIP3    H230207   2.728   5.236   8.029 -0.1399  1.2102 -1.2298
 2858TIP3   OH230208   1.576   1.073   7.382 -0.2469  0.4443 -0.5835
 2858TIP3    H130209   1.522   1.019   7.438  2.5087 -1.3664  0.5411
 2858TIP3    H230210   1.561   1.040   7.294  1.0988 -2.0308  0.0392
 2859TIP3   OH230211   4.140   2.649   1.645 -0.0703  0.9110 -0.1874
 2859TIP3    H130212   4.076   2.719   1.635 -3.7852 -1.9855  0.9618
 2859TIP3    H230213   4.123   2.591   1.571  1.2047 -0.0029  0.2050
 2860TIP3   OH230214   2.966   1.257   7.301  0.2235  0.3386 -0.0763
 2860TIP3    H130215   3.016   1.325   7.256 -0.9286 -0.3324 -2.5236
 2860TIP3    H230216   2.935   1.200   7.231 -2.4588 -0.2814  1.4839
 2861TIP3   OH230217   6.529   2.504   7.183  0.8360 -0.6445 -0.3979
 2861TIP3    H130218   6.510   2.589   7.142  0.7537  0.1866  1.2927
 2861TIP3    H230219   6.619   2.513   7.215  0.4257 -0.7701  0.8068
 2862TIP3   OH230220   4.869   0.580   6.810 -0.2604 -0.2227  0.1835
 2862TIP3    H130221   4.814   0.510   6.775 -1.4976  0.9174 -0.2685
 2862TIP3    H230222   4.806   0.641   6.849  0.6769  1.2199 -0.4958
 2863TIP3   OH230223   5.474   1.436   6.605  0.5646 -0.4034 -0.3129
 2863TIP3    H130224   5.408   1.467   6.668  0.4826  0.3775 -0.7755
 2863TIP3    H230225   5.497   1.349   6.636  0.3625 -0.1181  0.6834
 2864TIP3   OH230226   4.902   1.316   6.993  0.3462 -0.2192  0.0931
 2864TIP3    H130227   4.927   1.241   6.938  1.7394 -0.3063  0.7906
 2864TIP3    H230228   4.893   1.279   7.081 -1.2443  0.0331  0.0633
 2865TIP3   OH230229   1.138   1.394   0.320  0.0634  0.1866 -0.6478
 2865TIP3    H130230   1.112   1.319   0.267  0.7432 -1.3885  1.1177
 2865TIP3    H230231   1.062   1.413   0.374  0.4348 -0.3852  0.1070
 2866TIP3   OH230232   1.133   0.988   8.202  0.0151 -0.4904  0.1622
 2866TIP3    H130233   1.086   1.011   8.122 -0.6850 -0.8947  0.4474
 2866TIP3    H230234   1.209   1.045   8.202 -2.1328  2.6461  1.3530
 2867TIP3   OH230235   6.130   6.557   2.291  0.2863 -0.4694  0.2849
 2867TIP3    H130236   6.110   6.555   2.384  1.6634 -0.5102  0.6072
 2867TIP3    H230237   6.144   6.650   2.272 -0.7448 -0.3742 -0.0716
 2868TIP3   OH230238   2.994   1.847   1.265 -0.0680 -0.4843  0.4264
 2868TIP3    H130239   2.914   1.839   1.212  0.8055  0.1373 -1.0488
 2868TIP3    H230240   3.001   1.764   1.311 -1.8194 -0.3723  0.9576
 2869TIP3   OH230241   1.135   4.156   6.171 -0.1795 -0.1151  0.4224
 2869TIP3    H130242   1.206   4.096   6.194 -1.2047 -0.8365  1.8504
 2869TIP3    H230243   1.097   4.183   6.254 -1.1305  0.8330 -0.2770
 2870TIP3   OH230244   3.728   5.733   2.672  0.2230 -0.0644 -0.1760
 2870TIP3    H130245   3.651   5.713   2.618  1.6635 -1.6154 -1.7681
 2870TIP3    H230246   3.747   5.826   2.654  0.0364 -0.2733 -1.5126
 2871TIP3   OH230247   6.769   1.149   1.157 -0.0678 -0.4812  0.2469
 2871TIP3    H130248   6.811   1.066   1.177 -0.9041 -0.8635  0.4526
 2871TIP3    H230249   6.841   1.212   1.153  0.6791 -1.3719 -0.8196
 2872TIP3   OH230250   0.327   0.930   8.088 -0.6707  0.1966  0.0590
 2872TIP3    H130251   0.388   0.966   8.024  0.4245  0.5880  1.2855
 2872TIP3    H230252   0.352   0.839   8.098  0.2340  0.5301  1.0922
 2873TIP3   OH230253   0.910   3.416   8.402 -0.2861 -0.0828 -0.9201
 2873TIP3    H130254   0.832   3.361   8.407  0.2835 -0.8170  0.3899
 2873TIP3    H230255   0.877   3.506   8.411 -0.9282 -0.4254  0.3821
 2874TIP3   OH230256   2.214   4.950   8.596  0.1900 -0.5108  0.5341
 2874TIP3    H130257   2.246   4.995   8.674  1.4767  2.0740 -1.3229
 2874TIP3    H230258   2.123   4.929   8.615 -0.2046  2.0766  1.9414
 2875TIP3   OH230259   0.664   4.292   0.013 -0.3451  0.4383  0.3307
 2875TIP3    H130260   0.611   4.253  -0.055  1.2857  1.0378 -1.3736
 2875TIP3    H230261   0.745   4.241   0.014  1.7636  3.3806 -1.8196
 2876TIP3   OH230262   1.917   6.758   1.135 -0.1327 -0.2984  0.2649
 2876TIP3    H130263   1.884   6.672   1.107 -1.7621  0.9539 -1.9753
 2876TIP3    H230264   1.973   6.739   1.210 -0.5259 -3.2996 -0.0880
 2877TIP3   OH230265   0.660   6.616   7.172 -0.6293  0.0940 -0.0763
 2877TIP3    H130266   0.610   6.540   7.201 -1.6188  0.6068 -0.3851
 2877TIP3    H230267   0.600   6.664   7.115  0.4613  0.3611 -1.0371
 2878TIP3   OH230268   4.087   6.508   1.288 -0.2471  0.2992  0.1734
 2878TIP3    H130269   4.019   6.499   1.222 -0.5095  1.5022  0.2617
 2878TIP3    H230270   4.119   6.598   1.278 -1.0714  0.9199  2.4013
 2879TIP3   OH230271   4.117   4.281   0.862 -0.2708  0.4886 -0.2209
 2879TIP3    H130272   4.195   4.325   0.827 -0.8293  1.0467 -0.7928
 2879TIP3    H230273   4.100   4.210   0.800  1.2820 -1.3229  1.2879
 2880TIP3   OH230274   0.983   5.228   7.674 -0.6943 -0.5671  0.0239
 2880TIP3    H130275   0.907   5.273   7.713 -1.7334 -2.0226 -0.2456
 2880TIP3    H230276   1.030   5.192   7.749  0.0182  0.7078  0.2256
 2881TIP3   OH230277   3.551   2.304   0.211  0.3851 -0.5892 -0.5902
 2881TIP3    H130278   3.545   2.223   0.161 -0.7614 -1.7591  1.3507
 2881TIP3    H230279   3.533   2.373   0.146 -1.6997 -2.0757 -1.7011
 2882TIP3   OH230280   3.406   6.438   1.876 -0.1769  0.3153 -0.4888
 2882TIP3    H130281   3.318   6.471   1.860 -0.0064  1.1164  0.0971
 2882TIP3    H230282   3.418   6.367   1.813 -1.1495  0.3486 -0.7273
 2883TIP3   OH230283   0.741   1.223   0.957  0.0976 -0.4201  0.9531
 2883TIP3    H130284   0.757   1.176   0.875 -1.4662  1.5888 -0.5972
 2883TIP3    H230285   0.827   1.255   0.984  0.3385  0.9121 -1.2338
 2884TIP3   OH230286   4.858   3.597   7.127 -0.0188 -0.1898 -0.3649
 2884TIP3    H130287   4.836   3.626   7.038 -0.6470 -0.9514 -0.4593
 2884TIP3    H230288   4.774   3.585   7.171  0.0475 -3.7210 -0.9225
 2885TIP3   OH230289   1.649   6.287   1.876  0.0648 -0.2615  0.3442
 2885TIP3    H130290   1.589   6.225   1.917 -0.3041 -1.0303 -1.2738
 2885TIP3    H230291   1.627   6.371   1.914 -1.6997 -0.6200  0.1789
 2886TIP3   OH230292   0.196   1.847   7.333 -0.2057  0.3406  0.1654
 2886TIP3    H130293   0.289   1.861   7.321 -0.1330 -0.9529 -1.0184
 2886TIP3    H230294   0.190   1.799   7.416  0.2244  0.0748  0.0465
 2887TIP3   OH230295   0.337   5.036   6.263 -0.0711  0.6034 -0.2718
 2887TIP3    H130296   0.361   5.052   6.172  0.7721 -0.5055 -0.2692
 2887TIP3    H230297   0.394   4.964   6.291 -0.2258  1.0048  1.1735
 2888TIP3   OH230298   4.351   1.219   7.815  0.2043  0.1973  1.0902
 2888TIP3    H130299   4.310   1.142   7.854 -0.7003  0.6279  1.0176
 2888TIP3    H230300   4.440   1.220   7.850  1.7395 -3.1970 -2.0251
 2889TIP3   OH230301   0.974   5.769   7.475 -0.4923  0.1272 -0.6017
 2889TIP3    H130302   0.990   5.688   7.523  2.4416  0.4098 -0.9598
 2889TIP3    H230303   1.013   5.837   7.530 -1.6173  1.1441 -1.0176
 2890TIP3   OH230304   1.721   6.899   1.440  0.5478  0.0744  0.0725
 2890TIP3    H130305   1.698   6.937   1.356  1.9282  0.6373 -0.0774
 2890TIP3    H230306   1.641   6.858   1.471  0.2254 -0.9224 -1.9289
 2891TIP3   OH230307   3.019   1.060   0.373 -0.8370  0.3738  0.1145
 2891TIP3    H130308   3.030   1.083   0.465  0.2044 -0.2025  0.1437
 2891TIP3    H230309   2.965   0.981   0.374  0.3506 -0.4603  0.3244
 2892TIP3   OH230310   1.618   1.119   2.594 -0.5775 -0.1317  0.0952
 2892TIP3    H130311   1.668   1.038   2.598 -1.7490 -0.8617  0.7240
 2892TIP3    H230312   1.526   1.091   2.600 -1.0331  1.2084 -0.1551
 2893TIP3   OH230313   3.468   1.511   0.154  0.7718  0.1641 -0.1565
 2893TIP3    H130314   3.545   1.494   0.208 -0.0419  0.4351  1.1317
 2893TIP3    H230315   3.394   1.501   0.213 -0.2250 -0.3230 -1.4195
 2894TIP3   OH230316   3.427   5.577   0.633 -0.7188 -0.4078  0.0489
 2894TIP3    H130317   3.481   5.502   0.607  1.2784  1.5137 -1.8063
 2894TIP3    H230318   3.354   5.577   0.571  0.5794  0.4617 -1.5672
 2895TIP3   OH230319   1.982   6.382   1.096  0.0959  0.0282 -0.1625
 2895TIP3    H130320   2.055   6.324   1.077 -1.4895 -1.9117 -0.7339
 2895TIP3    H230321   1.998   6.415   1.185  1.9262  0.1649 -0.5220
 2896TIP3   OH230322   2.571   2.592   1.283  0.2417  0.7266 -0.2788
 2896TIP3    H130323   2.491   2.584   1.334  0.0372 -0.5922 -0.7659
 2896TIP3    H230324   2.638   2.552   1.338  0.1951  0.1352 -0.6410
 2897TIP3   OH230325   5.757   4.478   0.496  0.6864 -0.1073  0.3378
 2897TIP3    H130326   5.729   4.486   0.405 -1.0505 -0.1363  0.8440
 2897TIP3    H230327   5.786   4.566   0.519  1.8658 -0.2673 -0.4493
 2898TIP3   OH230328   0.345   6.410   0.135 -0.2504  0.3012 -0.1487
 2898TIP3    H130329   0.271   6.366   0.177 -1.0917  1.6941 -0.0762
 2898TIP3    H230330   0.359   6.361   0.054 -0.3198 -0.8411  0.5195
 2899TIP3   OH230331   4.541   1.098   1.675 -0.0299  0.0685  0.4827
 2899TIP3    H130332   4.633   1.117   1.656 -0.6044  1.1137 -1.5500
 2899TIP3    H230333   4.529   1.130   1.764  1.3694  0.7649  0.4645
 2900TIP3   OH230334   0.833   5.504   0.205  0.1799 -0.1027 -0.4357
 2900TIP3    H130335   0.806   5.422   0.165 -1.3254 -0.2006  0.7112
 2900TIP3    H230336   0.926   5.511   0.186 -0.1497 -0.8896 -2.6045
 2901TIP3   OH230337   5.403   0.617   0.196 -0.0857 -0.1217  0.0150
 2901TIP3    H130338   5.488   0.593   0.159  1.1320  0.1838  2.4462
 2901TIP3    H230339   5.386   0.705   0.160 -0.9969 -1.3922 -2.9852
 2902TIP3   OH230340   0.749   6.349   1.228  0.4205 -0.2129 -0.4809
 2902TIP3    H130341   0.713   6.413   1.166  1.7284  1.9293  0.8465
 2902TIP3    H230342   0.763   6.399   1.308  2.9673 -1.7741  0.1500
 2903TIP3   OH230343   0.962   6.174   6.794  0.4104  0.5871  0.3118
 2903TIP3    H130344   1.049   6.134   6.793  0.1601  0.0361  0.3437
 2903TIP3    H230345   0.902   6.100   6.799 -0.1079  0.8997 -0.8707
 2904TIP3   OH230346   2.610   1.434   1.363  0.2145 -0.2517 -0.1178
 2904TIP3    H130347   2.681   1.455   1.425 -0.2129  1.5216 -0.1806
 2904TIP3    H230348   2.536   1.487   1.393  0.0462  0.7961 -2.2353
 2905TIP3   OH230349   3.519   2.226   7.357 -0.0873  0.1346  1.1089
 2905TIP3    H130350   3.474   2.144   7.335  2.7762 -2.4673  3.9404
 2905TIP3    H230351   3.454   2.277   7.406 -2.2274  0.1281 -1.5092
 2906TIP3   OH230352   1.941   5.315   1.043 -0.4978  0.3664  0.4695
 2906TIP3    H130353   1.854   5.351   1.024 -0.2740 -0.1593 -1.8104
 2906TIP3    H230354   1.949   5.239   0.985  1.5918  0.5606  0.4347
 2907TIP3   OH230355   5.565   2.983   0.976  0.4911 -0.0255  0.4877
 2907TIP3    H130356   5.534   3.057   0.924 -0.9222 -1.2844 -0.5372
 2907TIP3    H230357   5.635   2.944   0.924  1.1844  0.5356  0.9921
 2908TIP3   OH230358   4.481   6.291   0.801 -1.1425  0.6722 -0.0030
 2908TIP3    H130359   4.463   6.358   0.867  4.1753  0.7515  1.9032
 2908TIP3    H230360   4.504   6.340   0.722  1.0493  1.2238  0.8858
 2909TIP3   OH230361   4.882   5.497   7.941 -0.0853 -0.2889 -0.0075
 2909TIP3    H130362   4.870   5.475   7.849 -0.7229 -1.0482  0.2518
 2909TIP3    H230363   4.966   5.545   7.943  0.2378 -0.7913 -0.8903
 2910TIP3   OH230364   0.931   1.632   6.470 -0.0572 -0.0445  0.2004
 2910TIP3    H130365   0.905   1.717   6.505 -2.6068 -0.2382 -0.9815
 2910TIP3    H230366   1.018   1.647   6.433 -0.8441  2.3603 -0.8901
 2911TIP3   OH230367   5.421   4.340   8.503 -0.3004 -0.3284  0.3456
 2911TIP3    H130368   5.341   4.297   8.471  0.4989 -0.5612 -1.5081
 2911TIP3    H230369   5.485   4.269   8.509  0.2018  0.1065  0.1908
 2912TIP3   OH230370   4.947   5.005   1.906  0.3155 -0.1502  0.4064
 2912TIP3    H130371   5.036   5.036   1.921  0.1699  0.0583  0.8738
 2912TIP3    H230372   4.940   4.995   1.811  0.0336  2.2934  0.1068
 2913TIP3   OH230373   5.949   0.240   6.429  0.6118  0.3329  0.2116
 2913TIP3    H130374   6.031   0.262   6.384  0.8345  1.7015  1.2051
 2913TIP3    H230375   5.937   0.146   6.414  1.5949  0.4025 -1.1706
 2914TIP3   OH230376   4.274   3.513   0.301 -0.6691  0.3486 -0.4262
 2914TIP3    H130377   4.296   3.529   0.393  0.0929  0.5216 -0.6408
 2914TIP3    H230378   4.249   3.599   0.267 -0.5792  0.3510 -0.4848
 2915TIP3   OH230379   5.591   3.997   0.586 -0.3595 -0.2842 -0.1209
 2915TIP3    H130380   5.498   4.007   0.565 -1.1129  0.2133  3.0398
 2915TIP3    H230381   5.615   4.081   0.625  1.1383 -0.8219  0.1557
 2916TIP3   OH230382   3.591   2.648   1.000  0.0076  0.0377  0.1408
 2916TIP3    H130383   3.661   2.584   1.014  1.0487  1.1141  0.0529
 2916TIP3    H230384   3.544   2.651   1.083  0.3477 -0.3867  0.3507
 2917TIP3   OH230385   3.384   0.067   8.177  0.3368  0.3160 -0.5121
 2917TIP3    H130386   3.374   0.042   8.268 -2.1060 -0.0612 -0.8142
 2917TIP3    H230387   3.461   0.019   8.147 -0.3791 -1.7072  0.6715
 2918TIP3   OH230388   2.264   6.529   1.396 -0.5926 -0.2064  0.6716
 2918TIP3    H130389   2.309   6.521   1.480 -0.5298 -2.3548  0.5042
 2918TIP3    H230390   2.301   6.458   1.343 -1.1863  0.6235 -0.9069
 2919TIP3   OH230391   0.320   3.642   0.238 -0.0272  0.0541  0.0473
 2919TIP3    H130392   0.345   3.725   0.198  0.8898  0.2258  0.9346
 2919TIP3    H230393   0.225   3.637   0.227 -0.2595  1.7940  1.0450
 2920TIP3   OH230394   3.522   3.687   0.339  0.2982  0.0884 -0.2052
 2920TIP3    H130395   3.584   3.672   0.268 -0.2875 -0.7005 -0.5659
 2920TIP3    H230396   3.547   3.772   0.374  0.3964  0.6608 -1.5752
 2921TIP3   OH230397   3.615   3.162   2.016  0.2434  0.2892  0.2608
 2921TIP3    H130398   3.583   3.204   2.096 -2.0097  3.4635 -2.0426
 2921TIP3    H230399   3.698   3.207   1.997  1.5668 -1.5250  1.4926
 2922TIP3   OH230400   1.841   1.150   0.319  0.2915  0.1115  0.0411
 2922TIP3    H130401   1.797   1.150   0.234 -0.8629  2.8612  0.5318
 2922TIP3    H230402   1.913   1.213   0.308  0.2705  0.3205  1.0437
 2923TIP3   OH230403   2.716   1.108   8.444 -0.0145 -0.5533 -0.0828
 2923TIP3    H130404   2.676   1.167   8.380  0.9235 -0.4622 -0.5940
 2923TIP3    H230405   2.810   1.115   8.429  0.2893  0.0082  1.7830
 2924TIP3   OH230406   5.111   4.642   0.819  0.2781 -0.3407 -0.4181
 2924TIP3    H130407   5.117   4.550   0.845 -1.2798 -0.2617  0.3290
 2924TIP3    H230408   5.098   4.640   0.725 -0.2734 -0.9094 -0.3316
 2925TIP3   OH230409   5.694   3.886   0.347 -0.1765  0.0617  0.3530
 2925TIP3    H130410   5.754   3.956   0.320  2.4593 -1.7481  1.1240
 2925TIP3    H230411   5.639   3.926   0.415  2.0669  1.1677  1.6430
 2926TIP3   OH230412   4.473   2.321   0.334 -0.6189  0.4960 -0.1018
 2926TIP3    H130413   4.553   2.282   0.368  1.0759  3.5494 -0.1775
 2926TIP3    H230414   4.448   2.266   0.260  0.4759 -1.4357  0.9032
 2927TIP3   OH230415   6.356   5.876   6.547  0.8268  0.1418 -0.3461
 2927TIP3    H130416   6.340   5.827   6.627  5.5086  1.0084  1.4619
 2927TIP3    H230417   6.388   5.810   6.485 -1.8692 -0.3610 -1.3625
 2928TIP3   OH230418   0.361   2.976   6.828  0.2390 -0.1993  0.0051
 2928TIP3    H130419   0.448   2.959   6.794  1.2678  1.6922  1.4699
 2928TIP3    H230420   0.315   3.020   6.757  1.2149  0.7001 -0.0848
 2929TIP3   OH230421   6.688   6.592   1.366 -0.0786  0.5054  0.5807
 2929TIP3    H130422   6.636   6.545   1.432 -0.2384 -0.7033 -0.3700
 2929TIP3    H230423   6.777   6.560   1.378 -0.1244  0.2051  0.1720
 2930TIP3   OH230424   3.402   6.765   0.355 -0.2088 -0.8632  0.1865
 2930TIP3    H130425   3.392   6.841   0.411  0.8465 -0.4498 -0.1472
 2930TIP3    H230426   3.488   6.730   0.378  0.5684 -0.2642 -1.6255
 2931TIP3   OH230427   5.357   4.713   8.354 -0.1865 -0.4823 -0.4097
 2931TIP3    H130428   5.396   4.787   8.308 -1.3862  0.8184  0.5468
 2931TIP3    H230429   5.385   4.724   8.445 -0.1777 -1.3711 -0.2933
 2932TIP3   OH230430   1.783   3.860   0.002  0.3830  0.0150 -0.6324
 2932TIP3    H130431   1.708   3.801   0.011  0.5744 -0.0656  0.6243
 2932TIP3    H230432   1.829   3.829  -0.075  0.7081 -1.7498  0.2327
 2933TIP3   OH230433   1.338   5.724   7.029 -0.3210 -0.4928  0.4590
 2933TIP3    H130434   1.401   5.662   6.991 -1.5410 -0.8720 -1.0237
 2933TIP3    H230435   1.392   5.795   7.062  0.9085 -0.8334 -0.7292
 2934TIP3   OH230436   4.576   1.771   1.208  0.2729 -0.1661  0.0233
 2934TIP3    H130437   4.652   1.725   1.243  0.1738  0.8070  1.6211
 2934TIP3    H230438   4.506   1.705   1.206 -0.1543  0.0480  3.2641
 2935TIP3   OH230439   0.204   0.763   1.240  0.2671  0.2825 -0.3851
 2935TIP3    H130440   0.295   0.778   1.264  0.4063  0.4250 -0.9912
 2935TIP3    H230441   0.196   0.668   1.232 -0.6019 -0.1207  3.4155
 2936TIP3   OH230442   5.613   2.659   8.586  0.4415 -0.2612  0.5982
 2936TIP3    H130443   5.664   2.688   8.511 -0.5966 -0.0552 -0.0366
 2936TIP3    H230444   5.564   2.736   8.613  1.1610 -0.1987  1.8017
 2937TIP3   OH230445   2.894   4.614   8.458  0.6423 -0.9454 -0.2610
 2937TIP3    H130446   2.887   4.694   8.407 -0.3288 -1.4560 -0.9649
 2937TIP3    H230447   2.962   4.632   8.524  0.2553  0.5194 -0.2519
 2938TIP3   OH230448   3.356   1.271   1.589  0.1123  0.2758  0.1825
 2938TIP3    H130449   3.353   1.198   1.651 -0.1110  0.8838  0.8979
 2938TIP3    H230450   3.423   1.245   1.525 -2.1553 -2.0020 -1.4493
 2939TIP3   OH230451   3.008   6.021   0.066  0.1239  0.2153 -0.3543
 2939TIP3    H130452   3.031   6.103   0.110 -0.5891  1.5661 -2.3746
 2939TIP3    H230453   3.072   6.013  -0.004 -1.4915  0.5822 -1.9474
 2940TIP3   OH230454   5.325   3.100   8.347 -0.1434 -0.5239  0.0238
 2940TIP3    H130455   5.363   3.029   8.296  0.1067 -0.2611 -0.1588
 2940TIP3    H230456   5.234   3.074   8.361 -0.9194  0.4778 -2.6048
 2941TIP3   OH230457   5.604   5.187   8.556 -0.0231  0.0645  0.2349
 2941TIP3    H130458   5.678   5.138   8.592  0.0375  0.8651  1.2485
 2941TIP3    H230459   5.540   5.120   8.532  0.5652 -0.5736  0.4087
 2942TIP3   OH230460   3.106   4.498   0.731  0.0202  0.4894 -0.9206
 2942TIP3    H130461   3.022   4.533   0.761  1.3853  1.5380  2.1906
 2942TIP3    H230462   3.145   4.569   0.681  0.0175  0.9663 -0.2711
 2943TIP3   OH230463   6.503   1.373   1.650 -0.0465 -0.0827 -0.2934
 2943TIP3    H130464   6.592   1.407   1.656 -1.0336  2.9431 -0.7885
 2943TIP3    H230465   6.497   1.337   1.561  0.2218  1.2458 -0.8692
 2944TIP3   OH230466   0.384   2.433   0.132  0.4155 -0.7086 -0.4094
 2944TIP3    H130467   0.344   2.484   0.062 -0.7160 -0.8508  0.1264
 2944TIP3    H230468   0.379   2.488   0.209  0.3956 -1.1080 -0.1212
 2945TIP3   OH230469   6.101   1.893   2.518 -0.0779 -0.6520 -0.1141
 2945TIP3    H130470   6.104   1.988   2.507 -0.2689 -0.2785  2.3336
 2945TIP3    H230471   6.008   1.872   2.524 -0.0265 -0.9563 -0.3377
 2946TIP3   OH230472   2.504   1.843   0.680 -0.9715  0.0914 -0.0603
 2946TIP3    H130473   2.568   1.899   0.723  0.3010 -1.5237  0.2426
 2946TIP3    H230474   2.438   1.826   0.748  0.3492 -1.3810  0.9400
 2947TIP3   OH230475   5.106   6.865   0.566  0.0913  0.6387 -0.2303
 2947TIP3    H130476   5.015   6.850   0.542 -1.1430  1.2951  3.3046
 2947TIP3    H230477   5.114   6.961   0.572  1.3797  0.6498 -1.4990
 2948TIP3   OH230478   1.273   2.435   0.757  0.1019  0.3157  0.0518
 2948TIP3    H130479   1.228   2.353   0.778 -1.9160  1.6974  1.5289
 2948TIP3    H230480   1.328   2.453   0.833  0.2021  0.5701 -0.0786
 2949TIP3   OH230481   2.976   3.366   1.441  0.1927  0.3460  0.3124
 2949TIP3    H130482   2.966   3.288   1.387  0.8700  0.0349  0.6229
 2949TIP3    H230483   3.068   3.391   1.431 -0.0133  1.1166  0.2075
 2950TIP3   OH230484   5.737   0.868   0.771 -0.5814  0.0394 -0.0965
 2950TIP3    H130485   5.831   0.864   0.786 -0.4708  2.9148  0.5288
 2950TIP3    H230486   5.703   0.789   0.813  1.3253  0.1719  1.9254
 2951TIP3   OH230487   1.392   1.457   8.296 -0.0859  0.2489  0.2347
 2951TIP3    H130488   1.361   1.483   8.383  0.7567 -0.9253  0.9200
 2951TIP3    H230489   1.323   1.400   8.262  0.9114 -1.7796  1.4546
 2952TIP3   OH230490   1.021   5.719   1.895  0.2690  0.0406 -0.0618
 2952TIP3    H130491   0.942   5.757   1.934 -0.6096 -0.9046 -0.8527
 2952TIP3    H230492   1.087   5.725   1.964  0.1782  2.8987 -0.1207
 2953TIP3   OH230493   3.175   5.407   8.475 -0.2182  0.0416  0.4412
 2953TIP3    H130494   3.244   5.425   8.539  2.1513  1.4785 -2.2609
 2953TIP3    H230495   3.198   5.322   8.438  0.7726  0.9150 -1.0909
 2954TIP3   OH230496   4.607   6.250   7.602  0.4267  0.3504  0.3581
 2954TIP3    H130497   4.652   6.215   7.679 -1.2951  1.9285  2.1976
 2954TIP3    H230498   4.654   6.331   7.582  1.1852 -0.3081 -0.6260
 2955TIP3   OH230499   4.548   1.702   0.062 -0.1410 -0.1722 -0.3718
 2955TIP3    H130500   4.554   1.798   0.060 -1.3775 -0.0808 -0.5548
 2955TIP3    H230501   4.615   1.673   0.001  1.1903  0.5103  0.7253
 2956TIP3   OH230502   3.114   2.364   8.416  0.7584  0.0753  0.2840
 2956TIP3    H130503   3.118   2.290   8.355  1.2459 -0.1796  0.6092
 2956TIP3    H230504   3.026   2.361   8.452  1.1028 -1.0144  1.0849
 2957TIP3   OH230505   5.996   5.738   0.813 -0.6386 -0.0504  1.0423
 2957TIP3    H130506   6.045   5.725   0.895 -1.3090  1.0170  1.6380
 2957TIP3    H230507   6.064   5.756   0.747  0.0030 -2.1953  1.0578
 2958TIP3   OH230508   0.841   5.376   1.838 -0.5312  0.0574  0.0954
 2958TIP3    H130509   0.871   5.359   1.927  0.6286 -0.2920 -0.3498
 2958TIP3    H230510   0.747   5.390   1.847 -0.8924 -2.4389  1.0688
 2959TIP3   OH230511   5.890   3.498   1.173 -0.4926 -0.5408 -0.3829
 2959TIP3    H130512   5.799   3.509   1.145 -0.6599  1.3410  0.7247
 2959TIP3    H230513   5.935   3.574   1.136 -0.2805  0.8398  2.4363
 2960TIP3   OH230514   4.590   3.003   7.641  0.8292  0.1405 -0.0005
 2960TIP3    H130515   4.606   2.959   7.724  0.8095  0.3168  0.0980
 2960TIP3    H230516   4.677   3.027   7.610  0.8130  0.4176  0.1603
 2961TIP3   OH230517   1.864   2.162   7.686  0.1893  0.4183  0.4238
 2961TIP3    H130518   1.893   2.112   7.610 -0.0538  0.3085  0.4017
 2961TIP3    H230519   1.770   2.142   7.694 -0.1981  1.8180 -0.3019
 2962TIP3   OH230520   6.222   3.072   7.434  0.5999 -0.5175  0.3810
 2962TIP3    H130521   6.258   3.109   7.515  1.2168 -0.9974  0.3328
 2962TIP3    H230522   6.299   3.048   7.382  0.2236  0.6086 -0.7471
 2963TIP3   OH230523   0.791   0.634   7.290  0.4511 -0.1120  0.6742
 2963TIP3    H130524   0.763   0.593   7.371  0.7528 -2.0125 -0.1441
 2963TIP3    H230525   0.793   0.728   7.310 -0.3285 -0.4648  2.5767
 2964TIP3   OH230526   1.226   3.600   1.627  0.4907  0.6552  0.3418
 2964TIP3    H130527   1.231   3.589   1.533  2.1482  0.7820  0.3931
 2964TIP3    H230528   1.297   3.546   1.662 -0.5655  0.0172  1.5806
 2965TIP3   OH230529   1.875   4.699   0.441  0.5192 -0.4494 -0.4624
 2965TIP3    H130530   1.944   4.654   0.393 -0.4492 -2.9279  0.2954
 2965TIP3    H230531   1.822   4.628   0.479  0.7123  1.2908  3.5202
 2966TIP3   OH230532   6.253   3.030   1.012 -0.1501  0.1687  0.2424
 2966TIP3    H130533   6.220   2.970   0.945  1.2916 -0.5503  0.1414
 2966TIP3    H230534   6.235   3.117   0.977 -0.8565 -0.2007 -0.3365
 2967TIP3   OH230535   2.103   4.310   8.311 -0.2967 -0.3345  0.4428
 2967TIP3    H130536   2.122   4.260   8.233 -0.3320  0.7075 -0.2609
 2967TIP3    H230537   2.014   4.285   8.335 -0.5732 -0.0998 -0.3131
 2968TIP3   OH230538   0.999   4.717   8.171 -0.4092  0.4924  0.1286
 2968TIP3    H130539   0.922   4.757   8.213 -0.1978 -0.3602  1.3850
 2968TIP3    H230540   0.972   4.701   8.081 -1.8725 -0.1641  0.6543
 2969TIP3   OH230541   4.823   6.190   7.769 -0.1468  0.4224 -0.7012
 2969TIP3    H130542   4.752   6.135   7.801  0.6851 -2.0095 -2.6858
 2969TIP3    H230543   4.889   6.188   7.838 -0.0340 -1.3905 -0.8147
 2970TIP3   OH230544   5.232   4.810   7.315  0.3667  1.0144 -0.2137
 2970TIP3    H130545   5.303   4.757   7.277 -0.4490 -1.1534  1.0793
 2970TIP3    H230546   5.255   4.817   7.408 -0.4865  1.3390 -0.0186
 2971TIP3   OH230547   3.803   3.560   2.586 -0.1528 -0.8873 -0.3985
 2971TIP3    H130548   3.890   3.554   2.546  0.5630 -0.1785  0.9486
 2971TIP3    H230549   3.799   3.486   2.646  0.5596  0.3854  1.3317
 2972TIP3   OH230550   0.600   2.732   1.436  0.5864 -0.5090 -0.1316
 2972TIP3    H130551   0.649   2.761   1.514 -0.2501  1.4571 -0.2786
 2972TIP3    H230552   0.621   2.798   1.370 -1.7847  0.0924 -0.3556
 2973TIP3   OH230553   1.272   0.520   0.219  0.1033  0.5521 -0.2097
 2973TIP3    H130554   1.335   0.555   0.283 -1.1210 -0.5865  1.7345
 2973TIP3    H230555   1.187   0.550   0.251 -0.5581 -0.2206 -1.2076
 2974TIP3   OH230556   3.484   0.108   1.948 -0.4863  0.0367 -0.0421
 2974TIP3    H130557   3.430   0.186   1.955 -1.1046 -0.5046  2.7371
 2974TIP3    H230558   3.422   0.037   1.930 -0.3695 -0.2131  0.5012
 2975TIP3   OH230559   4.742   2.202   7.661  0.3545 -0.4059  0.1719
 2975TIP3    H130560   4.675   2.164   7.719  2.1010 -2.9583  0.7227
 2975TIP3    H230561   4.702   2.198   7.574 -0.4140 -1.4743  0.5331
 2976TIP3   OH230562   3.726   2.014   8.456  0.1104 -0.1012  0.2994
 2976TIP3    H130563   3.668   2.087   8.434  0.6535  0.3451  0.3416
 2976TIP3    H230564   3.806   2.055   8.489 -0.5720 -0.7172  2.9434
 2977TIP3   OH230565   2.575   5.858   0.700 -0.2170 -0.2824 -0.0869
 2977TIP3    H130566   2.645   5.813   0.652  0.2464  0.0026  0.3049
 2977TIP3    H230567   2.500   5.799   0.695 -0.1122 -0.3583 -0.9687
 2978TIP3   OH230568   5.118   2.851   7.307  0.2301  0.2020  0.6777
 2978TIP3    H130569   5.065   2.922   7.270  0.9451 -0.1311 -1.0848
 2978TIP3    H230570   5.063   2.773   7.299 -0.4254  0.4391  2.3153
 2979TIP3   OH230571   5.031   0.804   6.835 -0.1772  0.2929  0.6924
 2979TIP3    H130572   5.088   0.800   6.912  0.4802 -2.7348  0.1713
 2979TIP3    H230573   4.977   0.725   6.841 -1.9463  1.3167 -0.6481
 2980TIP3   OH230574   5.146   1.599   7.765 -0.2655 -0.7748  0.6161
 2980TIP3    H130575   5.115   1.575   7.677 -0.3652 -0.8900  0.6828
 2980TIP3    H230576   5.068   1.637   7.807  0.1434  0.6824  0.1424
 2981TIP3   OH230577   2.190   5.810   1.074  0.1834 -0.1606 -0.1582
 2981TIP3    H130578   2.170   5.803   1.167 -0.2987 -0.9428 -0.3108
 2981TIP3    H230579   2.235   5.894   1.065  2.0681 -0.9905  1.0845
 2982TIP3   OH230580   0.549   3.324   0.294  0.2309 -0.0055  0.6177
 2982TIP3    H130581   0.620   3.276   0.336 -0.7349 -0.7400  1.4688
 2982TIP3    H230582   0.477   3.318   0.356 -1.9141 -2.7028 -1.8563
 2983TIP3   OH230583   1.883   2.808   7.970 -0.6692  0.2496 -0.0807
 2983TIP3    H130584   1.919   2.736   7.918 -1.3369  0.3903 -0.7653
 2983TIP3    H230585   1.915   2.793   8.059  0.0959 -0.2740 -0.4373
 2984TIP3   OH230586   2.783   3.454   0.563  0.6801 -0.2327  0.0373
 2984TIP3    H130587   2.714   3.450   0.497  0.1895 -0.1380  0.5286
 2984TIP3    H230588   2.816   3.544   0.559 -0.0463  0.0738  0.5960
 2985TIP3   OH230589   0.743   4.190   7.904  0.5716  0.8890  0.0306
 2985TIP3    H130590   0.671   4.251   7.918 -1.3497 -0.9910 -1.0290
 2985TIP3    H230591   0.706   4.122   7.847  3.2407 -0.1034 -0.6737
 2986TIP3   OH230592   2.146   1.412   2.686  0.5865  0.7704 -0.0938
 2986TIP3    H130593   2.240   1.422   2.673  0.7086  0.9798  0.8708
 2986TIP3    H230594   2.138   1.376   2.774 -0.2853  1.9957  0.3603
 2987TIP3   OH230595   2.083   6.890   7.623 -0.2941 -0.6989 -0.4308
 2987TIP3    H130596   2.101   6.832   7.697  0.4791  0.3609  0.2349
 2987TIP3    H230597   2.024   6.840   7.567 -0.3507 -1.7801  0.5676
 2988TIP3   OH230598   4.594   1.698   2.556  0.2665 -0.1337 -0.0451
 2988TIP3    H130599   4.598   1.788   2.590  1.1584  1.4612 -3.8783
 2988TIP3    H230600   4.680   1.661   2.578 -0.0944 -0.0957  1.5455
 2989TIP3   OH230601   2.760   4.809   0.876 -0.0984  0.3428  0.0810
 2989TIP3    H130602   2.681   4.862   0.885 -0.1574  1.1242 -3.5819
 2989TIP3    H230603   2.735   4.736   0.820  1.5460  0.1116 -0.4257
 2990TIP3   OH230604   3.904   3.450   6.531 -0.3102  0.3780 -0.4263
 2990TIP3    H130605   3.910   3.356   6.517  0.4814  0.3185  0.2707
 2990TIP3    H230606   3.985   3.485   6.492 -0.7433  0.8083 -0.9588
 2991TIP3   OH230607   1.413   3.102   0.106  0.3383  0.0561 -0.2100
 2991TIP3    H130608   1.499   3.134   0.135 -0.0145 -0.8091  2.0409
 2991TIP3    H230609   1.371   3.179   0.068  1.5098  0.9022  0.1139
 2992TIP3   OH230610   3.402   1.408   8.392 -0.0935  0.2729 -0.1524
 2992TIP3    H130611   3.448   1.334   8.433 -0.6843  0.1072  0.2375
 2992TIP3    H230612   3.446   1.486   8.426  0.2910  0.1031 -0.2652
 2993TIP3   OH230613   5.151   6.066   7.297  0.3098 -0.3540 -0.5111
 2993TIP3    H130614   5.110   6.081   7.382  1.2270  1.3440 -0.3295
 2993TIP3    H230615   5.094   6.109   7.234 -0.3989 -1.6575 -0.8122
 2994TIP3   OH230616   6.153   1.471   6.399 -0.1119  0.3305  0.0418
 2994TIP3    H130617   6.163   1.427   6.315 -0.5849 -1.7755  1.0272
 2994TIP3    H230618   6.236   1.516   6.412  0.1672  0.2483 -1.2999
 2995TIP3   OH230619   0.380   0.900   6.810 -0.7763  0.2664 -0.1719
 2995TIP3    H130620   0.380   0.805   6.802 -0.6424  0.3048 -0.6298
 2995TIP3    H230621   0.292   0.921   6.843 -0.4993 -0.0818  0.8386
 2996TIP3   OH230622   2.149   3.732   1.086 -0.0998  0.2877  0.1373
 2996TIP3    H130623   2.139   3.729   0.991  0.6630 -1.6713  0.0688
 2996TIP3    H230624   2.067   3.768   1.118 -0.9450 -0.4011 -1.1825
 2997TIP3   OH230625   5.302   2.603   8.409 -0.6074 -0.0881  0.2421
 2997TIP3    H130626   5.289   2.557   8.326  1.8046 -0.3227 -0.0785
 2997TIP3    H230627   5.297   2.534   8.476 -1.8162 -0.0136  0.2473
 2998TIP3   OH230628   6.260   4.901   7.955  0.1318 -0.2659 -0.5596
 2998TIP3    H130629   6.317   4.944   8.018 -2.0687  2.0923  0.0069
 2998TIP3    H230630   6.252   4.964   7.883  0.8142 -1.9606 -2.1883
 2999TIP3   OH230631   3.789   5.296   1.756  0.1226  1.1289  0.8562
 2999TIP3    H130632   3.819   5.365   1.816  0.9103  1.4861  0.0699
 2999TIP3    H230633   3.721   5.250   1.805  0.6222  1.5237  1.9542
 3000TIP3   OH230634   2.009   5.550   7.992  0.2861  0.2692  0.0101
 3000TIP3    H130635   1.960   5.614   7.941  1.8126  0.1154 -1.7591
 3000TIP3    H230636   1.986   5.568   8.083 -1.6582  1.3050 -0.6415
 3001TIP3   OH230637   3.105   1.611   1.924 -0.7367  0.1461 -0.0721
 3001TIP3    H130638   3.133   1.537   1.871 -2.6961 -0.7948  0.1399
 3001TIP3    H230639   3.010   1.617   1.910 -0.8390  1.7624  0.9829
 3002TIP3   OH230640   0.243   2.240   1.123 -0.2151 -0.2085 -0.2500
 3002TIP3    H130641   0.198   2.187   1.057  0.0067  0.3142 -0.8331
 3002TIP3    H230642   0.261   2.323   1.078 -1.1551  0.6100  0.8421
 3003TIP3   OH230643   5.141   3.636   1.036 -0.0230  0.5566 -0.3550
 3003TIP3    H130644   5.180   3.578   1.101 -1.7281 -0.5356 -0.2405
 3003TIP3    H230645   5.208   3.702   1.019  1.0340 -0.0215  1.3587
 3004TIP3   OH230646   1.783   2.556   1.814 -0.4464  0.5957  0.1769
 3004TIP3    H130647   1.723   2.534   1.885 -1.7671 -0.0374 -1.0961
 3004TIP3    H230648   1.778   2.481   1.754 -3.1989  3.1123 -3.0870
 3005TIP3   OH230649   3.570   1.990   7.799  0.6287 -0.6095 -0.1040
 3005TIP3    H130650   3.559   2.084   7.787  2.4927 -0.1574  1.2417
 3005TIP3    H230651   3.626   1.963   7.726  1.4716 -0.3346  0.4310
 3006TIP3   OH230652   0.884   1.659   2.545 -0.2172 -0.2171 -0.1642
 3006TIP3    H130653   0.815   1.646   2.479 -0.5120  0.7654 -0.0676
 3006TIP3    H230654   0.915   1.571   2.565  0.5099 -0.5020 -2.2709
 3007TIP3   OH230655   5.970   5.730   7.107 -0.3266  0.2831 -0.2435
 3007TIP3    H130656   6.005   5.797   7.048  0.0632  0.2696 -0.0315
 3007TIP3    H230657   6.041   5.666   7.116 -0.4887  0.1359  0.0100
 3008TIP3   OH230658   1.718   6.659   7.416  0.3414 -0.2244  0.6640
 3008TIP3    H130659   1.727   6.592   7.484 -0.9398  0.6854  1.7642
 3008TIP3    H230660   1.730   6.610   7.334 -0.6669 -1.8479  1.4237
 3009TIP3   OH230661   4.771   4.983   1.658  0.1668  0.1278  0.0915
 3009TIP3    H130662   4.688   4.950   1.625  0.0828 -0.8112  1.1626
 3009TIP3    H230663   4.793   5.056   1.601 -0.8873 -0.2548 -0.8282
 3010TIP3   OH230664   3.870   0.447   8.407  0.4094  0.3294  0.0523
 3010TIP3    H130665   3.807   0.375   8.412  0.0987  0.5093 -0.9402
 3010TIP3    H230666   3.956   0.404   8.403  0.2223  0.0015 -0.5726
 3011TIP3   OH230667   4.564   5.316   0.744 -0.3556  0.3078  0.3121
 3011TIP3    H130668   4.552   5.349   0.655 -2.1351  0.2751  0.4896
 3011TIP3    H230669   4.545   5.390   0.800  1.5084  0.5353  0.7013
 3012TIP3   OH230670   6.093   1.958   1.191 -0.5823 -0.2020 -0.4152
 3012TIP3    H130671   6.186   1.957   1.168 -0.8120  0.6786 -1.5005
 3012TIP3    H230672   6.076   1.872   1.228  1.0443  0.1992  1.4040
 3013TIP3   OH230673   2.573   0.238   7.545 -0.2541 -0.0157  0.3070
 3013TIP3    H130674   2.561   0.257   7.452  1.0867  0.1755  0.1558
 3013TIP3    H230675   2.530   0.311   7.590 -1.8694 -0.6737 -0.1228
 3014TIP3   OH230676   3.328   0.848   7.397  0.0824  0.2462  0.2372
 3014TIP3    H130677   3.288   0.855   7.311 -0.3743 -1.2767  0.2847
 3014TIP3    H230678   3.423   0.849   7.381  0.0314  1.8434 -0.0742
 3015TIP3   OH230679   5.686   1.738   1.274  0.0811  0.7745  0.3612
 3015TIP3    H130680   5.749   1.807   1.296  1.2154 -0.5680  1.4756
 3015TIP3    H230681   5.739   1.661   1.255 -1.1508  0.2460 -1.1701
 3016TIP3   OH230682   4.779   2.815   0.720  0.0064  0.0705  0.3009
 3016TIP3    H130683   4.873   2.808   0.737  0.1742 -0.2966 -0.6832
 3016TIP3    H230684   4.746   2.871   0.790  0.5437 -1.7073  2.0715
 3017TIP3   OH230685   2.892   6.457   1.431  0.0015 -0.5421 -0.0448
 3017TIP3    H130686   2.930   6.371   1.414  1.1404 -0.2219  0.8004
 3017TIP3    H230687   2.955   6.519   1.395 -0.8723 -0.0434 -0.7674
 3018TIP3   OH230688   2.446   6.037   7.407 -0.6960  0.1733 -0.4913
 3018TIP3    H130689   2.467   6.127   7.383 -1.7719  1.2284  2.0902
 3018TIP3    H230690   2.398   6.003   7.332 -1.5344  2.2726 -0.9900
 3019TIP3   OH230691   0.902   5.053   2.414  0.0571 -0.0189  0.1241
 3019TIP3    H130692   0.958   5.036   2.339 -0.8354  2.0364 -1.0698
 3019TIP3    H230693   0.958   5.037   2.490  1.2519 -1.1964 -0.9652
 3020TIP3   OH230694   4.515   0.562   1.668 -0.2525  0.4840  0.3072
 3020TIP3    H130695   4.423   0.535   1.678 -0.5128  1.0332 -0.4228
 3020TIP3    H230696   4.551   0.560   1.756 -0.6815 -0.7114  0.4776
 3021TIP3   OH230697   6.374   1.675   7.532  0.1713  0.5449 -0.6466
 3021TIP3    H130698   6.316   1.632   7.469 -3.0294  1.6257  1.3151
 3021TIP3    H230699   6.365   1.768   7.513  0.2589  0.7949  0.4823
 3022TIP3   OH230700   1.656   5.388   0.199  0.3287 -0.1789  0.3846
 3022TIP3    H130701   1.611   5.472   0.208  0.3983 -0.1420  0.3795
 3022TIP3    H230702   1.686   5.367   0.287  0.3084 -0.2009  0.3866
 3023TIP3   OH230703   0.921   1.545   1.045  0.3064  0.1307 -0.6424
 3023TIP3    H130704   0.915   1.451   1.027 -0.4346  0.5043 -2.6800
 3023TIP3    H230705   1.013   1.567   1.029  0.2977 -0.1112 -1.0313
 3024TIP3   OH230706   2.348   4.523   1.692  0.6082  0.1043  0.6886
 3024TIP3    H130707   2.416   4.587   1.670 -1.1171  1.0091 -2.8132
 3024TIP3    H230708   2.267   4.574   1.697 -0.1263 -1.1529  3.0925
 3025TIP3   OH230709   3.962   1.169   7.427 -0.0920 -0.3208  0.2934
 3025TIP3    H130710   3.977   1.206   7.514 -1.5724  1.2220 -0.0454
 3025TIP3    H230711   3.943   1.245   7.372  1.1142 -1.2375 -1.4771
 3026TIP3   OH230712   5.082   1.205   0.147 -1.0373 -0.6670  0.5313
 3026TIP3    H130713   5.143   1.208   0.073 -0.2674 -1.9874  1.0659
 3026TIP3    H230714   5.054   1.113   0.151  0.6988 -1.1764  3.1998
 3027TIP3   OH230715   5.431   6.470   1.365 -0.2941 -0.6637  0.1120
 3027TIP3    H130716   5.369   6.510   1.304  1.3998 -1.6763 -2.4524
 3027TIP3    H230717   5.517   6.488   1.326  0.7459 -3.4055  0.9130
 3028TIP3   OH230718   1.242   2.759   0.781  0.5088  0.0639 -0.0271
 3028TIP3    H130719   1.306   2.822   0.749  1.5646 -0.3545  1.1701
 3028TIP3    H230720   1.288   2.712   0.851 -0.9160 -0.6633  0.4517
 3029TIP3   OH230721   5.863   6.721   1.255 -0.9270  0.5426 -0.1236
 3029TIP3    H130722   5.892   6.769   1.332  0.8970  0.6619 -0.8448
 3029TIP3    H230723   5.824   6.787   1.198 -0.5832  0.7809 -0.0865
 3030TIP3   OH230724   6.052   6.663   7.638  0.6842 -0.0372 -0.2637
 3030TIP3    H130725   6.020   6.587   7.688 -0.1495 -0.0369 -0.7667
 3030TIP3    H230726   6.077   6.627   7.554 -0.4507  0.3397 -0.7852
 3031TIP3   OH230727   1.489   4.357   0.544  0.6115  0.4270 -0.6262
 3031TIP3    H130728   1.407   4.392   0.509 -0.0265 -1.6875 -1.4148
 3031TIP3    H230729   1.467   4.331   0.633  0.5415  0.2848 -0.6839
 3032TIP3   OH230730   2.163   4.890   7.330 -0.8126 -0.5361  0.0553
 3032TIP3    H130731   2.226   4.880   7.401 -0.8777 -0.1731  0.1641
 3032TIP3    H230732   2.216   4.911   7.253 -0.5802 -2.4456 -0.3755
 3033TIP3   OH230733   2.074   1.873   7.515 -0.1207 -0.2291  0.0263
 3033TIP3    H130734   2.167   1.872   7.538  0.2162 -2.2003 -1.2207
 3033TIP3    H230735   2.073   1.890   7.420 -1.1891  1.9241  0.3496
 3034TIP3   OH230736   5.853   4.803   0.775 -0.4656  0.1378 -0.1067
 3034TIP3    H130737   5.865   4.808   0.870 -0.6147  0.0567 -0.0838
 3034TIP3    H230738   5.871   4.892   0.745 -0.6488  0.2208  0.0250
 3035TIP3   OH230739   4.043   5.772   8.182  0.0587 -0.3966 -0.0301
 3035TIP3    H130740   4.073   5.862   8.186  1.7915 -0.9937  1.4606
 3035TIP3    H230741   3.952   5.778   8.152 -0.9920  2.1080  3.0871
 3036TIP3   OH230742   4.645   2.683   1.670  0.0310  0.5228 -0.0372
 3036TIP3    H130743   4.671   2.774   1.683  0.9595  0.0567  1.7201
 3036TIP3    H230744   4.698   2.653   1.596 -0.2432  1.3748 -0.5951
 3037TIP3   OH230745   0.600   5.958   7.054  0.3519  0.1600 -0.1300
 3037TIP3    H130746   0.527   5.981   6.995  0.4536  0.8311 -0.0076
 3037TIP3    H230747   0.562   5.897   7.117  0.3103 -0.8094 -1.0600
 3038TIP3   OH230748   4.161   2.829   7.051 -0.6286 -0.4302 -0.4459
 3038TIP3    H130749   4.249   2.803   7.080 -0.2938  2.0451  1.0538
 3038TIP3    H230750   4.113   2.843   7.132 -1.1921  1.9656 -1.1108
 3039TIP3   OH230751   1.311   6.592   1.870 -0.1117 -0.1492 -0.6310
 3039TIP3    H130752   1.281   6.683   1.873  1.6190  0.4764 -1.1599
 3039TIP3    H230753   1.401   6.597   1.837 -0.7773 -2.2376 -3.1006
 3040TIP3   OH230754   1.971   5.800   2.150 -0.0163  0.3509  0.7746
 3040TIP3    H130755   2.061   5.816   2.121 -0.6150  1.2900 -0.6613
 3040TIP3    H230756   1.955   5.869   2.215  0.1591  0.4710  0.6919
 3041TIP3   OH230757   3.537   2.384   1.206  0.1327  0.2076  0.0977
 3041TIP3    H130758   3.604   2.354   1.268  0.0414 -0.4057 -0.1005
 3041TIP3    H230759   3.506   2.467   1.244  0.9105  0.4323  0.2547
 3042TIP3   OH230760   0.976   4.712   6.893  0.7001  0.5138 -0.7038
 3042TIP3    H130761   1.003   4.633   6.941  1.7690  0.3670 -1.5042
 3042TIP3    H230762   0.881   4.711   6.897  0.7174 -0.3772 -0.0029
 3043TIP3   OH230763   2.694   5.250   1.888  0.2309 -0.0150 -0.2597
 3043TIP3    H130764   2.763   5.253   1.955 -0.2748  1.0984  0.2317
 3043TIP3    H230765   2.681   5.341   1.862  1.4381 -0.5154 -2.9874
 3044TIP3   OH230766   1.801   5.152   8.018 -0.3748 -0.2660 -0.1180
 3044TIP3    H130767   1.862   5.188   7.953 -1.0635  0.8182 -0.1896
 3044TIP3    H230768   1.832   5.063   8.033  1.2116  0.2344 -0.1781
 3045TIP3   OH230769   1.917   0.683   2.018  0.0828 -0.0199  0.3358
 3045TIP3    H130770   1.838   0.661   2.067  0.0522  3.2767  2.0276
 3045TIP3    H230771   1.989   0.662   2.078  0.1580  1.9401  0.9893
 3046TIP3   OH230772   4.162   3.299   1.680 -0.7989 -0.1369 -0.0481
 3046TIP3    H130773   4.128   3.209   1.676 -0.8061 -0.1071 -1.6614
 3046TIP3    H230774   4.084   3.354   1.675 -0.7695 -0.0316  0.5728
 3047TIP3   OH230775   1.452   0.555   1.052  0.8080  0.6889 -0.8596
 3047TIP3    H130776   1.427   0.597   0.970  0.0147 -0.7209 -1.3591
 3047TIP3    H230777   1.536   0.514   1.034  0.6403  0.3909 -0.9701
 3048TIP3   OH230778   5.548   3.785   7.014  0.3082 -0.3565 -0.7214
 3048TIP3    H130779   5.593   3.762   7.095  0.2012 -0.2555 -0.6335
 3048TIP3    H230780   5.509   3.703   6.984  0.8369 -0.5159 -0.9760
 3049TIP3   OH230781   4.371   4.544   0.791 -0.1334 -0.1342  0.3084
 3049TIP3    H130782   4.307   4.525   0.860  0.6211  0.1974  1.1073
 3049TIP3    H230783   4.372   4.465   0.738  0.5483 -1.0918  1.6920
 3050TIP3   OH230784   3.211   3.725   7.503 -0.2153 -0.0501  0.0962
 3050TIP3    H130785   3.206   3.733   7.408  0.0986 -0.8938  0.0015
 3050TIP3    H230786   3.133   3.770   7.535 -1.7346 -2.0025 -0.6846
 3051TIP3   OH230787   1.373   2.222   8.292  0.0528  0.1124 -0.0984
 3051TIP3    H130788   1.430   2.226   8.215  3.0323 -0.0697  1.9641
 3051TIP3    H230789   1.357   2.128   8.305  0.7496  0.0528  0.3322
 3052TIP3   OH230790   3.275   4.523   0.989 -0.3551 -0.8216 -0.0717
 3052TIP3    H130791   3.270   4.492   0.899 -0.9176  1.7357 -1.0031
 3052TIP3    H230792   3.368   4.525   1.010 -0.1357 -0.2956 -1.0551
 3053TIP3   OH230793   2.712   2.915   1.727 -0.3297  0.3286 -0.3099
 3053TIP3    H130794   2.632   2.959   1.699 -0.4039 -0.4881 -1.4409
 3053TIP3    H230795   2.718   2.837   1.673  0.9642  0.0912  0.1148
 3054TIP3   OH230796   0.078   6.890   7.412 -1.1237 -0.0850  0.3674
 3054TIP3    H130797   0.101   6.819   7.352 -0.6802  0.6032 -0.2995
 3054TIP3    H230798   0.059   6.964   7.355 -2.9532 -0.0209  0.9905
 3055TIP3   OH230799   1.395   6.202   8.104  0.1869  0.4646 -0.4078
 3055TIP3    H130800   1.474   6.235   8.147  0.3717 -0.2856 -0.1602
 3055TIP3    H230801   1.327   6.207   8.171  0.1064  0.7878 -0.5141
 3056TIP3   OH230802   1.287   1.936   8.356 -0.4395  0.0005  0.2828
 3056TIP3    H130803   1.370   1.941   8.308 -0.9797  0.5175 -0.6188
 3056TIP3    H230804   1.294   1.855   8.407  0.3620 -0.2992 -0.2823
 3057TIP3   OH230805   3.517   2.970   7.105  0.4445 -0.6105 -0.4287
 3057TIP3    H130806   3.461   2.896   7.125  0.1046 -0.5196 -1.0030
 3057TIP3    H230807   3.551   2.999   7.189 -0.8839 -0.2623  0.0026
 3058TIP3   OH230808   2.081   4.236   2.749 -0.0557  0.0113 -0.1630
 3058TIP3    H130809   1.999   4.253   2.702 -0.6386 -0.6732  0.5818
 3058TIP3    H230810   2.082   4.141   2.762  1.0530 -0.0385 -0.4945
 3059TIP3   OH230811   1.421   0.067   6.245  0.2490  0.1263  0.0837
 3059TIP3    H130812   1.412   0.104   6.332  0.2700 -0.2906  0.2625
 3059TIP3    H230813   1.332   0.067   6.209 -0.5511 -3.4391  1.6207
 3060TIP3   OH230814   6.230   1.916   7.076  0.2735 -0.5287 -0.3180
 3060TIP3    H130815   6.278   1.846   7.121 -0.3273 -0.2682  0.7598
 3060TIP3    H230816   6.242   1.992   7.132 -0.4997 -0.1942 -0.6000
 3061TIP3   OH230817   3.825   6.102   0.759  0.3630  0.3145  0.4777
 3061TIP3    H130818   3.857   6.178   0.808  0.0449  0.4920  0.4137
 3061TIP3    H230819   3.880   6.100   0.680  0.0829  0.7419  0.2665
 3062TIP3   OH230820   5.790   1.929   0.744  0.1001 -0.0722  0.3584
 3062TIP3    H130821   5.788   1.913   0.838  1.5014  0.3392  0.4775
 3062TIP3    H230822   5.700   1.914   0.715 -0.1861 -0.9363  1.6340
 3063TIP3   OH230823   0.988   1.711   7.382 -0.0234 -0.1607 -0.1702
 3063TIP3    H130824   0.964   1.741   7.294 -0.5444 -0.9131 -0.2897
 3063TIP3    H230825   1.068   1.661   7.369  0.3057  0.3474 -0.1100
 3064TIP3   OH230826   4.071   2.352   2.265  0.1125  0.5391  0.4483
 3064TIP3    H130827   3.986   2.386   2.236  0.8051  0.9965 -1.1778
 3064TIP3    H230828   4.107   2.309   2.187  1.2361  0.0481  1.2115
 3065TIP3   OH230829   1.348   2.094   1.485  0.7833 -0.4608  0.5525
 3065TIP3    H130830   1.303   2.051   1.413  1.4063 -1.1231  0.5495
 3065TIP3    H230831   1.319   2.185   1.481 -0.5425 -0.8643  0.5457
 3066TIP3   OH230832   1.972   0.580   0.242  0.5894  0.4579 -0.5031
 3066TIP3    H130833   1.885   0.589   0.202  1.3017  1.0616 -1.9607
 3066TIP3    H230834   1.986   0.485   0.246  0.4527  0.3733 -1.6216
 3067TIP3   OH230835   2.740   3.923   7.956 -0.3621  0.0038 -0.2165
 3067TIP3    H130836   2.813   3.981   7.934 -0.4568 -0.1084 -0.8596
 3067TIP3    H230837   2.666   3.982   7.970 -0.0674  0.1431  0.8171
 3068TIP3   OH230838   5.517   6.404   8.595  0.1749 -0.0280  0.2592
 3068TIP3    H130839   5.490   6.359   8.514  1.2161  0.6810 -0.5135
 3068TIP3    H230840   5.596   6.358   8.622 -0.0595 -0.1320  0.7682
 3069TIP3   OH230841   3.417   0.055   2.249  0.9332  0.3957  0.3267
 3069TIP3    H130842   3.383  -0.012   2.189  0.8558  0.0885  0.7070
 3069TIP3    H230843   3.482   0.103   2.197  1.8843 -0.7606  0.3942
 3070TIP3   OH230844   3.425   0.685   1.810  0.5583 -0.3576 -0.1715
 3070TIP3    H130845   3.496   0.712   1.868  0.9547  1.2667 -1.3234
 3070TIP3    H230846   3.468   0.632   1.742  0.7383  0.7321 -0.9408
 3071TIP3   OH230847   4.107   1.051   0.768 -0.2160  0.4250  0.3220
 3071TIP3    H130848   4.037   1.004   0.723  0.8135  0.9956 -1.9933
 3071TIP3    H230849   4.103   1.140   0.733  0.4263  1.0137  1.6466
 3072TIP3   OH230850   6.785   4.290   8.152  0.1613  0.7911 -0.1580
 3072TIP3    H130851   6.787   4.247   8.067  1.2686 -0.0296  0.2550
 3072TIP3    H230852   6.862   4.256   8.198 -0.9554  0.4413  1.5418
 3073TIP3   OH230853   3.201   3.927   0.742  0.3208 -0.9059  0.2279
 3073TIP3    H130854   3.123   3.951   0.692  0.7284 -0.7824 -0.3590
 3073TIP3    H230855   3.225   4.008   0.788  0.8379 -0.5901 -0.5903
 3074TIP3   OH230856   6.501   5.303   7.202 -0.4476  0.6216 -0.2165
 3074TIP3    H130857   6.574   5.313   7.141  1.3330 -0.2280  1.6555
 3074TIP3    H230858   6.507   5.212   7.232 -1.6378  0.8308  0.7663
 3075TIP3   OH230859   3.550   1.719   1.040  0.2893 -0.4466  0.3041
 3075TIP3    H130860   3.572   1.773   0.964 -1.7818  0.8377  0.5367
 3075TIP3    H230861   3.532   1.781   1.110 -3.7962 -1.1527  0.1619
 3076TIP3   OH230862   4.275   0.822   7.653 -0.0804 -0.1098  0.2351
 3076TIP3    H130863   4.291   0.869   7.734  0.5820 -1.7777  1.1376
 3076TIP3    H230864   4.321   0.738   7.664  0.8419 -0.0328 -2.2348
 3077TIP3   OH230865   4.061   3.636   7.813  0.0300  0.1410 -0.5624
 3077TIP3    H130866   4.074   3.543   7.828  0.7296  0.1884 -0.8043
 3077TIP3    H230867   4.113   3.679   7.882  0.0705  0.3490 -0.7190
 3078TIP3   OH230868   5.569   5.676   1.622 -0.2060 -0.3738  0.0475
 3078TIP3    H130869   5.568   5.641   1.711 -0.5383 -0.8602 -0.1425
 3078TIP3    H230870   5.580   5.770   1.633 -0.4902 -0.4070  0.6099
 3079TIP3   OH230871   0.313   1.107   8.543 -0.0493  0.0617  0.1265
 3079TIP3    H130872   0.293   1.016   8.520 -0.3893 -0.1554  1.2271
 3079TIP3    H230873   0.320   1.152   8.458 -1.5556 -0.6315 -0.3969
 3080TIP3   OH230874   3.737   4.322   1.383 -0.3015 -0.2413  0.0376
 3080TIP3    H130875   3.706   4.310   1.293  3.9013 -0.0877 -1.6551
 3080TIP3    H230876   3.744   4.234   1.418 -1.2840 -0.3491 -0.0127
 3081TIP3   OH230877   5.572   3.429   6.806  0.1846 -0.1628  0.0875
 3081TIP3    H130878   5.650   3.375   6.819 -0.4903 -1.3369 -0.5165
 3081TIP3    H230879   5.515   3.375   6.751 -1.5752  0.1401  1.5333
 3082TIP3   OH230880   4.810   5.645   3.235 -0.2457  0.0302  0.5996
 3082TIP3    H130881   4.739   5.638   3.172 -0.0147 -2.1114  0.5042
 3082TIP3    H230882   4.861   5.721   3.206 -2.1922  1.3366  0.4263
 3083TIP3   OH230883   1.986   5.697   6.690 -0.1286 -0.1253 -0.0174
 3083TIP3    H130884   2.066   5.710   6.640 -1.0905 -0.8375 -1.8114
 3083TIP3    H230885   1.931   5.772   6.669 -1.5791 -1.6842 -2.2212
 3084TIP3   OH230886   1.435   1.067   8.050  0.1248 -0.5620  0.0333
 3084TIP3    H130887   1.448   0.991   7.993  1.5223 -0.9646  0.8178
 3084TIP3    H230888   1.520   1.079   8.093 -0.0733  1.4617 -0.0640
 3085TIP3   OH230889   5.519   6.196   1.695  0.1201  0.7350  0.1860
 3085TIP3    H130890   5.453   6.239   1.749 -0.0727 -0.2302  0.7490
 3085TIP3    H230891   5.480   6.194   1.607 -0.5755  0.2796  0.4876
 3086TIP3   OH230892   5.358   4.114   0.934  0.5099  0.5469 -0.0692
 3086TIP3    H130893   5.354   4.168   0.855 -1.0318  1.4808  0.6067
 3086TIP3    H230894   5.377   4.176   1.004  0.1954 -0.0085  0.5198
 3087TIP3   OH230895   0.671   4.906   2.442  0.2576 -0.3299 -0.4695
 3087TIP3    H130896   0.597   4.960   2.415 -0.8951 -1.5715  0.0747
 3087TIP3    H230897   0.748   4.957   2.419 -0.7577  1.8342  0.6250
 3088TIP3   OH230898   3.135   1.747   0.866  0.1794 -0.5114  0.5476
 3088TIP3    H130899   3.043   1.763   0.883 -0.1824 -1.9786  0.1133
 3088TIP3    H230900   3.152   1.791   0.783  0.2125  0.8327  1.2460
 3089TIP3   OH230901   0.526   0.699   7.847 -0.5913  0.4628  0.3847
 3089TIP3    H130902   0.543   0.613   7.887  0.2786  0.9367  1.0676
 3089TIP3    H230903   0.594   0.708   7.781  0.8679  1.6410  1.9651
 3090TIP3   OH230904   4.847   6.720   3.104 -0.1773 -0.3662  0.7519
 3090TIP3    H130905   4.838   6.811   3.076 -0.5836 -0.1806  1.4382
 3090TIP3    H230906   4.825   6.668   3.027 -2.6072  0.1122  1.0405
 3091TIP3   OH230907   1.103   2.494   8.602  0.4491 -0.1423 -0.1566
 3091TIP3    H130908   1.064   2.461   8.683  1.7887 -0.0443  0.5495
 3091TIP3    H230909   1.109   2.418   8.545  0.4541 -0.4302  0.2254
 3092TIP3   OH230910   4.595   4.444   0.019  0.3358 -0.0008  0.5758
 3092TIP3    H130911   4.517   4.404  -0.019  1.4320 -2.3533  0.6328
 3092TIP3    H230912   4.638   4.489  -0.054 -0.2304 -0.0565  0.2018
 3093TIP3   OH230913   2.942   2.472   2.141 -0.2472  0.6427  0.2923
 3093TIP3    H130914   2.917   2.543   2.083 -0.7305 -1.3683 -2.1275
 3093TIP3    H230915   3.011   2.509   2.196  1.9322  2.1017 -3.0913
 3094TIP3   OH230916   6.759   5.576   7.240 -0.1279 -0.7293  0.0949
 3094TIP3    H130917   6.726   5.661   7.209  1.5028 -0.5350 -1.2489
 3094TIP3    H230918   6.832   5.599   7.298 -1.1090 -1.2007  1.5961
 3095TIP3   OH230919   1.126   1.870   7.562  0.4300  0.3233  0.0332
 3095TIP3    H130920   1.144   1.960   7.534  0.2566  0.3756  0.0923
 3095TIP3    H230921   1.054   1.841   7.505 -0.7997  0.8645  1.2715
 3096TIP3   OH230922   3.384   1.431   7.048 -0.3211  0.3015  0.0269
 3096TIP3    H130923   3.415   1.357   7.100  0.5821  0.2879 -0.5147
 3096TIP3    H230924   3.349   1.391   6.968  0.1068  0.4521 -0.2362
 3097TIP3   OH230925   1.723   6.484   7.216  0.4269  0.6489 -0.3558
 3097TIP3    H130926   1.746   6.398   7.251 -0.0979  0.6990  0.1318
 3097TIP3    H230927   1.705   6.468   7.123 -0.4013  0.0913 -0.1116
 3098TIP3   OH230928   4.033   0.664   1.201  0.0932 -0.1756 -0.5861
 3098TIP3    H130929   4.094   0.651   1.274 -2.6945 -0.2852  1.9449
 3098TIP3    H230930   4.032   0.758   1.187  1.0764 -0.2029 -0.9475
 3099TIP3   OH230931   4.049   4.980   6.834 -0.0136 -0.6339 -0.7970
 3099TIP3    H130932   3.984   4.980   6.764  1.5638  0.4014 -2.3193
 3099TIP3    H230933   4.086   5.068   6.833  0.4923 -0.7879  0.9561
 3100TIP3   OH230934   4.885   6.569   2.064 -0.3849  0.0540  0.0660
 3100TIP3    H130935   4.834   6.597   2.141 -0.5611 -0.8915  0.3034
 3100TIP3    H230936   4.914   6.481   2.086  2.4387  0.9918  0.4683
 3101TIP3   OH230937   0.860   5.343   7.022  0.4838 -0.0258 -0.1855
 3101TIP3    H130938   0.848   5.354   6.928 -0.4554  1.1731  0.0447
 3101TIP3    H230939   0.944   5.298   7.031  0.8215  0.2922 -1.5787
 3102TIP3   OH230940   1.701   5.742   7.661 -0.5851  0.0671 -0.3199
 3102TIP3    H130941   1.632   5.681   7.687 -1.2027  0.2335 -1.5082
 3102TIP3    H230942   1.721   5.792   7.740 -3.3885  1.5412 -0.4433
 3103TIP3   OH230943   3.448   3.978   8.020  0.4883 -0.2590  0.3073
 3103TIP3    H130944   3.376   3.966   7.958  1.2321 -1.4863 -0.3528
 3103TIP3    H230945   3.474   3.889   8.045  1.0790  0.1875  1.3545
 3104TIP3   OH230946   5.404   5.880   0.784 -0.8302 -0.5275  0.5866
 3104TIP3    H130947   5.334   5.942   0.801 -1.1525 -1.1747  1.7251
 3104TIP3    H230948   5.395   5.859   0.691 -1.6879 -0.0566  0.5518
 3105TIP3   OH230949   1.177   0.384   0.890  0.3847 -0.1280 -0.2428
 3105TIP3    H130950   1.165   0.292   0.866 -0.9414  0.3171 -1.3803
 3105TIP3    H230951   1.111   0.400   0.957  0.0596  0.1952 -0.6340
 3106TIP3   OH230952   4.718   2.925   0.384 -0.1607  0.0532  0.7078
 3106TIP3    H130953   4.754   3.011   0.408 -1.0595  0.4268  0.7425
 3106TIP3    H230954   4.755   2.865   0.449  2.7143 -0.1149 -0.9199
 3107TIP3   OH230955   2.925   0.819   7.662  0.1115  0.2789  0.1505
 3107TIP3    H130956   2.838   0.796   7.629  0.4472  2.9131 -3.0559
 3107TIP3    H230957   2.953   0.742   7.711 -2.3439 -2.3205 -2.1838
 3108TIP3   OH230958   3.813   2.210   1.813  0.5508 -0.1260 -0.7234
 3108TIP3    H130959   3.812   2.187   1.906  0.0539  1.6967 -0.2310
 3108TIP3    H230960   3.724   2.191   1.783  0.5433 -0.1495 -0.6865
 3109TIP3   OH230961   4.212   5.539   2.555  0.5271  0.3262  0.1418
 3109TIP3    H130962   4.192   5.446   2.549  2.5304 -0.0983 -1.1256
 3109TIP3    H230963   4.288   5.544   2.613  0.3332  1.1943  0.3423
 3110TIP3   OH230964   5.477   3.147   1.796  0.1917 -0.0088  0.4745
 3110TIP3    H130965   5.554   3.124   1.848 -0.1523  2.2782  2.1802
 3110TIP3    H230966   5.407   3.160   1.861 -0.6643  1.4695 -0.6707
 3111TIP3   OH230967   6.839   0.985   1.646  0.6684  0.2825 -0.3228
 3111TIP3    H130968   6.864   0.943   1.564 -2.3475  2.1046 -2.4118
 3111TIP3    H230969   6.813   0.914   1.703  1.5894 -0.9782 -1.4190
 3112TIP3   OH230970   4.662   1.808   1.697  0.0042 -0.4895  0.7853
 3112TIP3    H130971   4.741   1.784   1.745  0.3149 -0.6999  0.1768
 3112TIP3    H230972   4.652   1.739   1.631  0.6276  0.7320 -0.6637
 3113TIP3   OH230973   4.123   0.442   7.890  0.0181 -0.1290 -0.0431
 3113TIP3    H130974   4.110   0.402   7.804  1.8445  0.0946 -0.4691
 3113TIP3    H230975   4.077   0.384   7.951 -1.8132  0.0181 -1.1872
 3114TIP3   OH230976   0.997   4.323   1.138  0.2723  0.3995 -0.2077
 3114TIP3    H130977   1.087   4.290   1.147 -0.3646 -1.1293  1.1233
 3114TIP3    H230978   1.002   4.414   1.166  1.1937 -0.0500  1.2324
 3115TIP3   OH230979   5.237   6.498   3.063 -0.1114  0.6339 -0.1000
 3115TIP3    H130980   5.223   6.403   3.064  1.3788  0.3579  2.3742
 3115TIP3    H230981   5.190   6.530   3.140  1.1066  1.5999  0.2672
 3116TIP3   OH230982   3.054   0.468   7.169 -0.3429 -0.6529 -1.1344
 3116TIP3    H130983   3.007   0.413   7.233 -0.1025 -0.5044 -0.8246
 3116TIP3    H230984   3.146   0.445   7.181 -0.2669 -0.3884 -1.2014
 3117TIP3   OH230985   2.680   3.734   8.166 -0.0769  0.4810 -0.5368
 3117TIP3    H130986   2.709   3.774   8.248  2.6160 -1.3846 -0.4611
 3117TIP3    H230987   2.718   3.789   8.097  0.9805 -0.1391 -0.4633
 3118TIP3   OH230988   3.122   2.490   1.313 -0.1775 -0.0178  0.5082
 3118TIP3    H130989   3.185   2.503   1.384  1.5910 -2.3581 -0.4868
 3118TIP3    H230990   3.140   2.561   1.251  1.5276 -0.6389  0.2487
 3119TIP3   OH230991   0.947   6.066   2.464 -0.5287 -0.4091 -0.3748
 3119TIP3    H130992   0.968   5.993   2.523 -0.4537  0.1879  0.3464
 3119TIP3    H230993   0.977   6.037   2.378 -1.8186 -1.8484 -0.3830
 3120TIP3   OH230994   3.251   5.188   0.095 -0.2201 -0.1126 -0.5275
 3120TIP3    H130995   3.337   5.200   0.054 -0.1881 -0.3268 -0.5245
 3120TIP3    H230996   3.252   5.245   0.171  0.1336 -0.5413 -0.2046
 3121TIP3   OH230997   2.790   3.539   0.856  0.1022 -0.0325 -0.2341
 3121TIP3    H130998   2.765   3.502   0.771 -2.7204  1.4489 -0.1773
 3121TIP3    H230999   2.777   3.467   0.918 -0.4083 -0.3998 -0.7517
 3122TIP3   OH231000   2.954   4.753   0.240 -0.2173  0.4471  0.0138
 3122TIP3    H131001   2.936   4.750   0.146  1.6547  0.2539 -0.3809
 3122TIP3    H231002   2.975   4.844   0.258 -2.2245  0.8336  0.6286
 3123TIP3   OH231003   2.363   3.666   0.483 -0.4505  0.2453 -0.3005
 3123TIP3    H131004   2.297   3.736   0.485 -0.6801  0.0064  0.8840
 3123TIP3    H231005   2.313   3.585   0.484 -0.1600  0.0525 -0.8071
 3124TIP3   OH231006   5.491   1.744   7.956 -0.1774 -0.0363 -0.2740
 3124TIP3    H131007   5.490   1.794   8.038 -0.8139 -0.0233 -0.2888
 3124TIP3    H231008   5.584   1.723   7.942 -0.2014 -1.1398  1.1080
 3125TIP3   OH231009   5.521   3.299   1.121  0.6427 -0.0679 -0.5064
 3125TIP3    H131010   5.508   3.211   1.156  1.0322 -0.0562 -0.3267
 3125TIP3    H231011   5.528   3.286   1.026 -0.7839 -0.0572 -0.6315
 3126TIP3   OH231012   3.050   4.508   7.755  0.1396 -0.6395  0.0499
 3126TIP3    H131013   3.108   4.584   7.756  1.2079 -1.4010  2.2870
 3126TIP3    H231014   3.065   4.465   7.839 -1.2007 -2.7665 -0.7123
 3127TIP3   OH231015   3.002   4.531   0.437  0.5290  0.2873 -0.4368
 3127TIP3    H131016   2.978   4.577   0.518 -1.9530 -0.2421 -0.7752
 3127TIP3    H231017   3.027   4.601   0.377 -0.3876  0.9632 -0.0634
 3128TIP3   OH231018   4.073   0.300   1.823 -0.3505 -0.3415 -0.1322
 3128TIP3    H131019   4.124   0.233   1.779  2.3340  1.3289  0.1880
 3128TIP3    H231020   4.137   0.350   1.874 -2.5312  1.0985  1.4248
 3129TIP3   OH231021   2.345   3.161   0.397  0.3804 -0.0643  0.2037
 3129TIP3    H131022   2.290   3.172   0.474  1.9236  3.0945  1.0263
 3129TIP3    H231023   2.286   3.176   0.323 -0.7375 -1.3683  0.7693
 3130TIP3   OH231024   0.448   0.031   6.460  0.0681  0.3238  0.4059
 3130TIP3    H131025   0.480   0.082   6.534 -1.6085 -1.9027  2.8636
 3130TIP3    H231026   0.363   0.070   6.439 -0.6864 -0.6112  1.5318
 3131TIP3   OH231027   0.191   3.549   0.964  0.1811  0.1428 -0.1685
 3131TIP3    H131028   0.214   3.467   0.920  0.7189  0.2927 -0.1753
 3131TIP3    H231029   0.186   3.613   0.894 -0.0688  0.1547 -0.1415
 3132TIP3   OH231030   2.439   5.236   1.056  0.6541  0.1101 -0.2449
 3132TIP3    H131031   2.433   5.331   1.066 -1.3795  0.1097 -1.0817
 3132TIP3    H231032   2.431   5.202   1.145  0.0338  0.6770 -0.0805
 3133TIP3   OH231033   0.489   2.249   7.202 -0.2517  0.1684 -0.1272
 3133TIP3    H131034   0.449   2.292   7.277 -0.0665 -0.7126  0.4985
 3133TIP3    H231035   0.422   2.252   7.134 -1.1217 -0.6104  0.6616
 3134TIP3   OH231036   4.006   2.045   0.730 -0.3669 -0.4185 -0.3813
 3134TIP3    H131037   3.989   2.128   0.685 -0.3417 -0.1938  0.0075
 3134TIP3    H231038   4.035   2.072   0.818  0.2750 -0.8276 -0.4630
 3135TIP3   OH231039   4.895   6.546   1.539  0.6327 -0.4293 -0.6009
 3135TIP3    H131040   4.862   6.544   1.629  0.1386  1.7492 -0.6876
 3135TIP3    H231041   4.826   6.504   1.487  0.0470  0.0136 -0.1934
 3136TIP3   OH231042   1.535   2.381   8.532 -0.1438 -0.4063 -0.1384
 3136TIP3    H131043   1.495   2.328   8.463 -0.3513  0.6248 -0.8377
 3136TIP3    H231044   1.609   2.329   8.562 -0.2061 -1.0007 -0.9646
 3137TIP3   OH231045   5.838   4.861   1.465  0.1389  0.1861 -0.1139
 3137TIP3    H131046   5.886   4.856   1.382 -1.0556  1.4838 -0.9199
 3137TIP3    H231047   5.832   4.955   1.483 -1.9519  0.0594  0.0291
 3138TIP3   OH231048   0.942   6.388   7.941  0.4237  0.0981 -0.0149
 3138TIP3    H131049   0.957   6.443   7.864  1.2688 -0.1303 -0.0227
 3138TIP3    H231050   0.953   6.299   7.909  1.4438  0.0288  0.5079
 3139TIP3   OH231051   1.244   3.937   1.231 -0.0180  0.1775 -0.3600
 3139TIP3    H131052   1.248   4.012   1.172 -0.3218 -0.6966 -1.5373
 3139TIP3    H231053   1.334   3.924   1.260  0.3394 -0.0405 -1.5229
 3140TIP3   OH231054   1.549   2.484   0.889  0.1848  0.5671  0.2099
 3140TIP3    H131055   1.642   2.464   0.887 -0.1124 -0.9415 -1.4664
 3140TIP3    H231056   1.516   2.437   0.966  0.4527 -0.8765 -0.5163
 3141TIP3   OH231057   6.759   1.979   1.362  0.1390  0.1788 -0.6086
 3141TIP3    H131058   6.826   1.995   1.295  0.1888 -0.2837 -0.6751
 3141TIP3    H231059   6.804   1.927   1.429  0.7529  2.6034  0.9560
 3142TIP3   OH231060   6.554   4.141   8.221  0.8528 -0.5256  0.0178
 3142TIP3    H131061   6.632   4.196   8.218  0.2507  0.3912  0.5656
 3142TIP3    H231062   6.507   4.170   8.299 -1.0779  0.4143 -1.4118
 3143TIP3   OH231063   0.813   4.946   7.884  0.2144  0.0510 -0.4525
 3143TIP3    H131064   0.736   4.963   7.830  1.1230  1.9495 -1.2800
 3143TIP3    H231065   0.805   5.007   7.957  0.3947 -0.5073  0.0380
 3144TIP3   OH231066   2.970   5.255   6.861  0.2754 -0.6841  0.4290
 3144TIP3    H131067   2.912   5.330   6.875 -0.0491 -0.7916 -0.2984
 3144TIP3    H231068   3.037   5.287   6.801 -0.0024 -1.0400 -0.0767
 3145TIP3   OH231069   0.285   0.743   7.756  0.7433  0.7475 -0.0893
 3145TIP3    H131070   0.324   0.725   7.670 -0.4739  1.8329 -0.8958
 3145TIP3    H231071   0.360   0.748   7.815  1.5498 -0.8252 -0.9124
 3146TIP3   OH231072   0.966   3.557   1.964 -0.2308 -0.2565 -0.2028
 3146TIP3    H131073   1.038   3.499   1.937  0.7169  0.5793  0.4240
 3146TIP3    H231074   0.946   3.529   2.054 -0.6229 -0.4173 -0.3394
 3147TIP3   OH231075   2.741   5.208   1.133 -0.1898 -0.2635  0.2597
 3147TIP3    H131076   2.742   5.240   1.043 -0.9333 -0.7047  0.0812
 3147TIP3    H231077   2.664   5.151   1.137 -0.3204 -0.0349  1.2516
 3148TIP3   OH231078   5.477   6.075   6.401  0.6193  0.2322 -0.7109
 3148TIP3    H131079   5.499   6.160   6.437  0.1572  0.0848 -0.0462
 3148TIP3    H231080   5.557   6.043   6.360  0.3940  1.6507 -2.3475
 3149TIP3   OH231081   3.989   4.921   1.737 -0.2511  0.4917 -0.3593
 3149TIP3    H131082   3.926   4.865   1.691 -1.6573  1.6896  0.0090
 3149TIP3    H231083   4.031   4.863   1.801 -2.4199  0.0248  0.7453
 3150TIP3   OH231084   1.572   2.538   7.635 -0.7633  0.3482  0.3655
 3150TIP3    H131085   1.608   2.625   7.614 -0.3634  0.2155  0.5027
 3150TIP3    H231086   1.627   2.506   7.707  0.8813 -1.2038 -1.4915
 3151TIP3   OH231087   1.494   5.861   0.551 -0.3128  0.1443 -0.2930
 3151TIP3    H131088   1.399   5.875   0.555 -0.3691 -0.4102  1.3194
 3151TIP3    H231089   1.505   5.767   0.562  0.3867 -0.0001 -2.0534
 3152TIP3   OH231090   3.808   2.539   0.607 -0.2074  0.0361 -0.2644
 3152TIP3    H131091   3.864   2.495   0.672  0.2650  0.5355 -0.3280
 3152TIP3    H231092   3.760   2.468   0.565 -0.0710 -0.3462  0.2162
 3153TIP3   OH231093   4.153   0.920   0.230  0.1653 -0.5285  0.0763
 3153TIP3    H131094   4.155   0.861   0.305  0.1726 -0.4493  0.1389
 3153TIP3    H231095   4.214   0.990   0.253  0.5642 -0.7774 -0.2322
 3154TIP3   OH231096   5.851   0.952   8.417  0.2627 -0.7126  0.1643
 3154TIP3    H131097   5.787   0.921   8.481 -1.7583  1.6304 -0.5731
 3154TIP3    H231098   5.866   1.044   8.441  2.1040 -0.7490 -0.7014
 3155TIP3   OH231099   0.483   3.492   1.076  0.4998 -0.1928 -0.0867
 3155TIP3    H131100   0.436   3.421   1.032  0.1862 -0.5510  0.7952
 3155TIP3    H231101   0.575   3.474   1.059  0.5592 -1.9673  1.7432
 3156TIP3   OH231102   2.024   1.908   8.428  0.7219  0.1382  0.0157
 3156TIP3    H131103   2.002   1.819   8.401  2.0553 -0.0541 -0.4997
 3156TIP3    H231104   1.953   1.933   8.488  0.0022 -1.0257 -0.3207
 3157TIP3   OH231105   1.096   6.701   2.096  0.1383  0.1528 -0.2817
 3157TIP3    H131106   1.126   6.725   2.184 -1.0052 -0.8989  0.4165
 3157TIP3    H231107   1.141   6.763   2.038  2.3191 -0.2675  0.8534
 3158TIP3   OH231108   4.018   4.105   2.633 -0.4250 -0.3231 -0.5934
 3158TIP3    H131109   4.044   4.062   2.715 -1.7599  1.6344  0.9319
 3158TIP3    H231110   3.924   4.089   2.626 -0.6388  0.9503 -0.8318
 3159TIP3   OH231111   4.284   2.515   8.637  0.5370  0.4040  0.6466
 3159TIP3    H131112   4.368   2.558   8.648  0.0854  1.1154  1.4532
 3159TIP3    H231113   4.219   2.584   8.652 -0.1991 -0.1406  0.0961
 3160TIP3   OH231114   2.393   3.890   8.430  0.6657 -0.7890 -0.1502
 3160TIP3    H131115   2.400   3.945   8.509  1.2474  0.0004 -0.7354
 3160TIP3    H231116   2.318   3.834   8.447 -0.6909  0.9697  0.0143
 3161TIP3   OH231117   4.363   0.639   7.261 -0.5757  0.5566 -0.2726
 3161TIP3    H131118   4.372   0.734   7.253 -1.4307  0.7544  0.8643
 3161TIP3    H231119   4.429   0.604   7.202 -0.7688  1.8502 -1.3170
 3162TIP3   OH231120   1.815   3.139   7.336 -0.3572  0.5711  0.3371
 3162TIP3    H131121   1.842   3.183   7.255 -1.4608  1.2275  0.3084
 3162TIP3    H231122   1.897   3.115   7.378  0.2677  1.8915 -0.0772
 3163TIP3   OH231123   3.310   3.124   8.234  0.0337 -0.6870 -0.3324
 3163TIP3    H131124   3.355   3.206   8.218 -2.0945  0.9782  1.4966
 3163TIP3    H231125   3.320   3.109   8.328 -1.6310 -1.1824 -0.1925
 3164TIP3   OH231126   0.909   4.965   6.927  0.8647  0.2386  0.2270
 3164TIP3    H131127   0.879   4.984   6.838  0.6096 -2.5548 -0.3637
 3164TIP3    H231128   0.981   4.903   6.915  2.3955  1.5618  1.9350
 3165TIP3   OH231129   2.559   0.542   1.582  0.7716  1.0819 -0.0750
 3165TIP3    H131130   2.586   0.608   1.518  4.1288  0.0042  0.0474
 3165TIP3    H231131   2.569   0.458   1.537 -0.1475  0.4457  0.8348
 3166TIP3   OH231132   1.767   5.582   1.984  0.2734 -0.1034  0.2402
 3166TIP3    H131133   1.724   5.667   1.996  1.9268  0.6895  0.9169
 3166TIP3    H231134   1.763   5.541   2.071  2.7717  0.9676  0.9492
 3167TIP3   OH231135   5.315   6.538   0.114  0.2429 -0.2558  0.7924
 3167TIP3    H131136   5.376   6.474   0.078 -0.5848 -0.0307 -1.1512
 3167TIP3    H231137   5.354   6.564   0.198  1.4697 -1.9872  0.8146
 3168TIP3   OH231138   0.266   1.482   7.435 -0.0369 -0.7355 -0.0703
 3168TIP3    H131139   0.214   1.487   7.354  1.9520  0.0635 -1.3788
 3168TIP3    H231140   0.253   1.393   7.467 -0.8974 -1.0583 -1.2635
 3169TIP3   OH231141   2.141   0.072   0.851  0.4356  0.2261 -0.6228
 3169TIP3    H131142   2.088   0.111   0.920  1.5225  1.8196 -0.6278
 3169TIP3    H231143   2.206   0.019   0.897 -0.3868 -0.7445 -0.5617
 3170TIP3   OH231144   3.706   3.033   7.769  0.0421  0.1100  0.1262
 3170TIP3    H131145   3.731   3.055   7.679 -1.0525 -2.1878 -0.8171
 3170TIP3    H231146   3.761   2.958   7.791 -0.6908 -0.2203  0.8629
 3171TIP3   OH231147   1.774   0.740   6.478 -0.2061 -0.1954 -0.3077
 3171TIP3    H131148   1.708   0.774   6.418 -1.7571 -0.0239  1.4087
 3171TIP3    H231149   1.776   0.645   6.460  0.9121  0.0980 -2.0231
 3172TIP3   OH231150   5.308   3.879   1.097  0.2912  0.0198 -0.5443
 3172TIP3    H131151   5.340   3.901   1.185  0.2361 -0.2055 -0.4680
 3172TIP3    H231152   5.331   3.955   1.044 -1.4948  1.0516  0.0974
 3173TIP3   OH231153   6.864   5.108   0.063 -0.5814 -0.0076  0.1488
 3173TIP3    H131154   6.924   5.118  -0.011 -1.1612  0.3099 -0.2853
 3173TIP3    H231155   6.820   5.025   0.048 -0.6667  0.0349  0.1630
 3174TIP3   OH231156   4.062   1.420   7.595  0.0027 -0.4976 -0.0874
 3174TIP3    H131157   4.033   1.404   7.685 -0.2800 -0.0571 -0.0935
 3174TIP3    H231158   3.983   1.411   7.543 -0.5371  2.2688  0.0758
 3175TIP3   OH231159   2.140   5.874   7.634  0.0765  0.2550 -0.0111
 3175TIP3    H131160   2.081   5.905   7.566  1.8228 -0.2333 -1.8523
 3175TIP3    H231161   2.191   5.951   7.659 -0.1593  0.3074  0.3073
 3176TIP3   OH231162   2.578   1.299   1.670 -0.4158 -0.0778 -0.6078
 3176TIP3    H131163   2.588   1.204   1.662  0.6671 -0.0428  0.2053
 3176TIP3    H231164   2.665   1.334   1.652 -0.5079  0.6808  0.3625
 3177TIP3   OH231165   5.715   1.023   7.403 -0.2447  0.3889 -0.0209
 3177TIP3    H131166   5.780   1.081   7.443  0.8175 -0.2189 -0.7826
 3177TIP3    H231167   5.692   0.962   7.473 -0.2649  0.8316  0.3633
 3178TIP3   OH231168   2.918   4.131   7.456  0.2063 -0.6539 -0.5075
 3178TIP3    H131169   2.890   4.129   7.364 -0.1535 -3.0893 -0.3937
 3178TIP3    H231170   3.008   4.163   7.452 -1.1057  3.7057 -1.2028
 3179TIP3   OH231171   5.991   4.298   1.397 -0.0541 -0.2535  0.6171
 3179TIP3    H131172   6.013   4.354   1.472  2.0134  0.6542 -0.5741
 3179TIP3    H231173   5.948   4.356   1.335  0.4152 -0.4136  0.1352
 3180TIP3   OH231174   4.756   4.113   7.167  0.1244  0.1836  0.2620
 3180TIP3    H131175   4.781   4.064   7.089  1.6239 -1.3947  1.6422
 3180TIP3    H231176   4.737   4.201   7.135  1.1815 -0.2756 -1.8048
 3181TIP3   OH231177   2.088   4.368   2.015  0.0552  0.2291 -0.0820
 3181TIP3    H131178   2.088   4.288   2.067 -0.9592 -1.1693 -2.0708
 3181TIP3    H231179   1.999   4.403   2.026  0.1360  0.4458 -0.1169
 3182TIP3   OH231180   6.535   5.338   0.111 -0.3367  0.2832 -0.0279
 3182TIP3    H131181   6.602   5.305   0.171 -0.0298 -0.1917 -0.6162
 3182TIP3    H231182   6.584   5.386   0.044 -0.5989  0.1106 -0.3477
 3183TIP3   OH231183   0.753   4.372   1.392  0.2441  0.2815 -0.1543
 3183TIP3    H131184   0.811   4.336   1.325 -0.8388  0.0898 -1.0321
 3183TIP3    H231185   0.699   4.297   1.418 -1.6081  1.0690 -1.5356
 3184TIP3   OH231186   4.362   0.515   2.369  1.0008 -0.7863  0.0092
 3184TIP3    H131187   4.334   0.459   2.442  1.4911 -0.0805  0.7546
 3184TIP3    H231188   4.371   0.601   2.408 -0.9805  0.1280 -1.3701
 3185TIP3   OH231189   1.495   0.150   7.181  0.0892  0.3913 -0.0963
 3185TIP3    H131190   1.453   0.147   7.095  0.1462  3.7084 -0.3795
 3185TIP3    H231191   1.442   0.210   7.232 -0.1471 -1.7882  2.4113
 3186TIP3   OH231192   0.369   3.929   1.490 -0.4175  0.0608 -0.3717
 3186TIP3    H131193   0.413   3.942   1.406 -0.2297 -1.5396 -0.5447
 3186TIP3    H231194   0.367   3.834   1.502 -0.0660  0.2588  1.6219
 3187TIP3   OH231195   3.585   1.363   0.474  0.2391 -0.2633 -0.0782
 3187TIP3    H131196   3.493   1.336   0.482  0.5052 -1.4106 -0.7576
 3187TIP3    H231197   3.596   1.429   0.542 -1.5413  1.1178 -0.9990
 3188TIP3   OH231198   0.744   2.454   1.625  0.1618  0.1635 -0.0053
 3188TIP3    H131199   0.803   2.526   1.650  0.9830 -0.5687  0.2351
 3188TIP3    H231200   0.754   2.447   1.530  0.3235  0.1663  0.0111
 3189TIP3   OH231201   4.886   4.938   0.584  0.1124 -0.4625  0.6880
 3189TIP3    H131202   4.979   4.963   0.587  0.2353 -0.9336  3.1210
 3189TIP3    H231203   4.855   4.952   0.674 -1.9480 -1.1683  0.1368
 3190TIP3   OH231204   0.595   2.183   8.463 -0.3812 -1.0632 -0.1752
 3190TIP3    H131205   0.608   2.179   8.558  1.8725 -1.4781 -0.4439
 3190TIP3    H231206   0.561   2.271   8.447  2.7346  0.4409  0.7374
 3191TIP3   OH231207   1.045   6.663   1.100 -0.0245 -0.0612  0.0864
 3191TIP3    H131208   0.969   6.703   1.058 -0.1811 -0.1021  0.3247
 3191TIP3    H231209   1.120   6.694   1.050 -0.1707  0.2790  0.0769
 3192TIP3   OH231210   5.921   4.540   8.158 -0.4353  0.8618 -0.1575
 3192TIP3    H131211   5.985   4.608   8.177 -0.6813  0.6403  1.7170
 3192TIP3    H231212   5.843   4.587   8.129 -0.5675  1.3944  1.0151
 3193TIP3   OH231213   5.740   2.109   1.147 -0.1022  0.1330 -0.1493
 3193TIP3    H131214   5.651   2.143   1.156 -0.6885 -1.5728  1.0406
 3193TIP3    H231215   5.780   2.123   1.233 -0.4017 -2.1025  0.4348
 3194TIP3   OH231216   2.769   6.598   7.516  0.4572  0.0569  0.0647
 3194TIP3    H131217   2.704   6.585   7.448  0.3869 -1.5423  0.3965
 3194TIP3    H231218   2.807   6.512   7.530  1.5776  0.6623  0.9520
 3195TIP3   OH231219   5.036   2.511   1.585  0.1403 -0.1803  0.1990
 3195TIP3    H131220   4.954   2.509   1.537  1.0922 -1.4270 -1.4679
 3195TIP3    H231221   5.067   2.602   1.576 -0.2391 -0.1213 -0.6009
 3196TIP3   OH231222   1.212   3.691   1.112 -0.3024  0.0556  0.0961
 3196TIP3    H131223   1.202   3.678   1.018  0.1950  1.0006 -0.0981
 3196TIP3    H231224   1.305   3.676   1.129 -0.3846 -0.0822  0.4335
 3197TIP3   OH231225   4.976   1.642   0.694 -0.3573  0.3315  0.3149
 3197TIP3    H131226   5.042   1.700   0.657  0.2573 -0.5210  0.0443
 3197TIP3    H231227   4.905   1.701   0.721  1.1057  1.4204  1.9842
 3198TIP3   OH231228   0.064   6.492   7.150  0.1874 -0.3099 -0.3351
 3198TIP3    H131229   0.159   6.481   7.140  0.5198 -0.2871  2.1644
 3198TIP3    H231230   0.050   6.586   7.141 -0.0897 -0.5423 -3.5601
 3199TIP3   OH231231   4.201   1.708   0.948  0.0541 -0.1931  0.0294
 3199TIP3    H131232   4.236   1.795   0.966 -2.9447  1.1840 -0.2534
 3199TIP3    H231233   4.175   1.674   1.034  0.4738 -0.5085  0.0392
 3200TIP3   OH231234   4.325   1.479   2.260 -0.7569  0.6597  0.0294
 3200TIP3    H131235   4.271   1.500   2.184 -0.5307  0.4692 -0.1876
 3200TIP3    H231236   4.264   1.474   2.333 -0.8624  1.7232  0.0271
 3201TIP3   OH231237   6.847   2.772   7.537  0.0653 -0.5633  0.0423
 3201TIP3    H131238   6.790   2.803   7.467 -0.0937 -0.4132  0.2350
 3201TIP3    H231239   6.800   2.795   7.618  0.6537  0.0738  0.2128
 3202TIP3   OH231240   6.460   6.599   0.122  0.3969  0.3838  0.1380
 3202TIP3    H131241   6.375   6.640   0.105 -0.1310 -1.0488 -0.8222
 3202TIP3    H231242   6.448   6.554   0.206 -0.7390 -2.1100 -1.2745
 3203TIP3   OH231243   3.993   3.690   1.979 -0.0411 -0.2242 -0.1099
 3203TIP3    H131244   3.906   3.650   1.981  0.3308 -1.2133 -1.6904
 3203TIP3    H231245   3.976   3.783   1.961 -0.7854 -0.3600 -0.1689
 3204TIP3   OH231246   1.559   0.101   8.661  0.5565 -0.5166 -0.9011
 3204TIP3    H131247   1.494   0.143   8.716  1.2542 -1.7796  0.9807
 3204TIP3    H231248   1.611   0.173   8.626  1.2654  0.3029  1.6383
 3205TIP3   OH231249   5.200   2.730   7.909  0.2286  0.0423 -0.1814
 3205TIP3    H131250   5.266   2.668   7.939 -0.7847 -0.0426  2.0179
 3205TIP3    H231251   5.152   2.755   7.988 -0.7645  2.0152 -1.3286
 3206TIP3   OH231252   5.114   3.387   6.819 -0.3695  0.1281 -0.0599
 3206TIP3    H131253   5.036   3.343   6.855 -1.1191  0.1265 -1.5884
 3206TIP3    H231254   5.078   3.462   6.771  0.7124  1.0026  0.4643
 3207TIP3   OH231255   4.693   0.653   1.159 -0.1419  0.3834 -0.0995
 3207TIP3    H131256   4.607   0.618   1.138  0.2753 -0.8499  0.1668
 3207TIP3    H231257   4.742   0.648   1.077 -0.0587  0.2787 -0.0435
 3208TIP3   OH231258   4.468   5.962   7.061 -0.1881  0.1056 -1.1944
 3208TIP3    H131259   4.463   5.893   6.995 -2.1800  1.2845 -2.3790
 3208TIP3    H231260   4.382   5.961   7.103  0.3491  0.7490 -0.0384
 3209TIP3   OH231261   6.560   6.033   7.650 -0.4081 -0.1797  0.5396
 3209TIP3    H131262   6.477   6.049   7.696 -0.3625  0.4642  0.4046
 3209TIP3    H231263   6.546   6.069   7.562 -0.6775 -1.8615 -0.1523
 3210TIP3   OH231264   6.850   5.783   8.591 -0.4607 -0.1478  0.3615
 3210TIP3    H131265   6.921   5.838   8.623 -0.6056 -0.8216  1.9250
 3210TIP3    H231266   6.771   5.821   8.629 -0.5559 -1.4233  1.5359
 3211TIP3   OH231267   5.619   6.825   0.116 -0.6952 -0.1950  0.1559
 3211TIP3    H131268   5.527   6.799   0.108 -1.0265  1.1782 -0.7435
 3211TIP3    H231269   5.620   6.892   0.184 -0.6043  0.7933 -0.7891
 3212TIP3   OH231270   2.841   4.853   7.493  0.0698  0.5310 -0.1653
 3212TIP3    H131271   2.853   4.849   7.398 -1.0350 -1.5238 -0.2904
 3212TIP3    H231272   2.919   4.812   7.529  0.1337  0.5975 -0.2289
 3213TIP3   OH231273   6.687   2.845   8.471  0.5206  0.4374  0.0415
 3213TIP3    H131274   6.776   2.879   8.478  0.6712  0.1765 -0.6134
 3213TIP3    H231275   6.692   2.756   8.507  0.1892  0.9648  1.4669
 3214TIP3   OH231276   1.310   2.602   7.698  0.4581  1.0784 -0.4205
 3214TIP3    H131277   1.394   2.597   7.744  0.2844 -0.2818 -0.1900
 3214TIP3    H231278   1.330   2.566   7.611 -0.2658 -1.2152  0.2824
 3215TIP3   OH231279   1.473   0.651   6.996 -0.3789 -0.0942 -0.3679
 3215TIP3    H131280   1.442   0.603   7.073 -0.2407 -0.1509 -0.3473
 3215TIP3    H231281   1.531   0.589   6.952  0.2303  0.2450 -0.0523
 3216TIP3   OH231282   4.150   6.654   2.243 -0.1278 -0.2648 -0.1248
 3216TIP3    H131283   4.186   6.631   2.328 -0.0432 -1.4635 -0.4672
 3216TIP3    H231284   4.119   6.744   2.253 -0.4858 -0.5260  1.2879
 3217TIP3   OH231285   4.712   1.151   0.395 -0.4784 -0.2797  0.1345
 3217TIP3    H131286   4.715   1.105   0.479 -0.9160 -0.6162 -0.0305
 3217TIP3    H231287   4.620   1.176   0.385 -0.2073  0.8964  0.3613
 3218TIP3   OH231288   5.436   4.926   1.353 -0.2189 -0.0287 -0.3848
 3218TIP3    H131289   5.427   4.832   1.341  1.7461 -0.0555 -2.3205
 3218TIP3    H231290   5.440   4.938   1.448  1.2402 -2.1110 -0.1123
 3219TIP3   OH231291   0.710   2.870   1.224  0.4338 -0.5649  0.2112
 3219TIP3    H131292   0.665   2.905   1.147  0.3382 -0.2342  0.4148
 3219TIP3    H231293   0.799   2.907   1.219 -0.0850  0.9185  1.2013
 3220TIP3   OH231294   5.800   6.356   1.013  0.0751 -0.8140  0.4457
 3220TIP3    H131295   5.870   6.313   1.061  1.7389 -0.9883 -1.9528
 3220TIP3    H231296   5.767   6.289   0.953  0.3446  0.2189 -0.9186
 3221TIP3   OH231297   5.753   5.625   0.394 -0.5288 -0.7349  0.1140
 3221TIP3    H131298   5.664   5.628   0.429 -1.5340  2.2645 -2.2722
 3221TIP3    H231299   5.806   5.673   0.458 -1.7617  2.0816 -0.7969
 3222TIP3   OH231300   6.661   4.150   7.614 -0.6646 -0.1575 -0.0060
 3222TIP3    H131301   6.674   4.242   7.591  1.8534  0.0149  1.7586
 3222TIP3    H231302   6.569   4.133   7.593 -1.3938  2.9262  0.2624
 3223TIP3   OH231303   3.855   3.402   7.347 -0.1142  0.1041  0.1660
 3223TIP3    H131304   3.884   3.478   7.397 -1.6990  1.2521 -0.5841
 3223TIP3    H231305   3.797   3.438   7.280 -1.7823 -1.8392  0.4609
 3224TIP3   OH231306   6.745   5.111   1.605  0.3639 -0.6231  0.1418
 3224TIP3    H131307   6.734   5.045   1.673 -2.4712  0.4456  0.8975
 3224TIP3    H231308   6.739   5.194   1.652 -1.0803  0.1347 -1.2718
 3225TIP3   OH231309   0.595   6.568   0.866  0.5457  0.1673 -0.1182
 3225TIP3    H131310   0.500   6.579   0.860  0.6766  2.0515  0.6417
 3225TIP3    H231311   0.613   6.563   0.960  1.2282  0.0799 -0.2472
 3226TIP3   OH231312   3.713   3.241   7.952  0.2946  0.0541  0.0868
 3226TIP3    H131313   3.708   3.179   7.880 -1.7286  0.6836 -0.3776
 3226TIP3    H231314   3.731   3.325   7.909 -0.4819  0.3542  0.3246
 3227TIP3   OH231315   0.117   2.116   0.236 -0.2036  0.4339 -0.0692
 3227TIP3    H131316   0.128   2.053   0.308 -0.4508 -0.4960 -0.8329
 3227TIP3    H231317   0.207   2.142   0.213 -0.1482  1.5343  1.2355
 3228TIP3   OH231318   1.881   5.747   1.077  0.2373  0.1025 -0.0873
 3228TIP3    H131319   1.841   5.696   1.148 -1.1741 -1.0062 -1.5872
 3228TIP3    H231320   1.947   5.801   1.120 -0.8712 -0.1823  2.1194
 3229TIP3   OH231321   4.477   0.699   0.894  0.1911  0.1296  0.4385
 3229TIP3    H131322   4.491   0.669   0.804 -1.8037 -2.4657  0.8437
 3229TIP3    H231323   4.521   0.783   0.899 -2.0699  1.8630 -3.8388
 3230TIP3   OH231324   4.720   3.355   6.642 -0.1720  0.2935  0.1513
 3230TIP3    H131325   4.648   3.390   6.695 -0.6440 -1.0787  0.4584
 3230TIP3    H231326   4.779   3.315   6.706  0.1347  0.1652 -0.2088
 3231TIP3   OH231327   6.474   4.533   2.487  0.3159  0.3524  0.0148
 3231TIP3    H131328   6.502   4.595   2.554 -1.8628 -0.9850  2.3221
 3231TIP3    H231329   6.509   4.449   2.515 -2.1874 -0.5714  0.6700
 3232TIP3   OH231330   5.231   3.921   7.324  0.7088 -0.2263 -0.5908
 3232TIP3    H131331   5.141   3.938   7.353  0.9555 -0.0907  0.1183
 3232TIP3    H231332   5.223   3.851   7.260  0.0482  0.1051 -0.8862
 3233TIP3   OH231333   4.458   0.508   1.085 -0.3408  0.0385  0.0584
 3233TIP3    H131334   4.405   0.446   1.035 -0.9880 -0.4114  1.2709
 3233TIP3    H231335   4.472   0.581   1.025  0.0122 -1.0562 -1.2192
 3234TIP3   OH231336   2.983   3.960   0.232 -0.5068  0.0914 -0.0404
 3234TIP3    H131337   2.935   3.892   0.186 -1.4258  0.8746 -0.2722
 3234TIP3    H231338   2.916   4.020   0.265  0.2976  1.4082 -0.6777
 3235TIP3   OH231339   2.358   3.252   0.006  0.8149 -0.2111 -0.4780
 3235TIP3    H131340   2.426   3.247   0.074  0.2832  1.9025  0.2966
 3235TIP3    H231341   2.277   3.265   0.054  0.3138  0.4984 -1.4906
 3236TIP3   OH231342   2.335   6.339   1.212 -0.9034  0.3695 -0.2731
 3236TIP3    H131343   2.264   6.314   1.153  1.1993 -0.5507 -2.5944
 3236TIP3    H231344   2.399   6.383   1.156  1.4861 -1.0418  1.1409
 3237TIP3   OH231345   3.127   2.835   6.996  0.1662 -0.4444  0.2731
 3237TIP3    H131346   3.066   2.867   6.930 -1.5003 -0.5020  1.7028
 3237TIP3    H231347   3.099   2.745   7.012  1.4487 -0.9025  0.0741
 3238TIP3   OH231348   1.120   4.026   7.548  0.1341  0.4427  0.3124
 3238TIP3    H131349   1.200   3.988   7.584  0.0472  0.0743  0.1211
 3238TIP3    H231350   1.064   4.040   7.624 -0.0664 -0.3750  0.3243
 3239TIP3   OH231351   4.724   3.328   0.702 -0.6612 -0.1885  0.2972
 3239TIP3    H131352   4.788   3.399   0.706 -0.4250 -0.3374 -0.5508
 3239TIP3    H231353   4.678   3.332   0.786 -0.2872  0.6182  0.4757
 3240TIP3   OH231354   0.499   4.024   1.730  0.1865  0.1127  0.3758
 3240TIP3    H131355   0.550   3.944   1.744 -1.7156 -0.6643  3.8178
 3240TIP3    H231356   0.426   3.996   1.674 -0.3224 -0.5270  1.3397
 3241TIP3   OH231357   2.785   6.749   2.603 -0.0235  0.1407 -0.0282
 3241TIP3    H131358   2.773   6.698   2.524  2.1068  1.2407 -1.1387
 3241TIP3    H231359   2.760   6.690   2.674 -0.6287 -1.3432 -1.4270
 3242TIP3   OH231360   5.051   5.842   8.568  0.3507  0.1745  0.5078
 3242TIP3    H131361   5.100   5.764   8.542 -1.9555 -0.6896 -1.6730
 3242TIP3    H231362   5.021   5.823   8.657 -0.5166 -1.6782 -0.1268
 3243TIP3   OH231363   2.810   1.626   8.242 -0.7827  0.6590 -0.0461
 3243TIP3    H131364   2.783   1.715   8.261 -1.6285  0.5105 -0.4872
 3243TIP3    H231365   2.881   1.608   8.303  0.0206  1.9460 -0.5870
 3244TIP3   OH231366   0.945   4.076   7.749  0.1368  0.1785  0.4831
 3244TIP3    H131367   0.899   4.100   7.829 -1.2501  3.0432 -1.0337
 3244TIP3    H231368   0.884   4.098   7.678  1.9246 -0.7034 -1.4512
 3245TIP3   OH231369   2.109   2.061   2.125  0.3296 -0.7667 -0.1231
 3245TIP3    H131370   2.140   1.983   2.080  1.6554 -1.2409  1.5168
 3245TIP3    H231371   2.054   2.028   2.196  0.1279 -0.1682  0.0062
 3246TIP3   OH231372   1.180   3.374   0.234  0.4388 -0.2725  1.0250
 3246TIP3    H131373   1.192   3.453   0.287 -1.5010 -0.1076  1.3120
 3246TIP3    H231374   1.086   3.357   0.239  0.0744 -0.0955 -2.6020
 3247TIP3   OH231375   1.270   2.280   7.068 -0.4265  0.6470  0.6396
 3247TIP3    H131376   1.311   2.364   7.051  0.3908 -0.0313 -0.9264
 3247TIP3    H231377   1.252   2.281   7.162 -1.5690  3.0423  0.4711
 3248TIP3   OH231378   4.133   5.353   8.020  0.3015  0.1893  0.5129
 3248TIP3    H131379   4.214   5.363   7.970 -0.0822  1.3363  0.1087
 3248TIP3    H231380   4.131   5.429   8.077  0.2051 -0.5714  1.5482
 3249TIP3   OH231381   4.841   1.645   7.034  0.1093  0.2910 -0.0251
 3249TIP3    H131382   4.790   1.571   7.068  1.3312 -1.6852 -2.2375
 3249TIP3    H231383   4.927   1.609   7.016  0.6833  2.1849 -1.4442
 3250TIP3   OH231384   1.898   2.971   7.652  0.1605 -0.1417  0.8274
 3250TIP3    H131385   1.915   3.022   7.573  0.8396  0.1625  1.1571
 3250TIP3    H231386   1.978   2.919   7.664  0.4329  0.4822  1.8045
 3251TIP3   OH231387   3.511   4.773   1.129 -0.2259  0.0407 -0.4861
 3251TIP3    H131388   3.597   4.788   1.091  0.4353  0.1582  1.0150
 3251TIP3    H231389   3.503   4.677   1.134  2.2340 -0.1690  4.4276
 3252TIP3   OH231390   6.840   1.739   1.114  0.8016  0.2716  0.2518
 3252TIP3    H131391   6.928   1.766   1.091  0.4091 -0.0808 -1.9163
 3252TIP3    H231392   6.847   1.707   1.203  2.3440  2.4752  1.0012
 3253TIP3   OH231393   0.667   1.881   1.634 -0.0146  0.0748  0.0749
 3253TIP3    H131394   0.720   1.837   1.699 -0.8413 -0.9436  0.0964
 3253TIP3    H231395   0.608   1.937   1.684  0.1048  0.1459  0.1350
 3254TIP3   OH231396   0.988   4.132   1.731 -0.0047 -0.1771  0.1993
 3254TIP3    H131397   0.897   4.143   1.759  0.5771  0.1401  2.0874
 3254TIP3    H231398   0.981   4.108   1.638 -2.0481 -1.0532  0.5035
 3255TIP3   OH231399   0.996   3.802   8.059 -0.7115 -0.5958 -0.2245
 3255TIP3    H131400   1.038   3.720   8.087 -2.5315 -1.3962  0.3525
 3255TIP3    H231401   0.921   3.773   8.006 -0.7410  0.7493 -0.9479
 3256TIP3   OH231402   6.575   0.534   6.279 -0.1734 -0.2128  0.4581
 3256TIP3    H131403   6.554   0.624   6.303  1.5744 -0.1001  1.7388
 3256TIP3    H231404   6.565   0.485   6.361  1.5404 -0.6639  0.4211
 3257TIP3   OH231405   3.042   3.395   0.467  0.0381  0.0711 -0.4152
 3257TIP3    H131406   3.072   3.332   0.534  1.9403  0.6392 -0.6707
 3257TIP3    H231407   2.954   3.418   0.495  0.7256  0.2263  1.8851
 3258TIP3   OH231408   4.359   6.308   7.281 -0.3227 -0.3532 -0.5376
 3258TIP3    H131409   4.331   6.320   7.372  1.5111  2.2252 -0.2124
 3258TIP3    H231410   4.450   6.335   7.280 -0.0348 -1.1351 -3.0153
 3259TIP3   OH231411   1.508   4.230   0.787  0.0696  0.5351 -0.5301
 3259TIP3    H131412   1.538   4.142   0.763 -0.9479  0.9581 -4.0119
 3259TIP3    H231413   1.537   4.242   0.877  2.0687 -2.5549 -0.6037
 3260TIP3   OH231414   6.462   2.697   8.069 -0.0983 -0.5523  0.0187
 3260TIP3    H131415   6.408   2.710   8.147  0.2946  0.2209  0.1690
 3260TIP3    H231416   6.546   2.737   8.090 -0.6933  1.7635 -1.6125
 3261TIP3   OH231417   5.328   6.242   7.652  0.0574 -0.2531 -0.3218
 3261TIP3    H131418   5.325   6.200   7.566 -2.6174 -1.5874  0.3268
 3261TIP3    H231419   5.366   6.175   7.709  1.3428  0.4433 -0.3336
 3262TIP3   OH231420   0.372   6.451   8.054 -0.3110  0.0270  0.2461
 3262TIP3    H131421   0.297   6.440   7.996 -1.4387  0.6928  1.5158
 3262TIP3    H231422   0.358   6.387   8.124  1.1675 -0.9561 -0.2978
 3263TIP3   OH231423   3.544   0.971   1.567 -0.2353 -0.7664 -0.4429
 3263TIP3    H131424   3.534   1.050   1.514 -2.0794 -2.2960 -2.5351
 3263TIP3    H231425   3.534   0.899   1.506 -0.8697 -2.6592  1.7407
 3264TIP3   OH231426   3.736   2.729   1.328  0.0572  0.5196 -0.4014
 3264TIP3    H131427   3.702   2.788   1.394  0.2683 -0.0986  0.2706
 3264TIP3    H231428   3.791   2.668   1.376 -1.5736 -1.3555 -0.7525
 3265TIP3   OH231429   0.047   0.580   6.415 -0.1758  0.5459 -0.7558
 3265TIP3    H131430   0.052   0.529   6.496  1.1592  0.6900 -0.7204
 3265TIP3    H231431  -0.046   0.598   6.403 -0.5015 -0.4657  0.1240
 3266TIP3   OH231432   3.528   3.500   2.141  0.0287 -0.1318  0.3501
 3266TIP3    H131433   3.510   3.539   2.226 -0.0449 -1.3653  0.9203
 3266TIP3    H231434   3.466   3.427   2.134 -0.3362  0.2731 -0.9982
 3267TIP3   OH231435   1.364   1.260   7.257  0.1725  0.6189 -0.1697
 3267TIP3    H131436   1.420   1.183   7.262 -0.3615  0.3092  3.6492
 3267TIP3    H231437   1.282   1.228   7.221 -0.3156 -0.8599  2.1112
 3268TIP3   OH231438   0.323   1.729   1.349 -0.2308  0.2179 -0.4799
 3268TIP3    H131439   0.353   1.679   1.273  2.5460  0.1801  0.5436
 3268TIP3    H231440   0.378   1.699   1.421 -1.5870  1.5202  1.1725
 3269TIP3   OH231441   2.996   5.175   1.287  0.6711  0.1367 -0.2789
 3269TIP3    H131442   3.013   5.081   1.279 -0.0170 -0.1275  1.1216
 3269TIP3    H231443   2.915   5.189   1.237 -0.5744 -0.4882  1.4794
 3270TIP3   OH231444   6.115   6.537   1.218 -0.3458  0.4301  0.0723
 3270TIP3    H131445   6.051   6.608   1.217  0.3568  1.0648 -1.0215
 3270TIP3    H231446   6.062   6.458   1.229 -1.1181  1.1041  1.6653
 3271TIP3   OH231447   2.906   4.979   6.909 -0.1625  0.2557  0.6608
 3271TIP3    H131448   2.920   5.072   6.893  0.6114  0.0822  0.2690
 3271TIP3    H231449   2.991   4.939   6.890 -0.0291 -0.3297  2.3615
 3272TIP3   OH231450   4.252   6.628   1.816  0.5742 -0.4150 -0.7575
 3272TIP3    H131451   4.187   6.650   1.882  1.7445  0.2894  0.2030
 3272TIP3    H231452   4.202   6.616   1.736 -0.7309  0.0877 -0.0468
 3273TIP3   OH231453   4.343   2.445   1.055 -0.0420 -0.3417  0.3711
 3273TIP3    H131454   4.324   2.368   1.108  0.7453  0.6168  2.1538
 3273TIP3    H231455   4.438   2.446   1.046  0.1498  1.2899  1.8898
 3274TIP3   OH231456   3.023   6.050   0.910 -0.0850  0.4410 -0.1846
 3274TIP3    H131457   2.962   6.072   0.839  1.1033 -0.3740 -1.5171
 3274TIP3    H231458   3.076   6.129   0.920 -0.4201  0.6484 -0.0034
 3275TIP3   OH231459   1.906   6.854   0.662  0.4096  0.0578 -0.3905
 3275TIP3    H131460   1.916   6.773   0.613 -0.7492 -0.1413 -0.3090
 3275TIP3    H231461   1.956   6.919   0.612  0.8098 -0.5558 -0.7965
 3276TIP3   OH231462   2.907   5.048   0.238  0.9287  0.4465  0.6720
 3276TIP3    H131463   2.862   5.118   0.286 -3.2780  0.2080 -2.2989
 3276TIP3    H231464   2.923   5.086   0.151 -0.1830 -1.7275 -0.5680
 3277TIP3   OH231465   4.788   4.104   0.427  0.1541 -0.2613  0.3157
 3277TIP3    H131466   4.836   4.160   0.366  0.0785  0.1498  0.6273
 3277TIP3    H231467   4.712   4.075   0.378  0.2928 -0.2436  0.0891
 3278TIP3   OH231468   5.075   2.743   6.983  0.0145 -0.4673  0.4440
 3278TIP3    H131469   5.022   2.725   6.905  2.4245 -2.0815 -1.0059
 3278TIP3    H231470   5.053   2.832   7.007 -0.9038  0.0959 -2.0855
 3279TIP3   OH231471   5.651   3.207   8.403  0.2653  0.3577 -0.0027
 3279TIP3    H131472   5.646   3.150   8.479 -2.9610  1.6715  0.9398
 3279TIP3    H231473   5.589   3.169   8.341  1.7414  0.1594 -1.4332
 3280TIP3   OH231474   2.802   6.543   6.674  0.0875  0.4124  0.1765
 3280TIP3    H131475   2.838   6.497   6.750 -1.6177 -0.8900  0.2703
 3280TIP3    H231476   2.878   6.582   6.631  1.4290 -1.1236  1.0293
 3281TIP3   OH231477   3.540   1.213   1.136  0.7288 -0.1961 -0.1007
 3281TIP3    H131478   3.513   1.155   1.065  0.3747 -0.0159 -0.1172
 3281TIP3    H231479   3.498   1.297   1.116  0.0320 -0.3359  0.6963
 3282TIP3   OH231480   1.659   4.530   0.797  0.6233 -0.4100  0.1075
 3282TIP3    H131481   1.657   4.620   0.765 -1.1766 -0.9471 -1.4690
 3282TIP3    H231482   1.679   4.477   0.719  2.0391 -1.3620  1.0825
 3283TIP3   OH231483   1.546   4.687   0.458 -0.0059 -0.1679  0.0251
 3283TIP3    H131484   1.630   4.729   0.473  0.6966 -1.6811  0.6167
 3283TIP3    H231485   1.494   4.707   0.537  0.0220  0.2599 -0.0667
 3284TIP3   OH231486   2.385   6.460   2.619  0.0021  0.2504 -0.7313
 3284TIP3    H131487   2.372   6.365   2.610 -1.4600  0.3929 -0.3650
 3284TIP3    H231488   2.474   6.475   2.586  0.7882 -1.4215  0.5113
 3285TIP3   OH231489   2.741   1.726   1.271  0.0505  0.2261 -0.0204
 3285TIP3    H131490   2.696   1.691   1.195 -2.1938  1.2876  0.7325
 3285TIP3    H231491   2.748   1.652   1.332  0.0338 -0.1254 -0.4436
 3286TIP3   OH231492   5.250   4.893   2.684 -0.3330  0.4504  0.3599
 3286TIP3    H131493   5.188   4.855   2.623  0.9263  0.5761 -1.0471
 3286TIP3    H231494   5.230   4.987   2.684  1.7056  1.0018 -2.4565
 3287TIP3   OH231495   3.105   6.593   0.837  0.6233  0.2378  0.0334
 3287TIP3    H131496   3.153   6.574   0.918 -2.2328  0.1669  1.8402
 3287TIP3    H231497   3.060   6.511   0.815  0.6832  0.5018 -1.1702
 3288TIP3   OH231498   0.264   0.608   2.464  0.6871  0.2045  0.4828
 3288TIP3    H131499   0.347   0.616   2.417  1.4865  0.1403  1.8397
 3288TIP3    H231500   0.288   0.577   2.551 -0.7183  0.6760  1.0686
 3289TIP3   OH231501   0.108   5.045   1.788 -0.1393 -0.1890 -0.4032
 3289TIP3    H131502   0.106   4.949   1.789  1.4159 -0.2416  0.2026
 3289TIP3    H231503   0.056   5.071   1.863  0.9947 -0.6365  0.5777
 3290TIP3   OH231504   4.488   1.927   0.365  0.2805 -0.4251  0.0558
 3290TIP3    H131505   4.495   1.847   0.418  0.3041  0.7545  1.9281
 3290TIP3    H231506   4.578   1.960   0.361  0.2532 -0.4266 -0.6205
 3291TIP3   OH231507   2.977   1.116   8.262  0.2492  0.1835  0.1976
 3291TIP3    H131508   3.063   1.107   8.222 -0.4504 -2.3318 -1.0015
 3291TIP3    H231509   2.918   1.072   8.200 -1.5198 -0.2353  2.0697
 3292TIP3   OH231510   3.931   2.334   6.538 -0.0311 -0.1745 -0.1000
 3292TIP3    H131511   3.859   2.288   6.495  0.9971 -0.7539 -1.3033
 3292TIP3    H231512   3.929   2.304   6.628  0.3088 -2.2847 -0.7384
 3293TIP3   OH231513   6.156   1.156   7.383  0.1266  0.1332  0.4444
 3293TIP3    H131514   6.217   1.182   7.452  3.5096  0.8759 -2.5624
 3293TIP3    H231515   6.155   1.230   7.322 -2.9986 -0.3404 -0.2698
 3294TIP3   OH231516   0.358   0.403   6.614 -0.0727  0.2324 -0.1069
 3294TIP3    H131517   0.374   0.347   6.690 -0.4128 -0.0114 -0.2101
 3294TIP3    H231518   0.295   0.354   6.561 -0.1849  0.6038 -0.3223
 3295TIP3   OH231519   3.410   2.938   7.801  0.5419 -0.1003 -0.5604
 3295TIP3    H131520   3.492   2.984   7.819  1.4221 -1.5582 -0.7174
 3295TIP3    H231521   3.342   3.004   7.818  1.7840  1.8011 -2.4274
 3296TIP3   OH231522   5.299   5.022   2.407  0.3155  0.2590 -0.0315
 3296TIP3    H131523   5.368   5.041   2.471 -0.6637  0.2040  1.0629
 3296TIP3    H231524   5.218   5.049   2.450 -0.3067  0.9268 -1.5530
 3297TIP3   OH231525   2.083   3.326   6.937  0.1193  0.2487  0.1631
 3297TIP3    H131526   2.121   3.412   6.920  0.4580  0.1348  0.3552
 3297TIP3    H231527   2.116   3.271   6.866 -1.3516  0.6459 -0.8909
 3298TIP3   OH231528   5.319   2.101   1.557  0.6813 -0.0289 -0.4351
 3298TIP3    H131529   5.343   2.190   1.533  0.8520  0.2250  0.6385
 3298TIP3    H231530   5.338   2.095   1.651  0.9000 -1.2698 -0.5391
 3299TIP3   OH231531   6.233   5.116   0.239  0.1496 -0.2633  0.1288
 3299TIP3    H131532   6.163   5.053   0.255  0.4376 -0.5869  0.1589
 3299TIP3    H231533   6.289   5.073   0.173  1.7033 -1.1508  1.9155
 3300TIP3   OH231534   5.357   3.183   7.959 -0.1795  0.2794 -0.3474
 3300TIP3    H131535   5.288   3.118   7.947  0.4132 -0.5345  0.4921
 3300TIP3    H231536   5.311   3.265   7.974 -0.9453  0.0194 -1.1834
 3301TIP3   OH231537   6.885   3.367   8.364  0.1999 -0.0839  0.3341
 3301TIP3    H131538   6.812   3.312   8.335  1.2165 -0.8810 -0.8113
 3301TIP3    H231539   6.870   3.379   8.458 -1.4839 -0.0843  0.0886
 3302TIP3   OH231540   3.213   6.433   0.238  0.4347 -0.1651 -0.2077
 3302TIP3    H131541   3.264   6.364   0.196  2.5458  1.8495 -1.1476
 3302TIP3    H231542   3.134   6.441   0.185  0.9754 -0.6828 -1.1064
 3303TIP3   OH231543   0.071   6.597   7.682 -0.3388 -0.4563  0.4926
 3303TIP3    H131544  -0.005   6.631   7.730  0.5150  1.1536  0.7402
 3303TIP3    H231545   0.147   6.624   7.734  0.5161 -0.2538 -0.8161
 3304TIP3   OH231546   6.861   5.583   8.074  0.0074  0.2876 -0.1374
 3304TIP3    H131547   6.859   5.487   8.078 -0.3092  0.3389  1.7159
 3304TIP3    H231548   6.913   5.602   7.996  1.4322 -1.4074  0.3274
 3305TIP3   OH231549   6.438   2.435   1.019 -0.9173  0.3292  0.0028
 3305TIP3    H131550   6.384   2.390   1.084 -0.5139  1.4559  1.1435
 3305TIP3    H231551   6.476   2.509   1.066  0.7223  0.2117 -1.0849
 3306TIP3   OH231552   3.574   4.138   8.299 -0.4837  1.2402 -0.1164
 3306TIP3    H131553   3.578   4.076   8.226 -1.8470 -1.0579  1.6053
 3306TIP3    H231554   3.664   4.143   8.331 -0.7347 -2.7951  1.8377
 3307TIP3   OH231555   3.215   2.353   0.776 -0.3132 -0.4186 -0.5120
 3307TIP3    H131556   3.212   2.368   0.871 -0.4574 -0.7419 -0.4648
 3307TIP3    H231557   3.130   2.382   0.745  0.2208  1.0090 -0.7472
 3308TIP3   OH231558   2.529   0.939   0.204 -0.1920 -0.2471  0.2648
 3308TIP3    H131559   2.572   1.004   0.260  1.7277 -0.9661 -0.3050
 3308TIP3    H231560   2.446   0.922   0.248  0.0422  1.2575  1.3878
 3309TIP3   OH231561   4.044   3.362   7.869 -0.6559  0.0135 -0.4418
 3309TIP3    H131562   3.950   3.382   7.864 -1.2227 -1.6430  1.7493
 3309TIP3    H231563   4.056   3.327   7.957  2.2031  0.8685 -0.3874
 3310TIP3   OH231564   4.474   3.996   2.110  0.2743 -0.8908 -0.2473
 3310TIP3    H131565   4.549   3.960   2.063  0.1562 -0.6061 -0.6648
 3310TIP3    H231566   4.452   3.929   2.175  0.6142 -1.1680 -0.4112
 3311TIP3   OH231567   4.326   6.692   0.992 -0.3793 -0.3421  0.2527
 3311TIP3    H131568   4.328   6.721   0.901 -0.8419 -1.2047 -0.0511
 3311TIP3    H231569   4.233   6.682   1.012 -0.2628 -0.6710  0.6422
 3312TIP3   OH231570   2.449   4.653   0.200 -0.1755  0.0905 -0.1509
 3312TIP3    H131571   2.374   4.647   0.140 -1.0928 -1.5877  1.0817
 3312TIP3    H231572   2.506   4.719   0.160 -2.2242  1.3357 -1.2105
 3313TIP3   OH231573   4.322   3.452   2.111  0.1471 -0.3700 -0.5711
 3313TIP3    H131574   4.317   3.464   2.206  0.1982  0.1427 -0.6301
 3313TIP3    H231575   4.361   3.533   2.079 -1.8018  0.3675 -1.2302
 3314TIP3   OH231576   4.850   1.790   2.234 -0.0671 -0.3321 -0.0487
 3314TIP3    H131577   4.882   1.787   2.324  0.4321  1.1134 -0.1609
 3314TIP3    H231578   4.800   1.871   2.228  0.5127 -0.0363 -1.2590
 3315TIP3   OH231579   4.200   2.570   0.336 -0.0138 -0.3073  0.2472
 3315TIP3    H131580   4.242   2.500   0.287  2.0549  0.2026  1.1505
 3315TIP3    H231581   4.107   2.564   0.314  0.5905 -1.1131 -2.3755
 3316TIP3   OH231582   2.906   2.610   7.947  0.2232 -0.0086  0.5262
 3316TIP3    H131583   2.989   2.638   7.909  0.7283 -0.6888  1.1015
 3316TIP3    H231584   2.839   2.658   7.897  0.9195 -0.0054 -0.4336
 3317TIP3   OH231585   5.838   3.344   7.786 -0.6975 -1.2476  0.5446
 3317TIP3    H131586   5.823   3.374   7.875 -1.9447  2.9456 -0.8750
 3317TIP3    H231587   5.764   3.378   7.736  1.6916 -0.3477 -2.7016
 3318TIP3   OH231588   5.239   6.633   7.611  0.0768 -0.1912  0.5019
 3318TIP3    H131589   5.316   6.640   7.667  1.6039  0.5887 -1.5546
 3318TIP3    H231590   5.271   6.653   7.523 -2.4115 -0.2303 -0.5156
 3319TIP3   OH231591   5.680   0.837   7.592 -0.2037 -0.3521 -0.6812
 3319TIP3    H131592   5.674   0.762   7.534  0.5344 -0.0228 -1.2001
 3319TIP3    H231593   5.590   0.851   7.623 -0.5745 -0.6421 -1.5908
 3320TIP3   OH231594   2.895   1.055   0.055  0.3586  0.8222  0.3472
 3320TIP3    H131595   2.913   1.121  -0.012 -0.8699  0.5221 -0.2965
 3320TIP3    H231596   2.912   1.100   0.138 -0.3584  1.9181 -0.0863
 3321TIP3   OH231597   5.282   5.353   0.067  0.3702  0.2770 -0.1068
 3321TIP3    H131598   5.310   5.383   0.154 -1.6098  1.5545  0.1486
 3321TIP3    H231599   5.290   5.431   0.012  0.5054 -0.2338 -0.8226
 3322TIP3   OH231600   0.901   0.799   1.385  0.5227  0.1581  0.4273
 3322TIP3    H131601   0.822   0.838   1.347  0.3396 -1.0981 -0.5586
 3322TIP3    H231602   0.869   0.742   1.455  0.5389 -0.4488 -0.0558
 3323TIP3   OH231603   3.286   5.105   1.593 -0.5121 -0.6372  0.0533
 3323TIP3    H131604   3.281   5.010   1.603 -0.2871 -0.7268 -0.5931
 3323TIP3    H231605   3.364   5.119   1.539  0.6746  0.0506  1.8566
 3324TIP3   OH231606   5.661   3.746   7.753 -0.1364 -0.3421 -0.1480
 3324TIP3    H131607   5.665   3.676   7.687 -0.4903  0.3853 -0.9522
 3324TIP3    H231608   5.698   3.822   7.709  2.4973 -0.5630  1.4732
 3325TIP3   OH231609   5.800   5.969   7.897  0.2057 -0.1718  0.1343
 3325TIP3    H131610   5.709   5.956   7.925  0.8078 -0.0806  2.2698
 3325TIP3    H231611   5.842   5.885   7.913  0.9421  0.3568  1.0928
 3326TIP3   OH231612   4.698   0.348   6.779  0.0378  0.7997  0.0700
 3326TIP3    H131613   4.658   0.262   6.787  0.9729  0.4040  0.6972
 3326TIP3    H231614   4.625   0.409   6.786 -0.7297  0.0608 -1.0841
 3327TIP3   OH231615   6.507   4.930   0.358  0.6530  0.1124 -0.9139
 3327TIP3    H131616   6.573   4.931   0.428  0.3569  0.7852 -0.6324
 3327TIP3    H231617   6.435   4.982   0.393 -0.7078 -1.8658 -0.5666
 3328TIP3   OH231618   5.168   6.364   0.445 -0.2453  0.3828  0.4135
 3328TIP3    H131619   5.118   6.427   0.395 -0.9639 -0.0623  0.5634
 3328TIP3    H231620   5.176   6.288   0.387 -2.3459 -0.7141  1.4571
 3329TIP3   OH231621   1.841   6.045   6.888 -0.2665  0.0318  0.4967
 3329TIP3    H131622   1.787   6.114   6.851 -1.1498 -1.2177 -0.6741
 3329TIP3    H231623   1.783   5.968   6.890  1.2004 -1.1444 -0.0288
 3330TIP3   OH231624   0.504   4.577   7.204 -0.4702  0.3877 -0.3128
 3330TIP3    H131625   0.599   4.562   7.208 -0.7151 -1.0192  1.7009
 3330TIP3    H231626   0.473   4.519   7.135  0.0214  0.1625 -0.3498
 3331TIP3   OH231627   0.983   0.863   2.264  0.1062 -0.2667  0.3281
 3331TIP3    H131628   0.937   0.924   2.206 -0.6440  0.0322  1.2283
 3331TIP3    H231629   1.043   0.917   2.315 -0.5415 -0.2690  1.1105
 3332TIP3   OH231630   6.570   0.193   0.479 -0.0120 -0.3887  0.3434
 3332TIP3    H131631   6.552   0.241   0.398 -1.4212  0.4467  1.1027
 3332TIP3    H231632   6.596   0.106   0.450  0.0994  0.0620 -1.0140
 3333TIP3   OH231633   5.015   5.326   7.188  1.0832  0.3048 -0.7469
 3333TIP3    H131634   4.941   5.277   7.224  0.1729  1.7920 -0.5268
 3333TIP3    H231635   4.977   5.379   7.118  2.0528  0.7093 -0.9801
 3334TIP3   OH231636   0.576   0.217   1.576  0.3470  0.2189 -0.4363
 3334TIP3    H131637   0.647   0.157   1.600  2.2931  1.9795 -1.4076
 3334TIP3    H231638   0.587   0.292   1.634 -2.0413 -0.2618  0.7565
 3335TIP3   OH231639   5.571   1.764   1.861 -0.1445  0.4440 -0.2305
 3335TIP3    H131640   5.607   1.741   1.946  0.6562 -0.0652 -0.6942
 3335TIP3    H231641   5.647   1.770   1.803 -0.8790 -2.2344 -1.6175
 3336TIP3   OH231642   0.147   5.235   1.604 -0.0150 -0.6871  0.2202
 3336TIP3    H131643   0.152   5.308   1.666  0.6415 -0.0416 -0.5755
 3336TIP3    H231644   0.104   5.165   1.653  1.0471 -0.4087  1.6130
 3337TIP3   OH231645   5.857   0.885   6.774  0.6213 -0.1723 -0.2949
 3337TIP3    H131646   5.769   0.908   6.804  0.8207 -0.8175  0.8355
 3337TIP3    H231647   5.856   0.904   6.680  0.7600  4.3551  0.4302
 3338TIP3   OH231648   4.265   1.617   0.072  0.4066  0.0256  0.4399
 3338TIP3    H131649   4.278   1.537   0.022 -0.1006  0.7080 -0.8239
 3338TIP3    H231650   4.328   1.679   0.036  0.6887  0.2657  1.3034
 3339TIP3   OH231651   1.891   4.187   1.659  0.6897  0.2096  0.1979
 3339TIP3    H131652   1.802   4.152   1.651  0.3731  0.8957  0.6068
 3339TIP3    H231653   1.945   4.127   1.608  0.2199 -1.0798  1.1629
 3340TIP3   OH231654   1.230   5.025   6.872  0.2577 -0.0519  0.1398
 3340TIP3    H131655   1.183   4.984   6.799 -0.4577  0.5821  0.2319
 3340TIP3    H231656   1.319   5.037   6.839 -0.5890  2.4288 -1.5804
 3341TIP3   OH231657   5.928   4.111   0.891 -0.1314  0.2149  0.1497
 3341TIP3    H131658   5.834   4.101   0.909  0.0564 -0.5334  0.7795
 3341TIP3    H231659   5.936   4.100   0.797 -0.6915  0.3541  0.0847
 3342TIP3   OH231660   1.125   6.311   1.250 -0.0383  0.5634 -0.4098
 3342TIP3    H131661   1.161   6.261   1.176  0.2187 -2.1693  1.3913
 3342TIP3    H231662   1.198   6.365   1.280  0.5872 -0.0544 -0.7638
 3343TIP3   OH231663   5.435   5.645   8.568  0.4861 -0.4267 -0.1033
 3343TIP3    H131664   5.507   5.583   8.580  3.4483  2.8177  0.5293
 3343TIP3    H231665   5.451   5.686   8.483 -1.0347 -0.0828 -0.2624
 3344TIP3   OH231666   5.290   3.054   6.902 -0.0726  0.6611  0.4486
 3344TIP3    H131667   5.305   3.084   6.812 -1.3430  0.6594  0.2258
 3344TIP3    H231668   5.195   3.051   6.911  0.0339 -0.2918  1.4770
 3345TIP3   OH231669   1.480   1.479   7.351  0.4276 -0.3214 -0.1949
 3345TIP3    H131670   1.416   1.418   7.315 -1.4135  1.0730  0.5616
 3345TIP3    H231671   1.543   1.423   7.396 -0.4948 -1.7293 -0.5898
 3346TIP3   OH231672   6.531   1.084   6.480  0.0456  0.0484  0.1490
 3346TIP3    H131673   6.582   1.081   6.561 -0.5066  1.5283  0.5989
 3346TIP3    H231674   6.446   1.048   6.505 -0.5696  1.7265  0.6357
 3347TIP3   OH231675   3.737   3.730   0.148 -0.2746 -0.1414  0.0687
 3347TIP3    H131676   3.770   3.729   0.238 -1.5250 -2.1989  0.5568
 3347TIP3    H231677   3.771   3.650   0.108  0.2567  0.7410 -1.3136
 3348TIP3   OH231678   0.625   5.355   7.174 -0.2146  0.2440  0.2490
 3348TIP3    H131679   0.580   5.409   7.110  2.1961  2.2761  0.1025
 3348TIP3    H231680   0.704   5.324   7.129  1.1056  1.0367  1.8718
 3349TIP3   OH231681   3.848   2.976   1.939  0.3915  0.4978 -0.2801
 3349TIP3    H131682   3.854   2.937   1.852  1.1982  2.0080 -0.9369
 3349TIP3    H231683   3.931   3.023   1.950  0.3973  0.1531  1.4075
 3350TIP3   OH231684   6.202   0.594   7.535 -0.2216 -0.6464  0.5191
 3350TIP3    H131685   6.109   0.613   7.526 -0.2309 -1.0340 -0.2818
 3350TIP3    H231686   6.241   0.676   7.564 -0.2944  0.6197 -2.5458
 3351TIP3   OH231687   6.552   1.820   7.738  0.0635 -0.1095  0.0602
 3351TIP3    H131688   6.492   1.799   7.810  1.9298 -0.2850  1.6267
 3351TIP3    H231689   6.503   1.794   7.659 -2.9622  2.1823  0.9809
 3352TIP3   OH231690   1.851   3.572   0.995 -0.0819 -0.1452  0.4007
 3352TIP3    H131691   1.831   3.634   0.925 -0.0316 -1.0964 -0.4930
 3352TIP3    H231692   1.847   3.623   1.076  2.1664  1.5539 -0.4564
 3353TIP3   OH231693   3.910   5.799   0.308 -0.6239  0.2269  0.2437
 3353TIP3    H131694   3.889   5.882   0.265 -0.0258  0.8409  1.1034
 3353TIP3    H231695   3.837   5.784   0.368 -1.5694 -0.7414 -1.0909
 3354TIP3   OH231696   6.138   5.325   8.275  0.1007 -0.1755 -0.1808
 3354TIP3    H131697   6.150   5.281   8.190  0.5794 -0.4341  0.0168
 3354TIP3    H231698   6.194   5.276   8.335  0.4672  0.5671  0.0942
 3355TIP3   OH231699   4.033   5.123   0.575  0.5343  0.2940 -0.4504
 3355TIP3    H131700   3.969   5.139   0.645 -0.9109  0.4626 -1.7590
 3355TIP3    H231701   4.007   5.182   0.505  1.8445 -0.0051 -1.2190
 3356TIP3   OH231702   4.543   2.548   8.444 -0.8257 -0.2160 -0.1961
 3356TIP3    H131703   4.504   2.486   8.382 -1.2116  0.3138 -0.4947
 3356TIP3    H231704   4.610   2.497   8.490  0.1665 -0.3855 -1.7251
 3357TIP3   OH231705   5.335   6.885   1.468  0.1599  0.1351 -0.3932
 3357TIP3    H131706   5.272   6.851   1.404 -0.1498 -0.7425  0.3502
 3357TIP3    H231707   5.327   6.980   1.462 -1.7732  0.0580  0.1776
 3358TIP3   OH231708   3.065   2.538   0.071  0.5824 -0.1864 -0.9984
 3358TIP3    H131709   3.116   2.618   0.083 -1.2562  0.6780  2.4908
 3358TIP3    H231710   3.121   2.469   0.105  1.4116 -0.1456 -2.1987
 3359TIP3   OH231711   2.935   3.772   0.828  0.4902  0.5353 -0.0342
 3359TIP3    H131712   2.920   3.677   0.824  1.6369  0.3986 -2.4342
 3359TIP3    H231713   2.965   3.796   0.741 -1.9799  3.5376 -0.2335
 3360TIP3   OH231714   6.136   3.877   7.933  0.3721  0.3163  0.0170
 3360TIP3    H131715   6.054   3.831   7.949 -0.2169  1.0484 -0.7704
 3360TIP3    H231716   6.202   3.825   7.978 -0.7341  0.5930  2.0726
 3361TIP3   OH231717   1.183   3.171   6.686  0.6025  0.6425  0.5555
 3361TIP3    H131718   1.204   3.209   6.601 -0.4993 -1.1968 -0.6025
 3361TIP3    H231719   1.087   3.170   6.689  0.5692 -1.5854  0.6841
 3362TIP3   OH231720   1.222   2.147   0.968  0.0845 -0.5717 -0.6064
 3362TIP3    H131721   1.148   2.098   0.931  0.3557 -1.4061 -0.0427
 3362TIP3    H231722   1.293   2.134   0.905  0.1134 -0.7725 -0.5309
 3363TIP3   OH231723   2.010   6.404   1.773  0.0346 -0.2542  0.1116
 3363TIP3    H131724   1.959   6.368   1.700  0.4755 -1.7193  0.4875
 3363TIP3    H231725   2.101   6.385   1.750  0.3959  1.6431 -0.1845
 3364TIP3   OH231726   0.597   1.535   0.920 -1.2595  0.4670  0.1929
 3364TIP3    H131727   0.652   1.613   0.913  1.8013 -1.4344  1.3402
 3364TIP3    H231728   0.578   1.511   0.829 -0.0619  1.1128 -0.2507
 3365TIP3   OH231729   3.084   3.488   0.762 -0.0286  0.4619  0.2005
 3365TIP3    H131730   3.049   3.402   0.739 -0.1302  0.4255  0.4914
 3365TIP3    H231731   3.095   3.532   0.677  1.3581 -0.3333 -0.0690
 3366TIP3   OH231732   5.969   3.177   7.027  0.1424  0.6336 -1.1034
 3366TIP3    H131733   6.054   3.205   7.061 -0.3283  0.2516  0.5224
 3366TIP3    H231734   5.940   3.110   7.089 -0.7944 -0.1325 -2.3250
 3367TIP3   OH231735   6.396   6.094   2.645 -0.0645 -0.0511  0.3525
 3367TIP3    H131736   6.399   6.177   2.692 -3.5315  0.1990  0.3318
 3367TIP3    H231737   6.450   6.109   2.567 -0.9159  2.3659  0.1450
 3368TIP3   OH231738   4.132   6.439   2.072  0.3516  0.3863  0.1621
 3368TIP3    H131739   4.157   6.518   2.121 -1.9975  0.3141  1.6454
 3368TIP3    H231740   4.078   6.389   2.133 -1.8691 -0.2383 -2.1440
 3369TIP3   OH231741   2.786   6.292   0.515 -0.6300  0.8164  0.4203
 3369TIP3    H131742   2.831   6.350   0.454 -0.9054 -1.4304 -2.1484
 3369TIP3    H231743   2.720   6.248   0.462 -0.8561 -1.3581  2.3230
 3370TIP3   OH231744   5.931   2.152   1.960 -0.4854 -0.5196  0.2697
 3370TIP3    H131745   5.843   2.184   1.936  0.0906  0.4877 -0.5861
 3370TIP3    H231746   5.925   2.136   2.054 -1.3749  0.2749  0.3734
 3371TIP3   OH231747   6.458   5.155   0.831  0.5709  0.2334  0.0660
 3371TIP3    H131748   6.549   5.163   0.802  0.0484  1.3813 -1.3515
 3371TIP3    H231749   6.423   5.243   0.823 -0.5655 -0.1179  1.0003
 3372TIP3   OH231750   2.388   4.003   7.450  0.1907 -0.3570 -0.0984
 3372TIP3    H131751   2.349   3.947   7.383  1.1662 -2.0246  0.6631
 3372TIP3    H231752   2.408   3.944   7.523  3.8732  0.3212 -0.3388
 3373TIP3   OH231753   4.834   0.740   0.753  0.9233 -0.4755  0.6877
 3373TIP3    H131754   4.792   0.662   0.790 -1.2015 -0.0190 -0.5760
 3373TIP3    H231755   4.881   0.708   0.676  0.3161 -0.5703  0.3508
 3374TIP3   OH231756   5.201   2.220   1.829  0.1064 -0.8208  0.0890
 3374TIP3    H131757   5.124   2.168   1.852 -0.5084 -0.0177 -0.0751
 3374TIP3    H231758   5.175   2.310   1.848  2.0635 -0.7285  2.9841
 3375TIP3   OH231759   4.665   6.558   1.173 -0.0645 -0.3784  0.6547
 3375TIP3    H131760   4.747   6.582   1.130 -0.4310 -1.0328 -0.4452
 3375TIP3    H231761   4.617   6.507   1.108 -0.8705 -0.9628  1.6702
 3376TIP3   OH231762   5.466   2.601   2.342  0.6376  0.7650 -0.1438
 3376TIP3    H131763   5.404   2.606   2.415  0.7625 -0.3744  0.0543
 3376TIP3    H231764   5.470   2.691   2.309 -0.1702  1.1068  0.6218
 3377TIP3   OH231765   1.239   0.945   8.662 -0.1937  0.1273 -0.4471
 3377TIP3    H131766   1.202   0.996   8.589  0.2413  1.3295  0.1525
 3377TIP3    H231767   1.260   1.010   8.729  2.1597 -0.5906 -0.3931
 3378TIP3   OH231768   6.814   0.957   8.463  0.1538 -0.0657 -0.0723
 3378TIP3    H131769   6.730   0.992   8.433  0.3921  1.2547  0.7266
 3378TIP3    H231770   6.877   1.025   8.440  1.1856 -1.4122 -1.4809
 3379TIP3   OH231771   4.703   0.860   7.234 -0.5635  0.0779 -0.4401
 3379TIP3    H131772   4.703   0.937   7.176  0.0192  1.0911  0.8644
 3379TIP3    H231773   4.790   0.822   7.223 -0.3055  0.5114  0.0647
 3380TIP3   OH231774   2.691   2.445   7.380 -0.3546 -0.4039  0.5755
 3380TIP3    H131775   2.730   2.517   7.429  0.6321 -0.6602  0.1976
 3380TIP3    H231776   2.682   2.478   7.290 -0.0564 -0.6870  0.4380
 3381TIP3   OH231777   3.155   3.377   0.239  0.5855  0.0059 -0.0317
 3381TIP3    H131778   3.117   3.394   0.325 -0.1271  1.9033 -0.6713
 3381TIP3    H231779   3.180   3.285   0.242 -0.4961 -0.2841  1.7910
 3382TIP3   OH231780   6.388   4.625   0.709 -0.2507  0.4895  0.7477
 3382TIP3    H131781   6.399   4.531   0.720  0.7011  0.5405  0.3105
 3382TIP3    H231782   6.359   4.636   0.619  1.0816  0.7092  0.3348
 3383TIP3   OH231783   3.765   1.455   8.332  0.0755  0.7480 -0.2483
 3383TIP3    H131784   3.768   1.523   8.400  1.3287 -0.0208  0.5145
 3383TIP3    H231785   3.746   1.502   8.251  0.0866  1.8944  0.3983
 3384TIP3   OH231786   0.661   0.100   2.259 -0.6626 -0.0341 -0.1481
 3384TIP3    H131787   0.663   0.059   2.346 -1.8663  1.8304  0.8198
 3384TIP3    H231788   0.727   0.052   2.209  0.2179 -1.0314  1.8415
 3385TIP3   OH231789   2.929   1.881   2.663 -0.1496  0.1762 -0.4837
 3385TIP3    H131790   2.845   1.884   2.709  0.4523  2.7205  0.6441
 3385TIP3    H231791   2.906   1.872   2.570 -1.4882 -2.1656 -0.0072
 3386TIP3   OH231792   6.472   4.493   7.967  0.5379  0.1913 -0.3605
 3386TIP3    H131793   6.466   4.492   8.063  1.2448 -0.1944 -0.3155
 3386TIP3    H231794   6.382   4.479   7.938  0.5708 -1.6506  0.2723
 3387TIP3   OH231795   6.861   1.834   1.622 -0.0051 -0.0524 -0.0830
 3387TIP3    H131796   6.787   1.836   1.683 -0.0134  0.4527 -0.1047
 3387TIP3    H231797   6.934   1.803   1.674 -0.2313 -0.5616 -0.0617
 3388TIP3   OH231798   6.717   4.518   7.841 -0.8113  0.0617 -0.3121
 3388TIP3    H131799   6.638   4.479   7.877 -1.2704  0.9327 -0.3516
 3388TIP3    H231800   6.694   4.609   7.824 -0.0449  0.1331 -1.0807
 3389TIP3   OH231801   1.518   6.813   7.995  0.1429 -0.2155  0.1110
 3389TIP3    H131802   1.580   6.849   8.059 -2.2388 -1.0133  3.1122
 3389TIP3    H231803   1.442   6.871   8.000 -0.0883 -0.2329 -2.1869
 3390TIP3   OH231804   5.555   4.505   6.885  0.3825  0.4052 -0.0076
 3390TIP3    H131805   5.545   4.497   6.979  2.2243  0.1401  0.2041
 3390TIP3    H231806   5.468   4.531   6.853 -0.7946 -1.4313  1.5143
 3391TIP3   OH231807   4.622   0.709   0.455  0.0483 -0.3048  0.4617
 3391TIP3    H131808   4.574   0.707   0.373 -0.9294 -0.0524  1.0132
 3391TIP3    H231809   4.714   0.702   0.430 -0.2172  0.1545 -0.6661
 3392TIP3   OH231810   4.392   6.868   7.364 -0.2070 -0.0904 -0.2889
 3392TIP3    H131811   4.361   6.898   7.279  3.8668  0.5779 -1.7738
 3392TIP3    H231812   4.431   6.946   7.404  0.7411 -1.0571  0.7483
 3393TIP3   OH231813   4.963   3.458   1.902  0.3912  0.2889 -0.7866
 3393TIP3    H131814   5.000   3.545   1.916  2.5860 -0.8664  1.7003
 3393TIP3    H231815   5.035   3.408   1.862  0.2140 -1.0306  0.4493
 3394TIP3   OH231816   1.122   0.556   7.210  0.2538 -0.5724  0.3516
 3394TIP3    H131817   1.077   0.601   7.139 -0.5340 -1.7298  0.0940
 3394TIP3    H231818   1.063   0.566   7.285 -1.1222 -3.1166 -0.2759
 3395TIP3   OH231819   5.698   3.852   0.006 -0.4478  0.3515 -0.0979
 3395TIP3    H131820   5.732   3.783   0.063  2.0973 -0.7972 -2.7341
 3395TIP3    H231821   5.632   3.809  -0.048  0.5534  0.1363 -1.1845
 3396TIP3   OH231822   0.641   1.579   8.131  0.0058 -0.2737  0.3694
 3396TIP3    H131823   0.621   1.673   8.125  0.3135 -0.1581  1.0583
 3396TIP3    H231824   0.561   1.535   8.102 -0.9102  0.1804  2.0459
 3397TIP3   OH231825   1.008   4.937   0.493  0.1258 -0.2415  0.1419
 3397TIP3    H131826   0.951   4.930   0.569 -0.4941 -0.4436 -0.3384
 3397TIP3    H231827   1.065   4.860   0.498  1.1376  0.5334  1.2371
 3398TIP3   OH231828   0.800   5.370   7.406 -0.4447 -0.8154 -0.2546
 3398TIP3    H131829   0.854   5.299   7.371  0.1535 -0.4216 -0.1551
 3398TIP3    H231830   0.733   5.385   7.339 -0.5981 -1.4923 -0.2577
 3399TIP3   OH231831   2.649   5.115   2.906  0.4657 -0.1898  0.2940
 3399TIP3    H131832   2.637   5.038   2.850 -0.0498 -0.3260  0.5816
 3399TIP3    H231833   2.561   5.140   2.931  0.2896  2.6270 -2.5613
 3400TIP3   OH231834   3.488   3.775   1.995  0.1218 -0.4403  0.1570
 3400TIP3    H131835   3.569   3.760   2.045 -0.7568  1.7136  2.4135
 3400TIP3    H231836   3.439   3.693   2.004  2.5592 -2.4252 -2.6126
 3401TIP3   OH231837   3.890   2.152   0.120 -0.1201  0.0478 -0.1436
 3401TIP3    H131838   3.934   2.153   0.035 -0.1067 -1.1196 -0.1668
 3401TIP3    H231839   3.876   2.059   0.139 -0.4980  0.3064  0.9381
 3402TIP3   OH231840   4.420   6.483   1.601 -0.1883  0.5704 -0.2702
 3402TIP3    H131841   4.422   6.559   1.659 -1.0014 -0.1132  0.7047
 3402TIP3    H231842   4.425   6.519   1.513  1.1317  1.6444  0.2137
 3403TIP3   OH231843   4.703   0.688   7.850  0.6903  0.3431 -0.0130
 3403TIP3    H131844   4.779   0.640   7.881  1.5020  1.1698 -0.6512
 3403TIP3    H231845   4.694   0.761   7.911 -0.7185 -0.7192  1.1327
 3404TIP3   OH231846   3.477   6.873   6.534 -0.2110  0.0177  0.2959
 3404TIP3    H131847   3.521   6.790   6.552 -0.3316 -0.7233 -2.3884
 3404TIP3    H231848   3.385   6.849   6.523 -0.1801  0.3917 -0.9293
 3405TIP3   OH231849   4.558   4.900   8.261  0.2987  0.0202 -0.3016
 3405TIP3    H131850   4.603   4.934   8.338 -0.8113  0.8595  0.0008
 3405TIP3    H231851   4.617   4.919   8.188  1.0723 -0.2119  0.2614
 3406TIP3   OH231852   5.946   1.306   2.150 -0.1829  0.0268  0.0286
 3406TIP3    H131853   5.883   1.378   2.152 -0.1672  0.0452  1.6614
 3406TIP3    H231854   5.892   1.227   2.148 -0.2029  0.0630 -1.5344
 3407TIP3   OH231855   3.376   4.361   0.712  0.2956 -0.1720 -0.2460
 3407TIP3    H131856   3.299   4.304   0.709  0.7489 -0.8052 -0.0599
 3407TIP3    H231857   3.450   4.301   0.720  0.6654  0.4736  1.7365
 3408TIP3   OH231858   1.024   3.067   0.238 -0.2429  0.1590  0.2849
 3408TIP3    H131859   1.093   3.016   0.280  0.4695  1.4758  0.7974
 3408TIP3    H231860   0.989   3.122   0.308 -0.1032  1.2738 -0.4921
 3409TIP3   OH231861   4.239   0.546   1.728 -0.0795  0.3363  0.3179
 3409TIP3    H131862   4.155   0.507   1.704  0.4880 -0.2060 -0.8244
 3409TIP3    H231863   4.254   0.517   1.818 -0.5665 -0.5400  0.1280
 3410TIP3   OH231864   4.077   4.904   0.858 -0.1450  0.4551  0.3358
 3410TIP3    H131865   4.147   4.968   0.875 -1.1581  2.4461 -2.2235
 3410TIP3    H231866   4.122   4.829   0.820  0.9524  0.0697  2.2784
 3411TIP3   OH231867   0.243   6.737   8.301  0.3410 -0.1930  0.7266
 3411TIP3    H131868   0.296   6.760   8.377 -0.4469 -0.6543  1.4294
 3411TIP3    H231869   0.163   6.701   8.338  0.3216 -1.2845 -0.3330
 3412TIP3   OH231870   4.287   4.310   7.270 -0.2926 -0.3538 -0.1139
 3412TIP3    H131871   4.214   4.353   7.314 -1.1866 -1.1663 -0.7585
 3412TIP3    H231872   4.322   4.376   7.211 -0.9731 -0.1690 -0.3218
 3413TIP3   OH231873   2.318   1.632   0.403  0.3158  0.2754 -0.0879
 3413TIP3    H131874   2.347   1.721   0.421  0.3387  0.4930 -1.1543
 3413TIP3    H231875   2.361   1.579   0.470 -0.1777  1.1254  0.9344
 3414TIP3   OH231876   6.358   1.511   8.423 -0.3663  0.1716 -0.2015
 3414TIP3    H131877   6.363   1.521   8.518  1.5726  0.3996 -0.2786
 3414TIP3    H231878   6.398   1.591   8.389 -0.6178 -0.1208 -1.2085
 3415TIP3   OH231879   5.039   1.385   1.355  0.2178 -0.7108  0.4022
 3415TIP3    H131880   5.109   1.326   1.383  0.5443 -0.4272  0.1971
 3415TIP3    H231881   5.066   1.472   1.386 -0.0253 -0.5929  0.2916
 3416TIP3   OH231882   4.714   2.452   0.904 -0.0620  0.1229  0.1138
 3416TIP3    H131883   4.645   2.507   0.868  0.5641  0.7131 -0.2085
 3416TIP3    H231884   4.696   2.451   0.998 -0.7997 -0.1492 -0.0251
 3417TIP3   OH231885   2.960   3.974   1.355 -0.0177 -0.6605 -0.1797
 3417TIP3    H131886   2.898   3.958   1.284  0.7407  0.3111 -1.1043
 3417TIP3    H231887   2.918   4.040   1.409  0.5890  0.7964 -1.3968
 3418TIP3   OH231888   2.661   0.611   1.819 -0.2208  0.0453  0.3746
 3418TIP3    H131889   2.634   0.553   1.748 -3.1047  0.2912  1.1651
 3418TIP3    H231890   2.726   0.669   1.778  0.1893 -1.5036 -1.3161
 3419TIP3   OH231891   0.772   2.414   6.889  0.3731 -0.2108  0.1541
 3419TIP3    H131892   0.712   2.454   6.826 -0.6028 -0.2319  1.0288
 3419TIP3    H231893   0.735   2.328   6.907  0.3073  0.0104  1.1624
 3420TIP3   OH231894   1.361   6.010   1.507  0.0016  0.0334 -0.6470
 3420TIP3    H131895   1.437   6.043   1.459  1.4351  0.4373  1.7320
 3420TIP3    H231896   1.370   6.048   1.594 -1.9477 -1.4215  0.2585
 3421TIP3   OH231897   6.537   4.611   7.537 -0.1330 -0.0688  0.0314
 3421TIP3    H131898   6.535   4.685   7.477  1.0440 -0.2952 -0.3132
 3421TIP3    H231899   6.565   4.648   7.621 -0.2113 -0.0112  0.0317
 3422TIP3   OH231900   1.683   0.849   8.624  0.1405  1.1700  0.0374
 3422TIP3    H131901   1.741   0.790   8.575  0.3634  1.1470  0.3259
 3422TIP3    H231902   1.596   0.810   8.615  0.3068  0.7308  0.3339
 3423TIP3   OH231903   4.225   1.609   8.163 -0.2737 -0.0483  0.1047
 3423TIP3    H131904   4.239   1.523   8.202 -0.4940 -0.2974 -0.3619
 3423TIP3    H231905   4.156   1.596   8.099 -0.0014  0.3847 -0.2869
 3424TIP3   OH231906   2.771   5.779   0.521 -0.3842  0.2878 -0.2675
 3424TIP3    H131907   2.846   5.815   0.569  0.6804  0.1118 -1.7274
 3424TIP3    H231908   2.787   5.685   0.520 -1.6314  0.0332  1.0108
 3425TIP3   OH231909   6.300   0.341   7.487 -0.0674  0.6609 -0.6643
 3425TIP3    H131910   6.246   0.285   7.542  0.8300  0.0390 -0.4008
 3425TIP3    H231911   6.257   0.426   7.489  0.0164  0.6836  1.1013
 3426TIP3   OH231912   5.788   4.855   0.243 -0.0814 -0.1902 -0.2698
 3426TIP3    H131913   5.784   4.794   0.317 -2.1953  0.5476  0.2752
 3426TIP3    H231914   5.761   4.939   0.280  0.1129  0.4898 -1.6169
 3427TIP3   OH231915   4.137   1.097   0.456 -0.2840  0.0673  0.3400
 3427TIP3    H131916   4.229   1.123   0.445  0.3015 -1.3308  1.5491
 3427TIP3    H231917   4.091   1.179   0.472  0.8742  0.7262  0.4145
 3428TIP3   OH231918   1.251   4.149   7.923  0.3939 -0.4990 -0.6434
 3428TIP3    H131919   1.291   4.126   8.007 -0.7092 -0.8076 -0.1716
 3428TIP3    H231920   1.320   4.193   7.874  0.9959 -0.0990  0.5288
 3429TIP3   OH231921   1.940   2.728   8.224  0.0046 -0.6583  0.1682
 3429TIP3    H131922   1.871   2.779   8.265  1.7265  1.0656  1.0893
 3429TIP3    H231923   1.970   2.668   8.292 -1.5355 -2.5126 -0.6958
 3430TIP3   OH231924   4.597   4.047   8.472 -0.4673 -0.0163 -0.7484
 3430TIP3    H131925   4.516   4.097   8.478  0.2811  1.0545  0.9871
 3430TIP3    H231926   4.588   3.977   8.536  0.0799  0.2779 -0.3383
 3431TIP3   OH231927   3.020   2.632   7.161 -0.1495  0.1233  0.2014
 3431TIP3    H131928   2.927   2.625   7.182 -0.0272 -1.5631  0.2887
 3431TIP3    H231929   3.058   2.550   7.191  0.7043 -0.9163 -3.2257
 3432TIP3   OH231930   5.136   5.099   7.653 -0.0095 -0.4542  0.1143
 3432TIP3    H131931   5.211   5.156   7.667 -0.6184  0.3488  0.1948
 3432TIP3    H231932   5.060   5.156   7.667 -0.6323 -1.3495  0.4560
 3433TIP3   OH231933   4.489   2.057   8.362 -0.1332  0.0224 -0.1012
 3433TIP3    H131934   4.457   2.110   8.435 -1.3385  0.7165 -1.0921
 3433TIP3    H231935   4.527   1.979   8.404 -0.8842  0.3435  1.2508
 3434TIP3   OH231936   4.663   2.251   6.960 -0.2452 -0.1797  0.0418
 3434TIP3    H131937   4.712   2.253   6.877  1.7728  2.5619  1.1212
 3434TIP3    H231938   4.616   2.168   6.958 -0.5345 -0.1298 -3.9658
 3435TIP3   OH231939   1.118   4.060   2.068  0.4613  0.2605 -0.3429
 3435TIP3    H131940   1.147   3.983   2.117 -1.4589 -0.2713  0.0295
 3435TIP3    H231941   1.127   4.133   2.129  1.1868  0.1454 -0.3083
 3436TIP3   OH231942   0.287   0.394   1.535 -0.1243 -0.0821 -0.1800
 3436TIP3    H131943   0.249   0.457   1.474 -2.0291  1.8448  2.7277
 3436TIP3    H231944   0.236   0.314   1.522 -0.8604  0.4633 -0.7277
 3437TIP3   OH231945   4.569   5.835   7.810  0.5818 -0.0427 -0.0386
 3437TIP3    H131946   4.498   5.797   7.757  1.6691 -0.5158 -1.2137
 3437TIP3    H231947   4.549   5.807   7.900 -1.6658  1.3280 -0.0216
 3438TIP3   OH231948   5.074   0.968   1.544  0.0460 -0.0292 -0.2962
 3438TIP3    H131949   5.135   0.950   1.615  0.9666  0.4765 -0.9370
 3438TIP3    H231950   5.070   1.064   1.540 -1.5871 -0.0278  0.3828
 3439TIP3   OH231951   1.355   4.490   2.069  0.4757  0.5704  0.0517
 3439TIP3    H131952   1.449   4.506   2.065  0.3824  0.8657 -1.4364
 3439TIP3    H231953   1.342   4.444   2.152  2.0289 -0.2257 -0.1186
 3440TIP3   OH231954   6.321   2.170   2.280  0.5347 -0.4038 -0.2841
 3440TIP3    H131955   6.410   2.161   2.247  1.3967 -0.4429  1.9549
 3440TIP3    H231956   6.317   2.260   2.314  0.1736 -0.8476  0.8801
 3441TIP3   OH231957   1.127   5.857   8.628 -0.3169 -0.5323 -0.2597
 3441TIP3    H131958   1.117   5.913   8.705  3.0425 -0.6271  0.4330
 3441TIP3    H231959   1.148   5.917   8.557  1.8353 -0.6701  0.1685
 3442TIP3   OH231960   5.097   4.366   8.252 -0.7653  0.7471 -0.4673
 3442TIP3    H131961   5.067   4.433   8.313 -1.4843 -0.3521  0.4379
 3442TIP3    H231962   5.173   4.405   8.209 -0.3534  1.6428  0.9889
 3443TIP3   OH231963   3.144   4.229   0.767 -0.1370 -0.3631  0.3105
 3443TIP3    H131964   3.121   4.321   0.751  0.6565 -0.0743  0.7652
 3443TIP3    H231965   3.070   4.194   0.816 -1.0200 -0.3210 -0.9324
 3444TIP3   OH231966   5.380   6.224   7.379  0.3031  0.2260 -0.5860
 3444TIP3    H131967   5.398   6.279   7.303 -0.1842  0.1398 -0.7704
 3444TIP3    H231968   5.303   6.173   7.354  0.8494 -0.6736 -0.4884
 3445TIP3   OH231969   3.796   0.517   0.913  0.3391 -0.0803  0.3247
 3445TIP3    H131970   3.839   0.530   0.997  3.4160  1.3223 -1.3068
 3445TIP3    H231971   3.846   0.447   0.870 -0.2746  0.1749 -0.8709
 3446TIP3   OH231972   3.017   6.288   2.039  0.0260 -0.2092  0.3370
 3446TIP3    H131973   2.923   6.295   2.055 -0.1918 -1.2509 -0.4160
 3446TIP3    H231974   3.025   6.224   1.969  1.2451  0.6947 -0.3809
 3447TIP3   OH231975   2.826   4.456   7.626 -0.2757  0.4158  0.5575
 3447TIP3    H131976   2.843   4.496   7.541  0.2144  0.1907  0.5457
 3447TIP3    H231977   2.908   4.468   7.675  0.3982 -1.7705  0.0766
 3448TIP3   OH231978   4.525   3.038   8.150  0.5171 -0.3838  0.0844
 3448TIP3    H131979   4.485   3.081   8.075  0.8764  3.1288  1.6915
 3448TIP3    H231980   4.556   3.110   8.206  1.2142 -2.7790  3.1052
 3449TIP3   OH231981   3.026   2.135   7.471  0.0643  0.8618 -0.1988
 3449TIP3    H131982   2.998   2.150   7.380  2.5032 -0.6768 -1.3260
 3449TIP3    H231983   2.945   2.127   7.520 -1.5082 -1.3659 -2.8235
 3450TIP3   OH231984   0.881   4.974   0.007 -0.4394 -0.1829  0.2593
 3450TIP3    H131985   0.802   4.935   0.045 -0.4401 -0.1508  0.2911
 3450TIP3    H231986   0.944   4.974   0.080  1.0610 -4.1850 -0.7271
 3451TIP3   OH231987   6.535   1.801   1.042  0.4080 -0.3938  0.0287
 3451TIP3    H131988   6.462   1.751   1.077 -0.8432  1.2876 -0.0187
 3451TIP3    H231989   6.549   1.766   0.954  1.7589 -2.7902  1.1216
 3452TIP3   OH231990   5.892   5.412   0.986  0.0257  0.9153 -0.2145
 3452TIP3    H131991   5.927   5.414   1.075 -1.4126  1.1498  0.3731
 3452TIP3    H231992   5.969   5.407   0.930  0.9358  0.1377  1.0610
 3453TIP3   OH231993   1.727   1.497   7.739 -0.0024  0.0012 -0.1480
 3453TIP3    H131994   1.717   1.592   7.746 -1.4422 -0.1084 -0.3172
 3453TIP3    H231995   1.792   1.484   7.669  0.3510  0.8563  0.0137
 3454TIP3   OH231996   5.574   6.210   0.890 -0.0909 -0.4299  0.0109
 3454TIP3    H131997   5.501   6.210   0.952 -0.0727 -1.3945  0.0450
 3454TIP3    H231998   5.604   6.119   0.888  0.7306 -0.1626 -0.4533
 3455TIP3   OH231999   5.445   1.074   1.521 -0.2062 -0.4543  0.1322
 3455TIP3    H132000   5.479   1.007   1.461 -0.9674 -1.0588  0.3580
 3455TIP3    H232001   5.497   1.063   1.600  1.1612  0.6936 -0.5644
 3456TIP3   OH232002   2.681   6.632   7.947 -0.4480 -0.1216  0.0881
 3456TIP3    H132003   2.732   6.645   8.027  1.6118 -0.3725 -1.1100
 3456TIP3    H232004   2.607   6.578   7.975 -0.1446  0.3475  1.9352
 3457TIP3   OH232005   5.117   1.943   8.435  0.3264 -0.2905 -0.0050
 3457TIP3    H132006   5.172   1.999   8.489 -0.0065 -0.4424  0.4995
 3457TIP3    H232007   5.027   1.967   8.460  0.1574  0.0287 -0.8844
 3458TIP3   OH232008   0.630   3.522   1.496 -0.4741  0.3018  0.1506
 3458TIP3    H132009   0.693   3.569   1.441  0.6746 -1.2553  0.0628
 3458TIP3    H232010   0.677   3.445   1.526 -2.1253 -0.5461  0.7015
 3459TIP3   OH232011   4.802   0.843   8.624 -0.4760 -0.0266 -0.3921
 3459TIP3    H132012   4.740   0.843   8.551 -2.0989 -0.0644  0.9178
 3459TIP3    H232013   4.792   0.930   8.664 -0.7494 -0.5204  0.6610
 3460TIP3   OH232014   5.292   3.371   0.125 -0.1634 -0.3221 -0.1187
 3460TIP3    H132015   5.327   3.319   0.053  3.1522  1.5013 -0.0094
 3460TIP3    H232016   5.296   3.461   0.093 -1.3756  0.2777  1.3333
 3461TIP3   OH232017   2.451   4.616   7.774  0.7515  0.4276  0.5453
 3461TIP3    H132018   2.374   4.566   7.750  1.0779  0.1391  0.0800
 3461TIP3    H232019   2.484   4.573   7.853 -0.1134  1.1519  1.3179
 3462TIP3   OH232020   4.524   2.182   1.662 -0.3241 -0.0783 -0.2215
 3462TIP3    H132021   4.511   2.256   1.721 -1.8785 -0.2315 -0.3274
 3462TIP3    H232022   4.606   2.142   1.691 -0.5512  0.4302  1.1967
 3463TIP3   OH232023   2.374   2.616   8.513  0.7773  0.0790 -0.2985
 3463TIP3    H132024   2.331   2.613   8.427 -2.0933  0.8667  0.9874
 3463TIP3    H232025   2.377   2.710   8.534  0.6691 -0.1598  0.8073
 3464TIP3   OH232026   2.995   5.049   2.392  0.0302  0.0128 -0.1267
 3464TIP3    H132027   2.983   4.957   2.418 -1.0676  0.7101  2.1097
 3464TIP3    H232028   2.942   5.058   2.313 -2.2596 -0.6524  1.2238
 3465TIP3   OH232029   2.484   2.112   2.041  0.0750 -0.1929  0.3258
 3465TIP3    H132030   2.436   2.106   2.124  1.1242  1.3629  1.0956
 3465TIP3    H232031   2.505   2.021   2.019 -1.9695 -0.8109  0.6758
 3466TIP3   OH232032   1.613   2.086   7.650 -0.2797 -0.0080 -0.0401
 3466TIP3    H132033   1.571   2.005   7.679  0.6284 -0.3531  0.3283
 3466TIP3    H232034   1.647   2.066   7.563 -0.3192  0.0794 -0.0765
 3467TIP3   OH232035   4.146   6.114   7.936 -0.1434 -0.2118  0.1225
 3467TIP3    H132036   4.189   6.077   8.012  0.6027  0.8920  0.2533
 3467TIP3    H232037   4.103   6.039   7.894 -0.4077 -0.8673  1.4994
 3468TIP3   OH232038   3.097   0.057   8.361 -0.4053  0.5443  0.2995
 3468TIP3    H132039   3.046   0.105   8.296  0.6661 -1.4530 -2.2005
 3468TIP3    H232040   3.180   0.105   8.366 -0.9546  1.4296  1.2157
 3469TIP3   OH232041   5.711   5.782   8.222  0.2853 -0.4585 -0.4108
 3469TIP3    H132042   5.746   5.783   8.133 -0.7340 -3.4262 -0.9622
 3469TIP3    H232043   5.788   5.776   8.278  0.9342  1.3415 -1.0331
 3470TIP3   OH232044   5.543   3.249   0.853 -0.4580  0.2275 -0.4994
 3470TIP3    H132045   5.498   3.280   0.775 -0.0256 -0.4079 -1.0169
 3470TIP3    H232046   5.636   3.249   0.829 -0.1095  1.8192  0.6516
 3471TIP3   OH232047   6.898   5.368   1.226 -0.1195  0.3916  0.1297
 3471TIP3    H132048   6.938   5.281   1.236 -0.8952  0.2177  2.0351
 3471TIP3    H232049   6.971   5.429   1.239 -0.0686  0.0462  1.5808
 3472TIP3   OH232050   3.685   5.436   1.196  0.5607 -0.6768 -0.4926
 3472TIP3    H132051   3.704   5.402   1.284  0.2465 -0.3945 -0.3165
 3472TIP3    H232052   3.628   5.370   1.156 -1.9918  0.6958  0.6833
 3473TIP3   OH232053   4.951   1.067   6.914 -0.2286  0.4942  0.0760
 3473TIP3    H132054   4.866   1.039   6.949 -1.1176  2.3309 -0.4671
 3473TIP3    H232055   4.975   0.997   6.853 -1.3611 -0.0784  0.2518
 3474TIP3   OH232056   2.039   0.962   0.182 -0.0372  0.1994 -0.2400
 3474TIP3    H132057   2.073   0.900   0.247  1.0801  0.7815 -0.2322
 3474TIP3    H232058   1.952   0.985   0.213  0.4254  0.3606  0.9811
 3475TIP3   OH232059   2.421   4.378   0.234  0.4909 -0.0874 -0.0719
 3475TIP3    H132060   2.439   4.472   0.229 -1.0456  0.1449 -3.5743
 3475TIP3    H232061   2.495   4.337   0.189  1.2186 -0.6786  1.5503
 3476TIP3   OH232062   6.206   1.373   0.681  0.5639 -0.3251 -0.5139
 3476TIP3    H132063   6.217   1.467   0.690 -1.0930 -0.1926  0.5225
 3476TIP3    H232064   6.273   1.335   0.737  0.6200  0.2550 -0.1852
 3477TIP3   OH232065   0.898   5.765   8.476  1.0229  0.2272 -0.3750
 3477TIP3    H132066   0.970   5.808   8.522 -0.6443  0.1278  2.5894
 3477TIP3    H232067   0.910   5.671   8.496  0.4305  0.1551 -0.3510
 3478TIP3   OH232068   4.503   2.162   1.197 -0.1473  0.1602  1.0111
 3478TIP3    H132069   4.453   2.130   1.272  0.2737 -0.6018  0.9695
 3478TIP3    H232070   4.540   2.084   1.157  0.4030  0.6442  0.5524
 3479TIP3   OH232071   2.206   4.838   2.532 -0.5398 -0.4037  0.5108
 3479TIP3    H132072   2.127   4.795   2.499 -1.7387  1.2050  1.1437
 3479TIP3    H232073   2.206   4.924   2.489 -0.5171  0.5742  2.3719
 3480TIP3   OH232074   6.206   4.222   0.873  0.0346  0.4351 -0.2940
 3480TIP3    H132075   6.212   4.127   0.871 -1.0247  0.3641 -0.4500
 3480TIP3    H232076   6.139   4.241   0.939  2.5838  1.2218  2.3275
 3481TIP3   OH232077   4.021   5.238   0.023 -0.5897 -0.0372  0.2120
 3481TIP3    H132078   3.954   5.289  -0.022  0.8494  1.5298 -0.3213
 3481TIP3    H232079   4.054   5.298   0.090  1.7475  0.1418 -0.9831
 3482TIP3   OH232080   2.180   2.166   1.871  0.3162  0.3016  0.0054
 3482TIP3    H132081   2.165   2.148   1.964  2.0592 -0.9531  0.0904
 3482TIP3    H232082   2.202   2.259   1.867  1.0257  0.1898  0.9790
 3483TIP3   OH232083   3.800   5.360   8.591 -0.0587  0.0141  0.2118
 3483TIP3    H132084   3.755   5.424   8.536  0.4520 -0.5716 -0.9260
 3483TIP3    H232085   3.730   5.322   8.645 -0.2835  1.8647  1.2912
 3484TIP3   OH232086   1.273   6.604   6.007  0.0953  0.1216 -0.2089
 3484TIP3    H132087   1.226   6.540   5.955  0.7495 -0.5620  0.0124
 3484TIP3    H232088   1.228   6.605   6.091  0.8367 -1.0079  0.2240
 3485TIP3   OH232089   5.594   2.027   1.453 -0.1185  0.3235 -0.3542
 3485TIP3    H132090   5.531   2.015   1.382 -0.7842 -0.4340  0.3439
 3485TIP3    H232091   5.558   1.977   1.526  0.9546  0.4388  0.2775
 3486TIP3   OH232092   0.576   2.515   1.281 -0.2847  0.3566  0.1928
 3486TIP3    H132093   0.667   2.488   1.285 -0.3185  0.1374 -0.4672
 3486TIP3    H232094   0.577   2.605   1.316  0.1171  0.2213  0.5445
 3487TIP3   OH232095   6.646   0.259   8.182  0.5757 -0.2071  0.2698
 3487TIP3    H132096   6.557   0.226   8.167  1.1343 -2.1176  0.8616
 3487TIP3    H232097   6.695   0.234   8.105  0.7948  0.1754  0.2786
 3488TIP3   OH232098   3.494   1.004   2.405  0.7692  0.0463  0.2988
 3488TIP3    H132099   3.483   1.049   2.489  3.9055  0.7659  0.4496
 3488TIP3    H232100   3.475   0.912   2.424 -2.1567  0.6706  0.8483
 3489TIP3   OH232101   3.642   4.739   0.426 -0.0636 -0.2189 -0.1502
 3489TIP3    H132102   3.599   4.683   0.361  0.0514 -1.1830  0.5640
 3489TIP3    H232103   3.635   4.827   0.391  2.6995 -0.9608 -3.0173
 3490TIP3   OH232104   1.375   2.364   0.447  0.0626  0.6454  0.5170
 3490TIP3    H132105   1.399   2.382   0.356 -2.8418  1.6577 -0.1499
 3490TIP3    H232106   1.352   2.271   0.448  1.6337  0.2357  0.6371
 3491TIP3   OH232107   1.007   4.352   7.249 -0.4124 -0.3247 -0.1822
 3491TIP3    H132108   1.039   4.413   7.315  1.0059 -0.4973 -0.6710
 3491TIP3    H232109   0.934   4.398   7.207 -0.0446  0.6013  0.1634
 3492TIP3   OH232110   4.536   1.485   0.273 -0.2683 -0.6190  0.2139
 3492TIP3    H132111   4.532   1.546   0.199 -2.1527 -0.8055  0.1218
 3492TIP3    H232112   4.567   1.538   0.347  0.7687 -0.2265 -0.4827
 3493TIP3   OH232113   3.670   6.112   8.283  0.5923  0.2232  0.2895
 3493TIP3    H132114   3.758   6.137   8.257 -0.2683  1.2267 -1.9282
 3493TIP3    H232115   3.614   6.183   8.251 -1.1354 -0.9019  0.6582
 3494TIP3   OH232116   3.298   2.553   6.991  0.3387 -0.6236 -0.2492
 3494TIP3    H132117   3.263   2.604   6.918  0.1823 -1.5838 -0.8633
 3494TIP3    H232118   3.236   2.481   7.002  0.2735 -0.3993  0.9498
 3495TIP3   OH232119   3.468   0.412   7.496 -0.4145 -0.5535 -0.6931
 3495TIP3    H132120   3.454   0.334   7.442 -1.7070 -1.5077  0.9352
 3495TIP3    H232121   3.530   0.384   7.564 -1.0314 -0.2219  0.0148
 3496TIP3   OH232122   6.885   0.701   8.526  0.1507  0.1255 -0.4812
 3496TIP3    H132123   6.927   0.670   8.446  0.4499 -0.3397 -0.1506
 3496TIP3    H232124   6.847   0.785   8.502 -1.7768 -1.0209 -1.7477
 3497TIP3   OH232125   3.886   5.549   7.697  0.2929  0.3867  0.3659
 3497TIP3    H132126   3.942   5.615   7.736  0.7674  0.0078  0.3327
 3497TIP3    H232127   3.898   5.471   7.752  2.5258 -0.8041 -1.5900
 3498TIP3   OH232128   6.631   3.467   2.139  0.5342 -0.7246  0.0247
 3498TIP3    H132129   6.574   3.477   2.216  0.5640 -1.2983  0.1202
 3498TIP3    H232130   6.579   3.503   2.067  0.7815  0.4838  0.4261
 3499TIP3   OH232131   3.275   5.754   2.078  0.3634  0.5970 -0.0487
 3499TIP3    H132132   3.367   5.728   2.069  0.1322 -0.3722  0.2709
 3499TIP3    H232133   3.275   5.820   2.147  0.6580 -0.3757  0.9015
 3500TIP3   OH232134   5.098   0.324   2.656  0.9074  0.0432 -0.3790
 3500TIP3    H132135   5.126   0.245   2.609  3.0287  0.6293 -0.2303
 3500TIP3    H232136   5.171   0.343   2.714  0.0734  1.6669  0.1788
 3501TIP3   OH232137   4.330   1.374   8.610 -0.4792 -0.1484 -0.2638
 3501TIP3    H132138   4.407   1.349   8.558  0.4569 -0.4047  1.2055
 3501TIP3    H232139   4.257   1.328   8.568 -0.1202  1.1626 -2.5289
 3502TIP3   OH232140   5.727   0.283   8.152  0.2889 -0.0130 -0.2535
 3502TIP3    H132141   5.705   0.244   8.237  0.3875 -1.8144 -1.0115
 3502TIP3    H232142   5.643   0.293   8.107  0.3292 -0.0054 -0.3288
 3503TIP3   OH232143   6.200   0.955   0.790 -0.3021 -0.2320 -0.1494
 3503TIP3    H132144   6.234   0.872   0.757 -0.0411  0.0950 -0.7056
 3503TIP3    H232145   6.158   0.996   0.715  0.8900  0.8253 -0.2611
 3504TIP3   OH232146   0.602   5.862   0.995  0.0519  0.1363  0.1230
 3504TIP3    H132147   0.536   5.807   0.953  0.6258 -0.5698  0.1162
 3504TIP3    H232148   0.604   5.942   0.943 -0.5092 -0.0014 -0.1180
 3505TIP3   OH232149   3.768   4.882   1.050 -0.6171 -0.5108  0.0027
 3505TIP3    H132150   3.802   4.797   1.021  1.6007 -0.2064  1.4719
 3505TIP3    H232151   3.794   4.888   1.142 -2.7080  0.8295  0.5650
 3506TIP3   OH232152   3.468   6.430   1.459  0.0916  0.0536 -0.0540
 3506TIP3    H132153   3.508   6.492   1.520  1.6569  1.6396 -2.4963
 3506TIP3    H232154   3.528   6.355   1.457  1.2491  0.9673 -1.2029
 3507TIP3   OH232155   5.772   2.325   0.735  0.5273  0.1061  0.2960
 3507TIP3    H132156   5.703   2.354   0.675  0.4452 -0.2467  0.2151
 3507TIP3    H232157   5.782   2.232   0.717  0.0597 -0.1457  1.2758
 3508TIP3   OH232158   4.381   3.300   7.250  0.0323  0.6942  0.1833
 3508TIP3    H132159   4.326   3.372   7.279 -1.8919  1.1144 -3.7599
 3508TIP3    H232160   4.341   3.222   7.286 -0.4697  1.3154  0.9879
 3509TIP3   OH232161   3.639   0.843   8.625 -0.5285 -0.5539  0.1987
 3509TIP3    H132162   3.637   0.884   8.539 -0.7599  0.5226  0.6939
 3509TIP3    H232163   3.619   0.914   8.686 -2.4680 -1.7181  0.9991
 3510TIP3   OH232164   2.270   4.609   0.003  0.5682  0.1038 -0.0918
 3510TIP3    H132165   2.261   4.688  -0.050  0.9033  0.6384  0.6346
 3510TIP3    H232166   2.286   4.539  -0.061 -0.6848  0.4389 -0.8154
 3511TIP3   OH232167   4.481   5.836   8.372 -0.0819 -0.0580  0.4633
 3511TIP3    H132168   4.573   5.815   8.385  0.1532  0.3416 -0.4364
 3511TIP3    H232169   4.435   5.752   8.379  0.3720 -0.2843  0.7251
 3512TIP3   OH232170   4.983   5.591   1.499  0.4362 -0.0651 -0.1311
 3512TIP3    H132171   5.005   5.582   1.407  0.7068  0.4633 -0.1252
 3512TIP3    H232172   5.066   5.612   1.542  0.2591  0.0068  0.1833
 3513TIP3   OH232173   1.426   2.320   2.003  0.0939  0.6084 -0.3887
 3513TIP3    H132174   1.336   2.351   1.993 -0.2107 -0.5435 -1.4006
 3513TIP3    H232175   1.481   2.396   1.980 -0.5368  2.0435  2.3797
 3514TIP3   OH232176   0.974   1.723   0.519 -0.3944  0.1760 -0.2153
 3514TIP3    H132177   0.894   1.735   0.569  0.1601  0.1521  0.7043
 3514TIP3    H232178   0.985   1.628   0.513 -1.0213  0.1546 -1.3323
 3515TIP3   OH232179   3.193   5.787   1.399 -0.0958  0.0487 -0.4932
 3515TIP3    H132180   3.131   5.730   1.353 -0.1824  0.3798 -0.7877
 3515TIP3    H232181   3.265   5.729   1.422  0.4344  0.0863 -1.9715
 3516TIP3   OH232182   0.860   0.764   0.523 -0.4717 -0.0897 -0.6846
 3516TIP3    H132183   0.814   0.847   0.530  0.8017  0.5449  1.0910
 3516TIP3    H232184   0.794   0.698   0.544 -1.2391  0.5507 -1.0340
 3517TIP3   OH232185   3.147   6.743   2.731  0.2086  0.3892 -0.5192
 3517TIP3    H132186   3.158   6.772   2.641  0.8473  1.2740 -0.1808
 3517TIP3    H232187   3.150   6.824   2.782  0.0841 -0.1186  0.3096
 3518TIP3   OH232188   6.281   0.745   8.056  0.1747  0.7680 -0.1182
 3518TIP3    H132189   6.201   0.791   8.081 -1.7411 -1.4117 -1.7904
 3518TIP3    H232190   6.299   0.686   8.129  0.0308  1.0094  0.1132
 3519TIP3   OH232191   1.229   0.100   2.486  0.3738  0.3035 -0.0877
 3519TIP3    H132192   1.248   0.059   2.570  1.5839  0.3511 -0.3240
 3519TIP3    H232193   1.315   0.126   2.452 -0.0436 -0.2189 -1.5932
 3520TIP3   OH232194   1.951   4.564   6.714  0.7337  0.2955 -0.2254
 3520TIP3    H132195   2.014   4.604   6.773  0.7436  1.4069 -0.9594
 3520TIP3    H232196   1.971   4.470   6.716  0.1895  0.1753  2.1546
 3521TIP3   OH232197   0.107   2.352   0.381  0.4212 -0.2132  0.3878
 3521TIP3    H132198   0.092   2.285   0.314  0.7186 -0.0524  0.1598
 3521TIP3    H232199   0.072   2.314   0.461  0.1252 -0.4370  0.1551
 3522TIP3   OH232200   0.943   3.127   0.640  0.2404 -0.0735 -0.0312
 3522TIP3    H132201   0.900   3.055   0.594  0.2587 -0.6407  0.8148
 3522TIP3    H232202   1.015   3.085   0.688  1.4586  0.7913 -1.0354
 3523TIP3   OH232203   0.485   4.530   7.687  0.1928 -0.3570  0.5417
 3523TIP3    H132204   0.435   4.578   7.752 -1.5029 -0.4481 -0.6399
 3523TIP3    H232205   0.575   4.560   7.700 -0.5538  1.9530  0.8878
 3524TIP3   OH232206   2.230   6.361   0.537 -0.2848 -0.7880  0.2694
 3524TIP3    H132207   2.223   6.338   0.629 -0.9492  0.7169  0.6232
 3524TIP3    H232208   2.254   6.454   0.537 -0.0089 -0.8413 -1.0717
 3525TIP3   OH232209   2.844   6.071   3.077  0.3116 -0.8706  0.6606
 3525TIP3    H132210   2.781   6.143   3.089  0.9749 -0.5045  2.2349
 3525TIP3    H232211   2.902   6.102   3.007  0.1778 -0.1603  0.8472
 3526TIP3   OH232212   6.675   1.109   2.265 -0.2434  0.0101 -0.8013
 3526TIP3    H132213   6.760   1.094   2.306  0.2517 -0.8190 -2.0930
 3526TIP3    H232214   6.654   1.026   2.221 -1.7277  0.1971 -0.4966
 3527TIP3   OH232215   6.866   1.811   0.459 -0.4288  0.0370 -0.2581
 3527TIP3    H132216   6.811   1.732   0.452  0.4118 -0.6449  0.6557
 3527TIP3    H232217   6.828   1.860   0.532 -0.4210  0.0523 -0.2645
 3528TIP3   OH232218   5.514   5.645   0.503 -0.3087  0.0367 -0.5357
 3528TIP3    H132219   5.424   5.618   0.522  0.0025 -3.1963 -2.8950
 3528TIP3    H232220   5.520   5.733   0.539 -4.2948  0.2827 -0.0086
 3529TIP3   OH232221   6.472   3.577   1.658  0.2899  0.3860  0.0559
 3529TIP3    H132222   6.549   3.578   1.601  1.1659 -1.0158  1.1543
 3529TIP3    H232223   6.407   3.526   1.610  0.4009  0.6767 -0.4159
 3530TIP3   OH232224   3.660   5.261   7.968  0.1038 -0.2208 -0.3771
 3530TIP3    H132225   3.739   5.252   8.021  0.2233  1.3855 -0.2451
 3530TIP3    H232226   3.667   5.193   7.901  1.0677 -0.7729  0.2686
 3531TIP3   OH232227   2.456   4.095   0.022  0.3111  0.1858 -0.4696
 3531TIP3    H132228   2.528   4.098   0.085 -0.5505  2.6112  0.5015
 3531TIP3    H232229   2.378   4.116   0.073 -0.9211 -1.0853 -1.7480
 3532TIP3   OH232230   0.483   3.901   6.665  0.6108 -0.2689 -0.4568
 3532TIP3    H132231   0.510   3.910   6.574  1.7873  1.0712 -0.0198
 3532TIP3    H232232   0.563   3.876   6.712  0.4445  0.7689  0.4332
 3533TIP3   OH232233   1.918   6.279   1.544  0.0193  0.2259 -0.6702
 3533TIP3    H132234   1.843   6.224   1.564 -0.7108  0.7621 -1.8162
 3533TIP3    H232235   1.884   6.344   1.482  0.7976  2.0980  0.7797
 3534TIP3   OH232236   0.797   1.733   6.928 -0.1566 -0.0821  0.0551
 3534TIP3    H132237   0.801   1.766   6.839  0.9870 -1.7067 -0.5516
 3534TIP3    H232238   0.767   1.642   6.918 -1.7479  0.2349  1.4989
 3535TIP3   OH232239   3.769   4.641   0.877 -0.0366 -0.0452  0.6195
 3535TIP3    H132240   3.716   4.658   0.799 -0.4056  0.9625  1.0710
 3535TIP3    H232241   3.748   4.551   0.900  0.2790 -0.4486 -0.5860
 3536TIP3   OH232242   4.640   4.896   7.478 -0.1035  0.5046  0.3985
 3536TIP3    H132243   4.641   4.805   7.507  2.0758  0.1637 -0.5242
 3536TIP3    H232244   4.675   4.893   7.389  1.9631  2.4246  1.0665
 3537TIP3   OH232245   5.151   5.880   2.546  0.3148  0.6767  0.7700
 3537TIP3    H132246   5.149   5.793   2.585 -1.0062  0.7820  0.9789
 3537TIP3    H232247   5.069   5.886   2.496  0.7842  1.4830  0.0643
 3538TIP3   OH232248   0.183   3.861   2.264 -0.5504  0.2253 -0.2850
 3538TIP3    H132249   0.214   3.948   2.288 -0.3302  0.7592 -2.2888
 3538TIP3    H232250   0.089   3.872   2.251 -0.4149  0.3960 -1.2732
 3539TIP3   OH232251   4.040   2.833   7.302 -0.4430  0.5673  0.8195
 3539TIP3    H132252   4.067   2.760   7.358  1.2039 -1.3157 -2.1365
 3539TIP3    H232253   3.949   2.815   7.280  0.3269 -1.5564 -1.0016
 3540TIP3   OH232254   4.623   5.291   6.729 -0.4259  0.1078 -0.5194
 3540TIP3    H132255   4.556   5.254   6.671  0.2118 -2.0932  0.0340
 3540TIP3    H232256   4.600   5.384   6.736 -0.9499  0.3513 -3.7005
 3541TIP3   OH232257   4.099   3.382   7.102 -0.1914  0.0503 -0.0432
 3541TIP3    H132258   4.103   3.413   7.192  0.2901 -0.8648  0.2702
 3541TIP3    H232259   4.054   3.451   7.054  0.5772  1.0755  0.6681
 3542TIP3   OH232260   2.211   0.758   2.373 -0.7224  0.5684  0.0139
 3542TIP3    H132261   2.153   0.781   2.446  0.1016 -1.3990  1.3866
 3542TIP3    H232262   2.294   0.799   2.395 -0.2907 -0.5526  0.5684
 3543TIP3   OH232263   5.182   4.835   1.555 -0.4621  0.2308  0.1311
 3543TIP3    H132264   5.142   4.914   1.592 -0.3895 -0.1119  0.9592
 3543TIP3    H232265   5.164   4.841   1.461  0.3536  1.7086  0.0408
 3544TIP3   OH232266   2.713   0.432   1.074 -0.1153  0.1768  0.0708
 3544TIP3    H132267   2.617   0.436   1.073 -0.1197  0.0326 -0.6234
 3544TIP3    H232268   2.740   0.524   1.078 -0.2756  0.1800  1.8910
 3545TIP3   OH232269   3.081   1.825   8.025  0.6040  0.4606  0.3035
 3545TIP3    H132270   3.066   1.850   8.116 -0.6545 -0.6966  0.4542
 3545TIP3    H232271   2.995   1.796   7.994  0.8162  1.6095 -1.5185
 3546TIP3   OH232272   5.142   0.034   8.523  0.1638  0.0325 -0.2054
 3546TIP3    H132273   5.213  -0.029   8.538  0.4128  0.5717  0.9916
 3546TIP3    H232274   5.070  -0.019   8.490  1.7114 -0.2846 -3.5037
 3547TIP3   OH232275   4.140   2.172   0.934  0.5646 -0.2544  0.0825
 3547TIP3    H132276   4.109   2.259   0.910 -0.4097 -0.9563 -1.3068
 3547TIP3    H232277   4.235   2.178   0.929  0.5516  0.9232  0.7751
 3548TIP3   OH232278   6.745   6.169   8.410  0.1503 -0.4237 -0.6247
 3548TIP3    H132279   6.746   6.091   8.355 -0.0272 -1.8107  1.2300
 3548TIP3    H232280   6.652   6.191   8.420 -0.0001 -1.5462  0.8646
 3549TIP3   OH232281   2.780   1.404   8.602  0.2550 -0.0587  0.3673
 3549TIP3    H132282   2.688   1.405   8.629 -0.0381 -0.5100 -0.5784
 3549TIP3    H232283   2.798   1.312   8.583 -0.6348  0.4856 -4.4083
 3550TIP3   OH232284   4.746   5.132   2.432 -0.1744 -0.6403  0.2192
 3550TIP3    H132285   4.744   5.107   2.525  0.6468 -1.3224  0.0601
 3550TIP3    H232286   4.654   5.131   2.406 -0.3895 -0.7522  0.9499
 3551TIP3   OH232287   5.429   1.699   1.146  0.5208  0.7302  0.0277
 3551TIP3    H132288   5.515   1.723   1.181  0.7988  0.5472 -0.5284
 3551TIP3    H232289   5.403   1.623   1.198  0.5784  0.9435  0.3727
 3552TIP3   OH232290   4.042   0.396   2.524 -0.5728 -0.1213 -0.1661
 3552TIP3    H132291   4.114   0.333   2.521 -0.0429  0.4009  0.9479
 3552TIP3    H232292   4.080   0.473   2.566 -2.2187 -0.4290  2.0530
 3553TIP3   OH232293   2.831   5.221   2.121 -0.7471  0.1926  0.5178
 3553TIP3    H132294   2.787   5.136   2.126 -0.9924  0.3670  1.5925
 3553TIP3    H232295   2.924   5.199   2.122 -0.6674 -0.0457  4.1864
 3554TIP3   OH232296   1.433   4.405   8.192  0.2550 -0.0900  0.2765
 3554TIP3    H132297   1.372   4.467   8.152 -1.1123 -1.4721  0.1126
 3554TIP3    H232298   1.463   4.449   8.272  1.7683  2.0399 -1.3491
 3555TIP3   OH232299   6.616   0.905   7.268 -0.1722  0.3298  0.2433
 3555TIP3    H132300   6.562   0.984   7.268  0.5803  0.8771 -0.9466
 3555TIP3    H232301   6.554   0.833   7.257 -0.7104  0.9064 -0.6567
 3556TIP3   OH232302   0.470   0.144   1.331 -0.7041 -0.1647  0.0737
 3556TIP3    H132303   0.492   0.161   1.423 -1.3375  1.3189 -0.0129
 3556TIP3    H232304   0.501   0.222   1.285 -1.7303 -0.2134 -0.7332
 3557TIP3   OH232305   3.576   3.277   0.280 -0.2969  0.1461  0.1090
 3557TIP3    H132306   3.657   3.318   0.310  0.6084  0.4034 -2.4820
 3557TIP3    H232307   3.526   3.349   0.241 -1.1369 -0.2938  0.3443
 3558TIP3   OH232308   1.181   0.344   7.599 -0.4316 -0.0530 -0.1976
 3558TIP3    H132309   1.127   0.412   7.558  1.4169  0.6834 -1.5376
 3558TIP3    H232310   1.180   0.272   7.537 -0.1775 -0.1763 -0.0618
 3559TIP3   OH232311   4.670   2.783   7.166 -0.3619  0.0860 -0.0491
 3559TIP3    H132312   4.705   2.762   7.080  0.1471  0.3270  0.0923
 3559TIP3    H232313   4.691   2.707   7.220 -0.5665 -0.0105 -0.1049
 3560TIP3   OH232314   4.641   1.642   7.262  0.3107 -0.8584  0.0102
 3560TIP3    H132315   4.565   1.651   7.321 -0.0296  0.4227 -0.6000
 3560TIP3    H232316   4.651   1.728   7.222  0.0645 -1.8526 -2.3758
 3561TIP3   OH232317   0.283   1.093   7.347  0.0441 -0.6291  0.6094
 3561TIP3    H132318   0.214   1.129   7.291 -1.0576  0.0372  2.3207
 3561TIP3    H232319   0.364   1.121   7.305 -0.7491  2.1090  0.7049
 3562TIP3   OH232320   3.088   1.786   2.390 -0.3215  0.0625 -0.2443
 3562TIP3    H132321   3.098   1.801   2.296 -1.1435 -1.2023 -0.5640
 3562TIP3    H232322   2.994   1.788   2.405 -0.1454  2.0374  0.9060
 3563TIP3   OH232323   2.148   0.470   7.130 -0.0353 -0.6886  0.8264
 3563TIP3    H132324   2.098   0.551   7.119  0.3717 -0.3831  1.1664
 3563TIP3    H232325   2.091   0.402   7.095 -0.4287 -0.2707  0.6307
 3564TIP3   OH232326   4.121   4.510   7.086 -0.2626  0.1895 -0.5695
 3564TIP3    H132327   4.055   4.443   7.069  0.4854 -0.6538 -0.2122
 3564TIP3    H232328   4.131   4.511   7.181  1.6758 -1.1500 -0.6963
 3565TIP3   OH232329   1.457   1.723   1.477  0.0929 -0.6240 -0.0689
 3565TIP3    H132330   1.503   1.646   1.443 -0.7567 -0.6105 -1.2962
 3565TIP3    H232331   1.527   1.786   1.496  0.6944 -1.1723 -0.4292
 3566TIP3   OH232332   1.212   0.327   1.886 -0.0349 -0.3569 -0.0951
 3566TIP3    H132333   1.283   0.268   1.909 -0.5760 -0.5600  1.1402
 3566TIP3    H232334   1.153   0.275   1.832 -1.4621 -1.6272  2.4842
 3567TIP3   OH232335   4.703   6.054   1.568  0.4113 -0.0501 -0.0164
 3567TIP3    H132336   4.764   6.026   1.637  0.6123 -1.8531 -0.8723
 3567TIP3    H232337   4.675   6.142   1.595  2.7908  0.5341  0.8063
 3568TIP3   OH232338   3.159   4.896   1.321 -0.1254 -0.1944 -1.2420
 3568TIP3    H132339   3.138   4.806   1.345 -1.7418  0.1996 -1.0567
 3568TIP3    H232340   3.211   4.888   1.241  2.2009 -1.3690  0.2651
 3569TIP3   OH232341   0.038   3.121   7.237  0.1070 -0.2349  0.4172
 3569TIP3    H132342   0.080   3.037   7.222  0.4926  0.1421 -0.6856
 3569TIP3    H232343  -0.055   3.106   7.219  0.3652 -0.1181 -1.1575
 3570TIP3   OH232344   2.943   4.990   1.813  0.2957  0.5928  0.3112
 3570TIP3    H132345   2.943   5.008   1.719  0.9422  0.1195  0.2060
 3570TIP3    H232346   2.852   5.000   1.841 -0.1582 -0.6314 -0.6397
 3571TIP3   OH232347   3.384   3.028   1.870 -0.0169  0.1811  0.6605
 3571TIP3    H132348   3.319   3.081   1.824 -1.4357  0.4598  2.8336
 3571TIP3    H232349   3.334   2.954   1.906  1.0241 -0.0648  1.6716
 3572TIP3   OH232350   2.320   3.474   1.949  0.3136 -0.4136 -0.1074
 3572TIP3    H132351   2.227   3.480   1.970  0.3865 -1.1805  0.4561
 3572TIP3    H232352   2.355   3.410   2.010  1.1653 -0.3356 -0.4941
 3573TIP3   OH232353   4.563   0.946   0.954  0.1123  0.2378 -0.5593
 3573TIP3    H132354   4.593   1.019   0.900  0.9046 -0.1623 -0.6626
 3573TIP3    H232355   4.541   0.986   1.038  0.3975  0.6194 -0.6645
 3574TIP3   OH232356   5.494   5.606   6.956  0.2322  0.1094  0.4117
 3574TIP3    H132357   5.533   5.621   7.042 -1.0419 -0.0444  1.0423
 3574TIP3    H232358   5.565   5.623   6.894  1.6904 -1.4937  1.5439
 3575TIP3   OH232359   5.834   0.174   7.425  0.0606 -0.5422 -0.0495
 3575TIP3    H132360   5.816   0.109   7.492 -0.4079  0.3386  0.6988
 3575TIP3    H232361   5.848   0.255   7.473 -0.0426  0.0569 -1.0002
 3576TIP3   OH232362   4.159   0.842   1.788  0.4241 -0.1037 -0.1212
 3576TIP3    H132363   4.211   0.777   1.740  1.2921  0.8951 -0.5752
 3576TIP3    H232364   4.213   0.862   1.865  0.9525  1.2462 -0.8058
 3577TIP3   OH232365   0.889   0.544   7.926  0.1810  0.0935 -0.0962
 3577TIP3    H132366   0.943   0.469   7.902  1.4149  1.1402 -0.7549
 3577TIP3    H232367   0.872   0.589   7.844  0.1766  0.9870  0.3812
 3578TIP3   OH232368   1.723   4.808   0.084 -0.4074  0.2452  0.5114
 3578TIP3    H132369   1.738   4.902   0.072  0.6332  0.2765  1.7068
 3578TIP3    H232370   1.796   4.766   0.038  0.6325  0.1737  2.1154
 3579TIP3   OH232371   2.892   5.840   2.011  0.2981  0.0545  0.8986
 3579TIP3    H132372   2.967   5.839   1.952  0.1226 -1.4875  0.6423
 3579TIP3    H232373   2.848   5.756   1.994 -3.2318  2.0875 -1.1979
 3580TIP3   OH232374   4.566   4.042   0.281  0.2239  0.3558 -0.2276
 3580TIP3    H132375   4.486   3.996   0.253 -0.4751  0.8509  0.8999
 3580TIP3    H232376   4.557   4.130   0.243  0.5370  0.2365 -0.5945
 3581TIP3   OH232377   3.859   0.834   2.302 -0.2708  0.7691 -0.7265
 3581TIP3    H132378   3.776   0.789   2.320 -0.1739  1.1531  0.8068
 3581TIP3    H232379   3.847   0.921   2.339  1.3254  0.3664  0.8830
 3582TIP3   OH232380   1.628   4.936   1.467  0.6029 -0.4685 -0.0720
 3582TIP3    H132381   1.561   4.950   1.533  0.0290 -0.9719 -0.5347
 3582TIP3    H232382   1.687   5.011   1.476 -0.4969  0.4518 -0.2343
 3583TIP3   OH232383   5.240   6.337   8.325 -0.1544  0.2209 -0.5363
 3583TIP3    H132384   5.336   6.333   8.333 -0.2441 -1.0606  0.1593
 3583TIP3    H232385   5.225   6.372   8.237  0.9403  0.8994 -0.4839
 3584TIP3   OH232386   3.298   2.130   6.430  0.2444 -0.2998  0.0032
 3584TIP3    H132387   3.275   2.209   6.380  1.3124 -0.6797 -1.1627
 3584TIP3    H232388   3.363   2.086   6.375  0.9711 -1.0977  1.4517
 3585TIP3   OH232389   5.266   4.831   7.646 -0.4870  0.8331 -0.0716
 3585TIP3    H132390   5.247   4.804   7.736 -0.9478  1.2758 -0.0262
 3585TIP3    H232391   5.233   4.921   7.642  0.1802  1.0624 -0.4763
 3586TIP3   OH232392   5.533   5.938   8.424  0.0597  0.4013  0.7123
 3586TIP3    H132393   5.597   5.902   8.362  0.5425  0.8032  0.9741
 3586TIP3    H232394   5.581   5.948   8.506 -0.3575  0.6436  0.9316
 3587TIP3   OH232395   6.425   2.353   1.476  0.1615 -0.2933 -0.1840
 3587TIP3    H132396   6.480   2.426   1.447 -2.0203  1.5929  0.1286
 3587TIP3    H232397   6.485   2.279   1.484  3.5447  2.4201  3.7911
 3588TIP3   OH232398   2.575   4.694   1.694 -0.2146  0.1159  0.3007
 3588TIP3    H132399   2.623   4.638   1.633 -2.8093 -1.0822 -0.8353
 3588TIP3    H232400   2.565   4.777   1.648 -0.7672 -0.2439 -0.2418
 3589TIP3   OH232401   3.275   4.534   2.737 -0.1062  0.2559  0.1607
 3589TIP3    H132402   3.196   4.587   2.750 -0.7903 -0.6829  0.0039
 3589TIP3    H232403   3.324   4.580   2.670 -1.2694  0.1026 -0.8463
 3590TIP3   OH232404   5.240   3.454   7.462 -0.3563  0.0063 -0.4095
 3590TIP3    H132405   5.161   3.476   7.412 -0.3409  0.6836 -0.1453
 3590TIP3    H232406   5.208   3.435   7.550 -0.4137 -1.4670 -0.7373
 3591TIP3   OH232407   3.919   5.745   2.003 -0.2265  0.0602 -0.0082
 3591TIP3    H132408   3.997   5.696   2.027  0.7881  1.3026 -0.6227
 3591TIP3    H232409   3.946   5.798   1.928 -1.8141  0.1409 -0.5621
 3592TIP3   OH232410   2.030   1.823   1.417  0.8349  0.7043 -0.2474
 3592TIP3    H132411   2.012   1.729   1.409 -0.9989  0.9161  0.9472
 3592TIP3    H232412   2.122   1.832   1.390  0.7444 -1.2636 -1.3893
 3593TIP3   OH232413   0.188   5.578   0.416  0.0693 -0.1907  0.3630
 3593TIP3    H132414   0.160   5.670   0.418 -0.1314 -0.2155 -0.7200
 3593TIP3    H232415   0.106   5.528   0.416  0.1572 -0.3358 -0.2906
 3594TIP3   OH232416   4.985   1.733   1.997  0.1386 -0.3791 -0.5815
 3594TIP3    H132417   5.032   1.650   2.003  1.2471  0.2326 -0.6311
 3594TIP3    H232418   4.956   1.750   2.087  0.2679 -0.6079 -0.4957
 3595TIP3   OH232419   4.032   1.304   1.149  0.4199 -0.0231 -0.2622
 3595TIP3    H132420   4.085   1.333   1.074 -0.4260  2.1559 -0.0849
 3595TIP3    H232421   3.969   1.243   1.110 -0.1336  1.2181 -1.4009
 3596TIP3   OH232422   6.541   6.094   7.359 -0.0964  0.3165 -0.2755
 3596TIP3    H132423   6.538   6.092   7.264 -1.3654  3.0394 -0.3881
 3596TIP3    H232424   6.611   6.156   7.379  1.3812 -1.5538  0.6785
 3597TIP3   OH232425   5.018   0.653   7.738 -0.8443 -0.3168 -0.1171
 3597TIP3    H132426   4.954   0.631   7.806 -1.0249  0.1557 -0.1242
 3597TIP3    H232427   4.985   0.609   7.659  0.4299 -2.5206  0.5091
 3598TIP3   OH232428   3.496   2.241   1.840 -0.1294 -0.2506  0.1175
 3598TIP3    H132429   3.554   2.239   1.917 -0.0694 -2.8459  0.0991
 3598TIP3    H232430   3.504   2.153   1.803 -3.5662 -0.4993 -0.2794
 3599TIP3   OH232431   4.274   6.572   2.479  0.3262  0.1461 -0.0204
 3599TIP3    H132432   4.222   6.492   2.492 -0.9258  1.2509  2.6569
 3599TIP3    H232433   4.324   6.581   2.560  0.6351  1.9475 -0.3786
 3600TIP3   OH232434   4.690   1.731   2.008 -0.1928  0.0340  0.1007
 3600TIP3    H132435   4.598   1.716   2.028 -0.1251 -2.1341 -0.9798
 3600TIP3    H232436   4.731   1.743   2.094 -1.0699 -1.5959  0.7888
 3601TIP3   OH232437   3.498   3.096   7.569 -0.3173 -0.0054  0.8392
 3601TIP3    H132438   3.504   3.056   7.655 -1.2453  0.5137  1.1604
 3601TIP3    H232439   3.418   3.060   7.531  1.0319 -1.6853 -0.6036
 3602TIP3   OH232440   1.375   5.313   7.096 -0.6137  0.2925 -0.6749
 3602TIP3    H132441   1.447   5.373   7.076 -0.4662  0.1890 -0.4535
 3602TIP3    H232442   1.326   5.307   7.014 -0.0746 -0.0475 -0.9745
 3603TIP3   OH232443   0.701   2.422   7.196  0.1727  0.4542 -0.4110
 3603TIP3    H132444   0.622   2.367   7.206  0.4698  0.2894  1.3879
 3603TIP3    H232445   0.759   2.392   7.266  2.3139 -0.1581 -2.3351
 3604TIP3   OH232446   6.816   2.655   1.225 -0.5246  0.2574 -0.4032
 3604TIP3    H132447   6.894   2.656   1.281 -0.4318 -0.2360 -0.5214
 3604TIP3    H232448   6.843   2.699   1.145 -0.4509  0.3397 -0.3335
 3605TIP3   OH232449   2.050   6.689   0.865 -0.4233 -0.3338  0.5886
 3605TIP3    H132450   2.074   6.776   0.833  0.6127 -0.7513  0.1706
 3605TIP3    H232451   2.128   6.658   0.912 -0.1492 -1.6537 -0.6299
 3606TIP3   OH232452   5.289   2.357   1.215 -0.3884  0.4827  0.2722
 3606TIP3    H132453   5.284   2.359   1.119  0.3035  1.4830  0.2352
 3606TIP3    H232454   5.363   2.414   1.236  0.2220 -0.6573  1.3578
 3607TIP3   OH232455   0.892   3.617   1.096 -0.5489  0.0359  0.8325
 3607TIP3    H132456   0.971   3.563   1.108 -1.5808 -1.9032 -0.5273
 3607TIP3    H232457   0.919   3.705   1.123  2.7927  0.0255 -1.7973
 3608TIP3   OH232458   2.856   1.193   1.153 -0.0883  0.3459 -0.3166
 3608TIP3    H132459   2.915   1.266   1.132 -0.6916  0.9924  0.1747
 3608TIP3    H232460   2.903   1.142   1.218  0.1949  0.4955 -0.4003
 3609TIP3   OH232461   3.878   4.396   7.378 -0.3229  0.1314 -0.5124
 3609TIP3    H132462   3.851   4.331   7.442 -1.6860 -0.1508 -1.3460
 3609TIP3    H232463   3.916   4.345   7.306  2.6710  0.5035  0.6316
 3610TIP3   OH232464   0.098   2.615   7.074 -0.0379 -0.2860 -0.4329
 3610TIP3    H132465   0.064   2.537   7.030  1.6887 -0.8143 -0.9120
 3610TIP3    H232466   0.174   2.641   7.022  1.0808  0.0638  1.2895
 3611TIP3   OH232467   3.320   5.670   8.017 -0.1836 -0.7000 -0.0347
 3611TIP3    H132468   3.247   5.626   7.974 -0.0069 -0.5283 -0.5099
 3611TIP3    H232469   3.398   5.632   7.977 -0.0277  0.2703 -0.6733
 3612TIP3   OH232470   3.549   5.875   0.015  0.0118  0.0055  0.2534
 3612TIP3    H132471   3.528   5.961   0.054 -0.2458  1.0093 -1.9545
 3612TIP3    H232472   3.628   5.891  -0.036 -0.2811 -0.9710 -0.5213
 3613TIP3   OH232473   5.081   5.188   1.351  0.8044  0.2219  0.2899
 3613TIP3    H132474   5.174   5.203   1.332  1.2491 -0.0262  2.0212
 3613TIP3    H232475   5.052   5.127   1.284  1.4816  1.4691 -1.1874
 3614TIP3   OH232476   6.556   3.432   8.064 -0.0359  0.0369 -0.4370
 3614TIP3    H132477   6.638   3.470   8.033  0.6403  1.3884  2.5670
 3614TIP3    H232478   6.490   3.460   8.001  1.3627  1.3957 -1.3533
 3615TIP3   OH232479   3.048   3.003   8.401 -0.2090  0.3115  0.4186
 3615TIP3    H132480   2.973   3.052   8.366 -0.8567  0.2531  1.6375
 3615TIP3    H232481   3.115   3.009   8.333 -0.9941  1.1664 -0.3144
 3616TIP3   OH232482   0.475   5.366   6.885 -0.3631  0.2710 -0.2095
 3616TIP3    H132483   0.392   5.324   6.905 -1.1501  0.4261 -2.7535
 3616TIP3    H232484   0.470   5.451   6.928 -1.3756  0.1225 -0.0140
 3617TIP3   OH232485   2.128   0.615   2.164 -0.3438  0.2238  0.1628
 3617TIP3    H132486   2.145   0.668   2.242  1.7735  0.2963 -0.3029
 3617TIP3    H232487   2.197   0.550   2.163 -0.8505 -0.3374 -1.1859
 3618TIP3   OH232488   5.442   4.286   7.940 -0.0311 -0.9121  0.3534
 3618TIP3    H132489   5.444   4.252   8.030 -0.0682  0.1630  0.7835
 3618TIP3    H232490   5.530   4.320   7.926 -0.1720 -0.6182  0.1762
 3619TIP3   OH232491   4.639   0.722   8.199  0.6614  0.1526 -0.1850
 3619TIP3    H132492   4.624   0.628   8.198 -0.3329  0.2899 -1.5765
 3619TIP3    H232493   4.569   0.758   8.144  0.3444  1.8139  1.2196
 3620TIP3   OH232494   6.287   3.947   0.331 -0.0076 -0.2902  0.2980
 3620TIP3    H132495   6.267   3.992   0.249 -0.6140 -0.7179  0.2016
 3620TIP3    H232496   6.231   3.869   0.330 -0.1034 -0.2438  1.1600
 3621TIP3   OH232497   5.512   3.914   2.583 -0.6005  0.7891 -0.1477
 3621TIP3    H132498   5.486   3.867   2.504  2.6889  0.2626 -1.0677
 3621TIP3    H232499   5.511   3.848   2.652 -0.8440  0.5979 -0.3301
 3622TIP3   OH232500   1.134   0.694   8.624  0.5103 -0.0813 -0.5223
 3622TIP3    H132501   1.078   0.727   8.554  0.6821 -2.3588 -1.8301
 3622TIP3    H232502   1.172   0.772   8.664  1.0520  1.3006 -3.5138
 3623TIP3   OH232503   0.329   2.617   7.704  0.2974  0.3083  0.7080
 3623TIP3    H132504   0.372   2.533   7.689 -1.1398 -0.3924  0.3087
 3623TIP3    H232505   0.390   2.667   7.758  2.3683  0.0408 -1.2321
 3624TIP3   OH232506   1.981   0.265   6.831  0.0367  0.0274  0.0682
 3624TIP3    H132507   2.064   0.223   6.806 -0.7138 -0.8755 -0.9936
 3624TIP3    H232508   1.963   0.326   6.759 -0.2370  0.2258  0.3035
 3625TIP3   OH232509   0.481   2.246   1.554  0.1885  0.5685  0.6769
 3625TIP3    H132510   0.454   2.157   1.576  1.7728  0.2362  1.4332
 3625TIP3    H232511   0.407   2.283   1.506 -0.4182 -1.2109  0.1776
 3626TIP3   OH232512   2.931   2.325   0.600 -0.4797 -0.3940  0.5327
 3626TIP3    H132513   2.850   2.358   0.560 -0.6514 -0.2493  0.9894
 3626TIP3    H232514   2.913   2.233   0.617 -0.1564 -0.6349 -0.3438
 3627TIP3   OH232515   6.852   2.867   1.612 -0.4575  0.0976 -0.0266
 3627TIP3    H132516   6.760   2.856   1.588  0.4036 -1.5239 -3.1785
 3627TIP3    H232517   6.875   2.955   1.582 -0.9850  0.5334  0.8357
 3628TIP3   OH232518   5.506   5.348   1.857  0.7323 -0.5092  0.0411
 3628TIP3    H132519   5.515   5.274   1.797 -0.5748 -0.2825 -0.4562
 3628TIP3    H232520   5.568   5.329   1.927  0.5103 -2.0083 -0.1329
 3629TIP3   OH232521   4.628   1.989   0.071  0.0726  0.3667  0.3294
 3629TIP3    H132522   4.699   2.000   0.134 -0.5073  1.4758  0.8107
 3629TIP3    H232523   4.597   2.077   0.053 -0.7391 -0.0449 -0.3979
 3630TIP3   OH232524   5.082   2.163   8.225 -0.2617  0.3844 -0.0395
 3630TIP3    H132525   5.028   2.116   8.162 -1.0779  1.0248  0.1496
 3630TIP3    H232526   5.123   2.095   8.278 -1.4358 -0.1228  0.2501
 3631TIP3   OH232527   4.761   3.334   7.079 -0.5222 -0.1364 -0.3289
 3631TIP3    H132528   4.783   3.302   6.992  0.5296 -0.3040 -0.0164
 3631TIP3    H232529   4.699   3.405   7.064  0.9255  0.9786 -1.3402
 3632TIP3   OH232530   3.900   6.177   8.446  0.3449 -0.1186  0.2345
 3632TIP3    H132531   3.886   6.229   8.525 -1.5393 -1.6662  0.9977
 3632TIP3    H232532   3.931   6.240   8.381  1.3182  1.3176  1.9893
 3633TIP3   OH232533   4.239   1.908   1.279  0.5993 -0.2574 -0.0390
 3633TIP3    H132534   4.278   1.881   1.195 -0.7778  1.3525 -1.2597
 3633TIP3    H232535   4.311   1.948   1.327  0.7123  2.0333 -1.9576
 3634TIP3   OH232536   2.459   1.027   8.579 -0.0640  0.1417 -0.1011
 3634TIP3    H132537   2.528   1.093   8.578 -0.0065  0.1350 -2.5025
 3634TIP3    H232538   2.470   0.982   8.663  1.8226  1.1732  0.2576
 3635TIP3   OH232539   3.008   2.653   2.710 -0.0275  0.2394  0.4825
 3635TIP3    H132540   3.098   2.633   2.682 -0.7028 -0.4409 -1.3296
 3635TIP3    H232541   2.972   2.569   2.737 -1.3163 -0.3352 -2.5650
 3636TIP3   OH232542   5.513   4.951   2.572 -0.0126  1.0280  0.1121
 3636TIP3    H132543   5.442   4.894   2.600  0.5876  0.2834  0.1530
 3636TIP3    H232544   5.527   5.010   2.646 -0.6665  1.2680  0.0521
 3637TIP3   OH232545   2.228   6.212   7.178 -0.0736  0.1794  0.5312
 3637TIP3    H132546   2.159   6.179   7.121  0.5836 -0.5555  0.1389
 3637TIP3    H232547   2.195   6.196   7.267 -0.1212 -0.7872  0.3476
 3638TIP3   OH232548   0.550   1.616   7.582  0.3595 -0.2171 -0.2604
 3638TIP3    H132549   0.503   1.645   7.661 -1.1932 -0.5314 -1.0295
 3638TIP3    H232550   0.616   1.554   7.615 -0.1108 -0.1709  0.8196
 3639TIP3   OH232551   0.728   3.195   8.432  0.2699 -0.5230  0.4521
 3639TIP3    H132552   0.774   3.116   8.404  0.5600 -0.2349  0.1283
 3639TIP3    H232553   0.639   3.184   8.397  0.7021 -0.0274 -0.8445
 3640TIP3   OH232554   2.472   3.236   6.549 -0.0084  0.5995  0.6239
 3640TIP3    H132555   2.499   3.152   6.511 -6.5128 -0.9819 -1.9574
 3640TIP3    H232556   2.520   3.302   6.499  1.6585 -1.5590 -0.8043
 3641TIP3   OH232557   6.567   6.166   1.191  0.6411  0.0737 -0.4830
 3641TIP3    H132558   6.622   6.120   1.128 -0.3560  0.5188 -1.7369
 3641TIP3    H232559   6.568   6.258   1.162  1.8696  0.7324  1.4407
 3642TIP3   OH232560   3.811   3.431   0.092  0.4509  0.6158 -0.3836
 3642TIP3    H132561   3.836   3.345   0.057 -1.2787 -0.1817  0.2438
 3642TIP3    H232562   3.817   3.421   0.187  0.5871  1.3100 -0.3165
 3643TIP3   OH232563   0.243   5.403   6.511 -0.0526 -0.1203  0.0719
 3643TIP3    H132564   0.282   5.388   6.425 -0.3944  1.1419 -0.3292
 3643TIP3    H232565   0.289   5.480   6.545 -1.0372  0.3845  0.2988
 3644TIP3   OH232566   3.553   1.644   1.943 -0.1898  0.2400  0.9512
 3644TIP3    H132567   3.619   1.705   1.977 -1.4536  1.6220  0.9980
 3644TIP3    H232568   3.483   1.700   1.910 -1.0551 -1.1827  0.2888
 3645TIP3   OH232569   4.829   5.579   7.422 -0.0388  0.1305 -0.0137
 3645TIP3    H132570   4.832   5.642   7.351  1.9627  0.1159 -0.0181
 3645TIP3    H232571   4.754   5.523   7.403 -1.0826  1.7233 -0.6756
 3646TIP3   OH232572   6.647   2.162   7.978 -0.5368  0.1107 -0.0220
 3646TIP3    H132573   6.712   2.123   7.919 -1.6480 -1.5565 -0.2325
 3646TIP3    H232574   6.695   2.179   8.059  0.0019 -2.0878  0.1980
 3647TIP3   OH232575   2.274   2.788   1.203  0.9657 -0.1406 -0.5694
 3647TIP3    H132576   2.268   2.695   1.181  0.0774 -0.2305  0.0022
 3647TIP3    H232577   2.314   2.828   1.126  1.1069 -0.9538 -0.9296
 3648TIP3   OH232578   6.217   0.145   1.162  0.0969  0.1509 -0.0120
 3648TIP3    H132579   6.268   0.102   1.230 -0.2837 -0.1017  0.1174
 3648TIP3    H232580   6.204   0.078   1.095  0.3405  0.3531 -0.2616
 3649TIP3   OH232581   1.265   3.834   0.541  0.4127 -0.4642 -0.4642
 3649TIP3    H132582   1.233   3.748   0.514  0.3326 -0.5216 -0.1898
 3649TIP3    H232583   1.358   3.820   0.560  0.3906 -0.4988 -0.3816
 3650TIP3   OH232584   0.553   0.387   7.398 -0.2682  0.0095  0.5174
 3650TIP3    H132585   0.471   0.341   7.379 -0.2844  0.4996 -0.7223
 3650TIP3    H232586   0.556   0.457   7.333  2.2861 -1.4435 -1.1218
 3651TIP3   OH232587   4.874   6.720   1.024  0.3017  0.0443 -0.5418
 3651TIP3    H132588   4.931   6.650   0.993 -0.1013 -0.1570 -0.8287
 3651TIP3    H232589   4.842   6.762   0.945  1.3398  1.2223 -0.3871
 3652TIP3   OH232590   4.656   6.314   7.252  0.3904 -0.1559  0.1077
 3652TIP3    H132591   4.667   6.356   7.338  2.4032 -3.1933  1.4718
 3652TIP3    H232592   4.678   6.383   7.189 -2.1587  2.4913  1.8371
 3653TIP3   OH232593   2.105   2.986   8.183 -0.1491  0.5988  0.2465
 3653TIP3    H132594   2.060   2.905   8.208 -1.6653  1.9606  2.1851
 3653TIP3    H232595   2.161   3.006   8.258 -1.2104  2.2869  0.6430
 3654TIP3   OH232596   3.764   6.448   0.647  0.4411  0.4247 -0.1592
 3654TIP3    H132597   3.751   6.408   0.561  0.8269  0.5081 -0.2580
 3654TIP3    H232598   3.831   6.394   0.689 -0.9681 -0.6776  0.7842
 3655TIP3   OH232599   4.381   6.655   8.203  0.0803 -0.4677  0.3373
 3655TIP3    H132600   4.415   6.742   8.182 -1.5025  1.0275  3.3955
 3655TIP3    H232601   4.396   6.604   8.124  2.0461  2.2664 -1.2079
 3656TIP3   OH232602   2.647   2.058   1.446  0.3713 -0.1061 -0.2059
 3656TIP3    H132603   2.635   2.067   1.541 -0.0470 -3.8164  0.2486
 3656TIP3    H232604   2.571   2.009   1.417  0.7146  0.5891 -2.4429
 3657TIP3   OH232605   0.404   3.076   7.818  0.2946 -0.0337 -0.1424
 3657TIP3    H132606   0.344   3.116   7.881  0.8694 -0.5787  0.7627
 3657TIP3    H232607   0.411   2.985   7.846 -1.9966 -1.2160 -2.8785
 3658TIP3   OH232608   5.079   4.355   8.631 -0.0867  0.1912  0.2150
 3658TIP3    H132609   5.055   4.363   8.723 -0.5912  0.2176  0.0858
 3658TIP3    H232610   5.064   4.443   8.595 -1.1443 -0.1288 -0.1734
 3659TIP3   OH232611   6.590   6.839   0.692  0.0301  0.1904 -0.4030
 3659TIP3    H132612   6.666   6.894   0.671  2.0031 -1.4307  1.8783
 3659TIP3    H232613   6.587   6.839   0.788 -2.5966 -0.2394 -0.4132
 3660TIP3   OH232614   0.425   4.516   8.387  0.0583  0.4770 -0.3188
 3660TIP3    H132615   0.385   4.568   8.317  0.9758  2.4601  0.5658
 3660TIP3    H232616   0.357   4.453   8.411 -0.6229  0.3648 -2.3114
 3661TIP3   OH232617   6.412   4.868   2.143  0.0448  0.0036  0.4526
 3661TIP3    H132618   6.404   4.961   2.121 -0.3474 -0.1610 -0.1317
 3661TIP3    H232619   6.495   4.842   2.103 -0.1791 -0.0538  0.0120
 3662TIP3   OH232620   6.293   5.141   8.395  0.4824  0.3021 -0.0441
 3662TIP3    H132621   6.335   5.089   8.327  1.2312  0.0406  0.6044
 3662TIP3    H232622   6.331   5.109   8.477  0.3162  1.2714  0.4255
 3663TIP3   OH232623   3.015   6.376   6.617 -0.3733 -0.3311 -0.1897
 3663TIP3    H132624   3.105   6.369   6.650 -0.3407  0.6996 -0.0407
 3663TIP3    H232625   3.000   6.470   6.607 -1.9091 -0.4108  1.0622
 3664TIP3   OH232626   0.197   5.993   2.567  0.2608 -0.1658 -0.4125
 3664TIP3    H132627   0.109   6.021   2.592 -0.8876 -2.5786 -1.3491
 3664TIP3    H232628   0.183   5.933   2.493  2.5370 -1.6902  0.2659
 3665TIP3   OH232629   6.379   6.389   6.776 -0.6702 -0.1798  0.2071
 3665TIP3    H132630   6.389   6.374   6.682 -2.1166 -0.0667  0.0126
 3665TIP3    H232631   6.336   6.474   6.782 -0.5402 -0.1616  0.9772
 3666TIP3   OH232632   0.516   3.095   1.514  0.5882  0.0945  0.0295
 3666TIP3    H132633   0.502   3.022   1.575  1.2309  2.2032  2.8964
 3666TIP3    H232634   0.587   3.145   1.553 -0.2717  2.6121 -1.4546
 3667TIP3   OH232635   3.221   3.698   7.222  0.0968 -0.0160  0.1646
 3667TIP3    H132636   3.282   3.754   7.175 -0.8595  2.5118  1.7842
 3667TIP3    H232637   3.134   3.725   7.191 -0.3792 -0.8333  0.7322
 3668TIP3   OH232638   2.859   2.084   7.125  0.1811  0.2575  0.2632
 3668TIP3    H132639   2.853   2.152   7.057 -0.4609 -0.8749 -0.8709
 3668TIP3    H232640   2.791   2.107   7.188 -1.3090 -0.3021 -1.0742
 3669TIP3   OH232641   0.127   3.680   8.634 -0.3137 -0.1912  0.0645
 3669TIP3    H132642   0.195   3.691   8.568  2.0443 -1.4321  2.1090
 3669TIP3    H232643   0.081   3.600   8.608 -1.1383  0.7132 -1.3909
 3670TIP3   OH232644   2.153   1.797   2.032 -0.3933 -0.2145  0.1494
 3670TIP3    H132645   2.072   1.760   2.066  0.3156  1.3929  4.1053
 3670TIP3    H232646   2.223   1.749   2.078  0.6601  1.8983  0.9111
 3671TIP3   OH232647   6.760   1.841   8.196  0.5136  0.1918 -0.2062
 3671TIP3    H132648   6.750   1.834   8.101 -0.2419 -1.4095 -0.0331
 3671TIP3    H232649   6.816   1.767   8.219 -0.2616 -0.1209  0.7233
 3672TIP3   OH232650   0.473   0.397   6.156  0.5497 -0.4478  0.1755
 3672TIP3    H132651   0.383   0.379   6.184  0.6648  1.4301  1.9654
 3672TIP3    H232652   0.467   0.476   6.103  1.1193 -0.4951  0.0298
 3673TIP3   OH232653   1.659   6.163   7.896 -0.3116  0.1245 -0.4341
 3673TIP3    H132654   1.617   6.109   7.963  0.1819 -3.3343 -2.6966
 3673TIP3    H232655   1.587   6.186   7.837 -0.3129  1.1399 -0.0697
 3674TIP3   OH232656   3.711   0.027   0.761 -0.1994  0.3048 -0.0139
 3674TIP3    H132657   3.707   0.100   0.823  2.9225 -0.8559  1.7652
 3674TIP3    H232658   3.654  -0.040   0.800 -1.0112  0.8306 -0.2817
 3675TIP3   OH232659   1.709   6.084   1.663  0.1137  0.0753 -0.4915
 3675TIP3    H132660   1.686   6.141   1.737 -1.4409  0.2486 -1.0648
 3675TIP3    H232661   1.646   6.107   1.595  0.5796 -1.1190 -1.3585
 3676TIP3   OH232662   3.129   0.695   0.639  0.2351  0.3151 -0.7351
 3676TIP3    H132663   3.070   0.652   0.700  2.7611 -1.6363  0.5167
 3676TIP3    H232664   3.102   0.665   0.552 -0.2283 -1.0215 -0.1349
 3677TIP3   OH232665   0.425   6.410   1.839 -0.1106  0.1285 -0.1994
 3677TIP3    H132666   0.425   6.324   1.797 -0.2863 -0.3997  0.8539
 3677TIP3    H232667   0.473   6.398   1.920 -2.1055  0.4272  1.1061
 3678TIP3   OH232668   3.993   1.243   0.169 -0.3018 -0.1756  0.2739
 3678TIP3    H132669   4.072   1.197   0.200 -0.3733  0.1594  0.9653
 3678TIP3    H232670   3.975   1.204   0.084  0.4081 -0.5088  0.2696
 3679TIP3   OH232671   3.611   0.345   1.588 -0.6342 -0.5328 -0.3704
 3679TIP3    H132672   3.530   0.321   1.543 -0.5128 -1.0159 -0.3431
 3679TIP3    H232673   3.634   0.267   1.639 -0.5727 -0.1157  0.2423
 3680TIP3   OH232674   6.271   1.069   8.582  0.5813 -0.3721  0.0605
 3680TIP3    H132675   6.253   1.071   8.488  0.6632 -0.3398  0.0453
 3680TIP3    H232676   6.361   1.036   8.588  0.6645 -0.1338  0.1162
 3681TIP3   OH232677   2.380   6.722   6.543 -0.1448  0.2243 -0.2681
 3681TIP3    H132678   2.446   6.791   6.547  1.3317 -0.9314 -2.3638
 3681TIP3    H232679   2.390   6.673   6.624  2.4952 -0.6448 -1.0358
 3682TIP3   OH232680   0.947   6.696   7.467 -0.0234  0.4342 -0.7122
 3682TIP3    H132681   0.923   6.772   7.521 -1.5223 -0.6907  0.3103
 3682TIP3    H232682   1.033   6.717   7.432 -0.3599  2.5543 -0.3811
 3683TIP3   OH232683   1.052   1.436   1.285 -0.2091 -0.8854  0.7686
 3683TIP3    H132684   1.138   1.446   1.244 -1.0226  0.8049 -0.6492
 3683TIP3    H232685   0.995   1.404   1.215 -1.5311  1.6025  0.5933
 3684TIP3   OH232686   4.776   1.969   2.627 -0.3364  0.5317 -0.3020
 3684TIP3    H132687   4.780   2.040   2.562 -0.6420  2.0896  1.3110
 3684TIP3    H232688   4.682   1.958   2.644 -0.2700 -0.0451 -0.2903
 3685TIP3   OH232689   5.886   3.956   7.254 -0.5465  0.0689  0.8651
 3685TIP3    H132690   5.819   4.003   7.303 -1.4894 -1.0874  0.7426
 3685TIP3    H232691   5.904   4.010   7.178 -0.9167  0.6719  1.1986
 3686TIP3   OH232692   0.678   2.355   0.143 -0.1633  0.4439 -0.4615
 3686TIP3    H132693   0.629   2.434   0.165 -0.6889 -0.1607  0.6468
 3686TIP3    H232694   0.748   2.385   0.086 -0.2143  1.7402  0.1251
 3687TIP3   OH232695   4.909   1.211   0.834 -0.5118  0.5195 -0.4601
 3687TIP3    H132696   4.942   1.123   0.849 -0.0035  0.4713 -1.7293
 3687TIP3    H232697   4.817   1.199   0.810 -0.5509  0.3697 -0.2357
 3688TIP3   OH232698   4.525   2.915   7.361  0.4058 -0.4574  0.1146
 3688TIP3    H132699   4.604   2.875   7.324  0.7176 -0.1417  0.4341
 3688TIP3    H232700   4.554   2.954   7.443  0.5733  2.2208 -1.1024
 3689TIP3   OH232701   6.056   6.540   8.062 -0.4252 -0.2444  0.1758
 3689TIP3    H132702   6.063   6.616   8.005 -1.1774 -0.0454  0.3483
 3689TIP3    H232703   6.066   6.575   8.151  0.3999 -0.5071  0.1957
 3690TIP3   OH232704   4.267   3.330   2.763  0.2921  0.0620  0.1812
 3690TIP3    H132705   4.291   3.261   2.701 -2.0956 -0.3263 -0.4076
 3690TIP3    H232706   4.265   3.410   2.710 -0.7562 -0.0980 -0.0323
 3691TIP3   OH232707   4.845   4.154   7.456 -0.4192 -0.1474 -0.2001
 3691TIP3    H132708   4.832   4.096   7.381 -1.0846  0.9450 -0.9543
 3691TIP3    H232709   4.767   4.209   7.458 -0.3646 -0.0741  1.2427
 3692TIP3   OH232710   6.114   1.712   7.835 -0.2640  0.1644  0.1830
 3692TIP3    H132711   6.179   1.780   7.851 -0.5148 -0.1105  2.9034
 3692TIP3    H232712   6.032   1.760   7.820 -0.1779  0.5067  0.7609
 3693TIP3   OH232713   2.088   2.538   1.165  0.0549  0.7900 -0.5043
 3693TIP3    H132714   2.008   2.586   1.187 -0.5431 -0.6728  0.6831
 3693TIP3    H232715   2.065   2.491   1.085  0.5372  2.1514 -1.4887
 3694TIP3   OH232716   2.456   0.064   1.508  0.0935  0.2330  0.3952
 3694TIP3    H132717   2.419   0.098   1.427  1.3727  0.1663 -0.2506
 3694TIP3    H232718   2.546   0.041   1.485  0.6806  0.8082  1.9842
 3695TIP3   OH232719   4.316   1.956   8.120  0.1318  0.7337 -0.3772
 3695TIP3    H132720   4.335   1.867   8.150  0.5993  1.0567  0.3088
 3695TIP3    H232721   4.363   2.012   8.181  0.4178  1.4375 -1.2320
 3696TIP3   OH232722   0.676   3.782   8.086 -0.2870 -0.3560  0.4631
 3696TIP3    H132723   0.731   3.705   8.092 -0.2877 -0.6365 -2.0413
 3696TIP3    H232724   0.671   3.801   7.992  0.3333  3.1410  0.9831
 3697TIP3   OH232725   4.974   4.175   0.200 -0.4908  0.2620 -0.1163
 3697TIP3    H132726   5.029   4.096   0.204 -0.4219  0.3417  0.8550
 3697TIP3    H232727   4.937   4.174   0.112  0.4325 -0.2308 -0.5194
 3698TIP3   OH232728   2.624   2.199   6.924 -0.3397  0.3032 -0.1375
 3698TIP3    H132729   2.673   2.130   6.879  2.1648  1.1157  1.1837
 3698TIP3    H232730   2.605   2.162   7.011  2.3464  1.6463  1.1530
 3699TIP3   OH232731   1.358   3.779   0.196  0.3458  0.1800  0.2949
 3699TIP3    H132732   1.270   3.784   0.232  0.4750  0.3260  0.6028
 3699TIP3    H232733   1.401   3.858   0.230  1.0561 -0.6564  1.4022
 3700TIP3   OH232734   6.587   2.840   6.816 -0.4381  0.4985  0.0764
 3700TIP3    H132735   6.657   2.815   6.755  1.6085  0.4102  2.3265
 3700TIP3    H232736   6.571   2.932   6.797 -1.0864  0.0580 -1.7125
 3701TIP3   OH232737   0.290   3.092   6.575 -0.2066  0.0811 -0.2465
 3701TIP3    H132738   0.266   3.158   6.510 -0.2386  0.2681 -0.0440
 3701TIP3    H232739   0.312   3.015   6.523 -4.6100 -1.3228 -0.4710
 3702TIP3   OH232740   5.635   1.580   1.602 -0.0272  0.2102 -0.6657
 3702TIP3    H132741   5.685   1.648   1.647  1.5968  0.1780 -2.3307
 3702TIP3    H232742   5.699   1.511   1.583 -1.3620 -1.2338 -0.1702
 3703TIP3   OH232743   0.950   0.234   6.875 -0.1439  0.2242  0.4601
 3703TIP3    H132744   0.919   0.276   6.955  0.1108  1.5684 -0.1166
 3703TIP3    H232745   0.974   0.306   6.818  0.8266 -0.7251 -0.3862
 3704TIP3   OH232746   0.971   3.041   8.120  0.0814 -0.1480 -0.7684
 3704TIP3    H132747   1.039   2.997   8.170 -0.6437 -0.8089 -0.3412
 3704TIP3    H232748   0.982   3.134   8.140  0.1286 -0.3572  0.2189
 3705TIP3   OH232749   4.444   3.064   1.097  0.6672 -0.3107  0.2179
 3705TIP3    H132750   4.408   3.150   1.075  0.2048 -0.8213 -1.1223
 3705TIP3    H232751   4.374   3.021   1.145  0.0413 -0.7200 -1.0153
 3706TIP3   OH232752   1.252   1.607   7.311  0.2885 -0.1226  0.2326
 3706TIP3    H132753   1.333   1.561   7.289 -0.4465 -0.9561 -0.8153
 3706TIP3    H232754   1.275   1.700   7.303  0.4451 -0.3330 -2.9346
 3707TIP3   OH232755   0.913   6.277   7.031  1.1273  0.0994  0.2841
 3707TIP3    H132756   0.985   6.220   7.059  1.9436 -0.0315 -1.8696
 3707TIP3    H232757   0.900   6.255   6.939  0.0102  1.8954 -0.0339
 3708TIP3   OH232758   3.566   5.830   1.250 -0.5180 -0.1096  0.0078
 3708TIP3    H132759   3.491   5.775   1.226 -1.5456  1.2458 -0.0172
 3708TIP3    H232760   3.533   5.886   1.320  0.7429 -0.0471  0.5830
 3709TIP3   OH232761   3.293   0.233   0.779  0.3028 -0.2756  0.0972
 3709TIP3    H132762   3.289   0.314   0.727  0.7673 -1.1983 -1.4523
 3709TIP3    H232763   3.357   0.252   0.848  0.4715  0.6574 -0.2954
 3710TIP3   OH232764   1.945   0.130   1.709 -0.7607 -0.3399  0.3133
 3710TIP3    H132765   1.931   0.080   1.790  1.4572  0.5568  1.3648
 3710TIP3    H232766   1.993   0.208   1.738  0.0259  0.0501 -1.8575
 3711TIP3   OH232767   0.718   6.477   1.456  0.0604 -0.1833  0.7122
 3711TIP3    H132768   0.655   6.497   1.526 -0.9629  0.3554 -0.3299
 3711TIP3    H232769   0.803   6.477   1.500 -0.1263  3.6848  1.3874
 3712TIP3   OH232770   1.886   2.263   1.854 -0.0329  0.3253  0.3594
 3712TIP3    H132771   1.841   2.277   1.771 -0.2866 -1.0041  0.2430
 3712TIP3    H232772   1.968   2.219   1.829 -0.1418 -0.1392  0.8068
 3713TIP3   OH232773   0.572   0.495   1.450  0.5986  0.2549  0.5558
 3713TIP3    H132774   0.642   0.460   1.395  0.2248 -0.0792  0.2871
 3713TIP3    H232775   0.511   0.422   1.461 -0.1848  0.8096 -0.0017
 3714TIP3   OH232776   0.345   2.014   1.509  0.6089  0.1627  0.0559
 3714TIP3    H132777   0.386   1.956   1.574 -1.4096 -1.0344  0.3429
 3714TIP3    H232778   0.300   1.954   1.449 -1.6523  1.3972  0.4213
 3715TIP3   OH232779   6.862   2.468   8.596 -0.0772 -0.3178  0.4617
 3715TIP3    H132780   6.840   2.389   8.645 -2.1528  0.1360  0.3415
 3715TIP3    H232781   6.783   2.521   8.598  0.8339  1.1761 -0.6093
 3716TIP3   OH232782   1.882   3.587   7.066 -0.3803 -0.0011 -0.4878
 3716TIP3    H132783   1.943   3.629   7.126 -0.5338  0.9430 -0.9783
 3716TIP3    H232784   1.899   3.494   7.076  2.0125  0.2625 -1.5245
 3717TIP3   OH232785   0.004   4.484   0.166 -0.2613 -0.1255 -0.1781
 3717TIP3    H132786  -0.064   4.435   0.121 -2.7925  0.4256  2.6747
 3717TIP3    H232787   0.043   4.421   0.226 -0.7521  0.3459  0.6631
 3718TIP3   OH232788   1.852   2.268   0.443  0.2832 -0.7026 -0.3868
 3718TIP3    H132789   1.810   2.290   0.527 -0.9377 -2.1949 -0.5718
 3718TIP3    H232790   1.781   2.273   0.379  1.3018  0.9308 -1.4766
 3719TIP3   OH232791   2.431   3.265   8.403 -0.1601  0.3506 -0.1260
 3719TIP3    H132792   2.499   3.332   8.412 -1.7762  1.8365  2.0838
 3719TIP3    H232793   2.387   3.264   8.488 -2.7354 -0.7023 -1.3693
 3720TIP3   OH232794   2.950   3.979   2.023  0.2078 -0.3912 -0.0478
 3720TIP3    H132795   3.027   4.014   1.978 -0.5074 -0.1924 -1.1588
 3720TIP3    H232796   2.980   3.897   2.062  1.7089  0.9824  1.9362
 3721TIP3   OH232797   6.889   1.725   8.465 -0.2535 -0.0519 -0.0670
 3721TIP3    H132798   6.880   1.762   8.553  0.5524 -1.8744  0.8249
 3721TIP3    H232799   6.913   1.634   8.479  1.5263  0.0001 -2.1642
 3722TIP3   OH232800   2.272   5.500   1.475  0.4217  0.0689 -0.7685
 3722TIP3    H132801   2.256   5.498   1.381 -0.8157 -1.0963 -0.5781
 3722TIP3    H232802   2.222   5.425   1.509  0.4973  0.7134  0.8633
 3723TIP3   OH232803   4.638   4.637   7.612 -0.0311 -0.0176 -0.2987
 3723TIP3    H132804   4.634   4.566   7.548  4.0254 -1.3407  0.5756
 3723TIP3    H232805   4.580   4.610   7.683  2.8253 -3.7493  0.9274
 3724TIP3   OH232806   2.107   3.799   0.292  1.3484  0.3028  0.2742
 3724TIP3    H132807   2.131   3.837   0.376  2.1163  1.2522 -0.3511
 3724TIP3    H232808   2.050   3.865   0.251 -0.1262 -0.7334  0.5895
 3725TIP3   OH232809   6.771   4.976   2.145 -0.4147 -0.4690  0.1828
 3725TIP3    H132810   6.724   4.911   2.093  0.7729  0.0835 -1.7229
 3725TIP3    H232811   6.838   4.926   2.192 -1.3598 -0.9555  1.0223
 3726TIP3   OH232812   0.103   6.301   1.882 -0.1507  0.0552  0.3324
 3726TIP3    H132813   0.043   6.279   1.953 -0.0070  0.7563  0.6833
 3726TIP3    H232814   0.137   6.217   1.851  0.6157 -0.2098  1.8210
 3727TIP3   OH232815   2.815   1.745   7.979  0.2645 -0.6310 -0.0341
 3727TIP3    H132816   2.769   1.681   8.033  0.2806 -4.0480 -3.5935
 3727TIP3    H232817   2.747   1.786   7.926  0.5102  0.7433  0.6618
 3728TIP3   OH232818   0.670   0.639   6.573 -0.6349 -0.1884  0.1533
 3728TIP3    H132819   0.646   0.632   6.480 -0.3178  2.7155 -0.2241
 3728TIP3    H232820   0.765   0.625   6.573 -0.6323 -0.1773  0.0341
 3729TIP3   OH232821   0.824   0.165   7.853 -0.2141 -0.1588  0.3251
 3729TIP3    H132822   0.831   0.165   7.949  0.2147  0.6527  0.3100
 3729TIP3    H232823   0.901   0.213   7.824 -1.6175  1.8709 -0.2966
 3730TIP3   OH232824   2.318   5.209   7.690 -0.5660  0.3119  0.4878
 3730TIP3    H132825   2.252   5.188   7.624 -0.3141  0.5933  0.1381
 3730TIP3    H232826   2.295   5.297   7.719  0.5858  1.0973 -0.8266
 3731TIP3   OH232827   4.254   2.720   6.448  0.0435  0.7676 -0.0484
 3731TIP3    H132828   4.242   2.625   6.443 -0.6762  0.8949 -3.9688
 3731TIP3    H232829   4.173   2.753   6.487  0.5963 -0.1832  2.0310
 3732TIP3   OH232830   5.409   6.673   2.100 -0.2529  0.4832  0.0788
 3732TIP3    H132831   5.400   6.673   2.196 -0.9648 -1.4418  0.0679
 3732TIP3    H232832   5.323   6.645   2.068  0.6723 -1.3742 -0.9626
 3733TIP3   OH232833   4.320   0.456   1.368 -0.1381 -0.4904 -0.6844
 3733TIP3    H132834   4.335   0.506   1.288  0.6882 -0.2788 -0.4046
 3733TIP3    H232835   4.405   0.454   1.412  0.0490 -2.7446 -1.0163
 3734TIP3   OH232836   5.570   0.845   1.426 -0.3123 -0.4448  0.3658
 3734TIP3    H132837   5.656   0.882   1.405 -0.6487 -0.7457 -1.8738
 3734TIP3    H232838   5.589   0.774   1.487  1.1234 -0.8365 -0.4725
 3735TIP3   OH232839   0.045   0.776   7.135 -0.5492  0.2444 -0.1557
 3735TIP3    H132840   0.023   0.704   7.194  0.5698 -0.9673 -1.1698
 3735TIP3    H232841  -0.015   0.766   7.061  1.1130 -1.0739 -1.3753
 3736TIP3   OH232842   6.442   5.249   1.588  0.2070  0.1656 -0.0122
 3736TIP3    H132843   6.518   5.282   1.636 -1.5297  3.1777  0.9324
 3736TIP3    H232844   6.415   5.322   1.533 -2.1147 -0.7569 -0.2116
 3737TIP3   OH232845   6.089   3.716   0.034 -1.0134  0.0031 -0.2924
 3737TIP3    H132846   6.068   3.713   0.128  0.3849  0.1551  0.0403
 3737TIP3    H232847   6.071   3.806   0.009 -0.1317  0.3077  0.1444
 3738TIP3   OH232848   0.547   0.902   1.640  0.2775  0.1260 -0.4288
 3738TIP3    H132849   0.504   0.987   1.628 -4.6722 -1.8250  1.3069
 3738TIP3    H232850   0.523   0.852   1.563  1.9804 -0.2671 -0.7538
 3739TIP3   OH232851   3.103   1.180   1.819  0.3846 -0.2620 -0.4269
 3739TIP3    H132852   3.167   1.152   1.754  1.0528  0.6967 -0.2128
 3739TIP3    H232853   3.129   1.135   1.899  0.0236 -0.8464 -0.6311
 3740TIP3   OH232854   4.581   5.602   8.564 -0.1011 -0.0058  0.1120
 3740TIP3    H132855   4.495   5.581   8.528 -0.3447 -0.1664  0.7686
 3740TIP3    H232856   4.619   5.663   8.501 -1.0420  0.7399  0.2476
 3741TIP3   OH232857   3.438   1.478   1.158  0.7810 -0.5290 -0.4292
 3741TIP3    H132858   3.527   1.514   1.159  0.6265 -0.1496 -0.0983
 3741TIP3    H232859   3.385   1.545   1.115  0.4317 -0.1918  0.4817
 3742TIP3   OH232860   3.788   1.224   7.757 -0.7481  0.6922  0.8453
 3742TIP3    H132861   3.820   1.136   7.736 -0.2869  0.9356  0.5132
 3742TIP3    H232862   3.713   1.209   7.814  0.3564  0.1250  2.1994
 3743TIP3   OH232863   2.734   5.368   8.538  0.7358 -0.2871  0.0471
 3743TIP3    H132864   2.698   5.441   8.589 -1.2177 -0.2266 -1.3061
 3743TIP3    H232865   2.811   5.406   8.494  0.7693  0.4474  0.7144
 3744TIP3   OH232866   6.754   2.276   0.081 -0.7053 -0.1591  0.0238
 3744TIP3    H132867   6.686   2.252   0.018 -1.3622  0.8416  0.3312
 3744TIP3    H232868   6.725   2.236   0.164 -1.9374  1.7935  0.5985
 3745TIP3   OH232869   2.671   4.300   1.401 -0.2531  0.1829 -0.4442
 3745TIP3    H132870   2.702   4.302   1.491 -0.1480 -1.3951 -0.4234
 3745TIP3    H232871   2.744   4.336   1.350  0.0988  0.1120  0.0031
 3746TIP3   OH232872   5.392   0.416   8.483  0.4391 -0.6282  0.2427
 3746TIP3    H132873   5.316   0.404   8.427 -0.5387  0.3995  1.3145
 3746TIP3    H232874   5.432   0.498   8.452 -0.0405 -0.1164  0.9665
 3747TIP3   OH232875   6.152   5.259   1.382 -0.2651  0.1618 -1.2287
 3747TIP3    H132876   6.181   5.168   1.380  2.5026  0.9132 -0.2863
 3747TIP3    H232877   6.066   5.256   1.422  0.5452 -1.9233  0.5809
 3748TIP3   OH232878   1.763   3.825   7.478  0.0717  0.1428 -0.1627
 3748TIP3    H132879   1.756   3.730   7.462  0.3277  0.3496 -1.7030
 3748TIP3    H232880   1.706   3.841   7.553 -0.1550 -1.1968 -0.0122
 3749TIP3   OH232881   5.830   5.073   0.394 -0.0461 -0.3598 -0.2716
 3749TIP3    H132882   5.921   5.055   0.418  0.0705  0.2287 -0.2637
 3749TIP3    H232883   5.830   5.165   0.369 -0.7585 -0.2050  0.2823
 3750TIP3   OH232884   6.801   3.272   6.957 -0.4165  0.7028  0.3405
 3750TIP3    H132885   6.850   3.354   6.969  1.8093 -0.4753 -0.2321
 3750TIP3    H232886   6.797   3.260   6.862 -0.7524  0.1573  0.4222
 3751TIP3   OH232887   3.855   2.555   8.418  0.0383  0.4425  0.2029
 3751TIP3    H132888   3.836   2.644   8.447  0.6984  0.6079  0.1512
 3751TIP3    H232889   3.870   2.506   8.499 -1.1756  0.1665  0.2731
 3752TIP3   OH232890   3.775   2.300   7.647 -0.2241  0.6272  0.1634
 3752TIP3    H132891   3.747   2.377   7.696 -0.4101  0.2573  0.6370
 3752TIP3    H232892   3.851   2.268   7.694 -0.5588  0.1193  0.3660
 3753TIP3   OH232893   5.264   3.101   0.797 -0.3319 -0.5706 -0.1813
 3753TIP3    H132894   5.265   3.197   0.802  1.4166 -0.5572  0.0966
 3753TIP3    H232895   5.185   3.075   0.844 -1.6549  0.7667 -1.5958
 3754TIP3   OH232896   0.123   1.850   6.795 -0.0791  0.3288  0.5847
 3754TIP3    H132897   0.116   1.860   6.890  0.8624  3.5155  0.4440
 3754TIP3    H232898   0.199   1.795   6.781  0.2099  0.4437  1.6817
 3755TIP3   OH232899   6.597   6.412   7.180 -0.6628 -0.0689  0.0241
 3755TIP3    H132900   6.547   6.472   7.234 -1.0069 -1.7440  1.6852
 3755TIP3    H232901   6.532   6.350   7.146 -0.0983 -0.5906 -0.1387
 3756TIP3   OH232902   4.899   5.842   0.532  0.6307  0.1412  0.1819
 3756TIP3    H132903   4.869   5.927   0.562  0.2159  0.0367  0.0619
 3756TIP3    H232904   4.899   5.787   0.610 -1.0994 -0.3203 -0.1016
 3757TIP3   OH232905   2.648   1.902   7.835  0.2574  0.8221 -0.1357
 3757TIP3    H132906   2.633   1.995   7.851  0.3664  0.8988 -0.4527
 3757TIP3    H232907   2.613   1.887   7.747  1.1606  0.8016 -0.5100
 3758TIP3   OH232908   1.182   3.023   1.027 -0.2993 -0.0121 -0.0659
 3758TIP3    H132909   1.218   3.105   0.993  0.3441 -0.1477  0.2620
 3758TIP3    H232910   1.256   2.981   1.070 -0.1918 -1.6011 -1.7277
 3759TIP3   OH232911   0.314   0.493   1.250  0.0514 -0.3516  0.0304
 3759TIP3    H132912   0.390   0.541   1.216 -1.5191  0.9961 -1.8073
 3759TIP3    H232913   0.329   0.402   1.224  1.0123 -0.1056 -0.3311
 3760TIP3   OH232914   5.102   3.177   7.579 -0.5251  0.1593 -0.4878
 3760TIP3    H132915   5.143   3.239   7.640 -0.8854 -1.4217  1.4629
 3760TIP3    H232916   5.168   3.161   7.512  0.8587  0.1003  0.8497
 3761TIP3   OH232917   5.494   2.481   7.282 -0.8570  0.3051  0.1484
 3761TIP3    H132918   5.409   2.462   7.242 -0.6773 -0.5493  0.1423
 3761TIP3    H232919   5.558   2.450   7.217 -0.5622 -1.6328  1.2734
 3762TIP3   OH232920   2.977   5.905   7.948  0.1221  0.1393 -0.4357
 3762TIP3    H132921   2.996   5.980   7.891  1.0930 -0.4315 -0.8948
 3762TIP3    H232922   2.966   5.831   7.887  3.5537 -0.9951  0.1296
 3763TIP3   OH232923   3.874   0.182   1.965  0.1424 -0.4603  0.2785
 3763TIP3    H132924   3.957   0.197   1.920  1.0574 -0.8754  1.7580
 3763TIP3    H232925   3.812   0.164   1.895  1.0564  0.8669 -0.9290
 3764TIP3   OH232926   0.125   6.161   7.193 -0.0526 -0.5458  0.0984
 3764TIP3    H132927   0.058   6.118   7.245  0.2947  0.5203  1.4588
 3764TIP3    H232928   0.110   6.254   7.205  0.7237 -0.2798 -0.8284
 3765TIP3   OH232929   1.941   4.232   7.356 -0.3324  0.2893  0.5503
 3765TIP3    H132930   2.020   4.287   7.351  0.7667 -1.2560  0.3077
 3765TIP3    H232931   1.971   4.150   7.395 -1.3004 -1.1949 -1.6159
 3766TIP3   OH232932   6.004   2.493   8.461 -0.1960 -1.0724 -0.3358
 3766TIP3    H132933   6.091   2.533   8.465 -1.6372  2.3330  0.7183
 3766TIP3    H232934   5.997   2.441   8.542 -0.0183  0.8755  1.0085
 3767TIP3   OH232935   4.153   4.385   6.632  0.3522 -0.0835  0.0920
 3767TIP3    H132936   4.155   4.462   6.690 -0.2217  0.5624 -0.7220
 3767TIP3    H232937   4.207   4.411   6.557  0.1516 -0.4844 -0.1894
 3768TIP3   OH232938   1.348   4.099   8.159 -0.0095 -0.1176  0.0622
 3768TIP3    H132939   1.414   4.050   8.208  0.2335  0.7924  0.6763
 3768TIP3    H232940   1.335   4.179   8.210 -0.2892  0.5198 -0.9737
 3769TIP3   OH232941   3.725   4.078   1.504  0.0888 -0.0220  0.0113
 3769TIP3    H132942   3.664   4.014   1.468 -0.0291  1.0902 -1.9099
 3769TIP3    H232943   3.720   4.065   1.598 -0.0121 -2.7317 -0.2793
 3770TIP3   OH232944   2.503   2.088   6.395  0.3193 -0.2731  0.4279
 3770TIP3    H132945   2.526   2.046   6.477 -1.0236  2.3049  2.2721
 3770TIP3    H232946   2.456   2.021   6.345 -1.3508 -1.1523  2.9909
 3771TIP3   OH232947   3.097   2.765   1.668 -0.1443  0.0855 -0.7040
 3771TIP3    H132948   3.128   2.771   1.578  0.5991  2.1667 -0.3766
 3771TIP3    H232949   3.051   2.848   1.683 -3.2379 -1.5702 -0.1494
 3772TIP3   OH232950   6.007   0.399   0.502 -0.3231  0.1109 -0.4414
 3772TIP3    H132951   5.955   0.328   0.541  1.2555 -0.8799 -0.0804
 3772TIP3    H232952   5.969   0.410   0.415 -0.6729 -1.1054 -0.4656
 3773TIP3   OH232953   0.524   1.151   1.526 -0.0859  0.3757  0.6557
 3773TIP3    H132954   0.447   1.167   1.581  1.1579  2.6533  1.9330
 3773TIP3    H232955   0.493   1.096   1.455 -2.7302  0.6762  1.4782
 3774TIP3   OH232956   2.011   4.408   7.773 -0.0674 -0.1065 -0.2671
 3774TIP3    H132957   2.078   4.416   7.841  1.6522  0.1063 -1.9082
 3774TIP3    H232958   1.978   4.497   7.761  0.9240  0.1948 -0.9215
 3775TIP3   OH232959   6.760   4.404   0.418 -0.3897 -0.3361  0.1780
 3775TIP3    H132960   6.849   4.372   0.431  0.5897  2.0386 -0.1794
 3775TIP3    H232961   6.715   4.334   0.371  1.7970 -0.8969 -1.1848
 3776TIP3   OH232962   2.633   0.174   2.453 -0.0187 -0.2653 -0.2813
 3776TIP3    H132963   2.582   0.114   2.398  0.2943 -1.4200  0.6498
 3776TIP3    H232964   2.720   0.136   2.456 -0.0342 -0.2330  1.0120
 3777TIP3   OH232965   5.382   1.120   7.423 -0.6730 -0.3030  0.4838
 3777TIP3    H132966   5.324   1.043   7.421 -3.2174  1.4722  1.0154
 3777TIP3    H232967   5.331   1.188   7.379  0.9627  1.4377  1.2077
 3778TIP3   OH232968   0.294   4.964   7.372 -0.0731  1.0087 -0.3098
 3778TIP3    H132969   0.252   4.904   7.311 -0.8173  1.2575 -0.0621
 3778TIP3    H232970   0.221   5.012   7.412  0.4061  1.0067  0.6047
 3779TIP3   OH232971   3.272   1.020   1.663  0.0116  0.5535 -0.0925
 3779TIP3    H132972   3.353   0.988   1.623 -0.0504  1.3708 -0.8999
 3779TIP3    H232973   3.232   0.942   1.701  2.3070  0.4735  2.4193
 3780TIP3   OH232974   2.973   3.769   7.044  0.0154  0.2407 -1.3133
 3780TIP3    H132975   2.991   3.695   6.985  0.3534  0.3219 -1.3181
 3780TIP3    H232976   2.942   3.729   7.125 -2.3020  0.1871 -2.1538
 3781TIP3   OH232977   3.252   6.580   1.065  0.0492 -0.2412  0.2581
 3781TIP3    H132978   3.239   6.486   1.077 -0.2836 -0.1244  0.8767
 3781TIP3    H232979   3.341   6.597   1.097  0.6197 -0.5548 -1.1183
 3782TIP3   OH232980   2.489   4.053   0.350 -0.0066 -0.6633  0.0199
 3782TIP3    H132981   2.399   4.043   0.319  0.5610  1.3441 -2.6254
 3782TIP3    H232982   2.483   4.113   0.424 -0.9739 -1.7670  0.8507
 3783TIP3   OH232983   4.145   2.921   1.481 -0.4320 -0.6472 -0.4467
 3783TIP3    H132984   4.059   2.957   1.499 -1.2150 -3.5925  2.8795
 3783TIP3    H232985   4.200   2.951   1.553  0.4379 -1.3348 -0.7967
 3784TIP3   OH232986   1.895   0.299   7.079  0.5460  0.3992  0.1034
 3784TIP3    H132987   1.903   0.295   6.984 -2.1948  0.0407 -0.1763
 3784TIP3    H232988   1.897   0.207   7.107 -1.0036  0.3392  0.1019
 3785TIP3   OH232989   5.694   2.781   7.282  0.1350  0.0555  0.2849
 3785TIP3    H132990   5.662   2.738   7.203 -0.0696 -0.2494  0.5315
 3785TIP3    H232991   5.626   2.844   7.306  1.3610  2.0819 -1.2777
 3786TIP3   OH232992   6.595   6.325   0.667 -0.2825  0.1010 -0.9004
 3786TIP3    H132993   6.520   6.293   0.617  0.1666 -1.2125 -0.7779
 3786TIP3    H232994   6.672   6.294   0.618  0.2079  1.6957 -1.2009
 3787TIP3   OH232995   2.940   6.322   8.400  0.3073 -0.0784 -0.3345
 3787TIP3    H132996   2.969   6.236   8.371  0.4365 -0.4078  0.7074
 3787TIP3    H232997   2.947   6.378   8.323  2.9966 -0.3234 -0.3346
 3788TIP3   OH232998   4.995   4.617   0.538  0.0259 -0.1666  0.8120
 3788TIP3    H132999   4.982   4.708   0.511 -1.3535 -0.3969  0.6176
 3788TIP3    H233000   5.030   4.573   0.460  0.2683  0.1017  0.7693
 3789TIP3   OH233001   0.695   4.214   0.757 -0.6204 -0.3611  0.5912
 3789TIP3    H133002   0.773   4.176   0.797 -2.0055 -1.1671  2.7085
 3789TIP3    H233003   0.672   4.154   0.686  1.9665  1.1724 -1.7623
 3790TIP3   OH233004   5.164   4.938   0.205 -0.1053 -0.0885 -0.4912
 3790TIP3    H133005   5.179   4.844   0.198 -0.3342 -0.1947  0.3150
 3790TIP3    H233006   5.071   4.947   0.225 -0.3488  0.3804 -1.7187
 3791TIP3   OH233007   3.454   6.183   7.195  0.1470 -0.6361  0.1325
 3791TIP3    H133008   3.538   6.229   7.195 -0.0312 -0.2562 -1.4952
 3791TIP3    H233009   3.416   6.203   7.110 -2.3796  0.5922  1.4339
 3792TIP3   OH233010   1.726   4.313   0.950  0.7218  0.1691 -0.4436
 3792TIP3    H133011   1.655   4.341   1.007 -1.1171  1.2765 -3.0946
 3792TIP3    H233012   1.745   4.389   0.896  3.3832 -0.3775 -0.4320
 3793TIP3   OH233013   5.774   0.489   8.393  0.1340 -0.6324 -0.8845
 3793TIP3    H133014   5.797   0.407   8.349 -0.4855 -0.9877 -0.5693
 3793TIP3    H233015   5.854   0.541   8.391  0.3087 -0.9274 -1.7903
 3794TIP3   OH233016   0.071   0.277   0.262 -0.0133 -0.2780  0.3502
 3794TIP3    H133017  -0.002   0.335   0.238  0.2559  0.8033  1.9793
 3794TIP3    H233018   0.148   0.320   0.225 -0.0839 -0.9882 -0.6599
 3795TIP3   OH233019   0.977   1.479   6.704 -0.2688  0.5917  0.1739
 3795TIP3    H133020   1.027   1.556   6.731 -0.0588  0.5512 -0.0926
 3795TIP3    H233021   0.975   1.484   6.609  0.2694 -0.0578  0.1195
 3796TIP3   OH233022   2.858   4.873   7.850 -0.2636  0.0257 -0.0653
 3796TIP3    H133023   2.878   4.796   7.904 -0.5384 -0.4445 -0.6344
 3796TIP3    H233024   2.818   4.838   7.771  1.6045  0.5759 -1.3161
 3797TIP3   OH233025   0.374   2.176   0.015 -0.3210 -0.0834  0.2278
 3797TIP3    H133026   0.296   2.170  -0.041  0.1385 -0.4258 -0.3938
 3797TIP3    H233027   0.374   2.266   0.047 -0.6209  0.1062 -0.2995
 3798TIP3   OH233028   1.381   4.138   1.627 -0.2096  0.0678  0.0297
 3798TIP3    H133029   1.333   4.063   1.663 -0.3043  0.1850  0.1512
 3798TIP3    H233030   1.472   4.110   1.625 -0.3144 -0.2636 -0.4712
 3799TIP3   OH233031   0.195   6.387   8.490 -0.0679  0.7814  0.4010
 3799TIP3    H133032   0.137   6.370   8.564 -0.3464  1.2031  0.2787
 3799TIP3    H233033   0.136   6.409   8.418 -0.1002 -2.9047 -0.9231
 3800TIP3   OH233034   1.707   0.177   8.306 -0.2793  0.5067 -0.0771
 3800TIP3    H133035   1.781   0.119   8.290  0.0512  0.8868  0.0709
 3800TIP3    H233036   1.641   0.121   8.349  0.7245  0.6387  1.7468
 3801TIP3   OH233037   1.674   5.790   0.915  0.0086 -0.2959  0.0156
 3801TIP3    H133038   1.762   5.777   0.950  0.8893  1.3647 -1.4422
 3801TIP3    H233039   1.680   5.868   0.861 -2.0906 -0.8129 -1.1022
 3802TIP3   OH233040   0.542   0.063   7.636  0.0433  0.4001  0.1705
 3802TIP3    H133041   0.573  -0.027   7.643  0.0494  0.5264  2.4293
 3802TIP3    H233042   0.596   0.113   7.698 -0.4371  1.8236 -0.5045
 3803TIP3   OH233043   0.665   0.664   6.295 -0.0566  0.5583  0.6076
 3803TIP3    H133044   0.666   0.758   6.277  0.8052  1.0277  2.8323
 3803TIP3    H233045   0.728   0.627   6.233  0.4985  1.6257  0.5164
 3804TIP3   OH233046   2.880   2.109   7.915 -0.8029 -0.0412  0.0033
 3804TIP3    H133047   2.955   2.091   7.859 -0.5665  0.0505  0.2862
 3804TIP3    H233048   2.889   2.046   7.987  0.5161  1.6968  1.4768
 3805TIP3   OH233049   3.909   5.325   7.847 -0.1384  0.2999 -0.5413
 3805TIP3    H133050   3.903   5.230   7.845  1.6055  0.1648 -0.8716
 3805TIP3    H233051   3.989   5.344   7.896  0.3178  1.5409 -1.6795
 3806TIP3   OH233052   1.414   5.729   8.051 -0.7415  0.1906 -0.1331
 3806TIP3    H133053   1.465   5.649   8.065 -0.7376 -0.2656 -2.4613
 3806TIP3    H233054   1.324   5.700   8.040 -0.5683  0.3389 -2.2048
 3807TIP3   OH233055   6.628   6.452   1.118  0.0073  0.3619  0.2012
 3807TIP3    H133056   6.657   6.510   1.189 -1.0694  1.1606  0.0184
 3807TIP3    H233057   6.538   6.481   1.099  0.7375  1.1364 -2.4488
 3808TIP3   OH233058   0.287   5.416   8.190  0.5095  0.3672 -0.1827
 3808TIP3    H133059   0.310   5.470   8.267  0.5862 -0.4123  0.3495
 3808TIP3    H233060   0.303   5.474   8.116 -0.3902  1.4291  0.4193
 3809TIP3   OH233061   3.058   2.779   0.579  0.0657 -0.4753  0.1419
 3809TIP3    H133062   3.122   2.709   0.573  0.5281 -0.0572  0.0676
 3809TIP3    H233063   3.028   2.776   0.670  0.2824 -0.5976  0.2100
 3810TIP3   OH233064   5.487   0.087   1.221  0.2900  0.3181  0.4267
 3810TIP3    H133065   5.452   0.146   1.288  1.5617  2.2747 -0.5491
 3810TIP3    H233066   5.414   0.026   1.203 -0.2381 -0.0145  3.1882
 3811TIP3   OH233067   4.129   3.606   1.395  0.0333 -0.1746  0.0195
 3811TIP3    H133068   4.136   3.520   1.355 -2.8605 -0.2445 -0.5853
 3811TIP3    H233069   4.059   3.597   1.459 -1.2589  1.9868 -0.9598
 3812TIP3   OH233070   2.645   5.875   0.307 -0.2587 -0.6531  0.0653
 3812TIP3    H133071   2.705   5.886   0.234 -0.8032 -0.3759 -0.3486
 3812TIP3    H233072   2.700   5.844   0.379  0.4936  0.2141 -0.1165
 3813TIP3   OH233073   5.117   6.514   1.862  0.0111 -0.0423  0.3946
 3813TIP3    H133074   5.036   6.566   1.864  0.8154  1.2376  0.4864
 3813TIP3    H233075   5.150   6.524   1.773  1.3204  1.4469  1.0116
 3814TIP3   OH233076   3.351   0.955   0.026 -0.6592  0.5982 -0.4750
 3814TIP3    H133077   3.401   1.036   0.031  0.6202 -0.2367  1.2541
 3814TIP3    H233078   3.324   0.938   0.116  1.7675 -2.4318 -0.1405
 3815TIP3   OH233079   1.943   0.829   6.678  0.0625 -0.1486 -0.0063
 3815TIP3    H133080   2.034   0.802   6.669  0.3856  0.6086  0.7663
 3815TIP3    H233081   1.903   0.810   6.594  0.5940 -1.7430  0.0780
 3816TIP3   OH233082   0.694   2.044   0.685 -0.2244  0.5904  0.1159
 3816TIP3    H133083   0.618   2.075   0.734  0.5586  0.4409  1.5047
 3816TIP3    H233084   0.764   2.105   0.709  0.2430  0.3618 -0.6365
 3817TIP3   OH233085   3.299   6.167   2.653 -0.3863  0.1728  0.1369
 3817TIP3    H133086   3.272   6.219   2.728 -0.0539  0.1604  0.2676
 3817TIP3    H233087   3.382   6.205   2.626 -0.1211 -0.3109  0.2585
 3818TIP3   OH233088   3.551   1.211   1.399 -0.3587  0.2072 -0.3581
 3818TIP3    H133089   3.634   1.257   1.405  0.2234 -0.8832  0.0858
 3818TIP3    H233090   3.543   1.188   1.306 -0.1851  0.3400 -0.4068
 3819TIP3   OH233091   1.967   4.129   7.819  0.0352 -0.0648  0.3272
 3819TIP3    H133092   1.901   4.145   7.886  0.0194  1.0741  0.0667
 3819TIP3    H233093   2.007   4.215   7.804 -0.0353 -0.2734 -1.2014
 3820TIP3   OH233094   3.130   3.614   1.270 -0.7502 -0.0047  0.0212
 3820TIP3    H133095   3.066   3.684   1.262  0.0065  0.5399 -1.4656
 3820TIP3    H233096   3.113   3.556   1.196  0.4997  0.1903 -0.4512
 3821TIP3   OH233097   4.844   4.464   1.028 -0.1984  0.0368  0.0637
 3821TIP3    H133098   4.827   4.489   1.118 -0.7854  0.3744 -0.1310
 3821TIP3    H233099   4.938   4.448   1.024  0.0092  1.0768  0.4744
 3822TIP3   OH233100   3.753   5.715   0.818 -0.5978 -0.3328 -0.1055
 3822TIP3    H133101   3.754   5.668   0.734  1.8706 -2.1571  0.8277
 3822TIP3    H233102   3.687   5.671   0.870  0.7298 -1.9664  0.2742
 3823TIP3   OH233103   5.038   1.628   1.143  0.0395 -0.7520 -0.2490
 3823TIP3    H133104   5.129   1.649   1.166  0.6885 -1.6179 -1.8459
 3823TIP3    H233105   5.045   1.568   1.069 -1.8244 -2.5731  0.9381
 3824TIP3   OH233106   1.129   1.414   8.485  0.6410 -0.2715  0.0436
 3824TIP3    H133107   1.074   1.337   8.502 -1.0866  0.9686  0.3034
 3824TIP3    H233108   1.067   1.484   8.466  2.2218  0.7030 -1.8324
 3825TIP3   OH233109   5.880   0.952   6.490 -0.2208  0.2966 -0.1725
 3825TIP3    H133110   5.959   0.985   6.531  1.5845 -0.7451 -2.5628
 3825TIP3    H233111   5.911   0.902   6.414 -3.1359 -0.8770 -0.7351
 3826TIP3   OH233112   2.411   3.575   7.412  0.4128 -0.1605  0.4056
 3826TIP3    H133113   2.500   3.609   7.414  0.3888 -0.1222  0.7593
 3826TIP3    H233114   2.393   3.546   7.501  0.0661 -0.1517  0.3424
 3827TIP3   OH233115   6.167   2.230   0.633 -0.0159 -0.6711  0.4240
 3827TIP3    H133116   6.125   2.271   0.709 -1.2093 -2.5490  0.8406
 3827TIP3    H233117   6.129   2.274   0.557  0.9811  1.0320  0.8595
 3828TIP3   OH233118   1.762   6.122   7.393 -0.9816  0.6209  0.1500
 3828TIP3    H133119   1.682   6.146   7.439 -1.6930 -1.1380 -0.0895
 3828TIP3    H233120   1.750   6.158   7.305 -1.2299  0.9020  0.2955
 3829TIP3   OH233121   1.002   2.300   0.105 -0.1073  0.0812  0.2876
 3829TIP3    H133122   0.917   2.336   0.133  0.5777  0.8851  1.4583
 3829TIP3    H233123   1.041   2.265   0.186  0.9766  0.3688 -0.0897
 3830TIP3   OH233124   5.409   1.560   1.745  0.0337  0.4462  0.1261
 3830TIP3    H133125   5.445   1.621   1.809  0.9825 -0.4568  0.4660
 3830TIP3    H233126   5.480   1.545   1.683 -0.0373 -0.6653  0.2960
 3831TIP3   OH233127   4.828   0.514   2.586  0.1426  0.1948 -0.2911
 3831TIP3    H133128   4.755   0.481   2.534 -0.6153 -2.2145  2.0798
 3831TIP3    H233129   4.786   0.566   2.655  0.8385  0.3735  0.0015
 3832TIP3   OH233130   0.146   1.164   8.099 -0.0185 -0.2471 -0.2010
 3832TIP3    H133131   0.173   1.222   8.027  0.1543 -0.4074 -0.2661
 3832TIP3    H233132   0.159   1.076   8.064  2.8052 -0.3949  0.9756
 3833TIP3   OH233133   5.889   1.439   7.739 -0.3861  0.3310  0.6527
 3833TIP3    H133134   5.980   1.431   7.711 -0.5273 -0.5743  0.4005
 3833TIP3    H233135   5.865   1.350   7.767 -1.5690  0.2544 -0.4933
 3834TIP3   OH233136   6.440   3.815   7.859 -0.6318 -0.6501  0.0911
 3834TIP3    H133137   6.468   3.903   7.882  1.0977 -1.7984  2.9206
 3834TIP3    H233138   6.444   3.812   7.763 -0.0367  2.0850 -0.0341
 3835TIP3   OH233139   3.995   4.180   6.716  0.5818  0.2815 -0.0789
 3835TIP3    H133140   4.038   4.265   6.709 -0.6012  1.1610  2.2978
 3835TIP3    H233141   3.910   4.193   6.674  0.8163 -0.0729 -0.6730
 3836TIP3   OH233142   1.950   5.437   2.529 -0.7990  0.0107 -0.2594
 3836TIP3    H133143   2.004   5.362   2.551 -0.1352  0.4435 -0.3839
 3836TIP3    H233144   1.870   5.400   2.493  0.2430 -0.6119 -2.0268
 3837TIP3   OH233145   6.132   5.148   7.420  0.0065 -0.0697  0.4261
 3837TIP3    H133146   6.180   5.078   7.378 -0.7408  0.1114 -0.7693
 3837TIP3    H233147   6.125   5.121   7.512  0.6741 -1.0115  0.2078
 3838TIP3   OH233148   0.565   2.673   0.047  0.1818 -0.4751  0.0333
 3838TIP3    H133149   0.533   2.660   0.136  0.0067 -0.3127 -0.0076
 3838TIP3    H233150   0.654   2.707   0.059 -0.0211  0.0155  0.1476
 3839TIP3   OH233151   0.348   5.465   0.083  0.2094  0.0283 -0.1679
 3839TIP3    H133152   0.394   5.438   0.003  1.5525 -2.4391  1.3372
 3839TIP3    H233153   0.291   5.392   0.104  0.2394  0.4240  1.4124
 3840TIP3   OH233154   2.765   1.011   7.998  0.3079  0.0854 -0.0688
 3840TIP3    H133155   2.735   0.967   7.919 -0.1070  1.4905 -0.7230
 3840TIP3    H233156   2.688   1.061   8.028  0.7955  0.4682  0.5648
 3841TIP3   OH233157   6.534   5.878   7.096 -0.4230  0.1384 -0.3166
 3841TIP3    H133158   6.518   5.789   7.126 -0.7911  1.2166  3.0298
 3841TIP3    H233159   6.470   5.891   7.026 -0.1594 -2.2581 -1.1042
 3842TIP3   OH233160   2.884   4.804   7.231 -0.0288 -0.4608 -0.3685
 3842TIP3    H133161   2.813   4.828   7.172 -0.4002 -2.4254 -0.8010
 3842TIP3    H233162   2.964   4.831   7.185 -0.3789 -0.7278 -1.1547
 3843TIP3   OH233163   1.271   4.849   1.451 -0.1495 -0.2770 -0.4608
 3843TIP3    H133164   1.281   4.801   1.533  0.8160  0.2206 -0.2738
 3843TIP3    H233165   1.205   4.915   1.469 -0.1027 -0.3139 -0.1524
 3844TIP3   OH233166   0.798   4.473   7.888  0.1939  0.1868  0.2592
 3844TIP3    H133167   0.734   4.440   7.951 -0.4801 -1.7039 -1.3002
 3844TIP3    H233168   0.883   4.455   7.929 -0.2357 -0.9617  0.7012
 3845TIP3   OH233169   6.595   6.555   2.156  0.1159 -0.5961  0.2346
 3845TIP3    H133170   6.504   6.524   2.161 -0.1331  0.0213 -0.3616
 3845TIP3    H233171   6.604   6.589   2.067  0.3927  0.9774  0.8270
 3846TIP3   OH233172   3.176   0.401   7.464 -0.3161  0.7124 -0.5069
 3846TIP3    H133173   3.249   0.377   7.407  0.1075  0.2092  0.2293
 3846TIP3    H233174   3.164   0.495   7.451 -0.1831  0.6183 -1.3658
 3847TIP3   OH233175   2.908   5.825   1.236  0.3193 -0.0280  0.0918
 3847TIP3    H133176   2.976   5.887   1.260  1.0731 -0.5927 -0.5387
 3847TIP3    H233177   2.854   5.817   1.314  0.2919  1.2954  0.2388
 3848TIP3   OH233178   3.273   2.669   0.764 -0.4639 -0.2686  0.0837
 3848TIP3    H133179   3.365   2.692   0.779 -0.4411  0.7478 -1.3940
 3848TIP3    H233180   3.275   2.580   0.729 -0.3383 -1.6011  3.1468
 3849TIP3   OH233181   3.139   0.762   8.298  0.2590 -0.1706 -0.2746
 3849TIP3    H133182   3.129   0.837   8.357 -0.9204 -1.2576  0.9677
 3849TIP3    H233183   3.140   0.686   8.356  0.7834 -1.1741 -1.5589
 3850TIP3   OH233184   6.178   6.623   7.147 -0.2674  0.2594  0.4211
 3850TIP3    H133185   6.092   6.581   7.146 -0.5115  0.7308 -1.2512
 3850TIP3    H233186   6.240   6.550   7.146 -0.6829 -0.1211 -1.3430
 3851TIP3   OH233187   3.573   3.245   2.301 -0.4385 -0.3913  0.6309
 3851TIP3    H133188   3.571   3.324   2.356 -0.9058  0.2115 -0.2273
 3851TIP3    H233189   3.489   3.202   2.318 -1.1767  0.5075 -0.5964
 3852TIP3   OH233190   6.834   1.213   1.477 -0.1007  0.2246 -0.1684
 3852TIP3    H133191   6.836   1.186   1.385  1.2380 -0.7039  0.0968
 3852TIP3    H233192   6.806   1.134   1.525 -2.1202  1.0674  0.1454
 3853TIP3   OH233193   0.120   0.704   8.225  0.0617 -0.2150 -0.6052
 3853TIP3    H133194   0.048   0.703   8.162  0.1893  1.1096 -0.8061
 3853TIP3    H233195   0.175   0.778   8.198  0.5405 -0.1017  0.5877
 3854TIP3   OH233196   2.334   4.939   7.128  0.5902  0.1652  0.5420
 3854TIP3    H133197   2.320   4.846   7.110  0.2822  0.2958  0.1046
 3854TIP3    H233198   2.376   4.974   7.049 -1.2784  0.8573 -0.1824
 3855TIP3   OH233199   1.249   1.796   6.075  0.5145  0.0774 -0.4397
 3855TIP3    H133200   1.169   1.766   6.031  0.8781  1.0599 -1.8340
 3855TIP3    H233201   1.218   1.864   6.135  0.2221  0.0363 -0.5391
 3856TIP3   OH233202   1.315   4.786   7.051  1.1114  0.4737  0.2429
 3856TIP3    H133203   1.298   4.835   6.970 -0.4985  1.2473  0.9984
 3856TIP3    H233204   1.263   4.706   7.042  2.3847 -0.3359 -0.2411
 3857TIP3   OH233205   3.391   1.274   2.207 -0.0051 -0.1126  0.1606
 3857TIP3    H133206   3.448   1.197   2.199  0.3409  0.2247 -0.7221
 3857TIP3    H233207   3.319   1.245   2.262 -0.2751 -1.3096 -0.7897
 3858TIP3   OH233208   0.757   5.307   0.366  0.0491 -0.2233 -0.4015
 3858TIP3    H133209   0.732   5.280   0.278 -1.6584  0.3429 -0.1348
 3858TIP3    H233210   0.752   5.403   0.363 -0.5368 -0.2230  0.4407
 3859TIP3   OH233211   2.949   5.611   0.876 -0.1223  0.0841  0.1821
 3859TIP3    H133212   2.941   5.682   0.812  0.5595  1.2915  1.3748
 3859TIP3    H233213   2.859   5.586   0.896 -0.3594  0.3028 -0.5746
 3860TIP3   OH233214   0.426   2.081   6.537 -0.6586  0.3022 -0.0592
 3860TIP3    H133215   0.386   2.020   6.475  0.5870 -0.6159  0.0171
 3860TIP3    H233216   0.519   2.079   6.517 -0.2868  0.3497  1.5132
 3861TIP3   OH233217   6.439   3.460   2.383  0.3241 -0.5676 -0.0313
 3861TIP3    H133218   6.379   3.386   2.372 -0.3489 -0.0541  0.1278
 3861TIP3    H233219   6.463   3.459   2.475  2.3403 -2.1069 -0.5107
 3862TIP3   OH233220   2.701   0.321   1.466 -0.1672 -0.2814 -0.4730
 3862TIP3    H133221   2.733   0.290   1.382  0.1744 -0.3645 -0.3155
 3862TIP3    H233222   2.770   0.380   1.498  0.7088 -1.8491  0.6878
 3863TIP3   OH233223   3.268   6.097   0.262 -0.3783 -0.4605 -0.1000
 3863TIP3    H133224   3.272   6.059   0.174 -0.3978  0.5438 -0.5515
 3863TIP3    H233225   3.360   6.117   0.284 -0.4837  0.4167 -0.4150
 3864TIP3   OH233226   0.206   6.891   2.478 -0.3190  0.2518 -0.5676
 3864TIP3    H133227   0.159   6.900   2.561  1.7510  0.9457  0.6089
 3864TIP3    H233228   0.141   6.911   2.411 -2.1931 -0.8745  0.8281
 3865TIP3   OH233229   6.703   3.284   6.704  0.4226 -0.3276 -0.1068
 3865TIP3    H133230   6.760   3.231   6.649  0.4594 -1.8098  1.3136
 3865TIP3    H233231   6.635   3.224   6.734  0.9266  0.1458  2.2173
 3866TIP3   OH233232   0.068   3.022   1.226 -0.7016 -0.2928 -0.2017
 3866TIP3    H133233   0.053   3.027   1.321  1.5796 -0.3765  0.2363
 3866TIP3    H233234   0.045   3.108   1.193  1.3314  0.7844  0.9713
 3867TIP3   OH233235   0.997   2.487   7.073 -0.1250 -0.1248  0.2826
 3867TIP3    H133236   0.990   2.394   7.094 -2.1649 -0.0784  0.0082
 3867TIP3    H233237   1.064   2.492   7.005 -1.4958 -1.6832 -1.2554
 3868TIP3   OH233238   2.972   4.065   8.019 -0.5166  0.5555  1.0624
 3868TIP3    H133239   3.027   3.986   8.023 -0.4428  0.6421  2.1047
 3868TIP3    H233240   3.034   4.136   8.002 -0.7710  0.2318 -1.5818
 3869TIP3   OH233241   6.778   3.054   0.089 -0.3418  0.1747  0.0200
 3869TIP3    H133242   6.865   3.042   0.051 -0.2091  0.9461  0.0676
 3869TIP3    H233243   6.727   3.093   0.018 -0.5368  0.1202  0.1306
 3870TIP3   OH233244   0.123   3.979   0.741  0.7184  0.1374  0.2911
 3870TIP3    H133245   0.175   3.941   0.669  0.3881  0.7310 -0.2712
 3870TIP3    H233246   0.078   4.053   0.701  0.3637  0.3488  1.0707
 3871TIP3   OH233247   2.917   2.304   8.148 -0.0969  0.3932  0.5356
 3871TIP3    H133248   2.953   2.392   8.146  0.0863  0.3119 -0.0948
 3871TIP3    H233249   2.991   2.248   8.173  0.3821  0.1655 -1.2619
 3872TIP3   OH233250   2.656   0.117   2.070 -0.0098 -0.1292 -0.2855
 3872TIP3    H133251   2.687   0.123   1.980 -0.5183  0.9137 -0.4012
 3872TIP3    H233252   2.668   0.205   2.106  2.2990 -1.0426  1.3859
 3873TIP3   OH233253   2.589   4.814   7.023 -0.0126  0.2064 -0.2830
 3873TIP3    H133254   2.529   4.849   6.959 -0.2907 -1.3918 -0.9403
 3873TIP3    H233255   2.605   4.886   7.084  0.8800  2.0221 -2.5489
 3874TIP3   OH233256   6.717   0.982   8.041  0.0025  0.1007  0.4361
 3874TIP3    H133257   6.661   0.931   8.099 -1.0459  0.9337  0.2071
 3874TIP3    H233258   6.656   1.021   7.978  0.9491  0.3514 -0.3575
 3875TIP3   OH233259   4.589   6.461   0.629  0.0059 -0.3331  0.3510
 3875TIP3    H133260   4.604   6.465   0.535 -1.0230 -0.8502  0.1476
 3875TIP3    H233261   4.673   6.485   0.668  0.4256 -0.0472 -0.6910
 3876TIP3   OH233262   3.695   2.826   0.301  0.1129 -0.3276  0.0044
 3876TIP3    H133263   3.704   2.877   0.221 -3.1964  1.3934  0.5652
 3876TIP3    H233264   3.612   2.779   0.291 -0.3491 -0.1272  2.3653
 3877TIP3   OH233265   0.237   2.734   7.452  0.1035  0.3964 -0.0139
 3877TIP3    H133266   0.256   2.701   7.540 -0.5341  2.0928  0.8118
 3877TIP3    H233267   0.148   2.705   7.434  0.6842 -1.0508 -0.6712
 3878TIP3   OH233268   4.048   6.840   1.848 -0.1059 -0.2924  0.5090
 3878TIP3    H133269   4.094   6.903   1.792 -0.8278 -0.1169  0.1019
 3878TIP3    H233270   3.993   6.790   1.788 -0.7166 -0.2616  1.0313
 3879TIP3   OH233271   5.873   1.934   8.111  0.5748  0.0934  0.3012
 3879TIP3    H133272   5.784   1.939   8.075  0.6800  0.5548  0.0989
 3879TIP3    H233273   5.924   1.992   8.055  1.0731 -0.4278  0.2162
 3880TIP3   OH233274   0.688   4.758   6.905  0.1137  0.0617  0.2965
 3880TIP3    H133275   0.651   4.798   6.826 -1.3102  0.8091  1.2798
 3880TIP3    H233276   0.625   4.690   6.929  1.1027 -0.9208  0.1964
 3881TIP3   OH233277   2.743   3.186   0.575 -0.6290 -0.1921 -0.1428
 3881TIP3    H133278   2.770   3.276   0.589 -0.0695 -0.0463 -1.9394
 3881TIP3    H233279   2.772   3.165   0.487 -1.1207 -2.0045  0.0752
 3882TIP3   OH233280   6.619   2.599   8.625  0.3499  0.6102  0.2267
 3882TIP3    H133281   6.588   2.587   8.715  1.5734 -0.6193  0.5366
 3882TIP3    H233282   6.572   2.533   8.575  1.5646 -0.5095  0.4947
 3883TIP3   OH233283   4.510   6.293   2.263 -0.0938 -0.1803  0.0792
 3883TIP3    H133284   4.482   6.265   2.350 -2.7386 -0.0519 -0.6379
 3883TIP3    H233285   4.491   6.387   2.260 -0.2308 -0.2211 -0.6992
 3884TIP3   OH233286   6.681   4.623   0.013  0.6814  0.2900 -0.0726
 3884TIP3    H133287   6.665   4.686  -0.057  0.8093  1.2261  0.7078
 3884TIP3    H233288   6.774   4.634   0.035  0.3958  0.7965  0.9640
 3885TIP3   OH233289   1.419   0.594   1.999  0.6813 -0.0447  0.6697
 3885TIP3    H133290   1.408   0.500   1.990  0.5591  0.0505 -0.2758
 3885TIP3    H233291   1.331   0.630   1.986  0.3997  0.1186  2.6389
 3886TIP3   OH233292   5.231   4.824   7.939  0.0415 -0.2125 -0.2511
 3886TIP3    H133293   5.233   4.910   7.898 -0.4521 -0.5105 -0.9317
 3886TIP3    H233294   5.299   4.827   8.006  0.7266  0.3554 -0.9613
 3887TIP3   OH233295   0.912   6.560   0.124 -0.7393 -0.5826  0.0536
 3887TIP3    H133296   0.955   6.478   0.101  1.5172  0.1936  1.2150
 3887TIP3    H233297   0.896   6.554   0.218  0.2151  0.6023  0.3185
 3888TIP3   OH233298   1.511   5.558   0.778 -0.4654 -0.0865 -0.6615
 3888TIP3    H133299   1.444   5.618   0.745  0.4342  1.1372 -0.3502
 3888TIP3    H233300   1.562   5.611   0.840  1.1759 -0.7852 -1.3614
 3889TIP3   OH233301   4.440   2.162   0.900  0.2622  0.1524  0.3405
 3889TIP3    H133302   4.479   2.228   0.843  1.7549 -1.2144 -0.3061
 3889TIP3    H233303   4.504   2.151   0.971  0.1561 -0.7577  0.3069
 3890TIP3   OH233304   6.787   3.203   8.047 -0.4064 -0.1350 -0.3197
 3890TIP3    H133305   6.700   3.238   8.029 -1.3771 -0.0522  3.6482
 3890TIP3    H233306   6.844   3.280   8.046  0.1436 -0.3724 -4.5411
 3891TIP3   OH233307   3.465   6.269   8.269  0.0865  0.0041  0.0569
 3891TIP3    H133308   3.394   6.333   8.260 -0.5988 -0.7600 -0.0565
 3891TIP3    H233309   3.443   6.200   8.207  1.4570  0.2119 -0.6982
 3892TIP3   OH233310   6.681   4.781   7.177  0.1961 -0.0875  0.4017
 3892TIP3    H133311   6.721   4.712   7.125  0.3439  1.3403 -1.4851
 3892TIP3    H233312   6.754   4.837   7.202 -0.1762  0.5957 -0.0176
 3893TIP3   OH233313   1.262   5.074   1.825  0.2243  0.1292  0.1704
 3893TIP3    H133314   1.221   5.160   1.838 -0.7654 -0.5527  1.9604
 3893TIP3    H233315   1.194   5.021   1.783  0.6729  0.0941 -0.5126
 3894TIP3   OH233316   5.306   5.810   1.787 -0.4063  0.0744 -0.2322
 3894TIP3    H133317   5.398   5.830   1.799 -0.4679  0.6531 -0.6217
 3894TIP3    H233318   5.279   5.868   1.715 -0.4241 -1.9665 -1.9773
 3895TIP3   OH233319   3.007   5.127   1.569 -0.1565  0.3349  0.6380
 3895TIP3    H133320   2.972   5.165   1.488 -0.4388 -0.1896  0.5053
 3895TIP3    H233321   3.096   5.100   1.546 -0.1618  0.3826  0.5608
 3896TIP3   OH233322   6.552   6.904   7.396 -0.3640  0.2132  0.0270
 3896TIP3    H133323   6.583   6.995   7.401 -0.6216  0.5010 -2.2320
 3896TIP3    H233324   6.612   6.855   7.452  0.3081  1.6592  0.6297
 3897TIP3   OH233325   2.729   0.391   2.136 -0.5026  0.2719 -0.5324
 3897TIP3    H133326   2.687   0.414   2.218  0.2355 -0.5720  0.1030
 3897TIP3    H233327   2.737   0.474   2.089 -0.1173  0.9171  0.6322
 3898TIP3   OH233328   0.530   0.797   7.561  0.3844  0.1920  0.5675
 3898TIP3    H133329   0.568   0.883   7.540 -0.2466  0.2957 -0.1867
 3898TIP3    H233330   0.602   0.735   7.547  1.0013  0.6333  1.6239
 3899TIP3   OH233331   2.911   6.898   2.095 -0.6154 -0.1450 -0.1545
 3899TIP3    H133332   2.933   6.976   2.147 -0.2648 -0.8078  0.7221
 3899TIP3    H233333   2.850   6.849   2.150  1.2931 -1.8704  0.5788
 3900TIP3   OH233334   3.504   5.539   1.744  0.0089 -0.0840  0.0253
 3900TIP3    H133335   3.569   5.580   1.687  0.6022 -1.6391 -0.4686
 3900TIP3    H233336   3.494   5.451   1.709 -0.3904 -0.7465  1.7250
 3901TIP3   OH233337   1.242   5.162   1.316  0.1296 -0.4473 -0.2326
 3901TIP3    H133338   1.182   5.091   1.293 -0.4566  0.3742 -1.3656
 3901TIP3    H233339   1.191   5.219   1.373  1.0820 -1.6626  1.9527
 3902TIP3   OH233340   1.704   0.416   7.422  0.6258  0.1195 -0.8789
 3902TIP3    H133341   1.742   0.366   7.494  0.6671 -1.8301 -2.1773
 3902TIP3    H233342   1.610   0.404   7.430  0.6165  0.1088 -0.9970
 3903TIP3   OH233343   0.868   1.386   1.680  0.1832 -0.0773 -0.1090
 3903TIP3    H133344   0.791   1.408   1.628 -0.0214 -1.1734 -0.3081
 3903TIP3    H233345   0.907   1.311   1.634  0.3820 -0.6314  0.9302
 3904TIP3   OH233346   0.861   3.219   1.410 -0.6528  0.0620  0.0440
 3904TIP3    H133347   0.797   3.235   1.341 -1.9394  0.7856  1.3331
 3904TIP3    H233348   0.942   3.258   1.378 -1.6873  2.0731 -0.3257
 3905TIP3   OH233349   5.681   4.383   7.645 -0.0417 -0.7691 -0.2300
 3905TIP3    H133350   5.676   4.457   7.585  1.3948  0.4644  1.0995
 3905TIP3    H233351   5.605   4.329   7.623 -1.0527  1.0155 -1.3208
 3906TIP3   OH233352   1.809   6.905   0.312  0.5220 -0.1207  0.4547
 3906TIP3    H133353   1.792   6.856   0.392 -0.1937 -0.9805 -0.2031
 3906TIP3    H233354   1.792   6.843   0.241  3.2633 -0.0873 -0.3717
 3907TIP3   OH233355   5.015   6.168   1.808  0.2083 -0.4957 -0.3371
 3907TIP3    H133356   5.093   6.220   1.824 -0.2713 -0.2175  1.2975
 3907TIP3    H233357   5.018   6.148   1.715  2.7248 -1.3187 -0.1524
 3908TIP3   OH233358   2.114   2.281   1.555 -0.3759  0.0628 -0.4917
 3908TIP3    H133359   2.113   2.294   1.460 -0.5919  1.3971 -0.3365
 3908TIP3    H233360   2.069   2.198   1.569  1.2729 -1.0967 -1.6681
 3909TIP3   OH233361   1.643   6.681   0.493 -0.0037 -0.2178 -0.2797
 3909TIP3    H133362   1.633   6.624   0.569  0.7702  0.2773  0.2092
 3909TIP3    H233363   1.610   6.766   0.522 -0.8908 -0.3309 -0.9140
 3910TIP3   OH233364   3.261   3.603   1.969 -0.3995 -0.2615 -0.6597
 3910TIP3    H133365   3.252   3.643   1.882 -1.2621 -0.8677 -0.8711
 3910TIP3    H233366   3.280   3.511   1.951 -1.0178 -0.4815 -0.2167
 3911TIP3   OH233367   5.806   3.923   1.918 -0.2169 -0.1205 -0.1877
 3911TIP3    H133368   5.885   3.907   1.969 -1.0120 -1.2998  0.7168
 3911TIP3    H233369   5.837   3.963   1.837  1.2293  0.0823  0.4461
 3912TIP3   OH233370   2.302   6.685   7.006  0.4681 -0.0333 -0.0396
 3912TIP3    H133371   2.237   6.753   6.993  1.7222  1.1026 -0.6865
 3912TIP3    H233372   2.297   6.664   7.099 -0.3014  0.5694  0.0646
 3913TIP3   OH233373   4.630   6.863   1.227 -0.6718 -0.2924 -0.4779
 3913TIP3    H133374   4.655   6.783   1.181 -2.5950 -1.7452  0.8195
 3913TIP3    H233375   4.682   6.861   1.308 -0.3690  0.0325 -0.6628
 3914TIP3   OH233376   6.551   3.725   0.197  0.2698  0.0043 -0.8344
 3914TIP3    H133377   6.562   3.816   0.167  0.3005  0.3791  0.2570
 3914TIP3    H233378   6.578   3.728   0.289  0.7203 -1.2141 -0.9204
 3915TIP3   OH233379   6.351   4.042   0.045  0.5978  0.1272 -0.4342
 3915TIP3    H133380   6.426   3.982   0.040  0.7581  0.3787 -1.2867
 3915TIP3    H233381   6.337   4.069  -0.046 -1.4448 -1.0260 -0.5315
 3916TIP3   OH233382   2.682   2.622   1.594 -0.1000 -0.1311  0.0826
 3916TIP3    H133383   2.613   2.557   1.584  0.3034 -0.4090 -1.1339
 3916TIP3    H233384   2.725   2.599   1.676 -1.3058 -0.0769  0.7553
 3917TIP3   OH233385   0.654   2.629   8.436  0.2120 -0.0069  0.0236
 3917TIP3    H133386   0.719   2.692   8.404  1.2780 -0.9069  0.3766
 3917TIP3    H233387   0.628   2.663   8.521 -1.0298  1.2349 -0.8109
 3918TIP3   OH233388   3.546   5.636   0.964 -0.3770 -0.1253  0.2377
 3918TIP3    H133389   3.474   5.673   0.914  0.6251  2.0574  0.3090
 3918TIP3    H233390   3.509   5.619   1.050 -0.7815  1.2355  0.3581
 3919TIP3   OH233391   3.773   4.047   0.894 -0.6108 -0.5255  0.4171
 3919TIP3    H133392   3.708   3.993   0.939 -0.7773  0.2843  1.1867
 3919TIP3    H233393   3.857   4.005   0.913 -0.9461 -2.1221 -1.3714
 3920TIP3   OH233394   3.630   6.716   7.825  0.1418 -0.0993 -0.0545
 3920TIP3    H133395   3.663   6.656   7.892 -0.8374  1.0373  1.5265
 3920TIP3    H233396   3.552   6.674   7.791  0.4351 -0.5133 -0.2198
 3921TIP3   OH233397   4.142   2.246   8.184 -0.4410  0.6302 -0.0202
 3921TIP3    H133398   4.084   2.322   8.189 -0.7744  0.3583  0.4185
 3921TIP3    H233399   4.082   2.171   8.183 -0.1430  0.3916 -1.2215
 3922TIP3   OH233400   2.027   1.958   8.119 -0.6424 -0.6319  0.2451
 3922TIP3    H133401   2.011   1.965   8.214  0.0269  1.5304  0.2728
 3922TIP3    H233402   2.115   1.993   8.108 -0.6533 -1.0067 -1.1756
 3923TIP3   OH233403   2.520   5.627   0.400  0.1338 -0.2944  0.1627
 3923TIP3    H133404   2.550   5.677   0.325  0.3454 -0.8201 -0.1054
 3923TIP3    H233405   2.598   5.585   0.434 -0.4378 -2.8552 -1.4124
 3924TIP3   OH233406   5.340   6.769   8.614  0.0332 -0.6987 -0.5668
 3924TIP3    H133407   5.366   6.740   8.526  0.2112 -0.9840 -0.4252
 3924TIP3    H233408   5.322   6.687   8.661 -0.2205 -0.5395 -0.3849
 3925TIP3   OH233409   4.880   5.903   2.172 -0.0072 -0.1461  0.0766
 3925TIP3    H133410   4.975   5.914   2.177 -0.2383  1.5120  1.8336
 3925TIP3    H233411   4.865   5.868   2.084  2.2133 -0.4349 -0.2466
 3926TIP3   OH233412   2.043   3.380   1.742 -0.2738  0.1814 -0.6131
 3926TIP3    H133413   2.052   3.371   1.837  1.2660  1.8463 -0.5417
 3926TIP3    H233414   2.087   3.302   1.707  0.9123  0.5288  0.0407
 3927TIP3   OH233415   3.731   2.196   6.397  0.3181 -0.2919  0.1853
 3927TIP3    H133416   3.752   2.111   6.437 -1.2417 -0.4837  0.6754
 3927TIP3    H233417   3.675   2.173   6.322  0.0801  0.2869  0.1828
 3928TIP3   OH233418   1.496   5.886   7.262 -0.3083  0.1919 -0.1142
 3928TIP3    H133419   1.447   5.824   7.317  0.2301 -0.2045 -0.0718
 3928TIP3    H233420   1.463   5.972   7.287  0.9919  0.1556  1.9365
 3929TIP3   OH233421   2.241   5.819   6.773  0.0203  0.0739  0.0530
 3929TIP3    H133422   2.234   5.728   6.802 -0.0204  0.3632  0.9855
 3929TIP3    H233423   2.255   5.813   6.678  0.1085 -0.9007  0.1160
 3930TIP3   OH233424   5.279   0.930   2.465  0.3665 -0.0661  0.1793
 3930TIP3    H133425   5.297   0.996   2.398  0.8558 -0.1840  0.1950
 3930TIP3    H233426   5.336   0.954   2.538 -1.5313  1.2340  1.3513
 3931TIP3   OH233427   2.325   0.381   6.909  0.3171 -0.2103  0.0016
 3931TIP3    H133428   2.281   0.379   6.994  0.9027 -0.6515  0.3020
 3931TIP3    H233429   2.414   0.349   6.927  0.6156  0.2197 -0.6753
 3932TIP3   OH233430   3.609   3.705   1.264 -0.1895  0.5586  0.3783
 3932TIP3    H133431   3.679   3.667   1.212  1.0475  0.3216  2.1228
 3932TIP3    H233432   3.529   3.678   1.220  0.7764  0.0390 -1.1404
 3933TIP3   OH233433   2.120   6.689   7.801 -0.0375 -0.6090 -0.4191
 3933TIP3    H133434   2.053   6.644   7.852  1.0534 -2.8021 -0.7988
 3933TIP3    H233435   2.178   6.619   7.771  0.4669  0.8260 -3.0263
 3934TIP3   OH233436   2.010   6.687   7.392 -0.0103  0.0373  0.3569
 3934TIP3    H133437   1.925   6.679   7.435  0.1461 -0.2563  0.6137
 3934TIP3    H233438   1.990   6.698   7.300 -0.3530  0.7149  0.5067
 3935TIP3   OH233439   0.451   1.676   7.841 -0.3916  0.1541 -0.0948
 3935TIP3    H133440   0.402   1.702   7.919 -1.3848 -0.1612 -0.6038
 3935TIP3    H233441   0.535   1.722   7.850  0.1179 -1.0233  1.8936
 3936TIP3   OH233442   1.758   3.565   7.351  0.1565 -0.3590  0.2684
 3936TIP3    H133443   1.852   3.577   7.338  0.1494 -0.3934  0.1835
 3936TIP3    H233444   1.736   3.490   7.295 -0.2338  0.6762 -1.0053
 3937TIP3   OH233445   2.171   2.321   0.976  0.1831 -0.0784 -0.3434
 3937TIP3    H133446   2.254   2.281   0.952  0.3544  0.4360 -0.6235
 3937TIP3    H233447   2.126   2.254   1.028  0.6776 -0.4374 -0.3724
 3938TIP3   OH233448   6.248   4.708   6.770  0.7145 -0.5061  0.2095
 3938TIP3    H133449   6.340   4.727   6.753  0.8012  0.4745  1.5572
 3938TIP3    H233450   6.208   4.702   6.684  2.2644 -2.2358 -0.4371
 3939TIP3   OH233451   0.332   3.071   1.953 -0.2176  0.4684 -0.3015
 3939TIP3    H133452   0.289   3.123   2.020  2.5500  1.6929  0.6494
 3939TIP3    H233453   0.317   2.980   1.979  0.1639  0.9129  1.5776
 3940TIP3   OH233454   1.424   1.202   6.882 -0.0889 -0.1254  0.5335
 3940TIP3    H133455   1.459   1.168   6.800  1.7047  1.6771  0.4664
 3940TIP3    H233456   1.356   1.264   6.855  0.7909  0.7856  0.3473
 3941TIP3   OH233457   4.468   2.142   7.683  0.0116 -0.0231  0.6326
 3941TIP3    H133458   4.407   2.113   7.615 -0.9064 -1.9550  2.1760
 3941TIP3    H233459   4.470   2.237   7.675 -1.4395 -0.0813 -0.9149
 3942TIP3   OH233460   6.814   4.057   1.752  0.0295 -0.0024 -0.1282
 3942TIP3    H133461   6.812   4.012   1.836  0.2451  0.2425  0.0105
 3942TIP3    H233462   6.838   4.148   1.774  0.5781 -0.0524 -0.4974
 3943TIP3   OH233463   4.232   1.836   7.019 -0.1845  0.0148 -0.3467
 3943TIP3    H133464   4.257   1.926   7.039  1.2233 -0.8170  2.0922
 3943TIP3    H233465   4.293   1.808   6.950 -0.7738  0.9540 -1.2709
 3944TIP3   OH233466   3.449   2.082   0.863 -0.2723 -0.3762  0.2493
 3944TIP3    H133467   3.372   2.080   0.918 -0.0368  0.6553  0.6376
 3944TIP3    H233468   3.523   2.087   0.924 -0.0126  0.8967 -0.1248
 3945TIP3   OH233469   1.716   2.369   1.220 -0.1349  0.1814  0.2224
 3945TIP3    H133470   1.747   2.458   1.204  0.1994 -0.1631 -1.2393
 3945TIP3    H233471   1.796   2.315   1.219 -0.4208 -0.2467  0.1111
 3946TIP3   OH233472   6.218   0.007   8.189 -0.0796 -0.3705 -0.0349
 3946TIP3    H133473   6.132  -0.029   8.207 -1.0133  1.2480 -1.0110
 3946TIP3    H233474   6.232   0.072   8.258  0.8108 -1.2957  0.6842
 3947TIP3   OH233475   3.500   3.611   8.549 -0.5246 -0.2107  0.3599
 3947TIP3    H133476   3.411   3.635   8.523 -0.8638 -1.7665  0.0074
 3947TIP3    H233477   3.489   3.560   8.629 -0.0358 -1.0794 -0.1076
 3948TIP3   OH233478   1.300   4.579   7.360  0.4525 -0.0829  0.4952
 3948TIP3    H133479   1.261   4.595   7.274  1.1752 -0.0529  0.1738
 3948TIP3    H233480   1.345   4.660   7.382  0.9919 -0.3847  0.5181
 3949TIP3   OH233481   3.828   3.271   1.894 -0.3661 -0.0125  0.3167
 3949TIP3    H133482   3.912   3.290   1.934 -0.4404 -0.6384  0.7917
 3949TIP3    H233483   3.819   3.335   1.823 -0.3083  1.2232  1.3906
 3950TIP3   OH233484   4.549   4.606   1.169  0.1411 -0.7423  0.0831
 3950TIP3    H133485   4.480   4.643   1.225  1.3864  0.3720  0.9421
 3950TIP3    H233486   4.561   4.517   1.202 -0.5846 -0.8025  0.2047
 3951TIP3   OH233487   4.525   2.016   6.926  0.8499  0.1309 -0.5913
 3951TIP3    H133488   4.501   1.926   6.902  0.7507 -0.6432  2.0949
 3951TIP3    H233489   4.441   2.061   6.935  0.7501 -0.2744  0.6589
 3952TIP3   OH233490   1.330   6.480   1.298  0.5259  0.9005 -0.2362
 3952TIP3    H133491   1.326   6.526   1.214  0.6518 -1.8116 -1.8453
 3952TIP3    H233492   1.422   6.486   1.324  0.5484  1.5095 -0.4358
 3953TIP3   OH233493   4.350   4.761   1.702  0.3345  0.3686  0.5343
 3953TIP3    H133494   4.256   4.750   1.688  0.5353  0.8115 -1.5697
 3953TIP3    H233495   4.390   4.700   1.640  1.3855  3.8916 -2.6510
 3954TIP3   OH233496   0.805   0.373   7.059  0.2399 -0.0399  0.2425
 3954TIP3    H133497   0.716   0.405   7.073  0.4377  0.8562 -0.5166
 3954TIP3    H233498   0.855   0.450   7.033  0.9628 -0.7592 -0.5706
 3955TIP3   OH233499   4.935   2.431   7.057  0.2941  0.2581 -0.0551
 3955TIP3    H133500   4.877   2.360   7.029  2.9397 -2.5025  0.8931
 3955TIP3    H233501   4.997   2.441   6.984  2.3195 -1.3109  1.3337
 3956TIP3   OH233502   6.462   5.353   8.220  0.3520  0.1087  0.3515
 3956TIP3    H133503   6.494   5.267   8.245 -0.4255 -0.4797 -0.6058
 3956TIP3    H233504   6.475   5.407   8.298 -0.4135 -1.2127  1.4244
 3957TIP3   OH233505   2.115   1.487   7.788 -0.1835 -0.1076  0.9458
 3957TIP3    H133506   2.102   1.579   7.764 -1.2966 -0.0853  1.5888
 3957TIP3    H233507   2.087   1.438   7.711  2.1609  0.0850 -0.1394
 3958TIP3   OH233508   0.230   5.098   8.540 -0.2359 -0.3651 -0.5220
 3958TIP3    H133509   0.197   5.155   8.610  0.4116  0.5582 -0.9479
 3958TIP3    H233510   0.303   5.051   8.581 -1.0925 -1.2972 -0.0196
 3959TIP3   OH233511   2.615   2.435   6.772  0.3363  0.3350 -0.0934
 3959TIP3    H133512   2.628   2.375   6.699  0.8611  0.7976 -0.3916
 3959TIP3    H233513   2.630   2.381   6.850 -0.4916 -0.2211 -0.3138
 3960TIP3   OH233514   2.260   0.399   2.088  0.1093  0.1402 -0.1018
 3960TIP3    H133515   2.179   0.358   2.118  1.3863 -1.3994  1.4746
 3960TIP3    H233516   2.303   0.333   2.035  0.4761  0.8273 -0.6863
 3961TIP3   OH233517   4.970   4.349   6.482  0.1646  0.2867  0.8624
 3961TIP3    H133518   5.036   4.390   6.538  0.8379 -1.3312  1.3070
 3961TIP3    H233519   4.986   4.255   6.490 -1.2009 -0.0841 -0.2627
 3962TIP3   OH233520   5.117   5.730   1.986  0.4052 -0.7019 -0.1297
 3962TIP3    H133521   5.050   5.679   1.941  0.8542  0.3640 -2.1218
 3962TIP3    H233522   5.182   5.749   1.918  1.8559 -0.2107  1.3286
 3963TIP3   OH233523   4.714   1.696   6.775 -0.7620  0.0341  0.0231
 3963TIP3    H133524   4.706   1.708   6.869 -0.9298 -0.5035  0.0806
 3963TIP3    H233525   4.804   1.723   6.755 -0.9559  0.8639  0.2143
 3964TIP3   OH233526   5.927   5.075   1.644  0.0193 -0.0432  0.6213
 3964TIP3    H133527   5.926   5.005   1.710 -1.5928  0.2470  0.9424
 3964TIP3    H233528   6.012   5.118   1.656 -0.8265  1.0266  3.6337
 3965TIP3   OH233529   3.209   4.830   8.009  0.1570 -0.1115  0.3800
 3965TIP3    H133530   3.136   4.880   8.045  0.0474  0.7757 -0.9466
 3965TIP3    H233531   3.197   4.741   8.041 -1.4537  0.0390  0.2707
 3966TIP3   OH233532   0.806   1.416   0.242 -0.5026 -0.2427 -0.4250
 3966TIP3    H133533   0.780   1.506   0.221 -0.9270 -0.0767  0.7653
 3966TIP3    H233534   0.740   1.362   0.199 -1.1914  0.0824  0.1998
 3967TIP3   OH233535   5.777   2.316   2.466  0.2435 -0.3185  0.1446
 3967TIP3    H133536   5.688   2.350   2.472  0.7177  1.1753 -0.7938
 3967TIP3    H233537   5.832   2.386   2.503  1.2312 -0.1000 -1.6305
 3968TIP3   OH233538   6.012   6.437   6.634 -0.1278 -0.1997  0.4666
 3968TIP3    H133539   6.021   6.343   6.619 -0.6109 -0.1070 -0.4845
 3968TIP3    H233540   6.083   6.459   6.695  1.0660 -0.8861 -0.6236
 3969TIP3   OH233541   3.676   1.171   2.258  0.0867 -0.2536 -0.1826
 3969TIP3    H133542   3.620   1.119   2.316  0.2068  2.1176  2.2237
 3969TIP3    H233543   3.765   1.153   2.288  0.0989  1.6774  1.0673
 3970TIP3   OH233544   6.732   0.274   8.572 -0.2602  0.0775 -0.3421
 3970TIP3    H133545   6.675   0.347   8.543 -0.4367  0.2127  0.3381
 3970TIP3    H233546   6.798   0.268   8.503 -1.6961 -0.7828 -1.7185
 3971TIP3   OH233547   6.347   2.710   7.524 -0.0629  0.5252 -0.2095
 3971TIP3    H133548   6.385   2.761   7.595 -1.1894 -1.0394  1.6560
 3971TIP3    H233549   6.411   2.640   7.507 -0.2677  0.2646  0.0664
 3972TIP3   OH233550   5.474   5.866   7.413 -0.4431  0.3618  0.3738
 3972TIP3    H133551   5.422   5.787   7.399  1.5436 -1.1080  0.8410
 3972TIP3    H233552   5.509   5.888   7.326 -0.6479  0.4728  0.3196
 3973TIP3   OH233553   2.161   6.099   1.542 -0.7642 -0.5633  0.0502
 3973TIP3    H133554   2.075   6.134   1.566  0.6309  1.9422  1.8324
 3973TIP3    H233555   2.171   6.021   1.596 -2.9120 -2.5259 -2.1470
 3974TIP3   OH233556   3.926   5.295   6.617 -0.0119 -0.2440 -0.0855
 3974TIP3    H133557   4.009   5.323   6.655  0.2572 -0.7613 -0.2842
 3974TIP3    H233558   3.921   5.342   6.534 -0.7829  1.1905  0.7263
 3975TIP3   OH233559   1.297   5.473   7.312  0.3662 -0.4786  0.0872
 3975TIP3    H133560   1.309   5.394   7.258  0.7928 -1.3419  1.4038
 3975TIP3    H233561   1.226   5.520   7.269  0.1525 -1.5445 -0.7803
 3976TIP3   OH233562   4.936   1.655   1.538  0.7557  0.3404 -0.1322
 3976TIP3    H133563   5.021   1.618   1.561  0.5625 -0.2618 -0.3746
 3976TIP3    H233564   4.926   1.730   1.597  1.8141  0.9224 -0.6709
 3977TIP3   OH233565   6.376   2.589   0.783  0.2920  0.4284  0.4396
 3977TIP3    H133566   6.398   2.526   0.851  2.2384  0.6236  0.0434
 3977TIP3    H233567   6.445   2.579   0.717 -0.4089  1.6574 -0.5322
 3978TIP3   OH233568   1.098   1.554   2.366  0.0007  0.2266  0.1772
 3978TIP3    H133569   1.041   1.572   2.291 -0.6529 -1.3084  0.2713
 3978TIP3    H233570   1.038   1.544   2.439  0.4447 -0.7294  0.4141
 3979TIP3   OH233571   5.090   4.160   1.683 -0.3749 -0.2493 -0.1492
 3979TIP3    H133572   5.029   4.222   1.643 -0.5011  0.6805  1.4090
 3979TIP3    H233573   5.176   4.195   1.664 -0.4457  0.4279  0.6982
 3980TIP3   OH233574   6.386   1.303   0.267 -0.2457 -0.4654 -0.3454
 3980TIP3    H133575   6.460   1.266   0.219 -1.4289 -2.4326 -0.7248
 3980TIP3    H233576   6.311   1.293   0.209 -1.2239 -0.4617  0.8721
 3981TIP3   OH233577   3.524   1.401   7.436  0.0793 -0.7665  0.8611
 3981TIP3    H133578   3.472   1.417   7.514 -0.5836  0.0493  0.2674
 3981TIP3    H233579   3.526   1.485   7.391  0.6566 -1.1639  0.1193
 3982TIP3   OH233580   5.641   0.572   7.771  0.2097  0.0378  0.3023
 3982TIP3    H133581   5.573   0.638   7.757 -0.7181 -1.1149 -0.8579
 3982TIP3    H233582   5.616   0.528   7.852 -0.3038 -0.2005  0.0230
 3983TIP3   OH233583   0.523   2.290   1.100  0.0401 -0.2987 -0.1198
 3983TIP3    H133584   0.534   2.354   1.170  1.0402  0.1224 -0.6532
 3983TIP3    H233585   0.506   2.207   1.146  0.2947  0.0445  0.6005
 3984TIP3   OH233586   5.692   3.939   0.957 -0.3786 -0.3733 -0.1658
 3984TIP3    H133587   5.652   3.997   1.021 -0.4320 -1.2507  0.6297
 3984TIP3    H233588   5.638   3.947   0.879  0.0592  1.1961 -0.3321
 3985TIP3   OH233589   1.086   2.657   2.268  0.0282  0.2059 -0.4315
 3985TIP3    H133590   1.111   2.566   2.285 -0.8245  0.3972  2.2554
 3985TIP3    H233591   0.994   2.652   2.241 -0.0278  0.2741 -0.2538
 3986TIP3   OH233592   1.448   5.057   6.708 -0.1226 -0.9536  0.0033
 3986TIP3    H133593   1.536   5.091   6.718 -0.2493 -0.7287  0.3411
 3986TIP3    H233594   1.408   5.111   6.640  0.0895 -1.2361 -0.3515
 3987TIP3   OH233595   5.527   1.511   8.262  0.0547 -0.3641  0.1859
 3987TIP3    H133596   5.618   1.488   8.246 -0.1652 -0.6803 -0.6682
 3987TIP3    H233597   5.487   1.513   8.175 -1.0251 -1.4035  0.6253
 3988TIP3   OH233598   4.735   3.604   8.441  0.0466  0.2696 -0.2693
 3988TIP3    H133599   4.675   3.638   8.375 -1.8186  1.3283  1.8406
 3988TIP3    H233600   4.678   3.568   8.509  1.8486  0.0366  1.2031
 3989TIP3   OH233601   3.997   5.910   7.819  0.2263  0.4724 -0.0419
 3989TIP3    H133602   4.008   5.815   7.822 -0.1833  0.4374  2.2658
 3989TIP3    H233603   4.017   5.934   7.729  1.2440 -1.6892 -0.4481
 3990TIP3   OH233604   3.365   1.278   1.895  0.1241 -0.4284 -0.4207
 3990TIP3    H133605   3.452   1.242   1.879 -0.3564 -1.4025 -0.9981
 3990TIP3    H233606   3.306   1.203   1.884 -0.8982  0.4693 -1.4087
 3991TIP3   OH233607   3.905   0.660   1.876  0.9800 -0.1604  0.1367
 3991TIP3    H133608   3.821   0.678   1.919  0.2940  0.7142 -1.4545
 3991TIP3    H233609   3.964   0.727   1.910  1.1073 -0.9203  1.4377
 3992TIP3   OH233610   3.085   4.741   7.483  0.0461  0.1993 -0.0587
 3992TIP3    H133611   3.064   4.659   7.437  0.9149  0.5305 -1.0981
 3992TIP3    H233612   3.134   4.713   7.560  0.2687 -0.2684 -0.3640
 3993TIP3   OH233613   5.476   5.648   8.274 -0.2656  0.2002  0.1360
 3993TIP3    H133614   5.398   5.701   8.257  0.0089  0.2345 -1.0578
 3993TIP3    H233615   5.550   5.707   8.263 -0.0072 -0.1613 -0.1179
 3994TIP3   OH233616   2.141   4.619   0.653 -0.4241 -0.5551 -0.3601
 3994TIP3    H133617   2.073   4.600   0.717 -0.8672  0.0832 -0.6304
 3994TIP3    H233618   2.149   4.714   0.654  1.8885 -0.6883  1.1166
 3995TIP3   OH233619   1.514   5.226   8.393 -0.4264  1.0520 -0.1545
 3995TIP3    H133620   1.442   5.177   8.432  1.4909 -0.1230  2.1484
 3995TIP3    H233621   1.541   5.287   8.462  1.1501  1.0504 -0.7359
 3996TIP3   OH233622   2.937   1.737   0.201 -0.4299  0.6257 -0.1273
 3996TIP3    H133623   2.903   1.697   0.120  0.3915  0.7660 -0.5552
 3996TIP3    H233624   3.027   1.761   0.179  0.2544 -0.5263  1.2241
 3997TIP3   OH233625   0.369   6.569   0.556 -0.5466  0.2030  0.5227
 3997TIP3    H133626   0.452   6.531   0.528 -0.4182  0.2802  0.7947
 3997TIP3    H233627   0.338   6.618   0.479 -0.3964  0.0817  0.3843
 3998TIP3   OH233628   2.538   0.400   6.531  0.8094  0.6404  0.0038
 3998TIP3    H133629   2.610   0.343   6.503  1.6143  1.1681  0.9400
 3998TIP3    H233630   2.463   0.341   6.540  1.4362 -0.1463  0.2289
 3999TIP3   OH233631   4.015   1.726   7.624  0.2016 -0.0660  0.3361
 3999TIP3    H133632   3.998   1.723   7.530 -0.7160 -0.1553  0.4958
 3999TIP3    H233633   3.929   1.716   7.664  0.8128 -2.8255  1.2099
 4000TIP3   OH233634   0.334   3.039   0.815  0.1250  0.7105  0.0880
 4000TIP3    H133635   0.368   3.058   0.728  0.4942 -0.5233 -0.0569
 4000TIP3    H233636   0.384   3.096   0.873 -0.4743  1.9179 -0.5312
 4001TIP3   OH233637   5.921   5.349   0.393  0.1576  0.4966 -0.6103
 4001TIP3    H133638   5.902   5.396   0.474  1.1410 -0.5690  0.2776
 4001TIP3    H233639   5.932   5.417   0.327 -1.7479  1.3459 -0.1191
 4002TIP3   OH233640   0.219   6.409   6.758 -0.4305 -0.0486  0.2664
 4002TIP3    H133641   0.270   6.357   6.696  0.0466 -0.6903  1.1929
 4002TIP3    H233642   0.166   6.346   6.806 -0.6477  0.4246  0.6604
 4003TIP3   OH233643   3.045   0.294   1.903 -0.1671  0.0605 -0.0010
 4003TIP3    H133644   3.022   0.348   1.827 -0.4773  0.8454  0.6252
 4003TIP3    H233645   2.966   0.243   1.921 -0.2326  0.1673  0.0204
 4004TIP3   OH233646   4.095   3.716   7.543 -0.8527 -0.4235  0.4447
 4004TIP3    H133647   4.088   3.707   7.638 -0.9661 -0.2442  0.4525
 4004TIP3    H233648   4.005   3.704   7.511 -0.8415 -0.3137  0.3735
 4005TIP3   OH233649   0.069   0.345   1.305  0.1748 -0.0943  0.0500
 4005TIP3    H133650   0.095   0.267   1.354 -0.9242 -1.4671 -1.4404
 4005TIP3    H233651   0.149   0.398   1.300  0.1980  0.4866  3.7827
 4006TIP3   OH233652   5.295   2.500   0.640 -0.0143 -0.4212  0.1607
 4006TIP3    H133653   5.273   2.565   0.573  1.7572  2.5139  2.1747
 4006TIP3    H233654   5.371   2.454   0.605 -0.0096  0.0496 -0.4685
 4007TIP3   OH233655   0.516   6.817   7.034  0.0010  0.0131 -0.1194
 4007TIP3    H133656   0.593   6.861   6.998  0.0972 -0.3139 -0.3192
 4007TIP3    H233657   0.476   6.882   7.093 -0.9459  1.0811 -1.8565
 4008TIP3   OH233658   1.296   6.790   0.520  0.2510  0.4717 -0.0290
 4008TIP3    H133659   1.290   6.884   0.500 -0.1230  0.6168  0.7277
 4008TIP3    H233660   1.307   6.748   0.435  0.5867  1.2151 -0.3648
 4009TIP3   OH233661   5.553   2.311   1.527  0.5829 -0.2212 -0.6374
 4009TIP3    H133662   5.583   2.363   1.452  1.2364 -2.4193 -1.9782
 4009TIP3    H233663   5.627   2.254   1.548 -0.5524 -1.5588 -0.1078
 4010TIP3   OH233664   0.064   4.782   2.221  0.3965 -0.3854 -0.3353
 4010TIP3    H133665   0.028   4.694   2.228  1.4634 -0.7929  0.3353
 4010TIP3    H233666   0.159   4.770   2.228  0.5265  0.8857  0.6624
 4011TIP3   OH233667   3.627   3.480   1.792  0.7818 -0.0195 -0.2534
 4011TIP3    H133668   3.564   3.436   1.849  1.9248  0.1232  1.1860
 4011TIP3    H233669   3.585   3.482   1.706 -1.3318  0.4369  0.7325
 4012TIP3   OH233670   6.656   6.389   1.537  0.0202 -0.0590 -0.0015
 4012TIP3    H133671   6.660   6.376   1.632  2.9266  1.3532  0.1561
 4012TIP3    H233672   6.660   6.300   1.501 -2.5036 -0.7303  1.1005
 4013TIP3   OH233673   4.119   0.270   1.034 -0.8167 -0.0804 -0.0164
 4013TIP3    H133674   4.085   0.194   0.987 -0.0011  0.0403 -0.8233
 4013TIP3    H233675   4.048   0.334   1.029 -0.6439  0.0397 -1.3717
 4014TIP3   OH233676   5.975   4.316   7.943 -0.0859 -0.0313 -0.0043
 4014TIP3    H133677   6.012   4.245   7.996  0.9068  1.1122  0.9028
 4014TIP3    H233678   6.011   4.396   7.982 -1.5524  1.0106 -0.6824
 4015TIP3   OH233679   6.541   6.456   6.347 -0.2647  0.4402 -0.7212
 4015TIP3    H133680   6.618   6.417   6.304 -1.0330  0.3780 -2.0672
 4015TIP3    H233681   6.529   6.540   6.304 -2.4941 -0.6458 -2.4381
 4016TIP3   OH233682   4.089   4.047   8.456  0.1959 -0.4447 -0.6571
 4016TIP3    H133683   4.171   4.014   8.490 -0.3316 -0.2195  0.8886
 4016TIP3    H233684   4.036   3.969   8.439 -0.4847 -0.5265  1.5455
 4017TIP3   OH233685   2.932   5.511   8.373 -0.3227  0.4861  0.6607
 4017TIP3    H133686   2.937   5.564   8.293 -0.9515 -0.6312 -0.1558
 4017TIP3    H233687   3.023   5.499   8.399 -0.0869  0.6353 -0.0543
 4018TIP3   OH233688   2.464   0.570   0.436  0.1111  0.0961 -0.7572
 4018TIP3    H133689   2.476   0.483   0.400  1.3868 -0.3446  0.6156
 4018TIP3    H233690   2.478   0.559   0.530  2.1525  2.0606 -0.7386
 4019TIP3   OH233691   1.732   0.495   1.065  0.8408  0.3771  0.8268
 4019TIP3    H133692   1.724   0.549   0.986  1.3660 -0.2257  0.3516
 4019TIP3    H233693   1.743   0.405   1.032 -0.5092 -0.1079  1.6035
 4020TIP3   OH233694   1.496   5.608   1.136 -0.5125  0.0803  0.0239
 4020TIP3    H133695   1.584   5.597   1.173  0.6355 -0.5320 -2.6883
 4020TIP3    H233696   1.492   5.701   1.114 -0.3057 -0.0046 -0.3823
 4021TIP3   OH233697   3.854   0.949   0.693 -0.2769  0.2318  0.5592
 4021TIP3    H133698   3.777   1.005   0.683 -0.3159  0.1990  0.6723
 4021TIP3    H233699   3.825   0.878   0.750 -0.3388 -0.1206  0.0918
 4022TIP3   OH233700   3.409   4.065   0.945  0.2242  0.4128 -0.2460
 4022TIP3    H133701   3.345   4.102   1.004  0.1279  0.0738 -0.1340
 4022TIP3    H233702   3.473   4.021   1.002 -0.4679 -0.8762 -0.4146
 4023TIP3   OH233703   2.383   3.705   0.762  0.0084  0.6619  0.3471
 4023TIP3    H133704   2.398   3.741   0.675  0.6140  1.4082  0.7439
 4023TIP3    H233705   2.440   3.757   0.819 -0.3186  0.1300  1.1722
 4024TIP3   OH233706   6.434   3.045   2.232  0.2989  0.1799 -0.6020
 4024TIP3    H133707   6.376   3.003   2.169  1.1270 -0.9547 -0.6409
 4024TIP3    H233708   6.522   3.017   2.206  0.8411  1.5380 -0.3063
 4025TIP3   OH233709   3.667   5.111   6.913 -0.4477 -0.2758  0.8674
 4025TIP3    H133710   3.665   5.026   6.868  0.4186  0.7798 -1.3289
 4025TIP3    H233711   3.669   5.176   6.842  1.0555  1.5348  2.4354
 4026TIP3   OH233712   6.506   6.716   6.923 -0.9179  0.2094  0.0671
 4026TIP3    H133713   6.554   6.634   6.919 -0.5891  0.4492 -1.4552
 4026TIP3    H233714   6.482   6.735   6.832 -0.3929  2.1138  0.2722
 4027TIP3   OH233715   1.552   5.259   1.811  0.8802 -0.2006  0.3604
 4027TIP3    H133716   1.489   5.326   1.783  0.8415  1.2136  3.4884
 4027TIP3    H233717   1.635   5.287   1.773  0.0833 -1.0868 -2.2733
 4028TIP3   OH233718   4.776   5.430   8.257  0.1347  0.5971 -0.0675
 4028TIP3    H133719   4.806   5.472   8.338 -0.0715  0.1181  0.2675
 4028TIP3    H233720   4.856   5.414   8.207  0.0982  2.6206 -0.8282
 4029TIP3   OH233721   6.060   5.155   0.012  0.0370 -0.1445  0.2571
 4029TIP3    H133722   6.153   5.168  -0.006  0.1271 -0.2685  0.6226
 4029TIP3    H233723   6.033   5.237   0.054 -0.3321  0.4132 -1.0223
 4030TIP3   OH233724   6.453   1.188   7.180 -0.2452 -0.2555 -0.0521
 4030TIP3    H133725   6.364   1.213   7.207 -0.0039 -1.1945  1.7242
 4030TIP3    H233726   6.441   1.151   7.092 -1.6521 -0.5746  0.2476
 4031TIP3   OH233727   6.042   1.816   7.515  0.0340 -0.0543  0.0705
 4031TIP3    H133728   5.966   1.811   7.573  0.3739 -2.0757  0.4206
 4031TIP3    H233729   6.011   1.780   7.431  0.8679 -2.1276  0.5877
 4032TIP3   OH233730   4.016   3.981   0.113  0.3572 -0.0778 -0.1205
 4032TIP3    H133731   4.024   3.987   0.017 -1.1442  0.1379 -0.2481
 4032TIP3    H233732   3.946   4.042   0.135 -1.1250 -2.0261  0.8355
 4033TIP3   OH233733   2.376   0.838   0.443 -0.1674  0.2846 -0.0016
 4033TIP3    H133734   2.410   0.749   0.457  0.4692  0.9530  3.9640
 4033TIP3    H233735   2.290   0.824   0.404 -0.6255 -2.2448  1.5965
 4034TIP3   OH233736   4.458   1.112   8.367 -0.5110 -0.1914 -0.0111
 4034TIP3    H133737   4.442   1.077   8.454  1.0764  0.3544  0.5522
 4034TIP3    H233738   4.382   1.085   8.315 -1.8002  0.0283  1.6867
 4035TIP3   OH233739   4.813   4.145   8.603 -0.8032 -0.3060  0.0582
 4035TIP3    H133740   4.838   4.230   8.566  1.5713 -0.5929  0.8225
 4035TIP3    H233741   4.730   4.124   8.561  0.1021  0.9095 -2.5779
 4036TIP3   OH233742   0.515   3.138   7.000 -0.6284 -0.2094  0.2018
 4036TIP3    H133743   0.438   3.101   6.957 -1.1390  1.7859 -0.6845
 4036TIP3    H233744   0.487   3.154   7.090 -1.2559  0.4373 -0.0981
 4037TIP3   OH233745   1.545   0.037   0.538 -0.1007  0.6392  0.4310
 4037TIP3    H133746   1.550   0.114   0.482  1.3468  0.7961  0.7332
 4037TIP3    H233747   1.474   0.056   0.599 -2.4265  0.0236 -1.9361
 4038TIP3   OH233748   6.861   1.923   6.155 -0.2318  0.2388 -0.4034
 4038TIP3    H133749   6.896   1.856   6.097 -0.4901 -0.1205 -0.1530
 4038TIP3    H233750   6.935   1.948   6.210  0.3473  1.4911 -1.6986
 4039TIP3   OH233751   6.642   4.998   0.583 -0.2863 -0.0524  0.1872
 4039TIP3    H133752   6.683   5.078   0.614  0.2785 -0.8230  1.5241
 4039TIP3    H233753   6.690   4.928   0.627 -0.8407 -1.1213 -0.8584
 4040TIP3   OH233754   2.375   4.063   6.465 -0.6751 -0.1501  0.4331
 4040TIP3    H133755   2.411   4.018   6.541  0.6860 -2.8425 -1.6443
 4040TIP3    H233756   2.413   4.151   6.469  2.3162 -1.3511  1.0000
 4041TIP3   OH233757   5.827   5.947   1.678  0.5309 -0.6019  0.4613
 4041TIP3    H133758   5.892   5.885   1.711 -0.9243 -1.1329  2.5525
 4041TIP3    H233759   5.831   6.021   1.738 -0.7676 -0.6485  0.6418
 4042TIP3   OH233760   2.849   3.418   1.152  0.5084  0.7720  0.3414
 4042TIP3    H133761   2.789   3.492   1.159 -1.6098 -0.7635 -0.5524
 4042TIP3    H233762   2.882   3.406   1.241  1.0102  2.8200  0.4871
 4043TIP3   OH233763   2.946   5.643   0.112 -0.2467 -0.6532 -0.0817
 4043TIP3    H133764   2.895   5.722   0.092  0.5692  0.4396  1.8554
 4043TIP3    H233765   3.003   5.631   0.036  0.9112  1.7367  0.3155
 4044TIP3   OH233766   3.364   5.385   0.286  0.2236  0.2436 -0.0350
 4044TIP3    H133767   3.335   5.466   0.327  0.5698  0.0098  0.6794
 4044TIP3    H233768   3.372   5.323   0.358 -0.1717 -0.4693 -0.5912
 4045TIP3   OH233769   1.604   6.689   2.339  0.4056 -0.0543  0.7544
 4045TIP3    H133770   1.700   6.683   2.331  0.6819  1.3446  2.3721
 4045TIP3    H233771   1.586   6.782   2.329 -0.4955  0.0349  2.7211
 4046TIP3   OH233772   1.490   4.867   2.209  0.4946  0.4561  0.4499
 4046TIP3    H133773   1.397   4.865   2.186  0.6132  0.6166 -0.0556
 4046TIP3    H233774   1.505   4.783   2.254 -0.0033  0.6495  0.9932
 4047TIP3   OH233775   2.552   5.549   2.303 -0.0075  1.2001  0.6550
 4047TIP3    H133776   2.582   5.616   2.242 -1.5691  1.1291 -0.2532
 4047TIP3    H233777   2.471   5.516   2.265  1.0180 -1.6904  0.7213
 4048TIP3   OH233778   3.383   2.697   2.333 -0.3434 -0.1943 -0.0496
 4048TIP3    H133779   3.478   2.680   2.330 -0.3264 -0.1901  0.3443
 4048TIP3    H233780   3.375   2.778   2.383 -0.4020  1.2035 -2.1800
 4049TIP3   OH233781   5.738   0.481   6.497 -0.7047 -0.2505  0.7522
 4049TIP3    H133782   5.665   0.458   6.554 -0.8257 -0.1288  0.6477
 4049TIP3    H233783   5.709   0.560   6.452 -0.7666 -0.5612  0.2366
 4050TIP3   OH233784   5.938   6.452   7.760 -0.1350 -0.2950  0.9099
 4050TIP3    H133785   5.945   6.448   7.855  1.9803 -2.2239  0.7598
 4050TIP3    H233786   5.905   6.366   7.735  1.3135 -0.5692 -0.1779
 4051TIP3   OH233787   4.724   5.499   1.561  0.1709 -0.0319  0.1209
 4051TIP3    H133788   4.678   5.556   1.500 -1.6563  2.0059  3.1503
 4051TIP3    H233789   4.816   5.525   1.554 -0.2664  1.4467 -0.4014
 4052TIP3   OH233790   1.421   2.938   7.764 -0.7815 -0.2377 -0.3477
 4052TIP3    H133791   1.378   2.956   7.847  0.2513 -1.9013  0.6008
 4052TIP3    H233792   1.514   2.936   7.784 -0.4611 -0.0171 -1.6840
 4053TIP3   OH233793   2.421   2.059   8.334 -0.0346 -0.1886  0.2174
 4053TIP3    H133794   2.460   1.975   8.358 -0.3411 -0.4635 -0.2341
 4053TIP3    H233795   2.495   2.119   8.329  0.1170 -0.2843  1.1581
 4054TIP3   OH233796   5.440   0.490   0.806 -0.2673  0.4468 -0.2012
 4054TIP3    H133797   5.386   0.414   0.785  0.2875 -0.0554  0.1636
 4054TIP3    H233798   5.401   0.562   0.755  0.4378 -0.5183 -2.2162
 4055TIP3   OH233799   4.148   0.232   6.792 -0.4493  0.4134  0.6406
 4055TIP3    H133800   4.135   0.237   6.697 -0.2536 -0.4690  0.5533
 4055TIP3    H233801   4.194   0.312   6.815 -1.2732  1.0538  0.1287
 4056TIP3   OH233802   5.604   5.612   1.878  0.6242 -0.4220 -0.2247
 4056TIP3    H133803   5.688   5.619   1.924 -0.0289  0.4816  0.8930
 4056TIP3    H233804   5.572   5.525   1.901  0.6004 -0.2224  0.5291
 4057TIP3   OH233805   6.180   1.927   1.535  0.1048  0.1576  0.2599
 4057TIP3    H133806   6.152   2.012   1.501 -1.1509  0.1860  1.2987
 4057TIP3    H233807   6.129   1.915   1.615  0.8161 -1.2411  0.5357
 4058TIP3   OH233808   2.403   3.306   2.161  0.0586  0.1843  0.3273
 4058TIP3    H133809   2.348   3.234   2.189 -1.6856  1.4904  0.4423
 4058TIP3    H233810   2.442   3.340   2.241  0.5263 -0.3211  0.3218
 4059TIP3   OH233811   2.749   6.216   1.609 -0.4160 -0.1869 -0.6301
 4059TIP3    H133812   2.797   6.283   1.659 -0.7832 -0.2692 -0.1593
 4059TIP3    H233813   2.808   6.192   1.538 -0.0467  0.2249 -0.4663
 4060TIP3   OH233814   6.352   6.266   0.567 -0.1188 -0.7380  0.1101
 4060TIP3    H133815   6.316   6.336   0.621  0.0061 -0.5984  0.0137
 4060TIP3    H233816   6.292   6.193   0.579 -2.2517  0.4299 -2.4970
 4061TIP3   OH233817   6.765   2.655   7.261 -0.1696  0.4599  0.4798
 4061TIP3    H133818   6.835   2.596   7.233 -0.0981 -0.8788  3.2115
 4061TIP3    H233819   6.761   2.721   7.192  3.0162 -0.0577 -0.3589
 4062TIP3   OH233820   6.883   4.945   7.246  0.1396  0.7990  0.2106
 4062TIP3    H133821   6.907   5.036   7.265 -1.9912  0.9886  2.5508
 4062TIP3    H233822   6.899   4.899   7.328  3.6210 -1.6311 -1.6268
 4063TIP3   OH233823   0.882   4.172   8.367 -0.0174 -0.4559  0.4948
 4063TIP3    H133824   0.943   4.103   8.341  0.8540 -0.0044  1.2707
 4063TIP3    H233825   0.811   4.167   8.304  0.2640 -1.7558  0.2634
 4064TIP3   OH233826   6.525   2.684   1.101 -0.6058 -0.5290 -0.1726
 4064TIP3    H133827   6.619   2.676   1.084 -0.1104 -0.6664  2.1814
 4064TIP3    H233828   6.506   2.776   1.084 -0.1808 -0.6188 -1.2000
 4065TIP3   OH233829   4.670   3.344   0.109 -0.2423 -0.1332  0.6831
 4065TIP3    H133830   4.753   3.390   0.102  0.5001 -1.1788  2.1115
 4065TIP3    H233831   4.642   3.356   0.200 -1.3751 -0.2664  0.3735
 4066TIP3   OH233832   6.482   0.023   7.100  0.4297 -0.4503 -0.0647
 4066TIP3    H133833   6.488  -0.057   7.047  0.8536 -0.4686  0.0058
 4066TIP3    H233834   6.496  -0.007   7.190 -1.6856 -0.6283  0.2415
 4067TIP3   OH233835   1.365   4.749   1.961 -0.4960  0.1622 -0.6055
 4067TIP3    H133836   1.301   4.818   1.981 -0.0241  0.2416  0.7362
 4067TIP3    H233837   1.334   4.673   2.010  0.7998  0.4056  0.6509
 4068TIP3   OH233838   2.078   1.918   0.511  0.3849 -0.2568  0.0467
 4068TIP3    H133839   2.048   1.990   0.567 -0.5835 -0.9637  0.4528
 4068TIP3    H233840   2.173   1.923   0.517  0.3682  1.3975 -0.4583
 4069TIP3   OH233841   0.398   4.587   6.563 -0.3466 -0.4213 -0.5345
 4069TIP3    H133842   0.488   4.560   6.544 -0.1176 -0.9722  1.1541
 4069TIP3    H233843   0.360   4.511   6.607 -1.3552  0.1401 -0.4278
 4070TIP3   OH233844   6.840   0.608   0.690 -1.1583  0.5726  0.0988
 4070TIP3    H133845   6.781   0.578   0.759 -1.2875  2.1754  0.7102
 4070TIP3    H233846   6.886   0.682   0.728  1.1835 -0.5201 -0.4007
 4071TIP3   OH233847   2.268   4.071   1.498  0.0588 -0.7774 -0.0921
 4071TIP3    H133848   2.285   4.037   1.411 -1.8198 -1.3268 -0.2879
 4071TIP3    H233849   2.203   4.012   1.535 -0.1638  0.2125  1.1832
 4072TIP3   OH233850   0.912   6.467   7.216 -0.6631  0.8049 -0.2202
 4072TIP3    H133851   0.850   6.524   7.172  1.1232  0.9868 -2.7053
 4072TIP3    H233852   0.913   6.386   7.164 -0.8035 -0.3049  1.3950
 4073TIP3   OH233853   0.756   5.260   0.098 -0.1006 -0.4890 -0.4377
 4073TIP3    H133854   0.807   5.178   0.098  1.0140  0.1605 -1.5401
 4073TIP3    H233855   0.676   5.238   0.050 -0.5292 -1.3232  0.6223
 4074TIP3   OH233856   3.839   4.394   0.212  0.9186  0.0576  0.3453
 4074TIP3    H133857   3.806   4.478   0.180  2.4427  0.7974  0.5860
 4074TIP3    H233858   3.830   4.400   0.307  1.2376  0.0517  0.3775
 4075TIP3   OH233859   6.829   6.156   6.578 -0.1881 -0.7146 -0.5767
 4075TIP3    H133860   6.792   6.235   6.617 -0.6045 -1.2098  0.0504
 4075TIP3    H233861   6.754   6.098   6.566 -0.1482 -0.4096 -2.5623
 4076TIP3   OH233862   6.387   6.707   0.521  0.3780 -0.0457 -0.0528
 4076TIP3    H133863   6.355   6.794   0.544  0.1631 -0.2208  0.3211
 4076TIP3    H233864   6.478   6.722   0.495  0.0998  0.4061 -0.8134
 4077TIP3   OH233865   1.709   0.600   0.179 -0.0831  0.4909 -0.5281
 4077TIP3    H133866   1.632   0.572   0.228  1.2187 -3.7557 -0.5446
 4077TIP3    H233867   1.687   0.581   0.088  0.2719  1.2519 -0.7842
 4078TIP3   OH233868   0.417   2.614   1.647 -0.0418  0.6805 -0.0288
 4078TIP3    H133869   0.378   2.684   1.699  0.9595  0.1305  1.5111
 4078TIP3    H233870   0.452   2.659   1.569  0.6679  1.9240  0.9695
 4079TIP3   OH233871   1.721   3.678   0.411 -0.1551  0.2629 -0.5104
 4079TIP3    H133872   1.721   3.687   0.315  0.3147  0.6713 -0.4762
 4079TIP3    H233873   1.664   3.603   0.428 -0.0091  0.0048 -1.1304
 4080TIP3   OH233874   5.004   3.898   1.623  0.1449  0.1229  0.3002
 4080TIP3    H133875   5.031   3.989   1.640 -0.0167  0.1452  0.4418
 4080TIP3    H233876   5.072   3.845   1.665  1.7131  0.1422 -2.0231
 4081TIP3   OH233877   1.107   1.825   0.908 -0.3647  0.1882  0.2699
 4081TIP3    H133878   1.020   1.825   0.946 -0.8416 -0.1508 -0.7816
 4081TIP3    H233879   1.150   1.748   0.946 -0.8273 -0.1396  0.1373
 4082TIP3   OH233880   6.402   5.728   1.154 -0.0968 -0.9879 -0.1014
 4082TIP3    H133881   6.430   5.672   1.226 -1.0264 -1.9506 -0.4542
 4082TIP3    H233882   6.397   5.816   1.192  1.5479 -1.0941  0.4206
 4083TIP3   OH233883   6.180   2.181   1.430  0.2339 -0.7046  0.2028
 4083TIP3    H133884   6.181   2.127   1.351 -2.0661  2.5728 -2.3832
 4083TIP3    H233885   6.266   2.223   1.432 -0.3379  0.6891 -1.8530
 4084TIP3   OH233886   0.384   5.041   1.339 -0.5241 -0.7950  0.1376
 4084TIP3    H133887   0.391   5.012   1.431 -0.2566 -0.3885  0.2479
 4084TIP3    H233888   0.470   5.018   1.301 -0.8518 -1.5368 -0.1844
 4085TIP3   OH233889   5.506   4.238   8.223  0.1314  0.0701 -0.0125
 4085TIP3    H133890   5.595   4.266   8.201  0.5004 -0.7679  0.3769
 4085TIP3    H233891   5.512   4.143   8.231 -0.7379  0.0363  0.3104
 4086TIP3   OH233892   0.426   5.520   1.054  0.0640  0.3123  0.5075
 4086TIP3    H133893   0.360   5.452   1.066  0.4691 -0.0993  0.4404
 4086TIP3    H233894   0.389   5.577   0.987  1.1320 -1.7125 -1.9559
 4087TIP3   OH233895   0.068   0.202   7.226 -1.0068 -0.1631 -0.1584
 4087TIP3    H133896   0.049   0.280   7.174 -1.5929  0.0233  0.3309
 4087TIP3    H233897   0.135   0.231   7.289  1.4243 -0.9430 -2.2046
 4088TIP3   OH233898   1.538   6.536   2.047  0.3909  0.3142  0.1870
 4088TIP3    H133899   1.524   6.475   2.119  1.2944  0.8337  0.8409
 4088TIP3    H233900   1.451   6.560   2.017 -0.0875  1.3071  2.1873
 4089TIP3   OH233901   3.822   5.094   8.321 -0.0822 -0.6076  0.1944
 4089TIP3    H133902   3.908   5.092   8.280  0.3356  0.6405  0.9538
 4089TIP3    H233903   3.788   5.181   8.301 -1.8964 -1.6287 -1.4937
 4090TIP3   OH233904   6.634   4.891   0.074  0.4916  0.2017 -0.1256
 4090TIP3    H133905   6.656   4.799   0.059 -0.2657 -0.0251  0.1002
 4090TIP3    H233906   6.595   4.893   0.161 -0.3450  0.5739 -0.4925
 4091TIP3   OH233907   6.384   4.225   8.420 -0.3344 -0.1028 -0.0314
 4091TIP3    H133908   6.371   4.318   8.406 -0.1275  0.1572  1.3953
 4091TIP3    H233909   6.296   4.190   8.435 -0.3261  0.0367  0.3621
 4092TIP3   OH233910   6.580   3.821   7.130 -0.0190  0.1999  0.0407
 4092TIP3    H133911   6.529   3.897   7.159 -0.1406 -0.2842  1.1711
 4092TIP3    H233912   6.603   3.840   7.039 -3.2863 -0.1136 -0.9672
 4093TIP3   OH233913   3.337   0.585   7.673 -0.0556 -0.1358 -0.5385
 4093TIP3    H133914   3.388   0.644   7.618  2.1534 -1.1395  0.3293
 4093TIP3    H233915   3.346   0.499   7.632 -2.0788 -0.1822 -1.0034
 4094TIP3   OH233916   1.473   1.345   2.151 -0.6746 -0.2367 -0.0746
 4094TIP3    H133917   1.445   1.323   2.062 -0.3573  1.5490 -0.6539
 4094TIP3    H233918   1.567   1.360   2.143 -0.8078  0.8851  0.3465
 4095TIP3   OH233919   1.075   0.411   0.558 -0.1505 -0.4332  0.0405
 4095TIP3    H133920   1.047   0.345   0.495  0.5142 -0.4216 -0.2734
 4095TIP3    H233921   1.069   0.494   0.511  1.2944 -0.5177 -0.3647
 4096TIP3   OH233922   6.337   6.499   0.362 -0.1164 -0.3631 -0.3616
 4096TIP3    H133923   6.323   6.424   0.419 -0.0947 -0.3954 -0.3992
 4096TIP3    H233924   6.346   6.573   0.422 -0.7426 -0.2965 -0.3502
 4097TIP3   OH233925   6.816   6.510   8.102  0.4444  0.0678 -0.2216
 4097TIP3    H133926   6.830   6.475   8.190 -0.1453 -0.0628 -0.1720
 4097TIP3    H233927   6.721   6.507   8.090  0.4990  0.3335 -0.7617
 4098TIP3   OH233928   3.759   1.532   1.034  0.8388  0.1890  0.2629
 4098TIP3    H133929   3.694   1.602   1.030 -0.7603 -1.2068  0.6119
 4098TIP3    H233930   3.783   1.526   1.127  0.8707  0.1738  0.2539
 4099TIP3   OH233931   0.403   1.943   8.413  0.0991  0.2213  0.3654
 4099TIP3    H133932   0.320   1.979   8.379 -0.8476 -1.0815  1.2028
 4099TIP3    H233933   0.447   2.018   8.452  0.5304  1.4647 -2.3127
 4100TIP3   OH233934   3.799   0.503   7.734 -0.4749  0.2792 -0.2376
 4100TIP3    H133935   3.768   0.591   7.758  0.1200  0.1663  1.0783
 4100TIP3    H233936   3.879   0.519   7.685 -1.6856  0.5201 -2.2291
 4101TIP3   OH233937   5.478   5.052   1.603 -1.2785 -0.1418  0.4019
 4101TIP3    H133938   5.557   5.102   1.620 -1.4377  0.2043  0.1303
 4101TIP3    H233939   5.408   5.117   1.601 -1.5192 -0.4030  0.2890
 4102TIP3   OH233940   0.039   1.209   1.773 -0.5940  0.0635 -0.0355
 4102TIP3    H133941   0.031   1.151   1.849  1.0751  0.5269  0.5414
 4102TIP3    H233942  -0.004   1.162   1.702 -2.2497 -0.3623  1.1891
 4103TIP3   OH233943   6.376   5.598   0.074 -0.4497  0.0825 -0.3313
 4103TIP3    H133944   6.472   5.590   0.077 -0.5148 -2.3978 -1.8704
 4103TIP3    H233945   6.346   5.568   0.159  0.0827 -1.8974 -0.8043
 4104TIP3   OH233946   0.475   6.398   7.244  0.6575  0.0381  0.3245
 4104TIP3    H133947   0.449   6.359   7.327 -1.3900 -0.1159 -0.3604
 4104TIP3    H233948   0.526   6.330   7.199 -0.0709 -0.6468  0.5345
 4105TIP3   OH233949   6.320   1.664   1.282  0.7133  0.5841 -0.0197
 4105TIP3    H133950   6.301   1.667   1.189  0.0864  0.1899  0.0857
 4105TIP3    H233951   6.412   1.639   1.288  1.8361  4.0617 -0.5854
 4106TIP3   OH233952   6.625   4.929   1.769  0.5482 -0.0780 -0.3004
 4106TIP3    H133953   6.533   4.947   1.751  0.9260  1.0669 -1.1556
 4106TIP3    H233954   6.625   4.891   1.857 -0.7224 -0.0168 -0.2595
 4107TIP3   OH233955   5.148   5.996   0.712  0.0502  0.2014  0.4274
 4107TIP3    H133956   5.145   5.960   0.623  1.9738  0.1240  0.3640
 4107TIP3    H233957   5.056   6.011   0.734 -0.6095 -1.6430 -0.7998
 4108TIP3   OH233958   3.256   6.011   8.630 -0.1330 -0.1865 -0.5958
 4108TIP3    H133959   3.298   5.957   8.563 -0.6933  0.0699 -1.1656
 4108TIP3    H233960   3.250   6.098   8.591 -1.0012 -0.1720 -0.4577
 4109TIP3   OH233961   6.694   6.738   7.550  0.4382  0.4843 -0.5221
 4109TIP3    H133962   6.758   6.697   7.492  1.2020 -0.5174  0.9445
 4109TIP3    H233963   6.690   6.680   7.626 -0.2073  1.9332  0.6105
 4110TIP3   OH233964   2.940   3.709   1.810  0.1428 -0.0132  0.6663
 4110TIP3    H133965   2.953   3.638   1.748  0.6279 -1.1049  1.9624
 4110TIP3    H233966   2.866   3.680   1.864 -0.9251  1.3594  0.0283
 4111TIP3   OH233967   5.110   4.481   7.653  0.1839 -1.1348  0.8043
 4111TIP3    H133968   5.070   4.408   7.701  0.2309 -1.9059 -0.2780
 4111TIP3    H233969   5.202   4.479   7.680 -0.0733 -0.6551  1.7475
 4112TIP3   OH233970   2.574   1.226   0.123  0.0613 -0.4033  0.2911
 4112TIP3    H133971   2.545   1.136   0.106  1.5475 -0.5698 -1.7216
 4112TIP3    H233972   2.495   1.273   0.148 -1.5892 -1.3266 -2.7213
 4113TIP3   OH233973   2.662   5.100   8.249 -0.0735 -0.1878 -0.4795
 4113TIP3    H133974   2.747   5.139   8.267 -0.2956  0.3019 -0.4646
 4113TIP3    H233975   2.681   5.020   8.200  0.5141 -1.2319  1.3628
 4114TIP3   OH233976   6.151   1.258   0.085 -0.1518  0.2744 -0.1308
 4114TIP3    H133977   6.202   1.194   0.036 -0.0514  1.0197 -1.0353
 4114TIP3    H233978   6.117   1.209   0.160  2.5477 -0.0762  1.0044
 4115TIP3   OH233979   2.561   2.223   7.643 -0.5831  0.2306 -0.2868
 4115TIP3    H133980   2.559   2.319   7.644 -0.9366  0.2349 -0.8929
 4115TIP3    H233981   2.527   2.197   7.728 -1.8459  0.6338 -0.6482
 4116TIP3   OH233982   5.470   1.283   0.223  0.0399  0.8457  0.3775
 4116TIP3    H133983   5.432   1.314   0.141  0.4440  0.2192 -0.0541
 4116TIP3    H233984   5.398   1.243   0.270  0.0957 -0.1384 -0.3373
 4117TIP3   OH233985   3.976   2.452   1.994  0.0809 -0.5797  0.0901
 4117TIP3    H133986   3.998   2.359   1.992  4.4470  0.1699  1.7956
 4117TIP3    H233987   3.902   2.458   2.055 -0.7153 -2.9027 -0.5379
 4118TIP3   OH233988   6.438   0.124   8.086 -0.0897  0.2316 -0.7006
 4118TIP3    H133989   6.451   0.124   7.991 -1.2782  0.7126 -0.8829
 4118TIP3    H233990   6.348   0.093   8.098 -0.0330  0.4045  0.2609
 4119TIP3   OH233991   0.382   6.300   8.310  0.1900 -0.4330 -0.0232
 4119TIP3    H133992   0.465   6.288   8.355 -0.1227  1.3398  1.1175
 4119TIP3    H233993   0.320   6.321   8.380 -0.7133  0.5508 -1.0854
 4120TIP3   OH233994   0.759   3.129   0.997 -0.1282 -0.2452 -0.5661
 4120TIP3    H133995   0.737   3.221   1.013 -1.1038 -0.4295 -0.7839
 4120TIP3    H233996   0.814   3.105   1.071 -0.9225  0.1698  0.1825
 4121TIP3   OH233997   3.770   4.465   0.475  0.4452  0.5693 -0.1087
 4121TIP3    H133998   3.778   4.375   0.506 -2.3304 -0.7928 -2.7872
 4121TIP3    H233999   3.682   4.493   0.503 -0.1459  1.0707 -2.2667
 4122TIP3   OH234000   3.709   4.689   8.003 -0.2291 -0.3366  0.0019
 4122TIP3    H134001   3.716   4.725   8.092 -1.1719  1.5928 -0.6498
 4122TIP3    H234002   3.699   4.595   8.016  0.0336 -0.1465  1.9180
 4123TIP3   OH234003   2.341   0.799   7.492 -0.0090 -0.5873  0.1334
 4123TIP3    H134004   2.285   0.722   7.490 -0.2141 -0.4471 -1.4618
 4123TIP3    H234005   2.421   0.772   7.447 -0.7213  0.5189 -1.9827
 4124TIP3   OH234006   1.703   2.295   0.667  0.5203 -0.6032 -0.5185
 4124TIP3    H134007   1.645   2.369   0.649 -0.3650 -0.9332  0.8456
 4124TIP3    H234008   1.746   2.318   0.749  3.4490  0.2751 -2.1447
 4125TIP3   OH234009   5.856   0.906   0.120 -0.1396 -0.3135 -0.4113
 4125TIP3    H134010   5.795   0.914   0.047  2.2738 -1.9800 -2.7963
 4125TIP3    H234011   5.860   0.812   0.139  1.0631 -0.1573  0.2415
 4126TIP3   OH234012   0.496   4.807   6.381 -0.5264  0.2623  0.4788
 4126TIP3    H134013   0.482   4.712   6.384 -0.3922  0.2648  1.6686
 4126TIP3    H234014   0.567   4.823   6.443  0.4109  0.9972 -0.7255
 4127TIP3   OH234015   4.838   0.952   1.150 -0.0255  0.2778 -0.6256
 4127TIP3    H134016   4.764   0.904   1.186  0.0790  1.2845  1.0015
 4127TIP3    H234017   4.872   0.894   1.081 -0.1472 -1.8184  0.9715
 4128TIP3   OH234018   0.595   3.056   1.884  0.1664 -0.1397  0.5634
 4128TIP3    H134019   0.502   3.065   1.906  0.2713 -1.0859  1.4596
 4128TIP3    H234020   0.636   3.028   1.966  0.9892 -1.3188 -0.2318
 4129TIP3   OH234021   2.508   3.754   0.264 -0.4075 -0.3885  0.6189
 4129TIP3    H134022   2.530   3.847   0.259  0.9355 -0.6757  0.8352
 4129TIP3    H234023   2.467   3.743   0.349  0.0116 -0.0984  0.8613
 4130TIP3   OH234024   3.341   1.897   7.939  0.6265 -0.2096  0.1930
 4130TIP3    H134025   3.312   1.980   7.977 -0.3207  0.0961 -1.1312
 4130TIP3    H234026   3.420   1.920   7.890 -0.0720  0.1067 -0.8291
 4131TIP3   OH234027   4.438   6.461   2.714 -0.3683  0.5101  0.3319
 4131TIP3    H134028   4.381   6.385   2.708  1.2196 -0.6880 -0.2366
 4131TIP3    H234029   4.431   6.490   2.805  0.3185 -1.4149  1.0458
 4132TIP3   OH234030   1.067   3.885   8.653 -0.2390 -0.3778  0.0798
 4132TIP3    H134031   1.053   3.808   8.708  0.0307  0.1497  0.9012
 4132TIP3    H234032   1.125   3.941   8.704  0.1102  0.0755 -0.7962
 4133TIP3   OH234033   0.024   0.601   2.328 -0.0854 -0.1021  0.3188
 4133TIP3    H134034   0.023   0.533   2.260 -1.1279  0.0679  0.1564
 4133TIP3    H234035   0.108   0.588   2.372 -0.3481 -1.6367  0.4172
 4134TIP3   OH234036   4.292   1.460   7.773 -0.4341  0.2715  0.2604
 4134TIP3    H134037   4.242   1.447   7.692  0.1970  2.9120 -0.6477
 4134TIP3    H234038   4.333   1.376   7.789 -1.7016 -0.7312 -1.3690
 4135TIP3   OH234039   1.568   3.953   7.941  0.5108  0.2684 -0.3013
 4135TIP3    H134040   1.579   4.019   8.010 -3.7608  2.0730 -0.9994
 4135TIP3    H234041   1.534   3.876   7.987  0.9044  0.2717 -0.0036
 4136TIP3   OH234042   6.469   0.826   1.793 -0.2578  0.2265 -0.3809
 4136TIP3    H134043   6.446   0.742   1.833  1.7251 -0.4494 -0.5199
 4136TIP3    H234044   6.565   0.828   1.796 -0.0432  0.7604 -3.8058
 4137TIP3   OH234045   4.017   2.842   6.512  0.5654  0.1131 -0.3246
 4137TIP3    H134046   3.924   2.822   6.517  1.0619 -2.1998  0.9958
 4137TIP3    H234047   4.023   2.914   6.449 -2.0514  0.0633 -0.7151
 4138TIP3   OH234048   3.497   4.309   7.355  0.4419  0.7180 -0.3118
 4138TIP3    H134049   3.490   4.352   7.440  1.5053  0.5301 -0.1113
 4138TIP3    H234050   3.419   4.336   7.308  0.5359  1.9782  0.2072
 4139TIP3   OH234051   1.665   1.294   7.499 -0.3336 -0.4934  0.4440
 4139TIP3    H134052   1.741   1.262   7.548  0.6791 -0.1061 -0.8166
 4139TIP3    H234053   1.623   1.214   7.466  0.9016 -0.6777 -0.8142
 4140TIP3   OH234054   5.456   3.172   7.706  0.2109  0.3611  0.0668
 4140TIP3    H134055   5.482   3.081   7.698 -0.1680  0.0509  1.9887
 4140TIP3    H234056   5.414   3.178   7.792  2.6654  2.8903  1.2665
 4141TIP3   OH234057   6.647   4.766   7.735 -0.2775 -0.0137 -0.4609
 4141TIP3    H134058   6.661   4.823   7.810  0.0115 -0.5696 -0.0906
 4141TIP3    H234059   6.631   4.827   7.662  1.3494  0.5871 -0.3540
 4142TIP3   OH234060   3.659   5.356   7.690 -0.1535 -0.5072  0.4872
 4142TIP3    H134061   3.738   5.390   7.732 -0.2044  0.4458 -0.1415
 4142TIP3    H234062   3.676   5.263   7.677  0.6220 -0.4317  0.8928
 4143TIP3   OH234063   2.694   3.466   7.338  0.8831  0.0754 -0.0640
 4143TIP3    H134064   2.615   3.414   7.347 -0.1422  1.5353 -0.2817
 4143TIP3    H234065   2.747   3.419   7.273 -0.1312 -0.5416 -0.4664
 4144TIP3   OH234066   1.052   0.313   7.831  0.3031  0.2269 -0.2827
 4144TIP3    H134067   1.105   0.336   7.907  0.2576  1.4021 -0.5929
 4144TIP3    H234068   1.112   0.316   7.757 -0.0928  1.1419 -0.5756
 4145TIP3   OH234069   4.245   4.947   7.395  0.2682  0.0010 -0.0679
 4145TIP3    H134070   4.207   4.896   7.323  0.3331 -0.8937  0.5152
 4145TIP3    H234071   4.192   4.922   7.471  1.3305 -0.4439  0.5432
 4146TIP3   OH234072   5.810   3.691   0.241 -0.0750 -0.0091  0.0073
 4146TIP3    H134073   5.892   3.687   0.291  0.7660 -1.2926 -1.3964
 4146TIP3    H234074   5.758   3.756   0.287  1.5596  0.5336  1.2054
 4147TIP3   OH234075   3.258   6.773   2.118 -0.2138 -0.2576 -0.1837
 4147TIP3    H134076   3.187   6.813   2.168 -0.7687 -0.6037 -0.6757
 4147TIP3    H234077   3.229   6.683   2.104  0.7584 -0.6719  0.4225
 4148TIP3   OH234078   1.869   5.948   0.750  0.0284 -0.6884 -0.4140
 4148TIP3    H134079   1.955   5.919   0.719  0.3842  1.8945 -2.0871
 4148TIP3    H234080   1.808   5.918   0.683  0.0918  0.3875 -0.9607
 4149TIP3   OH234081   2.418   4.946   6.868 -0.8653 -0.1847 -0.7555
 4149TIP3    H134082   2.469   5.015   6.826  0.3635 -0.8730 -0.4336
 4149TIP3    H234083   2.378   4.898   6.795 -1.1742  0.4436 -1.0051
 4150TIP3   OH234084   1.691   1.451   0.608  0.2617  0.4113 -0.2029
 4150TIP3    H134085   1.622   1.392   0.641  0.7099  0.5639  1.0867
 4150TIP3    H234086   1.695   1.434   0.514  0.5852 -1.8285  0.1694
 4151TIP3   OH234087   5.127   0.441   0.096 -0.1058 -0.5546 -0.1294
 4151TIP3    H134088   5.200   0.427   0.035 -0.8769 -1.1095 -0.9494
 4151TIP3    H234089   5.050   0.413   0.048 -1.1034  1.5804  0.0895
 4152TIP3   OH234090   2.958   6.471   0.388 -0.2886  0.2094  0.2348
 4152TIP3    H134091   2.996   6.555   0.361  0.0487 -0.4062 -1.3050
 4152TIP3    H234092   3.027   6.431   0.441  0.9979 -0.5585 -1.8978
 4153TIP3   OH234093   3.636   0.493   1.905  0.0105  0.1937  0.2062
 4153TIP3    H134094   3.573   0.436   1.949  0.4659 -0.6870 -0.2556
 4153TIP3    H234095   3.694   0.433   1.858  0.5953  1.0353 -0.1731
 4154TIP3   OH234096   1.468   0.145   1.300 -0.4084  0.0199  0.0658
 4154TIP3    H134097   1.433   0.142   1.211  2.5076 -2.0398 -1.1936
 4154TIP3    H234098   1.411   0.086   1.350 -2.3277  1.5198 -0.2516
 4155TIP3   OH234099   3.237   0.792   7.844  0.0269 -0.2245  0.4144
 4155TIP3    H134100   3.322   0.834   7.832  0.6626 -1.5851  0.0445
 4155TIP3    H234101   3.231   0.730   7.771 -1.1672 -0.3349  0.5909
 4156TIP3   OH234102   2.048   5.076   0.902 -0.0874 -0.2141  0.3050
 4156TIP3    H134103   2.088   5.007   0.955  0.9460  1.5203  1.9072
 4156TIP3    H234104   2.122   5.131   0.874 -0.9934  1.2957  0.7147
 4157TIP3   OH234105   2.989   0.350   0.992  0.1431 -0.1468  0.0558
 4157TIP3    H134106   2.962   0.258   0.988 -0.7926 -0.0184  2.1440
 4157TIP3    H234107   2.929   0.390   1.055  0.8311  1.8106 -0.4496
 4158TIP3   OH234108   6.179   3.208   0.683  0.1389  0.3428 -1.0211
 4158TIP3    H134109   6.212   3.227   0.771 -0.9484  1.8010 -0.8944
 4158TIP3    H234110   6.098   3.258   0.677  0.2865  0.4046 -2.9339
 4159TIP3   OH234111   2.910   1.060   7.080  0.3669 -0.1115 -0.4024
 4159TIP3    H134112   2.821   1.096   7.079  1.1814  2.0225 -0.1937
 4159TIP3    H234113   2.945   1.082   6.993 -0.1602 -3.4066 -1.5859
 4160TIP3   OH234114   4.347   5.896   1.790  0.1502 -0.2915 -0.1362
 4160TIP3    H134115   4.430   5.866   1.827 -0.8245 -2.9124  0.1040
 4160TIP3    H234116   4.285   5.892   1.863 -0.5496  0.0391 -0.6986
 4161TIP3   OH234117   4.201   4.918   1.323 -0.3546  0.0314 -0.0154
 4161TIP3    H134118   4.250   4.836   1.325  0.4115  0.4905  0.3819
 4161TIP3    H234119   4.109   4.890   1.324 -0.1100 -0.8120  0.9013
 4162TIP3   OH234120   1.269   2.965   6.872  0.2920 -0.1009 -0.1399
 4162TIP3    H134121   1.247   2.995   6.960 -0.1515  0.4255 -0.4267
 4162TIP3    H234122   1.230   3.030   6.813  1.7709  0.3049 -0.7006
 4163TIP3   OH234123   2.607   6.410   2.356 -0.1618  0.0235 -0.0478
 4163TIP3    H134124   2.638   6.397   2.446  1.7692  0.7945 -0.5608
 4163TIP3    H234125   2.644   6.337   2.307  0.7206  0.8594 -0.6474
 4164TIP3   OH234126   2.627   4.171   8.066 -0.3665 -0.4083  0.2673
 4164TIP3    H134127   2.674   4.136   8.141  2.1669  0.2715 -0.9049
 4164TIP3    H234128   2.687   4.234   8.027 -3.1324  2.2255 -0.0843
 4165TIP3   OH234129   4.027   2.870   0.312 -0.3744  0.2795 -0.2321
 4165TIP3    H134130   3.934   2.889   0.324 -0.6282 -0.3693 -1.1410
 4165TIP3    H234131   4.031   2.779   0.282  0.6183 -0.0118  0.6960
 4166TIP3   OH234132   6.878   1.654   1.399 -0.1331 -0.1886 -0.7852
 4166TIP3    H134133   6.928   1.702   1.466  1.6149 -1.3967 -1.1544
 4166TIP3    H234134   6.791   1.644   1.438 -0.0477  1.7244  0.0235
 4167TIP3   OH234135   5.852   3.079   8.130 -0.7102 -0.3891 -0.1821
 4167TIP3    H134136   5.758   3.068   8.143 -1.1058  1.9232 -0.5436
 4167TIP3    H234137   5.859   3.164   8.087  1.5787 -0.4206  0.0464
 4168TIP3   OH234138   5.909   5.863   0.489 -0.6715 -0.7005  0.1435
 4168TIP3    H134139   5.902   5.945   0.538 -0.8278 -0.5987 -0.0486
 4168TIP3    H234140   5.993   5.826   0.516 -0.3793 -0.2408 -0.1323
 4169TIP3   OH234141   1.573   2.244   1.750 -0.6383  0.0717  0.0472
 4169TIP3    H134142   1.487   2.286   1.745  0.9544  3.8462  1.2954
 4169TIP3    H234143   1.630   2.299   1.698  1.3067 -1.6601  0.2282
 4170TIP3   OH234144   0.642   1.440   1.523  0.4256 -0.4023 -0.0612
 4170TIP3    H134145   0.602   1.353   1.524  0.8983 -0.6331 -0.5838
 4170TIP3    H234146   0.686   1.446   1.438  0.0875  0.5005 -0.1879
 4171TIP3   OH234147   6.324   2.215   1.157  0.2453 -0.5618 -0.7418
 4171TIP3    H134148   6.399   2.156   1.167 -1.0164 -1.9514  0.9348
 4171TIP3    H234149   6.260   2.165   1.106 -0.4725 -0.2803 -0.1254
 4172TIP3   OH234150   6.163   2.257   8.061 -0.1038  0.0063 -0.1568
 4172TIP3    H134151   6.090   2.241   8.002  0.5625  1.7064 -1.5538
 4172TIP3    H234152   6.123   2.281   8.144 -1.1004 -0.3021 -0.5370
 4173TIP3   OH234153   4.741   2.931   1.557  0.0252 -0.0997 -0.2497
 4173TIP3    H134154   4.646   2.917   1.552  0.0233  0.0873 -0.8705
 4173TIP3    H234155   4.764   2.968   1.472  0.5696  0.3916  0.0996
 4174TIP3   OH234156   2.735   5.901   1.020 -0.1813 -0.0075  0.1541
 4174TIP3    H134157   2.810   5.919   0.963 -0.2414  2.8952  0.8513
 4174TIP3    H234158   2.773   5.855   1.095  0.8561  0.9606  0.2523
 4175TIP3   OH234159   1.509   4.920   0.882  0.2355  0.6987 -0.9024
 4175TIP3    H134160   1.571   4.992   0.896  1.7555 -0.9170  1.3520
 4175TIP3    H234161   1.437   4.938   0.942  0.7451  0.2348 -0.1377
 4176TIP3   OH234162   3.721   5.934   2.285  0.2446 -0.2337  0.0195
 4176TIP3    H134163   3.667   5.889   2.350  2.3160 -2.2847  0.4253
 4176TIP3    H234164   3.680   6.021   2.276 -1.1168 -0.4940  2.7520
 4177TIP3   OH234165   2.287   5.705   0.760 -0.1044  0.0435  0.4606
 4177TIP3    H134166   2.298   5.769   0.831  0.8732 -0.2277  0.5662
 4177TIP3    H234167   2.198   5.671   0.773 -0.2986  0.7106  0.9592
 4178TIP3   OH234168   0.918   1.454   6.977 -0.0900  0.0446  0.2235
 4178TIP3    H134169   0.982   1.521   7.001  1.7979 -1.3838 -0.5996
 4178TIP3    H234170   0.925   1.446   6.882 -0.4848 -1.1276  0.2780
 4179TIP3   OH234171   1.903   1.471   0.358 -0.0316  0.9605  0.0085
 4179TIP3    H134172   1.972   1.431   0.305 -1.4255 -0.1556 -1.0873
 4179TIP3    H234173   1.925   1.564   0.361  1.8844  0.5330  0.3429
 4180TIP3   OH234174   6.455   4.273   7.162 -0.2810 -0.1656  0.0415
 4180TIP3    H134175   6.534   4.319   7.136  1.1201 -1.1342  2.2780
 4180TIP3    H234176   6.432   4.310   7.247 -0.4195 -1.9571  0.8421
 4181TIP3   OH234177   1.141   6.106   7.064  0.1817 -0.1858 -0.1856
 4181TIP3    H134178   1.125   6.040   7.132  0.5542  0.1681  0.2543
 4181TIP3    H234179   1.158   6.055   6.985 -2.0148 -0.5989 -0.4525
 4182TIP3   OH234180   2.125   0.046   0.194 -0.1635  0.3729 -0.2305
 4182TIP3    H134181   2.068   0.110   0.235  0.5402  0.6024  0.4190
 4182TIP3    H234182   2.101   0.047   0.101 -1.0454  0.6198  0.0000
 4183TIP3   OH234183   3.709   5.103   7.654 -0.4547  0.4121  0.4618
 4183TIP3    H134184   3.718   5.099   7.559  0.8644  1.3214  0.5199
 4183TIP3    H234185   3.624   5.063   7.672 -0.8158  0.4118 -1.1080
 4184TIP3   OH234186   4.717   4.738   1.770 -0.1129 -0.2300 -0.1834
 4184TIP3    H134187   4.746   4.827   1.750  0.3451 -0.0188  1.2492
 4184TIP3    H234188   4.796   4.693   1.799 -0.2921 -1.1991 -1.1323
 4185TIP3   OH234189   4.324   0.699   0.532  0.0722  0.4943  0.2224
 4185TIP3    H134190   4.275   0.777   0.509 -0.0210  0.0523 -1.2206
 4185TIP3    H234191   4.415   0.720   0.510 -0.0508 -0.0189 -0.8461
 4186TIP3   OH234192   6.238   6.310   7.947 -0.0830 -0.1693 -0.5482
 4186TIP3    H134193   6.194   6.391   7.974 -0.8974 -0.4155 -1.1092
 4186TIP3    H234194   6.171   6.242   7.955  0.6559 -0.8362  0.1301
 4187TIP3   OH234195   3.354   4.030   7.333 -1.1911 -0.1348  0.1248
 4187TIP3    H134196   3.279   3.982   7.298 -1.3101  0.2195 -0.1141
 4187TIP3    H234197   3.396   4.067   7.255 -0.7379 -0.3806  0.2542
 4188TIP3   OH234198   4.565   6.308   8.518 -0.2245  0.3538  0.0504
 4188TIP3    H134199   4.589   6.252   8.445  1.0575  1.6194 -0.5384
 4188TIP3    H234200   4.630   6.378   8.517 -0.6167  0.8018  1.9543
 4189TIP3   OH234201   2.800   5.560   0.341  0.1996  0.6145  0.5113
 4189TIP3    H134202   2.816   5.467   0.354 -0.1508  0.6057  0.8821
 4189TIP3    H234203   2.862   5.585   0.273  0.2025  0.0811  0.3095
 4190TIP3   OH234204   1.234   3.348   7.878  0.7252 -0.4426 -0.4350
 4190TIP3    H134205   1.309   3.292   7.857  0.8914  0.1851 -1.5623
 4190TIP3    H234206   1.195   3.306   7.954  0.5559 -2.3950 -1.5198
 4191TIP3   OH234207   2.419   2.858   0.966  0.5315 -0.5985 -0.0821
 4191TIP3    H134208   2.481   2.898   1.027  1.0726 -1.2521 -0.1962
 4191TIP3    H234209   2.382   2.931   0.917  2.2839 -0.3038 -1.0280
 4192TIP3   OH234210   6.220   2.664   8.562 -0.1344 -0.6615  0.4080
 4192TIP3    H134211   6.167   2.743   8.571 -0.1169 -0.5447 -0.4484
 4192TIP3    H234212   6.252   2.646   8.651 -0.6128 -0.0442  0.7099
 4193TIP3   OH234213   3.238   2.652   1.152 -0.3519 -0.5086  0.1702
 4193TIP3    H134214   3.327   2.672   1.183 -0.8797  0.5790  1.0744
 4193TIP3    H234215   3.215   2.726   1.096 -1.0077 -0.3411  0.6488
 4194TIP3   OH234216   1.605   5.889   0.269 -0.4878  0.1190 -0.4357
 4194TIP3    H134217   1.572   5.965   0.221 -0.7169  0.6134  0.4710
 4194TIP3    H234218   1.606   5.918   0.361 -2.3321 -1.5502  0.1707
 4195TIP3   OH234219   0.760   4.976   1.839  0.3581  0.3386 -0.4190
 4195TIP3    H134220   0.672   4.990   1.804  0.3291  1.2718 -0.0036
 4195TIP3    H234221   0.778   5.055   1.890  1.6944  0.4378 -1.0196
 4196TIP3   OH234222   5.564   3.570   0.524 -0.3363  0.2652  0.4344
 4196TIP3    H134223   5.512   3.574   0.444 -2.1996  0.5377  1.6015
 4196TIP3    H234224   5.538   3.488   0.566 -0.1571  0.6216  1.2662
 4197TIP3   OH234225   6.580   0.048   0.027 -0.1184  0.3574  0.0717
 4197TIP3    H134226   6.617  -0.039   0.011 -0.3714  0.0324  1.1388
 4197TIP3    H234227   6.647   0.108  -0.006 -0.1383 -0.2352 -1.0875
 4198TIP3   OH234228   2.747   6.302   7.429  0.4788 -0.0356  0.9116
 4198TIP3    H134229   2.797   6.238   7.481  0.8098 -2.0691 -1.7130
 4198TIP3    H234230   2.813   6.363   7.396  0.6824 -0.4526  0.5441
 4199TIP3   OH234231   1.419   2.757   8.597 -0.1332 -0.1633  0.3737
 4199TIP3    H134232   1.362   2.819   8.553  0.2986  0.8089  1.1485
 4199TIP3    H234233   1.378   2.744   8.683  0.6870  0.3850  0.8560
 4200TIP3   OH234234   6.007   6.035   1.193 -0.8168 -0.4477  0.2474
 4200TIP3    H134235   5.939   5.969   1.190 -1.5883  0.3075  0.7266
 4200TIP3    H234236   6.013   6.068   1.104  1.8707 -3.3648 -0.8655
 4201TIP3   OH234237   4.887   0.382   8.314 -0.0916  0.2799 -0.7682
 4201TIP3    H134238   4.930   0.351   8.235  1.3528 -1.1442  0.5134
 4201TIP3    H234239   4.825   0.313   8.337  1.5754 -0.7450  0.8973
 4202TIP3   OH234240   6.343   0.585   1.420  0.2116 -0.1343 -0.2172
 4202TIP3    H134241   6.387   0.668   1.439 -2.2960  0.9579  1.3695
 4202TIP3    H234242   6.358   0.532   1.498  1.1475 -0.9264 -0.9083
 4203TIP3   OH234243   5.968   1.588   8.099 -0.0954  0.5320  0.1484
 4203TIP3    H134244   6.022   1.662   8.072  0.1270  0.0150 -0.8859
 4203TIP3    H234245   6.011   1.512   8.060  0.2413 -0.2818  1.9975
 4204TIP3   OH234246   1.066   1.671   0.071 -0.3729  0.3970 -0.1345
 4204TIP3    H134247   1.096   1.757   0.042  2.5194 -0.0159  1.3002
 4204TIP3    H234248   1.146   1.620   0.082 -1.9305 -2.2097  0.0229
 4205TIP3   OH234249   5.958   2.294   0.441 -0.5864 -0.1560  0.4973
 4205TIP3    H134250   5.915   2.370   0.401 -0.8965 -1.1734 -1.1674
 4205TIP3    H234251   5.887   2.243   0.478 -0.5253 -0.3944  0.2846
 4206TIP3   OH234252   2.907   4.114   7.174  0.1394  0.1472 -0.3939
 4206TIP3    H134253   2.920   4.139   7.082 -0.2727 -1.5677 -0.9619
 4206TIP3    H234254   2.814   4.095   7.180  0.5445 -2.0162 -0.2639
 4207TIP3   OH234255   0.194   5.343   7.008  0.3726 -0.1734  0.4130
 4207TIP3    H134256   0.130   5.284   7.047  0.2275 -0.3062 -0.0187
 4207TIP3    H234257   0.209   5.410   7.074  0.8307 -0.9056  1.0706
 4208TIP3   OH234258   4.462   3.702   2.036 -0.3212  0.3043  0.1260
 4208TIP3    H134259   4.548   3.738   2.014 -0.2096  0.6905  1.1415
 4208TIP3    H234260   4.443   3.736   2.123 -1.0328 -0.6474  0.3622
 4209TIP3   OH234261   6.468   5.641   7.257 -0.4068  0.5543  0.2330
 4209TIP3    H134262   6.502   5.650   7.346 -1.8339  0.8583  0.7645
 4209TIP3    H234263   6.464   5.547   7.241 -1.1614  0.4667  0.9033
 4210TIP3   OH234264   2.819   3.396   7.573 -0.6147  0.2136 -0.5425
 4210TIP3    H134265   2.762   3.413   7.498  1.7668  0.8961 -2.3458
 4210TIP3    H234266   2.873   3.322   7.546 -0.7287 -0.5178  1.1502
 4211TIP3   OH234267   4.569   3.542   7.131 -0.0277 -0.4635  0.2244
 4211TIP3    H134268   4.538   3.551   7.041  1.2539  0.6332 -0.1414
 4211TIP3    H234269   4.494   3.507   7.178 -0.7957 -0.8701 -1.2221
 4212TIP3   OH234270   2.291   4.975   8.329  0.4894  0.3303  0.7168
 4212TIP3    H134271   2.323   5.065   8.334 -2.2648  1.5025 -0.7007
 4212TIP3    H234272   2.261   4.955   8.417  1.5440  0.5801  1.1498
 4213TIP3   OH234273   1.151   0.081   6.724 -0.3085  0.2846  0.1601
 4213TIP3    H134274   1.148   0.134   6.645 -1.2969  0.3080  0.1941
 4213TIP3    H234275   1.090   0.124   6.784 -1.9432 -1.4275 -0.1741
 4214TIP3   OH234276   5.243   0.141   7.869  0.2944  0.0391 -0.1881
 4214TIP3    H134277   5.318   0.198   7.887 -0.9941  1.3072  1.4354
 4214TIP3    H234278   5.176   0.169   7.931 -1.0313 -2.0638 -0.5772
 4215TIP3   OH234279   1.144   5.730   8.335 -0.2537  0.5433  0.1013
 4215TIP3    H134280   1.048   5.726   8.333 -0.2094 -1.3433  0.0251
 4215TIP3    H234281   1.171   5.639   8.343  1.5564  1.0215 -0.2843
 4216TIP3   OH234282   0.337   2.042   6.783  0.0657 -0.1382 -0.1991
 4216TIP3    H134283   0.279   1.967   6.772 -0.1245 -0.1017  0.5232
 4216TIP3    H234284   0.372   2.058   6.695 -0.4708 -0.6008 -0.5054
 4217TIP3   OH234285   5.465   2.138   0.155 -1.1049  0.4486 -0.1264
 4217TIP3    H134286   5.529   2.194   0.111 -2.9287 -0.4263 -4.3029
 4217TIP3    H234287   5.518   2.073   0.200  0.9989  0.8015 -1.9242
 4218TIP3   OH234288   4.743   0.913   1.509 -0.5645 -0.4051 -0.4222
 4218TIP3    H134289   4.766   0.956   1.591 -0.5684 -0.2779 -0.4876
 4218TIP3    H234290   4.826   0.881   1.474 -0.5678 -0.4946 -0.3501
 4219TIP3   OH234291   1.860   6.731   7.158  0.2228  0.1321 -0.0197
 4219TIP3    H134292   1.807   6.805   7.129  0.6674  0.3952 -0.1741
 4219TIP3    H234293   1.811   6.654   7.129 -0.2531  0.3646  0.1605
 4220TIP3   OH234294   5.264   6.713   7.086  0.0204 -0.0651 -0.0905
 4220TIP3    H134295   5.215   6.795   7.094  1.5164  0.9328 -0.6152
 4220TIP3    H234296   5.203   6.651   7.047 -1.4617  0.4799  1.2763
 4221TIP3   OH234297   5.761   3.008   0.438 -0.8277 -0.7448  0.3657
 4221TIP3    H134298   5.835   3.044   0.487 -1.8093 -0.2490  1.5279
 4221TIP3    H234299   5.717   3.085   0.402 -0.9241 -1.0197 -0.1057
 4222TIP3   OH234300   3.597   3.960   0.316  0.4254 -0.3511  0.0961
 4222TIP3    H134301   3.570   4.039   0.363  1.8202 -0.7914  1.7889
 4222TIP3    H234302   3.673   3.988   0.264  0.1282 -0.2992 -0.3093
 4223TIP3   OH234303   0.851   1.833   8.391 -0.4997  0.0649 -0.1477
 4223TIP3    H134304   0.801   1.870   8.464  1.7092 -0.6017  1.8364
 4223TIP3    H234305   0.923   1.895   8.377  0.9433 -1.3767  0.5177
 4224TIP3   OH234306   5.618   6.572   7.408 -0.7131 -0.2395 -0.2188
 4224TIP3    H134307   5.590   6.546   7.496  0.4096 -0.3651  0.1134
 4224TIP3    H234308   5.546   6.626   7.375 -1.0124  0.0623  0.8950
 4225TIP3   OH234309   3.056   5.581   7.232 -1.1347 -0.2633 -0.5642
 4225TIP3    H134310   3.054   5.528   7.312 -0.6181 -1.5545 -1.3811
 4225TIP3    H234311   3.095   5.664   7.260 -1.9940 -0.2632  0.7537
 4226TIP3   OH234312   5.154   3.774   7.978 -0.3432 -0.3151 -0.0944
 4226TIP3    H134313   5.210   3.697   7.987 -0.7898 -0.7190 -0.6038
 4226TIP3    H234314   5.206   3.847   8.010  0.5049 -0.6652 -0.6474
 4227TIP3   OH234315   4.401   2.772   0.081  0.0248  0.3328  0.0473
 4227TIP3    H134316   4.345   2.731   0.147 -1.2834  1.6843 -0.1621
 4227TIP3    H234317   4.481   2.796   0.129  0.2699 -1.2195  0.4586
 4228TIP3   OH234318   2.364   6.059   1.314  0.1796 -0.6824 -0.6574
 4228TIP3    H134319   2.288   6.035   1.367  1.0567  0.3408  1.1822
 4228TIP3    H234320   2.348   6.151   1.290  0.6431 -0.5810 -0.5842
 4229TIP3   OH234321   4.394   2.340   8.313 -0.5071  0.3794  0.1626
 4229TIP3    H134322   4.384   2.300   8.399  1.9723 -0.4494  0.1484
 4229TIP3    H234323   4.333   2.292   8.257  1.0517 -2.2789  0.5501
 4230TIP3   OH234324   2.444   3.812   7.657  0.0001 -0.3934 -0.1472
 4230TIP3    H134325   2.530   3.780   7.682  1.4945  2.5203 -1.1460
 4230TIP3    H234326   2.413   3.859   7.735  0.0998  0.0409 -0.3693
 4231TIP3   OH234327   3.751   1.527   1.290  0.0245 -0.3541  0.5889
 4231TIP3    H134328   3.806   1.586   1.342  0.1084  1.6726 -1.6489
 4231TIP3    H234329   3.677   1.507   1.347 -0.3139  2.4428  1.2664
 4232TIP3   OH234330   5.784   6.720   7.102 -0.2039  0.1702 -0.1985
 4232TIP3    H134331   5.793   6.724   7.197 -0.3491  0.4964 -0.1978
 4232TIP3    H234332   5.710   6.777   7.082  0.9270  1.5204 -0.6625
 4233TIP3   OH234333   0.341   6.123   7.358  0.2988  0.0516 -0.8365
 4233TIP3    H134334   0.281   6.119   7.283 -1.0418  3.1605 -0.1265
 4233TIP3    H234335   0.297   6.072   7.426 -0.6361  0.6982 -0.9266
 4234TIP3   OH234336   4.618   5.879   2.856 -0.4573  0.4285 -0.1278
 4234TIP3    H134337   4.588   5.950   2.799 -1.5311 -1.3085 -1.8608
 4234TIP3    H234338   4.707   5.861   2.826 -0.8150 -0.1033 -0.8884
 4235TIP3   OH234339   1.680   6.479   2.505  0.2966 -0.0154  0.7370
 4235TIP3    H134340   1.775   6.472   2.513  0.4635  0.3585 -0.6478
 4235TIP3    H234341   1.664   6.572   2.487 -0.4090  0.0604  1.6452
 4236TIP3   OH234342   3.366   3.322   7.868  0.2139 -0.3865 -0.0808
 4236TIP3    H134343   3.373   3.371   7.950 -0.7992 -0.4684  0.0577
 4236TIP3    H234344   3.319   3.242   7.891 -0.6252 -0.1338 -0.8587
 4237TIP3   OH234345   1.050   4.686   1.354 -0.3292 -0.5019  0.1719
 4237TIP3    H134346   1.125   4.741   1.376 -0.0501 -1.3337  1.3741
 4237TIP3    H234347   1.086   4.621   1.294 -0.4487  0.0221 -0.4836
 4238TIP3   OH234348   4.020   4.689   1.281 -0.0954 -0.7923  0.4356
 4238TIP3    H134349   3.939   4.669   1.233  0.2731  0.0944 -0.5854
 4238TIP3    H234350   4.031   4.615   1.341 -1.8130 -0.7920  0.7966
 4239TIP3   OH234351   6.635   2.743   2.398 -0.1241  0.7720 -0.6184
 4239TIP3    H134352   6.655   2.819   2.344 -0.8310  0.5889 -1.1515
 4239TIP3    H234353   6.574   2.691   2.346  2.2573 -1.4864 -1.3529
 4240TIP3   OH234354   3.393   4.351   8.341  0.1734 -0.1652 -0.1053
 4240TIP3    H134355   3.329   4.312   8.400  0.6421 -1.2411 -0.2965
 4240TIP3    H234356   3.446   4.278   8.310  0.3810  0.4765 -1.3249
 4241TIP3   OH234357   5.715   3.106   1.918 -0.4509  0.3201 -0.2911
 4241TIP3    H134358   5.725   3.126   2.011  1.3469  0.6162 -0.4964
 4241TIP3    H234359   5.722   3.010   1.913 -1.1763  0.2497 -0.0778
 4242TIP3   OH234360   4.699   5.536   2.772  1.0265  0.0502  0.3186
 4242TIP3    H134361   4.744   5.557   2.691  1.0983 -1.0052  0.0756
 4242TIP3    H234362   4.737   5.453   2.801 -0.6188 -0.8027  0.1802
 4243TIP3   OH234363   0.988   0.946   0.238 -0.4252 -0.0150 -0.1989
 4243TIP3    H134364   1.067   0.892   0.248  0.0736 -0.1943 -3.8593
 4243TIP3    H234365   1.022   1.036   0.229 -0.5520 -0.1118 -1.9523
 4244TIP3   OH234366   1.983   5.743   1.829 -0.2844 -0.4885 -0.6242
 4244TIP3    H134367   1.917   5.697   1.882 -0.5832 -0.0447 -0.6076
 4244TIP3    H234368   2.028   5.673   1.781 -0.8292 -0.7880 -0.7094
 4245TIP3   OH234369   3.766   4.559   1.203 -0.4836 -0.7241 -0.0186
 4245TIP3    H134370   3.682   4.543   1.160 -0.0767  2.0546 -2.1197
 4245TIP3    H234371   3.825   4.495   1.161 -1.2520 -1.9300  0.6640
 4246TIP3   OH234372   5.581   6.896   7.955 -0.4655 -0.2224 -0.2552
 4246TIP3    H134373   5.643   6.961   7.923  1.5090 -1.9202 -0.0840
 4246TIP3    H234374   5.502   6.946   7.976  0.2729  1.7973 -1.9577
 4247TIP3   OH234375   1.049   2.193   0.492 -0.1296 -0.0196  0.1258
 4247TIP3    H134376   1.007   2.148   0.565 -1.0898 -0.0729 -0.4437
 4247TIP3    H234377   1.143   2.177   0.504 -0.4133 -1.8878  0.1277
 4248TIP3   OH234378   2.203   1.512   6.997  0.2775  0.3494 -0.6243
 4248TIP3    H134379   2.295   1.514   7.023  0.0709 -0.5409  0.2164
 4248TIP3    H234380   2.179   1.604   6.988  0.2679  0.7856  2.7597
 4249TIP3   OH234381   2.330   3.235   1.197 -0.3611  0.2647 -0.4128
 4249TIP3    H134382   2.324   3.147   1.235  0.8261 -1.1485 -3.1733
 4249TIP3    H234383   2.239   3.264   1.188 -0.8129 -1.0354 -0.2040
 4250TIP3   OH234384   5.878   3.770   7.950 -0.0167 -0.0374 -0.4141
 4250TIP3    H134385   5.862   3.707   8.020  1.3145  0.1259  0.0678
 4250TIP3    H234386   5.836   3.732   7.873 -0.2296 -0.9479  0.1430
 4251TIP3   OH234387   5.661   6.475   8.298  0.3120 -0.3394  0.5297
 4251TIP3    H134388   5.670   6.548   8.236 -0.6508  1.2115  2.1517
 4251TIP3    H234389   5.748   6.435   8.299  0.8876  0.8064 -0.3650
 4252TIP3   OH234390   4.198   4.786   2.976 -0.4043  0.7045  0.3165
 4252TIP3    H134391   4.118   4.820   3.016 -0.8659  1.3282 -1.0705
 4252TIP3    H234392   4.169   4.749   2.892  0.3524 -1.5787  0.9943
 4253TIP3   OH234393   1.943   4.031   1.368  0.5902 -0.9324  0.2418
 4253TIP3    H134394   1.877   4.042   1.436  2.3494  1.6030  1.7154
 4253TIP3    H234395   1.934   4.109   1.313  1.9539 -0.8279  0.1318
 4254TIP3   OH234396   3.185   5.675   1.671 -0.2339 -0.1832 -0.0033
 4254TIP3    H134397   3.192   5.580   1.659  0.6810 -0.5032  2.5083
 4254TIP3    H234398   3.273   5.708   1.652 -0.1096 -0.0681  0.7599
 4255TIP3   OH234399   2.481   1.739   0.016  0.5509  0.8324 -0.0285
 4255TIP3    H134400   2.455   1.822   0.057 -1.6257 -0.0669  0.5177
 4255TIP3    H234401   2.536   1.696   0.081  1.3160  1.6140 -0.1334
 4256TIP3   OH234402   4.369   4.697   8.329  0.2162  0.4387  0.7251
 4256TIP3    H134403   4.415   4.617   8.303  0.3022  0.2338  1.5052
 4256TIP3    H234404   4.424   4.768   8.295 -0.2199  0.1709 -0.5838
 4257TIP3   OH234405   2.829   0.348   7.558  0.7676  0.0780  0.3973
 4257TIP3    H134406   2.743   0.307   7.556  0.5857  0.4759 -0.9461
 4257TIP3    H234407   2.857   0.350   7.466  2.6418 -0.9353  0.8725
 4258TIP3   OH234408   6.858   6.259   8.654  0.2850 -0.2885 -0.5910
 4258TIP3    H134409   6.828   6.214   8.574  0.0143 -0.0472 -0.6270
 4258TIP3    H234410   6.780   6.303   8.687  0.5407  0.1279 -0.5376
 4259TIP3   OH234411   5.429   4.611   7.875  0.7196 -0.7291 -0.1850
 4259TIP3    H134412   5.429   4.534   7.932 -1.4542 -0.3024  0.5051
 4259TIP3    H234413   5.355   4.663   7.906  1.4007  1.0713 -1.4050
 4260TIP3   OH234414   6.240   0.420   1.822 -0.1101  0.6831  0.1744
 4260TIP3    H134415   6.304   0.479   1.862  1.3455  0.9554 -2.3449
 4260TIP3    H234416   6.290   0.342   1.799 -1.5088 -0.6061  1.3553
 4261TIP3   OH234417   6.421   5.752   7.771 -0.3050  0.2247  0.3819
 4261TIP3    H134418   6.345   5.799   7.737 -0.9834 -0.7709  0.4919
 4261TIP3    H234419   6.449   5.803   7.847 -1.0023  0.4789  0.4723
 4262TIP3   OH234420   4.948   0.942   0.897  0.0410 -0.4223  0.2441
 4262TIP3    H134421   4.914   0.858   0.866  0.3744 -0.3653 -0.2877
 4262TIP3    H234422   5.043   0.933   0.892  0.0740  0.1273 -0.2084
 4263TIP3   OH234423   2.519   6.279   0.707 -0.7325  0.8054  0.6017
 4263TIP3    H134424   2.438   6.326   0.723 -0.2425  1.4604  1.1936
 4263TIP3    H234425   2.491   6.196   0.668 -1.7807  0.3516  2.2392
 4264TIP3   OH234426   6.624   1.859   1.798  0.0444  0.1848 -0.7597
 4264TIP3    H134427   6.553   1.859   1.734  0.0187 -3.0262 -0.8883
 4264TIP3    H234428   6.580   1.844   1.882  0.1586  3.5460  0.0478
 4265TIP3   OH234429   5.617   0.250   7.705 -0.6649 -0.4752 -0.1667
 4265TIP3    H134430   5.692   0.308   7.693 -0.4527 -0.8454 -0.6577
 4265TIP3    H234431   5.574   0.283   7.785  0.0998 -0.3575  0.2061
 4266TIP3   OH234432   0.030   2.425   8.326  0.0526 -0.1213  0.0247
 4266TIP3    H134433   0.082   2.492   8.282 -0.4955 -0.3280 -0.9508
 4266TIP3    H234434   0.010   2.464   8.412 -2.1238  1.9532 -1.3064
 4267TIP3   OH234435   5.311   2.076   8.566 -0.0883  0.2645 -0.3728
 4267TIP3    H134436   5.390   2.075   8.513  0.2482 -0.4556  0.1218
 4267TIP3    H234437   5.341   2.108   8.652 -0.2651 -0.3092 -0.0942
 4268TIP3   OH234438   1.103   0.220   0.086 -0.3755 -0.3043 -0.4875
 4268TIP3    H134439   1.124   0.286   0.152 -0.2686  0.1164 -0.9387
 4268TIP3    H234440   1.009   0.204   0.096 -0.2172 -0.8160  0.2832
 4269TIP3   OH234441   4.277   5.143   2.603 -0.2333 -0.5913 -0.0740
 4269TIP3    H134442   4.217   5.208   2.640  0.8589  1.5032 -1.7464
 4269TIP3    H234443   4.220   5.075   2.569 -1.6178  0.6892 -0.4428
 4270TIP3   OH234444   5.675   5.383   8.242  0.3625 -0.4615  0.0673
 4270TIP3    H134445   5.720   5.339   8.314  0.6908 -2.7575 -1.4496
 4270TIP3    H234446   5.743   5.437   8.201  0.7865 -1.0012  0.0486
 4271TIP3   OH234447   0.616   0.907   6.177  0.1777 -0.2472 -0.2610
 4271TIP3    H134448   0.525   0.906   6.148  0.1102 -0.3742 -0.0509
 4271TIP3    H234449   0.641   0.999   6.176 -0.3938 -0.0629  1.0264
 4272TIP3   OH234450   0.018   3.009   6.895  0.2044  0.4372  0.4974
 4272TIP3    H134451  -0.041   2.988   6.967 -0.9250  1.9746  0.0574
 4272TIP3    H234452   0.093   3.051   6.937 -0.1618  0.7607  0.8269
 4273TIP3   OH234453   0.390   4.373   1.407  0.2348 -0.0670  0.3917
 4273TIP3    H134454   0.384   4.339   1.496 -3.0990  0.5262  0.5394
 4273TIP3    H234455   0.375   4.296   1.351  0.1174 -0.0743  0.4327
 4274TIP3   OH234456   5.269   1.325   7.769 -0.1272 -0.1643 -0.1585
 4274TIP3    H134457   5.237   1.235   7.775  1.3405 -0.8094 -1.2869
 4274TIP3    H234458   5.221   1.363   7.695 -0.2742 -0.2193 -0.0917
 4275TIP3   OH234459   5.609   3.534   1.231  0.2901 -0.0639  0.0343
 4275TIP3    H134460   5.530   3.585   1.245  0.6525  0.5501 -0.1267
 4275TIP3    H234461   5.578   3.443   1.223 -0.1919 -0.1654  2.3201
 4276TIP3   OH234462   3.595   5.053   1.481 -0.0995  0.3440  0.0472
 4276TIP3    H134463   3.569   4.968   1.444 -0.6672  0.9871 -1.0738
 4276TIP3    H234464   3.686   5.064   1.453 -0.0022  0.0873  0.2515
 4277TIP3   OH234465   2.708   1.471   7.823  0.1302 -0.0177  0.4462
 4277TIP3    H134466   2.785   1.507   7.779  0.7044 -0.2911  1.2203
 4277TIP3    H234467   2.634   1.515   7.780  0.7008  0.1528 -0.3899
 4278TIP3   OH234468   6.762   2.769   7.013 -0.0388 -0.1046 -0.0800
 4278TIP3    H134469   6.836   2.735   6.963  0.5991  0.6422  0.3296
 4278TIP3    H234470   6.695   2.788   6.948  0.7890  0.8769 -0.6660
 4279TIP3   OH234471   6.522   0.403   7.327 -0.5044 -0.1320  0.6565
 4279TIP3    H134472   6.444   0.369   7.371 -0.6332 -1.0208 -0.2269
 4279TIP3    H234473   6.523   0.358   7.243  0.1630  0.9704  0.0615
 4280TIP3   OH234474   4.440   1.575   1.747 -0.3919  0.0270 -0.6921
 4280TIP3    H134475   4.449   1.491   1.700  0.4717  0.0803 -0.6341
 4280TIP3    H234476   4.413   1.637   1.679  0.7843  0.0894 -1.1291
 4281TIP3   OH234477   1.093   1.300   6.397 -0.0086  0.6317  0.3620
 4281TIP3    H134478   1.114   1.217   6.355 -0.8934 -0.0172  1.1646
 4281TIP3    H234479   1.170   1.355   6.383  0.3142 -0.0763 -0.7786
 4282TIP3   OH234480   1.400   4.580   6.469  0.6121 -0.2031  0.0906
 4282TIP3    H134481   1.376   4.495   6.431  2.4145 -0.1472 -1.2489
 4282TIP3    H234482   1.356   4.644   6.414  1.0620 -0.2097 -0.2824
 4283TIP3   OH234483   5.009   3.311   1.048 -0.0426  1.0518 -0.4524
 4283TIP3    H134484   4.998   3.217   1.062 -1.5266  0.9830 -1.7968
 4283TIP3    H234485   5.068   3.339   1.118  0.2061 -0.8144  0.1450
 4284TIP3   OH234486   4.047   4.759   2.745  0.2396 -0.3423  0.4055
 4284TIP3    H134487   3.964   4.804   2.755 -0.2157 -1.1104  0.1567
 4284TIP3    H234488   4.029   4.687   2.684  1.1917 -0.2441 -0.0112
 4285TIP3   OH234489   5.293   5.992   0.027 -0.6685 -0.0801 -0.0222
 4285TIP3    H134490   5.236   5.920   0.003 -0.3220 -0.7424  1.0699
 4285TIP3    H234491   5.309   6.039  -0.055  1.1514 -2.7101 -1.3296
 4286TIP3   OH234492   5.624   5.774   1.317  0.0664  0.1332  0.0643
 4286TIP3    H134493   5.559   5.761   1.386 -0.2503  2.2475  0.2339
 4286TIP3    H234494   5.580   5.829   1.252  1.3889  0.8880 -0.2353
 4287TIP3   OH234495   3.257   1.470   1.743 -0.3324 -0.2996  0.4648
 4287TIP3    H134496   3.274   1.423   1.661  1.1926 -0.6470  0.9430
 4287TIP3    H234497   3.285   1.409   1.811 -0.6612  0.3715  1.2175
 4288TIP3   OH234498   6.269   4.613   2.340 -0.4587  0.0968 -0.5945
 4288TIP3    H134499   6.235   4.697   2.373 -1.3648 -0.9251  1.2076
 4288TIP3    H234500   6.345   4.594   2.395 -1.9456 -1.5993  1.0005
 4289TIP3   OH234501   3.111   1.488   0.163  0.0201 -0.0892 -0.0719
 4289TIP3    H134502   3.150   1.505   0.249  2.1855 -3.2414 -0.2778
 4289TIP3    H234503   3.037   1.430   0.182 -0.7539  0.8197 -0.2244
 4290TIP3   OH234504   3.412   6.468   7.609 -0.2575  0.0498 -0.3545
 4290TIP3    H134505   3.486   6.425   7.567  0.1381 -1.6042  1.8548
 4290TIP3    H234506   3.338   6.408   7.597 -0.5171  0.3069 -0.0849
 4291TIP3   OH234507   5.667   5.523   1.224  0.2556 -0.6694  0.4779
 4291TIP3    H134508   5.670   5.618   1.239 -1.7500 -0.6424  0.9386
 4291TIP3    H234509   5.757   5.494   1.238  1.3284  1.4157 -1.5506
 4292TIP3   OH234510   5.901   1.458   6.497  0.0599 -0.1059  0.5158
 4292TIP3    H134511   5.989   1.447   6.461 -0.2137  2.1212 -1.0624
 4292TIP3    H234512   5.848   1.392   6.453  1.2194 -2.9287  3.0378
 4293TIP3   OH234513   1.968   6.123   7.113  0.0719  0.0873 -0.5826
 4293TIP3    H134514   1.927   6.059   7.056  0.6008 -1.9229  1.1846
 4293TIP3    H234515   1.906   6.134   7.185  1.2877 -0.7290  0.6225
 4294TIP3   OH234516   6.770   5.339   7.092 -0.0587  0.2609 -0.1423
 4294TIP3    H134517   6.802   5.271   7.151 -1.6286 -1.4989 -1.2124
 4294TIP3    H234518   6.761   5.416   7.149 -2.2111 -1.5310  2.2268
 4295TIP3   OH234519   1.237   6.009   8.342  0.5277  0.9411  0.3499
 4295TIP3    H134520   1.189   6.062   8.278  2.4777  0.9606 -1.1685
 4295TIP3    H234521   1.209   5.919   8.324 -1.4343  1.1967  1.7558
 4296TIP3   OH234522   5.470   2.129   1.168  0.0435 -0.0773  0.0557
 4296TIP3    H134523   5.439   2.123   1.077 -2.7705 -2.2074  1.0191
 4296TIP3    H234524   5.427   2.207   1.202  1.4351  0.9640 -0.5108
 4297TIP3   OH234525   6.295   3.370   7.450 -0.5512  0.4134 -0.5430
 4297TIP3    H134526   6.271   3.296   7.505 -1.8558 -0.0745 -1.7098
 4297TIP3    H234527   6.374   3.341   7.405  2.3582  1.9018  3.0666
 4298TIP3   OH234528   1.338   6.757   1.068  0.3442  0.2064 -0.2953
 4298TIP3    H134529   1.344   6.712   0.984  0.1293 -0.5512  0.0930
 4298TIP3    H234530   1.426   6.791   1.083  0.3787  0.3781 -0.8389
 4299TIP3   OH234531   1.097   3.857   7.810  0.2787  0.0022  0.4055
 4299TIP3    H134532   1.059   3.826   7.892 -1.0396  1.0236  0.2046
 4299TIP3    H234533   1.059   3.943   7.796 -0.9428 -0.8473 -2.1945
 4300TIP3   OH234534   2.051   0.132   8.602  0.2921  0.5529 -0.4028
 4300TIP3    H134535   2.044   0.115   8.508 -3.8029  1.0524 -0.3644
 4300TIP3    H234536   2.099   0.215   8.608  1.0826  0.2421 -1.9810
 4301TIP3   OH234537   0.304   4.328   0.153 -0.1496 -0.1059 -0.7835
 4301TIP3    H134538   0.305   4.254   0.092  0.1201 -0.6826 -0.0972
 4301TIP3    H234539   0.313   4.405   0.097  1.0896 -0.6697 -1.4044
 4302TIP3   OH234540   1.220   0.731   1.045  0.4102 -0.1302 -0.7805
 4302TIP3    H134541   1.244   0.688   0.963 -2.6360 -0.7763 -1.4402
 4302TIP3    H234542   1.156   0.673   1.086 -0.7252  1.7883  0.3447
 4303TIP3   OH234543   0.224   6.053   0.956 -0.6008 -0.0857 -0.0789
 4303TIP3    H134544   0.255   6.133   0.913 -2.1119  0.5125 -0.1230
 4303TIP3    H234545   0.175   6.085   1.032 -1.7550 -0.9117 -0.4385
 4304TIP3   OH234546   6.223   5.807   1.546 -0.8977 -0.2246  0.2438
 4304TIP3    H134547   6.246   5.742   1.611  1.2101  1.1263  0.9649
 4304TIP3    H234548   6.194   5.883   1.596  0.5382  0.7575 -0.3230
 4305TIP3   OH234549   6.497   6.882   1.527 -0.2049 -0.6706  0.2893
 4305TIP3    H134550   6.541   6.931   1.457 -0.5342  0.1876  0.6719
 4305TIP3    H234551   6.534   6.918   1.608 -2.4720  0.9857  0.6866
 4306TIP3   OH234552   1.349   0.197   1.653  0.4491  0.7346 -0.0659
 4306TIP3    H134553   1.349   0.132   1.723  1.1019  0.5257 -0.2544
 4306TIP3    H234554   1.440   0.228   1.649  0.6035  0.1850 -1.3212
 4307TIP3   OH234555   6.623   2.926   7.655 -0.4294  0.8144 -0.3746
 4307TIP3    H134556   6.630   3.013   7.695 -3.7847  1.3658 -0.7347
 4307TIP3    H234557   6.624   2.943   7.561 -0.7594  0.4084 -0.4518
 4308TIP3   OH234558   5.837   5.618   6.901  0.1613 -0.2690 -0.2126
 4308TIP3    H134559   5.850   5.697   6.848 -0.1015  1.2019  1.8181
 4308TIP3    H234560   5.863   5.643   6.989  0.5907 -2.6428  0.4018
 4309TIP3   OH234561   2.149   4.774   1.088  0.1701 -0.8165  0.3355
 4309TIP3    H134562   2.084   4.813   1.147 -1.0484 -1.3139 -0.6406
 4309TIP3    H234563   2.162   4.686   1.122 -1.0384 -1.3433 -0.4553
 4310TIP3   OH234564   3.451   0.939   7.748 -0.1666 -0.2835 -0.1214
 4310TIP3    H134565   3.465   1.015   7.806 -1.6187 -1.2052  1.5227
 4310TIP3    H234566   3.527   0.939   7.690  1.3411  0.7364  1.7540
 4311TIP3   OH234567   3.277   1.878   6.575  0.0756  0.2491 -0.1471
 4311TIP3    H134568   3.243   1.826   6.502 -1.1651  0.4371  0.2708
 4311TIP3    H234569   3.310   1.958   6.534 -0.7040  0.3970 -0.5058
 4312TIP3   OH234570   4.929   3.869   7.290 -0.1445  0.0761  0.2740
 4312TIP3    H134571   4.895   3.958   7.284 -2.8491 -0.9220 -1.1065
 4312TIP3    H234572   4.940   3.841   7.199 -5.0251 -2.7843  0.2014
 4313TIP3   OH234573   4.356   6.072   1.017  0.0658 -0.7948  0.1303
 4313TIP3    H134574   4.384   6.062   1.108 -1.4541  1.3549  0.9051
 4313TIP3    H234575   4.437   6.091   0.970  0.6083  0.3628  1.4543
 4314TIP3   OH234576   4.561   6.483   0.329  0.1085 -0.3953  0.1474
 4314TIP3    H134577   4.500   6.415   0.299  0.5340  0.6852 -3.7558
 4314TIP3    H234578   4.518   6.565   0.305  2.1858  0.4319 -1.0035
 4315TIP3   OH234579   0.711   6.783   7.930  0.6605 -0.3198 -0.8061
 4315TIP3    H134580   0.642   6.847   7.948 -0.1253 -1.3332 -0.0963
 4315TIP3    H234581   0.753   6.816   7.850  0.3485  1.1173 -0.4123
 4316TIP3   OH234582   3.253   3.703   0.893 -0.0952 -0.3395  0.2258
 4316TIP3    H134583   3.227   3.780   0.842  1.1094  0.8243  1.3056
 4316TIP3    H234584   3.211   3.630   0.848  0.2873  0.7102 -1.9756
 4317TIP3   OH234585   3.451   1.054   0.488 -0.0173  0.2670 -0.2106
 4317TIP3    H134586   3.373   1.006   0.517 -1.1605  1.4843 -1.1279
 4317TIP3    H234587   3.509   0.986   0.454  0.1198 -0.8672  2.0944
 4318TIP3   OH234588   5.944   1.677   0.505  0.6723  0.9919  0.6742
 4318TIP3    H134589   5.969   1.706   0.417  2.3530  1.8107  1.3818
 4318TIP3    H234590   5.986   1.740   0.564  0.9283 -0.4730  2.1236
 4319TIP3   OH234591   2.484   6.643   8.226  0.1017  0.4261 -0.9177
 4319TIP3    H134592   2.527   6.719   8.187 -0.7401  1.1513 -0.4858
 4319TIP3    H234593   2.404   6.679   8.264 -0.6090 -0.7903 -1.2298
 4320TIP3   OH234594   3.118   5.801   0.289 -0.7114  0.4001 -0.2234
 4320TIP3    H134595   3.163   5.860   0.228  1.2179  0.2347  0.9759
 4320TIP3    H234596   3.062   5.747   0.233  1.1878  0.0567 -1.9167
 4321TIP3   OH234597   4.835   6.265   1.239 -0.1205 -0.0506  0.1788
 4321TIP3    H134598   4.914   6.288   1.288 -0.5191 -0.2142  0.9160
 4321TIP3    H234599   4.775   6.338   1.254 -0.9070 -0.9083  1.4495
 4322TIP3   OH234600   2.145   4.700   1.599  0.7502  0.1785 -0.4391
 4322TIP3    H134601   2.130   4.788   1.634 -1.6309 -0.1991 -0.3777
 4322TIP3    H234602   2.162   4.713   1.506 -2.3577  0.6076 -1.0453
 4323TIP3   OH234603   5.915   5.525   1.288 -0.0836  0.2042 -0.0962
 4323TIP3    H134604   5.927   5.487   1.375 -2.2074 -0.6230 -0.1051
 4323TIP3    H234605   5.958   5.610   1.293  0.4306 -0.1147  1.5455
 4324TIP3   OH234606   3.726   3.948   7.884  0.5752  0.0128  0.5105
 4324TIP3    H134607   3.666   3.874   7.871 -1.5396  1.8525 -1.0149
 4324TIP3    H234608   3.738   3.954   7.979  0.5132 -2.0051  0.6904
 4325TIP3   OH234609   4.828   5.841   0.932  0.2412 -0.0563 -0.2297
 4325TIP3    H134610   4.776   5.763   0.910 -0.1465 -0.1978  1.0792
 4325TIP3    H234611   4.773   5.889   0.994  0.6984  1.0125 -0.6374
 4326TIP3   OH234612   4.788   0.205   0.554 -0.4365  0.2615 -0.3010
 4326TIP3    H134613   4.735   0.209   0.475  1.5121  0.7933 -1.6643
 4326TIP3    H234614   4.734   0.245   0.622 -2.1677 -0.2337 -1.3400
 4327TIP3   OH234615   4.555   2.296   0.704 -0.0633  0.5161 -0.1343
 4327TIP3    H134616   4.518   2.381   0.679  0.6979  0.8040 -0.2843
 4327TIP3    H234617   4.649   2.306   0.692  0.2052  0.2314  1.5761
 4328TIP3   OH234618   2.418   5.616   2.692  0.2405  0.4524  0.0165
 4328TIP3    H134619   2.464   5.613   2.777 -1.8628  0.0667  1.2100
 4328TIP3    H234620   2.325   5.622   2.715 -0.3142  2.5164 -2.2843
 4329TIP3   OH234621   3.440   1.900   0.656 -0.9456  0.2442 -0.0782
 4329TIP3    H134622   3.437   1.950   0.738 -1.6645  0.8455 -0.4620
 4329TIP3    H234623   3.374   1.941   0.600 -0.8504 -0.5102 -0.7648
 4330TIP3   OH234624   3.185   1.401   8.574  0.4832 -0.2393  0.0140
 4330TIP3    H134625   3.188   1.432   8.664  0.0851 -1.7517  0.5757
 4330TIP3    H234626   3.277   1.394   8.548  0.5997  0.1628  0.3062
 4331TIP3   OH234627   6.017   4.251   0.258 -0.7866  0.1883  0.0675
 4331TIP3    H134628   6.032   4.161   0.287 -2.3282  0.0462  0.4907
 4331TIP3    H234629   6.027   4.304   0.337 -1.5920  0.1922  0.1665
 4332TIP3   OH234630   1.732   0.505   7.148 -0.3429  0.5146  0.1501
 4332TIP3    H134631   1.789   0.429   7.137  2.0362  2.0291  1.1169
 4332TIP3    H234632   1.736   0.524   7.242 -2.0780  0.9954  0.1634
 4333TIP3   OH234633   5.349   5.402   0.333  0.5888 -0.3556  0.5524
 4333TIP3    H134634   5.270   5.443   0.368  1.1019  1.3325 -0.1465
 4333TIP3    H234635   5.327   5.309   0.328 -1.6841  0.1447 -0.4022
 4334TIP3   OH234636   1.435   1.446   7.729 -0.3971  0.2032  0.8123
 4334TIP3    H134637   1.529   1.432   7.717 -0.6592 -0.0672 -1.4044
 4334TIP3    H234638   1.422   1.538   7.707 -1.0775 -0.6049 -2.9000
 4335TIP3   OH234639   0.474   0.636   0.021  0.4176 -0.2108  0.1365
 4335TIP3    H134640   0.502   0.547   0.043  1.3541  0.1547  0.4671
 4335TIP3    H234641   0.395   0.649   0.074  0.4814 -0.7104  0.3679
 4336TIP3   OH234642   0.958   1.261   1.452 -0.1080  0.1037 -0.0813
 4336TIP3    H134643   0.959   1.330   1.386 -0.8370  1.5197  1.3143
 4336TIP3    H234644   1.050   1.236   1.461 -0.1729 -1.6101 -3.0283
 4337TIP3   OH234645   4.203   2.424   1.364  0.2083 -0.2089  0.2144
 4337TIP3    H134646   4.152   2.362   1.416 -0.0656  0.1624  0.3983
 4337TIP3    H234647   4.140   2.491   1.339  0.9550  1.2335  1.9683
 4338TIP3   OH234648   1.084   6.761   0.837  0.4715 -0.3739 -0.1667
 4338TIP3    H134649   1.156   6.703   0.812  0.1290 -0.8335 -0.1005
 4338TIP3    H234650   1.074   6.820   0.763  0.9679 -0.2618 -0.1432
 4339TIP3   OH234651   3.290   5.086   8.035 -0.2332 -0.1436  0.2441
 4339TIP3    H134652   3.274   5.089   7.940  0.0227 -0.3458  0.1919
 4339TIP3    H234653   3.234   5.016   8.067 -1.1347  0.6319  0.4146
 4340TIP3   OH234654   6.120   1.546   7.594 -0.2758 -0.2723 -0.2124
 4340TIP3    H134655   6.131   1.635   7.562  2.7222  0.1593  1.5830
 4340TIP3    H234656   6.102   1.556   7.687 -2.6022 -1.5799 -0.4352
 4341TIP3   OH234657   6.660   2.189   6.856 -0.1604 -0.1385  0.8438
 4341TIP3    H134658   6.636   2.153   6.770 -0.6628  2.3192 -0.1301
 4341TIP3    H234659   6.717   2.263   6.836  1.9741 -1.1580  2.8168
 4342TIP3   OH234660   5.256   4.339   1.534 -0.3696  0.2750  0.4490
 4342TIP3    H134661   5.325   4.404   1.548  3.7779 -3.0346 -2.1633
 4342TIP3    H234662   5.213   4.367   1.453 -2.1735  2.2048  1.9506
 4343TIP3   OH234663   3.105   0.597   2.790 -0.3120 -0.3129 -0.7634
 4343TIP3    H134664   3.165   0.530   2.822 -2.2046 -1.1489  1.3333
 4343TIP3    H234665   3.031   0.547   2.755 -0.8679  0.6663 -1.0178
 4344TIP3   OH234666   2.690   3.547   0.175  0.3081  0.2713 -0.0655
 4344TIP3    H134667   2.643   3.613   0.226 -0.3286 -0.2389  0.0203
 4344TIP3    H234668   2.680   3.467   0.226  0.4484 -0.0476 -0.5425
 4345TIP3   OH234669   4.597   6.294   6.914 -0.3728 -0.1048 -0.2523
 4345TIP3    H134670   4.612   6.209   6.872  2.1400 -0.0083  0.2815
 4345TIP3    H234671   4.685   6.326   6.935 -1.3200  2.0471  0.7436
 4346TIP3   OH234672   6.021   6.031   0.914  0.2782  0.5607  0.2530
 4346TIP3    H134673   6.035   5.939   0.936 -3.0326  0.2592  1.6606
 4346TIP3    H234674   5.967   6.029   0.834 -0.1750  1.2549  0.5332
 4347TIP3   OH234675   2.258   0.382   2.379 -0.1778 -0.0648  0.4352
 4347TIP3    H134676   2.322   0.384   2.307 -0.6203  0.2602  0.0459
 4347TIP3    H234677   2.292   0.315   2.439  0.1883 -0.3516 -0.0796
 4348TIP3   OH234678   3.794   3.363   1.389 -0.4957 -0.0205  0.6375
 4348TIP3    H134679   3.724   3.321   1.337 -0.0978 -0.4624  0.4455
 4348TIP3    H234680   3.850   3.290   1.415 -0.0384  0.3472  0.6841
 4349TIP3   OH234681   3.767   3.489   7.845 -0.1533  0.0116 -0.4832
 4349TIP3    H134682   3.690   3.477   7.789  0.1490  1.0879 -1.1610
 4349TIP3    H234683   3.747   3.566   7.898  0.0869 -0.2471 -0.0098
 4350TIP3   OH234684   3.233   5.302   1.249  0.0367  0.1700  0.1567
 4350TIP3    H134685   3.146   5.265   1.259 -0.1531  0.8479  1.2164
 4350TIP3    H234686   3.231   5.347   1.164 -0.6210  0.1119  0.1395
 4351TIP3   OH234687   1.275   0.504   7.839  0.3442  0.4314 -0.2367
 4351TIP3    H134688   1.355   0.455   7.820  0.9861  1.3241  0.0746
 4351TIP3    H234689   1.231   0.511   7.754  0.0102 -1.0321 -0.2099
 4352TIP3   OH234690   5.898   0.486   2.073  0.1255  0.1730 -0.3277
 4352TIP3    H134691   5.959   0.539   2.124 -0.0709 -0.0360  0.1384
 4352TIP3    H234692   5.896   0.401   2.118 -0.2065  0.0510 -0.5644
 4353TIP3   OH234693   2.484   0.027   8.354 -0.1057  0.5616  0.4636
 4353TIP3    H134694   2.507   0.028   8.261  1.2503  1.1756  0.7868
 4353TIP3    H234695   2.442   0.112   8.369  1.5540  1.3478  0.8369
 4354TIP3   OH234696   1.049   5.846   7.777 -0.1868 -0.0023  0.3193
 4354TIP3    H134697   1.089   5.786   7.841  0.7409 -0.6777 -0.8543
 4354TIP3    H234698   1.068   5.933   7.812 -0.9656 -0.3544  1.7072
 4355TIP3   OH234699   0.131   0.371   1.926 -0.3157 -0.0484 -0.6424
 4355TIP3    H134700   0.134   0.290   1.977 -0.6859  0.8393  0.8631
 4355TIP3    H234701   0.223   0.399   1.921 -0.1299 -0.7816 -1.5780
 4356TIP3   OH234702   4.383   1.701   1.465  0.4591 -1.0642  0.0160
 4356TIP3    H134703   4.400   1.630   1.403  0.0433  0.1090 -1.4856
 4356TIP3    H234704   4.293   1.727   1.447  0.2150 -0.9157  1.3629
 4357TIP3   OH234705   3.749   1.420   0.207  0.2086 -0.0089  0.1735
 4357TIP3    H134706   3.816   1.352   0.194  0.8226  0.4966  0.5945
 4357TIP3    H234707   3.738   1.424   0.302  2.4407  2.5448  0.4677
 4358TIP3   OH234708   3.423   5.489   6.803 -0.4935 -0.4383 -0.3385
 4358TIP3    H134709   3.343   5.442   6.782 -0.6750 -0.1473 -0.3084
 4358TIP3    H234710   3.493   5.439   6.761 -0.6568 -0.8663 -0.1004
 4359TIP3   OH234711   6.571   2.121   1.526  0.2172  0.0746  0.1120
 4359TIP3    H134712   6.632   2.100   1.455  0.2062  1.0088 -0.1925
 4359TIP3    H234713   6.541   2.036   1.558 -0.4409 -0.3946 -1.5950
 4360TIP3   OH234714   6.622   1.132   0.739  0.1953 -0.3748  0.1000
 4360TIP3    H134715   6.716   1.135   0.723 -0.1909 -0.8922 -2.7573
 4360TIP3    H234716   6.598   1.223   0.760  1.1054  0.0485 -0.6444
 4361TIP3   OH234717   6.380   2.161   1.750  0.5275  0.1976 -0.0064
 4361TIP3    H134718   6.418   2.075   1.773  2.4840  1.3275  1.3128
 4361TIP3    H234719   6.415   2.181   1.664  0.6529 -0.0079 -0.0036
 4362TIP3   OH234720   3.451   3.067   0.124 -0.2214  0.6341  0.4313
 4362TIP3    H134721   3.366   3.047   0.163 -0.2407  0.7332  0.4416
 4362TIP3    H234722   3.482   3.143   0.172  0.7864 -0.5786  1.7720
 4363TIP3   OH234723   1.458   2.056   6.694 -0.3503 -0.0546  0.2878
 4363TIP3    H134724   1.553   2.046   6.699 -0.4044  0.0973  2.3548
 4363TIP3    H234725   1.438   2.054   6.600  1.4590 -2.1327 -0.1215
 4364TIP3   OH234726   5.427   5.755   7.931  0.1442  0.8380 -0.4493
 4364TIP3    H134727   5.385   5.711   7.858 -0.3383  0.4081  0.0754
 4364TIP3    H234728   5.483   5.687   7.971  1.3996  1.4123 -1.1694
 4365TIP3   OH234729   3.999   0.442   0.182 -0.2274 -0.6051 -0.3569
 4365TIP3    H134730   3.933   0.508   0.164 -0.5955 -0.8524  0.0671
 4365TIP3    H234731   3.966   0.394   0.258  0.6133 -0.4958  0.0923
 4366TIP3   OH234732   3.623   3.492   0.943  0.4143  0.0840 -0.2346
 4366TIP3    H134733   3.627   3.430   0.870 -1.2395 -0.1770 -0.1394
 4366TIP3    H234734   3.600   3.576   0.903  3.0744  0.8204 -0.4183
 4367TIP3   OH234735   5.825   6.688   0.415 -0.4411  0.7185  0.0529
 4367TIP3    H134736   5.899   6.738   0.447  1.3373 -1.9119  0.3117
 4367TIP3    H234737   5.801   6.630   0.488 -1.3396  0.0113 -0.7726
 4368TIP3   OH234738   2.852   6.480   1.690 -0.7051  0.2920 -0.0001
 4368TIP3    H134739   2.867   6.473   1.596  0.9985 -1.6364  0.3432
 4368TIP3    H234740   2.940   6.491   1.727 -1.1689 -0.7543  1.4789
 4369TIP3   OH234741   1.021   3.018   8.627 -0.1200  0.5942  0.2992
 4369TIP3    H134742   1.020   3.056   8.715  2.5013  0.6619  0.3564
 4369TIP3    H234743   1.047   2.927   8.640  0.9025  0.7655 -0.4388
 4370TIP3   OH234744   1.601   3.800   7.712 -0.0048 -0.1700  0.3660
 4370TIP3    H134745   1.505   3.799   7.712 -0.0525  1.5590  0.7173
 4370TIP3    H234746   1.624   3.874   7.768  1.4812  1.4576 -2.1875
 4371TIP3   OH234747   4.103   5.667   8.420  0.4939  0.4564 -0.2295
 4371TIP3    H134748   4.095   5.723   8.343 -1.3691  0.5657 -0.0022
 4371TIP3    H234749   4.037   5.700   8.481 -0.3697 -1.6621  0.0849
 4372TIP3   OH234750   1.419   6.200   8.492  0.2975 -0.0580  0.0788
 4372TIP3    H134751   1.385   6.282   8.529 -1.0705 -0.9235  0.8209
 4372TIP3    H234752   1.357   6.176   8.424  1.1887 -0.0241 -0.7584
 4373TIP3   OH234753   3.938   5.577   1.483 -0.1887  0.3134 -0.7141
 4373TIP3    H134754   3.879   5.619   1.421 -1.4777  1.4442  1.1920
 4373TIP3    H234755   4.001   5.645   1.507 -0.6474  0.3803  0.3630
 4374TIP3   OH234756   6.890   2.762   0.024 -0.0691 -0.0316 -0.3872
 4374TIP3    H134757   6.859   2.755   0.115  0.3700 -1.5950 -0.3432
 4374TIP3    H234758   6.985   2.761   0.031 -0.0072  1.0755 -0.8075
 4375TIP3   OH234759   4.033   1.524   7.958 -0.4258 -0.3482  0.0049
 4375TIP3    H134760   4.052   1.431   7.967  2.3525 -0.0099 -1.2920
 4375TIP3    H234761   3.986   1.531   7.875  1.0595 -0.4651 -0.8823
 4376TIP3   OH234762   4.101   3.911   6.730 -0.0658 -0.1067  0.5315
 4376TIP3    H134763   4.068   4.001   6.725  1.2481  0.5757  2.7406
 4376TIP3    H234764   4.042   3.860   6.675  0.3877  2.4184 -2.5976
 4377TIP3   OH234765   4.715   2.612   7.383  0.5823  0.0748 -0.0603
 4377TIP3    H134766   4.733   2.518   7.384 -0.5278 -0.1595 -0.5794
 4377TIP3    H234767   4.626   2.620   7.416  0.8395  0.9973  0.4525
 4378TIP3   OH234768   4.254   5.993   8.174 -0.7045 -0.3616  0.5463
 4378TIP3    H134769   4.335   5.963   8.216 -0.6070  1.0659  1.4564
 4378TIP3    H234770   4.194   6.008   8.247 -0.7197  1.6427  0.1822
 4379TIP3   OH234771   6.850   6.738   0.894  0.4225  0.1951 -0.0257
 4379TIP3    H134772   6.830   6.645   0.897 -0.7268  0.4393  0.1133
 4379TIP3    H234773   6.943   6.743   0.917  0.4182 -0.8873  0.2674
 4380TIP3   OH234774   3.609   0.609   6.770 -0.0078 -0.0293  0.5880
 4380TIP3    H134775   3.591   0.672   6.840 -0.3611 -0.5557  0.9828
 4380TIP3    H234776   3.523   0.574   6.747  0.1898 -0.4116  0.4169
 4381TIP3   OH234777   4.053   4.197   2.136 -0.5294  0.3337  0.1661
 4381TIP3    H134778   4.051   4.274   2.192 -1.3868  0.3782  0.0861
 4381TIP3    H234779   3.965   4.193   2.098 -0.0877  0.0758 -0.8607
 4382TIP3   OH234780   3.337   6.715   7.741  0.6206 -0.2560 -0.2637
 4382TIP3    H134781   3.351   6.633   7.694 -1.3095  0.3504 -2.0315
 4382TIP3    H234782   3.255   6.702   7.788  1.1772  0.0936  0.8565
 4383TIP3   OH234783   4.231   5.688   1.089 -0.4161 -0.2181 -0.2269
 4383TIP3    H134784   4.265   5.727   1.009 -1.2269 -1.3256 -1.1454
 4383TIP3    H234785   4.219   5.596   1.068 -1.4177 -0.3734  0.8935
 4384TIP3   OH234786   3.221   3.944   1.404  0.2343 -1.1217  0.1554
 4384TIP3    H134787   3.236   4.028   1.448  0.8551 -0.9431 -0.3835
 4384TIP3    H234788   3.128   3.947   1.379  0.3770 -0.3693 -0.3097
 4385TIP3   OH234789   2.213   3.679   8.489 -0.2074 -0.0406 -0.2437
 4385TIP3    H134790   2.239   3.593   8.455 -2.6201 -1.2476  0.7670
 4385TIP3    H234791   2.236   3.676   8.582 -1.6474 -0.1993  0.1254
 4386TIP3   OH234792   5.028   0.052   1.725 -0.6362 -0.1210  0.1708
 4386TIP3    H134793   5.112   0.064   1.771  0.1921 -1.5683 -0.8873
 4386TIP3    H234794   4.984  -0.017   1.774 -0.6389 -0.2627 -0.0326
 4387TIP3   OH234795   3.180   1.736   7.282 -0.0057 -0.6432  0.7320
 4387TIP3    H134796   3.119   1.801   7.247  0.5664 -0.4711  0.0316
 4387TIP3    H234797   3.255   1.739   7.223 -0.2036 -2.3390  0.3403
 4388TIP3   OH234798   5.586   4.736   0.707 -0.3158  0.0168  0.2962
 4388TIP3    H134799   5.662   4.779   0.746 -0.8954  0.4371  0.9709
 4388TIP3    H234800   5.515   4.750   0.769 -0.9095 -0.5321 -0.2387
 4389TIP3   OH234801   0.645   6.755   6.456 -0.0082  0.1576 -0.1281
 4389TIP3    H134802   0.552   6.774   6.437  0.0712 -0.3993 -1.1442
 4389TIP3    H234803   0.672   6.827   6.513 -1.1492  0.1604  0.4512
 4390TIP3   OH234804   1.092   3.923   0.260  0.3259  0.1759  0.5295
 4390TIP3    H134805   1.007   3.883   0.275  0.8205 -0.2256  2.5302
 4390TIP3    H234806   1.082   4.014   0.287  0.4043  0.2529  0.3009
 4391TIP3   OH234807   4.186   6.591   7.224 -0.5267 -0.3120  0.1979
 4391TIP3    H134808   4.110   6.601   7.281 -1.1581 -0.7711 -0.5577
 4391TIP3    H234809   4.220   6.504   7.244  0.9879  0.5929  1.9286
 4392TIP3   OH234810   5.926   4.118   0.612 -0.1187 -0.0539  0.0489
 4392TIP3    H134811   5.994   4.178   0.582 -0.8281  1.0281  0.5362
 4392TIP3    H234812   5.849   4.174   0.625 -0.4593 -0.8415  1.6989
 4393TIP3   OH234813   1.223   3.528   1.363 -0.1544  0.1262 -0.4772
 4393TIP3    H134814   1.259   3.581   1.292  0.8263  2.1939  1.4340
 4393TIP3    H234815   1.159   3.471   1.321  2.0405 -0.4338 -3.3493
 4394TIP3   OH234816   3.941   1.892   0.990  0.3042  0.4079  0.4017
 4394TIP3    H134817   3.865   1.850   0.950 -0.3192  1.5320  0.3723
 4394TIP3    H234818   4.017   1.846   0.953 -0.3379 -0.2456 -0.1157
 4395TIP3   OH234819   5.506   1.137   7.678  0.5322 -0.5408 -0.4577
 4395TIP3    H134820   5.471   1.117   7.592  1.0689 -0.8935 -0.5980
 4395TIP3    H234821   5.449   1.207   7.712 -1.9280 -2.7809  0.3738
 4396TIP3   OH234822   1.006   4.442   1.672  0.0950 -0.3638 -0.2672
 4396TIP3    H134823   0.978   4.388   1.746 -0.1904  1.1621  0.7869
 4396TIP3    H234824   0.925   4.466   1.627 -0.1733  1.8712  1.2377
 4397TIP3   OH234825   3.046   1.285   1.482 -0.7323  0.5149 -0.4412
 4397TIP3    H134826   3.042   1.198   1.443 -2.1992 -0.0735  0.9585
 4397TIP3    H234827   3.140   1.304   1.488 -0.3180 -1.6548  0.7273
 4398TIP3   OH234828   6.218   0.737   7.275  0.4284 -0.5406  0.1565
 4398TIP3    H134829   6.296   0.684   7.291  0.9277 -0.4033 -1.5345
 4398TIP3    H234830   6.243   0.793   7.201 -0.5467  1.0851  1.0256
 4399TIP3   OH234831   6.525   0.030   0.988 -0.4384 -0.6268 -0.1420
 4399TIP3    H134832   6.603   0.086   0.991 -0.5135 -0.4681 -1.1026
 4399TIP3    H234833   6.541  -0.035   1.057 -0.6122  0.8809  1.3935
 4400TIP3   OH234834   4.471   3.316   0.605  0.1092 -0.1347  0.0494
 4400TIP3    H134835   4.410   3.262   0.656 -0.3676 -0.8264 -1.2038
 4400TIP3    H234836   4.553   3.312   0.655  0.4530 -3.0549 -0.5757
 4401TIP3   OH234837   5.653   5.416   7.233 -0.3192  0.1248  0.0937
 4401TIP3    H134838   5.652   5.362   7.312  1.3190 -0.1979 -0.0646
 4401TIP3    H234839   5.710   5.369   7.173  0.0575  1.3592 -0.5508
 4402TIP3   OH234840   6.384   4.803   8.509 -0.0087  0.1769 -0.2005
 4402TIP3    H134841   6.476   4.781   8.494 -0.1820 -0.6670 -0.0542
 4402TIP3    H234842   6.361   4.860   8.435  0.0993 -1.1657 -1.3048
 4403TIP3   OH234843   2.600   0.954   7.780 -0.3286  0.2870 -0.3644
 4403TIP3    H134844   2.600   1.044   7.748 -1.4646  0.8220  1.0409
 4403TIP3    H234845   2.508   0.935   7.798 -0.0789 -1.0906 -0.4144
 4404TIP3   OH234846   3.119   0.103   7.397 -0.3166 -0.2228  0.0676
 4404TIP3    H134847   3.116   0.196   7.375  1.0938 -0.2640 -0.3519
 4404TIP3    H234848   3.150   0.060   7.318  2.7794 -0.6157  1.3431
 4405TIP3   OH234849   3.450   3.892   0.103  0.3214  0.5048  0.4537
 4405TIP3    H134850   3.519   3.869   0.166 -0.9691 -1.3505  1.2855
 4405TIP3    H234851   3.385   3.940   0.155  0.4257  1.2226 -0.0622
 4406TIP3   OH234852   6.137   4.338   6.965 -0.3568  0.3376 -0.1053
 4406TIP3    H134853   6.094   4.300   6.888 -1.1519  1.1436 -0.0715
 4406TIP3    H234854   6.182   4.264   7.006  0.3417 -0.0581 -1.4985
 4407TIP3   OH234855   0.489   2.819   7.399  0.5019  0.0532  0.0670
 4407TIP3    H134856   0.424   2.754   7.429  0.1520  0.8498  1.0874
 4407TIP3    H234857   0.513   2.867   7.478  3.7255 -1.3523  0.1155
 4408TIP3   OH234858   0.493   4.734   8.590 -0.6592  0.0686 -0.2876
 4408TIP3    H134859   0.449   4.678   8.526 -0.8232 -0.0863 -0.0400
 4408TIP3    H234860   0.577   4.691   8.605 -0.4111  0.3707 -0.7701
 4409TIP3   OH234861   0.369   4.944   0.331  0.6946  0.1310 -0.3952
 4409TIP3    H134862   0.289   4.949   0.383  0.7205 -0.9415 -0.2367
 4409TIP3    H234863   0.427   5.011   0.369  0.6157 -0.4524  0.7919
 4410TIP3   OH234864   5.286   2.810   0.335 -0.2322  0.1375 -0.6141
 4410TIP3    H134865   5.253   2.728   0.373 -2.2796  1.6453  1.0628
 4410TIP3    H234866   5.357   2.837   0.394 -0.6611  0.4047 -0.2200
 4411TIP3   OH234867   3.826   2.077   2.054 -0.9240 -0.3783  0.1592
 4411TIP3    H134868   3.856   2.010   2.116  0.2388 -0.0757 -0.0511
 4411TIP3    H234869   3.730   2.071   2.057 -0.8738 -3.0064 -0.9016
 4412TIP3   OH234870   1.349   6.426   7.917  0.2044  0.1719 -0.2333
 4412TIP3    H134871   1.265   6.402   7.879 -0.4502  1.4662  0.3358
 4412TIP3    H234872   1.359   6.366   7.991 -0.6816  0.5888  0.2518
 4413TIP3   OH234873   1.304   1.015   1.774  0.1632 -0.3719  0.3241
 4413TIP3    H134874   1.209   1.019   1.786 -0.1511 -0.2355 -1.7953
 4413TIP3    H234875   1.316   1.020   1.679  2.3153 -0.0792  0.5683
 4414TIP3   OH234876   2.381   2.849   1.570 -0.5634  0.0104 -0.2149
 4414TIP3    H134877   2.379   2.756   1.550  0.3532 -0.0194 -0.1925
 4414TIP3    H234878   2.361   2.892   1.487 -0.1966 -0.1867 -0.4053
 4415TIP3   OH234879   2.955   3.161   1.260  0.0351  0.1766 -0.2878
 4415TIP3    H134880   2.893   3.116   1.202  0.5418 -2.7371  1.2251
 4415TIP3    H234881   2.967   3.100   1.333  2.6253  1.8562  0.8112
 4416TIP3   OH234882   6.671   5.707   6.468 -0.5338 -0.2143  0.2887
 4416TIP3    H134883   6.760   5.689   6.437  0.2014 -0.3287  2.2669
 4416TIP3    H234884   6.672   5.678   6.560 -2.0226  1.5716  0.9416
 4417TIP3   OH234885   2.068   4.111   2.116  0.0414 -0.2761 -0.7264
 4417TIP3    H134886   2.058   4.016   2.103 -1.1424 -0.3440  0.5181
 4417TIP3    H234887   2.010   4.132   2.189  1.9931  1.0344  0.5436
 4418TIP3   OH234888   5.706   6.375   7.192  0.2377 -0.3184  0.2634
 4418TIP3    H134889   5.671   6.428   7.264  1.3823 -0.1179  0.6921
 4418TIP3    H234890   5.740   6.439   7.130  0.8552 -0.5229  0.3861
 4419TIP3   OH234891   1.617   3.298   1.172  0.2416  0.2205 -0.3210
 4419TIP3    H134892   1.671   3.376   1.184  1.9643 -1.1061  1.2192
 4419TIP3    H234893   1.550   3.304   1.240  1.5516 -0.5239  1.0943
 4420TIP3   OH234894   4.777   3.823   1.392  0.2289 -0.1765 -0.1152
 4420TIP3    H134895   4.806   3.735   1.365 -0.7007 -0.4975 -0.0895
 4420TIP3    H234896   4.853   3.879   1.375  0.1106 -0.5635 -2.2861
 4421TIP3   OH234897   2.181   2.904   0.730  0.8916  0.2111 -0.0820
 4421TIP3    H134898   2.121   2.838   0.765  0.6929  1.3391  1.8227
 4421TIP3    H234899   2.133   2.986   0.736  1.6844  0.7621 -1.0101
 4422TIP3   OH234900   5.214   0.769   7.055 -0.4822 -0.0745 -0.1802
 4422TIP3    H134901   5.248   0.845   7.102 -0.8159 -0.0103 -0.0371
 4422TIP3    H234902   5.283   0.703   7.062  1.2330  1.2246 -3.0069
 4423TIP3   OH234903   5.350   4.009   0.447 -0.2724 -0.7158  0.1622
 4423TIP3    H134904   5.347   3.915   0.465  2.0077 -1.1939 -1.5645
 4423TIP3    H234905   5.350   4.015   0.352 -0.2217  1.0233  0.2514
 4424TIP3   OH234906   5.683   5.088   1.269 -0.1913 -0.4460 -0.1288
 4424TIP3    H134907   5.643   5.164   1.311 -1.4360 -1.1910  0.0821
 4424TIP3    H234908   5.651   5.013   1.320  1.0111 -1.1127 -0.3324
 4425TIP3   OH234909   4.399   0.280   0.931  0.0235  0.3704  0.3817
 4425TIP3    H134910   4.433   0.203   0.978  0.6104 -0.4600 -1.3154
 4425TIP3    H234911   4.306   0.283   0.954  0.4657  0.5206  2.2554
 4426TIP3   OH234912   5.796   1.351   1.876 -0.1946 -0.2091 -0.3619
 4426TIP3    H134913   5.825   1.261   1.891  2.3952  0.6343  0.1122
 4426TIP3    H234914   5.811   1.366   1.783 -1.1044 -0.3930 -0.5497
 4427TIP3   OH234915   2.393   2.042   1.286  0.8307 -0.4907  0.3367
 4427TIP3    H134916   2.422   2.133   1.292  0.8406 -0.3150 -1.5915
 4427TIP3    H234917   2.398   2.022   1.192 -1.5511 -1.6871  0.3906
 4428TIP3   OH234918   3.418   1.526   7.649 -0.0086 -0.0907  0.1224
 4428TIP3    H134919   3.324   1.533   7.664 -0.3172 -0.1074 -1.6137
 4428TIP3    H234920   3.458   1.573   7.722 -1.4372  2.6146 -0.7422
 4429TIP3   OH234921   6.169   5.301   0.543  0.3772 -0.0996 -0.2258
 4429TIP3    H134922   6.215   5.231   0.497 -0.2313  0.2024 -1.3232
 4429TIP3    H234923   6.082   5.303   0.504 -0.8946 -1.1464  2.2995
 4430TIP3   OH234924   4.748   3.704   2.169  0.1092 -0.2899 -0.6472
 4430TIP3    H134925   4.836   3.674   2.192 -0.2010 -1.9421 -1.4780
 4430TIP3    H234926   4.756   3.737   2.080  0.7085  3.5147  0.6092
 4431TIP3   OH234927   5.463   0.973   0.835  0.7267  0.2228  0.0478
 4431TIP3    H134928   5.538   0.948   0.782  1.4385 -0.2691  1.2477
 4431TIP3    H234929   5.454   1.067   0.821  2.1231  0.4508  0.5678
 4432TIP3   OH234930   6.294   1.629   1.020 -0.2756  0.3980  0.0834
 4432TIP3    H134931   6.210   1.583   1.019 -0.3748  0.5558  0.6437
 4432TIP3    H234932   6.312   1.648   0.928 -1.3464  1.2254  0.0250
 4433TIP3   OH234933   4.428   6.589   7.065 -0.1766  0.2793 -0.3324
 4433TIP3    H134934   4.401   6.549   7.148 -0.0556  0.2492 -0.3076
 4433TIP3    H234935   4.515   6.553   7.048 -0.1598  0.3628 -0.4220
 4434TIP3   OH234936   2.008   6.314   0.311  0.3288 -0.6831 -0.4355
 4434TIP3    H134937   1.972   6.402   0.307  1.1959 -0.3358 -0.9541
 4434TIP3    H234938   2.100   6.324   0.285  0.8036 -1.5404  0.7759
 4435TIP3   OH234939   5.868   6.759   1.586  0.2168 -0.4459  0.1750
 4435TIP3    H134940   5.794   6.788   1.532 -0.2289 -0.2128  0.8830
 4435TIP3    H234941   5.874   6.665   1.569 -0.2202 -0.4611  0.0738
 4436TIP3   OH234942   4.255   1.836   7.328 -0.2407  0.4759 -0.0366
 4436TIP3    H134943   4.302   1.888   7.262  0.7007 -0.7104 -0.3458
 4436TIP3    H234944   4.180   1.890   7.352  0.9913  2.2161  0.0828
 4437TIP3   OH234945   5.658   4.024   6.993  0.2172 -0.4257 -0.2093
 4437TIP3    H134946   5.733   3.997   6.940  1.3940  0.5462  0.8972
 4437TIP3    H234947   5.605   3.945   7.000  1.4924 -1.3419 -0.4520
 4438TIP3   OH234948   4.117   4.300   0.088 -0.3055  0.4616 -0.3490
 4438TIP3    H134949   4.022   4.312   0.093 -0.5763 -1.6104  0.9309
 4438TIP3    H234950   4.149   4.376   0.039 -2.7401  0.5926 -1.9136
 4439TIP3   OH234951   6.294   1.311   7.573 -0.1516 -0.1782 -0.0494
 4439TIP3    H134952   6.387   1.322   7.558 -0.0011 -1.5191 -0.2678
 4439TIP3    H234953   6.254   1.392   7.541  0.7958 -0.2317 -1.4376
 4440TIP3   OH234954   4.995   2.168   7.607  0.1484  0.3140  0.2385
 4440TIP3    H134955   4.901   2.185   7.606 -0.3509 -2.0707 -0.1120
 4440TIP3    H234956   5.034   2.247   7.644 -1.9517  1.4911  0.0667
 4441TIP3   OH234957   3.999   0.950   1.144  0.5180 -0.3824 -0.1869
 4441TIP3    H134958   3.941   0.993   1.081 -0.9038 -0.3361  1.0989
 4441TIP3    H234959   4.083   0.944   1.099 -0.0343  1.0611 -1.5036
 4442TIP3   OH234960   0.128   2.885   0.735  0.6482 -0.1464 -0.0558
 4442TIP3    H134961   0.055   2.879   0.796  0.7727  0.7347  0.1930
 4442TIP3    H234962   0.190   2.946   0.776  1.6055 -0.9970 -0.1872
 4443TIP3   OH234963   5.654   3.727   8.155 -0.4470  0.2864  0.1977
 4443TIP3    H134964   5.626   3.755   8.242 -0.4767  0.0615  0.2595
 4443TIP3    H234965   5.625   3.797   8.097 -0.0835  0.6269  0.4211
 4444TIP3   OH234966   1.698   4.800   0.726  0.0440 -0.1365  0.2000
 4444TIP3    H134967   1.769   4.859   0.751  0.1147  0.7333 -1.8336
 4444TIP3    H234968   1.619   4.843   0.756  0.1637  0.5720 -0.4728
 4445TIP3   OH234969   4.006   0.262   7.048 -0.5740 -0.2492  0.6110
 4445TIP3    H134970   4.036   0.259   6.957  0.1863 -0.3306  0.8590
 4445TIP3    H234971   4.005   0.171   7.076  0.6770 -0.1294  1.1437
 4446TIP3   OH234972   6.713   6.299   7.758 -0.2007 -0.4044  0.0060
 4446TIP3    H134973   6.656   6.351   7.701  3.5138  3.1418 -1.0052
 4446TIP3    H234974   6.753   6.235   7.700  0.8446  0.7828 -0.6324
 4447TIP3   OH234975   4.137   4.531   7.381 -0.4469 -0.4090  0.2322
 4447TIP3    H134976   4.193   4.572   7.447  0.0116 -2.2574  1.0711
 4447TIP3    H234977   4.062   4.499   7.431 -1.9312  1.3655 -0.7638
 4448TIP3   OH234978   0.914   3.859   8.414 -0.2046 -0.2966  0.2462
 4448TIP3    H134979   0.981   3.880   8.349 -1.0667  1.3957 -0.1508
 4448TIP3    H234980   0.961   3.860   8.498  0.4325 -0.0127 -0.1075
 4449TIP3   OH234981   5.424   6.872   0.318  0.4567  0.8198  0.2391
 4449TIP3    H134982   5.333   6.900   0.318  0.0634 -0.4205  0.8005
 4449TIP3    H234983   5.472   6.945   0.357 -0.4208  1.0697  0.8651
 4450TIP3   OH234984   5.964   3.991   8.587 -0.2286 -0.0290 -0.1079
 4450TIP3    H134985   5.871   4.007   8.601 -0.2603  0.3395 -0.6835
 4450TIP3    H234986   6.008   4.062   8.633 -0.2068 -0.4707  0.5651
 4451TIP3   OH234987   0.464   2.067   1.233  0.1889  0.0438  0.1245
 4451TIP3    H134988   0.463   2.061   1.329 -1.3628  0.5533  0.1558
 4451TIP3    H234989   0.378   2.101   1.210  1.4053  2.4194 -1.2965
 4452TIP3   OH234990   4.626   0.404   2.414  0.1724 -0.5814 -0.4544
 4452TIP3    H134991   4.618   0.310   2.398 -1.0921 -0.3247 -1.5278
 4452TIP3    H234992   4.535   0.436   2.413  0.5499  0.5767  0.4222
 4453TIP3   OH234993   3.242   3.601   6.896  0.1825 -0.1654  0.8727
 4453TIP3    H134994   3.241   3.697   6.897 -0.7130 -0.0681 -1.7219
 4453TIP3    H234995   3.330   3.579   6.865 -0.1043 -0.0823 -0.0482
 4454TIP3   OH234996   0.647   3.109   8.140  0.2176  0.2005  0.3244
 4454TIP3    H134997   0.629   3.106   8.046  0.6942  1.0116  0.2006
 4454TIP3    H234998   0.735   3.073   8.148 -0.6751 -2.0334  0.7283
 4455TIP3   OH234999   2.865   5.517   7.767 -0.1942 -0.3971 -0.3091
 4455TIP3    H135000   2.887   5.429   7.734  2.5184 -0.7230  1.9420
 4455TIP3    H235001   2.796   5.501   7.831  0.0209 -0.8590 -0.1819
 4456TIP3   OH235002   6.185   6.055   0.662 -0.1405 -0.0925 -0.3221
 4456TIP3    H135003   6.161   5.982   0.605  0.5659 -0.0738 -0.6477
 4456TIP3    H235004   6.216   6.014   0.743 -2.1361 -0.1118  0.4909
 4457TIP3   OH235005   2.768   0.118   1.792 -0.0233 -0.2667 -0.6515
 4457TIP3    H135006   2.804   0.174   1.723  0.7632 -0.2203 -0.2292
 4457TIP3    H235007   2.805   0.032   1.775 -1.3280 -0.7043 -1.3684
 4458TIP3   OH235008   6.147   4.214   7.744  0.1226  1.0327  0.2647
 4458TIP3    H135009   6.085   4.246   7.809  0.2757  0.4862  0.6835
 4458TIP3    H235010   6.215   4.281   7.741  0.0119  1.1573  0.5081
 4459TIP3   OH235011   6.422   5.037   6.618  0.4283 -0.0299 -0.7854
 4459TIP3    H135012   6.509   4.998   6.604  1.1554  1.6414 -1.0804
 4459TIP3    H235013   6.367   4.998   6.550  1.7638  1.3661 -2.7434
 4460TIP3   OH235014   0.574   1.825   8.251  0.4984 -0.1388  0.2568
 4460TIP3    H135015   0.535   1.891   8.308  0.1085 -0.0229 -0.1421
 4460TIP3    H235016   0.619   1.765   8.311  0.9687  0.5599  0.6091
 4461TIP3   OH235017   5.988   0.894   8.061 -0.1426  0.4118  0.2538
 4461TIP3    H135018   5.987   0.876   7.967  0.9826 -0.2522  0.3540
 4461TIP3    H235019   5.914   0.844   8.095  0.0830 -0.1996 -0.1349
 4462TIP3   OH235020   5.491   5.887   2.787 -0.1865 -0.1021  0.0935
 4462TIP3    H135021   5.576   5.918   2.756 -0.8046  1.4031 -0.1860
 4462TIP3    H235022   5.509   5.800   2.823  2.0851  1.3372  2.8916
 4463TIP3   OH235023   2.820   2.717   2.495  0.3822 -0.2702  0.0409
 4463TIP3    H135024   2.779   2.631   2.491 -1.9101  0.7433 -0.2899
 4463TIP3    H235025   2.885   2.710   2.564 -0.0669 -2.1474  0.3132
 4464TIP3   OH235026   4.246   1.609   0.336  0.1796 -0.2492 -0.6314
 4464TIP3    H135027   4.163   1.562   0.334  1.2197 -2.1582 -0.9505
 4464TIP3    H235028   4.277   1.607   0.246  1.0604 -0.4828 -0.3351
 4465TIP3   OH235029   6.100   4.145   1.951  0.3313 -0.1482 -0.3712
 4465TIP3    H135030   6.091   4.051   1.966 -0.3732 -0.1061 -0.4992
 4465TIP3    H235031   6.186   4.154   1.911 -0.3235 -0.9612 -2.0805
 4466TIP3   OH235032   0.902   6.242   2.682 -0.7273  0.5858 -0.5112
 4466TIP3    H135033   0.869   6.169   2.629  0.4199 -0.8269  0.6087
 4466TIP3    H235034   0.996   6.244   2.662 -0.1529 -0.3547  1.7982
 4467TIP3   OH235035   6.307   5.574   0.940 -0.5876  0.6681  0.3447
 4467TIP3    H135036   6.290   5.493   0.988  0.9848 -1.0934 -1.8731
 4467TIP3    H235037   6.365   5.624   0.998  1.7428 -1.6446  0.1775
 4468TIP3   OH235038   2.713   0.188   6.479 -0.1186 -0.3105  0.1171
 4468TIP3    H135039   2.753   0.103   6.498 -0.4149 -0.6469 -0.7082
 4468TIP3    H235040   2.653   0.170   6.407  2.6840  1.2804 -2.8479
 4469TIP3   OH235041   2.446   4.289   7.242  0.2399  0.5756  0.3177
 4469TIP3    H135042   2.494   4.332   7.313  1.8518  0.6715 -0.7840
 4469TIP3    H235043   2.458   4.347   7.166  1.7661 -1.2998 -0.9881
 4470TIP3   OH235044   0.847   4.742   8.400 -0.1990  0.1377 -0.5209
 4470TIP3    H135045   0.837   4.720   8.493  0.6624 -0.6673 -0.5924
 4470TIP3    H235046   0.905   4.673   8.366 -0.8364  0.1832 -1.7498
 4471TIP3   OH235047   0.139   1.216   1.173  0.5459 -0.2032  0.4705
 4471TIP3    H135048   0.129   1.289   1.234  0.7755  1.0216 -0.8925
 4471TIP3    H235049   0.194   1.252   1.102 -1.3533 -0.9135 -1.4649
 4472TIP3   OH235050   1.816   1.363   2.145 -0.0907 -0.2534 -0.3493
 4472TIP3    H135051   1.817   1.337   2.237  0.6635  0.7899 -0.0354
 4472TIP3    H235052   1.806   1.282   2.097  1.8327 -1.0985  0.5826
 4473TIP3   OH235053   6.709   5.211   0.742  0.1446 -0.7326  0.3710
 4473TIP3    H135054   6.749   5.184   0.825  2.3913 -0.4925 -0.5703
 4473TIP3    H235055   6.687   5.303   0.755  2.2990 -0.1327  0.1176
 4474TIP3   OH235056   5.031   4.611   7.419  0.1359 -0.1761 -0.2521
 4474TIP3    H135057   5.094   4.670   7.377 -1.1993 -0.3818 -2.7095
 4474TIP3    H235058   5.076   4.580   7.497  3.2411 -0.6126 -2.0668
 4475TIP3   OH235059   6.247   0.439   1.205  0.2488 -0.4404 -0.0594
 4475TIP3    H135060   6.259   0.463   1.297 -1.8304  0.1478  0.1172
 4475TIP3    H235061   6.218   0.348   1.207 -2.3314  0.2773  0.1730
 4476TIP3   OH235062   3.718   2.833   7.298  0.7025  0.9281 -0.2528
 4476TIP3    H135063   3.648   2.788   7.346 -0.2396  1.9608 -0.6078
 4476TIP3    H235064   3.696   2.926   7.306  0.9377  1.1693 -2.0225
 4477TIP3   OH235065   1.298   0.593   6.793 -0.6625 -0.3068  0.0212
 4477TIP3    H135066   1.340   0.633   6.869 -1.7538 -1.8101  1.4898
 4477TIP3    H235067   1.262   0.666   6.744  0.1569  0.7065  0.8757
 4478TIP3   OH235068   1.924   2.811   1.833 -0.4141 -0.4953 -0.6162
 4478TIP3    H135069   1.912   2.857   1.750  1.0218 -0.7690 -1.0054
 4478TIP3    H235070   1.885   2.725   1.818 -0.8578 -0.2747 -0.7433
 4479TIP3   OH235071   3.824   3.647   7.544 -0.0681 -0.0429 -0.4153
 4479TIP3    H135072   3.803   3.738   7.565  0.8208 -0.0757  0.7586
 4479TIP3    H235073   3.779   3.596   7.612  2.6745 -0.1765  1.4790
 4480TIP3   OH235074   0.258   0.462   8.013 -0.3666 -0.2560 -0.0070
 4480TIP3    H135075   0.205   0.492   8.086 -1.6875 -1.3952 -0.4369
 4480TIP3    H235076   0.322   0.531   7.999  1.3655 -0.9142  3.5698
 4481TIP3   OH235077   3.995   6.443   1.841 -0.6123  0.3734  0.0541
 4481TIP3    H135078   4.051   6.426   1.917 -0.0533 -1.9741 -0.7943
 4481TIP3    H235079   4.049   6.418   1.766 -1.6921  1.1891 -1.0341
 4482TIP3   OH235080   0.021   6.547   0.242 -0.0047 -0.2181  0.3342
 4482TIP3    H135081  -0.066   6.567   0.276 -0.5504 -0.5860 -0.8030
 4482TIP3    H235082   0.023   6.587   0.155  2.3067  3.0407  1.6742
 4483TIP3   OH235083   5.860   1.216   0.140 -0.1083  0.6191 -0.5856
 4483TIP3    H135084   5.920   1.180   0.205 -2.3343 -0.8030  0.8324
 4483TIP3    H235085   5.863   1.153   0.068 -2.4166 -1.5149  1.0029
 4484TIP3   OH235086   2.892   3.450   6.266 -0.1405 -0.1363 -0.3763
 4484TIP3    H135087   2.968   3.393   6.275  0.0204 -0.3935 -2.6868
 4484TIP3    H235088   2.928   3.539   6.267  0.1716 -0.2484 -1.1266
 4485TIP3   OH235089   6.610   4.236   0.755 -0.8986  0.3668  0.0861
 4485TIP3    H135090   6.530   4.273   0.717  0.2353  3.0571  0.0658
 4485TIP3    H235091   6.607   4.260   0.847 -0.4692 -0.1735  0.2496
 4486TIP3   OH235092   1.796   1.762   8.164 -0.0187 -0.0070 -0.2136
 4486TIP3    H135093   1.839   1.837   8.122  0.9226 -1.7963 -2.6919
 4486TIP3    H235094   1.849   1.746   8.242  1.8784 -0.1121 -1.4398
 4487TIP3   OH235095   0.503   3.308   6.773 -0.5589 -0.2072  0.1648
 4487TIP3    H135096   0.518   3.279   6.863  2.8245  0.6198 -0.0034
 4487TIP3    H235097   0.489   3.228   6.724  1.5088 -1.0603  0.8551
 4488TIP3   OH235098   6.694   3.822   8.291  0.1367  0.1558 -0.7263
 4488TIP3    H135099   6.749   3.748   8.316 -0.4009  0.0455  0.1822
 4488TIP3    H235100   6.707   3.831   8.197  1.6981  0.1323 -0.5378
 4489TIP3   OH235101   5.885   0.074   0.241 -0.5669 -0.1745 -0.2556
 4489TIP3    H135102   5.844   0.014   0.304 -0.3817  0.7711  0.8127
 4489TIP3    H235103   5.979   0.064   0.256 -0.5410  2.1583  1.7752
 4490TIP3   OH235104   5.004   4.297   0.685 -0.7227 -0.0725 -0.6115
 4490TIP3    H135105   5.031   4.335   0.768  0.0824 -0.1642 -0.8185
 4490TIP3    H235106   5.085   4.289   0.635 -1.1540 -0.2977 -1.2905
 4491TIP3   OH235107   4.726   5.140   1.279 -0.0552 -0.4557 -0.3784
 4491TIP3    H135108   4.796   5.095   1.232  0.1677 -0.9164  0.3808
 4491TIP3    H235109   4.771   5.189   1.348 -0.4540 -0.4846 -0.0951
 4492TIP3   OH235110   0.607   3.098   7.417 -0.3949  0.4142 -0.5503
 4492TIP3    H135111   0.543   3.035   7.383 -0.7517 -0.6037  1.7765
 4492TIP3    H235112   0.602   3.087   7.512  0.9474  2.6246 -0.1648
 4493TIP3   OH235113   5.200   5.592   0.881 -0.2262  0.1424 -0.1690
 4493TIP3    H135114   5.168   5.653   0.947 -2.2697 -0.5644 -0.4579
 4493TIP3    H235115   5.291   5.574   0.907 -1.2339 -0.9237  3.0765
 4494TIP3   OH235116   5.863   6.723   7.383 -0.0144  0.1898 -0.3414
 4494TIP3    H135117   5.808   6.653   7.419 -0.9928 -0.5758 -3.0811
 4494TIP3    H235118   5.897   6.768   7.460 -1.3313 -1.7600  1.5123
 4495TIP3   OH235119   2.147   6.132   7.429 -0.2879 -0.8246 -0.4348
 4495TIP3    H135120   2.067   6.085   7.452 -0.2612 -0.5542  0.2456
 4495TIP3    H235121   2.198   6.133   7.510  0.1903 -0.5754 -0.7343
 4496TIP3   OH235122   2.593   1.216   8.199 -0.2722 -0.0343 -0.2033
 4496TIP3    H135123   2.617   1.301   8.164  2.7504 -0.6135  0.1760
 4496TIP3    H235124   2.515   1.191   8.151 -1.0223  2.7565 -0.5712
 4497TIP3   OH235125   1.339   2.997   8.504 -0.5915  0.4466 -0.0690
 4497TIP3    H135126   1.412   3.028   8.450  0.9705 -2.5971  0.0971
 4497TIP3    H235127   1.367   3.015   8.594 -0.9002  0.8812 -0.0527
 4498TIP3   OH235128   0.003   3.339   7.443  0.2013 -0.3436 -0.3163
 4498TIP3    H135129   0.045   3.266   7.399 -1.2854 -1.8367  0.6143
 4498TIP3    H235130  -0.055   3.378   7.377  0.6344 -0.2970 -0.6721
 4499TIP3   OH235131   1.538   4.684   8.166 -0.0307  0.1883  0.4686
 4499TIP3    H135132   1.450   4.706   8.197 -1.0273 -0.4614 -1.6916
 4499TIP3    H235133   1.558   4.750   8.100  0.2973 -0.6981 -0.3542
 4500TIP3   OH235134   5.966   5.664   7.640 -0.7171 -0.0388 -0.2687
 4500TIP3    H135135   5.982   5.654   7.546 -1.7817  0.6628 -0.5449
 4500TIP3    H235136   5.910   5.590   7.662 -0.2803 -0.3310 -0.1348
 4501TIP3   OH235137   0.799   0.927   1.719 -0.0075 -0.4269  0.1348
 4501TIP3    H135138   0.850   0.893   1.646 -0.3306  0.0810 -0.3345
 4501TIP3    H235139   0.708   0.926   1.688 -0.1267 -0.0207  0.4517
 4502TIP3   OH235140   6.483   5.453   0.489 -0.2601  0.1562  0.5487
 4502TIP3    H135141   6.417   5.429   0.425 -0.7015 -1.0133  1.4195
 4502TIP3    H235142   6.566   5.447   0.442 -0.6639  0.4096 -0.2089
 4503TIP3   OH235143   0.124   5.809   8.291  0.3688  0.0977 -0.0989
 4503TIP3    H135144   0.103   5.840   8.202 -2.2033  1.1600  0.7668
 4503TIP3    H235145   0.189   5.872   8.323 -0.9842  1.6137 -0.1891
 4504TIP3   OH235146   4.644   0.225   1.180  0.2390 -0.0936  0.5577
 4504TIP3    H135147   4.665   0.232   1.087  0.5463 -0.7677  0.5753
 4504TIP3    H235148   4.629   0.132   1.194 -0.1208  0.0460  1.1197
 4505TIP3   OH235149   5.106   1.519   6.973  0.3882  0.3449 -0.2274
 4505TIP3    H135150   5.173   1.475   6.921 -0.1356  0.2636 -0.8387
 4505TIP3    H235151   5.025   1.472   6.953 -0.1633  1.5187 -0.8245
 4506TIP3   OH235152   1.188   4.391   0.300  0.1891  0.0840  0.0949
 4506TIP3    H135153   1.247   4.466   0.298  1.5866 -0.9049  1.2771
 4506TIP3    H235154   1.245   4.315   0.286 -1.3877 -0.7317 -2.7069
 4507TIP3   OH235155   5.525   6.432   7.976  0.0745  0.1655 -0.2299
 4507TIP3    H135156   5.604   6.483   7.958 -0.6224  1.5158  0.3644
 4507TIP3    H235157   5.453   6.488   7.946 -0.7104 -0.6314  0.1187
 4508TIP3   OH235158   5.145   5.942   8.116  0.5967  0.4038  0.2697
 4508TIP3    H135159   5.135   5.973   8.206  2.5589  1.3506  0.2211
 4508TIP3    H235160   5.125   6.018   8.062  1.8454  0.5855  0.0215
 4509TIP3   OH235161   4.422   5.614   1.918  0.0880  0.2068  0.4093
 4509TIP3    H135162   4.407   5.522   1.938 -0.2981  0.0108 -0.6848
 4509TIP3    H235163   4.517   5.620   1.906 -0.0106 -0.4152 -1.0285
 4510TIP3   OH235164   4.447   0.310   2.164  0.3419  0.5814  0.2657
 4510TIP3    H135165   4.419   0.373   2.231  1.8544  2.2956 -0.6392
 4510TIP3    H235166   4.498   0.245   2.213 -1.0846  0.0929  1.1866
 4511TIP3   OH235167   2.255   5.830   2.488 -0.4469  0.1826 -0.2987
 4511TIP3    H135168   2.327   5.786   2.534  0.2562  1.6264  0.0256
 4511TIP3    H235169   2.181   5.770   2.498  0.5271 -1.0333 -0.0785
 4512TIP3   OH235170   5.862   6.892   1.818 -0.1122 -0.0933 -0.4178
 4512TIP3    H135171   5.873   6.835   1.741 -0.4239  0.4374 -0.8647
 4512TIP3    H235172   5.944   6.941   1.823 -0.0917 -0.1281 -0.4105
 4513TIP3   OH235173   0.747   5.105   8.079 -0.3546  0.4753 -0.0332
 4513TIP3    H135174   0.743   5.053   8.159  1.4430  0.5777  0.1759
 4513TIP3    H235175   0.671   5.163   8.083 -1.2593 -0.7298  0.7184
 4514TIP3   OH235176   0.847   1.570   7.570 -0.5530  0.1721  0.3645
 4514TIP3    H135177   0.890   1.650   7.541 -0.4513  0.7125  1.9282
 4514TIP3    H235178   0.863   1.507   7.499  1.4773  0.7977  0.2024
 4515TIP3   OH235179   2.586   3.963   1.367  0.7159  0.0114 -0.0998
 4515TIP3    H135180   2.614   4.047   1.331  0.3859 -0.0875 -0.5962
 4515TIP3    H235181   2.594   3.974   1.462  0.0331  0.8390 -0.1179
 4516TIP3   OH235182   2.482   0.562   0.724 -0.0621  0.1376  0.7914
 4516TIP3    H135183   2.428   0.634   0.756  1.0367  0.8522  1.1004
 4516TIP3    H235184   2.494   0.505   0.800  0.0747  0.2741  0.8737
 4517TIP3   OH235185   5.118   5.708   7.969  0.4509  0.5062 -0.3167
 4517TIP3    H135186   5.140   5.797   7.998 -0.6272  0.7011 -0.0653
 4517TIP3    H235187   5.056   5.721   7.897 -0.4604 -0.0583  0.3589
 4518TIP3   OH235188   6.812   1.336   7.673 -0.3691  0.2268 -0.2356
 4518TIP3    H135189   6.892   1.291   7.644  0.1791  0.5203  0.7430
 4518TIP3    H235190   6.824   1.346   7.768 -2.1948 -0.9954  0.1850
 4519TIP3   OH235191   6.535   0.704   0.555 -0.1694  0.1962 -0.0277
 4519TIP3    H135192   6.451   0.722   0.598 -0.5381  0.4635 -0.8437
 4519TIP3    H235193   6.551   0.611   0.572 -0.2606  0.3126  0.7530
 4520TIP3   OH235194   2.426   4.299   6.711  0.0275  0.6432 -0.4957
 4520TIP3    H135195   2.382   4.375   6.673 -1.1646  0.4684  0.4559
 4520TIP3    H235196   2.355   4.239   6.734  0.9046 -0.4875 -0.6352
 4521TIP3   OH235197   3.794   0.644   8.231 -0.3081 -0.2715 -0.4783
 4521TIP3    H135198   3.818   0.568   8.285  1.6659  2.8686  3.6779
 4521TIP3    H235199   3.868   0.655   8.171 -0.4191 -1.3750 -0.8311
 4522TIP3   OH235200   3.804   6.165   1.039  0.0236  0.1834 -0.3912
 4522TIP3    H135201   3.856   6.177   1.118  0.4426 -1.8706 -0.3103
 4522TIP3    H235202   3.822   6.075   1.011  0.5189  1.0705 -3.2826
 4523TIP3   OH235203   0.059   4.426   1.683 -0.2155 -0.4496 -0.1049
 4523TIP3    H135204   0.074   4.517   1.658  0.0867 -0.1514  1.0694
 4523TIP3    H235205   0.048   4.430   1.778  4.4696 -2.1377  0.7584
 4524TIP3   OH235206   4.580   0.449   8.183  0.8142  0.2088 -0.3685
 4524TIP3    H135207   4.628   0.419   8.105  0.2280 -0.5029 -0.4732
 4524TIP3    H235208   4.497   0.401   8.179  0.6264  0.4489  0.4990
 4525TIP3   OH235209   2.100   0.812   0.633  0.3094  0.2705 -0.9734
 4525TIP3    H135210   2.073   0.721   0.636 -0.5239  0.5159 -0.5289
 4525TIP3    H235211   2.178   0.817   0.688  1.0277 -0.3715 -1.9080
 4526TIP3   OH235212   5.757   1.023   1.026  0.0134 -0.5460  0.6614
 4526TIP3    H135213   5.802   1.103   0.997 -1.5781 -0.1192 -0.8411
 4526TIP3    H235214   5.735   0.978   0.944 -0.5429 -1.7059  1.4338
 4527TIP3   OH235215   2.829   5.362   6.529 -0.0105  0.1374 -0.6032
 4527TIP3    H135216   2.925   5.365   6.528  0.1101 -2.2400 -1.2976
 4527TIP3    H235217   2.805   5.378   6.620  1.1826 -1.1373 -0.0264
 4528TIP3   OH235218   4.234   4.307   1.733 -0.2577 -0.1296  0.0486
 4528TIP3    H135219   4.287   4.269   1.802  0.0080 -0.9848 -0.6062
 4528TIP3    H235220   4.278   4.280   1.652 -2.0816 -1.4970 -0.5461
 4529TIP3   OH235221   1.777   3.331   0.846  0.6874 -0.4932  0.1550
 4529TIP3    H135222   1.701   3.285   0.883  0.6678  0.0438  0.8040
 4529TIP3    H235223   1.817   3.375   0.921  2.8601 -2.4189  0.2084
 4530TIP3   OH235224   6.219   0.819   6.931  0.0554 -0.0371 -0.2405
 4530TIP3    H135225   6.226   0.723   6.928  1.5064  0.0484 -0.1781
 4530TIP3    H235226   6.211   0.846   6.840  1.4199 -0.1163 -0.3941
 4531TIP3   OH235227   3.549   0.187   1.223 -0.0586  1.0351  0.5420
 4531TIP3    H135228   3.515   0.205   1.135 -1.1690 -0.7553  0.5528
 4531TIP3    H235229   3.493   0.239   1.281 -0.5460  0.7756  0.3101
 4532TIP3   OH235230   5.998   2.211   1.078 -0.2623  0.2985 -0.1945
 4532TIP3    H135231   6.015   2.126   1.119  0.6632  1.4263  1.8875
 4532TIP3    H235232   5.904   2.225   1.090 -0.3671 -0.2886 -0.2915
 4533TIP3   OH235233   3.530   1.912   1.227  0.3787  0.0793 -0.1541
 4533TIP3    H135234   3.438   1.902   1.253 -0.3005 -1.2471 -2.7189
 4533TIP3    H235235   3.579   1.863   1.293 -0.8555 -0.2539  0.5540
 4534TIP3   OH235236   1.951   4.408   8.571 -0.7900  0.1959  0.5535
 4534TIP3    H135237   1.998   4.363   8.641 -0.1474  1.7365  1.1442
 4534TIP3    H235238   1.944   4.342   8.501  2.0644 -0.1959  0.5213
 4535TIP3   OH235239   0.993   5.337   8.080  0.0353  0.3344 -0.1819
 4535TIP3    H135240   0.950   5.369   8.001  0.9588  1.2537 -0.3458
 4535TIP3    H235241   1.061   5.278   8.048 -0.3677 -0.2233 -0.0028
 4536TIP3   OH235242   0.810   5.840   2.024 -0.1145  0.7155  0.5783
 4536TIP3    H135243   0.774   5.753   2.045 -0.4523  1.1980  2.0983
 4536TIP3    H235244   0.742   5.882   1.971  0.4763 -0.2850 -1.0562
 4537TIP3   OH235245   4.598   1.199   0.843 -0.0480 -0.1224  0.3808
 4537TIP3    H135246   4.552   1.254   0.906 -1.1856 -0.2646 -0.3079
 4537TIP3    H235247   4.608   1.254   0.765  3.2190  0.8049  1.2899
 4538TIP3   OH235248   1.935   4.712   8.633  0.0563  0.2153  0.5429
 4538TIP3    H135249   1.920   4.768   8.557  2.7379  1.6565  0.9550
 4538TIP3    H235250   1.937   4.623   8.597  3.0220  0.9499 -1.5210
 4539TIP3   OH235251   2.541   5.478   7.548  0.5222 -0.4474  0.3766
 4539TIP3    H135252   2.517   5.417   7.617  0.5664  0.5615  1.3096
 4539TIP3    H235253   2.515   5.564   7.581  2.6749  0.3380  0.1603
 4540TIP3   OH235254   2.342   4.565   2.523  0.0157 -0.9314 -0.0403
 4540TIP3    H135255   2.314   4.491   2.577 -2.5713  0.7592  1.0994
 4540TIP3    H235256   2.263   4.617   2.510  1.6829  1.5771 -0.9375
 4541TIP3   OH235257   5.656   6.533   1.204  0.0018 -0.1190  0.2413
 4541TIP3    H135258   5.656   6.462   1.140 -0.0751  0.9801 -1.0387
 4541TIP3    H235259   5.737   6.581   1.186  0.1450  0.0110  1.2047
 4542TIP3   OH235260   0.151   5.963   7.525  0.0169 -0.3020 -0.6241
 4542TIP3    H135261   0.199   5.898   7.577 -0.6476 -1.8504 -1.8583
 4542TIP3    H235262   0.083   5.995   7.584  0.7107 -0.2859  0.1863
 4543TIP3   OH235263   1.945   2.134   7.373 -0.3008 -0.0596  0.2688
 4543TIP3    H135264   2.013   2.190   7.336  3.3137 -3.3545  1.1781
 4543TIP3    H235265   1.952   2.052   7.324 -0.8619 -1.8192  2.8896
 4544TIP3   OH235266   5.724   5.160   6.427  0.3079 -0.2810 -0.2516
 4544TIP3    H135267   5.708   5.112   6.508 -0.1124 -0.5281 -0.4783
 4544TIP3    H235268   5.773   5.238   6.454 -0.7399  0.1731  0.3864
 4545TIP3   OH235269   1.402   4.406   7.116  0.0533 -0.5388  0.1344
 4545TIP3    H135270   1.345   4.345   7.070  0.7044 -1.6822  0.7802
 4545TIP3    H235271   1.449   4.452   7.047 -1.0786 -0.1349 -0.3782
 4546TIP3   OH235272   2.411   0.273   0.988  0.9198  0.6025 -0.3012
 4546TIP3    H135273   2.365   0.190   0.995  0.9106  0.5294 -1.0919
 4546TIP3    H235274   2.495   0.251   0.947  0.9142  0.9803 -0.5237
 4547TIP3   OH235275   4.742   1.522   6.549 -0.0809  0.2695 -0.5341
 4547TIP3    H135276   4.687   1.598   6.529  0.8305  0.6545 -1.7179
 4547TIP3    H235277   4.744   1.519   6.645 -1.0593  1.0453 -0.4673
 4548TIP3   OH235278   6.012   3.555   8.171 -0.0353 -0.3364 -0.2217
 4548TIP3    H135279   6.051   3.642   8.176  0.7725 -0.6306 -1.1446
 4548TIP3    H235280   6.037   3.513   8.253  0.0066  0.1156  0.0041
 4549TIP3   OH235281   5.423   3.364   0.621  0.3924 -0.0852 -0.1927
 4549TIP3    H135282   5.367   3.335   0.549 -0.2715  1.1464 -0.1995
 4549TIP3    H235283   5.362   3.385   0.691  0.9723 -0.3148  0.3949
 4550TIP3   OH235284   5.394   3.644   1.340 -0.2152 -0.0719  0.2616
 4550TIP3    H135285   5.404   3.735   1.367 -0.6014  0.1070 -0.1871
 4550TIP3    H235286   5.406   3.593   1.421 -0.7714  0.4165  0.6564
 4551TIP3   OH235287   5.280   2.862   1.792 -0.7279  0.7284 -0.1793
 4551TIP3    H135288   5.322   2.789   1.837  0.1748  0.0863 -1.9742
 4551TIP3    H235289   5.278   2.932   1.857  0.9824  0.0108  0.6964
 4552TIP3   OH235290   4.510   6.604   1.880  0.3696  0.1471  0.2422
 4552TIP3    H135291   4.527   6.665   1.953 -0.4827  1.6627 -0.7607
 4552TIP3    H235292   4.415   6.609   1.867  0.3847 -0.8720 -0.3458
 4553TIP3   OH235293   2.680   3.483   2.812  0.0619  0.5184  0.0965
 4553TIP3    H135294   2.752   3.538   2.781  0.3037 -1.2707 -2.8774
 4553TIP3    H235295   2.601   3.528   2.781  0.1491  0.4153 -0.2904
 4554TIP3   OH235296   3.897   0.438   1.148 -0.7036 -0.1801 -0.0438
 4554TIP3    H135297   3.961   0.506   1.169 -1.1947  0.2048  0.1963
 4554TIP3    H235298   3.889   0.386   1.228 -2.7655  1.4383  0.8885
 4555TIP3   OH235299   4.610   1.406   1.377  0.1648  0.1884  0.1818
 4555TIP3    H135300   4.675   1.474   1.359 -0.3311  0.6923  0.3119
 4555TIP3    H235301   4.659   1.324   1.364  0.4035  0.5401 -1.3638
 4556TIP3   OH235302   3.378   5.967   2.222  0.8691  0.1342  0.2489
 4556TIP3    H135303   3.307   6.030   2.204  0.4686 -0.4564 -0.2837
 4556TIP3    H235304   3.455   6.022   2.238  0.1752  0.8145  1.4394
 4557TIP3   OH235305   5.377   0.067   8.150 -0.5588  0.2405 -0.0328
 4557TIP3    H135306   5.421   0.112   8.222  0.1798  0.7092 -0.7627
 4557TIP3    H235307   5.355   0.137   8.088 -0.0640 -0.3043 -0.8386
 4558TIP3   OH235308   5.399   0.864   0.099  0.3445  0.5263  0.1749
 4558TIP3    H135309   5.327   0.906   0.146  1.1042  0.6834  1.2042
 4558TIP3    H235310   5.478   0.896   0.141  1.0904  1.1702 -1.6159
 4559TIP3   OH235311   0.480   2.816   7.878 -0.0229  0.2826 -0.3638
 4559TIP3    H135312   0.547   2.805   7.810  2.0717  0.2755  1.6047
 4559TIP3    H235313   0.501   2.750   7.944 -1.6994  0.6151  0.5771
 4560TIP3   OH235314   1.902   6.822   8.341 -0.0198  0.2938  0.7679
 4560TIP3    H135315   1.984   6.848   8.383  2.3630 -1.4093 -2.4137
 4560TIP3    H235316   1.891   6.730   8.365  0.6882 -0.3325 -1.1503
 4561TIP3   OH235317   4.602   4.386   0.902  0.2671 -0.1905  0.3143
 4561TIP3    H135318   4.542   4.459   0.888  0.0863 -0.1201  1.3725
 4561TIP3    H235319   4.672   4.423   0.956  0.8910 -0.4614 -0.2941
 4562TIP3   OH235320   0.936   4.943   0.781  0.2612  1.2326  0.2069
 4562TIP3    H135321   0.927   4.932   0.876 -0.5908 -0.3349 -0.0256
 4562TIP3    H235322   1.021   4.987   0.770  2.2909 -1.9586  1.5696
 4563TIP3   OH235323   4.558   6.023   0.746 -0.2164  0.1099 -0.0837
 4563TIP3    H135324   4.537   6.112   0.773  0.9822  0.8725 -1.5172
 4563TIP3    H235325   4.488   5.969   0.783 -0.1299  1.4139  2.1307
 4564TIP3   OH235326   2.304   5.763   0.509  0.4834  0.3667  0.5873
 4564TIP3    H135327   2.392   5.726   0.497  0.7395  1.0043  0.4318
 4564TIP3    H235328   2.278   5.733   0.596  0.5003 -0.5187  0.2975
 4565TIP3   OH235329   5.523   6.194   7.083  0.0220  0.3047  0.0607
 4565TIP3    H135330   5.566   6.108   7.091 -0.5082  0.0456  0.1552
 4565TIP3    H235331   5.589   6.256   7.113  0.4757 -0.0518 -0.1704
 4566TIP3   OH235332   0.623   4.024   7.676  0.1144  0.1075 -0.4806
 4566TIP3    H135333   0.638   3.990   7.588  0.8200  1.6428 -0.9780
 4566TIP3    H235334   0.574   4.105   7.663  0.3321  0.4200  0.5236
 4567TIP3   OH235335   6.101   4.972   0.500 -0.2996  0.1413  0.2448
 4567TIP3    H135336   6.194   4.964   0.523 -0.5483 -0.3560  1.1276
 4567TIP3    H235337   6.093   4.928   0.416  0.2563  0.1384  0.1919
 4568TIP3   OH235338   6.342   6.450   0.841 -0.1347 -0.2428 -1.0050
 4568TIP3    H135339   6.423   6.400   0.834 -0.3517 -0.6760 -0.5315
 4568TIP3    H235340   6.347   6.490   0.928  0.9187  2.1506 -2.0890
 4569TIP3   OH235341   6.709   6.373   6.654 -0.3749  0.2792  0.5731
 4569TIP3    H135342   6.629   6.424   6.644  0.2617  0.9492 -1.7642
 4569TIP3    H235343   6.779   6.437   6.641  0.4776 -0.7108  0.1525
 4570TIP3   OH235344   5.969   3.224   1.005 -0.1482 -0.2407 -0.0189
 4570TIP3    H135345   6.054   3.267   0.999  0.0211 -0.3885  1.2084
 4570TIP3    H235346   5.908   3.293   1.033  0.0821 -0.7010  1.7238
 4571TIP3   OH235347   2.007   2.571   8.435 -0.2410  0.7631 -0.1130
 4571TIP3    H135348   1.981   2.479   8.430 -0.4574  0.8119  0.0640
 4571TIP3    H235349   1.997   2.593   8.528 -1.3403  1.2940 -0.3395
 4572TIP3   OH235350   2.380   0.598   7.237  0.2479 -0.3710  0.2780
 4572TIP3    H135351   2.323   0.569   7.308 -1.4944  0.6631 -0.6495
 4572TIP3    H235352   2.329   0.584   7.157  1.5515 -0.0318 -0.6468
 4573TIP3   OH235353   2.956   6.171   6.449  0.0951 -0.1554 -0.5757
 4573TIP3    H135354   2.968   6.244   6.510 -0.0901 -0.3855 -0.2654
 4573TIP3    H235355   2.992   6.095   6.494 -2.1184 -0.7952  0.2230
 4574TIP3   OH235356   5.396   2.693   7.451  0.1262  0.1962 -0.3323
 4574TIP3    H135357   5.373   2.759   7.385 -1.3993 -0.3902 -0.4238
 4574TIP3    H235358   5.441   2.624   7.402  0.9309  0.7384 -0.3797
 4575TIP3   OH235359   3.057   5.281   1.804 -0.0952 -0.5113 -0.6303
 4575TIP3    H135360   3.043   5.211   1.740 -0.9498 -0.8087 -0.1290
 4575TIP3    H235361   3.076   5.235   1.886  0.2889 -0.1356 -0.5034
 4576TIP3   OH235362   0.750   1.929   1.344 -0.3240 -0.2961  0.0376
 4576TIP3    H135363   0.706   1.888   1.417  3.2993 -2.1399  1.4395
 4576TIP3    H235364   0.814   1.864   1.315  0.8942  1.7879 -2.3537
 4577TIP3   OH235365   2.719   6.665   2.352  0.1665 -0.0429  0.2712
 4577TIP3    H135366   2.704   6.718   2.274 -0.4422  0.5539  0.7892
 4577TIP3    H235367   2.653   6.597   2.348 -1.1493  1.1204  1.2492
 4578TIP3   OH235368   3.285   5.827   8.407  0.0663 -0.0709  0.5799
 4578TIP3    H135369   3.250   5.874   8.332 -1.8467  0.0314  1.4763
 4578TIP3    H235370   3.352   5.770   8.370  0.6695  1.4957 -0.8818
 4579TIP3   OH235371   3.317   6.167   7.690  0.5245  0.3052 -0.0470
 4579TIP3    H135372   3.295   6.080   7.723 -0.9928  0.8722  0.5754
 4579TIP3    H235373   3.314   6.159   7.595 -1.8040  0.1152 -0.0250
 4580TIP3   OH235374   0.819   5.595   6.448  0.0050 -0.2495 -0.1644
 4580TIP3    H135375   0.844   5.601   6.540 -0.7325 -1.6289  0.1628
 4580TIP3    H235376   0.806   5.685   6.420  1.9378  0.3100  0.5791
 4581TIP3   OH235377   0.240   5.160   8.233  0.0562  0.8468 -0.4881
 4581TIP3    H135378   0.246   5.163   8.328 -1.2030  1.5534 -0.4163
 4581TIP3    H235379   0.269   5.247   8.204  0.4458  0.6313 -0.7532
 4582TIP3   OH235380   4.398   0.143   8.257 -0.5105 -0.5162 -0.3739
 4582TIP3    H135381   4.389   0.115   8.166 -1.9603  0.9925 -0.7383
 4582TIP3    H235382   4.363   0.232   8.259  0.7946  0.0237  1.3939
 4583TIP3   OH235383   2.315   3.193   7.875 -0.0241  0.0008 -0.2253
 4583TIP3    H135384   2.324   3.122   7.939 -0.1103  0.8040  0.6987
 4583TIP3    H235385   2.335   3.272   7.924 -1.2849  0.7635 -0.8904
 4584TIP3   OH235386   2.160   3.417   7.429  0.1645  0.3546 -0.1067
 4584TIP3    H135387   2.229   3.476   7.457  0.0039  0.7143 -0.4599
 4584TIP3    H235388   2.112   3.396   7.508  0.7619 -0.0169  0.1708
 4585TIP3   OH235389   5.359   4.727   8.644 -0.1985 -0.0277  0.0370
 4585TIP3    H135390   5.322   4.687   8.723  0.4998  0.5523  0.6690
 4585TIP3    H235391   5.290   4.785   8.612 -0.5402 -0.3722  0.1379
 4586TIP3   OH235392   5.107   0.324   7.440 -0.1668  0.8334  0.2236
 4586TIP3    H135393   5.192   0.297   7.475 -0.0231  0.8108 -0.1387
 4586TIP3    H235394   5.112   0.306   7.346 -0.9881 -0.2245  0.3699
 4587TIP3   OH235395   1.151   4.064   6.615  0.4253  0.0651 -0.5660
 4587TIP3    H135396   1.116   4.135   6.668  2.5105 -1.0414  2.6237
 4587TIP3    H235397   1.091   3.990   6.629  0.8086 -0.1377  0.0287
 4588TIP3   OH235398   1.871   2.022   0.291  0.7577 -0.1386 -0.0207
 4588TIP3    H135399   1.860   2.106   0.336 -1.3133  0.3758 -1.3796
 4588TIP3    H235400   1.882   1.959   0.362  2.3585  1.2125  1.0340
 4589TIP3   OH235401   5.081   1.656   8.433 -0.0689 -0.1175 -0.1404
 4589TIP3    H135402   5.105   1.738   8.476  0.2940 -0.6497  0.6920
 4589TIP3    H235403   5.001   1.628   8.476  1.1751 -1.5076  1.4192
 4590TIP3   OH235404   4.855   0.768   0.242 -0.4038 -0.3231  0.4222
 4590TIP3    H135405   4.868   0.819   0.162 -0.5583  0.7481  1.0674
 4590TIP3    H235406   4.927   0.704   0.242  0.1229  0.2573 -0.1098
 4591TIP3   OH235407   5.222   5.518   1.301 -0.1676  0.3000 -0.3173
 4591TIP3    H135408   5.255   5.602   1.331 -0.4673 -0.6169  2.9782
 4591TIP3    H235409   5.288   5.486   1.240  1.8599  1.2898  1.2450
 4592TIP3   OH235410   3.787   0.191   1.070  0.1785 -0.5889 -0.4922
 4592TIP3    H135411   3.751   0.204   1.158 -0.4344 -0.1024 -0.8010
 4592TIP3    H235412   3.850   0.263   1.060 -0.5531  0.0203 -0.8470
 4593TIP3   OH235413   1.601   4.054   8.248  0.2379  0.1238  0.2174
 4593TIP3    H135414   1.600   4.095   8.334 -2.6938 -2.1728  1.4625
 4593TIP3    H235415   1.632   3.965   8.263 -2.2464 -0.9783 -0.6068
 4594TIP3   OH235416   3.873   5.081   1.545 -0.7055 -0.1384 -0.2619
 4594TIP3    H135417   3.852   5.161   1.594  3.5607  1.3602 -0.5156
 4594TIP3    H235418   3.920   5.026   1.608 -0.7681 -1.0389 -0.9839
 4595TIP3   OH235419   1.189   4.895   7.694  0.2801 -0.9393  0.2371
 4595TIP3    H135420   1.267   4.866   7.743  1.2190  0.5194 -0.3260
 4595TIP3    H235421   1.195   4.990   7.694 -0.3873 -0.8606 -1.6367
 4596TIP3   OH235422   3.902   1.106   8.578  0.8964  0.5486  0.2745
 4596TIP3    H135423   3.924   1.017   8.607 -0.5207 -0.0111 -0.3027
 4596TIP3    H235424   3.807   1.112   8.587  0.8659  1.7074 -0.5514
 4597TIP3   OH235425   0.464   0.538   0.312 -1.3710 -0.6359  0.5925
 4597TIP3    H135426   0.555   0.542   0.341 -0.7978 -0.5866 -1.1013
 4597TIP3    H235427   0.416   0.591   0.376  0.0363  0.7258  0.5783
 4598TIP3   OH235428   1.114   3.114   2.409 -0.1070 -0.2628  0.0608
 4598TIP3    H135429   1.208   3.134   2.404 -0.3344  0.8023 -0.1527
 4598TIP3    H235430   1.073   3.198   2.427 -1.1845 -0.3937 -1.6018
 4599TIP3   OH235431   6.571   6.045   1.421  0.2665 -0.6192 -0.2167
 4599TIP3    H135432   6.489   6.003   1.393 -0.2514  0.5340 -0.4833
 4599TIP3    H235433   6.595   6.101   1.347  0.8522 -0.3178  0.2029
 4600TIP3   OH235434   6.033   1.386   1.615  0.2097  0.0738  0.4837
 4600TIP3    H135435   6.101   1.443   1.578  0.3580 -0.2000  0.3298
 4600TIP3    H235436   6.080   1.307   1.641  0.0702  0.1872  1.0811
 4601TIP3   OH235437   5.850   0.523   8.056 -0.1113 -0.3794  0.4820
 4601TIP3    H135438   5.783   0.455   8.055  1.7029 -2.2701  1.0283
 4601TIP3    H235439   5.819   0.586   8.121 -1.6200 -0.8817  0.2983
 4602TIP3   OH235440   5.297   0.025   7.427 -0.7366  0.1642  0.3525
 4602TIP3    H135441   5.350   0.058   7.354 -0.1915 -0.8466  0.2782
 4602TIP3    H235442   5.297   0.097   7.490 -1.0936  1.0054 -0.5655
 4603TIP3   OH235443   6.696   1.535   7.919  0.5526  0.1254  0.1169
 4603TIP3    H135444   6.704   1.443   7.945 -0.7193  0.1791  0.7695
 4603TIP3    H235445   6.613   1.540   7.873  0.3059  1.0704  0.6446
 4604TIP3   OH235446   3.966   2.959   8.528  0.4621  0.1812  0.0920
 4604TIP3    H135447   3.933   2.918   8.447 -0.4252 -2.2445  1.5764
 4604TIP3    H235448   4.061   2.950   8.522  0.5318  1.5560 -1.4071
 4605TIP3   OH235449   1.945   6.490   0.678  0.4333 -0.4230 -0.3961
 4605TIP3    H135450   1.944   6.568   0.733 -0.8083  0.5439 -1.7173
 4605TIP3    H235451   2.032   6.453   0.690  0.3738  0.0286  1.7870
 4606TIP3   OH235452   6.271   5.364   8.625 -0.6737  0.5562  0.0840
 4606TIP3    H135453   6.329   5.430   8.664 -0.2299 -0.3861  1.0684
 4606TIP3    H235454   6.324   5.325   8.556 -1.2599  1.8329 -1.1344
 4607TIP3   OH235455   3.064   3.743   2.123  0.2698 -0.8941  0.3329
 4607TIP3    H135456   3.112   3.772   2.200 -0.5702  0.3412  0.4166
 4607TIP3    H235457   3.126   3.689   2.074  2.1556  1.5456 -0.1543
 4608TIP3   OH235458   2.420   1.509   7.773  0.2014 -0.5265  0.0331
 4608TIP3    H135459   2.434   1.510   7.678 -0.5978 -1.0274 -0.1022
 4608TIP3    H235460   2.345   1.451   7.785  0.0322 -0.1296  0.9434
 4609TIP3   OH235461   1.146   0.908   1.501  0.0124 -0.0641 -0.2689
 4609TIP3    H135462   1.172   0.842   1.565 -1.1873 -1.3283 -1.0414
 4609TIP3    H235463   1.055   0.888   1.480  0.4384  0.1077 -2.5760
 4610TIP3   OH235464   6.800   1.947   0.678 -0.0436 -0.5883  0.6807
 4610TIP3    H135465   6.760   2.033   0.686 -2.4686 -1.4303 -1.0121
 4610TIP3    H235466   6.805   1.914   0.767 -2.7763 -0.1814  1.0846
 4611TIP3   OH235467   4.547   0.311   8.625 -0.1762 -0.1985 -0.5185
 4611TIP3    H135468   4.487   0.242   8.596  1.7568 -1.0691 -2.7804
 4611TIP3    H235469   4.626   0.265   8.651  0.7711  1.0838 -1.0258
 4612TIP3   OH235470   6.489   4.068   7.963 -0.6123 -0.5651 -0.2816
 4612TIP3    H135471   6.496   4.079   8.058  1.7194 -1.8408 -0.2307
 4612TIP3    H235472   6.431   4.139   7.935  0.1500  1.0436  1.8728
 4613TIP3   OH235473   5.658   5.937   0.883  0.1075 -0.7176 -0.0312
 4613TIP3    H135474   5.576   5.896   0.856 -0.2901  1.5485 -2.6455
 4613TIP3    H235475   5.721   5.912   0.816  0.0347  2.1083 -1.3057
 4614TIP3   OH235476   5.467   4.701   7.223 -0.1984  0.0377 -0.7027
 4614TIP3    H135477   5.488   4.612   7.195  0.8719  0.1560 -0.3218
 4614TIP3    H235478   5.460   4.751   7.142  1.5293  0.0923 -0.8571
 4615TIP3   OH235479   3.860   2.324   1.226  0.0960 -0.3305  0.1353
 4615TIP3    H135480   3.827   2.366   1.305  1.5475 -1.0709  1.1861
 4615TIP3    H235481   3.953   2.343   1.226  0.0327  0.1135 -1.7136
 4616TIP3   OH235482   5.190   5.397   7.397  0.1866 -0.4427  0.1525
 4616TIP3    H135483   5.212   5.306   7.414  1.6773 -0.4656 -1.5906
 4616TIP3    H235484   5.135   5.394   7.319  1.5051  0.1985 -0.8444
 4617TIP3   OH235485   3.070   1.376   1.199  0.3457  0.0057 -0.0530
 4617TIP3    H135486   3.116   1.461   1.198  2.7542 -1.2150 -0.9388
 4617TIP3    H235487   3.085   1.343   1.287  2.8234 -1.1527 -0.8331
 4618TIP3   OH235488   3.584   4.539   1.475 -0.2410 -0.4695 -0.2064
 4618TIP3    H135489   3.654   4.481   1.444  0.0661 -1.5669  2.3436
 4618TIP3    H235490   3.503   4.497   1.446  0.0324 -1.4663  0.4228
 4619TIP3   OH235491   2.209   5.364   7.424  0.3501  0.3130  0.2747
 4619TIP3    H135492   2.150   5.438   7.433 -0.3879 -0.1408 -0.6855
 4619TIP3    H235493   2.252   5.378   7.339  0.0625 -0.4501 -0.0044
 4620TIP3   OH235494   0.771   4.675   8.658  0.3038  0.1839 -0.1164
 4620TIP3    H135495   0.793   4.717   8.741 -0.8330  1.5644 -0.4687
 4620TIP3    H235496   0.801   4.584   8.668  1.2719  0.6289  1.3296
 4621TIP3   OH235497   1.788   0.768   0.426 -0.0767  0.0747 -0.4148
 4621TIP3    H135498   1.782   0.695   0.365  3.6412 -0.0007 -0.9046
 4621TIP3    H235499   1.857   0.743   0.487 -1.7525  1.3573  2.1798
 4622TIP3   OH235500   3.212   2.313   0.016  0.1988 -0.6329  0.1507
 4622TIP3    H135501   3.188   2.353  -0.068 -1.7521 -1.5945  0.2057
 4622TIP3    H235502   3.291   2.264  -0.002  0.4914  0.1640 -0.8188
 4623TIP3   OH235503   1.505   0.370   8.167  0.3969  0.3238  0.2584
 4623TIP3    H135504   1.541   0.302   8.224  0.2802  1.1074  1.2901
 4623TIP3    H235505   1.426   0.330   8.130  0.2106 -0.0334  1.0167
 4624TIP3   OH235506   1.206   1.816   1.419  0.1053 -0.0572  0.4404
 4624TIP3    H135507   1.299   1.792   1.418  0.0198 -0.5626 -1.8900
 4624TIP3    H235508   1.199   1.887   1.355 -1.4085 -1.4966 -1.0974
 4625TIP3   OH235509   6.184   5.726   6.794  0.6696 -0.1955 -0.3215
 4625TIP3    H135510   6.142   5.658   6.740  0.9195  0.0562 -0.8400
 4625TIP3    H235511   6.113   5.786   6.817  0.5095 -0.4537 -0.1337
 4626TIP3   OH235512   2.338   0.789   0.791  0.5832  0.1622 -0.1460
 4626TIP3    H135513   2.364   0.878   0.768  1.2683  0.1025  0.3760
 4626TIP3    H235514   2.331   0.790   0.887 -0.2062 -0.1352 -0.1909
 4627TIP3   OH235515   5.100   6.208   1.340  0.3774 -0.1101 -0.1621
 4627TIP3    H135516   5.045   6.213   1.418 -0.1190  0.3173 -0.5221
 4627TIP3    H235517   5.083   6.121   1.305 -0.8715  0.3546 -0.8097
 4628TIP3   OH235518   0.418   1.758   0.566 -0.1150  0.0123  0.3204
 4628TIP3    H135519   0.473   1.833   0.545 -1.6018  1.5810  1.7312
 4628TIP3    H235520   0.479   1.692   0.599  1.2514  0.4473 -1.2035
 4629TIP3   OH235521   0.187   4.141   2.200 -0.5180  0.4368  0.2881
 4629TIP3    H135522   0.252   4.167   2.134  0.6540 -0.6681  0.9754
 4629TIP3    H235523   0.103   4.160   2.158  0.1822  3.8415  0.1500
 4630TIP3   OH235524   6.205   1.729   8.161  0.2273 -0.5669  0.3237
 4630TIP3    H135525   6.197   1.807   8.217  2.2445  0.3289 -0.5500
 4630TIP3    H235526   6.215   1.657   8.223  0.2601  0.1209  1.1483
 4631TIP3   OH235527   2.495   6.876   8.075  0.2642 -0.1873  0.2098
 4631TIP3    H135528   2.415   6.895   8.025  1.4508  0.4229 -1.5463
 4631TIP3    H235529   2.563   6.868   8.008  1.9518  0.7327  1.7550
 4632TIP3   OH235530   6.601   6.873   0.292  0.1732 -0.2062  0.3269
 4632TIP3    H135531   6.548   6.916   0.224 -1.5910 -0.7291  1.3169
 4632TIP3    H235532   6.692   6.896   0.269 -0.3624 -0.1113 -2.0186
 4633TIP3   OH235533   4.438   1.004   0.336 -0.2139  0.3160  0.5584
 4633TIP3    H135534   4.471   0.999   0.426 -1.8881  1.2252  1.2716
 4633TIP3    H235535   4.460   0.920   0.297  0.9101  0.0661  1.6755
 4634TIP3   OH235536   1.464   1.247   1.892 -0.4967  0.7358 -0.3129
 4634TIP3    H135537   1.411   1.183   1.844 -0.9187  2.5612 -2.4353
 4634TIP3    H235538   1.453   1.328   1.843  1.8246  1.9162  0.9767
 4635TIP3   OH235539   1.868   4.882   8.021 -0.5219 -0.4935 -0.3124
 4635TIP3    H135540   1.890   4.830   8.099  0.4073  2.0255  1.2021
 4635TIP3    H235541   1.946   4.875   7.966  0.4951  0.9434  0.8675
 4636TIP3   OH235542   4.455   1.196   1.164  0.0278  0.1677  0.7489
 4636TIP3    H135543   4.456   1.136   1.239  1.4867 -0.9919 -0.1557
 4636TIP3    H235544   4.492   1.277   1.198  0.7941 -0.3880  1.2712
 4637TIP3   OH235545   0.504   4.268   7.590  0.9219 -0.0063 -0.2156
 4637TIP3    H135546   0.492   4.360   7.616 -0.5177  0.5871 -2.5885
 4637TIP3    H235547   0.482   4.268   7.497  0.1178 -2.9326 -0.0992
 4638TIP3   OH235548   3.684   3.583   7.227 -0.1137  0.4065 -0.4356
 4638TIP3    H135549   3.633   3.663   7.236 -1.7411 -0.6599  0.4743
 4638TIP3    H235550   3.775   3.612   7.224 -0.6651  2.2742 -0.2144
 4639TIP3   OH235551   2.092   5.162   1.357 -0.0343  0.2863 -0.3370
 4639TIP3    H135552   2.132   5.185   1.442  2.2164  0.0443 -1.2612
 4639TIP3    H235553   2.120   5.232   1.298  0.3496 -0.7212 -1.3906
 4640TIP3   OH235554   5.836   0.087   2.353  0.6494  0.6636 -0.7155
 4640TIP3    H135555   5.753   0.039   2.361  1.1132 -0.2513 -1.2150
 4640TIP3    H235556   5.833   0.153   2.423  0.0238 -0.1396  0.0316
 4641TIP3   OH235557   6.002   4.555   7.376  0.6908 -0.0065  0.3581
 4641TIP3    H135558   6.079   4.595   7.417  2.2521 -1.0853 -1.3615
 4641TIP3    H235559   5.987   4.608   7.298 -0.1530  0.0092  0.5266
 4642TIP3   OH235560   0.735   1.765   1.870  0.4353  0.1263  0.5319
 4642TIP3    H135561   0.667   1.745   1.934 -1.4853  0.5087 -1.2792
 4642TIP3    H235562   0.808   1.708   1.893 -1.0722 -1.4561  1.6354
 4643TIP3   OH235563   6.596   2.978   0.282 -0.2138  0.6648  0.4796
 4643TIP3    H135564   6.511   3.010   0.251 -1.2846  0.1993  2.7691
 4643TIP3    H235565   6.657   3.003   0.212 -1.8242  3.0181 -0.2174
 4644TIP3   OH235566   0.815   6.903   6.617  0.3091 -0.0817 -0.7469
 4644TIP3    H135567   0.868   6.898   6.537  1.9303  1.8260  0.1257
 4644TIP3    H235568   0.802   6.997   6.631  0.6065 -0.3417  1.5631
 4645TIP3   OH235569   5.511   5.112   7.524 -0.3192 -0.3113 -0.3551
 4645TIP3    H135570   5.582   5.171   7.499 -0.7720 -0.1125 -1.2106
 4645TIP3    H235571   5.481   5.145   7.608  0.0058  0.1530 -0.4172
 4646TIP3   OH235572   6.541   1.334   6.327 -0.1997 -0.4638 -0.4611
 4646TIP3    H135573   6.504   1.385   6.399  0.7171 -1.2575  0.5847
 4646TIP3    H235574   6.536   1.243   6.356 -1.8631 -1.0422 -2.3253
 4647TIP3   OH235575   3.688   3.061   0.707  0.3867 -0.4858 -0.0147
 4647TIP3    H135576   3.739   3.136   0.738  0.7545  0.2927 -2.2874
 4647TIP3    H235577   3.634   3.097   0.636  0.3437 -2.3139 -0.9487
 4648TIP3   OH235578   2.234   4.326   0.427 -0.2818 -0.4777 -0.0850
 4648TIP3    H135579   2.262   4.322   0.518  0.7719  1.7909 -0.2252
 4648TIP3    H235580   2.316   4.321   0.377 -0.7617 -0.7013 -0.8648
 4649TIP3   OH235581   4.848   6.844   0.485  0.1207 -0.8495 -0.0134
 4649TIP3    H135582   4.788   6.798   0.426 -2.3541 -3.0895  3.8049
 4649TIP3    H235583   4.809   6.931   0.496 -0.4716 -1.0854 -0.2082
 4650TIP3   OH235584   4.591   4.422   6.853  0.2220  0.3775  0.1891
 4650TIP3    H135585   4.621   4.497   6.802 -1.4277  0.9769  0.0497
 4650TIP3    H235586   4.672   4.385   6.891  0.9575  3.3855  1.9223
 4651TIP3   OH235587   5.604   5.099   0.604  0.1907 -0.1845  0.7233
 4651TIP3    H135588   5.656   5.134   0.677 -0.5786 -0.4739  1.4200
 4651TIP3    H235589   5.669   5.076   0.537  0.8925  0.2304  1.2467
 4652TIP3   OH235590   3.243   2.888   1.002 -0.6947  0.0239  0.0745
 4652TIP3    H135591   3.334   2.912   0.988 -0.9394  1.7269  1.1891
 4652TIP3    H235592   3.195   2.971   1.000 -1.9368 -0.6159  1.5852
 4653TIP3   OH235593   0.573   6.207   1.444  0.1783 -0.0997  0.2464
 4653TIP3    H135594   0.634   6.273   1.409  0.7677 -0.8494 -0.1793
 4653TIP3    H235595   0.525   6.177   1.367 -0.6903  0.4351  0.5737
 4654TIP3   OH235596   6.289   1.935   7.531  0.1257 -0.3685 -0.3321
 4654TIP3    H135597   6.201   1.899   7.526  0.6633 -1.9153  0.5458
 4654TIP3    H235598   6.293   1.979   7.616  0.4107 -0.9785 -0.0185
 4655TIP3   OH235599   3.447   2.707   8.240 -0.1704 -0.2330  1.1824
 4655TIP3    H135600   3.506   2.764   8.290 -1.4642  0.9746  1.4112
 4655TIP3    H235601   3.363   2.714   8.285 -1.2228  0.4112 -0.7652
 4656TIP3   OH235602   0.967   5.746   0.513  0.7671  0.2988  0.0157
 4656TIP3    H135603   0.984   5.751   0.419 -0.5738  1.9392 -0.1852
 4656TIP3    H235604   0.974   5.836   0.543 -0.5200  0.0372  1.1575
 4657TIP3   OH235605   4.057   2.184   1.969  0.1669 -0.2623 -0.3916
 4657TIP3    H135606   4.037   2.186   1.875 -1.2923  1.5614 -0.0969
 4657TIP3    H235607   3.983   2.139   2.009 -0.1520  0.6280  0.0469
 4658TIP3   OH235608   2.869   5.634   2.760  0.3060  0.3469  0.7585
 4658TIP3    H135609   2.804   5.687   2.807 -0.5118 -0.7125  0.8795
 4658TIP3    H235610   2.914   5.695   2.703 -0.8494  1.1152  0.6332
 4659TIP3   OH235611   2.807   6.367   1.040  0.2168 -0.6957  0.2151
 4659TIP3    H135612   2.877   6.403   0.987 -0.2672 -0.8565 -0.5443
 4659TIP3    H235613   2.842   6.368   1.130  0.7021  0.4281  0.0376
 4660TIP3   OH235614   3.679   3.512   6.702  0.7936 -0.6137 -0.2731
 4660TIP3    H135615   3.742   3.480   6.638 -0.7722 -1.4822 -1.4388
 4660TIP3    H235616   3.610   3.555   6.650 -0.2537 -0.8736  0.8477
 4661TIP3   OH235617   3.804   1.106   1.915  0.6407  0.4204 -0.6686
 4661TIP3    H135618   3.869   1.070   1.976 -1.4192  1.7397  2.5911
 4661TIP3    H235619   3.848   1.180   1.873  2.4825 -1.1999 -1.7751
 4662TIP3   OH235620   5.283   0.242   1.431 -0.1486 -0.8167  0.3216
 4662TIP3    H135621   5.237   0.266   1.350  0.4539 -0.4543  0.0786
 4662TIP3    H235622   5.257   0.310   1.494 -2.5797 -2.4345  1.2056
 4663TIP3   OH235623   2.804   6.086   0.708  0.3646  0.1099  0.2407
 4663TIP3    H135624   2.809   6.161   0.648 -2.7378  0.7919  0.6305
 4663TIP3    H235625   2.710   6.067   0.713  0.8015 -1.8745  2.5484
 4664TIP3   OH235626   4.220   2.148   7.556  0.1513 -0.0026  0.0275
 4664TIP3    H135627   4.173   2.133   7.474  2.3415 -0.7920 -1.1717
 4664TIP3    H235628   4.155   2.130   7.624 -0.8424 -2.7825 -1.4935
 4665TIP3   OH235629   2.965   3.018   1.672 -0.4413 -0.3452 -0.5228
 4665TIP3    H135630   2.982   3.093   1.728 -0.0703 -2.5027  2.4897
 4665TIP3    H235631   2.873   2.998   1.685 -0.8083  0.1664 -2.1480
 4666TIP3   OH235632   4.490   4.656   7.284 -0.0614  0.3422 -0.1992
 4666TIP3    H135633   4.580   4.634   7.308 -0.3382 -0.5052  0.0907
 4666TIP3    H235634   4.471   4.600   7.209 -0.2458  0.7406 -0.4513
 4667TIP3   OH235635   5.430   6.322   2.269  0.3175 -0.0409  0.5258
 4667TIP3    H135636   5.417   6.396   2.329 -0.2526 -0.2754  0.7027
 4667TIP3    H235637   5.517   6.289   2.291  0.5612  0.5498  0.4732
 4668TIP3   OH235638   6.403   1.708   7.166  0.2530  0.6896 -0.3244
 4668TIP3    H135639   6.480   1.728   7.218  0.2189  1.0836 -0.4186
 4668TIP3    H235640   6.432   1.641   7.104 -0.5627 -2.5500  2.4502
 4669TIP3   OH235641   5.900   3.123   1.709  0.2703 -0.1672 -0.2879
 4669TIP3    H135642   5.832   3.137   1.775 -0.6029 -1.0254 -0.9719
 4669TIP3    H235643   5.982   3.121   1.758 -0.2940 -0.0746  0.6712
 4670TIP3   OH235644   4.565   5.559   1.141 -0.6009  0.0841 -0.3563
 4670TIP3    H135645   4.511   5.590   1.068  0.1393 -0.7240 -1.2758
 4670TIP3    H235646   4.517   5.484   1.176  0.1497 -0.9702 -1.5191
 4671TIP3   OH235647   1.441   2.301   7.641  0.1161  0.4208  0.4780
 4671TIP3    H135648   1.484   2.221   7.671 -2.3510 -0.5408  1.7655
 4671TIP3    H235649   1.512   2.358   7.612  2.0734 -1.6061  1.0518
 4672TIP3   OH235650   5.707   0.528   0.640  0.0192  0.3574 -0.6941
 4672TIP3    H135651   5.631   0.528   0.698  0.7204  0.4135  0.2315
 4672TIP3    H235652   5.781   0.507   0.697  0.5231 -1.0648 -1.8121
 4673TIP3   OH235653   4.202   3.481   7.374  0.1493 -0.3340 -0.3509
 4673TIP3    H135654   4.204   3.430   7.455  2.5913  1.4812  0.8554
 4673TIP3    H235655   4.159   3.563   7.398 -1.0135 -0.5565 -1.5028
 4674TIP3   OH235656   2.049   6.812   6.985 -0.4581 -0.2012  0.1670
 4674TIP3    H135657   1.993   6.827   6.910  0.2813  2.5193  0.0518
 4674TIP3    H235658   1.989   6.801   7.059 -1.1451 -0.8505 -0.4714
 4675TIP3   OH235659   5.903   6.524   0.211  0.1735 -0.2137 -0.5034
 4675TIP3    H135660   5.883   6.562   0.296  1.3369  2.1129 -1.1848
 4675TIP3    H235661   5.831   6.552   0.155  0.2711 -0.3152 -0.6812
 4676TIP3   OH235662   4.612   0.856   8.449 -0.1011 -0.0299 -0.2686
 4676TIP3    H135663   4.611   0.841   8.355  1.2938  0.7979 -0.4450
 4676TIP3    H235664   4.525   0.888   8.470 -0.1471  0.6394 -1.4281
 4677TIP3   OH235665   2.695   1.021   7.393 -0.0600  0.0290  0.3527
 4677TIP3    H135666   2.752   1.076   7.447  1.8925 -0.3433 -1.2047
 4677TIP3    H235667   2.687   0.940   7.442 -1.5868  1.0276  1.8761
 4678TIP3   OH235668   6.714   1.383   8.225 -0.1153 -0.2514 -0.3318
 4678TIP3    H135669   6.661   1.358   8.300 -1.6773  1.2385 -0.8561
 4678TIP3    H235670   6.656   1.369   8.149 -0.0397  1.9219 -0.8700
 4679TIP3   OH235671   2.282   4.385   8.508  0.2080 -0.4401  0.1763
 4679TIP3    H135672   2.368   4.350   8.484 -0.5068 -1.2427 -1.3558
 4679TIP3    H235673   2.221   4.343   8.447 -0.7497  3.3930 -1.8220
 4680TIP3   OH235674   0.917   1.432   0.503  0.0348 -0.6856 -0.0681
 4680TIP3    H135675   0.900   1.348   0.546 -2.2059 -0.0187  0.4374
 4680TIP3    H235676   0.871   1.425   0.419  0.0519 -0.0443 -0.1302
 4681TIP3   OH235677   2.421   1.034   0.821 -0.1903 -0.1391 -0.2584
 4681TIP3    H135678   2.451   1.034   0.730  0.4477 -1.3931 -0.0685
 4681TIP3    H235679   2.499   1.056   0.872 -0.0281 -1.4880  0.1099
 4682TIP3   OH235680   2.762   6.124   8.183  0.1659  0.1142 -0.4700
 4682TIP3    H135681   2.740   6.031   8.171 -0.1548  0.2762 -1.1879
 4682TIP3    H235682   2.856   6.123   8.200  0.2605 -0.3170 -0.9587
 4683TIP3   OH235683   5.862   5.959   7.631 -0.0393 -0.3948 -0.4710
 4683TIP3    H135684   5.863   5.863   7.626  0.4872 -0.4502  0.3923
 4683TIP3    H235685   5.833   5.978   7.720 -2.9653  0.3285 -1.4652
 4684TIP3   OH235686   2.670   4.286   0.130 -1.0505 -0.4427 -0.2869
 4684TIP3    H135687   2.714   4.329   0.203 -2.5755  0.1805  0.3201
 4684TIP3    H235688   2.720   4.310   0.053 -0.2508  0.0944  0.3924
 4685TIP3   OH235689   1.260   1.963   1.204  0.1699  0.0017 -0.1035
 4685TIP3    H135690   1.293   1.898   1.142 -0.7964  0.1216 -0.7554
 4685TIP3    H235691   1.241   2.040   1.150 -1.7942 -0.2792  0.1163
 4686TIP3   OH235692   0.869   1.527   8.501 -0.1994  0.1396  0.2534
 4686TIP3    H135693   0.883   1.560   8.590 -1.2980 -0.1099  0.5439
 4686TIP3    H235694   0.787   1.569   8.473 -1.1868 -1.6387  0.3148
 4687TIP3   OH235695   1.792   6.150   0.115 -0.0641  0.1968 -0.1229
 4687TIP3    H135696   1.872   6.199   0.136  0.5312  0.3594 -2.4919
 4687TIP3    H235697   1.724   6.217   0.109  0.1902  0.4021 -0.7374
 4688TIP3   OH235698   6.768   5.044   8.309  0.0158  0.1110  0.2264
 4688TIP3    H135699   6.692   5.035   8.252  0.2139  0.7882 -0.1598
 4688TIP3    H235700   6.748   5.122   8.362 -1.3162 -1.8860  2.9086
 4689TIP3   OH235701   6.470   6.558   1.667 -0.5003 -0.7938  0.2553
 4689TIP3    H135702   6.376   6.548   1.651 -0.3453 -0.4641 -0.9183
 4689TIP3    H235703   6.512   6.502   1.602  0.1752  1.5821 -1.5110
 4690TIP3   OH235704   1.681   5.735   2.305  0.3843  0.1814  0.0992
 4690TIP3    H135705   1.769   5.756   2.273  1.1827  0.2838  2.2040
 4690TIP3    H235706   1.677   5.640   2.306  0.6144  0.1733  0.3393
 4691TIP3   OH235707   4.345   1.932   1.027  0.0330 -0.1998 -0.0749
 4691TIP3    H135708   4.348   2.016   0.981 -0.4553  0.8684  1.7157
 4691TIP3    H235709   4.437   1.910   1.042  0.1715  0.9545  0.9655
 4692TIP3   OH235710   1.812   3.168   1.342 -0.7498 -0.2122  0.1882
 4692TIP3    H135711   1.768   3.227   1.281  0.9730  0.6194 -0.3185
 4692TIP3    H235712   1.835   3.224   1.417  0.3770 -0.3435 -0.0393
 4693TIP3   OH235713   1.391   0.124   6.923  0.6876 -0.0775  0.2068
 4693TIP3    H135714   1.401   0.200   6.866  1.1165  0.6174  1.1820
 4693TIP3    H235715   1.418   0.050   6.869  1.6283  0.6235 -0.3115
 4694TIP3   OH235716   3.100   2.073   7.741 -0.5323 -0.2739  0.5252
 4694TIP3    H135717   3.100   2.082   7.645  0.2719 -0.3192  0.5142
 4694TIP3    H235718   3.117   1.981   7.757 -1.8250 -0.4891  0.7095
 4695TIP3   OH235719   5.889   5.502   8.486  0.1259  0.0156 -0.0685
 4695TIP3    H135720   5.908   5.420   8.441  0.0807  1.6614 -3.4564
 4695TIP3    H235721   5.798   5.496   8.512  0.5447 -1.5504  1.1332
 4696TIP3   OH235722   0.010   1.278   6.636 -0.2323 -0.1978  0.1527
 4696TIP3    H135723   0.095   1.299   6.598 -0.5434  1.1537  0.1450
 4696TIP3    H235724   0.018   1.305   6.728 -1.5989  3.0078 -0.5310
 4697TIP3   OH235725   3.534   2.723   0.737 -0.2787 -0.2364 -0.0503
 4697TIP3    H135726   3.597   2.660   0.703 -2.1565 -1.7344 -0.9809
 4697TIP3    H235727   3.557   2.735   0.829 -0.4520 -3.1424  0.4585
 4698TIP3   OH235728   1.502   5.037   1.671 -0.0294  0.0297  0.6038
 4698TIP3    H135729   1.531   5.121   1.708 -2.0757  1.1392 -0.1426
 4698TIP3    H235730   1.430   5.010   1.727  1.4518 -1.9766  1.6355
 4699TIP3   OH235731   3.169   1.220   0.838 -1.0543 -0.1406 -0.5974
 4699TIP3    H135732   3.220   1.157   0.888 -0.7469  1.1248  0.7295
 4699TIP3    H235733   3.158   1.295   0.896  0.9106  2.2188 -3.0129
 4700TIP3   OH235734   5.681   1.983   0.312 -0.0162  0.5522 -0.0733
 4700TIP3    H135735   5.676   1.896   0.271  0.3378  0.6241 -0.2735
 4700TIP3    H235736   5.748   2.029   0.261  2.5681 -0.2980  2.2811
 4701TIP3   OH235737   6.634   5.537   8.598  0.5764 -0.5579  0.4527
 4701TIP3    H135738   6.684   5.568   8.523 -2.2769  3.1392 -0.2297
 4701TIP3    H235739   6.688   5.561   8.674  0.8802  1.3772 -0.3062
 4702TIP3   OH235740   2.250   3.297   0.644  0.2642 -0.4908 -0.4645
 4702TIP3    H135741   2.307   3.373   0.658 -0.6639  0.3806 -1.2289
 4702TIP3    H235742   2.206   3.286   0.729  0.6158 -0.3652 -0.2603
 4703TIP3   OH235743   3.443   4.881   8.169 -0.7495 -0.4331 -0.9194
 4703TIP3    H135744   3.426   4.942   8.097  0.3906  0.4418 -0.4806
 4703TIP3    H235745   3.401   4.799   8.141 -1.9782  0.4245 -1.6893
 4704TIP3   OH235746   3.087   6.763   7.527  0.0149 -0.0741 -0.4566
 4704TIP3    H135747   3.039   6.770   7.609 -0.9477 -1.4718 -0.8692
 4704TIP3    H235748   3.093   6.853   7.495 -0.7321  0.3297  0.5034
 4705TIP3   OH235749   3.051   6.049   6.675  0.2736  0.5694 -0.2444
 4705TIP3    H135750   3.092   6.080   6.756 -0.7566  2.2566 -0.3157
 4705TIP3    H235751   2.987   5.985   6.704  1.1931 -0.2220  0.0893
 4706TIP3   OH235752   2.124   3.732   0.804  0.2321 -0.5065  0.7783
 4706TIP3    H135753   2.216   3.714   0.782 -0.3532 -0.8410 -1.7712
 4706TIP3    H235754   2.074   3.677   0.743 -1.6320  1.7418  0.1441
 4707TIP3   OH235755   1.123   2.595   0.276  0.1891  0.2030  0.1025
 4707TIP3    H135756   1.161   2.584   0.363  0.0554 -1.2499  0.0137
 4707TIP3    H235757   1.055   2.528   0.271 -1.6171  1.9703 -0.1947
 4708TIP3   OH235758   6.728   5.271   0.278  0.2294 -0.3307 -0.2431
 4708TIP3    H135759   6.774   5.196   0.239  0.5155 -0.5458  0.4860
 4708TIP3    H235760   6.754   5.270   0.370  0.1180  0.5795 -0.1871
 4709TIP3   OH235761   2.957   0.431   8.222 -0.0313 -0.1572  0.1426
 4709TIP3    H135762   3.038   0.421   8.271 -0.4177  1.9300  1.2860
 4709TIP3    H235763   2.985   0.446   8.131  0.7250 -2.1514 -0.0141
 4710TIP3   OH235764   1.943   5.953   7.461  0.1748 -0.0839 -0.0536
 4710TIP3    H135765   1.961   5.902   7.381  0.5215 -0.7424  0.4382
 4710TIP3    H235766   1.854   5.986   7.448 -0.1308 -0.9803 -0.2979
 4711TIP3   OH235767   4.078   2.696   0.014  0.1649 -0.2840 -0.0931
 4711TIP3    H135768   4.108   2.769  -0.040  0.2631 -1.2831 -1.4446
 4711TIP3    H235769   3.993   2.724   0.048 -0.1182  0.1907 -1.1670
 4712TIP3   OH235770   5.101   2.330   0.029  0.1856  0.2411  0.5171
 4712TIP3    H135771   5.041   2.376  -0.031  1.6994 -0.2603 -1.4824
 4712TIP3    H235772   5.187   2.338  -0.013  1.4510  0.4043  2.9850
 4713TIP3   OH235773   6.528   3.734   6.545 -0.1146 -0.0844 -0.1467
 4713TIP3    H135774   6.528   3.664   6.480  1.2941 -0.1582 -0.0952
 4713TIP3    H235775   6.523   3.688   6.630 -2.3824  0.0265 -0.1706
 4714TIP3   OH235776   1.267   1.893   7.275 -0.6151  0.0501  0.0837
 4714TIP3    H135777   1.202   1.917   7.208 -0.4879 -0.3865 -0.2036
 4714TIP3    H235778   1.255   1.958   7.344 -1.4194 -0.0772  0.0777
 4715TIP3   OH235779   1.753   2.546   7.889  0.1703  0.0041 -0.3166
 4715TIP3    H135780   1.694   2.537   7.964  0.2290 -0.8839 -0.3659
 4715TIP3    H235781   1.723   2.625   7.844 -0.9417 -0.3839 -0.2900
 4716TIP3   OH235782   4.987   2.565   8.111 -0.3414 -0.3050  0.9041
 4716TIP3    H135783   4.904   2.523   8.089 -0.3970  0.4999 -0.5066
 4716TIP3    H235784   4.972   2.658   8.095  0.6760 -0.0877  1.1537
 4717TIP3   OH235785   6.205   0.578   0.978  0.2626 -0.0249  0.5795
 4717TIP3    H135786   6.249   0.536   1.052 -0.1403 -0.5524  0.5259
 4717TIP3    H235787   6.235   0.528   0.902 -0.3652 -0.3463  0.5350
 4718TIP3   OH235788   1.537   0.883   7.187  0.0494  0.7921 -0.1680
 4718TIP3    H135789   1.495   0.805   7.152 -0.7583  0.8623  0.6151
 4718TIP3    H235790   1.601   0.849   7.250  0.5692  0.7263 -0.7148
 4719TIP3   OH235791   1.687   4.492   8.300 -0.0256  0.0888 -0.4992
 4719TIP3    H135792   1.642   4.538   8.229  0.7731  2.1791  0.2591
 4719TIP3    H235793   1.644   4.524   8.380  1.4665  0.6051  0.1224
 4720TIP3   OH235794   5.231   1.231   1.470 -0.5925 -0.3451 -0.4868
 4720TIP3    H135795   5.238   1.271   1.556  1.3957  0.7617 -1.0930
 4720TIP3    H235796   5.266   1.143   1.482 -2.3674 -0.9984  0.2527
 4721TIP3   OH235797   3.002   3.425   8.506  0.0465 -0.4581  0.5552
 4721TIP3    H135798   3.055   3.432   8.427 -0.5706  1.5662  0.2736
 4721TIP3    H235799   3.055   3.466   8.574 -1.0535  1.5775  0.2746
 4722TIP3   OH235800   5.074   1.927   7.694 -0.0153 -0.1221 -0.0275
 4722TIP3    H135801   5.043   2.010   7.659  0.0391  0.3843  1.0999
 4722TIP3    H235802   5.052   1.863   7.626 -2.7808  0.3255  0.3255
 4723TIP3   OH235803   4.463   4.766   3.095  0.0847  0.0936 -0.3270
 4723TIP3    H135804   4.370   4.758   3.073  0.3002  1.2189 -1.8327
 4723TIP3    H235805   4.466   4.837   3.158 -0.1745 -0.7480  0.6633
 4724TIP3   OH235806   6.084   2.744   7.820  0.7279  0.0377 -0.3397
 4724TIP3    H135807   6.178   2.758   7.809  1.2545 -3.0266 -0.7959
 4724TIP3    H235808   6.046   2.770   7.736  1.3908 -0.0948 -0.6904
 4725TIP3   OH235809   3.360   0.004   0.646 -0.6110 -0.0389  0.1780
 4725TIP3    H135810   3.321   0.078   0.694 -0.6581 -0.6359  1.0834
 4725TIP3    H235811   3.438  -0.018   0.696  0.5030  0.6407 -1.1940
 4726TIP3   OH235812   1.723   0.195   1.204  0.2720 -0.0058  0.5476
 4726TIP3    H135813   1.645   0.187   1.259 -0.0299 -0.6454  0.0410
 4726TIP3    H235814   1.747   0.288   1.209 -0.5033  0.1910  0.7295
 4727TIP3   OH235815   4.978   3.115   1.641  0.5163 -0.2363  0.6740
 4727TIP3    H135816   4.896   3.077   1.610  0.0189 -0.1242  1.8008
 4727TIP3    H235817   5.003   3.176   1.572 -0.1243 -0.5792  0.1223
 4728TIP3   OH235818   4.912   0.767   8.242 -0.7314 -0.5456  0.9092
 4728TIP3    H135819   4.926   0.855   8.206  0.0176 -0.6958  0.8031
 4728TIP3    H235820   4.818   0.762   8.258 -0.8112  0.2021  0.7242
 4729TIP3   OH235821   6.139   0.982   8.348 -0.1011  0.0568  0.0434
 4729TIP3    H135822   6.146   1.021   8.261 -1.1006  0.8320  0.2963
 4729TIP3    H235823   6.046   0.966   8.361  0.0606 -0.3112  0.8640
 4730TIP3   OH235824   3.137   0.094   1.595  0.1987  0.3772 -0.5748
 4730TIP3    H135825   3.096   0.045   1.666  0.6782 -0.8333 -1.1055
 4730TIP3    H235826   3.192   0.159   1.640 -2.0212  1.8737  0.1420
 4731TIP3   OH235827   3.983   5.507   0.198  0.0265  0.6365  0.1725
 4731TIP3    H135828   4.013   5.561   0.270 -1.0179  0.8475  0.4723
 4731TIP3    H235829   3.904   5.551   0.167 -0.0523  0.0423 -0.4940
 4732TIP3   OH235830   6.364   4.329   0.677 -0.3240  0.2402 -0.3860
 4732TIP3    H135831   6.291   4.304   0.733 -1.0257  1.7976 -0.5674
 4732TIP3    H235832   6.349   4.281   0.595  0.2229 -1.3477  0.3996
 4733TIP3   OH235833   2.549   3.419   1.383  0.6553 -0.3786 -0.0731
 4733TIP3    H135834   2.560   3.399   1.476 -0.6588  0.0548  0.1940
 4733TIP3    H235835   2.476   3.364   1.355  0.5716  0.0213 -0.6689
 4734TIP3   OH235836   2.707   3.622   1.262  0.6507 -0.3228  0.1610
 4734TIP3    H135837   2.733   3.673   1.339 -0.7733  1.5500 -0.5357
 4734TIP3    H235838   2.664   3.544   1.299  0.9855 -0.0033  1.2632
 4735TIP3   OH235839   4.127   1.535   0.727 -0.2610  0.4335  0.1529
 4735TIP3    H135840   4.133   1.621   0.768 -0.6699 -0.2513  1.7385
 4735TIP3    H235841   4.080   1.481   0.792 -0.8577 -0.7330 -1.2002
 4736TIP3   OH235842   3.928   4.335   1.086  0.0130 -0.2544 -0.3524
 4736TIP3    H135843   3.991   4.322   1.015  1.5468 -0.4810  0.9884
 4736TIP3    H235844   3.958   4.276   1.155 -1.0455  0.4487  0.7483
 4737TIP3   OH235845   3.216   1.120   8.140 -0.1537 -0.0057 -0.7911
 4737TIP3    H135846   3.298   1.133   8.187  0.2123 -0.4764 -1.2939
 4737TIP3    H235847   3.216   1.185   8.071 -0.5327  0.4562 -0.3650
 4738TIP3   OH235848   4.426   2.951   0.716 -0.1849  0.0127  0.1231
 4738TIP3    H135849   4.421   2.912   0.629  0.1741 -0.1298  0.1663
 4738TIP3    H235850   4.345   3.001   0.724 -0.7149 -0.8287  0.1195
 4739TIP3   OH235851   6.327   5.495   6.521 -0.5477  0.6803 -0.3294
 4739TIP3    H135852   6.233   5.484   6.538 -0.6416  1.6845 -0.1643
 4739TIP3    H235853   6.368   5.418   6.562 -1.1704  0.9046  0.7381
 4740TIP3   OH235854   0.939   6.876   6.374  0.2584 -0.2323 -0.0313
 4740TIP3    H135855   1.006   6.894   6.308  0.9562  1.5582  1.0762
 4740TIP3    H235856   0.857   6.869   6.326  0.9954 -0.7748 -1.2412
 4741TIP3   OH235857   5.790   2.177   2.202  0.1485  0.2149  0.2662
 4741TIP3    H135858   5.731   2.110   2.168  1.1888 -0.9843  0.7292
 4741TIP3    H235859   5.772   2.180   2.296 -0.3399  1.0598  0.1507
 4742TIP3   OH235860   6.655   2.672   8.257  0.4582  0.1709 -0.2381
 4742TIP3    H135861   6.668   2.750   8.311  0.2216  0.9606 -1.2803
 4742TIP3    H235862   6.743   2.645   8.232  0.4776  1.2882 -1.4736
 4743TIP3   OH235863   6.048   6.436   0.606 -0.1365 -0.1086  0.0038
 4743TIP3    H135864   6.020   6.457   0.695  0.6207 -1.9424  0.7125
 4743TIP3    H235865   6.130   6.483   0.595 -0.0388 -0.1823  0.4162
 4744TIP3   OH235866   6.059   4.570   0.679 -0.5890  0.0310  0.2403
 4744TIP3    H135867   6.023   4.637   0.621  3.6935  1.1315 -1.5713
 4744TIP3    H235868   6.117   4.617   0.738  0.0755 -1.7585  1.1118
 4745TIP3   OH235869   3.266   4.208   8.538 -0.1676  0.7887  0.0322
 4745TIP3    H135870   3.256   4.255   8.621 -0.0777  0.6884  0.0992
 4745TIP3    H235871   3.190   4.149   8.534  1.0258 -0.8875  1.1416
 4746TIP3   OH235872   3.925   1.680   7.336  0.0500  0.3147  0.2814
 4746TIP3    H135873   3.981   1.642   7.269  0.0766  0.7927  0.0261
 4746TIP3    H235874   3.884   1.756   7.294 -1.9627 -0.8568 -0.0260
 4747TIP3   OH235875   6.742   4.247   7.874  0.3027  0.1308  0.2077
 4747TIP3    H135876   6.667   4.218   7.822  1.4743 -0.7778 -1.0498
 4747TIP3    H235877   6.758   4.336   7.845  2.3173 -1.0715 -2.7759
 4748TIP3   OH235878   6.060   5.500   0.056  0.5396  0.1117  0.0628
 4748TIP3    H135879   6.135   5.447   0.031  0.2972 -0.4189  0.4491
 4748TIP3    H235880   6.011   5.512  -0.025  0.2107 -0.8773  0.1082
 4749TIP3   OH235881   0.719   1.973   8.038  0.3398  0.1875  0.2568
 4749TIP3    H135882   0.652   1.925   8.085  0.0336 -0.8351 -1.1662
 4749TIP3    H235883   0.740   2.047   8.095 -0.3903 -0.6966  1.7210
 4750TIP3   OH235884   4.688   4.151   6.718 -0.4740 -0.1654 -0.0941
 4750TIP3    H135885   4.769   4.156   6.768 -0.4690 -1.5852  0.0864
 4750TIP3    H235886   4.668   4.057   6.714 -1.2315  0.0270 -1.5532
 4751TIP3   OH235887   0.382   3.661   1.529  0.7839  0.0099 -0.7166
 4751TIP3    H135888   0.467   3.619   1.515  0.1706 -0.8596 -2.1374
 4751TIP3    H235889   0.334   3.643   1.448 -0.9197  0.0889  0.2414
 4752TIP3   OH235890   1.057   2.651   1.460  0.5889  0.5747  0.0665
 4752TIP3    H135891   1.067   2.742   1.431  0.2908  0.2464 -1.1070
 4752TIP3    H235892   0.995   2.656   1.533  1.4503  1.4350  0.7598
 4753TIP3   OH235893   5.264   3.371   0.850 -0.0601  0.4622  0.0764
 4753TIP3    H135894   5.289   3.359   0.942 -0.3173 -0.9565 -0.0127
 4753TIP3    H235895   5.186   3.426   0.854 -0.2552  0.1557  0.7439
 4754TIP3   OH235896   3.670   3.157   8.350 -0.0610  0.1889 -0.3572
 4754TIP3    H135897   3.683   3.204   8.432  0.2614  1.6066 -1.2037
 4754TIP3    H235898   3.609   3.211   8.300  1.2756  0.4041 -1.8562
 4755TIP3   OH235899   3.013   6.143   2.876 -0.4549 -0.2823  0.0823
 4755TIP3    H135900   3.063   6.222   2.894  2.2655 -1.5956 -1.2070
 4755TIP3    H235901   2.960   6.165   2.800 -0.6749  0.6453  0.4853
 4756TIP3   OH235902   1.248   0.635   8.090 -0.1295 -0.1736 -0.7820
 4756TIP3    H135903   1.189   0.710   8.078 -1.9519 -1.4572 -0.2756
 4756TIP3    H235904   1.282   0.618   8.002  1.9797  2.4550 -0.6019
 4757TIP3   OH235905   3.535   1.760   1.640  0.1922 -0.0078  0.1968
 4757TIP3    H135906   3.574   1.673   1.654  2.2434  0.7834 -0.2320
 4757TIP3    H235907   3.466   1.766   1.705  0.8481 -1.4736  1.0815
 4758TIP3   OH235908   5.560   1.076   1.802  0.2117  0.4271 -0.6246
 4758TIP3    H135909   5.524   1.165   1.805  0.5128  0.5419 -0.2784
 4758TIP3    H235910   5.537   1.038   1.887 -1.3520 -0.4136 -1.3730
 4759TIP3   OH235911   4.005   4.889   3.118  0.1500 -0.0800 -0.2118
 4759TIP3    H135912   3.916   4.924   3.114 -0.1831 -0.9499 -3.4495
 4759TIP3    H235913   4.042   4.926   3.198 -2.0952  2.7629 -0.3278
 4760TIP3   OH235914   2.809   2.360   0.201  0.2369  0.0034 -0.1194
 4760TIP3    H135915   2.887   2.305   0.193 -0.0344 -0.2999 -0.7975
 4760TIP3    H235916   2.843   2.449   0.212  0.7192  0.1271 -2.1779
 4761TIP3   OH235917   4.315   0.381   8.132 -0.2268 -0.0020 -0.4884
 4761TIP3    H135918   4.223   0.407   8.133  0.0693  1.2915  2.2659
 4761TIP3    H235919   4.357   0.444   8.073 -0.5605  1.9127  1.2130
 4762TIP3   OH235920   0.792   4.505   7.151  0.6828  0.0923  0.5415
 4762TIP3    H135921   0.803   4.600   7.160 -0.6839  0.2777  0.4235
 4762TIP3    H235922   0.826   4.486   7.064 -0.6071  0.7606 -0.1337
 4763TIP3   OH235923   3.040   3.899   2.463 -0.3386 -0.0360  0.0026
 4763TIP3    H135924   2.976   3.832   2.487  1.1506 -1.3594  0.4298
 4763TIP3    H235925   3.088   3.861   2.390  1.2116  0.1188  0.9028
 4764TIP3   OH235926   5.618   3.109   2.172 -0.4686  0.1191 -0.4000
 4764TIP3    H135927   5.676   3.098   2.247 -0.9076 -0.5616 -0.1482
 4764TIP3    H235928   5.530   3.113   2.210 -0.7158 -0.4716 -0.8882
 4765TIP3   OH235929   0.624   4.106   1.467  0.3338  0.4223  0.1796
 4765TIP3    H135930   0.577   4.084   1.547 -1.2050  1.8047 -0.2871
 4765TIP3    H235931   0.622   4.025   1.415 -1.9143  0.5169  0.0260
 4766TIP3   OH235932   6.833   1.304   7.944 -0.1469 -0.0102 -0.3310
 4766TIP3    H135933   6.897   1.322   8.013  0.0574  1.5530 -0.9036
 4766TIP3    H235934   6.762   1.259   7.989  0.4809 -0.0212  0.6869
 4767TIP3   OH235935   0.124   6.143   2.232 -0.5029 -0.0672 -0.1585
 4767TIP3    H135936   0.123   6.047   2.239 -2.1748 -0.1376 -0.8090
 4767TIP3    H235937   0.036   6.169   2.258 -0.5996  1.1614 -1.6247
 4768TIP3   OH235938   0.986   1.387   8.140 -0.1623 -0.2915 -0.2304
 4768TIP3    H135939   0.930   1.465   8.134  0.2991  0.1029  0.4728
 4768TIP3    H235940   0.937   1.326   8.195  0.0345  0.0012  0.2729
 4769TIP3   OH235941   3.188   4.311   0.380 -0.0901  0.2979  0.0949
 4769TIP3    H135942   3.242   4.305   0.458 -1.8908 -0.0157  1.4005
 4769TIP3    H235943   3.121   4.376   0.402 -1.3762 -0.6931 -0.6599
 4770TIP3   OH235944   6.001   3.472   8.590  0.0135 -0.1400  0.7417
 4770TIP3    H135945   6.037   3.539   8.649 -1.4114 -0.8709  2.5577
 4770TIP3    H235946   5.924   3.513   8.551  0.5392  0.0928 -0.0670
 4771TIP3   OH235947   2.936   2.649   8.354 -0.4579  0.8824 -0.2320
 4771TIP3    H135948   2.971   2.717   8.410  0.5465  0.1102  0.0989
 4771TIP3    H235949   2.876   2.600   8.411 -0.5796  1.0133 -0.2480
 4772TIP3   OH235950   6.343   3.202   2.418  0.7119 -0.0209  0.6553
 4772TIP3    H135951   6.367   3.163   2.502 -1.4868 -1.6501  0.6017
 4772TIP3    H235952   6.379   3.141   2.353  0.2264 -0.1367  0.4903
 4773TIP3   OH235953   4.595   3.034   1.318 -0.3554 -0.1270  0.2496
 4773TIP3    H135954   4.566   3.028   1.227  1.0233 -2.2775 -0.1448
 4773TIP3    H235955   4.537   2.975   1.366  0.2146 -0.6108  0.3577
 4774TIP3   OH235956   6.594   4.346   1.815 -0.2678  0.0069 -0.5332
 4774TIP3    H135957   6.579   4.405   1.888 -0.1841 -1.3145  0.5961
 4774TIP3    H235958   6.680   4.307   1.832 -0.3327 -0.4544 -1.2177
 4775TIP3   OH235959   2.930   4.492   8.189 -0.4758 -0.1597  0.1532
 4775TIP3    H135960   2.856   4.500   8.129  0.5449  0.5970 -1.0625
 4775TIP3    H235961   2.891   4.496   8.277 -2.0712 -1.8980 -0.4225
 4776TIP3   OH235962   2.025   2.082   1.041  0.1322  0.1306  0.2744
 4776TIP3    H135963   1.935   2.053   1.025 -0.7964  2.9253  0.0270
 4776TIP3    H235964   2.078   2.026   0.983 -1.4730 -1.1761 -0.0064
 4777TIP3   OH235965   5.164   6.417   7.775 -0.1418 -0.0329  0.5914
 4777TIP3    H135966   5.179   6.501   7.731  0.8026  0.2529  1.4100
 4777TIP3    H235967   5.233   6.360   7.742 -0.1580 -0.1711  0.7935
 4778TIP3   OH235968   6.709   6.496   6.930  0.2658 -0.3130 -0.0953
 4778TIP3    H135969   6.664   6.446   6.998 -0.9367 -1.9672 -1.9907
 4778TIP3    H235970   6.746   6.429   6.872  1.4588  1.0384 -0.9608
 4779TIP3   OH235971   1.222   1.361   6.805  0.5849 -0.3204 -0.0487
 4779TIP3    H135972   1.140   1.408   6.814  0.4960 -0.6221  0.7340
 4779TIP3    H235973   1.272   1.412   6.741 -0.4094 -0.4263 -0.9309
 4780TIP3   OH235974   2.109   4.920   1.858 -0.0045  0.6553  0.0590
 4780TIP3    H135975   2.074   4.981   1.793 -0.6330  1.6396  1.2592
 4780TIP3    H235976   2.109   4.970   1.940  1.2472 -0.3699  0.7290
 4781TIP3   OH235977   5.339   1.461   8.037  0.6308 -0.3435  0.6828
 4781TIP3    H135978   5.288   1.387   8.004  0.9622 -0.1406 -0.3090
 4781TIP3    H235979   5.280   1.507   8.096  0.1597 -0.9395  0.6839
 4782TIP3   OH235980   2.194   2.705   1.938 -0.1141  0.0516  0.0789
 4782TIP3    H135981   2.219   2.779   1.882  0.0594  0.5823  0.8483
 4782TIP3    H235982   2.123   2.738   1.992  1.2899  0.3319  1.8651
 4783TIP3   OH235983   1.236   2.247   6.229 -0.1330 -0.1250 -0.3715
 4783TIP3    H135984   1.179   2.197   6.171 -1.6415 -0.3889  1.2740
 4783TIP3    H235985   1.266   2.321   6.175 -4.1002  1.4999 -0.6307
 4784TIP3   OH235986   2.971   0.868   8.070 -0.1553  0.0595  0.2516
 4784TIP3    H135987   2.902   0.926   8.038 -0.3719 -0.0827  0.4570
 4784TIP3    H235988   2.924   0.793   8.106  0.0077  0.8890  2.2936
 4785TIP3   OH235989   2.173   1.663   8.645  0.1008  0.6060  0.0387
 4785TIP3    H135990   2.211   1.597   8.587 -0.7143 -0.7406  0.9884
 4785TIP3    H235991   2.247   1.718   8.670  1.0190 -0.6140  0.0849
 4786TIP3   OH235992   6.057   5.553   7.384  0.0023  0.8555 -0.0402
 4786TIP3    H135993   6.141   5.514   7.362 -0.9931 -0.4064 -1.8661
 4786TIP3    H235994   5.992   5.499   7.339 -1.8132  1.7529  1.3399
 4787TIP3   OH235995   2.598   4.603   0.733 -0.2781 -0.8619  0.2202
 4787TIP3    H135996   2.572   4.630   0.645  0.6749 -0.3024  0.0869
 4787TIP3    H235997   2.533   4.644   0.791 -0.0610  0.0020 -0.1309
 4788TIP3   OH235998   6.765   5.288   7.511  0.5673  1.0392  0.7472
 4788TIP3    H135999   6.797   5.289   7.601  0.3438  0.1431  0.8528
 4788TIP3    H236000   6.720   5.372   7.501 -1.0300  0.4214  2.1033
 4789TIP3   OH236001   1.303   6.028   2.413 -0.6150  0.1103 -0.2168
 4789TIP3    H136002   1.230   5.981   2.372 -2.7223  0.3965  2.8594
 4789TIP3    H236003   1.351   5.960   2.460  0.6995  0.0634 -1.5380
 4790TIP3   OH236004   4.695   3.376   1.852  0.0992 -0.0585 -0.5455
 4790TIP3    H136005   4.649   3.422   1.782  0.4471  0.3973 -0.4791
 4790TIP3    H236006   4.780   3.420   1.857  1.1716 -1.8286 -1.7025
 4791TIP3   OH236007   2.500   0.619   6.953  0.0851 -0.1248 -0.3965
 4791TIP3    H136008   2.517   0.562   6.878 -1.1221 -1.6697  0.4438
 4791TIP3    H236009   2.532   0.569   7.028  0.3509  0.9587  0.2249
 4792TIP3   OH236010   4.725   6.518   7.092  0.1580 -0.5971 -0.4375
 4792TIP3    H136011   4.769   6.590   7.137  0.3178 -1.7415  1.3186
 4792TIP3    H236012   4.795   6.471   7.047  0.1938 -0.2616 -0.7359
 4793TIP3   OH236013   6.805   3.952   7.733  0.4000 -0.3033 -0.3056
 4793TIP3    H136014   6.769   3.918   7.815 -0.7939  0.9248 -0.2949
 4793TIP3    H236015   6.744   4.020   7.706  0.8315 -0.5910 -2.1660
 4794TIP3   OH236016   4.940   0.192   1.521 -0.1117  0.5918 -0.2383
 4794TIP3    H136017   4.993   0.156   1.592  0.8433 -1.2044 -1.7710
 4794TIP3    H236018   5.003   0.232   1.462 -0.5027 -0.6689 -1.5792
 4795TIP3   OH236019   4.769   1.975   8.175 -0.0942 -0.6957  1.2282
 4795TIP3    H136020   4.767   2.070   8.168 -0.0505 -0.6412  1.8367
 4795TIP3    H236021   4.752   1.943   8.087 -2.8217 -0.1599  1.4799
 4796TIP3   OH236022   5.506   2.898   7.649  0.3458 -0.1808  0.4690
 4796TIP3    H136023   5.426   2.911   7.598  0.3817  1.7461  0.8348
 4796TIP3    H236024   5.577   2.929   7.593  0.8421 -1.7177  0.2142
 4797TIP3   OH236025   3.326   4.548   7.437  0.3584  0.0328 -0.3164
 4797TIP3    H136026   3.354   4.513   7.521 -0.7883  0.8643  0.4437
 4797TIP3    H236027   3.251   4.494   7.412 -0.0312  0.5209 -0.2217
 4798TIP3   OH236028   6.713   0.971   0.207 -0.1265  0.0791  0.1976
 4798TIP3    H136029   6.803   0.952   0.182 -0.1885 -1.4472  1.0644
 4798TIP3    H236030   6.714   0.974   0.303 -1.1054 -0.5109  0.2396
 4799TIP3   OH236031   0.863   2.281   7.436 -0.2911  0.2846  0.7558
 4799TIP3    H136032   0.933   2.318   7.490  0.6883 -2.9443  1.9442
 4799TIP3    H236033   0.905   2.258   7.354 -0.1991 -0.6498  1.0561
 4800TIP3   OH236034   2.178   5.243   1.863  0.3754 -0.3043  0.5192
 4800TIP3    H136035   2.117   5.283   1.925  0.5625  0.3766  0.2705
 4800TIP3    H236036   2.265   5.262   1.899  0.4859  0.1571  0.0175
 4801TIP3   OH236037   3.772   0.356   2.276  0.2327 -0.1267 -0.2863
 4801TIP3    H136038   3.680   0.367   2.254  0.1898  1.2835  0.4737
 4801TIP3    H236039   3.784   0.261   2.285 -0.1773 -0.7156 -4.2702
 4802TIP3   OH236040   0.078   4.997   0.302 -0.0660 -0.3725 -0.2068
 4802TIP3    H136041   0.028   5.047   0.237 -0.9506 -0.3569  0.4686
 4802TIP3    H236042   0.054   4.906   0.285 -0.1927 -0.3792  0.0125
 4803TIP3   OH236043   0.180   3.338   0.802  0.1680 -0.3951  0.3378
 4803TIP3    H136044   0.230   3.278   0.746  2.0856  2.3948 -1.1217
 4803TIP3    H236045   0.127   3.389   0.740  0.6314  1.2473  1.2724
 4804TIP3   OH236046   6.491   3.526   7.734  0.5436 -0.1664  0.8841
 4804TIP3    H136047   6.535   3.609   7.717 -0.3381  0.2060  0.4070
 4804TIP3    H236048   6.408   3.532   7.687  0.5031 -1.3489  0.7732
 4805TIP3   OH236049   6.370   4.177   1.843  0.2025  0.3022 -0.3458
 4805TIP3    H136050   6.389   4.089   1.877  0.5119 -0.1877 -1.7075
 4805TIP3    H236051   6.455   4.213   1.820  0.3791  2.0534  2.5585
 4806TIP3   OH236052   2.199   3.038   2.152 -0.2137  0.2452  0.1885
 4806TIP3    H136053   2.189   3.111   2.213 -1.7756 -0.2096  0.5192
 4806TIP3    H236054   2.192   2.960   2.207  1.1678 -0.1704 -0.2014
 4807TIP3   OH236055   4.615   0.581   7.104  0.1261  0.1524 -0.3453
 4807TIP3    H136056   4.668   0.648   7.061 -0.4677 -0.0098 -1.3744
 4807TIP3    H236057   4.561   0.545   7.033  2.2210 -3.1994 -0.4475
 4808TIP3   OH236058   4.722   0.446   7.746 -0.4852  0.3348  0.5382
 4808TIP3    H136059   4.771   0.433   7.665 -1.1530 -0.7808  0.2903
 4808TIP3    H236060   4.713   0.541   7.754 -0.6657  0.4523 -0.8566
 4809TIP3   OH236061   0.763   1.764   0.673 -1.1294  0.1522 -0.6240
 4809TIP3    H136062   0.835   1.774   0.736 -1.5521  1.9691 -0.3622
 4809TIP3    H236063   0.730   1.853   0.661 -2.1514 -0.3940 -2.1543
 4810TIP3   OH236064   5.328   2.906   1.096  0.2784 -0.1149  0.1904
 4810TIP3    H136065   5.250   2.894   1.043 -0.3063  0.9459  0.7731
 4810TIP3    H236066   5.399   2.920   1.033 -0.2228  0.1525 -0.3153
 4811TIP3   OH236067   1.689   1.111   8.406 -0.0281  0.0046 -0.3655
 4811TIP3    H136068   1.752   1.180   8.386  0.7569 -0.8065 -0.7667
 4811TIP3    H236069   1.702   1.093   8.499 -0.1642  0.3314 -0.2837
 4812TIP3   OH236070   5.355   2.281   7.757 -0.3277  0.0791  0.5306
 4812TIP3    H136071   5.336   2.346   7.824 -1.2222  1.6284 -1.1582
 4812TIP3    H236072   5.378   2.331   7.679  1.2874 -1.6681 -0.2113
 4813TIP3   OH236073   4.215   1.072   8.233 -0.0668  0.0871 -0.2687
 4813TIP3    H136074   4.192   0.984   8.262 -0.1236 -0.1803 -1.0919
 4813TIP3    H236075   4.209   1.068   8.137  1.0842  0.6593 -0.3851
 4814TIP3   OH236076   3.366   1.190   7.595  0.2193 -0.2812  0.3273
 4814TIP3    H136077   3.299   1.124   7.612  0.2968 -0.4830 -0.1511
 4814TIP3    H236078   3.330   1.245   7.526  0.7669 -0.7172 -0.3143
 4815TIP3   OH236079   0.169   6.885   1.864  0.2278 -0.4140 -0.4713
 4815TIP3    H136080   0.241   6.937   1.827  1.7693 -0.3452  2.3434
 4815TIP3    H236081   0.130   6.942   1.931  0.7048 -2.1063  1.3402
 4816TIP3   OH236082   6.882   1.785   2.561  0.2532  0.0824 -0.1873
 4816TIP3    H136083   6.863   1.692   2.573  0.1703  0.2567  1.2074
 4816TIP3    H236084   6.852   1.826   2.642  0.1123  1.3550 -0.8691
 4817TIP3   OH236085   5.513   4.073   7.492  0.4302  0.0657 -0.5254
 4817TIP3    H136086   5.540   4.080   7.401 -1.0831 -2.1238 -1.2063
 4817TIP3    H236087   5.493   3.980   7.505 -1.1840  0.6127  1.4925
 4818TIP3   OH236088   6.780   5.538   0.424  0.5956  0.2222  0.4261
 4818TIP3    H136089   6.792   5.533   0.519 -0.8851  1.6227  0.7407
 4818TIP3    H236090   6.758   5.630   0.408  0.0620 -0.1584 -1.1801
 4819TIP3   OH236091   3.825   1.551   0.516  0.0351  0.1144 -0.6832
 4819TIP3    H136092   3.873   1.622   0.559  1.1211 -1.7820  1.4945
 4819TIP3    H236093   3.733   1.578   0.518  0.5337  1.9128 -0.9640
 4820TIP3   OH236094   3.927   3.674   7.188  0.1712  0.4359  0.3156
 4820TIP3    H136095   3.904   3.759   7.225  1.0581  0.9102 -0.1635
 4820TIP3    H236096   3.995   3.694   7.123  0.3445 -0.6328  0.1416
 4821TIP3   OH236097   6.866   5.246   0.501  0.2241 -0.8676 -0.4198
 4821TIP3    H136098   6.954   5.218   0.524  0.7010  0.1670 -0.9385
 4821TIP3    H236099   6.821   5.254   0.586  1.9871  3.0171  0.3699
 4822TIP3   OH236100   4.585   4.953   2.297 -0.0724  0.3899  0.0059
 4822TIP3    H136101   4.642   4.950   2.374  0.0863 -1.2126 -0.1520
 4822TIP3    H236102   4.644   4.944   2.222 -0.2229  1.9825 -0.3388
 4823TIP3   OH236103   5.440   0.650   2.511 -0.0842  0.1163 -0.3648
 4823TIP3    H136104   5.469   0.572   2.558 -1.1194  0.4765  0.9253
 4823TIP3    H236105   5.516   0.677   2.459  0.7778 -0.8593  0.3614
 4824TIP3   OH236106   6.594   2.711   2.079  0.1984  0.2355 -0.3878
 4824TIP3    H136107   6.557   2.657   2.149  0.9821 -0.4794 -0.5105
 4824TIP3    H236108   6.597   2.800   2.116  0.6798 -0.1478  0.5094
 4825TIP3   OH236109   2.436   4.303   2.381 -0.3233 -0.0278 -0.0980
 4825TIP3    H136110   2.401   4.349   2.305 -1.0039 -0.6549 -0.1699
 4825TIP3    H236111   2.393   4.345   2.456  0.1454  0.4106 -0.0704
 4826TIP3   OH236112   5.074   2.924   1.365 -0.6133 -0.1035 -0.3693
 4826TIP3    H136113   5.131   3.001   1.368 -1.4361  0.5025  0.6558
 4826TIP3    H236114   5.064   2.899   1.457 -1.7674 -0.3495 -0.5504
 4827TIP3   OH236115   6.492   6.300   1.980 -0.3351  0.0878 -0.3727
 4827TIP3    H136116   6.431   6.338   2.043 -0.1260  0.8517 -0.6266
 4827TIP3    H236117   6.446   6.305   1.896  0.0075  0.5069 -0.5367
 4828TIP3   OH236118   1.930   1.627   8.364  0.2457 -0.1976  0.0537
 4828TIP3    H136119   1.994   1.563   8.394  0.1666 -1.1125 -1.6090
 4828TIP3    H236120   1.845   1.584   8.374  0.2429 -0.7040 -1.7560
 4829TIP3   OH236121   6.329   6.771   7.951 -0.1356  0.3913 -0.0892
 4829TIP3    H136122   6.251   6.816   7.918  1.2127  1.8573 -1.4698
 4829TIP3    H236123   6.320   6.776   8.046 -2.3721 -0.7300 -0.1677
 4830TIP3   OH236124   1.152   5.084   0.733 -0.9023  0.0728  0.0104
 4830TIP3    H136125   1.119   5.137   0.661 -0.3509 -0.1213 -0.3889
 4830TIP3    H236126   1.220   5.138   0.773  0.2328 -0.6576 -0.9075
 4831TIP3   OH236127   0.438   4.399   0.978 -0.2406 -0.0226  0.3861
 4831TIP3    H136128   0.525   4.394   1.018 -0.7105  0.7382  1.5828
 4831TIP3    H236129   0.390   4.462   1.033 -1.5345 -0.4080 -0.2562
 4832TIP3   OH236130   3.359   1.334   0.633 -0.2476  0.2427 -0.5232
 4832TIP3    H136131   3.358   1.396   0.706  0.1486 -1.8080  1.3616
 4832TIP3    H236132   3.316   1.256   0.668 -1.9165 -0.1596 -3.2098
 4833TIP3   OH236133   2.187   2.055   8.592  0.4026  0.0812 -0.4801
 4833TIP3    H136134   2.150   2.035   8.678 -0.3103  1.9357 -0.3141
 4833TIP3    H236135   2.124   2.017   8.530  0.5038 -0.5540 -0.2057
 4834TIP3   OH236136   1.124   4.875   7.263 -0.2355 -0.2374  0.0208
 4834TIP3    H136137   1.159   4.858   7.175 -0.5994  1.5251 -0.4948
 4834TIP3    H236138   1.179   4.945   7.297 -1.9661  1.2192 -0.0376
 4835TIP3   OH236139   5.421   6.665   7.850 -0.1461 -0.4338 -0.0048
 4835TIP3    H136140   5.513   6.661   7.825  0.2003 -0.8392  1.2360
 4835TIP3    H236141   5.421   6.714   7.933 -0.8865 -1.4147  0.6068
 4836TIP3   OH236142   1.422   3.176   8.245 -0.3085  0.3511 -0.6761
 4836TIP3    H136143   1.337   3.210   8.274 -1.3553 -3.2422  1.0517
 4836TIP3    H236144   1.474   3.171   8.325 -0.3176 -2.1258 -0.7601
 4837TIP3   OH236145   5.206   6.586   1.259  0.1027 -0.1719 -0.3414
 4837TIP3    H136146   5.210   6.677   1.230  1.2904 -0.1163 -0.0751
 4837TIP3    H236147   5.113   6.569   1.273 -0.4210  0.1921 -2.8615
 4838TIP3   OH236148   3.198   6.317   0.998 -0.0926 -0.3783  0.4960
 4838TIP3    H136149   3.247   6.320   0.916 -0.2940 -1.4345  0.3167
 4838TIP3    H236150   3.249   6.258   1.054  0.0153  0.2892  1.1118
 4839TIP3   OH236151   2.519   5.039   7.748  0.0448  0.4731 -0.5381
 4839TIP3    H136152   2.460   5.110   7.725  0.5605  0.8631 -0.6785
 4839TIP3    H236153   2.463   4.963   7.758 -0.4246  0.7379 -1.1314
 4840TIP3   OH236154   5.275   1.688   7.371 -0.6793  0.4205  0.2152
 4840TIP3    H136155   5.266   1.700   7.276  0.9435  0.4483  0.0499
 4840TIP3    H236156   5.185   1.694   7.403 -1.7258 -2.7002 -1.6305
 4841TIP3   OH236157   4.155   4.806   1.961 -0.2583  0.0115  0.7213
 4841TIP3    H136158   4.235   4.756   1.944  0.1340  0.2991  1.6946
 4841TIP3    H236159   4.154   4.820   2.055 -0.3779  1.8227  0.4845
 4842TIP3   OH236160   1.399   5.535   2.160  0.4413 -0.0383 -0.4869
 4842TIP3    H136161   1.477   5.489   2.192 -0.0670 -1.2923 -0.9795
 4842TIP3    H236162   1.414   5.548   2.067  0.8299  1.3463 -0.2439
 4843TIP3   OH236163   5.489   4.921   8.199  0.4409 -0.1912  0.6187
 4843TIP3    H136164   5.563   4.897   8.143  0.0124 -0.3514  0.1105
 4843TIP3    H236165   5.529   4.945   8.283  1.0950  0.0716  0.2391
 4844TIP3   OH236166   2.636   6.890   0.210  0.0408 -0.8218 -0.4055
 4844TIP3    H136167   2.557   6.858   0.254  0.4878 -1.0451  0.2444
 4844TIP3    H236168   2.680   6.943   0.276 -0.4511  0.7905 -1.3202
 4845TIP3   OH236169   4.132   0.284   2.259  0.3217  0.3611  0.1391
 4845TIP3    H136170   4.199   0.262   2.324  0.3458  2.1151  0.7870
 4845TIP3    H236171   4.154   0.231   2.182  0.4585 -1.5704  1.4438
 4846TIP3   OH236172   4.943   0.738   2.208  0.6075 -0.1349  0.0462
 4846TIP3    H136173   4.966   0.794   2.283 -1.0395 -0.1979  0.6477
 4846TIP3    H236174   4.909   0.799   2.143 -2.9885 -0.4566  1.4080
 4847TIP3   OH236175   3.339   5.177   7.014  0.2665 -0.3466  0.7621
 4847TIP3    H136176   3.326   5.084   7.034  0.6121 -0.0806  2.3570
 4847TIP3    H236177   3.433   5.191   7.024  0.1891  0.2203  0.7282
 4848TIP3   OH236178   6.806   4.831   0.738 -0.2061 -0.0425 -0.0365
 4848TIP3    H136179   6.747   4.802   0.808  0.5375  0.8686  0.9872
 4848TIP3    H236180   6.818   4.753   0.684  1.1243 -1.5355  2.2194
 4849TIP3   OH236181   2.370   2.472   1.030 -0.1461  0.1911 -0.0190
 4849TIP3    H136182   2.283   2.454   0.996  0.2097 -0.8649 -0.4213
 4849TIP3    H236183   2.419   2.505   0.954 -0.0946  0.4310  0.1177
 4850TIP3   OH236184   6.153   4.170   1.654 -0.9050 -0.0492 -0.5951
 4850TIP3    H136185   6.234   4.144   1.698  0.1695  2.2433 -1.0603
 4850TIP3    H236186   6.164   4.140   1.564 -0.8337 -0.2528 -0.5201
 4851TIP3   OH236187   2.602   6.570   7.304  0.1769 -0.0576 -0.0093
 4851TIP3    H136188   2.551   6.489   7.299 -0.6332  0.3230  1.3898
 4851TIP3    H236189   2.538   6.638   7.325  1.0305  0.7105  0.2130
 4852TIP3   OH236190   0.407   4.965   0.930  0.0376 -0.3344  0.1439
 4852TIP3    H136191   0.348   5.003   0.994 -2.7468  0.1486 -2.4974
 4852TIP3    H236192   0.463   5.038   0.902  0.2528 -0.2055  0.8876
 4853TIP3   OH236193   4.753   0.615   7.341 -0.5336 -0.7661  0.2506
 4853TIP3    H136194   4.707   0.698   7.356 -0.6583 -0.5787 -0.9931
 4853TIP3    H236195   4.729   0.591   7.251 -1.1893 -2.6110  0.8940
 4854TIP3   OH236196   3.311   2.924   6.220  0.1383 -0.1636  0.0475
 4854TIP3    H136197   3.334   2.952   6.131 -0.2878  0.7017  0.1892
 4854TIP3    H236198   3.297   3.006   6.267 -1.8524 -0.5879  0.3142
 4855TIP3   OH236199   1.466   5.945   8.473  0.3862  0.0902 -0.0990
 4855TIP3    H136200   1.484   6.037   8.490 -2.2607  0.6488  0.1518
 4855TIP3    H236201   1.387   5.945   8.419  0.1904 -2.0377  0.0842
 4856TIP3   OH236202   6.583   4.885   7.478  0.3916 -0.3470 -0.0059
 4856TIP3    H136203   6.637   4.911   7.403  0.1052 -0.8737 -0.3941
 4856TIP3    H236204   6.525   4.959   7.493 -1.4069 -1.2706 -2.0136
 4857TIP3   OH236205   5.964   3.999   0.347 -0.3850  0.2374 -0.0483
 4857TIP3    H136206   5.994   3.908   0.344 -1.9307 -0.2709 -1.0464
 4857TIP3    H236207   5.954   4.017   0.441  0.1925 -0.5089  0.1740
 4858TIP3   OH236208   2.751   4.101   1.864 -0.4878 -0.1869  0.3724
 4858TIP3    H136209   2.697   4.137   1.934 -0.2776  0.3921  0.2441
 4858TIP3    H236210   2.809   4.039   1.908 -2.1274 -1.8461  0.3291
 4859TIP3   OH236211   2.654   6.157   0.318 -0.0247 -0.0194 -0.7101
 4859TIP3    H136212   2.694   6.153   0.231  0.1362 -0.4989 -0.6184
 4859TIP3    H236213   2.637   6.066   0.340  0.5974  0.0425  0.0600
 4860TIP3   OH236214   1.375   0.430   2.315  0.3003  0.7858  0.7294
 4860TIP3    H136215   1.413   0.344   2.293  0.6844  1.1035  0.1200
 4860TIP3    H236216   1.389   0.439   2.409  1.9659  0.9958  0.4900
 4861TIP3   OH236217   6.783   4.606   7.000  0.1285  0.0536 -0.1380
 4861TIP3    H136218   6.773   4.672   6.932  1.3881  0.2942 -0.1209
 4861TIP3    H236219   6.712   4.544   6.984 -0.6869  1.0697 -0.5446
 4862TIP3   OH236220   2.484   4.176   8.422  0.2522  0.0741  0.5764
 4862TIP3    H136221   2.468   4.090   8.383  2.7963 -0.5816  0.7836
 4862TIP3    H236222   2.483   4.160   8.517 -1.0498  0.6600  0.6724
 4863TIP3   OH236223   1.056   5.006   1.499 -0.2811  0.4940  0.1819
 4863TIP3    H136224   0.981   5.064   1.510  0.8363  1.9831  0.3627
 4863TIP3    H236225   1.057   4.951   1.577 -0.6692  1.0762  0.5992
 4864TIP3   OH236226   3.496   0.335   2.164 -0.1560 -0.4011 -0.3273
 4864TIP3    H136227   3.426   0.348   2.100  1.3220  0.4579 -1.8456
 4864TIP3    H236228   3.491   0.412   2.220 -0.1387 -0.0893 -0.7430
 4865TIP3   OH236229   0.207   0.181   6.445 -0.6110 -0.1165 -0.4752
 4865TIP3    H136230   0.115   0.166   6.468 -0.9005  3.4588  1.4075
 4865TIP3    H236231   0.204   0.208   6.353 -1.2383 -1.3443 -0.8346
 4866TIP3   OH236232   6.596   0.553   0.868 -0.4146 -0.2384 -0.2659
 4866TIP3    H136233   6.562   0.642   0.865 -2.5171 -0.9914 -0.4921
 4866TIP3    H236234   6.536   0.503   0.812 -0.2235 -2.0806  1.0892
 4867TIP3   OH236235   6.545   1.293   1.082 -0.1914 -0.1758 -0.3497
 4867TIP3    H136236   6.615   1.232   1.106 -0.6857 -0.6302 -0.0437
 4867TIP3    H236237   6.475   1.237   1.047  0.4001  0.4285 -2.7064
 4868TIP3   OH236238   6.379   1.011   0.396  0.4959 -0.6913  0.2022
 4868TIP3    H136239   6.348   1.102   0.396 -0.0444 -0.7593 -3.3388
 4868TIP3    H236240   6.460   1.014   0.447  0.3857  1.7417  0.3609
 4869TIP3   OH236241   3.534   1.923   0.309 -0.6206 -0.4083 -0.2319
 4869TIP3    H136242   3.516   1.952   0.220 -0.4016 -0.1671 -0.1998
 4869TIP3    H236243   3.629   1.930   0.318 -0.6750 -0.0957  0.1331
 4870TIP3   OH236244   0.894   4.623   6.620  0.3277  0.2654 -0.0003
 4870TIP3    H136245   0.890   4.528   6.622  1.4948  0.1739 -0.9613
 4870TIP3    H236246   0.922   4.648   6.708  1.6384 -0.4059 -0.2018
 4871TIP3   OH236247   6.484   3.395   6.983  0.5664 -0.8210 -0.2274
 4871TIP3    H136248   6.415   3.359   6.927 -0.6958  1.5691 -0.3056
 4871TIP3    H236249   6.530   3.457   6.927  0.0390  0.7299  0.9900
 4872TIP3   OH236250   6.409   1.539   7.786 -0.3210 -0.3451  0.0529
 4872TIP3    H136251   6.406   1.589   7.705 -0.1987  1.5157  1.1189
 4872TIP3    H236252   6.415   1.448   7.759  4.4689  0.3445 -2.0925
 4873TIP3   OH236253   1.379   3.279   6.853  0.0618  0.2262 -0.1697
 4873TIP3    H136254   1.361   3.370   6.831  1.0688  0.1500 -1.4439
 4873TIP3    H236255   1.333   3.229   6.786  1.2603 -0.0980 -0.7925
 4874TIP3   OH236256   5.666   6.556   2.152 -0.0901 -0.7513 -0.4464
 4874TIP3    H136257   5.701   6.478   2.109 -1.4880 -2.1822  0.9001
 4874TIP3    H236258   5.574   6.559   2.126  0.0442  0.7416 -0.8398
 4875TIP3   OH236259   0.981   2.565   0.670  0.6890 -0.0872  0.4289
 4875TIP3    H136260   1.060   2.535   0.713  0.7606  0.6009  0.7883
 4875TIP3    H236261   0.978   2.516   0.588  0.9665 -0.8249  0.8516
 4876TIP3   OH236262   5.342   4.979   2.119  0.0966  0.5177 -0.7016
 4876TIP3    H136263   5.353   5.014   2.207 -3.0350 -1.0263  0.4823
 4876TIP3    H236264   5.377   4.889   2.125  2.2319  1.2021 -1.8678
 4877TIP3   OH236265   1.222   0.439   1.178 -0.2331 -0.2191  0.4648
 4877TIP3    H136266   1.291   0.480   1.125 -1.0917  1.3015  0.4714
 4877TIP3    H236267   1.237   0.472   1.266 -2.9814  3.0572 -0.1110
 4878TIP3   OH236268   1.164   1.172   1.993 -0.2117  0.1132  0.0816
 4878TIP3    H136269   1.193   1.243   1.936 -1.7295  0.0013 -0.8857
 4878TIP3    H236270   1.075   1.198   2.019 -0.7460 -1.3527 -0.1783
 4879TIP3   OH236271   0.038   0.711   1.035 -0.2143  0.6128  0.1905
 4879TIP3    H136272   0.113   0.746   1.082  0.4053 -0.4666  0.0443
 4879TIP3    H236273   0.052   0.737   0.944 -0.0789  0.5113  0.1824
 4880TIP3   OH236274   4.482   5.305   3.291 -0.0651  0.7464  0.3863
 4880TIP3    H136275   4.478   5.396   3.263  0.8056  0.5817 -0.3038
 4880TIP3    H236276   4.566   5.297   3.336  0.9475 -0.2238 -1.5286
 4881TIP3   OH236277   1.483   6.172   2.570 -0.2319 -0.3411 -0.5221
 4881TIP3    H136278   1.409   6.144   2.516  0.9363 -2.5400 -1.1125
 4881TIP3    H236279   1.466   6.132   2.656  1.1439 -2.6009 -1.2023
 4882TIP3   OH236280   1.542   3.490   2.491 -0.4115 -0.3752 -0.7103
 4882TIP3    H136281   1.469   3.533   2.536 -1.4043 -1.1011 -1.5518
 4882TIP3    H236282   1.619   3.513   2.542 -1.1935  0.6209  0.0763
 4883TIP3   OH236283   5.236   1.917   0.253 -0.8323  0.0065  0.1833
 4883TIP3    H136284   5.301   1.906   0.183  0.7344 -0.3495  1.6273
 4883TIP3    H236285   5.181   1.989   0.224  1.2549  1.4636 -0.3625
 4884TIP3   OH236286   6.601   3.582   6.763  0.5421  0.2839  0.3903
 4884TIP3    H136287   6.691   3.607   6.785  1.3439 -0.2074 -2.0401
 4884TIP3    H236288   6.609   3.494   6.727 -0.7743  0.6181 -0.7742
 4885TIP3   OH236289   1.273   2.372   7.379  0.5066 -0.3708  0.1990
 4885TIP3    H136290   1.213   2.439   7.346 -0.3071 -1.5854 -0.9517
 4885TIP3    H236291   1.250   2.362   7.471  0.6706  0.9304  0.3979
 4886TIP3   OH236292   1.824   6.214   2.525 -0.0078  0.0943 -0.2632
 4886TIP3    H136293   1.846   6.153   2.595 -0.0336  1.0098  0.5556
 4886TIP3    H236294   1.895   6.204   2.461  1.1296  0.7484  0.8710
 4887TIP3   OH236295   3.554   4.900   0.059 -0.8924 -0.0837 -0.1050
 4887TIP3    H136296   3.522   4.946  -0.019 -0.3527 -0.8413 -0.7901
 4887TIP3    H236297   3.626   4.955   0.091 -1.1263  0.2389 -0.1171
 4888TIP3   OH236298   0.540   5.887   8.588  1.1011 -0.0288 -0.1515
 4888TIP3    H136299   0.588   5.804   8.592  0.0610 -0.6057  0.8094
 4888TIP3    H236300   0.600   5.951   8.625  0.7266 -0.9718  2.2530
 4889TIP3   OH236301   1.956   2.555   0.333 -0.5358  0.0298  0.6177
 4889TIP3    H136302   1.911   2.471   0.346  1.9459 -1.2355  1.6318
 4889TIP3    H236303   1.887   2.614   0.301 -1.8714 -3.0346 -2.9061
 4890TIP3   OH236304   1.200   0.625   2.248  0.8867  0.9916 -0.2466
 4890TIP3    H136305   1.226   0.698   2.304 -0.0928 -0.7939  2.8020
 4890TIP3    H236306   1.252   0.551   2.280 -1.8524 -0.7906  0.4520
 4891TIP3   OH236307   2.223   6.070   2.642 -0.0577 -0.1091  0.4381
 4891TIP3    H136308   2.222   5.992   2.587  0.0771  0.3362 -0.2144
 4891TIP3    H236309   2.307   6.112   2.622  0.4844 -0.5040  1.8074
 4892TIP3   OH236310   5.061   3.814   1.359 -0.6804  0.1464  0.6601
 4892TIP3    H136311   5.066   3.793   1.452 -1.7522 -0.0372  0.6840
 4892TIP3    H236312   5.105   3.898   1.351  0.0079 -0.1472  1.2182
 4893TIP3   OH236313   4.266   6.594   7.753 -0.1331 -0.2058  0.0294
 4893TIP3    H136314   4.312   6.536   7.814  0.7643  0.6130  0.1610
 4893TIP3    H236315   4.300   6.681   7.774  0.5650  0.0355 -1.9557
 4894TIP3   OH236316   4.672   1.992   1.366  0.0721  0.6108  0.2843
 4894TIP3    H136317   4.637   1.913   1.325  0.9037  0.0980  0.5209
 4894TIP3    H236318   4.740   1.959   1.425 -0.4845  1.3986  1.3977
 4895TIP3   OH236319   0.253   2.518   8.040 -0.0580 -0.1937  0.1394
 4895TIP3    H136320   0.183   2.582   8.050 -0.5098 -0.7343  0.5062
 4895TIP3    H236321   0.209   2.438   8.013  0.3506 -0.6789  0.8769
 4896TIP3   OH236322   6.323   0.427   0.796 -0.0526 -0.1483  0.0201
 4896TIP3    H136323   6.330   0.435   0.701  3.1243 -0.8518  0.0855
 4896TIP3    H236324   6.341   0.334   0.813  0.6883  0.2181  1.3435
 4897TIP3   OH236325   6.899   1.083   0.701  0.2428  0.0324 -0.3318
 4897TIP3    H136326   6.884   1.055   0.610  1.2127  0.4274 -0.6237
 4897TIP3    H236327   6.952   1.162   0.694  1.9238 -0.9389  0.5998
 4898TIP3   OH236328   5.688   2.084   6.781  0.4486  0.3792  0.6242
 4898TIP3    H136329   5.732   2.168   6.794 -1.1613  1.0566  2.2155
 4898TIP3    H236330   5.598   2.100   6.808 -0.1056 -1.6630  0.1712
 4899TIP3   OH236331   3.309   1.900   8.238 -0.1502 -0.1829  0.2332
 4899TIP3    H136332   3.277   1.945   8.316  1.5877 -1.7646  1.9883
 4899TIP3    H236333   3.387   1.948   8.213  0.6730 -1.0665  1.0069
 4900TIP3   OH236334   4.564   4.563   1.592 -0.3812 -0.3420  0.2259
 4900TIP3    H136335   4.606   4.477   1.598  0.5560  0.1768  1.2982
 4900TIP3    H236336   4.592   4.609   1.671  0.4093  1.5332 -1.0940
 4901TIP3   OH236337   0.680   4.410   8.383 -0.3067 -0.3881  1.3523
 4901TIP3    H136338   0.611   4.475   8.368 -0.3886 -0.2697  2.1665
 4901TIP3    H236339   0.633   4.330   8.408 -0.3040 -1.3192 -1.3088
 4902TIP3   OH236340   4.967   4.432   7.210 -0.0626 -0.1950  0.0671
 4902TIP3    H136341   4.983   4.504   7.271  2.2992 -1.3299  0.8909
 4902TIP3    H236342   4.995   4.354   7.257 -2.4199 -1.7047 -0.8515
 4903TIP3   OH236343   5.840   5.840   7.330  0.2625 -0.4611  0.0728
 4903TIP3    H136344   5.901   5.815   7.259  0.3742  0.4145 -0.1440
 4903TIP3    H236345   5.776   5.769   7.331  0.1298 -0.3814 -1.0631
 4904TIP3   OH236346   6.384   6.569   7.595  0.4374  0.1654 -0.4132
 4904TIP3    H136347   6.406   6.524   7.677  2.1543  0.1198 -0.8825
 4904TIP3    H236348   6.289   6.582   7.601  0.6532  1.1664  2.0893
 4905TIP3   OH236349   2.838   4.340   8.598 -0.0139  0.7285 -0.4000
 4905TIP3    H136350   2.808   4.397   8.527  3.1315  1.1709 -1.4939
 4905TIP3    H236351   2.919   4.380   8.629  1.6333 -2.4054 -0.2911
 4906TIP3   OH236352   5.968   2.498   1.526  0.0707  0.7477  0.1826
 4906TIP3    H136353   6.051   2.510   1.572 -0.2799  0.9723  0.7651
 4906TIP3    H236354   5.968   2.567   1.460  0.4785  0.5595 -0.0195
 4907TIP3   OH236355   3.666   2.918   2.385 -0.2331  0.4423  0.0293
 4907TIP3    H136356   3.636   2.947   2.299  2.3561  0.2737 -1.0057
 4907TIP3    H236357   3.740   2.861   2.367 -0.1618 -0.3049  2.3605
 4908TIP3   OH236358   1.186   1.681   6.383 -0.0933 -0.2934  0.4351
 4908TIP3    H136359   1.272   1.653   6.415 -0.8183 -0.2863  2.5489
 4908TIP3    H236360   1.187   1.777   6.391 -0.3319 -0.3001  0.5590
 4909TIP3   OH236361   2.494   6.319   6.784 -0.4030 -0.0921 -0.1826
 4909TIP3    H136362   2.560   6.273   6.731 -1.4537  0.1463 -1.7365
 4909TIP3    H236363   2.500   6.276   6.870  0.7361 -1.0812 -0.7120
 4910TIP3   OH236364   3.105   4.383   8.005  0.2419 -0.0752  0.3832
 4910TIP3    H136365   3.154   4.309   8.040 -0.3117 -0.6186  0.0260
 4910TIP3    H236366   3.019   4.378   8.047  0.0836  0.1566  0.0959
 4911TIP3   OH236367   0.604   6.199   1.967  0.2992 -0.5824  0.1151
 4911TIP3    H136368   0.549   6.259   2.018 -0.1029 -0.3821 -0.5391
 4911TIP3    H236369   0.551   6.178   1.890  1.2699 -0.1205 -0.6976
 4912TIP3   OH236370   4.631   6.164   1.970  0.2542  0.3196 -0.1137
 4912TIP3    H136371   4.548   6.189   1.928 -0.3755 -0.4661  0.6463
 4912TIP3    H236372   4.618   6.073   1.996  0.9895  0.5096  0.9333
 4913TIP3   OH236373   5.776   6.272   1.728 -0.6252 -0.8009  0.3762
 4913TIP3    H136374   5.811   6.262   1.640 -0.8091  0.6516  0.1024
 4913TIP3    H236375   5.684   6.248   1.720 -1.0844  1.0035 -0.2735
 4914TIP3   OH236376   3.473   3.741   7.089 -0.1708  0.1574 -0.7279
 4914TIP3    H136377   3.492   3.651   7.062  1.3004  0.0692  0.4970
 4914TIP3    H236378   3.405   3.770   7.027  0.6652 -1.1441 -2.3563
 4915TIP3   OH236379   6.596   6.667   1.879  0.5190 -0.6341 -0.1094
 4915TIP3    H136380   6.672   6.693   1.827 -0.0646  0.3832 -0.4560
 4915TIP3    H236381   6.532   6.637   1.815  0.5782 -1.4063  0.1792
 4916TIP3   OH236382   6.190   0.215   7.277 -0.4493  0.0372 -0.1267
 4916TIP3    H136383   6.236   0.232   7.359 -0.7563  2.2375 -0.3456
 4916TIP3    H236384   6.162   0.124   7.283  0.9461 -0.3251  1.4845
 4917TIP3   OH236385   5.103   5.640   7.517 -0.4586 -0.6734 -0.2249
 4917TIP3    H136386   5.021   5.646   7.468 -0.3339  0.3877 -0.3300
 4917TIP3    H236387   5.141   5.556   7.491  0.4024  0.5273 -3.2856
 4918TIP3   OH236388   3.480   6.606   6.536 -0.6574 -0.0491 -0.1659
 4918TIP3    H136389   3.456   6.556   6.457  0.7685  0.6338 -1.0661
 4918TIP3    H236390   3.399   6.609   6.587 -1.1594 -2.0338 -0.7498
 4919TIP3   OH236391   6.731   5.351   1.441 -0.1049  0.1778 -0.2522
 4919TIP3    H136392   6.787   5.357   1.364  1.0573 -0.8137  0.4719
 4919TIP3    H236393   6.755   5.267   1.481  0.2200  1.2117  1.8429
 4920TIP3   OH236394   0.477   6.579   1.633 -0.1142 -0.4936  0.7907
 4920TIP3    H136395   0.452   6.535   1.714 -0.5935  0.6958  1.3215
 4920TIP3    H236396   0.525   6.657   1.663  1.3408 -0.9880 -0.1232
 4921TIP3   OH236397   0.615   1.289   0.494  0.6254  0.0337 -0.1936
 4921TIP3    H136398   0.592   1.256   0.408 -0.7132 -1.1041  0.5616
 4921TIP3    H236399   0.660   1.217   0.537 -3.8227 -1.7718  2.0963
 4922TIP3   OH236400   5.319   2.230   0.361 -0.6915  0.2259  0.1893
 4922TIP3    H136401   5.356   2.200   0.444 -0.3831  1.2832  0.4419
 4922TIP3    H236402   5.387   2.213   0.296  0.2344  2.0146  0.6269
 4923TIP3   OH236403   3.400   1.706   1.392 -0.0074  0.0755 -0.9453
 4923TIP3    H136404   3.420   1.741   1.479 -0.4635  0.1305 -0.8610
 4923TIP3    H236405   3.454   1.627   1.386 -1.9657 -1.5028  0.5141
 4924TIP3   OH236406   5.279   2.424   0.902  0.3803 -0.3986 -0.2757
 4924TIP3    H136407   5.310   2.380   0.823  0.0153 -0.8063 -0.1974
 4924TIP3    H236408   5.184   2.414   0.900  0.3200  0.1015 -0.0842
 4925TIP3   OH236409   3.696   0.743   0.802  0.2818  0.1049 -0.3845
 4925TIP3    H136410   3.730   0.663   0.842  0.6068 -0.5367 -1.8870
 4925TIP3    H236411   3.606   0.749   0.834  1.1528  0.8690  2.2201
 4926TIP3   OH236412   0.832   3.505   8.099  0.2942  0.2302  0.2685
 4926TIP3    H136413   0.848   3.474   8.188  0.9845  0.4004  0.2114
 4926TIP3    H236414   0.756   3.455   8.069 -1.3522  1.7140  1.7128
 4927TIP3   OH236415   5.713   1.429   0.298  0.7579  0.4153  0.2475
 4927TIP3    H136416   5.656   1.355   0.277 -0.4247  1.3476  0.0422
 4927TIP3    H236417   5.788   1.419   0.240  0.6015 -0.6071  0.2086
 4928TIP3   OH236418   2.995   2.251   1.251  0.3782 -0.2719  0.4857
 4928TIP3    H136419   3.063   2.316   1.264  0.4000 -0.1068 -0.3850
 4928TIP3    H236420   3.043   2.168   1.239  0.3752 -0.3511  1.0216
 4929TIP3   OH236421   0.541   6.877   2.013  0.4128  0.1899 -0.4058
 4929TIP3    H136422   0.478   6.814   2.049  0.2696  0.2753 -0.5073
 4929TIP3    H236423   0.625   6.850   2.051  0.3003  0.1404 -0.1847
 4930TIP3   OH236424   1.491   6.628   7.792 -0.4640  0.1852  0.2248
 4930TIP3    H136425   1.459   6.559   7.851 -1.0248  0.5966  0.4239
 4930TIP3    H236426   1.502   6.704   7.850  2.7904 -0.4137  0.5626
 4931TIP3   OH236427   5.555   1.432   7.805  0.1097 -0.1903 -0.2146
 4931TIP3    H136428   5.581   1.386   7.725 -0.7781 -1.5757  0.2713
 4931TIP3    H236429   5.594   1.381   7.876 -0.6117 -0.0010  0.3239
 4932TIP3   OH236430   6.133   0.899   0.198 -0.0126  0.6725 -0.1616
 4932TIP3    H136431   6.045   0.924   0.225 -0.1718  0.4569 -0.4712
 4932TIP3    H236432   6.189   0.923   0.271 -0.4692 -0.1399  0.4673
 4933TIP3   OH236433   2.310   5.474   2.141 -0.0295  0.2594 -0.1893
 4933TIP3    H136434   2.250   5.420   2.192  0.2604  0.9310  0.8740
 4933TIP3    H236435   2.358   5.411   2.087 -0.4350 -0.4467  0.2586
 4934TIP3   OH236436   3.308   0.933   0.895  0.1318  0.3251 -0.2437
 4934TIP3    H136437   3.369   0.987   0.946 -0.1647 -0.4456  0.9393
 4934TIP3    H236438   3.353   0.850   0.884 -0.4316 -0.0216  0.0523
 4935TIP3   OH236439   3.075   4.041   8.659  0.5021  0.4540 -0.3474
 4935TIP3    H136440   2.986   4.026   8.627  0.2863 -0.6839  0.7356
 4935TIP3    H236441   3.068   4.036   8.754  1.7102  0.4107 -0.2449
 4936TIP3   OH236442   1.228   0.308   8.324  0.1286 -0.3123  0.3261
 4936TIP3    H136443   1.182   0.373   8.377 -1.6252 -2.3365  1.4488
 4936TIP3    H236444   1.245   0.236   8.384  0.0133 -1.8013 -1.3361
 4937TIP3   OH236445   4.564   5.276   8.370  0.0582 -0.3271  0.6491
 4937TIP3    H136446   4.627   5.331   8.323  0.1526  0.1510  1.3201
 4937TIP3    H236447   4.612   5.246   8.447 -1.4341  2.7577  3.0237
 4938TIP3   OH236448   6.323   6.749   0.793 -0.0385  0.4516  0.6220
 4938TIP3    H136449   6.390   6.787   0.737  0.0625  1.5801  1.4784
 4938TIP3    H236450   6.305   6.663   0.754  0.3720  1.0012 -0.8280
 4939TIP3   OH236451   4.893   2.936   1.128 -0.4658  0.0268 -0.3814
 4939TIP3    H136452   4.934   2.939   1.214  2.9288  1.2446 -1.8863
 4939TIP3    H236453   4.847   3.020   1.120  2.0968  1.4717 -0.9407
 4940TIP3   OH236454   1.117   1.500   6.129 -0.0687 -0.3226 -0.0687
 4940TIP3    H136455   1.147   1.550   6.204 -0.5579 -1.6962  1.0996
 4940TIP3    H236456   1.078   1.564   6.070 -3.1045  0.4420  2.5468
 4941TIP3   OH236457   6.716   5.607   2.647 -0.4533  0.7439  0.3568
 4941TIP3    H136458   6.796   5.556   2.657  0.5997  2.0729 -0.9229
 4941TIP3    H236459   6.703   5.649   2.732  0.3266  0.6816  0.5070
 4942TIP3   OH236460   4.394   4.925   8.037 -0.6906 -0.2713 -0.4025
 4942TIP3    H136461   4.439   4.898   8.117  0.3821  0.1641 -0.8529
 4942TIP3    H236462   4.301   4.915   8.058 -0.4114 -3.6166 -0.3010
 4943TIP3   OH236463   5.342   3.298   6.686  0.7889 -0.3125  0.0659
 4943TIP3    H136464   5.284   3.310   6.761 -0.1695 -1.2959 -0.4886
 4943TIP3    H236465   5.283   3.284   6.612  1.6706 -2.6755 -0.2865
 4944TIP3   OH236466   3.824   0.658   0.111 -0.2634 -0.0188 -0.1185
 4944TIP3    H136467   3.834   0.738   0.162 -0.5366 -0.5676  0.8287
 4944TIP3    H236468   3.736   0.663   0.075 -0.7161 -0.4013  0.8860
 4945TIP3   OH236469   2.419   0.733   1.887 -0.2894 -0.0872  0.0737
 4945TIP3    H136470   2.512   0.723   1.906 -0.2605  2.4846  1.6984
 4945TIP3    H236471   2.378   0.654   1.924  1.1720 -1.2014 -0.5900
 4946TIP3   OH236472   6.029   0.317   7.792 -0.2751  0.0008 -0.2320
 4946TIP3    H136473   6.060   0.387   7.848 -2.0769  0.7204 -0.0525
 4946TIP3    H236474   6.107   0.284   7.748  0.9230  0.5546  1.4194
 4947TIP3   OH236475   0.834   0.143   7.276 -0.1254 -0.5639  0.1391
 4947TIP3    H136476   0.866   0.179   7.359 -1.5601  0.2817  0.3524
 4947TIP3    H236477   0.822   0.219   7.220 -1.5015 -0.8601 -0.0083
 4948TIP3   OH236478   6.294   3.320   1.249 -0.1214  0.3362 -0.1263
 4948TIP3    H136479   6.198   3.326   1.246 -0.0551  2.7120  0.3560
 4948TIP3    H236480   6.311   3.235   1.288 -1.8940 -2.0221 -3.9457
 4949TIP3   OH236481   2.729   2.215   1.253  0.1455 -0.2463 -0.1009
 4949TIP3    H136482   2.824   2.225   1.252 -0.0731  2.5013 -0.9287
 4949TIP3    H236483   2.712   2.152   1.323  2.5783 -1.4168 -0.4669
 4950TIP3   OH236484   5.365   2.816   7.155  0.0025  0.0151  0.0526
 4950TIP3    H136485   5.372   2.898   7.105  0.2019  0.5718  0.9609
 4950TIP3    H236486   5.280   2.822   7.199 -0.5753 -0.8813 -0.8957
 4951TIP3   OH236487   4.031   3.209   2.881 -0.3024  0.2161 -0.5437
 4951TIP3    H136488   4.108   3.262   2.861  0.0727  1.0679  2.5522
 4951TIP3    H236489   4.066   3.131   2.925 -1.1356  0.5382  0.7613
 4952TIP3   OH236490   5.569   2.872   0.264 -0.2789  0.3212 -0.2008
 4952TIP3    H136491   5.636   2.917   0.315  0.3747  0.3242 -1.0481
 4952TIP3    H236492   5.493   2.869   0.322  0.4236  0.3823  0.7432
 4953TIP3   OH236493   4.561   0.603   2.690 -0.7765 -0.4487  0.2381
 4953TIP3    H136494   4.547   0.508   2.687  1.1321 -0.7950  1.0625
 4953TIP3    H236495   4.528   0.635   2.606 -0.2833 -2.0037 -0.5790
 4954TIP3   OH236496   5.490   4.274   0.099  0.2747 -0.3241 -0.5428
 4954TIP3    H136497   5.430   4.328   0.048  1.2644 -0.6447 -2.1158
 4954TIP3    H236498   5.575   4.317   0.088  1.2307 -2.4970 -2.4314
 4955TIP3   OH236499   0.675   0.408   1.773  0.0536  0.3390 -0.3236
 4955TIP3    H136500   0.737   0.344   1.810  1.4871  1.9089  0.1342
 4955TIP3    H236501   0.718   0.493   1.786 -1.7710  1.4100 -0.9313
 4956TIP3   OH236502   1.228   6.208   1.016 -0.6529 -0.7182 -0.6950
 4956TIP3    H136503   1.256   6.278   0.957 -0.9294  0.0917  0.1035
 4956TIP3    H236504   1.308   6.182   1.062 -1.0627  1.4869  1.4738
 4957TIP3   OH236505   2.353   4.005   8.164  0.1379  0.2787  0.2793
 4957TIP3    H136506   2.389   4.092   8.182  1.0029  0.0631 -0.3219
 4957TIP3    H236507   2.325   3.972   8.249 -0.4002  1.2259  0.4841
 4958TIP3   OH236508   6.737   0.421   1.411 -0.5710 -0.0862  0.3239
 4958TIP3    H136509   6.678   0.418   1.336 -0.5356 -1.3424  0.3277
 4958TIP3    H236510   6.823   0.399   1.376 -0.8849 -2.7307  0.9945
 4959TIP3   OH236511   3.187   1.217   6.951 -0.0524 -0.4461  0.2987
 4959TIP3    H136512   3.211   1.184   7.037 -0.6929 -1.6868  0.0191
 4959TIP3    H236513   3.202   1.144   6.891  0.9269  0.5716 -0.7603
 4960TIP3   OH236514   0.333   1.478   0.484 -0.2789  0.0746 -0.5114
 4960TIP3    H136515   0.369   1.555   0.440  0.6731 -0.4916 -0.7741
 4960TIP3    H236516   0.405   1.415   0.483 -0.3905 -0.1441  1.4158
 4961TIP3   OH236517   6.475   3.587   1.123 -0.0771 -0.1430 -1.4880
 4961TIP3    H136518   6.556   3.558   1.166 -0.9935 -0.1710  0.2993
 4961TIP3    H236519   6.408   3.578   1.190 -1.5588  0.0356 -2.8855
 4962TIP3   OH236520   6.224   5.348   1.136 -0.0282 -0.2908 -0.0154
 4962TIP3    H136521   6.174   5.358   1.217  0.8758  0.9627  0.4172
 4962TIP3    H236522   6.198   5.261   1.102 -0.7717 -0.6270  1.3476
 4963TIP3   OH236523   4.402   3.436   7.766  0.1770  0.0132 -0.3645
 4963TIP3    H136524   4.460   3.467   7.836 -0.3242  3.1101 -1.1654
 4963TIP3    H236525   4.446   3.358   7.731  1.7947 -0.0394  1.6024
 4964TIP3   OH236526   4.763   6.805   0.779 -0.0596  0.2709  0.6561
 4964TIP3    H136527   4.675   6.786   0.747  0.3274 -0.3978 -0.0424
 4964TIP3    H236528   4.781   6.894   0.747  0.5722 -0.6222 -1.6493
 4965TIP3   OH236529   2.178   6.705   8.180 -0.1121  0.1277 -0.3462
 4965TIP3    H136530   2.149   6.673   8.265  0.8030  0.3003  0.0427
 4965TIP3    H236531   2.165   6.800   8.184 -0.8766  0.0552 -0.7352
 4966TIP3   OH236532   0.318   5.209   0.487  0.3580  0.2109  0.5448
 4966TIP3    H136533   0.297   5.292   0.530 -0.5975  0.0299  0.4468
 4966TIP3    H236534   0.377   5.165   0.548  1.5904  1.3354  0.1864
 4967TIP3   OH236535   2.974   2.399   7.299 -0.0974  0.2831 -0.6806
 4967TIP3    H136536   2.985   2.432   7.389 -0.6929  0.4147 -0.6486
 4967TIP3    H236537   2.884   2.422   7.277 -0.3027 -0.6963 -0.9223
 4968TIP3   OH236538   4.279   4.235   2.730  0.2030 -0.0165 -0.0828
 4968TIP3    H136539   4.320   4.207   2.812  1.5361 -1.3576 -1.1486
 4968TIP3    H236540   4.265   4.329   2.742  1.3726  0.0340  1.2789
 4969TIP3   OH236541   0.006   3.381   1.719 -0.0444 -0.1993 -0.0488
 4969TIP3    H136542   0.085   3.333   1.741 -0.0901 -0.6757 -0.8775
 4969TIP3    H236543  -0.045   3.383   1.801  0.6894 -0.1247  0.4118
 4970TIP3   OH236544   0.458   4.537   2.277  0.1945  0.0188 -0.2087
 4970TIP3    H136545   0.413   4.622   2.284  2.3341  1.1347  0.7743
 4970TIP3    H236546   0.508   4.530   2.358  2.5494 -0.6960 -1.6406
 4971TIP3   OH236547   4.529   1.742   0.809 -0.3446 -0.2205 -0.0609
 4971TIP3    H136548   4.587   1.767   0.881  1.8924 -0.4445 -1.7040
 4971TIP3    H236549   4.489   1.825   0.781 -2.5451 -0.3099  2.3571
 4972TIP3   OH236550   0.103   1.167   7.159 -0.1163 -0.2501 -0.2639
 4972TIP3    H136551   0.017   1.159   7.200 -0.5609  0.9742 -0.9015
 4972TIP3    H236552   0.091   1.129   7.072 -0.7536  2.0984 -1.2879
 4973TIP3   OH236553   0.275   5.820   1.134 -0.3449 -0.1025 -0.2116
 4973TIP3    H136554   0.268   5.903   1.087 -0.8348  1.1116  1.8736
 4973TIP3    H236555   0.245   5.840   1.222  0.6721 -2.2310  0.6898
 4974TIP3   OH236556   5.373   1.456   6.858  0.2599  0.3469 -0.2703
 4974TIP3    H136557   5.321   1.388   6.902 -1.0822  1.8975  0.6468
 4974TIP3    H236558   5.456   1.457   6.906 -0.7488  1.2031  1.5622
 4975TIP3   OH236559   0.404   0.291   0.186 -0.3896  0.0510  0.0311
 4975TIP3    H136560   0.467   0.225   0.217 -2.0733 -1.5326  0.2370
 4975TIP3    H236561   0.435   0.373   0.225  0.1023 -1.1245  2.3052
 4976TIP3   OH236562   1.313   4.253   6.498  0.2406  0.1043 -0.2571
 4976TIP3    H136563   1.224   4.216   6.498  0.9367 -1.6783 -0.7293
 4976TIP3    H236564   1.358   4.209   6.569  1.0096  0.3122 -0.6035
 4977TIP3   OH236565   1.927   4.694   8.210 -0.0240 -0.0026 -0.4067
 4977TIP3    H136566   1.861   4.631   8.241 -1.1940  1.2605 -0.2727
 4977TIP3    H236567   2.010   4.658   8.243 -0.7610 -0.9981  0.4617
 4978TIP3   OH236568   4.921   4.333   8.053  0.1001  0.3320 -0.5916
 4978TIP3    H136569   4.959   4.337   8.141 -1.8644 -1.6116  0.4498
 4978TIP3    H236570   4.989   4.292   8.000 -0.0321 -2.1588  0.9873
 4979TIP3   OH236571   2.743   3.085   7.242 -0.2837 -0.0509 -0.5694
 4979TIP3    H136572   2.765   3.066   7.150  2.6956 -0.8185  0.1991
 4979TIP3    H236573   2.686   3.161   7.237  2.1037  1.7979 -3.0006
 4980TIP3   OH236574   4.550   6.184   0.259 -0.2445 -0.0136 -0.1217
 4980TIP3    H136575   4.619   6.176   0.193 -1.8323 -1.0322 -1.7302
 4980TIP3    H236576   4.468   6.175   0.210 -1.5795  1.8020  1.6271
 4981TIP3   OH236577   5.943   0.324   7.204 -0.0984  0.4049 -0.0487
 4981TIP3    H136578   6.037   0.315   7.220 -0.2286  0.8253  0.9743
 4981TIP3    H236579   5.901   0.265   7.267 -0.5365  0.4816 -0.2611
 4982TIP3   OH236580   1.085   5.868   1.680 -0.0288 -0.3083 -0.1896
 4982TIP3    H136581   0.998   5.866   1.640 -0.1670 -0.8862  0.1335
 4982TIP3    H236582   1.076   5.818   1.761 -0.1806  2.1717  1.4596
 4983TIP3   OH236583   6.882   4.037   8.430  0.0123 -0.9425  0.5538
 4983TIP3    H136584   6.974   4.030   8.403 -0.1677  0.6512 -0.6132
 4983TIP3    H236585   6.839   3.964   8.386  0.5361 -1.0430  0.1915
 4984TIP3   OH236586   5.184   0.499   7.991 -0.1732 -0.0753  0.4074
 4984TIP3    H136587   5.231   0.577   8.023 -1.0946 -0.4525  2.9432
 4984TIP3    H236588   5.254   0.439   7.965  0.7259  0.2663  1.8505
 4985TIP3   OH236589   2.348   4.131   2.066 -0.1191 -0.0386  0.4527
 4985TIP3    H136590   2.356   4.082   1.985 -2.0923  0.0060  0.1818
 4985TIP3    H236591   2.258   4.117   2.094  0.5140 -0.1062  2.6886
 4986TIP3   OH236592   3.291   2.788   6.457  0.0257 -0.8418  0.7097
 4986TIP3    H136593   3.381   2.786   6.425  0.0341  1.0795  0.4875
 4986TIP3    H236594   3.239   2.815   6.381 -0.6858 -1.5404  0.9382
 4987TIP3   OH236595   6.494   3.129   1.401 -0.3243  0.1840 -0.1466
 4987TIP3    H136596   6.506   3.062   1.334  0.1825 -1.2137  1.2726
 4987TIP3    H236597   6.406   3.113   1.436 -0.6554  1.0141 -0.5733
 4988TIP3   OH236598   1.631   3.831   0.882  0.4665 -0.0459 -0.1802
 4988TIP3    H136599   1.723   3.848   0.865  0.1492  0.9450 -1.0047
 4988TIP3    H236600   1.603   3.902   0.940  0.2964 -0.5403  0.3593
 4989TIP3   OH236601   1.402   0.951   7.609  0.1716  0.6358  0.4283
 4989TIP3    H136602   1.469   0.941   7.676  0.6619  0.8687 -0.0217
 4989TIP3    H236603   1.362   1.036   7.628 -0.3591  0.2648  1.0116
 4990TIP3   OH236604   2.028   4.619   7.334 -0.0563 -0.0401 -0.0034
 4990TIP3    H136605   2.111   4.661   7.359  0.5044 -1.2437  0.2158
 4990TIP3    H236606   1.986   4.597   7.417 -0.5248  0.3881 -0.1169
 4991TIP3   OH236607   6.125   0.701   1.684  0.1613 -0.1090 -0.6772
 4991TIP3    H136608   6.048   0.695   1.740  1.0754 -0.8453  0.5375
 4991TIP3    H236609   6.175   0.622   1.703  1.1502  0.2824 -1.5616
 4992TIP3   OH236610   2.282   4.338   6.220 -0.3525  0.0300 -0.2072
 4992TIP3    H136611   2.285   4.243   6.227 -0.2048 -0.1582 -2.1793
 4992TIP3    H236612   2.365   4.369   6.256 -0.0214 -0.6605 -0.3729
 4993TIP3   OH236613   3.560   1.659   0.572  0.0448 -0.1659 -0.4381
 4993TIP3    H136614   3.509   1.631   0.496  3.1216 -0.3554 -2.6219
 4993TIP3    H236615   3.531   1.748   0.589 -2.5357 -0.9785 -0.0503
 4994TIP3   OH236616   2.641   3.553   8.550  0.1883  0.0929 -0.4157
 4994TIP3    H136617   2.648   3.462   8.520  0.7258  0.1577 -0.5058
 4994TIP3    H236618   2.647   3.548   8.645  1.2523  0.1079 -0.4653
 4995TIP3   OH236619   4.940   0.765   7.139  0.2978  0.1618  0.1052
 4995TIP3    H136620   4.897   0.680   7.144 -0.4660  0.5505  0.3957
 4995TIP3    H236621   5.030   0.749   7.167  0.0101 -0.4510  0.6999
 4996TIP3   OH236622   5.916   1.173   7.543  0.0091 -0.1056  0.3776
 4996TIP3    H136623   5.974   1.155   7.469  0.3878 -1.9064  1.0723
 4996TIP3    H236624   5.876   1.258   7.522  1.1938  0.1051 -1.1793
 4997TIP3   OH236625   0.170   0.462   7.515 -0.1208  1.2634  0.1594
 4997TIP3    H136626   0.167   0.434   7.607  2.4144  0.6090  0.1220
 4997TIP3    H236627   0.224   0.541   7.517  0.8910  0.6262 -0.8723
 4998TIP3   OH236628   4.301   0.262   7.788 -0.3030  0.2318  0.6309
 4998TIP3    H136629   4.312   0.196   7.856 -0.0100 -0.3502  0.0297
 4998TIP3    H236630   4.279   0.342   7.835  1.4673  0.2303  1.5222
 4999TIP3   OH236631   6.040   3.942   7.683 -0.2448 -0.0389  0.4927
 4999TIP3    H136632   6.096   4.016   7.704  0.2365  0.1607 -1.3315
 4999TIP3    H236633   6.054   3.880   7.755 -0.7332  1.6194  2.0992
 5000TIP3   OH236634   2.427   3.119   2.350  0.8560 -0.3985  0.3110
 5000TIP3    H136635   2.393   3.035   2.380  0.5984 -0.8840 -1.2305
 5000TIP3    H236636   2.520   3.104   2.334  1.1570  0.0664  1.5443
 5001TIP3   OH236637   1.830   2.624   1.135  0.4130  0.6151 -0.0621
 5001TIP3    H136638   1.792   2.674   1.208 -2.6434 -0.0034 -1.0677
 5001TIP3    H236639   1.837   2.687   1.064 -0.5886  0.3300 -0.4321
 5002TIP3   OH236640   6.047   2.351   0.841 -0.1204  0.1100  0.0280
 5002TIP3    H136641   5.957   2.366   0.815 -0.2178 -0.4485  0.0373
 5002TIP3    H236642   6.042   2.283   0.908  0.1851  1.0148  1.0058
 5003TIP3   OH236643   1.197   3.412   0.637  0.2202 -0.2752 -0.1050
 5003TIP3    H136644   1.140   3.455   0.573 -0.2022  1.1092  1.1395
 5003TIP3    H236645   1.230   3.335   0.591  1.0796  1.3801 -2.5008
 5004TIP3   OH236646   3.471   3.165   0.531 -0.2292  0.3123  0.0238
 5004TIP3    H136647   3.444   3.074   0.527 -3.4552  1.1712 -1.7244
 5004TIP3    H236648   3.502   3.185   0.443  0.0204  0.9992  0.2629
 5005TIP3   OH236649   4.819   3.785   7.525 -0.0964  0.1400 -0.6150
 5005TIP3    H136650   4.852   3.778   7.435  1.7087 -1.2995  0.0897
 5005TIP3    H236651   4.898   3.799   7.577 -0.8151 -1.5442  1.0085
 5006TIP3   OH236652   3.291   4.076   2.254  0.4949  0.3981  0.2281
 5006TIP3    H136653   3.281   3.985   2.281 -1.7239  0.9010  1.3956
 5006TIP3    H236654   3.369   4.106   2.300  0.4084 -0.5305  1.0157
 5007TIP3   OH236655   6.406   2.998   0.590 -0.0059  0.1445 -0.1666
 5007TIP3    H136656   6.370   2.974   0.504 -0.0254  1.0379 -0.4289
 5007TIP3    H236657   6.359   3.079   0.612  1.7517  1.2877 -0.4624
 5008TIP3   OH236658   2.979   6.281   0.115  0.7651 -0.3656  0.4876
 5008TIP3    H136659   2.986   6.332   0.035 -0.7450 -0.6174  0.1617
 5008TIP3    H236660   2.947   6.343   0.181  0.7543 -0.4481  0.5612
 5009TIP3   OH236661   5.097   5.062   1.660  0.3610 -0.3006 -0.4174
 5009TIP3    H136662   5.024   5.125   1.665  0.4222 -0.2137 -0.5823
 5009TIP3    H236663   5.175   5.117   1.650  0.4882 -0.3813  0.1191
 5010TIP3   OH236664   6.056   6.080   7.874 -0.2940 -0.0626 -0.7984
 5010TIP3    H136665   6.071   6.081   7.968  2.5013 -1.7033 -1.1331
 5010TIP3    H236666   5.966   6.048   7.865 -2.6093  4.7237  1.2805
 5011TIP3   OH236667   3.057   4.180   1.697 -0.7228  0.6865  0.0926
 5011TIP3    H136668   2.961   4.188   1.701 -0.7960 -0.4592  1.0588
 5011TIP3    H236669   3.074   4.086   1.700  0.4584  0.8960  0.5496
 5012TIP3   OH236670   3.972   2.942   7.955  0.1103 -0.2283  0.2417
 5012TIP3    H136671   3.986   3.002   8.028 -0.0988 -0.8361  0.7971
 5012TIP3    H236672   3.975   2.997   7.877 -1.0733  0.6548  0.7947
 5013TIP3   OH236673   5.735   3.781   1.204 -0.4498 -0.1127  0.3231
 5013TIP3    H136674   5.715   3.693   1.238  0.0654  0.1996  1.4822
 5013TIP3    H236675   5.730   3.771   1.109 -2.4050 -0.9096  0.4547
 5014TIP3   OH236676   0.179   3.150   8.415  0.1299  0.4933 -0.3421
 5014TIP3    H136677   0.266   3.143   8.376 -0.8381  0.2542 -2.6745
 5014TIP3    H236678   0.161   3.244   8.418 -0.8174  0.5105 -3.2421
 5015TIP3   OH236679   4.227   3.149   8.388 -0.1660 -0.0110 -0.0780
 5015TIP3    H136680   4.245   3.085   8.319  1.7781  0.4877 -0.1081
 5015TIP3    H236681   4.295   3.132   8.454 -0.5574  1.0274  0.6063
 5016TIP3   OH236682   3.144   2.629   7.807  0.5079 -0.0069  0.2259
 5016TIP3    H136683   3.131   2.535   7.801 -0.0166  0.0978 -0.3248
 5016TIP3    H236684   3.206   2.650   7.737  1.7583 -0.1334  1.2455
 5017TIP3   OH236685   5.821   6.765   2.158  0.2844 -0.4607  0.3661
 5017TIP3    H136686   5.861   6.778   2.244  2.6313 -2.4234 -0.2997
 5017TIP3    H236687   5.771   6.684   2.168 -0.7256  0.1452  0.2744
 5018TIP3   OH236688   1.759   4.461   6.310 -0.1535  0.5902 -0.9815
 5018TIP3    H136689   1.745   4.380   6.261 -0.1268  0.7360 -1.2296
 5018TIP3    H236690   1.727   4.530   6.253  1.2473  0.8974 -1.4288
 5019TIP3   OH236691   1.494   6.755   1.506 -0.1575  0.3428  0.0203
 5019TIP3    H136692   1.399   6.766   1.510 -0.4078 -1.1981 -0.7816
 5019TIP3    H236693   1.523   6.765   1.596 -1.0236  1.1384  0.2370
 5020TIP3   OH236694   2.425   6.728   0.738  0.1215  0.4720  0.3706
 5020TIP3    H136695   2.389   6.809   0.773  1.4874  0.7221  1.2620
 5020TIP3    H236696   2.511   6.720   0.778  0.4474 -0.8877 -0.5137
 5021TIP3   OH236697   6.053   4.246   7.491 -0.2140 -0.4715  0.0024
 5021TIP3    H136698   6.047   4.341   7.493  0.2997 -0.4404  0.7779
 5021TIP3    H236699   6.076   4.222   7.581  0.9151 -1.2238 -0.4531
 5022TIP3   OH236700   5.486   2.612   7.724 -0.3458 -0.0035  0.0265
 5022TIP3    H136701   5.579   2.627   7.708 -0.3405  1.0794  0.9565
 5022TIP3    H236702   5.443   2.651   7.648 -0.0881  0.4619  0.1140
 5023TIP3   OH236703   6.891   6.617   7.401 -0.0834 -0.0276 -0.1954
 5023TIP3    H136704   6.920   6.557   7.332  2.4640  2.6070 -1.6085
 5023TIP3    H236705   6.960   6.614   7.467 -0.8002  0.0937  0.5832
 5024TIP3   OH236706   6.502   3.599   1.945 -0.5054 -0.0590  0.0152
 5024TIP3    H136707   6.496   3.557   1.859 -1.4657  0.0267  0.0331
 5024TIP3    H236708   6.470   3.688   1.931 -0.2501  0.0902  0.3679
 5025TIP3   OH236709   2.137   0.775   0.359 -0.0634 -0.0227  0.1131
 5025TIP3    H136710   2.069   0.711   0.337 -0.1333  0.7213 -2.0027
 5025TIP3    H236711   2.137   0.777   0.455 -0.2377 -2.9640  0.2495
 5026TIP3   OH236712   4.021   1.291   0.623 -0.1617 -0.3420  0.0350
 5026TIP3    H136713   4.050   1.372   0.581  1.1588 -0.5148  0.5631
 5026TIP3    H236714   3.946   1.316   0.676  0.1481  0.5076  0.0775
 5027TIP3   OH236715   0.579   2.257   0.439  0.5387 -0.3020  0.1167
 5027TIP3    H136716   0.493   2.284   0.407  0.2663 -1.3246 -0.0442
 5027TIP3    H236717   0.571   2.163   0.453  0.5678  0.0676  3.4049
 5028TIP3   OH236718   6.392   5.828   2.800  0.0567 -1.5334 -0.0827
 5028TIP3    H136719   6.305   5.788   2.801 -1.1062  0.8508  0.5567
 5028TIP3    H236720   6.389   5.890   2.728 -0.4060  1.7370  2.5367
 5029TIP3   OH236721   1.536   1.242   1.529  0.3915 -0.2899 -0.6792
 5029TIP3    H136722   1.446   1.218   1.509  0.1747 -0.4769  0.4682
 5029TIP3    H236723   1.529   1.321   1.582  0.9237 -0.0515 -0.9562
 5030TIP3   OH236724   0.976   3.863   1.179 -0.6023  0.2315 -0.0575
 5030TIP3    H136725   1.070   3.870   1.195 -0.6175  1.7051 -0.5205
 5030TIP3    H236726   0.936   3.927   1.237 -1.2203  0.4948 -0.7536
 5031TIP3   OH236727   2.884   5.481   1.773  0.6784 -0.8427 -0.5165
 5031TIP3    H136728   2.953   5.415   1.773  0.2005 -1.4007  1.0923
 5031TIP3    H236729   2.884   5.514   1.863 -1.1753 -0.8852 -0.4709
 5032TIP3   OH236730   6.297   3.968   0.888 -0.3990  0.6516 -0.0380
 5032TIP3    H136731   6.383   3.945   0.922  0.8743  2.4345 -1.8309
 5032TIP3    H236732   6.297   3.937   0.797 -1.5163  0.9548 -0.1644
 5033TIP3   OH236733   3.916   1.335   2.461 -0.0962  0.1910  0.0519
 5033TIP3    H136734   3.840   1.390   2.441 -0.0960  0.5274  0.9405
 5033TIP3    H236735   3.991   1.383   2.426 -0.2489  0.0474 -0.4778
 5034TIP3   OH236736   2.869   1.135   7.563 -0.1306 -0.6717 -0.2078
 5034TIP3    H136737   2.885   1.062   7.622  0.8413 -0.9971 -0.8541
 5034TIP3    H236738   2.952   1.149   7.517 -0.3509  0.6939 -0.2600
 5035TIP3   OH236739   5.502   3.043   7.059 -0.3957  0.0265  0.5372
 5035TIP3    H136740   5.571   3.039   6.993 -1.4170  1.1120 -0.6549
 5035TIP3    H236741   5.421   3.054   7.009 -1.0841  2.3475  1.9752
 5036TIP3   OH236742   3.507   2.262   7.716  0.2866 -0.2918 -0.4200
 5036TIP3    H136743   3.441   2.295   7.654  0.5078 -1.2044 -1.1624
 5036TIP3    H236744   3.590   2.271   7.669  0.8503  1.6849  0.8415
 5037TIP3   OH236745   0.631   6.241   7.489  0.1824  0.4938  0.2393
 5037TIP3    H136746   0.640   6.202   7.402 -1.4746 -1.3452  0.8330
 5037TIP3    H236747   0.660   6.331   7.478  2.7596 -0.4338 -1.5479
 5038TIP3   OH236748   1.169   6.261   2.638 -0.0886  0.1578 -0.1673
 5038TIP3    H136749   1.212   6.246   2.554  1.1218  2.7114 -0.1140
 5038TIP3    H236750   1.225   6.217   2.703  1.0038  1.1792 -0.3798
 5039TIP3   OH236751   2.051   6.687   0.062 -0.3456 -0.0171 -0.2136
 5039TIP3    H136752   2.070   6.670   0.154 -0.1646 -2.4947 -0.6368
 5039TIP3    H236753   1.960   6.714   0.060 -0.6742 -1.0259  0.6162
 5040TIP3   OH236754   4.587   0.398   1.388  0.3531  0.0980  0.3570
 5040TIP3    H136755   4.675   0.423   1.417  0.9293 -1.7374  0.3114
 5040TIP3    H236756   4.601   0.340   1.313 -1.0025  1.5196 -1.0858
 5041TIP3   OH236757   3.945   2.653   8.014 -0.4045  0.3753  1.0957
 5041TIP3    H136758   3.931   2.741   7.979  0.2522 -0.4460 -1.4996
 5041TIP3    H236759   4.003   2.611   7.950 -0.2700 -1.7775  2.5273
 5042TIP3   OH236760   3.777   1.568   8.073  0.3569  0.6874 -0.6191
 5042TIP3    H136761   3.793   1.663   8.071 -1.1068  0.9550 -1.2969
 5042TIP3    H236762   3.857   1.530   8.037  1.1407  1.6323  0.0625
 5043TIP3   OH236763   3.784   4.118   0.137 -0.1771 -0.9990  0.0630
 5043TIP3    H136764   3.723   4.115   0.063  2.1370 -0.6320 -2.0065
 5043TIP3    H236765   3.800   4.211   0.151  0.6516 -1.1157 -0.0809
 5044TIP3   OH236766   5.785   0.050   1.344  0.2155  0.1687  0.1610
 5044TIP3    H136767   5.752   0.108   1.413  0.3527  0.2544  0.1537
 5044TIP3    H236768   5.813   0.109   1.274  1.5595  0.1684  0.6643
 5045TIP3   OH236769   3.418   2.249   1.518 -0.3644 -0.4395  0.4129
 5045TIP3    H136770   3.346   2.249   1.454  0.5046 -2.5011 -0.6430
 5045TIP3    H236771   3.374   2.241   1.603 -1.4299 -2.3825 -0.2573
 5046TIP3   OH236772   6.893   6.134   1.456 -0.2967 -0.0843 -0.3545
 5046TIP3    H136773   6.829   6.067   1.478  0.6175 -0.8565  0.0288
 5046TIP3    H236774   6.893   6.139   1.361 -0.3040 -0.6983 -0.3852
 5047TIP3   OH236775   2.315   1.350   1.603 -0.5744 -0.5781  0.2129
 5047TIP3    H136776   2.405   1.330   1.629 -0.0116  0.7753 -0.6045
 5047TIP3    H236777   2.319   1.437   1.564 -2.7480  0.8152  2.7255
 5048TIP3   OH236778   5.504   4.454   7.169 -0.0688 -0.5696 -0.1508
 5048TIP3    H136779   5.462   4.439   7.253  0.6965  3.0595  1.0652
 5048TIP3    H236780   5.596   4.432   7.183  0.8247  3.2742  1.2883
 5049TIP3   OH236781   3.007   0.446   7.949 -0.4803  0.0523 -0.5759
 5049TIP3    H136782   3.069   0.373   7.961 -1.9922 -0.9841  1.6326
 5049TIP3    H236783   3.017   0.471   7.857  1.2877 -1.8374 -0.9738
 5050TIP3   OH236784   1.845   4.919   7.648 -0.0371  0.4832 -0.1842
 5050TIP3    H136785   1.815   5.003   7.682 -0.2207  1.3343 -2.3306
 5050TIP3    H236786   1.791   4.903   7.572 -1.4587 -2.6590  1.3057
 5051TIP3   OH236787   3.738   0.056   2.483 -0.0997 -0.1214  0.1726
 5051TIP3    H136788   3.758   0.084   2.394 -0.9993 -3.1539 -1.1074
 5051TIP3    H236789   3.810  -0.002   2.507  0.1996  0.7580  1.5277
 5052TIP3   OH236790   6.510   6.160   8.203 -0.5545  0.3917 -0.0676
 5052TIP3    H136791   6.559   6.225   8.153 -2.3427  1.7489 -0.1522
 5052TIP3    H236792   6.428   6.149   8.155  0.2829 -3.2326 -0.9749
 5053TIP3   OH236793   4.738   0.587   0.069  0.1280 -0.1303  0.4716
 5053TIP3    H136794   4.735   0.634  -0.015  2.1538 -2.0120 -0.7653
 5053TIP3    H236795   4.775   0.651   0.130  0.6401  0.6273 -0.5905
 5054TIP3   OH236796   1.245   1.208   7.683  0.0176  0.0650  0.4211
 5054TIP3    H136797   1.300   1.286   7.678  0.1283  0.1010  1.9560
 5054TIP3    H236798   1.159   1.240   7.709 -0.1471 -0.2458  0.2701
 5055TIP3   OH236799   3.692   4.530   7.720 -0.1875  0.3800 -0.5408
 5055TIP3    H136800   3.606   4.572   7.731 -0.1245  1.0265 -2.1664
 5055TIP3    H236801   3.735   4.541   7.804 -1.2255  1.1606 -0.0840
 5056TIP3   OH236802   0.295   0.626   6.346 -0.1152  0.5008 -0.4423
 5056TIP3    H136803   0.321   0.617   6.254 -0.2789  0.2626 -0.4667
 5056TIP3    H236804   0.210   0.581   6.351  0.5040 -0.6540  0.1086
 5057TIP3   OH236805   4.636   3.623   2.419 -0.0829 -0.9260 -0.1447
 5057TIP3    H136806   4.681   3.695   2.463  0.5994 -1.3549 -0.1295
 5057TIP3    H236807   4.658   3.634   2.327 -1.3957 -0.1113 -0.3855
 5058TIP3   OH236808   6.501   1.926   0.688 -0.1973 -0.3524 -0.9286
 5058TIP3    H136809   6.588   1.966   0.694 -0.3606 -0.1843  0.5210
 5058TIP3    H236810   6.491   1.906   0.595  0.9147  0.6867 -1.3001
 5059TIP3   OH236811   5.148   5.596   8.486  0.0938 -0.3247 -0.2965
 5059TIP3    H136812   5.158   5.551   8.402 -0.7285 -1.4021  0.1673
 5059TIP3    H236813   5.235   5.591   8.526  0.0309 -1.4900 -0.2768
 5060TIP3   OH236814   6.528   3.807   7.602 -0.2361 -0.4429 -0.4247
 5060TIP3    H136815   6.482   3.883   7.566  1.1642  0.0266 -1.3278
 5060TIP3    H236816   6.534   3.746   7.529  1.1067 -0.2112 -0.5471
 5061TIP3   OH236817   5.414   3.951   1.364 -0.0852  0.5209 -0.2407
 5061TIP3    H136818   5.504   3.976   1.344  0.5351 -1.0668  0.3959
 5061TIP3    H236819   5.398   3.988   1.451 -0.5844  2.0322 -0.9405
 5062TIP3   OH236820   1.607   3.656   0.152  0.4551 -0.2260  0.3711
 5062TIP3    H136821   1.521   3.687   0.181  0.4694  0.6152 -0.4380
 5062TIP3    H236822   1.590   3.570   0.112  0.0100 -0.1022  0.2958
 5063TIP3   OH236823   4.034   4.585   0.895 -0.1438 -0.0302 -0.0157
 5063TIP3    H136824   3.942   4.612   0.893 -0.2248 -0.1573  1.1542
 5063TIP3    H236825   4.030   4.489   0.885 -0.0833  0.0334 -0.6882
 5064TIP3   OH236826   5.790   2.098   0.535 -0.7682 -0.0547  0.3996
 5064TIP3    H136827   5.796   2.056   0.621 -0.3009 -0.2075  0.2981
 5064TIP3    H236828   5.791   2.025   0.473 -0.2666  0.0822  0.2360
 5065TIP3   OH236829   2.587   5.284   0.581  0.4083 -0.4893  0.1975
 5065TIP3    H136830   2.673   5.300   0.618  0.5791 -1.0114  0.0296
 5065TIP3    H236831   2.530   5.349   0.623  0.8472 -0.2552  0.4305
 5066TIP3   OH236832   2.030   1.579   1.698 -0.2616  0.9096  0.3301
 5066TIP3    H136833   2.036   1.538   1.611 -1.9812 -0.0620  0.6108
 5066TIP3    H236834   1.946   1.549   1.732 -0.1404  2.2112  1.8753
 5067TIP3   OH236835   1.244   0.826   0.401  0.3876  0.0977  0.0503
 5067TIP3    H136836   1.234   0.862   0.489  0.6048  0.8598 -0.2315
 5067TIP3    H236837   1.324   0.866   0.367 -0.2499  0.6309 -0.8741
 5068TIP3   OH236838   1.312   5.605   0.441  0.5292 -0.2534  0.0580
 5068TIP3    H136839   1.244   5.538   0.429 -0.5481  1.0166 -1.3608
 5068TIP3    H236840   1.371   5.592   0.366  0.6563  0.0042  0.1144
 5069TIP3   OH236841   3.339   2.356   7.508  0.0476  0.5658  0.4269
 5069TIP3    H136842   3.317   2.449   7.515 -0.5100  0.4973 -0.3172
 5069TIP3    H236843   3.258   2.314   7.480  0.8638  0.1668 -1.4856
 5070TIP3   OH236844   4.763   6.440   7.505  0.0442 -0.2885  0.6775
 5070TIP3    H136845   4.855   6.435   7.481  0.2023  0.5870  1.0879
 5070TIP3    H236846   4.739   6.532   7.494 -0.7962 -0.5093  0.5279
 5071TIP3   OH236847   0.143   1.458   7.177 -0.5086 -0.3490  0.6785
 5071TIP3    H136848   0.079   1.508   7.125  1.1852  0.9738 -0.2603
 5071TIP3    H236849   0.129   1.367   7.151 -1.5104 -0.0035 -0.0661
 5072TIP3   OH236850   2.745   3.139   1.081  0.7584 -0.0695  0.2152
 5072TIP3    H136851   2.718   3.231   1.076 -0.3260 -0.3157  1.0605
 5072TIP3    H236852   2.812   3.130   1.013  2.4494  1.8630  1.5055
 5073TIP3   OH236853   0.456   6.184   1.714  0.5287 -0.4502  0.1474
 5073TIP3    H136854   0.370   6.149   1.692 -0.3489  0.7049  1.5704
 5073TIP3    H236855   0.509   6.169   1.636 -1.2826 -0.1781 -1.1896
 5074TIP3   OH236856   0.296   0.713   7.471  0.5240  0.4105  0.8102
 5074TIP3    H136857   0.385   0.743   7.492  0.4470  0.5847  0.8938
 5074TIP3    H236858   0.284   0.738   7.379  1.2925 -1.4020  0.1678
 5075TIP3   OH236859   1.450   2.965   0.778  0.4585 -0.4464 -0.1636
 5075TIP3    H136860   1.494   2.982   0.694 -0.3124 -0.3049 -0.5532
 5075TIP3    H236861   1.489   3.027   0.839  0.4269  0.0372 -0.6310
 5076TIP3   OH236862   0.929   2.723   8.333 -0.0425  0.3529 -0.3380
 5076TIP3    H136863   1.023   2.736   8.317 -0.3987  0.8995 -2.2892
 5076TIP3    H236864   0.904   2.651   8.274 -0.9287  0.5040 -0.1663
 5077TIP3   OH236865   5.098   4.816   1.290 -0.2033  0.4223 -0.2972
 5077TIP3    H136866   5.138   4.748   1.235  0.2303  0.0881  0.4147
 5077TIP3    H236867   5.016   4.777   1.321  0.1699  0.1074  0.3223
 5078TIP3   OH236868   2.677   6.639   1.321  0.2956 -0.0944 -0.3081
 5078TIP3    H136869   2.719   6.569   1.371  1.1943 -1.7091 -3.0789
 5078TIP3    H236870   2.727   6.718   1.343  2.2918 -1.2324 -0.5554
 5079TIP3   OH236871   1.519   2.947   7.033  0.0216 -0.6636 -0.4848
 5079TIP3    H136872   1.531   2.862   7.076 -0.2950 -0.6628 -0.3916
 5079TIP3    H236873   1.444   2.934   6.974 -0.0513 -0.4396 -0.4422
 5080TIP3   OH236874   0.289   1.724   7.557  0.0226  0.3576 -0.1384
 5080TIP3    H136875   0.314   1.632   7.547  0.1336  0.4482 -0.7421
 5080TIP3    H236876   0.372   1.772   7.556 -0.0373  0.4728  0.1350
 5081TIP3   OH236877   6.820   1.586   7.528  0.3688  0.2502  0.0053
 5081TIP3    H136878   6.891   1.629   7.576  0.7736 -0.5173  0.1123
 5081TIP3    H236879   6.805   1.504   7.576 -0.1632  0.1120 -0.3875
 5082TIP3   OH236880   2.472   0.282   0.362 -0.0943 -0.1523 -0.0040
 5082TIP3    H136881   2.468   0.225   0.285 -0.2399 -0.3396  0.1410
 5082TIP3    H236882   2.478   0.222   0.436 -0.0583  0.0262  0.1384
 5083TIP3   OH236883   0.366   4.940   7.891 -0.0898  0.3385 -0.8371
 5083TIP3    H136884   0.271   4.935   7.878  0.0004 -0.5084 -1.2011
 5083TIP3    H236885   0.377   4.929   7.985 -0.2922 -0.6539 -0.9180
 5084TIP3   OH236886   5.339   1.818   1.506 -0.1782  0.3136 -0.0206
 5084TIP3    H136887   5.352   1.774   1.590 -3.3689 -2.8634 -1.0010
 5084TIP3    H236888   5.327   1.910   1.530  0.7866 -0.1692  2.7614
 5085TIP3   OH236889   3.132   6.542   7.376 -0.2399 -0.3252 -0.0159
 5085TIP3    H136890   3.110   6.623   7.423  0.5881  0.5033 -1.0000
 5085TIP3    H236891   3.093   6.553   7.289  0.9995 -0.3799 -0.6009
 5086TIP3   OH236892   1.784   3.483   1.285  0.0963 -0.6067 -0.7528
 5086TIP3    H136893   1.763   3.447   1.371 -0.2976 -1.5548 -1.2393
 5086TIP3    H236894   1.810   3.574   1.303 -1.2829 -0.3797  0.2159
 5087TIP3   OH236895   3.990   2.153   8.512 -0.0180 -0.1059 -0.1635
 5087TIP3    H136896   4.025   2.239   8.488 -2.1516  0.5180 -1.2452
 5087TIP3    H236897   4.019   2.095   8.441  1.3339 -0.3157  0.5146
 5088TIP3   OH236898   0.618   6.114   0.895  0.4266  0.1897  0.0300
 5088TIP3    H136899   0.694   6.158   0.857  1.3415  0.9075  2.4830
 5088TIP3    H236900   0.550   6.182   0.897  0.4476  0.2154 -0.1072
 5089TIP3   OH236901   4.893   5.555   1.937 -0.1567 -0.5373 -0.7820
 5089TIP3    H136902   4.924   5.472   1.902 -1.7312 -0.7622 -1.7380
 5089TIP3    H236903   4.798   5.553   1.924 -0.4511  0.6363  0.8587
 5090TIP3   OH236904   4.975   5.488   0.765  0.0904 -0.2010  0.2532
 5090TIP3    H136905   5.055   5.531   0.793  0.7589 -0.6188 -0.9727
 5090TIP3    H236906   4.993   5.394   0.774 -0.3846 -0.2961  0.2734
 5091TIP3   OH236907   1.719   0.659   0.855 -0.2474  0.0071 -0.3578
 5091TIP3    H136908   1.701   0.752   0.867 -2.1090 -0.1445 -1.5627
 5091TIP3    H236909   1.689   0.640   0.766  1.8373 -1.3755 -0.8298
 5092TIP3   OH236910   0.460   2.172   8.111 -0.0214  0.8617  0.3141
 5092TIP3    H136911   0.544   2.160   8.157  0.3338  0.7390 -0.3526
 5092TIP3    H236912   0.395   2.179   8.181  0.0726 -2.3771  0.8745
 5093TIP3   OH236913   1.238   2.891   2.316  0.0129  0.5020  0.3633
 5093TIP3    H136914   1.179   2.953   2.359 -0.7333  1.7813 -2.3225
 5093TIP3    H236915   1.179   2.826   2.277  0.6930 -0.8378  1.4835
 5094TIP3   OH236916   3.348   4.837   1.617  0.4717  0.3433  0.6802
 5094TIP3    H136917   3.282   4.781   1.575 -0.9448  1.2980  1.5718
 5094TIP3    H236918   3.431   4.810   1.577 -0.6475  0.3703 -1.8281
 5095TIP3   OH236919   2.620   1.648   1.013  0.3858  0.3349  0.1357
 5095TIP3    H136920   2.542   1.611   0.971  0.5124  0.9124 -0.6415
 5095TIP3    H236921   2.682   1.575   1.018  0.4734  0.3113 -0.9683
 5096TIP3   OH236922   4.388   5.415   2.858 -0.0802  0.3890 -0.4139
 5096TIP3    H136923   4.364   5.457   2.940  0.0904  0.7914 -0.5668
 5096TIP3    H236924   4.464   5.464   2.827 -0.1171  0.2153 -0.7873
 5097TIP3   OH236925   3.058   5.336   0.432  0.2363 -0.3277  0.6489
 5097TIP3    H136926   3.008   5.259   0.456  1.1559 -0.1973  3.2898
 5097TIP3    H236927   3.147   5.304   0.419  0.1098 -0.1014 -1.1338
 5098TIP3   OH236928   4.218   6.299   0.737  0.3755  0.0287  0.0023
 5098TIP3    H136929   4.286   6.235   0.756  1.1789  0.6520 -0.6884
 5098TIP3    H236930   4.250   6.346   0.660 -0.3978  0.9615  0.2276
 5099TIP3   OH236931   0.057   4.773   8.120  0.2172 -0.7603 -0.2914
 5099TIP3    H136932   0.061   4.840   8.188  1.4622 -0.2421 -0.8477
 5099TIP3    H236933  -0.036   4.753   8.111 -0.3141  1.7101 -0.8990
 5100TIP3   OH236934   2.060   3.896   1.581 -0.4044  0.0999 -0.3206
 5100TIP3    H136935   2.044   3.802   1.590  0.7504 -0.1773 -1.0047
 5100TIP3    H236936   2.018   3.919   1.498  0.7129 -0.1596 -0.9718
 5101TIP3   OH236937   3.404   2.709   7.205 -0.2107  0.3744 -0.0655
 5101TIP3    H136938   3.448   2.656   7.272  0.7779 -0.3976 -1.2810
 5101TIP3    H236939   3.386   2.647   7.134 -1.2998  1.1659 -0.4941
 5102TIP3   OH236940   0.940   0.059   2.374  0.1563 -0.3001 -0.5577
 5102TIP3    H136941   1.022   0.059   2.424 -0.2866 -1.3031  0.2142
 5102TIP3    H236942   0.889  -0.013   2.412 -1.0604  0.2616 -1.0693
 5103TIP3   OH236943   4.571   1.264   0.097  0.1827 -0.4722 -0.0448
 5103TIP3    H136944   4.610   1.319   0.029 -0.9427  0.1268 -0.2223
 5103TIP3    H236945   4.562   1.322   0.172  2.1894 -1.3427  0.9482
 5104TIP3   OH236946   3.704   5.906   2.015  0.0972 -0.2286  0.0741
 5104TIP3    H136947   3.784   5.857   1.999  0.7653  1.0176 -0.5196
 5104TIP3    H236948   3.692   5.903   2.110 -1.3140 -3.6913 -0.0376
 5105TIP3   OH236949   6.081   4.885   0.251 -0.1657  0.2536  0.1850
 5105TIP3    H136950   6.131   4.856   0.175  0.0667  1.2405 -0.0520
 5105TIP3    H236951   5.990   4.862   0.230  0.0908 -1.0549  0.3886
 5106TIP3   OH236952   4.030   2.503   8.225 -0.3227 -0.6949 -0.6604
 5106TIP3    H136953   3.961   2.523   8.289 -0.3555  3.3713 -1.7086
 5106TIP3    H236954   3.997   2.537   8.142  2.4943  0.5945 -1.3751
 5107TIP3   OH236955   3.196   5.618   2.766 -1.1593 -0.2509 -0.3772
 5107TIP3    H136956   3.214   5.532   2.806 -0.4503  0.5293  1.0400
 5107TIP3    H236957   3.192   5.678   2.840  1.2753  1.4502 -1.5267
 5108TIP3   OH236958   5.123   5.757   2.250 -0.4756  0.2028  0.2073
 5108TIP3    H136959   5.122   5.742   2.156  0.2028 -0.5522  0.3135
 5108TIP3    H236960   5.083   5.679   2.288 -2.1456  1.1461  0.4858
 5109TIP3   OH236961   1.816   5.656   8.510 -0.4304  0.0223  0.4397
 5109TIP3    H136962   1.765   5.575   8.518 -0.1213 -0.1240  0.9872
 5109TIP3    H236963   1.779   5.714   8.577  1.1290 -0.6397  1.9604
 5110TIP3   OH236964   0.104   4.677   1.538 -0.1691  0.3392 -0.3647
 5110TIP3    H136965   0.149   4.723   1.467  0.8048  1.4176  0.9114
 5110TIP3    H236966   0.053   4.745   1.582  0.3234 -0.0306  0.7985
 5111TIP3   OH236967   2.639   6.047   2.857 -0.5637  0.7988  0.0658
 5111TIP3    H136968   2.699   6.121   2.852  1.1845 -0.5234  0.3364
 5111TIP3    H236969   2.609   6.046   2.947  0.7102  0.2554  0.5088
 5112TIP3   OH236970   2.655   6.625   8.574 -0.3883  0.4767  0.4092
 5112TIP3    H136971   2.569   6.654   8.543  0.7804  1.1298 -2.5600
 5112TIP3    H236972   2.657   6.531   8.555  0.3182  0.8727 -1.6887
 5113TIP3   OH236973   3.166   3.178   7.319  0.4361 -0.2354  0.3293
 5113TIP3    H136974   3.167   3.270   7.293 -1.0525 -0.1736  0.4468
 5113TIP3    H236975   3.181   3.130   7.237  1.6537  0.0960  0.3336
 5114TIP3   OH236976   4.316   3.933   7.775 -0.2036 -0.8112 -0.1794
 5114TIP3    H136977   4.317   4.022   7.808  1.0023 -0.2033 -1.7478
 5114TIP3    H236978   4.406   3.916   7.747 -0.5133 -2.3536 -0.3353
 5115TIP3   OH236979   3.351   6.858   1.102  0.3937 -0.4068  0.5919
 5115TIP3    H136980   3.279   6.795   1.109 -0.2988  0.1668 -0.8776
 5115TIP3    H236981   3.309   6.944   1.108  0.7977 -0.0442 -1.1011
 5116TIP3   OH236982   2.635   5.160   6.500  0.8232 -0.4799 -0.0843
 5116TIP3    H136983   2.671   5.248   6.490  0.4152 -0.2873  0.0872
 5116TIP3    H236984   2.706   5.102   6.476  1.0999 -0.1010 -0.1958
 5117TIP3   OH236985   2.627   6.852   1.052  0.1507 -0.4407 -0.6524
 5117TIP3    H136986   2.626   6.793   1.128 -1.8722 -1.7493 -1.6234
 5117TIP3    H236987   2.680   6.806   0.987  0.1764 -0.2770 -0.7469
 5118TIP3   OH236988   2.072   5.702   0.356  0.1007  0.4588 -0.5682
 5118TIP3    H136989   2.064   5.620   0.307  0.9031 -0.6076  0.9538
 5118TIP3    H236990   2.167   5.716   0.363  0.0180  0.4683  0.7879
 5119TIP3   OH236991   5.257   1.178   0.355  0.2818 -0.3032 -0.5110
 5119TIP3    H136992   5.235   1.153   0.445  0.8088 -0.8838 -0.5318
 5119TIP3    H236993   5.173   1.180   0.309  0.1447 -1.3674 -0.3306
 5120TIP3   OH236994   2.825   6.826   6.487 -0.3635 -0.2577  0.8799
 5120TIP3    H136995   2.892   6.764   6.516 -1.9308 -2.4887  0.0056
 5120TIP3    H236996   2.842   6.836   6.393 -0.3435  0.3698  0.9500
 5121TIP3   OH236997   1.760   5.091   2.037 -0.4357  0.1368 -0.1522
 5121TIP3    H136998   1.778   5.022   2.100 -0.9414  0.2614  0.1419
 5121TIP3    H236999   1.741   5.168   2.092 -0.1304  0.4383 -0.4689
 5122TIP3   OH237000   0.662   0.327   1.249 -0.6076 -0.0527  0.2647
 5122TIP3    H137001   0.645   0.323   1.155 -1.9120  1.3309  0.3945
 5122TIP3    H237002   0.755   0.349   1.256 -1.0423  2.4817 -0.8111
 5123TIP3   OH237003   4.241   0.097   8.030  0.0320 -0.0081 -0.1593
 5123TIP3    H137004   4.171   0.161   8.037 -0.6459 -0.5662 -1.4802
 5123TIP3    H237005   4.212   0.023   8.084 -0.6077 -0.4023 -1.0244
 5124TIP3   OH237006   0.340   6.586   0.819  0.2664  0.3112  0.2029
 5124TIP3    H137007   0.299   6.661   0.863 -0.6392  0.3231 -0.6330
 5124TIP3    H237008   0.334   6.607   0.725  2.3540  0.3888  0.0357
 5125TIP3   OH237009   6.238   0.394   6.291  0.1931 -0.4194 -0.2241
 5125TIP3    H137010   6.204   0.313   6.251 -0.3174 -1.1598  1.6135
 5125TIP3    H237011   6.326   0.371   6.321  0.1375 -0.2290  0.0938
 5126TIP3   OH237012   0.123   5.647   0.984  0.2045  0.6753  0.0736
 5126TIP3    H137013   0.186   5.702   1.030 -0.0681  0.0732  1.1800
 5126TIP3    H237014   0.162   5.560   0.985  0.0559  0.5889 -0.5945
 5127TIP3   OH237015   3.379   5.667   1.170 -0.0693  0.0906 -0.0040
 5127TIP3    H137016   3.292   5.685   1.133 -0.0474  0.2232  0.0083
 5127TIP3    H237017   3.362   5.611   1.245 -0.2427  0.9856  0.6460
 5128TIP3   OH237018   4.642   4.313   8.001  0.1079 -0.4225  0.8522
 5128TIP3    H137019   4.641   4.278   7.912  0.2502  2.2197 -0.2525
 5128TIP3    H237020   4.734   4.314   8.025  0.1772 -0.0197  0.5664
 5129TIP3   OH237021   6.257   5.587   1.749 -0.1314 -0.5138 -0.4304
 5129TIP3    H137022   6.162   5.602   1.746 -0.0972 -0.3860 -0.9229
 5129TIP3    H237023   6.276   5.574   1.842 -0.8914 -2.2019 -0.4658
 5130TIP3   OH237024   5.147   5.006   0.539  0.1927  0.1747 -0.7623
 5130TIP3    H137025   5.186   4.984   0.455  1.8937 -1.5940  0.3857
 5130TIP3    H237026   5.197   5.081   0.570  1.1407 -0.5793 -0.3823
 5131TIP3   OH237027   2.331   6.309   2.379 -0.1116  0.3031 -0.0226
 5131TIP3    H137028   2.328   6.223   2.337  0.2575  0.0642  0.4345
 5131TIP3    H237029   2.417   6.343   2.355  0.0762  0.1915  0.4890
 5132TIP3   OH237030   4.966   3.054   7.959  0.0942  0.0095  0.6454
 5132TIP3    H137031   4.944   3.135   7.913  1.0114 -0.3245 -0.4528
 5132TIP3    H237032   5.051   3.029   7.923  0.4018 -0.7921  1.8635
 5133TIP3   OH237033   0.503   3.367   7.420  0.0160 -0.5849  0.5346
 5133TIP3    H137034   0.538   3.282   7.446  0.7873 -0.3431  0.3174
 5133TIP3    H237035   0.417   3.371   7.462 -0.9826 -2.3634 -1.2079
 5134TIP3   OH237036   6.133   5.591   0.330 -0.0512 -0.3860 -0.0334
 5134TIP3    H137037   6.180   5.520   0.373  1.0166 -0.0088 -0.5290
 5134TIP3    H237038   6.131   5.565   0.237  2.0020  1.0466 -0.5466
 5135TIP3   OH237039   1.127   0.765   0.747  0.1292 -0.0046 -0.3596
 5135TIP3    H137040   1.068   0.742   0.676  0.0100 -0.1273 -0.2226
 5135TIP3    H237041   1.172   0.843   0.717  0.5449 -0.4260 -0.8323
 5136TIP3   OH237042   0.699   4.684   7.738 -0.0158  0.1905 -0.0399
 5136TIP3    H137043   0.750   4.622   7.789  0.7902  0.8770  0.0209
 5136TIP3    H237044   0.761   4.753   7.714 -0.8058  0.8217 -0.3629
 5137TIP3   OH237045   0.185   6.125   8.205  0.1885  0.0821  0.2968
 5137TIP3    H137046   0.242   6.187   8.251 -0.4190  2.2318 -1.6351
 5137TIP3    H237047   0.245   6.072   8.153  0.5829  1.5670 -0.8409
 5138TIP3   OH237048   2.054   4.992   1.583  0.1352  0.4171 -0.3804
 5138TIP3    H137049   2.130   4.979   1.526  0.6463  2.1701 -0.1558
 5138TIP3    H237050   1.982   5.012   1.523  0.2034  0.2231 -0.5248
 5139TIP3   OH237051   6.863   0.274   7.705  0.1150  0.1281  0.6822
 5139TIP3    H137052   6.812   0.314   7.634 -0.9272 -0.9727  0.7736
 5139TIP3    H237053   6.848   0.180   7.695  2.5785 -0.3208  0.3848
 5140TIP3   OH237054   3.948   6.634   7.859 -0.0899  0.3400  0.1409
 5140TIP3    H137055   3.916   6.575   7.790  0.0347 -0.3367  0.6557
 5140TIP3    H237056   4.023   6.589   7.897  0.7877  1.4117 -0.2942
 5141TIP3   OH237057   3.676   3.929   1.826  0.0923 -0.0269 -0.0133
 5141TIP3    H137058   3.761   3.960   1.858  0.4947 -0.3247 -0.7367
 5141TIP3    H237059   3.627   3.906   1.904  1.5971 -2.1905  0.4088
 5142TIP3   OH237060   1.021   5.206   0.444 -0.1633 -0.1262  0.3224
 5142TIP3    H137061   1.034   5.112   0.456  0.6691  0.0517  0.8601
 5142TIP3    H237062   0.939   5.212   0.394 -0.1416 -1.1366  0.1379
 5143TIP3   OH237063   2.455   0.202   7.135  0.0508  0.3823 -0.9540
 5143TIP3    H137064   2.390   0.166   7.194  1.2618 -1.0826 -0.4427
 5143TIP3    H237065   2.508   0.126   7.108  1.1220  1.4055 -1.8557
 5144TIP3   OH237066   2.039   5.390   2.048 -0.5670  0.4033 -0.1444
 5144TIP3    H137067   2.023   5.483   2.059 -2.8242  0.2037 -1.2443
 5144TIP3    H237068   1.970   5.347   2.099 -0.7987 -0.6108 -1.2668
 5145TIP3   OH237069   6.311   6.496   2.084  0.1761 -0.0705  0.1193
 5145TIP3    H137070   6.269   6.554   2.020 -0.5568 -0.0864  0.5855
 5145TIP3    H237071   6.249   6.489   2.156  1.4064  0.7546  1.3171
 5146TIP3   OH237072   3.324   0.189   0.353  0.0839 -0.7974 -0.1326
 5146TIP3    H137073   3.348   0.272   0.311  0.1537  0.5032  2.2837
 5146TIP3    H237074   3.375   0.188   0.435 -2.2301 -1.6915  1.3952
 5147TIP3   OH237075   6.148   2.416   1.214  0.1954  0.1137 -0.7129
 5147TIP3    H137076   6.208   2.343   1.195  0.8877 -0.0990  1.8401
 5147TIP3    H237077   6.069   2.373   1.245  0.3537  0.4202  0.1350
 5148TIP3   OH237078   0.099   3.780   8.323 -0.2205  0.6198  0.0886
 5148TIP3    H137079   0.045   3.705   8.299 -0.5140  0.1986  1.8580
 5148TIP3    H237080   0.179   3.770   8.273 -0.3527 -0.7664  0.1114
 5149TIP3   OH237081   4.591   5.610   7.063 -0.1872 -0.0291  0.3711
 5149TIP3    H137082   4.522   5.556   7.102 -0.3405  0.9724  1.5180
 5149TIP3    H237083   4.637   5.649   7.137 -1.0641  2.6698 -0.3827
 5150TIP3   OH237084   1.652   5.826   8.164 -0.2497  0.1693 -0.5382
 5150TIP3    H137085   1.559   5.820   8.142 -0.0447 -0.9526 -1.1705
 5150TIP3    H237086   1.697   5.802   8.083  0.5876  0.3733 -0.1414
 5151TIP3   OH237087   4.424   2.876   0.438  0.4267  0.5619  0.3145
 5151TIP3    H137088   4.389   2.792   0.409  0.8426  0.7303 -0.7119
 5151TIP3    H237089   4.518   2.861   0.448  0.6661  1.1519 -0.8657
 5152TIP3   OH237090   4.251   1.299   7.410  0.1107 -0.9132  0.7130
 5152TIP3    H137091   4.274   1.233   7.476  0.9139  0.3236  1.7195
 5152TIP3    H237092   4.207   1.368   7.459 -2.5748 -1.5259 -0.6279
 5153TIP3   OH237093   4.101   4.797   7.222 -0.3285 -0.6368  0.2284
 5153TIP3    H137094   4.024   4.853   7.234 -0.3796 -0.6779  0.0992
 5153TIP3    H237095   4.070   4.709   7.248 -0.1713 -0.5596  0.6946
 5154TIP3   OH237096   2.798   0.646   7.261 -0.1487  0.2788 -0.3686
 5154TIP3    H137097   2.753   0.598   7.191 -0.2266 -3.4233  1.9669
 5154TIP3    H237098   2.865   0.698   7.215 -1.1993 -0.7002 -3.2551
 5155TIP3   OH237099   0.486   5.222   8.075  0.1452 -0.0054  0.4773
 5155TIP3    H137100   0.430   5.299   8.082 -1.1645 -0.8134 -0.6842
 5155TIP3    H237101   0.522   5.226   7.986  0.7134 -0.3039  0.6883
 5156TIP3   OH237102   0.374   0.945   0.735 -0.3908  0.1653  0.1410
 5156TIP3    H137103   0.339   1.001   0.666 -0.2295  0.9135  0.6530
 5156TIP3    H237104   0.468   0.962   0.735 -0.3973  0.2282  0.5793
 5157TIP3   OH237105   6.782   2.233   8.197  0.2305 -0.0632  0.2087
 5157TIP3    H137106   6.824   2.311   8.235  0.0144 -0.3730  1.0976
 5157TIP3    H237107   6.772   2.172   8.270  0.3116 -0.8992 -0.4620
 5158TIP3   OH237108   3.076   5.996   0.492  0.1112 -0.0474  0.1479
 5158TIP3    H137109   3.165   5.998   0.526  0.3126 -1.5520 -0.2050
 5158TIP3    H237110   3.084   5.953   0.406 -1.1313 -1.6810  0.7876
 5159TIP3   OH237111   5.441   2.501   0.188 -0.6761 -0.3062 -0.2892
 5159TIP3    H137112   5.516   2.531   0.240 -1.5671 -2.1059  2.2719
 5159TIP3    H237113   5.366   2.546   0.226 -1.2781 -1.1779 -0.4100
 5160TIP3   OH237114   3.836   2.292   7.950  0.1164  0.2800  0.5105
 5160TIP3    H137115   3.930   2.311   7.946  0.2966 -0.5451  0.5824
 5160TIP3    H237116   3.794   2.373   7.923  0.8842  0.2555 -0.8225
 5161TIP3   OH237117   3.067   0.544   0.426 -0.1101  0.0832  0.6911
 5161TIP3    H137118   3.042   0.604   0.355 -1.3365 -0.6542  0.4908
 5161TIP3    H237119   3.060   0.457   0.387  1.0665 -0.2511  1.1707
 5162TIP3   OH237120   5.477   2.628   1.205 -0.1032 -0.0367  0.7873
 5162TIP3    H137121   5.412   2.672   1.260 -2.6579 -0.7980 -1.4106
 5162TIP3    H237122   5.453   2.654   1.116  0.6118 -2.8649 -0.3131
 5163TIP3   OH237123   3.892   5.555   3.108  0.0387  0.1246 -0.4469
 5163TIP3    H137124   3.976   5.576   3.150  0.7821 -1.4159 -1.0895
 5163TIP3    H237125   3.845   5.505   3.175 -0.8755  1.9090  0.3206
 5164TIP3   OH237126   0.442   1.179   6.732  0.3032  0.5811 -0.1046
 5164TIP3    H137127   0.396   1.095   6.730 -0.8853  1.0876  2.0522
 5164TIP3    H237128   0.428   1.211   6.822  0.5365  3.1616 -0.9145
 5165TIP3   OH237129   0.741   5.097   7.238 -0.4944 -0.1495  0.0186
 5165TIP3    H137130   0.703   5.183   7.253  1.7763  0.7397  1.2069
 5165TIP3    H237131   0.789   5.078   7.319  0.2248 -1.8813 -0.7678
 5166TIP3   OH237132   3.595   3.365   0.705 -0.8634 -0.6209  0.1708
 5166TIP3    H137133   3.520   3.308   0.720 -1.7617 -0.0934 -1.9940
 5166TIP3    H237134   3.562   3.434   0.648  1.2526 -0.3337 -0.7889
 5167TIP3   OH237135   5.988   0.225   8.379 -0.1645  0.7910  0.2680
 5167TIP3    H137136   6.034   0.266   8.306  1.3111 -0.9028  0.1798
 5167TIP3    H237137   5.941   0.152   8.340 -0.4754  0.6824  0.8246
 5168TIP3   OH237138   0.951   3.879   0.890 -0.0010  0.3500 -0.1482
 5168TIP3    H137139   0.864   3.849   0.863  0.4055 -0.7245 -0.3228
 5168TIP3    H237140   0.937   3.923   0.974 -1.0623  2.4223 -1.3247
 5169TIP3   OH237141   1.533   0.414   1.441 -0.3941 -0.3916 -0.0829
 5169TIP3    H137142   1.460   0.472   1.418 -1.0904 -1.5374 -0.8562
 5169TIP3    H237143   1.513   0.331   1.397  0.7808 -1.1006  0.6564
 5170TIP3   OH237144   1.042   3.916   6.975  0.2464 -0.4060 -0.4552
 5170TIP3    H137145   0.991   3.857   6.919  0.6841  2.0456 -3.7050
 5170TIP3    H237146   1.133   3.898   6.952  0.3733  1.7180 -1.8320
 5171TIP3   OH237147   6.335   5.568   2.023 -0.3662  0.5436  0.4780
 5171TIP3    H137148   6.306   5.584   2.112  0.1522 -0.4599  0.8425
 5171TIP3    H237149   6.430   5.565   2.029 -0.3741 -1.8531  0.3490
 5172TIP3   OH237150   5.237   5.694   0.614 -0.3206 -0.2693 -0.1458
 5172TIP3    H137151   5.251   5.648   0.697  1.2188 -1.2457 -0.9050
 5172TIP3    H237152   5.188   5.632   0.560  0.6685 -0.5640 -0.7348
 5173TIP3   OH237153   5.780   6.101   8.180  0.3832  1.0821  0.5712
 5173TIP3    H137154   5.720   6.060   8.118  1.2300  0.7783 -0.0665
 5173TIP3    H237155   5.867   6.076   8.149  0.8124  0.5723  2.1267
 5174TIP3   OH237156   2.382   4.506   0.979  0.3513  0.4585 -0.3999
 5174TIP3    H137157   2.475   4.491   0.997  0.0632  0.7737  1.5580
 5174TIP3    H237158   2.341   4.507   1.065 -1.7153 -1.1223 -1.2896
 5175TIP3   OH237159   3.923   1.310   1.796  0.3447 -0.1891  0.0278
 5175TIP3    H137160   3.883   1.396   1.808 -1.1748 -0.7211 -0.8701
 5175TIP3    H237161   3.941   1.305   1.702  2.4916 -0.0190  0.3964
 5176TIP3   OH237162   2.448   0.666   6.493 -0.4368 -0.4357  0.1119
 5176TIP3    H137163   2.484   0.581   6.516  0.6672  0.4878  1.9752
 5176TIP3    H237164   2.486   0.685   6.407  2.2092 -0.3101  1.2052
 5177TIP3   OH237165   0.026   6.458   1.365  0.4420 -0.1167  0.7372
 5177TIP3    H137166   0.079   6.403   1.422  0.8833  0.0249  0.4682
 5177TIP3    H237167   0.051   6.432   1.276 -1.7889 -1.8736  0.5351
 5178TIP3   OH237168   3.821   6.693   0.075 -0.4077 -0.1827  0.0349
 5178TIP3    H137169   3.883   6.710   0.005 -0.5472 -0.5181 -0.1671
 5178TIP3    H237170   3.875   6.678   0.152 -0.1856 -1.8043 -0.4138
 5179TIP3   OH237171   4.043   0.242   8.348  0.6430 -0.0540 -0.4404
 5179TIP3    H137172   4.025   0.149   8.338 -0.6008  0.2370 -1.1936
 5179TIP3    H237173   4.129   0.246   8.389 -0.2796 -1.5713  1.8749
 5180TIP3   OH237174   5.445   4.517   0.570 -0.2975 -0.1395 -0.8138
 5180TIP3    H137175   5.529   4.508   0.524  0.0567  0.1277 -0.2331
 5180TIP3    H237176   5.448   4.604   0.608  0.0230 -0.8365  0.8587
 5181TIP3   OH237177   5.149   2.676   1.268  0.1885  0.0183  0.4346
 5181TIP3    H137178   5.226   2.677   1.324  0.3296 -1.0342  0.2737
 5181TIP3    H237179   5.113   2.765   1.274  0.0805 -0.1280  2.3449
 5182TIP3   OH237180   1.837   4.600   1.354  0.1691  0.0014  0.4341
 5182TIP3    H137181   1.757   4.640   1.389  1.4496  2.6230  0.6152
 5182TIP3    H237182   1.843   4.632   1.264 -0.8959 -3.3196 -0.9863
 5183TIP3   OH237183   1.855   0.241   1.964  0.5940 -0.1800  0.5718
 5183TIP3    H137184   1.835   0.280   2.050  2.2558 -0.2398  1.0315
 5183TIP3    H237185   1.939   0.280   1.940  0.2732 -0.3704 -0.9269
 5184TIP3   OH237186   3.652   6.214   6.919  0.2549  0.7142  0.8431
 5184TIP3    H137187   3.559   6.235   6.929 -0.6097 -1.3055 -1.7805
 5184TIP3    H237188   3.676   6.251   6.834  0.7916 -1.7499 -0.1841
 5185TIP3   OH237189   2.903   5.219   7.240 -0.0569 -0.3015  0.1132
 5185TIP3    H137190   2.828   5.252   7.290 -0.0121 -0.6035  0.3811
 5185TIP3    H237191   2.889   5.253   7.151  0.3951  1.0983  0.5485
 5186TIP3   OH237192   0.902   6.214   1.021  0.3881  0.1445  0.8538
 5186TIP3    H137193   0.952   6.245   1.097 -1.5844  2.7811  1.2544
 5186TIP3    H237194   0.815   6.195   1.057  0.1946 -1.2501 -0.3143
 5187TIP3   OH237195   4.849   3.673   2.681 -0.3517 -0.3396 -0.3779
 5187TIP3    H137196   4.772   3.650   2.734 -1.3452 -0.0904 -1.6664
 5187TIP3    H237197   4.820   3.747   2.628  0.0728 -1.5586 -2.3989
 5188TIP3   OH237198   2.421   0.969   1.190 -0.0630 -0.1167 -0.0932
 5188TIP3    H137199   2.502   1.019   1.176 -0.0100 -0.2833 -0.3845
 5188TIP3    H237200   2.422   0.949   1.283  0.8669 -1.1949 -0.3100
 5189TIP3   OH237201   4.856   1.161   2.066  0.0445 -0.1360  0.2949
 5189TIP3    H137202   4.946   1.186   2.088  0.1033  0.9479 -1.0417
 5189TIP3    H237203   4.815   1.243   2.037 -0.7853 -0.9738 -0.9892
 5190TIP3   OH237204   0.904   6.589   8.469  0.2687 -0.4948  0.3984
 5190TIP3    H137205   0.829   6.629   8.425  0.2944 -2.6190 -1.7415
 5190TIP3    H237206   0.884   6.600   8.563 -2.5467 -0.6382 -0.0864
 5191TIP3   OH237207   0.854   5.147   2.045  0.3634 -0.0936 -0.1204
 5191TIP3    H137208   0.920   5.093   2.089  1.3781  0.6242 -0.7082
 5191TIP3    H237209   0.790   5.167   2.113  0.3560 -1.4006  0.2888
 5192TIP3   OH237210   0.417   2.762   8.229  0.0010  0.1125  0.1477
 5192TIP3    H137211   0.407   2.675   8.267  2.1740  0.0712  0.7441
 5192TIP3    H237212   0.508   2.764   8.198  0.1141  2.2866  0.4899
 5193TIP3   OH237213   2.867   3.688   7.273  0.0669 -0.0697 -0.0336
 5193TIP3    H137214   2.811   3.611   7.284 -2.8163  2.0047  1.2721
 5193TIP3    H237215   2.807   3.762   7.280  2.6920  2.3506 -1.1155
 5194TIP3   OH237216   1.477   5.050   7.411  0.0618 -0.4009  0.5475
 5194TIP3    H137217   1.398   5.102   7.425 -0.8472 -0.9090 -2.0356
 5194TIP3    H237218   1.538   5.110   7.368 -0.8748 -1.2548 -2.1526
 5195TIP3   OH237219   0.619   5.595   1.248  0.2152 -0.0685  0.1088
 5195TIP3    H137220   0.611   5.690   1.255  0.1585 -0.1459  1.2909
 5195TIP3    H237221   0.567   5.573   1.171  0.9146  0.9367 -0.6797
 5196TIP3   OH237222   2.350   3.264   2.581  0.2477 -0.7516 -0.5663
 5196TIP3    H137223   2.256   3.282   2.589 -0.0798 -2.1230 -0.9354
 5196TIP3    H237224   2.357   3.213   2.500  1.6438  1.2498 -1.7878
 5197TIP3   OH237225   2.668   5.855   8.136 -0.3388  0.2674  0.0248
 5197TIP3    H137226   2.601   5.828   8.200 -1.1262 -0.0003 -0.8915
 5197TIP3    H237227   2.623   5.853   8.052  0.7228  0.4910 -0.5644
 5198TIP3   OH237228   4.879   4.871   0.310 -0.3267 -0.7284 -0.0502
 5198TIP3    H137229   4.836   4.786   0.304 -1.0170 -0.3425 -0.6804
 5198TIP3    H237230   4.855   4.903   0.398  0.1129 -1.2711  0.2720
 5199TIP3   OH237231   3.020   6.863   1.808  0.0503 -0.3976  0.1894
 5199TIP3    H137232   2.994   6.866   1.900 -0.6221 -0.0365 -0.0039
 5199TIP3    H237233   3.041   6.771   1.792 -1.2669 -0.7423  0.3263
 5200TIP3   OH237234   1.551   0.556   7.975 -0.5766  0.0421  0.1449
 5200TIP3    H137235   1.526   0.486   8.035 -0.5399  0.3291  0.4986
 5200TIP3    H237236   1.626   0.598   8.017 -1.0436  0.7463  0.2841
 5201TIP3   OH237237   0.919   6.466   0.371  0.6458 -0.1708  0.0216
 5201TIP3    H137238   0.871   6.390   0.336  0.8120  0.3108 -1.2989
 5201TIP3    H237239   0.958   6.433   0.452 -0.8579 -0.9405  0.4800
 5202TIP3   OH237240   4.888   2.809   8.065 -0.2479 -0.1677  0.0268
 5202TIP3    H137241   4.886   2.827   8.159  1.6345  0.0590  0.0685
 5202TIP3    H237242   4.892   2.895   8.024  1.1860 -0.2759 -0.1231
 5203TIP3   OH237243   4.256   3.058   0.325  0.1516 -0.1649  0.0743
 5203TIP3    H137244   4.343   3.040   0.361 -0.5194 -0.8794  1.4116
 5203TIP3    H237245   4.214   2.972   0.321  0.3087 -0.2331 -2.9303
 5204TIP3   OH237246   6.037   3.796   7.446  0.3380 -0.0357  0.1691
 5204TIP3    H137247   6.046   3.831   7.535  0.1493 -2.3864  1.1980
 5204TIP3    H237248   5.981   3.860   7.401 -1.1692  0.2992  2.3338
 5205TIP3   OH237249   1.281   1.168   1.438 -0.1686 -0.6662 -0.4786
 5205TIP3    H137250   1.248   1.078   1.440  2.0037 -1.5946 -2.0587
 5205TIP3    H237251   1.267   1.196   1.348  0.2550  0.1426 -0.2964
 5206TIP3   OH237252   4.365   0.086   8.624 -0.1544  0.1114 -0.3102
 5206TIP3    H137253   4.305   0.149   8.664 -1.5686  0.5299 -2.8071
 5206TIP3    H237254   4.374   0.017   8.689 -1.7379  1.0218  0.9709
 5207TIP3   OH237255   0.367   6.288   6.515 -0.3203  0.1814 -0.2269
 5207TIP3    H137256   0.409   6.219   6.565 -1.9879 -0.6697  0.0582
 5207TIP3    H237257   0.410   6.285   6.429  1.4109  0.5646  0.5728
 5208TIP3   OH237258   3.927   1.823   0.584 -0.2203 -0.8918  0.6486
 5208TIP3    H137259   3.917   1.852   0.494  1.0627 -2.5888 -0.0788
 5208TIP3    H237260   3.990   1.885   0.622 -1.3680  0.3193  0.6749
 5209TIP3   OH237261   2.786   4.384   0.775  0.0416 -0.0616  0.7148
 5209TIP3    H137262   2.743   4.463   0.743 -1.0974  0.3632  3.0936
 5209TIP3    H237263   2.850   4.416   0.839 -0.7100 -1.0441  2.0027
 5210TIP3   OH237264   4.008   3.058   6.279  0.5866 -0.5966 -0.1573
 5210TIP3    H137265   4.013   3.008   6.198 -1.1195 -0.2139 -0.5315
 5210TIP3    H237266   4.080   3.120   6.273 -1.0071  1.2008 -2.6581
 5211TIP3   OH237267   5.260   5.838   1.358  0.3190 -0.2861 -0.4149
 5211TIP3    H137268   5.309   5.830   1.276 -0.2779  0.4112 -0.8545
 5211TIP3    H237269   5.182   5.888   1.334  0.7562  1.0941  0.8275
 5212TIP3   OH237270   6.805   2.402   1.479  0.2535 -0.4921 -0.6740
 5212TIP3    H137271   6.723   2.435   1.442 -0.9016  0.4269  2.3767
 5212TIP3    H237272   6.863   2.478   1.478  0.2056 -0.4540 -0.5610
 5213TIP3   OH237273   2.632   2.982   8.503  0.1809  0.2406 -0.4227
 5213TIP3    H137274   2.585   3.048   8.554  0.0906 -0.2250  0.1144
 5213TIP3    H237275   2.564   2.943   8.447 -0.0885 -0.3928  0.3124
 5214TIP3   OH237276   0.113   1.172   7.576  0.1575  0.1836 -0.1643
 5214TIP3    H137277   0.098   1.081   7.600 -0.0450  0.2840  0.0877
 5214TIP3    H237278   0.167   1.167   7.497  0.2326 -0.1524 -0.0928
 5215TIP3   OH237279   4.804   6.643   0.309 -0.2890  0.3931  0.2109
 5215TIP3    H137280   4.764   6.556   0.318 -1.6880  1.0365  0.5284
 5215TIP3    H237281   4.898   6.626   0.304 -0.5752 -1.1917 -0.4298
 5216TIP3   OH237282   3.926   6.873   7.356 -0.2651  0.0901 -0.2058
 5216TIP3    H137283   3.911   6.846   7.266 -0.0338 -0.7629  0.0037
 5216TIP3    H237284   3.966   6.797   7.398  0.3302  0.7318  0.4289
 5217TIP3   OH237285   3.212   5.579   0.425 -0.2838  0.1012 -0.1402
 5217TIP3    H137286   3.196   5.658   0.372  0.6525 -0.3313 -1.0971
 5217TIP3    H237287   3.131   5.528   0.416 -1.2509  1.3028  1.1925
 5218TIP3   OH237288   5.787   2.092   8.307  0.5012 -0.1153 -0.6500
 5218TIP3    H137289   5.836   2.174   8.305 -1.2687  0.9909 -0.4186
 5218TIP3    H237290   5.815   2.046   8.228  0.0609  1.6254 -1.8792
 5219TIP3   OH237291   4.983   5.893   1.644 -0.4225  0.3552 -0.3353
 5219TIP3    H137292   5.069   5.924   1.617  0.1040 -0.0477  0.8043
 5219TIP3    H237293   4.947   5.851   1.566  0.7680 -0.2113 -0.6028
 5220TIP3   OH237294   3.181   3.084   7.064 -0.1231  0.1894 -0.1720
 5220TIP3    H137295   3.099   3.109   7.023  0.2061  1.9933  0.2139
 5220TIP3    H237296   3.182   2.988   7.059 -2.0689  0.1534 -0.4910
 5221TIP3   OH237297   6.846   2.655   6.786  0.3092  0.1018 -0.1370
 5221TIP3    H137298   6.828   2.731   6.731  2.0224  0.8351  0.2602
 5221TIP3    H237299   6.761   2.612   6.795 -0.7825  2.1456 -0.0794
 5222TIP3   OH237300   0.115   2.193   8.563 -0.2716 -0.1677  0.1420
 5222TIP3    H137301   0.061   2.186   8.642  1.1797 -4.4510  1.0208
 5222TIP3    H237302   0.068   2.143   8.497  0.8092 -0.7393 -0.2137
 5223TIP3   OH237303   5.260   3.405   7.056 -0.1355 -0.1612 -0.2303
 5223TIP3    H137304   5.219   3.415   6.970  0.1937 -2.0794 -0.6618
 5223TIP3    H237305   5.197   3.444   7.117 -0.9877  0.0519 -1.2155
 5224TIP3   OH237306   4.330   5.740   1.339 -0.2135  0.0007  0.6447
 5224TIP3    H137307   4.302   5.724   1.249 -0.8566  0.1470  0.8189
 5224TIP3    H237308   4.336   5.653   1.378  1.0545 -0.1456  0.1785
 5225TIP3   OH237309   0.644   3.609   0.270  0.6388 -0.4152 -0.9198
 5225TIP3    H137310   0.624   3.518   0.246 -0.0969 -0.1144 -1.4786
 5225TIP3    H237311   0.581   3.631   0.338  2.4637 -1.1329  1.1570
 5226TIP3   OH237312   2.400   1.060   7.435 -0.1050 -0.2641  0.0108
 5226TIP3    H137313   2.493   1.065   7.457  0.1156  1.3812 -1.0932
 5226TIP3    H237314   2.388   0.970   7.403  0.7017 -1.0138  1.7065
 5227TIP3   OH237315   3.681   1.807   8.260 -0.0446 -0.4330  0.5150
 5227TIP3    H137316   3.654   1.885   8.308 -1.4151 -1.3416  1.2899
 5227TIP3    H237317   3.774   1.795   8.282 -0.1275  0.3209  1.3128
 5228TIP3   OH237318   4.883   5.152   7.418 -0.2989 -0.6327  0.5573
 5228TIP3    H137319   4.865   5.242   7.443  1.2083  0.4146 -1.7486
 5228TIP3    H237320   4.814   5.132   7.354  1.3750  0.2684 -1.6633
 5229TIP3   OH237321   3.242   4.173   8.154 -0.6314  0.4876 -0.0770
 5229TIP3    H137322   3.317   4.134   8.110 -0.8476  0.9565 -0.8714
 5229TIP3    H237323   3.250   4.144   8.245 -1.1067 -1.9292 -0.7248
 5230TIP3   OH237324   4.846   3.380   8.334 -0.0766  0.4166 -0.1416
 5230TIP3    H137325   4.840   3.390   8.239 -0.1836  1.5085 -0.0319
 5230TIP3    H237326   4.803   3.458   8.369 -0.9961 -0.4883  0.8220
 5231TIP3   OH237327   4.699   1.546   1.819  0.1836 -0.0625  0.1263
 5231TIP3    H137328   4.723   1.618   1.878  0.7943  0.2233 -0.4629
 5231TIP3    H237329   4.607   1.563   1.798 -0.2196 -0.4906  1.4448
 5232TIP3   OH237330   1.920   5.663   8.204  0.4259 -0.1296  0.2329
 5232TIP3    H137331   1.936   5.663   8.298  2.3107 -1.2276 -0.0414
 5232TIP3    H237332   1.824   5.669   8.196  0.3263  1.5599  2.1424
 5233TIP3   OH237333   0.232   2.902   1.472  0.4175 -0.0418  0.2490
 5233TIP3    H137334   0.227   2.844   1.547  2.7763  0.4188  0.8439
 5233TIP3    H237335   0.181   2.979   1.497 -2.7114 -1.6976 -0.5329
 5234TIP3   OH237336   0.942   5.541   7.616 -0.1410  0.1715  0.1432
 5234TIP3    H137337   0.877   5.505   7.556 -0.4469  0.3700  0.3583
 5234TIP3    H237338   0.954   5.474   7.683  1.9586 -1.1178 -1.3995
 5235TIP3   OH237339   6.389   0.909   1.219 -0.1052 -0.3013 -0.4091
 5235TIP3    H137340   6.447   0.833   1.213 -1.5660 -1.3572 -2.4283
 5235TIP3    H237341   6.301   0.872   1.213 -1.0229  1.3303  1.6593
 5236TIP3   OH237342   3.068   2.123   6.596 -0.5573 -0.4722  0.6537
 5236TIP3    H137343   3.013   2.061   6.547  0.3704 -1.1318  0.4329
 5236TIP3    H237344   3.151   2.124   6.549 -0.1918  0.1001  1.3016
 5237TIP3   OH237345   1.012   2.917   7.751  0.3636 -0.2496  0.4130
 5237TIP3    H137346   1.046   2.875   7.672  1.5070 -0.2432  0.8758
 5237TIP3    H237347   1.045   2.862   7.823 -1.5361 -0.8666  0.8634
 5238TIP3   OH237348   0.812   0.783   2.027 -0.0115 -0.1358 -0.3358
 5238TIP3    H137349   0.720   0.763   2.044 -0.0243 -0.1303 -0.3973
 5238TIP3    H237350   0.821   0.876   2.046  0.1617 -0.3002  0.4365
 5239TIP3   OH237351   1.104   5.162   7.894 -0.8566  0.8417  0.2262
 5239TIP3    H137352   1.084   5.086   7.949  0.0609  2.4951  3.0610
 5239TIP3    H237353   1.200   5.162   7.888 -0.9333 -0.1478 -2.8412
 5240TIP3   OH237354   0.297   6.827   7.590 -0.2768  0.0441  0.1161
 5240TIP3    H137355   0.235   6.882   7.541 -1.7109  1.0230  2.7813
 5240TIP3    H237356   0.381   6.872   7.582 -0.1761 -0.4202 -2.2222
 5241TIP3   OH237357   3.296   2.673   6.692  0.2416 -0.1260  0.0494
 5241TIP3    H137358   3.276   2.717   6.609  0.8286  0.0567 -0.0038
 5241TIP3    H237359   3.392   2.677   6.698  0.7192 -3.9894 -1.4392
 5242TIP3   OH237360   1.562   4.485   7.539 -0.2323 -0.1542 -0.5602
 5242TIP3    H137361   1.579   4.568   7.583 -1.0811 -0.4581  0.4019
 5242TIP3    H237362   1.637   4.430   7.562  0.7255  0.5659 -1.8485
 5243TIP3   OH237363   6.780   2.020   7.667  0.3545 -0.2276  0.5985
 5243TIP3    H137364   6.719   1.954   7.701 -0.3049  0.5817  1.0458
 5243TIP3    H237365   6.867   1.988   7.689  0.0699 -1.1668  0.3909
 5244TIP3   OH237366   4.393   6.406   0.049  0.5850  0.3151  0.3056
 5244TIP3    H137367   4.417   6.340  -0.016 -0.2180 -0.9381  1.2430
 5244TIP3    H237368   4.446   6.483   0.026  2.4260 -1.0131 -0.0924
 5245TIP3   OH237369   6.877   4.220   0.678 -0.0979 -0.1562 -0.4160
 5245TIP3    H137370   6.900   4.313   0.676  0.3876 -0.2722 -0.1502
 5245TIP3    H237371   6.786   4.219   0.708 -0.0053  0.2138 -0.1085
 5246TIP3   OH237372   5.833   1.921   1.393 -0.0598 -0.1812  0.4578
 5246TIP3    H137373   5.748   1.953   1.422  0.1567  0.5849  0.2576
 5246TIP3    H237374   5.886   1.999   1.381  0.6680 -0.6511  0.5466
 5247TIP3   OH237375   2.319   3.286   6.756  0.1500  0.3225  0.6128
 5247TIP3    H137376   2.370   3.251   6.683 -1.4140 -0.5269 -0.1197
 5247TIP3    H237377   2.321   3.381   6.744  1.1472  0.2778  0.3463
 5248TIP3   OH237378   6.703   1.396   8.614  0.1339  0.2234  0.0344
 5248TIP3    H137379   6.683   1.335   8.543  1.5197 -1.1561  0.7674
 5248TIP3    H237380   6.773   1.451   8.581 -1.3997  1.7833 -0.7799
 5249TIP3   OH237381   3.891   3.986   1.187  0.0803  0.0531  0.1693
 5249TIP3    H137382   3.929   3.905   1.153  0.4450  0.3927 -0.2432
 5249TIP3    H237383   3.896   3.977   1.283  0.9056 -0.0438  0.1202
 5250TIP3   OH237384   5.082   3.762   7.704  0.1898  0.4949  0.0151
 5250TIP3    H137385   5.071   3.759   7.799  0.7479 -0.2116  0.0629
 5250TIP3    H237386   5.085   3.855   7.683  0.0133  0.6558  0.6823
 5251TIP3   OH237387   5.806   3.707   7.160 -0.4431  0.2170 -0.4913
 5251TIP3    H137388   5.848   3.699   7.075  3.0004 -1.1878  1.1497
 5251TIP3    H237389   5.845   3.785   7.199  1.2512 -1.4122  1.2928
 5252TIP3   OH237390   6.500   3.556   8.299  0.0450 -0.4385  0.0660
 5252TIP3    H137391   6.523   3.506   8.221  1.6194  1.1796 -0.5634
 5252TIP3    H237392   6.486   3.489   8.367  0.0227 -1.8001 -1.2151
 5253TIP3   OH237393   0.403   4.145   6.808  0.0660  0.0966  0.5552
 5253TIP3    H137394   0.385   4.129   6.901 -0.5657 -0.6520  0.3142
 5253TIP3    H237395   0.405   4.058   6.769 -3.6869  0.4826 -0.8601
 5254TIP3   OH237396   4.062   2.158   1.688 -0.1355 -0.7379 -0.7042
 5254TIP3    H137397   4.063   2.219   1.614  1.3076 -0.7001 -0.6948
 5254TIP3    H237398   3.970   2.144   1.707 -0.5142  0.0549 -1.8548
 5255TIP3   OH237399   2.632   6.802   6.716  0.0299  0.1399  0.0206
 5255TIP3    H137400   2.630   6.712   6.747 -2.1639  0.1625  0.1102
 5255TIP3    H237401   2.674   6.797   6.630 -1.8690 -1.3388 -0.8969
 5256TIP3   OH237402   1.756   5.861   7.912 -0.6039 -0.6734  0.3259
 5256TIP3    H137403   1.847   5.888   7.900  0.0819 -2.9491 -0.1700
 5256TIP3    H237404   1.709   5.942   7.929  1.7488  0.4358  2.1790
 5257TIP3   OH237405   3.311   4.546   8.545 -0.0449  0.2390 -0.1567
 5257TIP3    H137406   3.356   4.490   8.482 -3.3333 -1.3420 -1.3266
 5257TIP3    H237407   3.332   4.508   8.630 -0.5937 -1.6026 -0.8058
 5258TIP3   OH237408   2.907   5.716   8.187 -0.3446 -0.3172 -0.2158
 5258TIP3    H137409   2.828   5.766   8.163 -0.4095  0.6808  1.8506
 5258TIP3    H237410   2.956   5.709   8.105 -0.6953  2.5409 -0.7902
 5259TIP3   OH237411   4.508   3.481   2.596 -0.3408  0.4028  0.0721
 5259TIP3    H137412   4.432   3.523   2.636 -0.0244  2.0256 -0.9296
 5259TIP3    H237413   4.549   3.550   2.545  1.3350 -0.6706 -0.0957
 5260TIP3   OH237414   0.236   3.393   8.217 -0.0017 -0.1875  0.4329
 5260TIP3    H137415   0.310   3.364   8.271 -1.1397 -2.8922  0.6886
 5260TIP3    H237416   0.159   3.379   8.272 -0.7730  3.0839  0.3710
 5261TIP3   OH237417   4.849   0.420   1.220  0.2825  0.2014  0.1211
 5261TIP3    H137418   4.818   0.511   1.224  1.2209  0.7022 -2.1076
 5261TIP3    H237419   4.768   0.368   1.219 -0.3499  1.1410 -0.3096
 5262TIP3   OH237420   3.432   5.697   2.680  0.0579 -0.3379 -0.2765
 5262TIP3    H137421   3.435   5.789   2.705  1.0951 -0.1166 -1.1441
 5262TIP3    H237422   3.343   5.670   2.699 -0.4638  1.0361 -0.6554
 5263TIP3   OH237423   2.623   2.734   2.248 -0.3714  0.1988  0.4577
 5263TIP3    H137424   2.553   2.689   2.294  0.7551 -1.6098  0.5513
 5263TIP3    H237425   2.650   2.804   2.306 -3.0046  1.8906 -0.2118
 5264TIP3   OH237426   1.969   5.204   0.369  0.3135 -0.1233  0.2952
 5264TIP3    H137427   1.947   5.120   0.408  0.8686  0.0360  0.9775
 5264TIP3    H237428   1.889   5.257   0.379  0.5462  0.0302  1.5698
 5265TIP3   OH237429   4.200   0.659   0.808 -0.6173  0.2310 -0.0716
 5265TIP3    H137430   4.294   0.674   0.798 -0.5217 -0.1264  0.2563
 5265TIP3    H237431   4.176   0.606   0.732 -0.2991 -0.7442  0.4919
 5266TIP3   OH237432   0.781   6.219   2.196 -0.3849 -0.0933  0.5760
 5266TIP3    H137433   0.829   6.301   2.194  0.6045 -0.6593  0.0926
 5266TIP3    H237434   0.711   6.231   2.132 -0.1405  0.3066  0.3800
 5267TIP3   OH237435   3.115   6.682   7.906 -0.3710 -0.0200  0.0099
 5267TIP3    H137436   3.020   6.688   7.903 -0.3127  1.4905  0.1978
 5267TIP3    H237437   3.144   6.773   7.915  1.1824 -0.2085 -2.3180
 5268TIP3   OH237438   1.994   3.969   2.779  0.7430 -0.0225  0.1428
 5268TIP3    H137439   1.906   3.951   2.746  1.1156  0.7563 -1.3588
 5268TIP3    H237440   2.051   3.916   2.725  1.1956 -1.0351  1.5410
 5269TIP3   OH237441   5.645   2.636   7.047  0.1938 -0.7054  0.1989
 5269TIP3    H137442   5.664   2.674   6.961 -0.0444  0.5304  0.6801
 5269TIP3    H237443   5.675   2.545   7.040  0.1346 -0.6320 -1.1977
 5270TIP3   OH237444   4.743   5.233   3.398  0.2640 -0.7135 -0.6244
 5270TIP3    H137445   4.803   5.160   3.402 -0.1760 -1.0146  1.8148
 5270TIP3    H237446   4.799   5.310   3.385  0.9961 -1.1754 -0.2366
 5271TIP3   OH237447   5.386   3.629   8.079 -0.3408 -0.1389  0.6594
 5271TIP3    H137448   5.469   3.672   8.059 -0.6245 -0.2128 -0.8562
 5271TIP3    H237449   5.409   3.556   8.137  0.7792 -0.6412 -0.3757
 5272TIP3   OH237450   1.129   2.650   7.256 -0.2470  0.0142  0.2550
 5272TIP3    H137451   1.063   2.713   7.287 -0.6763 -1.0565  1.6186
 5272TIP3    H237452   1.091   2.611   7.178 -0.8649 -0.0058  0.5660
 5273TIP3   OH237453   6.144   2.274   7.697  0.4175  0.4399  0.2519
 5273TIP3    H137454   6.075   2.340   7.703  0.9206  1.3432 -2.4077
 5273TIP3    H237455   6.137   2.240   7.608  1.6882 -1.4407  0.8044
 5274TIP3   OH237456   1.229   5.534   7.873 -0.2898 -0.1535  0.3047
 5274TIP3    H137457   1.274   5.578   7.802 -1.0231  0.1856  0.0432
 5274TIP3    H237458   1.246   5.441   7.859 -1.0674 -0.1432 -0.7575
 5275TIP3   OH237459   1.274   3.637   0.826 -0.1658 -0.3904 -0.2072
 5275TIP3    H137460   1.285   3.561   0.769  0.3805 -0.8636  0.5025
 5275TIP3    H237461   1.329   3.705   0.787 -0.3997 -0.4562 -0.6613
 5276TIP3   OH237462   2.020   3.640   7.326  0.1792  0.0813 -0.2750
 5276TIP3    H137463   2.085   3.709   7.313  1.2579 -0.3807  2.0069
 5276TIP3    H237464   2.070   3.567   7.362 -1.4906 -0.5701  0.8602
 5277TIP3   OH237465   1.308   0.570   8.384 -0.3966 -0.3603  0.0290
 5277TIP3    H137466   1.302   0.608   8.296 -1.0178  0.7710  0.5309
 5277TIP3    H237467   1.332   0.479   8.369  1.4013  0.2663 -1.2272
 5278TIP3   OH237468   0.004   5.977   1.854  1.2076 -0.0427  0.0652
 5278TIP3    H137469  -0.069   5.915   1.860 -1.0333  2.3547 -0.5264
 5278TIP3    H237470   0.012   5.996   1.760  1.0082  1.3940  0.3064
 5279TIP3   OH237471   0.304   1.122   1.662 -0.1403 -0.6582 -0.2980
 5279TIP3    H137472   0.301   1.052   1.727  0.5106  1.5603  2.2983
 5279TIP3    H237473   0.218   1.164   1.667  1.1674  2.0805  2.3510
 5280TIP3   OH237474   1.101   4.532   0.019 -0.7361 -0.3231 -0.8115
 5280TIP3    H137475   1.052   4.509   0.098 -2.4529 -0.4989 -1.8738
 5280TIP3    H237476   1.045   4.503  -0.053 -0.4228  2.1252 -2.1410
 5281TIP3   OH237477   2.552   5.998   1.591 -0.4756  0.3150  0.5361
 5281TIP3    H137478   2.621   6.059   1.615  0.3224 -0.5376  0.4295
 5281TIP3    H237479   2.491   6.050   1.539  1.4358  0.4921 -1.6990
 5282TIP3   OH237480   4.767   4.439   0.559  0.2850 -0.2068 -0.0674
 5282TIP3    H137481   4.853   4.439   0.600  0.3967  4.1249  0.1926
 5282TIP3    H237482   4.750   4.531   0.538 -3.2859 -1.1462 -2.3310
 5283TIP3   OH237483   3.787   0.906   1.313 -0.4863 -0.1858  0.2222
 5283TIP3    H137484   3.857   0.902   1.248 -2.4589 -1.8340 -1.9497
 5283TIP3    H237485   3.796   0.825   1.363 -0.8929 -0.4671 -0.1522
 5284TIP3   OH237486   3.786   2.577   1.579 -0.6590  0.0200 -0.3469
 5284TIP3    H137487   3.734   2.499   1.559 -1.2164  0.2126  0.3216
 5284TIP3    H237488   3.771   2.592   1.672  0.3715  0.2495 -0.2072
 5285TIP3   OH237489   0.397   0.683   0.649 -0.1294 -0.1717 -0.4177
 5285TIP3    H137490   0.326   0.656   0.590 -0.3006  0.4630 -0.5128
 5285TIP3    H237491   0.377   0.774   0.671  0.5310 -0.0581 -0.2528
 5286TIP3   OH237492   3.871   2.943   7.513 -0.1891 -0.3264 -0.3219
 5286TIP3    H137493   3.840   2.867   7.464  2.0698 -2.4948  1.3176
 5286TIP3    H237494   3.900   3.005   7.446 -1.3965 -1.2096 -1.7238
 5287TIP3   OH237495   0.898   3.101   6.672 -0.2839  0.2473 -0.4383
 5287TIP3    H137496   0.842   3.087   6.749 -0.4882  1.0294 -0.4388
 5287TIP3    H237497   0.839   3.142   6.608  0.1920  0.7193 -0.5761
 5288TIP3   OH237498   5.423   5.467   1.130  0.3064  0.6297  0.1393
 5288TIP3    H137499   5.427   5.469   1.035  0.5220 -0.2233  0.1222
 5288TIP3    H237500   5.510   5.494   1.159 -0.4592  3.3699  0.1674
 5289TIP3   OH237501   3.170   3.749   0.307 -0.0603  0.5499 -0.8064
 5289TIP3    H137502   3.240   3.788   0.360  0.1893 -0.4008 -0.3967
 5289TIP3    H237503   3.120   3.823   0.274  1.2378  1.2688 -1.2383
 5290TIP3   OH237504   3.900   1.388   0.843  0.4536  0.0096  0.5473
 5290TIP3    H137505   3.889   1.306   0.891 -0.2786 -0.1962  0.0528
 5290TIP3    H237506   3.850   1.453   0.893  2.5281  0.6197  1.9725
 5291TIP3   OH237507   5.539   0.866   8.241  0.1713  0.1979  0.0861
 5291TIP3    H137508   5.488   0.918   8.303  1.7721  0.4548  1.2404
 5291TIP3    H237509   5.516   0.903   8.155 -2.1399 -0.2174  0.4582
 5292TIP3   OH237510   2.366   0.243   2.599  1.2799  0.0016 -0.0302
 5292TIP3    H137511   2.460   0.226   2.601  1.2459 -0.1600  0.1858
 5292TIP3    H237512   2.326   0.162   2.632  1.1829  1.1326  2.8246
 5293TIP3   OH237513   2.377   4.681   8.421 -0.6139  0.2908  0.2900
 5293TIP3    H137514   2.457   4.639   8.451 -0.9567 -2.3330 -2.1137
 5293TIP3    H237515   2.406   4.744   8.355 -0.3288  2.1168  2.0491
 5294TIP3   OH237516   3.841   4.905   1.325  0.0267 -0.6786 -0.0797
 5294TIP3    H137517   3.865   4.966   1.395 -1.3735 -1.1161  0.8256
 5294TIP3    H237518   3.884   4.823   1.349 -0.3760 -0.8026  0.2277
 5295TIP3   OH237519   5.742   3.151   0.708  0.5028  0.1819  0.6118
 5295TIP3    H137520   5.773   3.072   0.752 -1.6476  0.0675  2.0264
 5295TIP3    H237521   5.677   3.119   0.645  2.5874  0.4830 -1.8689
 5296TIP3   OH237522   4.324   0.387   7.414  0.4433 -0.2503  0.0298
 5296TIP3    H137523   4.319   0.480   7.434  0.5472 -0.3091  0.3441
 5296TIP3    H237524   4.287   0.378   7.326  1.1207  0.1818 -0.3036
 5297TIP3   OH237525   2.515   1.615   8.256 -0.4977  0.0842 -0.7896
 5297TIP3    H137526   2.486   1.662   8.178 -0.6724  2.6789  0.7274
 5297TIP3    H237527   2.607   1.594   8.239 -0.1202  1.8920 -1.1536
 5298TIP3   OH237528   1.312   2.057   0.482 -0.1955  0.3248 -0.1375
 5298TIP3    H137529   1.268   1.996   0.541 -2.4904  0.1758 -1.8569
 5298TIP3    H237530   1.405   2.050   0.504 -0.7700 -1.1095  2.1078
 5299TIP3   OH237531   4.427   5.896   7.406 -0.0408  0.0641 -0.1976
 5299TIP3    H137532   4.492   5.826   7.416 -0.2375  0.1007  1.7313
 5299TIP3    H237533   4.363   5.861   7.344 -0.6792 -1.9361  1.4692
 5300TIP3   OH237534   3.272   3.671   1.490 -0.4569 -0.1258 -0.7166
 5300TIP3    H137535   3.226   3.626   1.419 -0.6898 -0.4528 -0.3616
 5300TIP3    H237536   3.232   3.758   1.493  0.3527  0.3124 -1.7496
 5301TIP3   OH237537   1.559   0.948   6.821  0.2014 -0.3865 -0.2680
 5301TIP3    H137538   1.497   0.955   6.893  1.5547  1.3247  0.8098
 5301TIP3    H237539   1.577   0.854   6.814 -0.6045 -0.6665  1.0503
 5302TIP3   OH237540   3.351   2.467   2.111 -0.4778 -0.1273 -0.0500
 5302TIP3    H137541   3.369   2.536   2.175  2.0688 -0.4132 -0.3488
 5302TIP3    H237542   3.376   2.505   2.027  0.5590 -1.2325 -0.2680
 5303TIP3   OH237543   2.654   4.961   8.000  0.3306  0.3700  0.7164
 5303TIP3    H137544   2.603   4.997   7.927  1.0594 -0.9852 -0.5289
 5303TIP3    H237545   2.734   4.928   7.959 -0.3346 -2.7389  1.6546
 5304TIP3   OH237546   3.233   6.510   8.091  0.5808 -0.2007 -0.7601
 5304TIP3    H137547   3.182   6.570   8.037 -0.9991 -1.7743 -1.1084
 5304TIP3    H237548   3.304   6.481   8.034 -1.1194 -1.9213 -2.1745
 5305TIP3   OH237549   4.275   2.630   8.288 -0.3170  0.0279  0.8075
 5305TIP3    H137550   4.317   2.545   8.278 -0.7938 -0.3073  1.5561
 5305TIP3    H237551   4.199   2.626   8.229 -0.9142 -0.4634  1.5856
 5306TIP3   OH237552   0.985   0.834   8.389  0.7378 -0.2457 -0.2861
 5306TIP3    H137553   1.057   0.879   8.344 -1.2947  2.2693 -1.2581
 5306TIP3    H237554   0.950   0.775   8.322  1.2315 -0.7147 -0.1385
 5307TIP3   OH237555   0.487   2.411   7.638 -0.2407  0.3252  0.0951
 5307TIP3    H137556   0.449   2.440   7.555  1.1412  3.2608  0.3677
 5307TIP3    H237557   0.540   2.335   7.614 -1.2047  0.0564 -1.3606
 5308TIP3   OH237558   3.035   0.877   7.248  0.3981 -0.5310  0.5180
 5308TIP3    H137559   3.116   0.895   7.201  1.0535 -0.2667  1.6889
 5308TIP3    H237560   2.972   0.941   7.213  1.1044  0.2336  0.6037
 5309TIP3   OH237561   3.063   4.705   1.108  0.1740  0.0911  0.0571
 5309TIP3    H137562   3.137   4.648   1.084  1.2931  0.9270  1.3632
 5309TIP3    H237563   3.052   4.692   1.202 -1.1706  0.2243 -0.0630
 5310TIP3   OH237564   5.936   1.570   8.578 -0.0440  0.1377 -0.4654
 5310TIP3    H137565   5.945   1.581   8.673 -0.6461  1.3279 -0.5237
 5310TIP3    H237566   5.958   1.656   8.542 -1.7413  0.2947 -1.2506
 5311TIP3   OH237567   6.081   3.566   6.559 -0.3844 -0.0257 -0.1796
 5311TIP3    H137568   6.154   3.528   6.607  0.5236  0.4049 -1.1813
 5311TIP3    H237569   6.042   3.629   6.620  0.2225 -0.0879  0.2732
 5312TIP3   OH237570   4.286   4.243   8.316 -0.1102  0.6043 -0.0544
 5312TIP3    H137571   4.358   4.205   8.265  0.5332 -1.2387  2.0556
 5312TIP3    H237572   4.209   4.193   8.288  0.1571 -0.0878  0.4092
 5313TIP3   OH237573   5.348   3.074   1.557  0.0919  0.5132  0.2023
 5313TIP3    H137574   5.293   3.015   1.608 -1.6983  1.3284 -0.6956
 5313TIP3    H237575   5.404   3.116   1.622 -0.0006 -0.6988  1.0899
 5314TIP3   OH237576   5.268   0.651   8.347  0.2600  0.5060 -0.0506
 5314TIP3    H137577   5.243   0.734   8.306  1.5765 -0.0863 -2.2024
 5314TIP3    H237578   5.361   0.662   8.367  0.1375 -0.0075  0.8419
 5315TIP3   OH237579   5.924   3.347   2.190  0.1979 -0.0079  0.3648
 5315TIP3    H137580   5.902   3.432   2.227 -0.3620  1.1141 -2.3127
 5315TIP3    H237581   5.884   3.284   2.249  0.3170  1.5589  2.2214
 5316TIP3   OH237582   6.707   1.617   0.379  0.9051 -0.2363  0.0521
 5316TIP3    H137583   6.722   1.621   0.285 -1.5022  1.0253 -0.3692
 5316TIP3    H237584   6.666   1.532   0.393  1.4987 -0.5332  0.0212
 5317TIP3   OH237585   3.845   1.593   1.550 -0.2996 -0.8127 -0.2303
 5317TIP3    H137586   3.919   1.533   1.542  1.3138  0.8315  1.3446
 5317TIP3    H237587   3.799   1.563   1.629  0.8020  0.2192  0.8569
 5318TIP3   OH237588   6.553   6.865   7.858 -0.7095  0.0016 -0.3301
 5318TIP3    H137589   6.474   6.815   7.874 -1.5542  1.0375 -1.1243
 5318TIP3    H237590   6.525   6.937   7.802  0.2670  1.8348  1.3886
 5319TIP3   OH237591   0.900   2.136   6.901  0.0560 -0.0488  0.2052
 5319TIP3    H137592   0.907   2.197   6.828 -0.5265 -0.8275 -0.5224
 5319TIP3    H237593   0.808   2.140   6.927  0.0882 -0.3633  0.3763
 5320TIP3   OH237594   6.201   1.597   6.764  0.3868 -0.1163  0.1339
 5320TIP3    H137595   6.145   1.662   6.808 -0.6178 -0.6274 -0.3648
 5320TIP3    H237596   6.287   1.638   6.761 -0.1306  1.0130  0.2359
 5321TIP3   OH237597   1.134   0.573   6.217 -0.2915  0.3252 -0.0804
 5321TIP3    H137598   1.154   0.633   6.289 -1.7359 -0.6657  1.2130
 5321TIP3    H237599   1.167   0.488   6.247  0.0300  0.0908 -1.0649
 5322TIP3   OH237600   1.403   0.345   6.778  0.5785  0.3745 -0.5706
 5322TIP3    H137601   1.479   0.384   6.821  1.1306  0.3737 -1.5150
 5322TIP3    H237602   1.343   0.419   6.764  0.5500  0.4368 -0.1315
 5323TIP3   OH237603   0.545   4.613   1.369 -0.4071 -0.0834  0.3866
 5323TIP3    H137604   0.479   4.598   1.302 -1.0300  0.1102  0.9498
 5323TIP3    H237605   0.578   4.526   1.392 -1.2309 -0.2775  0.8627
 5324TIP3   OH237606   6.060   2.915   7.603 -0.3134 -0.1604  0.0146
 5324TIP3    H137607   6.021   2.989   7.651  2.1421 -0.5819  2.9188
 5324TIP3    H237608   6.112   2.957   7.534 -1.7593  0.5654 -0.7080
 5325TIP3   OH237609   4.108   4.875   0.451 -0.0901 -0.4500  0.1206
 5325TIP3    H137610   4.066   4.948   0.497 -1.6115 -1.4867  0.4535
 5325TIP3    H237611   4.062   4.798   0.483  3.0686 -1.8773  1.6423
 5326TIP3   OH237612   3.392   6.637   2.633  0.0340  0.3682  0.3997
 5326TIP3    H137613   3.336   6.686   2.572  1.4982  0.5295 -0.8927
 5326TIP3    H237614   3.337   6.622   2.710 -1.8319  0.3689 -0.8599
 5327TIP3   OH237615   5.566   4.542   1.791  0.6810  0.1233 -0.1766
 5327TIP3    H137616   5.631   4.552   1.860  1.5903  0.2398 -1.0289
 5327TIP3    H237617   5.558   4.630   1.753 -2.0821  0.8196  1.7143
 5328TIP3   OH237618   4.372   3.771   7.467  0.4486  0.0036 -0.0584
 5328TIP3    H137619   4.301   3.739   7.523 -1.2637 -1.8089 -3.0045
 5328TIP3    H237620   4.353   3.863   7.453  0.0327  0.0933  1.0224
 5329TIP3   OH237621   1.669   5.468   7.195  0.3114  0.4480 -0.2474
 5329TIP3    H137622   1.707   5.546   7.235  0.5523  0.1651  0.0723
 5329TIP3    H237623   1.614   5.503   7.124 -0.9665  1.0245  0.9724
 5330TIP3   OH237624   2.983   5.187   8.659 -0.5569 -0.0361 -0.4001
 5330TIP3    H137625   3.077   5.204   8.666 -0.3356 -0.6332 -1.6339
 5330TIP3    H237626   2.942   5.272   8.677  0.1824  0.1300  0.6035
 5331TIP3   OH237627   4.536   2.656   7.726  0.5634 -0.5528  0.0090
 5331TIP3    H137628   4.620   2.614   7.705  2.1689  2.0892  0.7320
 5331TIP3    H237629   4.560   2.730   7.783 -2.2787  0.3055  0.2128
 5332TIP3   OH237630   3.152   1.619   1.133  0.3888 -0.9475  0.3779
 5332TIP3    H137631   3.210   1.683   1.091 -0.4641 -0.6172 -0.3088
 5332TIP3    H237632   3.065   1.639   1.099 -0.1163 -1.5355  1.2870
 5333TIP3   OH237633   1.529   2.506   0.615  0.3618  0.0230 -0.4637
 5333TIP3    H137634   1.473   2.495   0.691 -0.9397  2.8090 -0.9177
 5333TIP3    H237635   1.485   2.457   0.545 -0.7661  0.9843 -0.4483
 5334TIP3   OH237636   4.498   4.323   0.256 -0.1454  0.3613  0.3886
 5334TIP3    H137637   4.536   4.382   0.191  1.3021  1.1613  1.8673
 5334TIP3    H237638   4.409   4.355   0.268  0.0225  1.0842 -0.1918
 5335TIP3   OH237639   2.895   4.940   1.160  0.8820  0.0826  0.1904
 5335TIP3    H137640   2.966   4.880   1.138  1.0242  0.7609 -1.3112
 5335TIP3    H237641   2.834   4.933   1.086 -0.4692 -0.2287  1.2822
 5336TIP3   OH237642   0.621   2.946   6.722 -0.0944  0.1941  0.7632
 5336TIP3    H137643   0.592   2.890   6.649 -0.5502  0.0376  1.0588
 5336TIP3    H237644   0.716   2.943   6.718 -0.0991 -0.8439  0.9456
 5337TIP3   OH237645   3.496   6.369   0.098  0.1134 -0.3769  0.4168
 5337TIP3    H137646   3.491   6.350   0.005 -1.7411  0.0055  0.3913
 5337TIP3    H237647   3.504   6.464   0.103 -1.4956 -0.2131  0.6144
 5338TIP3   OH237648   1.233   2.419   1.398 -0.2114 -0.1645  0.4642
 5338TIP3    H137649   1.161   2.480   1.414  0.1449  0.3861  0.0127
 5338TIP3    H237650   1.213   2.380   1.313  0.5934  0.8396 -0.2094
 5339TIP3   OH237651   5.884   4.823   1.866  0.0152 -0.1116  0.3701
 5339TIP3    H137652   5.924   4.866   1.942 -0.0664 -0.3768  0.5680
 5339TIP3    H237653   5.790   4.837   1.877  0.0423  0.3948 -0.0234
 5340TIP3   OH237654   2.253   0.284   7.976 -0.1521 -0.2984 -0.0632
 5340TIP3    H137655   2.349   0.288   7.974 -0.0634 -0.7212  1.3923
 5340TIP3    H237656   2.233   0.192   7.958 -0.2072 -0.4406  0.6778
 5341TIP3   OH237657   3.475   0.690   0.938 -0.1373 -0.5349  0.4831
 5341TIP3    H137658   3.400   0.638   0.910 -0.6178  0.3809  0.0183
 5341TIP3    H237659   3.494   0.658   1.026 -1.6608 -0.1672  0.9831
 5342TIP3   OH237660   3.538   6.244   0.799 -0.5330  0.6018  0.6803
 5342TIP3    H137661   3.617   6.191   0.786 -0.4159  0.7638  0.7404
 5342TIP3    H237662   3.485   6.192   0.860  0.1112  1.1074  1.6989
 5343TIP3   OH237663   0.917   1.828   7.143  0.0243 -0.5765 -0.1232
 5343TIP3    H137664   0.995   1.876   7.117  0.4359 -0.1714  1.7010
 5343TIP3    H237665   0.893   1.776   7.066  1.0092  0.6761 -1.3122
 5344TIP3   OH237666   5.958   1.092   7.203  0.6733 -0.0886 -0.0236
 5344TIP3    H137667   6.032   1.110   7.261  1.2583 -0.7359 -0.5545
 5344TIP3    H237668   5.980   1.009   7.161 -1.1449 -1.2440  1.1225
 5345TIP3   OH237669   3.777   0.628   7.442  0.2732 -0.0848 -0.5001
 5345TIP3    H137670   3.837   0.686   7.488 -1.0444  1.8444 -1.0959
 5345TIP3    H237671   3.741   0.572   7.510  0.4101  0.8486  0.3662
 5346TIP3   OH237672   3.691   0.681   6.389 -0.3419  0.2315  0.1385
 5346TIP3    H137673   3.659   0.769   6.366  2.0243  1.4657  1.1649
 5346TIP3    H237674   3.786   0.692   6.399  0.0966 -2.5678 -0.1006
 5347TIP3   OH237675   0.588   2.085   0.162  0.5363 -0.0254 -0.3320
 5347TIP3    H137676   0.629   2.171   0.158 -0.5497  0.5321  0.0654
 5347TIP3    H237677   0.506   2.095   0.113  0.2301 -0.7261  0.0151
 5348TIP3   OH237678   3.249   3.096   7.955 -0.3940  0.0877 -0.4886
 5348TIP3    H137679   3.197   3.016   7.951  0.3720 -0.3901 -1.2295
 5348TIP3    H237680   3.298   3.090   8.038  0.7841 -0.9514 -1.2255
 5349TIP3   OH237681   6.222   2.890   6.959  0.2854  0.5525 -0.2011
 5349TIP3    H137682   6.269   2.932   7.031  0.5201  1.4041 -0.8424
 5349TIP3    H237683   6.243   2.942   6.882  1.3910 -1.3230 -1.2417
 5350TIP3   OH237684   5.684   1.550   8.505  0.3004  0.5786 -0.3981
 5350TIP3    H137685   5.775   1.529   8.527  0.5245  1.5942 -0.2850
 5350TIP3    H237686   5.673   1.519   8.416  0.3522 -0.7274  0.0289
 5351TIP3   OH237687   6.484   0.246   7.717  0.3205 -0.6341  0.2884
 5351TIP3    H137688   6.544   0.313   7.685  0.0626 -0.3140  0.4723
 5351TIP3    H237689   6.402   0.263   7.670  0.6754 -1.7292 -0.7696
 5352TIP3   OH237690   6.586   2.908   1.556  0.3509  0.9173  0.6355
 5352TIP3    H137691   6.613   2.962   1.481 -0.7391  0.7450  0.0895
 5352TIP3    H237692   6.521   2.848   1.520  0.7730 -0.0701  1.4623
 5353TIP3   OH237693   5.208   3.567   1.927  0.2289  0.4637  0.7265
 5353TIP3    H137694   5.148   3.563   2.002 -1.3990 -0.8206 -0.5572
 5353TIP3    H237695   5.278   3.507   1.950 -1.2751 -1.5026  0.4685
 5354TIP3   OH237696   1.094   3.946   1.460  0.2160 -0.1326 -0.3308
 5354TIP3    H137697   1.155   3.921   1.390  1.0326 -1.6701  0.8599
 5354TIP3    H237698   1.150   3.964   1.535 -0.7629 -2.6451  1.1263
 5355TIP3   OH237699   6.110   0.530   7.128 -0.0071 -0.0106 -0.3487
 5355TIP3    H137700   6.054   0.465   7.170  1.9258 -1.0850  0.6763
 5355TIP3    H237701   6.131   0.592   7.197  0.5143  0.0710 -0.5760
 5356TIP3   OH237702   0.435   4.073   7.909  0.2758  0.2647 -0.0288
 5356TIP3    H137703   0.410   4.165   7.901  0.5542  0.4659  1.2152
 5356TIP3    H237704   0.355   4.024   7.889  0.5237  0.6915 -2.3508
 5357TIP3   OH237705   1.046   3.341   0.937 -0.1100 -0.0838  0.4170
 5357TIP3    H137706   1.009   3.260   0.902 -0.6255  0.3193  0.0137
 5357TIP3    H237707   1.022   3.409   0.873  0.1019  0.4334  0.8710
 5358TIP3   OH237708   2.574   4.155   1.097  0.1291 -0.1009 -0.0111
 5358TIP3    H137709   2.513   4.215   1.140  0.9517  1.9577 -1.5498
 5358TIP3    H237710   2.520   4.108   1.033  0.1571  2.3805 -2.0319
 5359TIP3   OH237711   1.930   3.080   0.751  0.3759  0.4012 -0.6715
 5359TIP3    H137712   1.980   3.160   0.764  0.1718  0.4353 -0.0799
 5359TIP3    H237713   1.913   3.047   0.839 -1.6516  1.0095 -0.7766
 5360TIP3   OH237714   0.827   0.204   0.918  0.5020 -0.0093 -0.4523
 5360TIP3    H137715   0.740   0.241   0.934  1.1372  0.7725  1.4156
 5360TIP3    H237716   0.887   0.261   0.966  1.7351 -2.3278  0.9325
 5361TIP3   OH237717   0.040   0.988   6.258 -0.6559  0.2904 -0.0415
 5361TIP3    H137718   0.063   0.940   6.337 -0.1195  1.5661  0.6188
 5361TIP3    H237719  -0.017   1.058   6.289  0.3923  1.4364 -0.5965
 5362TIP3   OH237720   5.539   0.630   8.385 -0.6714 -0.0609 -0.0908
 5362TIP3    H137721   5.575   0.716   8.363 -0.9254  0.4177  1.2672
 5362TIP3    H237722   5.613   0.570   8.378  1.1152  1.1769  4.4771
 5363TIP3   OH237723   1.816   1.491   1.851 -0.1244  0.2230 -0.0906
 5363TIP3    H137724   1.799   1.401   1.878 -1.0338  0.5187  0.3664
 5363TIP3    H237725   1.747   1.542   1.893  1.2765  1.3615  0.9595
 5364TIP3   OH237726   0.270   2.563   0.359  0.4052 -0.1194  0.6154
 5364TIP3    H137727   0.200   2.499   0.347 -0.2572  0.1614  2.6280
 5364TIP3    H237728   0.307   2.542   0.445 -0.1477  2.4507  1.5630
 5365TIP3   OH237729   5.151   5.902   0.423 -0.0462  0.1920  0.1195
 5365TIP3    H137730   5.209   5.831   0.450  0.8782  0.3351 -1.3605
 5365TIP3    H237731   5.063   5.867   0.435  0.2827 -0.0627  2.3559
 5366TIP3   OH237732   2.404   4.327   1.354 -0.2844 -0.0996  0.8469
 5366TIP3    H137733   2.500   4.319   1.349 -0.3056 -0.6471  1.3127
 5366TIP3    H237734   2.374   4.308   1.265 -0.1459 -2.7883  1.2946
 5367TIP3   OH237735   5.276   6.021   8.387  0.3804  0.1889 -0.4246
 5367TIP3    H137736   5.292   6.105   8.344 -0.0035  0.7598  0.5186
 5367TIP3    H237737   5.363   5.982   8.398  0.5583  0.4549 -0.8883
 5368TIP3   OH237738   5.817   1.409   8.217  0.2067 -0.2309 -0.4599
 5368TIP3    H137739   5.879   1.387   8.286 -0.4063 -0.7073 -0.0550
 5368TIP3    H237740   5.859   1.480   8.168  0.8831 -0.2690  0.0637
 5369TIP3   OH237741   6.540   5.143   7.464  0.0828  0.0224  0.6811
 5369TIP3    H137742   6.513   5.232   7.484 -0.4175  0.1777 -0.5854
 5369TIP3    H237743   6.636   5.146   7.464  0.0832  0.8949 -0.6462
 5370TIP3   OH237744   4.968   1.958   6.934 -0.0250  0.5341 -0.3055
 5370TIP3    H137745   5.025   1.999   6.870 -0.0294  1.0461  0.0094
 5370TIP3    H237746   4.963   1.866   6.907  0.2006  0.6832 -0.8651
 5371TIP3   OH237747   3.116   4.427   6.680  0.1054  0.1808  0.5276
 5371TIP3    H137748   3.021   4.417   6.670  0.1807 -0.1476  0.1209
 5371TIP3    H237749   3.145   4.464   6.596  0.6757 -2.1544 -0.3644
 5372TIP3   OH237750   2.467   3.082   1.717 -0.0879  0.1822  0.1595
 5372TIP3    H137751   2.426   3.007   1.673 -2.0445  1.4405 -0.3103
 5372TIP3    H237752   2.471   3.056   1.809 -0.7779 -0.4907  0.0119
 5373TIP3   OH237753   1.598   1.121   7.747 -0.3420 -0.3025 -0.2396
 5373TIP3    H137754   1.665   1.165   7.800 -0.0317  0.2804 -1.0951
 5373TIP3    H237755   1.522   1.179   7.751 -0.7699 -0.8983  0.6203
 5374TIP3   OH237756   4.572   5.052   1.071  0.1530  0.1931  1.1394
 5374TIP3    H137757   4.627   5.073   1.147 -0.4915 -0.5617  1.8310
 5374TIP3    H237758   4.565   4.957   1.072  0.2005  0.1672  0.0747
 5375TIP3   OH237759   3.169   3.870   8.055  0.3047 -0.1805  0.4988
 5375TIP3    H137760   3.145   3.787   8.014 -0.8071  0.1725  0.4131
 5375TIP3    H237761   3.173   3.850   8.149  0.3526 -0.4089  0.4476
 5376TIP3   OH237762   0.843   1.433   6.258  0.2036 -0.1751 -0.3864
 5376TIP3    H137763   0.879   1.492   6.325 -0.9222 -1.2168  1.2318
 5376TIP3    H237764   0.916   1.375   6.235  0.1563 -1.0238  1.4117
 5377TIP3   OH237765   4.784   6.082   0.126 -0.0223 -0.1757 -0.7119
 5377TIP3    H137766   4.808   6.012   0.187  0.8516 -1.2268 -2.1962
 5377TIP3    H237767   4.709   6.048   0.079 -1.8301  1.3478  0.9045
 5378TIP3   OH237768   1.464   2.553   1.270  0.1050 -0.0210 -0.0665
 5378TIP3    H137769   1.377   2.530   1.304 -1.2914  1.2122 -2.5577
 5378TIP3    H237770   1.494   2.475   1.224 -0.3273  0.0312 -0.4326
 5379TIP3   OH237771   2.944   6.802   0.705 -0.1657 -0.1118 -0.0411
 5379TIP3    H137772   3.004   6.727   0.694  0.9786  0.8140 -0.2997
 5379TIP3    H237773   2.988   6.874   0.661 -1.2810  0.7112  0.1668
 5380TIP3   OH237774   1.324   5.389   1.073 -0.1452 -0.2994  0.1654
 5380TIP3    H137775   1.263   5.411   1.002  2.1319  0.4332 -1.6945
 5380TIP3    H237776   1.381   5.465   1.081  0.4825 -0.9002  1.9411
 5381TIP3   OH237777   0.433   5.323   7.573  0.3155  0.3063  0.5391
 5381TIP3    H137778   0.464   5.304   7.484 -1.6018  1.4200 -0.4127
 5381TIP3    H237779   0.448   5.416   7.585  0.5870  0.1612  1.4335
 5382TIP3   OH237780   1.184   6.841   7.716 -0.6144  0.6681  0.2826
 5382TIP3    H137781   1.171   6.879   7.629 -1.3431  3.8284  1.6401
 5382TIP3    H237782   1.279   6.849   7.731 -0.3605 -0.6515 -0.4991
 5383TIP3   OH237783   5.999   3.032   0.551  0.2489  0.9699  0.1197
 5383TIP3    H137784   5.976   2.974   0.624 -0.7519  1.1315 -0.0635
 5383TIP3    H237785   6.072   3.085   0.585  0.9256 -0.1123  0.4208
 5384TIP3   OH237786   6.863   5.591   7.600 -0.2926 -0.5524  0.9634
 5384TIP3    H137787   6.941   5.646   7.610 -0.0131 -0.4659 -1.1876
 5384TIP3    H237788   6.798   5.649   7.559 -1.0174 -1.0152  1.4281
 5385TIP3   OH237789   4.435   0.189   7.535  0.2012  0.1794  0.4994
 5385TIP3    H137790   4.409   0.275   7.502  0.7551  1.0713  2.2422
 5385TIP3    H237791   4.361   0.161   7.589  0.1686 -0.2921  0.2170
 5386TIP3   OH237792   3.801   4.767   1.586  0.5137 -0.3757  0.4707
 5386TIP3    H137793   3.739   4.826   1.544  1.0561 -1.6397 -2.3118
 5386TIP3    H237794   3.768   4.679   1.566  0.0294 -1.1507  4.0016
 5387TIP3   OH237795   0.712   5.868   0.678 -0.3332  0.8380  0.1105
 5387TIP3    H137796   0.726   5.886   0.585  0.6018  0.8515  0.2361
 5387TIP3    H237797   0.755   5.941   0.723  1.3848 -0.3686  0.5789
 5388TIP3   OH237798   5.198   1.495   0.452  0.2764  0.3603  0.0522
 5388TIP3    H137799   5.257   1.546   0.397 -0.8132  0.3847 -1.1287
 5388TIP3    H237800   5.255   1.456   0.518  1.4942  1.0042 -0.5844
 5389TIP3   OH237801   1.973   3.674   0.575 -0.1348 -0.3744  0.1789
 5389TIP3    H137802   1.889   3.649   0.538 -1.6212  3.0716  0.8451
 5389TIP3    H237803   2.023   3.707   0.500  0.4643 -1.8471 -0.1113
 5390TIP3   OH237804   3.609   3.417   7.631 -0.1177 -0.3498 -0.2769
 5390TIP3    H137805   3.562   3.486   7.583  0.9727  0.5209 -0.1266
 5390TIP3    H237806   3.540   3.355   7.656 -1.0387  0.3645 -0.9440
 5391TIP3   OH237807   6.499   0.150   2.382  0.1278 -0.0311  0.0369
 5391TIP3    H137808   6.591   0.159   2.406  0.7648  1.8451 -2.7558
 5391TIP3    H237809   6.456   0.226   2.421 -0.0034 -0.1763  0.1820
 5392TIP3   OH237810   3.396   4.204   1.440  0.1055  0.7717  0.0133
 5392TIP3    H137811   3.480   4.206   1.485  0.3271 -1.8931 -0.0869
 5392TIP3    H237812   3.332   4.229   1.508  0.5640 -1.8829  1.5764
 5393TIP3   OH237813   1.873   2.787   8.643  0.0858  0.1019 -0.2451
 5393TIP3    H137814   1.846   2.725   8.574  1.6892 -0.3404 -0.5230
 5393TIP3    H237815   1.795   2.799   8.697  0.0130 -3.1832  0.5744
 5394TIP3   OH237816   0.325   2.698   6.907 -0.3049 -0.1481  0.4451
 5394TIP3    H137817   0.313   2.782   6.862  1.2814  0.8069  1.6698
 5394TIP3    H237818   0.365   2.722   6.991  0.5864 -2.1546  0.6441
 5395TIP3   OH237819   1.438   0.757   8.565 -0.0013 -0.5276 -0.6552
 5395TIP3    H137820   1.376   0.726   8.499  0.3406  0.5230 -1.4947
 5395TIP3    H237821   1.385   0.805   8.628 -0.1906 -0.5974 -0.7600
 5396TIP3   OH237822   5.200   2.393   7.965  0.4704 -0.4739 -0.0124
 5396TIP3    H137823   5.154   2.474   7.990  1.4113 -0.3355  1.3525
 5396TIP3    H237824   5.251   2.369   8.042 -0.0274 -2.5684 -0.2671
 5397TIP3   OH237825   0.622   6.883   2.488  0.0397 -0.3682  0.0057
 5397TIP3    H137826   0.693   6.826   2.518 -0.6725 -1.4028 -0.2348
 5397TIP3    H237827   0.546   6.826   2.484 -0.5353  0.4398 -0.9224
 5398TIP3   OH237828   4.432   5.698   2.769  0.5361  0.3843 -0.2094
 5398TIP3    H137829   4.492   5.764   2.804  1.6754 -0.7375  0.0029
 5398TIP3    H237830   4.486   5.643   2.713  0.4915 -2.5032  2.3237
 5399TIP3   OH237831   2.368   6.186   8.460 -0.0560 -0.0838  0.0215
 5399TIP3    H137832   2.404   6.181   8.548  0.2535 -0.6722 -0.1311
 5399TIP3    H237833   2.442   6.165   8.402 -0.0504  1.1110 -0.4234
 5400TIP3   OH237834   2.219   2.588   0.691 -0.3427  0.6053 -0.0937
 5400TIP3    H137835   2.301   2.629   0.718  0.2041 -1.2386  1.2076
 5400TIP3    H237836   2.238   2.495   0.688 -2.6251  0.0128  1.2658
 5401TIP3   OH237837   2.296   3.291   1.609 -0.1719 -0.2682  0.0590
 5401TIP3    H137838   2.366   3.247   1.656 -0.4909  0.2844  1.0828
 5401TIP3    H237839   2.321   3.384   1.609 -0.0340 -0.2948 -1.1291
 5402TIP3   OH237840   6.747   0.184   1.009  0.2643 -0.9510  0.2600
 5402TIP3    H137841   6.783   0.271   1.026 -0.7827 -0.3625 -0.3979
 5402TIP3    H237842   6.808   0.143   0.948  1.2276 -1.0341  1.2499
 5403TIP3   OH237843   4.419   5.568   8.349 -0.2750 -0.0561 -0.1624
 5403TIP3    H137844   4.327   5.565   8.322  0.1584  3.0074 -2.5345
 5403TIP3    H237845   4.467   5.537   8.271  0.7717 -0.3491  0.5787
 5404TIP3   OH237846   6.046   6.184   2.080 -0.2667 -0.4358  0.4442
 5404TIP3    H137847   5.993   6.108   2.057 -1.3054  0.2614  0.4901
 5404TIP3    H237848   6.026   6.249   2.013  0.3391 -0.0700  0.6091
 5405TIP3   OH237849   2.916   4.569   0.925  0.1369  0.5785  0.1480
 5405TIP3    H137850   2.896   4.660   0.948  0.2084  0.5232  0.4326
 5405TIP3    H237851   2.990   4.546   0.980  0.9066  0.7322 -0.8002
 5406TIP3   OH237852   4.329   1.092   2.297 -0.6748  0.0429  0.0063
 5406TIP3    H137853   4.393   1.035   2.255  0.0323 -0.3278  1.5163
 5406TIP3    H237854   4.380   1.167   2.329 -1.0907  0.0749  0.6246
 5407TIP3   OH237855   0.100   5.909   0.129 -0.5538  0.5332  0.4089
 5407TIP3    H137856   0.195   5.910   0.117 -0.5666 -0.5894  0.1096
 5407TIP3    H237857   0.087   5.931   0.221  0.0318  0.0919  0.6031
 5408TIP3   OH237858   5.637   1.441   6.940  0.3221 -0.5593  0.7623
 5408TIP3    H137859   5.676   1.356   6.962 -0.1599 -1.1967 -0.7597
 5408TIP3    H237860   5.686   1.471   6.863  0.1849  0.3414  1.0085
 5409TIP3   OH237861   3.117   5.612   7.833 -0.4125  0.2006  0.4186
 5409TIP3    H137862   3.160   5.527   7.824 -1.4273 -0.2769 -0.1558
 5409TIP3    H237863   3.025   5.594   7.815 -0.9444  1.1071  2.0408
 5410TIP3   OH237864   1.777   6.771   0.064 -0.2277  0.4520  0.2986
 5410TIP3    H137865   1.747   6.826  -0.009 -0.1982  0.6645  0.4476
 5410TIP3    H237866   1.705   6.709   0.078  0.1824 -0.2620 -0.5874
 5411TIP3   OH237867   1.092   5.462   0.117 -0.0674 -0.1218 -0.2212
 5411TIP3    H137868   1.086   5.383   0.064  0.4790 -0.2813 -0.0577
 5411TIP3    H237869   1.156   5.440   0.186 -0.8213  0.0556  0.5491
 5412TIP3   OH237870   6.287   0.467   0.529  0.5005  0.5111  0.5447
 5412TIP3    H137871   6.206   0.418   0.517 -0.6110  1.6682  2.7609
 5412TIP3    H237872   6.332   0.460   0.445 -0.6861 -2.2631  0.0324
 5413TIP3   OH237873   3.530   2.524   1.823  0.1255  0.6334  0.1396
 5413TIP3    H137874   3.446   2.570   1.818 -0.1405  0.0356 -1.6442
 5413TIP3    H237875   3.506   2.431   1.826  0.7077  0.5025  1.4538
 5414TIP3   OH237876   4.448   1.470   8.030 -0.1735 -0.2954 -0.1473
 5414TIP3    H137877   4.421   1.486   8.120  0.6671 -0.9625  0.2427
 5414TIP3    H237878   4.367   1.476   7.979 -0.9553 -1.5595  0.8766
 5415TIP3   OH237879   0.001   2.023   7.955  0.0693 -0.1644 -0.2886
 5415TIP3    H137880   0.066   1.983   7.897  1.1053 -0.5554  1.0746
 5415TIP3    H237881  -0.058   1.952   7.977 -1.0315  0.2631 -1.7705
 5416TIP3   OH237882   1.366   3.769   7.431 -0.7078 -0.4053 -0.3634
 5416TIP3    H137883   1.313   3.796   7.506 -0.6008  1.1151 -0.8071
 5416TIP3    H237884   1.409   3.689   7.461 -3.6938 -2.1087 -0.2175
 5417TIP3   OH237885   5.418   4.149   1.828  0.2107  0.0332  0.2403
 5417TIP3    H137886   5.500   4.166   1.781 -0.5409 -0.0353 -1.1490
 5417TIP3    H237887   5.372   4.233   1.825 -0.4508 -0.3459 -0.3986
 5418TIP3   OH237888   4.914   1.849   7.177 -0.0248 -0.0147 -0.4486
 5418TIP3    H137889   4.887   1.763   7.146  3.3166 -0.8141 -1.5636
 5418TIP3    H237890   4.934   1.898   7.097  0.1591  1.0740  0.2460
 5419TIP3   OH237891   0.956   2.354   1.794 -0.1626  0.1971 -0.3158
 5419TIP3    H137892   0.977   2.440   1.758 -1.6192  0.7272  0.0055
 5419TIP3    H237893   0.862   2.344   1.778 -0.7245  0.1017  2.4940
 5420TIP3   OH237894   5.938   2.992   0.223  0.6517 -0.0693  0.0284
 5420TIP3    H137895   5.916   2.906   0.187 -3.4513  1.1206 -0.7478
 5420TIP3    H237896   5.904   2.991   0.313  2.1019  0.2253  0.6092
 5421TIP3   OH237897   1.398   6.811   0.190 -0.3468  0.3054 -0.2759
 5421TIP3    H137898   1.328   6.797   0.126 -0.6333  0.1840  0.0617
 5421TIP3    H237899   1.441   6.892   0.161 -2.2748  1.8720  0.9489
 5422TIP3   OH237900   5.090   3.558   2.289 -0.2327 -0.0125 -0.0100
 5422TIP3    H137901   5.139   3.639   2.277 -0.7544  0.2822 -0.1509
 5422TIP3    H237902   5.118   3.525   2.374 -0.4739  0.6273  0.3192
 5423TIP3   OH237903   4.460   1.453   0.853 -0.0708  0.3965  0.4679
 5423TIP3    H137904   4.520   1.476   0.924 -0.2002 -0.6471  0.9247
 5423TIP3    H237905   4.426   1.537   0.822  0.0307  0.8620  1.5968
 5424TIP3   OH237906   5.659   5.330   2.081 -0.1141  0.5029  0.3083
 5424TIP3    H137907   5.694   5.288   2.159  0.7798  2.3903  0.9854
 5424TIP3    H237908   5.722   5.399   2.060 -0.5131  0.2515 -1.8961
 5425TIP3   OH237909   3.563   3.145   1.310 -0.7132 -0.4305 -0.0459
 5425TIP3    H137910   3.522   3.209   1.252 -0.4396 -0.7471 -0.5892
 5425TIP3    H237911   3.610   3.086   1.252 -0.0977 -0.5166  0.5248
 5426TIP3   OH237912   0.272   0.918   1.826  0.0455  0.0891  0.4753
 5426TIP3    H137913   0.314   0.836   1.799  1.1996  0.8265 -0.0525
 5426TIP3    H237914   0.180   0.894   1.842  0.2330 -1.1806 -0.2164
 5427TIP3   OH237915   2.325   0.070   2.300  0.0785 -0.2121 -0.1077
 5427TIP3    H137916   2.232   0.048   2.298 -1.1349  3.9756  0.0152
 5427TIP3    H237917   2.355   0.058   2.210 -1.0206 -0.0948 -0.4990
 5428TIP3   OH237918   0.155   5.179   6.690  0.1985  0.7357  0.4241
 5428TIP3    H137919   0.060   5.162   6.689  0.3606 -0.2824  0.5863
 5428TIP3    H237920   0.167   5.252   6.630 -0.5134 -0.2099 -0.9152
 5429TIP3   OH237921   0.005   2.672   6.284 -0.1429  0.7270 -0.2223
 5429TIP3    H137922  -0.072   2.631   6.245  0.7900 -3.4563  1.7631
 5429TIP3    H237923   0.079   2.630   6.240  1.0054  1.9271  0.4899
 5430TIP3   OH237924   3.724   1.827   1.447 -0.1517  0.0298  0.6700
 5430TIP3    H137925   3.645   1.821   1.501 -1.2993 -1.2818 -1.0262
 5430TIP3    H237926   3.790   1.777   1.496 -1.0488 -0.7961  1.0779
 5431TIP3   OH237927   3.554   1.659   7.346  0.2090 -0.2705 -0.3356
 5431TIP3    H137928   3.616   1.717   7.301  1.0547 -0.6606  0.2900
 5431TIP3    H237929   3.485   1.717   7.378  0.6648  0.2894 -0.3492
 5432TIP3   OH237930   6.182   1.054   1.377  0.1068 -0.0679 -0.0610
 5432TIP3    H137931   6.160   0.976   1.325  2.2004 -0.4717 -0.4116
 5432TIP3    H237932   6.227   1.021   1.454  0.2955  0.7585  0.1980
 5433TIP3   OH237933   3.902   3.730   6.654 -0.2267 -0.1405 -0.6029
 5433TIP3    H137934   3.988   3.687   6.653  0.5396  1.1064  1.7845
 5433TIP3    H237935   3.840   3.660   6.674  0.3386 -0.8964 -1.4161
 5434TIP3   OH237936   4.686   3.148   8.401  0.2492 -0.5092 -0.2880
 5434TIP3    H137937   4.707   3.060   8.434 -0.7648 -0.7990 -0.3743
 5434TIP3    H237938   4.771   3.188   8.385  0.7343 -1.5510 -0.4419
 5435TIP3   OH237939   1.696   4.054   7.320 -0.6314  0.2835 -0.5631
 5435TIP3    H137940   1.692   3.981   7.382 -0.0841 -0.3510 -1.2438
 5435TIP3    H237941   1.670   4.131   7.370  1.9062  0.1821  1.0741
 5436TIP3   OH237942   2.767   4.935   2.571  0.5994 -0.7013 -0.0632
 5436TIP3    H137943   2.725   4.896   2.648  2.0564 -0.8606  0.6911
 5436TIP3    H237944   2.836   4.872   2.547  1.2879  0.1786 -0.4319
 5437TIP3   OH237945   0.486   1.669   1.555 -0.2441 -0.3026 -0.4397
 5437TIP3    H137946   0.534   1.586   1.547 -1.3703 -1.2258  1.5053
 5437TIP3    H237947   0.554   1.735   1.567  0.6513 -1.0523 -1.2263
 5438TIP3   OH237948   5.047   3.365   0.565 -0.6445  0.4817 -0.3882
 5438TIP3    H137949   5.021   3.408   0.647 -0.3750  1.6954 -0.9209
 5438TIP3    H237950   4.986   3.400   0.499  0.4307  1.0742 -1.0875
 5439TIP3   OH237951   2.544   5.772   2.514  0.7550 -0.2267 -0.8504
 5439TIP3    H137952   2.625   5.724   2.528 -0.0558 -1.3620  0.1153
 5439TIP3    H237953   2.480   5.728   2.569 -0.8479 -0.2037 -2.5999
 5440TIP3   OH237954   0.168   5.357   0.946  0.3023  0.2551  0.1173
 5440TIP3    H137955   0.229   5.295   0.986  0.3052  0.9213  1.1811
 5440TIP3    H237956   0.095   5.303   0.917  0.7156 -0.3594  0.2032
 5441TIP3   OH237957   1.087   5.334   1.459 -0.6365 -0.3031  0.1649
 5441TIP3    H137958   1.129   5.397   1.518  1.2932 -1.7834  0.4582
 5441TIP3    H237959   1.006   5.311   1.504 -0.5659  0.7110  0.8550
 5442TIP3   OH237960   6.292   4.967   1.850 -0.7543 -0.3273  0.0261
 5442TIP3    H137961   6.314   4.958   1.758 -0.5932 -0.1675  0.0480
 5442TIP3    H237962   6.352   5.035   1.883 -1.2941  0.1288  0.0831
 5443TIP3   OH237963   6.026   0.665   0.586 -0.6868  0.0589  0.0871
 5443TIP3    H137964   5.968   0.656   0.661  1.9245 -0.6925  2.1736
 5443TIP3    H237965   6.041   0.575   0.557  0.0470  0.1682  0.1122
 5444TIP3   OH237966   0.056   2.604   7.788  0.0503 -0.0440 -0.0022
 5444TIP3    H137967   0.099   2.672   7.840  0.3552 -0.1819 -0.0722
 5444TIP3    H237968   0.126   2.565   7.737 -0.2637  0.1724 -0.6151
 5445TIP3   OH237969   5.478   0.793   7.808 -0.1628  0.0354  0.4681
 5445TIP3    H137970   5.478   0.765   7.900  0.5916 -0.2454  0.3896
 5445TIP3    H237971   5.386   0.807   7.787 -0.4718 -1.2705  0.8547
 5446TIP3   OH237972   0.434   1.989   7.295 -0.7767  0.1770  0.1256
 5446TIP3    H137973   0.522   1.962   7.270 -1.9626 -0.9141 -3.4493
 5446TIP3    H237974   0.434   2.084   7.281 -0.0231  0.2905  0.8021
 5447TIP3   OH237975   1.051   0.440   8.504 -0.0503  0.3709  0.2088
 5447TIP3    H137976   1.053   0.517   8.561 -1.4847 -0.2657  1.1825
 5447TIP3    H237977   1.080   0.368   8.561 -2.5396 -0.4688  0.5493
 5448TIP3   OH237978   3.579   5.066   0.977  0.0010 -0.3437 -0.4486
 5448TIP3    H137979   3.637   4.995   1.004  0.7242  0.4307  0.0597
 5448TIP3    H237980   3.506   5.022   0.934 -0.0751 -1.4725  0.7775
 5449TIP3   OH237981   4.749   0.759   6.960  0.1789 -0.3499  0.3393
 5449TIP3    H137982   4.830   0.790   7.000  0.5549 -1.5575  0.5542
 5449TIP3    H237983   4.706   0.838   6.927  1.8994  0.2339 -0.6273
 5450TIP3   OH237984   2.510   0.833   8.385  0.1283  0.0104  0.1902
 5450TIP3    H137985   2.605   0.832   8.372  0.1601 -0.9386  0.3738
 5450TIP3    H237986   2.497   0.887   8.463  0.6304 -0.7748  0.8352
 5451TIP3   OH237987   6.612   1.353   0.420  0.0295  0.0258  0.1401
 5451TIP3    H137988   6.523   1.340   0.451 -0.4239  1.4932 -0.4590
 5451TIP3    H237989   6.611   1.324   0.329  0.2040 -0.1213  0.1845
 5452TIP3   OH237990   4.811   2.216   6.713  0.1474  0.4878  0.2497
 5452TIP3    H137991   4.857   2.163   6.648 -2.1652  0.0778 -1.1469
 5452TIP3    H237992   4.761   2.280   6.662 -0.2444  1.4083  1.7218
 5453TIP3   OH237993   1.112   1.094   8.474  0.4102  0.1588 -0.2688
 5453TIP3    H137994   1.111   1.097   8.378  1.9978 -0.8405 -0.3625
 5453TIP3    H237995   1.026   1.124   8.500 -0.2344 -0.0260 -2.0391
 5454TIP3   OH237996   0.718   0.796   0.242  0.4104  0.0049 -0.5107
 5454TIP3    H137997   0.802   0.834   0.267 -0.0735  1.1059 -0.4996
 5454TIP3    H237998   0.655   0.835   0.303 -0.5285  1.4120 -2.2809
 5455TIP3   OH237999   1.361   4.412   1.275  0.3910 -0.3091  0.3107
 5455TIP3    H138000   1.447   4.418   1.317  0.1324 -0.4518  0.8718
 5455TIP3    H238001   1.298   4.422   1.347 -0.0927  1.4550 -0.2973
 5456TIP3   OH238002   2.757   0.865   0.711 -0.5184  0.0769 -0.8767
 5456TIP3    H138003   2.673   0.892   0.673 -0.3798  0.9096 -0.6253
 5456TIP3    H238004   2.743   0.871   0.806 -0.2663 -0.0717 -0.8293
 5457TIP3   OH238005   2.083   3.873   2.508 -0.2481  0.1221 -0.3962
 5457TIP3    H138006   2.127   3.946   2.464  0.5163  0.3177  0.6479
 5457TIP3    H238007   2.153   3.809   2.524 -0.2317  0.5487  1.5278
 5458TIP3   OH238008   6.460   6.184   0.340  0.1915 -0.3558 -0.0000
 5458TIP3    H138009   6.416   6.218   0.417 -1.0742 -1.9806  0.0557
 5458TIP3    H238010   6.552   6.176   0.366  0.2922  1.6638  0.3861
 5459TIP3   OH238011   4.384   4.040   1.079  0.0339  0.1074  0.3119
 5459TIP3    H138012   4.356   4.120   1.124  2.7667  0.8726  0.8619
 5459TIP3    H238013   4.462   4.012   1.128  1.0889 -1.0107 -1.8946
 5460TIP3   OH238014   2.784   1.546   0.703  0.1320  0.1852 -0.2805
 5460TIP3    H138015   2.733   1.478   0.747  0.6229 -1.2407 -1.8124
 5460TIP3    H238016   2.863   1.556   0.756 -0.2167 -0.0023  0.2764
 5461TIP3   OH238017   2.472   2.333   0.709 -0.2304  0.2842  0.4775
 5461TIP3    H138018   2.510   2.419   0.729 -1.2074  0.8163  0.1103
 5461TIP3    H238019   2.503   2.314   0.620  1.1077 -0.3927  1.0642
 5462TIP3   OH238020   4.083   1.829   1.506  0.2244  0.5781 -0.0338
 5462TIP3    H138021   4.159   1.852   1.452  1.9265 -2.1991  0.9884
 5462TIP3    H238022   4.019   1.793   1.444  1.3830 -0.7711 -0.4818
 5463TIP3   OH238023   6.730   4.548   0.999  0.1510  0.4293  0.3008
 5463TIP3    H138024   6.659   4.602   0.963 -0.2959  1.0820  2.0618
 5463TIP3    H238025   6.687   4.466   1.022 -0.1344  0.9262  1.6292
 5464TIP3   OH238026   2.230   5.356   8.108  0.5672  0.5929  0.0458
 5464TIP3    H138027   2.175   5.420   8.063 -0.7054 -0.4660  0.0265
 5464TIP3    H238028   2.170   5.285   8.132  1.7340 -0.1320  0.9723
 5465TIP3   OH238029   4.616   2.653   2.187 -0.2913  0.4950 -0.4178
 5465TIP3    H138030   4.678   2.726   2.179  0.5584 -0.1571  0.1023
 5465TIP3    H238031   4.565   2.673   2.265 -0.3163  0.7196 -0.4900
 5466TIP3   OH238032   0.620   2.595   6.720 -0.1461 -0.2246 -0.1098
 5466TIP3    H138033   0.608   2.521   6.660 -0.7931 -0.0916 -0.1545
 5466TIP3    H238034   0.613   2.672   6.664  2.7106 -0.1054 -0.4621
 5467TIP3   OH238035   1.129   2.704   7.903  0.4327 -0.7586  0.5292
 5467TIP3    H138036   1.169   2.665   7.826  0.7543  0.0512  0.2768
 5467TIP3    H238037   1.177   2.666   7.977  2.0298  0.5477  0.2217
 5468TIP3   OH238038   4.016   3.452   8.509  0.1312 -1.2616 -0.2665
 5468TIP3    H138039   3.955   3.403   8.564  0.4775  0.8104  2.1287
 5468TIP3    H238040   4.102   3.416   8.531  0.2015 -0.9198  0.0302
 5469TIP3   OH238041   6.822   4.631   0.577 -0.2630 -0.2380  0.2585
 5469TIP3    H138042   6.913   4.618   0.552 -0.7150 -1.6193 -0.7999
 5469TIP3    H238043   6.775   4.559   0.535 -1.9978  1.0370 -0.1192
 5470TIP3   OH238044   6.762   5.385   6.583  0.3782  0.0137  0.6757
 5470TIP3    H138045   6.724   5.298   6.590 -0.2506  0.0569 -1.4505
 5470TIP3    H238046   6.849   5.371   6.546  0.0200  0.2905 -0.3171
 5471TIP3   OH238047   3.121   6.552   2.064  0.0588  0.8029 -0.1370
 5471TIP3    H138048   3.122   6.574   1.971  0.8635 -1.0415 -0.6084
 5471TIP3    H238049   3.087   6.463   2.067  2.9719 -0.3704  1.0081
 5472TIP3   OH238050   3.197   6.366   2.898  0.4322 -0.1306 -0.1531
 5472TIP3    H138051   3.290   6.373   2.875  0.6470 -1.7045  0.1334
 5472TIP3    H238052   3.197   6.364   2.994 -0.0554  1.3901 -0.0831
 5473TIP3   OH238053   1.850   3.344   1.528 -0.3402 -0.1492  0.1731
 5473TIP3    H138054   1.781   3.317   1.588 -0.2774  0.3445  0.4771
 5473TIP3    H238055   1.931   3.332   1.578 -0.1551 -1.1926 -0.3510
 5474TIP3   OH238056   0.083   4.523   7.155  0.2072  0.0776  0.5842
 5474TIP3    H138057   0.022   4.557   7.089  1.7500 -0.0569 -0.9847
 5474TIP3    H238058   0.105   4.435   7.123  0.7256 -0.1193  1.4627
 5475TIP3   OH238059   4.392   6.768   2.106  0.2844  0.3454  0.3496
 5475TIP3    H138060   4.443   6.806   2.178 -0.1834 -0.9776  1.4219
 5475TIP3    H238061   4.338   6.701   2.148 -2.2012  1.5196 -0.7579
 5476TIP3   OH238062   3.421   4.370   2.035 -0.1897 -0.2422 -0.2930
 5476TIP3    H138063   3.489   4.429   2.068  0.3332 -1.2177  0.4289
 5476TIP3    H238064   3.449   4.349   1.946  0.6419 -0.8723  0.0972
 5477TIP3   OH238065   6.402   6.299   6.516  0.0612 -0.0916 -0.3238
 5477TIP3    H138066   6.332   6.274   6.456  0.1573 -0.1961 -0.3928
 5477TIP3    H238067   6.477   6.318   6.460 -0.1827  0.9484 -0.3126
 5478TIP3   OH238068   0.318   2.157   0.424  0.0539  0.0592  0.1455
 5478TIP3    H138069   0.265   2.230   0.457 -1.2341 -0.1324 -1.3837
 5478TIP3    H238070   0.275   2.079   0.459  0.0916 -0.0520 -0.0592
 5479TIP3   OH238071   2.734   3.382   2.295  0.3007  0.0900  0.2270
 5479TIP3    H138072   2.735   3.294   2.331  0.8243  0.4577  1.1347
 5479TIP3    H238073   2.728   3.440   2.371  1.7053  0.8970 -0.2400
 5480TIP3   OH238074   1.209   5.374   0.369 -0.2173 -0.5664  0.3320
 5480TIP3    H138075   1.132   5.326   0.398 -0.6541  0.1988  0.4502
 5480TIP3    H238076   1.279   5.309   0.369 -0.9195 -1.3401 -0.0524
 5481TIP3   OH238077   5.519   4.837   7.767 -0.3434  0.0370  0.5981
 5481TIP3    H138078   5.497   4.803   7.680  2.3829 -0.3177 -0.0291
 5481TIP3    H238079   5.512   4.760   7.825  2.4593 -0.9399 -0.2191
 5482TIP3   OH238080   0.126   6.279   0.219  0.2815 -0.4030  0.8543
 5482TIP3    H138081   0.060   6.341   0.248 -0.0613 -0.6555  0.6259
 5482TIP3    H238082   0.087   6.237   0.142 -0.2640 -2.1867  2.0295
 5483TIP3   OH238083   0.488   3.702   0.502  0.1952 -0.1241 -0.3315
 5483TIP3    H138084   0.544   3.777   0.524 -0.5065 -0.0564  1.4289
 5483TIP3    H238085   0.408   3.742   0.465 -0.0524 -0.0046  0.3175
 5484TIP3   OH238086   4.958   6.177   7.535  0.2405 -0.1172  0.3902
 5484TIP3    H138087   5.000   6.263   7.534 -1.4135  0.7309 -0.5475
 5484TIP3    H238088   4.916   6.173   7.621  0.2512  0.0487  0.4043
 5485TIP3   OH238089   4.660   6.816   6.985 -0.5741  0.0603  0.2600
 5485TIP3    H138090   4.574   6.777   6.998 -0.7077  0.0905 -0.4630
 5485TIP3    H238091   4.722   6.752   7.020 -0.8553 -0.2992  0.1055
 5486TIP3   OH238092   0.467   5.540   0.555  0.1691 -0.0945 -0.5375
 5486TIP3    H138093   0.377   5.509   0.568 -0.7252  2.8164  1.0356
 5486TIP3    H238094   0.478   5.543   0.460 -0.7059 -2.1932 -0.7518
 5487TIP3   OH238095   2.424   6.615   0.122  0.3637  0.1190 -0.4129
 5487TIP3    H138096   2.516   6.589   0.120  0.0114 -1.2051 -0.0015
 5487TIP3    H238097   2.412   6.664   0.041  1.3164 -0.0864 -0.6969
 5488TIP3   OH238098   4.371   6.178   0.458  0.1714  0.1588  0.3003
 5488TIP3    H138099   4.455   6.202   0.419  0.3590 -3.2422 -1.8277
 5488TIP3    H238100   4.312   6.168   0.383 -1.4753  0.1017  1.5571
 5489TIP3   OH238101   0.121   4.355   0.363  0.4633 -0.2337  0.0264
 5489TIP3    H138102   0.158   4.428   0.414 -0.9489  0.5968 -0.0780
 5489TIP3    H238103   0.193   4.327   0.306  2.4577 -1.9210  3.1452
 5490TIP3   OH238104   1.658   0.247   0.350  0.0723  0.1726 -0.8302
 5490TIP3    H138105   1.702   0.282   0.427 -2.2849 -1.5521  1.5000
 5490TIP3    H238106   1.721   0.187   0.311  0.6948 -0.3097  0.8533
 5491TIP3   OH238107   6.143   2.685   1.676  0.0958  0.1335 -0.6122
 5491TIP3    H138108   6.184   2.655   1.595  0.5429 -1.3470  0.1262
 5491TIP3    H238109   6.195   2.645   1.745 -1.5494 -0.3857  0.3775
 5492TIP3   OH238110   2.551   2.334   1.930 -0.3882  0.2421 -0.0848
 5492TIP3    H138111   2.531   2.247   1.966 -0.6451  0.5284  0.4905
 5492TIP3    H238112   2.493   2.393   1.978  0.6014  0.8777  0.3755
 5493TIP3   OH238113   4.781   3.581   6.884  0.3079  0.1542  0.4357
 5493TIP3    H138114   4.720   3.520   6.842  0.4582  0.7599 -0.7089
 5493TIP3    H238115   4.865   3.562   6.843  0.5001  0.6334  0.6015
 5494TIP3   OH238116   6.883   1.806   0.053  0.0152  0.0970 -0.3759
 5494TIP3    H138117   6.947   1.767   0.112  0.2858 -0.1238 -0.8105
 5494TIP3    H238118   6.803   1.756   0.069  0.3157 -0.5295 -0.8096
 5495TIP3   OH238119   1.130   0.080   7.469 -0.7232 -0.6566  0.3010
 5495TIP3    H138120   1.119   0.156   7.413  1.1322 -0.1894  0.5129
 5495TIP3    H238121   1.161   0.011   7.410 -0.9078 -0.8111  0.3816
 5496TIP3   OH238122   1.562   3.622   2.170  0.0021  0.3456  0.0900
 5496TIP3    H138123   1.512   3.679   2.229 -1.1502  1.5068 -1.8813
 5496TIP3    H238124   1.641   3.600   2.219 -0.2843  2.3212  1.5733
 5497TIP3   OH238125   2.125   3.266   0.891  0.4962 -0.0275  0.3353
 5497TIP3    H138126   2.212   3.227   0.899 -0.0955 -1.4956 -0.0691
 5497TIP3    H238127   2.108   3.305   0.977  1.9447  1.1720  0.1037
 5498TIP3   OH238128   2.393   1.568   6.725 -0.0611  0.5272 -0.4549
 5498TIP3    H138129   2.416   1.603   6.639  0.3810 -0.9878 -0.9831
 5498TIP3    H238130   2.310   1.523   6.711 -0.2655  0.7351  0.0508
 5499TIP3   OH238131   4.947   2.345   2.609 -0.1638  0.3826  0.3303
 5499TIP3    H138132   4.962   2.276   2.544  0.6528 -0.7222  1.6287
 5499TIP3    H238133   4.900   2.300   2.680 -1.3650  1.6405  0.3671
 5500TIP3   OH238134   0.352   4.185   0.516 -0.0292  0.4257  0.3394
 5500TIP3    H138135   0.344   4.219   0.605  1.1763  1.8168 -0.0571
 5500TIP3    H238136   0.287   4.234   0.466  0.8138  1.2480  0.0278
 5501TIP3   OH238137   2.497   2.508   2.723  0.2443  0.8963 -0.2786
 5501TIP3    H138138   2.487   2.492   2.630  1.0036  0.0102 -0.2193
 5501TIP3    H238139   2.550   2.435   2.755 -0.2948  0.9928  0.9129
 5502TIP3   OH238140   3.651   5.558   8.470  0.1670 -0.1347 -0.7298
 5502TIP3    H138141   3.568   5.546   8.517  0.3089  0.6747 -0.2609
 5502TIP3    H238142   3.627   5.553   8.378 -0.3419 -0.3035 -0.5929
 5503TIP3   OH238143   6.729   1.264   7.202 -0.5244 -0.0242 -0.0591
 5503TIP3    H138144   6.634   1.259   7.205 -0.4963 -0.9396 -0.4088
 5503TIP3    H238145   6.758   1.229   7.286 -0.5127  1.3242  0.5226
 5504TIP3   OH238146   0.139   1.912   8.207 -0.2311 -0.7629 -0.2862
 5504TIP3    H138147   0.100   1.852   8.271 -0.3251  0.9252  1.3279
 5504TIP3    H238148   0.075   1.982   8.198  0.0679 -0.6470 -1.7994
 5505TIP3   OH238149   4.422   4.848   0.043 -0.1617 -0.2025 -0.0833
 5505TIP3    H138150   4.392   4.938   0.046  1.2589  0.2662  1.5136
 5505TIP3    H238151   4.374   4.804   0.113 -1.2097 -0.8694 -1.1562
 5506TIP3   OH238152   3.479   1.634   8.563  0.7727  0.0922  0.0058
 5506TIP3    H138153   3.463   1.614   8.656  0.2582 -1.8732 -0.4498
 5506TIP3    H238154   3.414   1.701   8.542 -1.5196 -1.9131  0.2531
 5507TIP3   OH238155   4.271   2.076   0.605  0.3783  0.3092  0.4443
 5507TIP3    H138156   4.229   2.160   0.589  0.6045  0.4953  0.8174
 5507TIP3    H238157   4.201   2.019   0.635  0.4925  0.8112  1.7605
 5508TIP3   OH238158   4.722   0.518   0.888  0.0438  0.4282 -0.0246
 5508TIP3    H138159   4.726   0.434   0.934  2.9592  0.5449  0.1062
 5508TIP3    H238160   4.658   0.504   0.818  0.5156 -1.9481 -0.0621
 5509TIP3   OH238161   6.846   3.456   7.685  0.3497 -0.0378  0.3029
 5509TIP3    H138162   6.882   3.397   7.618 -1.2942 -0.4188 -0.2761
 5509TIP3    H238163   6.844   3.542   7.642 -3.6064 -0.7962 -1.3987
 5510TIP3   OH238164   4.215   5.375   3.296  0.1463  0.5118 -0.3486
 5510TIP3    H138165   4.186   5.324   3.221  0.7191  1.2058 -1.0502
 5510TIP3    H238166   4.303   5.343   3.315 -0.1812 -0.0157  0.3662
 5511TIP3   OH238167   6.329   4.459   7.685  0.6533 -0.0832  0.1601
 5511TIP3    H138168   6.389   4.445   7.612 -0.2405  0.2694 -0.6613
 5511TIP3    H238169   6.329   4.554   7.697  0.7988 -0.1401  0.6277
 5512TIP3   OH238170   4.356   5.405   2.249 -0.0545 -0.3683  0.0276
 5512TIP3    H138171   4.356   5.386   2.155 -1.8365 -0.2383 -0.0233
 5512TIP3    H238172   4.409   5.335   2.287  1.0419 -0.2006 -1.0950
 5513TIP3   OH238173   0.263   4.149   1.231  0.2057  0.5623 -0.4084
 5513TIP3    H138174   0.309   4.119   1.153  0.8686 -0.4488  0.3545
 5513TIP3    H238175   0.251   4.070   1.284 -2.8870  0.6407 -0.7925
 5514TIP3   OH238176   2.162   4.568   8.274  0.3620 -0.3017 -0.4318
 5514TIP3    H138177   2.226   4.583   8.343  0.4506  1.1770 -0.7887
 5514TIP3    H238178   2.142   4.475   8.279  1.4736 -0.5117  0.6083
 5515TIP3   OH238179   4.084   0.397   7.602 -0.4794  0.9304 -0.3085
 5515TIP3    H138180   4.009   0.355   7.559 -1.7324  1.5976  1.1735
 5515TIP3    H238181   4.160   0.358   7.558 -1.6309 -0.9934 -0.7433
 5516TIP3   OH238182   3.820   4.698   0.209  0.2817  0.3437 -0.1631
 5516TIP3    H138183   3.737   4.745   0.217  0.4131  0.6772 -0.6851
 5516TIP3    H238184   3.852   4.721   0.121  0.7521 -0.0626 -0.1031
 5517TIP3   OH238185   2.264   1.474   1.882 -0.1246  0.4608  0.9429
 5517TIP3    H138186   2.274   1.412   1.810  2.4355  0.9688  0.7600
 5517TIP3    H238187   2.186   1.525   1.860 -1.4412 -1.6669  0.3611
 5518TIP3   OH238188   3.503   4.246   2.326  0.0259 -0.2848 -0.1778
 5518TIP3    H138189   3.548   4.284   2.401  0.6795 -0.1086 -0.6535
 5518TIP3    H238190   3.524   4.305   2.253 -1.2092 -0.0304 -0.3497
 5519TIP3   OH238191   0.444   0.649   6.103  0.3543 -0.2173 -0.1817
 5519TIP3    H138192   0.420   0.740   6.085 -0.3481 -0.4408 -0.4482
 5519TIP3    H238193   0.511   0.654   6.171  0.5767  0.5116 -0.4439
 5520TIP3   OH238194   3.805   4.287   7.606  0.0561 -0.0740 -0.2606
 5520TIP3    H138195   3.769   4.353   7.665 -0.2749 -0.6120  0.1448
 5520TIP3    H238196   3.898   4.283   7.629 -0.2633 -1.0193  0.9630
 5521TIP3   OH238197   1.596   2.158   8.057  0.1543 -0.3291  0.5030
 5521TIP3    H138198   1.672   2.210   8.029  0.4839 -1.4841 -0.8911
 5521TIP3    H238199   1.529   2.179   7.992 -0.3635 -0.1459  1.0960
 5522TIP3   OH238200   1.928   1.974   0.040  0.3900 -0.1906  1.1838
 5522TIP3    H138201   1.926   2.002   0.131 -0.9719  1.1036  0.8080
 5522TIP3    H238202   1.863   2.030  -0.003  2.9924  1.2528 -1.1637
 5523TIP3   OH238203   1.496   3.669   7.151 -0.0626 -0.9185  0.6483
 5523TIP3    H138204   1.550   3.599   7.115 -0.8931 -0.9645 -0.5476
 5523TIP3    H238205   1.529   3.681   7.240  0.8869 -1.9941  0.4611
 5524TIP3   OH238206   5.626   5.671   6.709 -0.1384  0.1043  0.9273
 5524TIP3    H138207   5.701   5.641   6.657 -1.3558  1.2145 -1.6431
 5524TIP3    H238208   5.654   5.756   6.745 -0.1289  0.5175 -0.0253
 5525TIP3   OH238209   6.859   3.789   8.019  0.3897 -0.2118  0.8452
 5525TIP3    H138210   6.897   3.875   8.001 -0.5329  0.4447  1.9784
 5525TIP3    H238211   6.935   3.732   8.031  1.0120  0.3058 -0.4531
 5526TIP3   OH238212   0.987   1.888   2.468  0.4739  0.7160 -0.2327
 5526TIP3    H138213   0.979   1.942   2.547 -0.6551  0.2964 -0.0427
 5526TIP3    H238214   0.961   1.800   2.496  0.1953  0.5340 -1.0379
 5527TIP3   OH238215   2.727   3.323   8.416  0.3475  0.1399 -0.0715
 5527TIP3    H138216   2.795   3.382   8.448 -0.8612  1.4424  0.1983
 5527TIP3    H238217   2.774   3.259   8.363  1.9972 -0.0398  1.5059
 5528TIP3   OH238218   0.155   3.305   1.233 -0.5773  0.2342 -0.1478
 5528TIP3    H138219   0.198   3.273   1.312 -3.3165  1.1430  1.8936
 5528TIP3    H238220   0.180   3.398   1.228  0.8332 -0.1691 -1.3348
 5529TIP3   OH238221   2.221   0.555   7.467  0.3146 -0.2698 -0.4245
 5529TIP3    H138222   2.225   0.517   7.555 -1.6792 -0.1568 -0.2360
 5529TIP3    H238223   2.137   0.526   7.432 -0.8473  2.9381 -0.7040
 5530TIP3   OH238224   1.925   1.658   0.636 -0.3370 -0.1153 -0.3734
 5530TIP3    H138225   1.888   1.592   0.577 -0.9757  0.3226 -0.4707
 5530TIP3    H238226   1.924   1.739   0.586 -2.7301  0.7141  0.8296
 5531TIP3   OH238227   3.245   5.231   2.371 -0.2608 -0.0311 -0.0995
 5531TIP3    H138228   3.187   5.157   2.355 -1.4248  0.3991  1.7865
 5531TIP3    H238229   3.214   5.300   2.312  0.0058 -0.6033 -0.9283
 5532TIP3   OH238230   4.082   5.476   0.896 -0.4579  0.2948 -0.4326
 5532TIP3    H138231   4.110   5.388   0.919  1.6746  1.2696  0.9879
 5532TIP3    H238232   4.007   5.494   0.953 -0.7345 -0.4712 -0.5447
 5533TIP3   OH238233   2.495   1.609   6.966  0.2544 -0.6244  0.3698
 5533TIP3    H138234   2.483   1.613   6.871  2.5978 -1.9074 -0.0668
 5533TIP3    H238235   2.515   1.517   6.984 -0.9717 -0.5651  2.2560
 5534TIP3   OH238236   6.761   6.262   0.465  0.1041 -0.3060  0.1602
 5534TIP3    H138237   6.791   6.198   0.400 -1.7212 -0.4157 -0.6565
 5534TIP3    H238238   6.836   6.318   0.481  1.1124 -1.3525 -0.7343
 5535TIP3   OH238239   6.676   3.617   8.577 -0.3396  0.3094  0.1983
 5535TIP3    H138240   6.682   3.614   8.672 -1.2679 -2.1640  0.2424
 5535TIP3    H238241   6.751   3.567   8.546  0.1036  1.3147 -0.4184
 5536TIP3   OH238242   1.408   6.344   0.301  0.3368  0.6038 -0.3103
 5536TIP3    H138243   1.448   6.269   0.346 -0.6763  0.7573  0.9301
 5536TIP3    H238244   1.481   6.389   0.259  1.0167 -0.8689 -0.7860
 5537TIP3   OH238245   0.915   5.198   8.361 -0.2454 -0.1951 -0.1635
 5537TIP3    H138246   0.844   5.262   8.354  0.1532  0.2396 -0.3336
 5537TIP3    H238247   0.975   5.222   8.289 -1.1983 -2.1641 -1.7053
 5538TIP3   OH238248   6.390   2.340   7.018  0.0304 -0.2952 -0.3349
 5538TIP3    H138249   6.439   2.265   6.986  0.4362 -1.1733  2.1243
 5538TIP3    H238250   6.445   2.377   7.087 -0.6113  1.6972 -0.8259
 5539TIP3   OH238251   1.578   6.182   1.405  0.3241  0.3897  0.1084
 5539TIP3    H138252   1.569   6.277   1.415  2.2178  0.5645  0.4845
 5539TIP3    H238253   1.659   6.170   1.356  0.4687 -1.0622  0.6534
 5540TIP3   OH238254   1.171   6.679   1.499 -0.1987 -0.4528 -0.7931
 5540TIP3    H138255   1.117   6.719   1.568 -0.9769  0.6716 -2.0146
 5540TIP3    H238256   1.120   6.604   1.469 -0.1273 -0.6022 -0.5411
 5541TIP3   OH238257   4.624   5.763   0.618 -0.1319 -0.7966  0.6525
 5541TIP3    H138258   4.568   5.810   0.556 -0.1795 -1.4095  0.2211
 5541TIP3    H238259   4.633   5.823   0.692 -0.2332 -0.1363  0.1373
 5542TIP3   OH238260   0.696   4.051   8.167  0.6876  0.3583 -0.2157
 5542TIP3    H138261   0.705   3.957   8.151 -0.7213 -0.0473  1.1520
 5542TIP3    H238262   0.716   4.091   8.082 -0.1950 -1.2621 -1.2497
 5543TIP3   OH238263   6.499   3.308   7.246 -0.8868 -0.3230 -1.3059
 5543TIP3    H138264   6.475   3.330   7.156  0.9246 -0.6076 -1.8947
 5543TIP3    H238265   6.495   3.213   7.250 -1.1995 -0.3006 -1.0018
 5544TIP3   OH238266   5.263   3.960   1.988 -0.3181 -0.0234 -0.2805
 5544TIP3    H138267   5.318   4.010   1.928  1.5129 -0.4054  1.0141
 5544TIP3    H238268   5.319   3.890   2.020 -2.0652 -1.4280 -0.1239
 5545TIP3   OH238269   4.024   0.679   7.100  1.0826  0.7760  0.2531
 5545TIP3    H138270   4.025   0.611   7.168 -0.2508  0.0421 -0.4206
 5545TIP3    H238271   4.018   0.630   7.018 -3.5471  1.5911 -0.1720
 5546TIP3   OH238272   1.310   1.677   7.605 -0.3557 -0.4576 -0.0456
 5546TIP3    H138273   1.241   1.743   7.596 -0.9195 -0.6926  2.0370
 5546TIP3    H238274   1.302   1.623   7.526 -0.5338  1.3260 -1.3085
 5547TIP3   OH238275   2.854   5.625   7.533  0.3007  0.0532 -0.1753
 5547TIP3    H138276   2.873   5.545   7.484  1.2973 -0.7348  1.4100
 5547TIP3    H238277   2.858   5.598   7.625  2.1982  2.2163  0.4661
 5548TIP3   OH238278   4.176   3.663   1.767  0.0266  0.7604  0.2274
 5548TIP3    H138279   4.113   3.723   1.729  0.1293  0.5393 -0.2955
 5548TIP3    H238280   4.135   3.634   1.848 -0.4299  0.8116  0.0173
 5549TIP3   OH238281   0.701   5.691   0.351  0.1828  0.5652 -0.5699
 5549TIP3    H138282   0.609   5.670   0.340  0.1109  1.0087 -0.8695
 5549TIP3    H238283   0.748   5.621   0.306 -0.0062  0.3129 -0.3731
 5550TIP3   OH238284   2.863   2.374   7.004  0.4951 -1.0003  0.4372
 5550TIP3    H138285   2.823   2.341   6.923  0.0058  2.3848 -0.8370
 5550TIP3    H238286   2.788   2.392   7.061  0.4447  0.9698 -0.1868
 5551TIP3   OH238287   4.893   0.411   0.296 -0.3886 -0.6820  0.4526
 5551TIP3    H138288   4.954   0.377   0.230  0.2194  0.7619  0.2280
 5551TIP3    H238289   4.809   0.372   0.273  0.1805 -1.6522 -0.0556
 5552TIP3   OH238290   3.725   5.944   6.958 -0.2738 -0.6820  0.1392
 5552TIP3    H138291   3.757   5.944   7.048 -0.4931  0.8668  0.2479
 5552TIP3    H238292   3.722   6.036   6.934 -0.7651 -1.0405 -1.2704
 5553TIP3   OH238293   0.315   2.208   6.991  0.5192 -0.2929  0.0103
 5553TIP3    H138294   0.220   2.206   6.981  0.4255  1.8842 -0.1756
 5553TIP3    H238295   0.348   2.160   6.916 -0.4413  0.8893 -1.2317
 5554TIP3   OH238296   4.290   5.219   8.348 -0.5687 -0.4174  0.1393
 5554TIP3    H138297   4.353   5.283   8.380 -0.0082  0.0226 -1.7152
 5554TIP3    H238298   4.337   5.170   8.281 -1.7372 -1.1502 -0.1821
 5555TIP3   OH238299   6.522   0.715   8.476  0.3840 -0.2289  0.5878
 5555TIP3    H138300   6.427   0.716   8.466  0.0771  0.7975  3.0835
 5555TIP3    H238301   6.548   0.628   8.445 -1.1063  0.0645 -1.7516
 5556TIP3   OH238302   5.635   3.315   1.623 -0.0950 -0.0912 -0.7976
 5556TIP3    H138303   5.585   3.248   1.670  1.9398 -0.4464  1.0416
 5556TIP3    H238304   5.571   3.380   1.596 -1.4314  0.0230  2.3653
 5557TIP3   OH238305   6.862   6.023   0.702 -0.3927  0.1473  0.1726
 5557TIP3    H138306   6.933   5.968   0.735 -0.2151 -0.8368 -1.7380
 5557TIP3    H238307   6.902   6.074   0.631 -1.1348  1.0507  0.3849
 5558TIP3   OH238308   2.187   1.328   1.316 -0.3756 -0.0283 -0.4493
 5558TIP3    H138309   2.190   1.295   1.406 -2.0114  0.1850 -0.2970
 5558TIP3    H238310   2.187   1.249   1.262  1.5891 -0.1598 -0.3549
 5559TIP3   OH238311   4.440   2.500   1.615 -0.2502  0.1514 -0.4272
 5559TIP3    H138312   4.371   2.566   1.606  0.1229  0.3852 -1.8562
 5559TIP3    H238313   4.517   2.551   1.642 -0.4888 -0.0309  0.6284
 5560TIP3   OH238314   2.511   5.119   0.208  0.5820  0.7187 -0.5853
 5560TIP3    H138315   2.533   5.155   0.122  1.2264 -1.7733 -1.5437
 5560TIP3    H238316   2.419   5.094   0.201  0.5176  0.9001 -0.4008
 5561TIP3   OH238317   6.228   4.334   2.328 -0.1066  0.6930 -0.0929
 5561TIP3    H138318   6.321   4.312   2.325 -0.1806  0.4355 -1.0624
 5561TIP3    H238319   6.225   4.429   2.330  0.1824  0.7151 -0.5156
 5562TIP3   OH238320   5.494   2.482   2.091  0.1845  0.2764  0.5357
 5562TIP3    H138321   5.463   2.392   2.100 -0.5059  0.6127  1.7089
 5562TIP3    H238322   5.517   2.509   2.180  1.6311  0.8365  0.0231
 5563TIP3   OH238323   2.241   3.460   8.324 -0.7262  0.1855 -0.5032
 5563TIP3    H138324   2.191   3.400   8.269 -1.5339  0.5033 -0.1355
 5563TIP3    H238325   2.326   3.417   8.336 -0.6225 -0.0025 -1.7756
 5564TIP3   OH238326   0.708   4.851   0.623 -0.2075  0.0137  0.5129
 5564TIP3    H138327   0.770   4.861   0.695  1.1315  0.2409 -0.6465
 5564TIP3    H238328   0.722   4.762   0.592  0.3874  0.4499 -0.5016
 5565TIP3   OH238329   1.680   5.411   8.549  0.1804  0.2460  0.2777
 5565TIP3    H138330   1.651   5.424   8.639 -1.3723  3.0130 -0.4961
 5565TIP3    H238331   1.749   5.345   8.555 -0.2865 -0.1129  3.3719
 5566TIP3   OH238332   5.735   1.531   0.617 -0.7949 -0.1588 -0.1718
 5566TIP3    H138333   5.716   1.476   0.542 -0.6178 -1.1060  0.4655
 5566TIP3    H238334   5.815   1.579   0.593  0.2715 -1.7557  0.0901
 5567TIP3   OH238335   6.242   6.563   1.480 -0.0207  0.4307  0.0463
 5567TIP3    H138336   6.234   6.654   1.509 -0.3932  0.6610 -0.7363
 5567TIP3    H238337   6.200   6.562   1.394  0.5316 -0.3489 -0.2220
 5568TIP3   OH238338   6.234   0.020   2.135 -0.2486 -0.0733  0.1143
 5568TIP3    H138339   6.215  -0.029   2.055 -3.3366  0.3127  0.4924
 5568TIP3    H238340   6.172  -0.014   2.200  1.4593  0.3532  2.0710
 5569TIP3   OH238341   4.810   2.263   8.495  0.5187 -0.3717 -0.0847
 5569TIP3    H138342   4.866   2.186   8.484  2.2641  0.8306 -0.1123
 5569TIP3    H238343   4.868   2.337   8.476 -1.4181  0.9192 -1.3400
 5570TIP3   OH238344   3.595   1.172   1.781  0.1497  0.1636  0.5266
 5570TIP3    H138345   3.656   1.143   1.848  0.8899 -0.3114 -0.3290
 5570TIP3    H238346   3.592   1.100   1.718 -0.8504  0.4250  0.2575
 5571TIP3   OH238347   4.555   4.517   8.202  0.2557 -0.0717 -0.1771
 5571TIP3    H138348   4.569   4.425   8.179  0.6855 -0.2841  0.8630
 5571TIP3    H238349   4.562   4.564   8.119 -1.8444 -1.1541 -1.0516
 5572TIP3   OH238350   5.209   6.545   1.575  0.6995  0.6009  0.0807
 5572TIP3    H138351   5.163   6.610   1.522  1.0032  0.0551 -0.8743
 5572TIP3    H238352   5.285   6.521   1.522  0.2489 -1.0070  0.1278
 5573TIP3   OH238353   4.856   1.378   1.141  0.4067 -0.0588  0.0444
 5573TIP3    H138354   4.925   1.357   1.203  0.4990 -0.0286 -0.0488
 5573TIP3    H238355   4.885   1.339   1.058 -0.4179 -1.4199  0.3671
 5574TIP3   OH238356   0.894   0.143   8.377 -0.9386 -0.8447  0.4775
 5574TIP3    H138357   0.946   0.078   8.330 -1.5596 -0.9984 -0.0153
 5574TIP3    H238358   0.847   0.093   8.443 -0.2289 -0.6591  1.1443
 5575TIP3   OH238359   2.020   0.232   2.269 -0.3398  0.0773 -0.0629
 5575TIP3    H138360   2.041   0.138   2.265 -0.9541 -0.0616 -0.0910
 5575TIP3    H238361   2.087   0.269   2.327 -1.3380 -0.7353  1.6820
 5576TIP3   OH238362   2.817   0.833   8.443  0.2529 -0.6575  0.1550
 5576TIP3    H138363   2.821   0.923   8.413 -0.9026 -1.0523 -1.3018
 5576TIP3    H238364   2.805   0.839   8.538  3.3995  0.6399  0.5958
 5577TIP3   OH238365   0.242   1.237   7.846  0.4185  0.1262  0.0309
 5577TIP3    H138366   0.213   1.246   7.755 -0.2699  1.3967  0.3544
 5577TIP3    H238367   0.272   1.146   7.852  1.2428  0.2402 -1.6711
 5578TIP3   OH238368   2.121   5.028   7.565 -0.3706  0.9698  0.2022
 5578TIP3    H138369   2.059   4.978   7.618  0.2130  0.0800  0.0626
 5578TIP3    H238370   2.120   4.985   7.480  0.0582  1.2733  0.0416
 5579TIP3   OH238371   5.219   3.385   1.242  0.0123 -0.5409 -0.4502
 5579TIP3    H138372   5.240   3.466   1.290 -0.3732 -0.8273  0.2065
 5579TIP3    H238373   5.301   3.335   1.244 -0.0691 -0.6657  0.1534
 5580TIP3   OH238374   1.480   3.986   0.018 -0.1421 -0.6718  0.1328
 5580TIP3    H138375   1.499   3.911  -0.038 -0.8003 -0.7920  0.0626
 5580TIP3    H238376   1.403   4.027  -0.022 -0.6737 -0.8092  0.9909
 5581TIP3   OH238377   1.979   0.289   0.323  0.0142  0.0878 -0.0336
 5581TIP3    H138378   1.945   0.324   0.406 -0.4259  4.5804 -1.8480
 5581TIP3    H238379   2.071   0.317   0.321  0.0024  0.0671 -1.0983
 5582TIP3   OH238380   6.832   5.079   6.597 -0.1312 -0.7671 -0.2408
 5582TIP3    H138381   6.756   5.023   6.585 -0.3343 -0.3983 -0.6974
 5582TIP3    H238382   6.848   5.117   6.511 -0.6083  0.6383  0.2634
 5583TIP3   OH238383   1.577   6.595   1.281  0.4058  0.2594  0.0361
 5583TIP3    H138384   1.544   6.634   1.361  0.6878 -0.0939  0.3278
 5583TIP3    H238385   1.610   6.669   1.229  2.1426  0.3151  1.1345
 5584TIP3   OH238386   2.638   0.687   7.738 -0.5448  0.2594  0.0081
 5584TIP3    H138387   2.605   0.771   7.770  2.7940  1.0180  1.9236
 5584TIP3    H238388   2.683   0.649   7.813  0.5143 -1.8853 -1.6236
 5585TIP3   OH238389   3.463   0.045   7.785  0.0046 -0.3512 -0.0507
 5585TIP3    H138390   3.425  -0.033   7.826 -0.6069 -0.2337 -0.3878
 5585TIP3    H238391   3.547   0.015   7.750 -0.2991 -0.8992 -0.3168
 5586TIP3   OH238392   2.276   0.533   8.157  0.2284  0.1841 -0.5876
 5586TIP3    H138393   2.225   0.511   8.235 -0.7062 -1.2988 -1.5812
 5586TIP3    H238394   2.269   0.456   8.101  1.8313  0.7776 -1.6744
 5587TIP3   OH238395   4.942   2.807   7.724 -0.4186  0.3477 -0.5593
 5587TIP3    H138396   4.892   2.725   7.723  1.7894 -1.1665  1.5260
 5587TIP3    H238397   5.033   2.780   7.715  0.3061  2.7141 -1.0656
 5588TIP3   OH238398   3.570   4.363   0.042  0.6258  0.3179 -0.0957
 5588TIP3    H138399   3.614   4.419  -0.022 -0.0798  0.4986 -0.4298
 5588TIP3    H238400   3.598   4.274   0.020 -0.7570  0.2087 -1.6315
 5589TIP3   OH238401   0.531   4.395   7.988  0.0173  0.0146 -0.0872
 5589TIP3    H138402   0.500   4.453   7.918 -0.1759  0.8661  0.6987
 5589TIP3    H238403   0.461   4.329   7.996  0.6867 -0.9499 -1.6525
 5590TIP3   OH238404   1.862   0.289   0.092 -0.0437  0.1473  0.1396
 5590TIP3    H138405   1.930   0.253   0.034  0.8702  1.4604  0.3608
 5590TIP3    H238406   1.893   0.270   0.180 -1.4050 -1.7893  0.2604
 5591TIP3   OH238407   1.769   5.807   1.624  0.0791  0.1629 -0.5102
 5591TIP3    H138408   1.840   5.779   1.682 -0.7054 -2.2513 -0.5833
 5591TIP3    H238409   1.729   5.881   1.668 -1.4061 -2.4172  2.8878
 5592TIP3   OH238410   5.545   2.079   8.442 -1.2618  0.2614 -0.0593
 5592TIP3    H138411   5.639   2.076   8.424 -1.0928 -0.1210  0.8051
 5592TIP3    H238412   5.520   1.987   8.451 -1.7543  0.3550 -0.4553
 5593TIP3   OH238413   5.156   2.658   7.635  0.2465  0.1331  0.3609
 5593TIP3    H138414   5.185   2.656   7.544  0.0161  0.5590  0.2724
 5593TIP3    H238415   5.234   2.682   7.684  0.2559  0.3998  0.2186
 5594TIP3   OH238416   4.333   2.991   1.671  0.0762  0.1839 -0.2220
 5594TIP3    H138417   4.309   2.909   1.714 -1.1018  0.6844  0.0980
 5594TIP3    H238418   4.377   3.042   1.738  0.9032 -0.2040 -0.4489
 5595TIP3   OH238419   3.093   2.806   8.188  0.1134 -0.4543  0.0534
 5595TIP3    H138420   3.023   2.758   8.232 -1.1070  0.4970 -0.7599
 5595TIP3    H238421   3.057   2.828   8.102  1.3714  0.1677 -0.3489
 5596TIP3   OH238422   1.917   6.230   7.945 -0.0156 -0.1618  0.1750
 5596TIP3    H138423   1.906   6.274   8.030  1.1827 -1.3580  0.9903
 5596TIP3    H238424   1.829   6.201   7.922 -0.8034  2.3008 -0.2382
 5597TIP3   OH238425   4.054   6.889   8.223  0.0563 -0.3185 -0.9353
 5597TIP3    H138426   3.988   6.901   8.155 -0.4499 -0.2591 -0.4399
 5597TIP3    H238427   4.013   6.829   8.285  0.0957  0.4780 -0.1281
 5598TIP3   OH238428   4.963   1.041   8.204 -0.1915 -0.5425  0.3493
 5598TIP3    H138429   5.013   1.121   8.188  0.7058 -1.4124 -1.5842
 5598TIP3    H238430   4.877   1.071   8.232  0.8408  1.0321  2.0988
 5599TIP3   OH238431   6.885   6.664   8.391  0.0459  0.7269 -0.2254
 5599TIP3    H138432   6.852   6.728   8.328  0.0855 -0.0984 -1.0989
 5599TIP3    H238433   6.810   6.644   8.447  0.5304  3.0552  1.4074
 5600TIP3   OH238434   5.353   0.928   8.484  0.0060 -0.5261 -0.4680
 5600TIP3    H138435   5.290   0.906   8.416 -1.9293  2.0992  0.2945
 5600TIP3    H238436   5.331   0.871   8.557 -1.1051 -0.0669 -0.4315
 5601TIP3   OH238437   5.881   0.405   0.032 -0.4229  0.1626 -0.3142
 5601TIP3    H138438   5.905   0.495   0.008 -0.8286  0.0422 -1.2142
 5601TIP3    H238439   5.861   0.409   0.125  2.3147  0.4368  0.3601
 5602TIP3   OH238440   6.079   5.605   8.320 -0.3524 -0.0956  0.2259
 5602TIP3    H138441   6.111   5.515   8.319 -0.0834 -0.0127  0.6592
 5602TIP3    H238442   6.010   5.605   8.387  0.6307  0.3285  1.2706
 5603TIP3   OH238443   4.133   5.660   7.817 -0.0061  0.4073 -0.1377
 5603TIP3    H138444   4.141   5.703   7.731  0.5873  1.8276  0.5939
 5603TIP3    H238445   4.169   5.572   7.803 -1.5979 -0.0448 -1.7694
 5604TIP3   OH238446   6.252   6.296   1.841 -0.2388  0.0727  0.5947
 5604TIP3    H138447   6.258   6.293   1.746  0.0764  0.4259  0.6033
 5604TIP3    H238448   6.159   6.312   1.859 -0.1254  1.0564  0.3248
 5605TIP3   OH238449   0.391   2.812   7.144 -0.3759  0.1363 -0.5786
 5605TIP3    H138450   0.426   2.809   7.233  1.6215 -0.3757 -1.3327
 5605TIP3    H238451   0.333   2.888   7.144 -2.0464 -1.0276  1.6793
 5606TIP3   OH238452   4.637   4.343   6.540 -0.2443  0.4571 -0.0509
 5606TIP3    H138453   4.627   4.288   6.617  0.3536  1.0985  0.4917
 5606TIP3    H238454   4.723   4.320   6.505 -0.3868  0.3827 -0.3589
 5607TIP3   OH238455   1.075   6.322   2.374 -0.1352 -0.4445 -0.1060
 5607TIP3    H138456   1.014   6.376   2.324  1.1797  0.8903 -0.3480
 5607TIP3    H238457   1.021   6.252   2.410 -2.0147  1.2689  0.6007
 5608TIP3   OH238458   6.355   0.063   0.573 -0.6027  0.1539  0.3536
 5608TIP3    H138459   6.430   0.117   0.552 -0.8319  0.5343  0.4956
 5608TIP3    H238460   6.319   0.102   0.653 -0.9045 -0.0636  0.3271
 5609TIP3   OH238461   0.209   2.749   1.789  0.2361  0.1226  0.4238
 5609TIP3    H138462   0.116   2.725   1.785 -0.8548  3.8377 -0.4688
 5609TIP3    H238463   0.233   2.739   1.881 -1.7360  1.1448  1.1031
 5610TIP3   OH238464   3.081   5.584   1.248  0.0014 -0.6466 -0.6959
 5610TIP3    H138465   3.074   5.528   1.171  1.4046 -0.1598 -1.2080
 5610TIP3    H238466   3.008   5.645   1.239  2.1872  1.8581 -3.7523
 5611TIP3   OH238467   5.708   1.878   7.473  0.4194  0.1572  0.1798
 5611TIP3    H138468   5.756   1.799   7.498 -0.5653 -0.8180 -0.8502
 5611TIP3    H238469   5.672   1.911   7.555  0.3366 -0.8371  0.5618
 5612TIP3   OH238470   1.843   5.291   1.821  0.3481  0.3012  0.0689
 5612TIP3    H138471   1.798   5.223   1.871 -0.9250  0.5839 -0.6233
 5612TIP3    H238472   1.856   5.362   1.883 -1.4327  0.7484 -0.0147
 5613TIP3   OH238473   1.729   0.737   1.201 -0.5157  0.0785 -0.0864
 5613TIP3    H138474   1.738   0.674   1.130  1.4808 -0.0135  0.2110
 5613TIP3    H238475   1.637   0.765   1.196 -0.9461 -1.4224 -1.4056
 5614TIP3   OH238476   6.256   4.491   0.030  0.5523  0.5934  0.0657
 5614TIP3    H138477   6.347   4.479   0.055  0.4527  1.1249  0.7084
 5614TIP3    H238478   6.207   4.478   0.111 -0.1018 -1.3419 -0.5886
 5615TIP3   OH238479   4.379   3.504   1.671  0.5161 -0.5372 -0.1612
 5615TIP3    H138480   4.324   3.431   1.698  0.7090  0.0367  1.9712
 5615TIP3    H238481   4.323   3.581   1.680  0.7643 -0.2481 -0.9531
 5616TIP3   OH238482   5.702   1.033   7.821 -0.0756 -0.6739  0.2559
 5616TIP3    H138483   5.637   1.084   7.773  0.8662  0.9640  0.6598
 5616TIP3    H238484   5.726   0.962   7.760 -0.0548  0.4439 -1.0833
 5617TIP3   OH238485   4.876   3.156   2.673  0.1216  0.4718 -0.1354
 5617TIP3    H138486   4.787   3.133   2.649 -0.4172  0.5042  1.7102
 5617TIP3    H238487   4.885   3.248   2.649  0.9835 -0.4052 -3.8551
 5618TIP3   OH238488   2.446   1.712   6.492  0.4767 -0.5878 -0.4528
 5618TIP3    H138489   2.508   1.779   6.520  0.6709 -1.2439  0.7677
 5618TIP3    H238490   2.407   1.747   6.412  0.6818  0.9057  0.0737
 5619TIP3   OH238491   0.357   1.655   7.156  0.3020  0.0769 -0.1599
 5619TIP3    H138492   0.287   1.591   7.172 -1.1460  1.8124  0.8995
 5619TIP3    H238493   0.435   1.615   7.193 -1.0232 -0.2094  2.6105
 5620TIP3   OH238494   3.132   5.480   2.230  0.0600  0.1547  0.7832
 5620TIP3    H138495   3.087   5.527   2.160 -0.2504  0.2235  1.0300
 5620TIP3    H238496   3.219   5.520   2.235  0.4985 -0.6004 -0.3369
 5621TIP3   OH238497   3.685   6.806   1.542  0.8485 -0.2464  0.1421
 5621TIP3    H138498   3.629   6.731   1.562  3.2940 -1.6208  2.3885
 5621TIP3    H238499   3.658   6.833   1.454 -2.2684 -1.7003  0.5071
 5622TIP3   OH238500   3.641   3.076   1.740 -0.2016  0.8494 -0.4314
 5622TIP3    H138501   3.563   3.082   1.795 -0.5274  0.6202 -0.8657
 5622TIP3    H238502   3.713   3.095   1.800 -0.5026  0.0518  0.2077
 5623TIP3   OH238503   5.242   5.991   1.586 -0.3308 -0.1595  0.0926
 5623TIP3    H138504   5.270   5.963   1.499  1.0464 -0.7572  0.7036
 5623TIP3    H238505   5.254   6.086   1.585  1.3207 -0.3340  0.1616
 5624TIP3   OH238506   4.252   4.505   2.645 -0.0606  0.1329  0.2281
 5624TIP3    H138507   4.158   4.494   2.628  0.0751  0.1110 -0.5592
 5624TIP3    H238508   4.274   4.588   2.603  0.8650 -1.2824 -2.3006
 5625TIP3   OH238509   4.556   5.989   8.623  0.3250 -0.7140 -0.1007
 5625TIP3    H138510   4.508   5.956   8.546 -1.9135 -1.1800  1.4014
 5625TIP3    H238511   4.587   6.075   8.596 -1.7920 -0.1803 -1.0425
 5626TIP3   OH238512   3.646   6.614   2.534  0.4226  0.4377 -0.2932
 5626TIP3    H138513   3.632   6.540   2.474  1.9129 -1.4699  1.5535
 5626TIP3    H238514   3.565   6.618   2.586 -0.0244  0.7134 -1.0027
 5627TIP3   OH238515   1.937   3.444   0.311 -0.6574  0.3927 -0.1331
 5627TIP3    H138516   1.874   3.421   0.379  1.2809 -1.4167  1.1748
 5627TIP3    H238517   1.883   3.464   0.234 -2.8957  1.5961  1.6163
 5628TIP3   OH238518   5.547   1.248   0.815  0.2453 -0.3438  0.5723
 5628TIP3    H138519   5.464   1.292   0.833 -0.6051 -1.6741 -0.0011
 5628TIP3    H238520   5.553   1.247   0.719  0.7829 -0.5040  0.6063
 5629TIP3   OH238521   4.686   6.767   1.716  0.2607 -1.2654 -0.4666
 5629TIP3    H138522   4.630   6.844   1.724  1.1000 -0.7251  0.5772
 5629TIP3    H238523   4.634   6.695   1.751  0.0140 -0.8749 -0.0164
 5630TIP3   OH238524   3.005   0.597   6.577  0.0203 -0.1131  0.1476
 5630TIP3    H138525   3.068   0.563   6.641 -0.9701 -1.9956  0.2005
 5630TIP3    H238526   3.004   0.692   6.593  0.9233 -0.3435  1.8822
 5631TIP3   OH238527   0.675   0.783   8.175 -0.0803  0.3862  0.9358
 5631TIP3    H138528   0.714   0.859   8.131  1.2595 -0.3129  0.8901
 5631TIP3    H238529   0.728   0.709   8.147 -1.1121 -0.5259  1.3232
 5632TIP3   OH238530   1.180   5.485   0.875 -0.2446  0.5143 -0.7544
 5632TIP3    H138531   1.203   5.539   0.800 -1.7467  1.3860 -0.6203
 5632TIP3    H238532   1.103   5.435   0.847 -0.1362 -0.0044 -0.1716
 5633TIP3   OH238533   6.048   5.790   1.801 -0.3118  0.1250  0.1287
 5633TIP3    H138534   6.106   5.844   1.855 -0.7039  0.4210  0.2582
 5633TIP3    H238535   5.974   5.769   1.858  0.1237 -1.0772  0.2818
 5634TIP3   OH238536   1.795   6.903   0.930 -0.2212 -0.0786  0.4152
 5634TIP3    H138537   1.859   6.858   0.986  1.4353 -0.1295 -1.4103
 5634TIP3    H238538   1.815   6.872   0.841 -1.2512  1.7023 -0.4884
 5635TIP3   OH238539   2.004   0.438   7.386  0.0684 -0.2427  0.6798
 5635TIP3    H138540   1.924   0.389   7.405  1.4712 -1.9278  2.6649
 5635TIP3    H238541   2.034   0.402   7.302 -1.5421  0.9278 -0.4776
 5636TIP3   OH238542   5.839   3.152   1.468  0.1447  0.2585 -0.4492
 5636TIP3    H138543   5.768   3.211   1.493 -0.6695 -0.3499 -1.2512
 5636TIP3    H238544   5.881   3.130   1.551 -0.8395  0.3417  0.0926
 5637TIP3   OH238545   0.314   1.539   1.864  0.6063  0.6837  0.0058
 5637TIP3    H138546   0.404   1.514   1.842  0.7085 -0.3826  1.5659
 5637TIP3    H238547   0.320   1.574   1.953 -0.8239 -1.4240  1.0016
 5638TIP3   OH238548   6.600   0.512   7.912 -0.0480  0.3674 -0.5134
 5638TIP3    H138549   6.671   0.458   7.878 -0.8204 -0.3387 -1.0497
 5638TIP3    H238550   6.576   0.570   7.840 -0.8272 -0.2406 -0.7520
 5639TIP3   OH238551   6.666   0.069   1.322  0.5322 -0.5255  0.1296
 5639TIP3    H138552   6.756   0.039   1.306  0.2625 -0.7518 -1.0368
 5639TIP3    H238553   6.670   0.163   1.303 -0.0514 -0.9829 -2.7163
 5640TIP3   OH238554   3.680   1.444   2.382  0.1990  0.0116 -0.0722
 5640TIP3    H138555   3.609   1.500   2.349 -0.0877 -0.2302  0.1255
 5640TIP3    H238556   3.661   1.358   2.346  1.0159  0.1728 -0.9231
 5641TIP3   OH238557   3.850   1.112   6.371  0.0672  0.3097 -0.0681
 5641TIP3    H138558   3.945   1.104   6.378 -0.0049 -2.3761 -0.8830
 5641TIP3    H238559   3.824   1.159   6.451  2.0304  0.9801  0.2367
 5642TIP3   OH238560   0.998   5.839   2.594  0.0709 -0.3346 -0.2988
 5642TIP3    H138561   0.928   5.802   2.540  1.0845 -1.6279 -0.7678
 5642TIP3    H238562   0.997   5.786   2.674 -0.1874  0.3636  0.1753
 5643TIP3   OH238563   3.714   1.860   0.026  0.2274 -0.3103 -0.3480
 5643TIP3    H138564   3.687   1.944  -0.011 -1.0984 -0.5743 -0.0310
 5643TIP3    H238565   3.688   1.796  -0.040  0.7139 -0.5176 -0.3365
 5644TIP3   OH238566   0.396   0.785   6.555  0.1140 -0.7432  0.1672
 5644TIP3    H138567   0.426   0.736   6.631  0.7059 -1.8408 -0.7398
 5644TIP3    H238568   0.379   0.719   6.489  0.3190  0.2254 -0.8945
 5645TIP3   OH238569   4.391   3.239   1.510  0.1878 -0.0090 -0.2760
 5645TIP3    H138570   4.439   3.156   1.518  0.9472  0.5591  1.7965
 5645TIP3    H238571   4.328   3.237   1.581  0.1286  1.1298 -0.2807
 5646TIP3   OH238572   4.520   2.595   0.695  0.2127  0.2804 -0.7770
 5646TIP3    H138573   4.433   2.580   0.656  0.3521  1.7038 -1.7004
 5646TIP3    H238574   4.528   2.690   0.699  2.3954  0.2310 -2.2847
 5647TIP3   OH238575   0.089   4.799   6.860 -0.1737  0.0745  0.0949
 5647TIP3    H138576   0.108   4.721   6.808  0.0589 -0.2416  0.6461
 5647TIP3    H238577  -0.000   4.823   6.835 -0.2308 -0.3389 -0.1142
 5648TIP3   OH238578   0.103   4.523   7.826  0.0660 -0.1549  0.1001
 5648TIP3    H138579   0.014   4.516   7.862 -0.7397  0.1877 -1.7019
 5648TIP3    H238580   0.110   4.450   7.764  1.5544 -0.9763  1.1805
 5649TIP3   OH238581   4.366   3.960   0.120  0.0487  0.8502  0.4649
 5649TIP3    H138582   4.353   4.023   0.049 -0.4593  0.3817  0.1361
 5649TIP3    H238583   4.281   3.919   0.131  0.4149  0.1090  0.5664
 5650TIP3   OH238584   2.339   2.856   8.653 -0.1128 -0.4774  0.1433
 5650TIP3    H138585   2.374   2.861   8.742  0.1439  1.0109 -0.0022
 5650TIP3    H238586   2.244   2.852   8.664 -0.0865 -0.2039  0.4927
 5651TIP3   OH238587   0.641   5.198   2.197  0.5167  0.0949 -0.1873
 5651TIP3    H138588   0.593   5.198   2.280 -0.0232  0.3646 -0.4926
 5651TIP3    H238589   0.614   5.279   2.153  0.1930 -0.4164 -0.9660
 5652TIP3   OH238590   4.477   6.050   1.270 -0.2396 -0.0495 -0.0318
 5652TIP3    H138591   4.497   5.973   1.323  0.1964 -0.3195 -0.5943
 5652TIP3    H238592   4.438   6.111   1.333  1.5272  0.1715  0.9320
 5653TIP3   OH238593   1.925   1.479   2.534  0.2195  0.2596  0.1306
 5653TIP3    H138594   1.855   1.463   2.597 -0.2549  1.6662 -0.0042
 5653TIP3    H238595   2.006   1.466   2.583 -0.1482  0.5957  0.8344
 5654TIP3   OH238596   2.937   5.263   7.682 -0.6656  0.0178 -0.1815
 5654TIP3    H138597   3.012   5.215   7.717 -0.9356 -0.3191 -0.0637
 5654TIP3    H238598   2.873   5.196   7.661 -1.6243  0.4033  1.3570
 5655TIP3   OH238599   0.937   0.540   2.342  0.3000 -0.0565  0.2652
 5655TIP3    H138600   0.959   0.448   2.335  0.4036 -0.0168  0.0525
 5655TIP3    H238601   1.021   0.585   2.337  0.2417  0.0544  0.2758
 5656TIP3   OH238602   0.556   2.434   2.140  0.0152  0.3993 -0.2870
 5656TIP3    H138603   0.622   2.384   2.188  0.6141 -0.9767 -2.4128
 5656TIP3    H238604   0.485   2.371   2.123 -1.0965  1.3973  0.4865
 5657TIP3   OH238605   3.211   0.956   0.610  0.1286 -0.1589  0.0371
 5657TIP3    H138606   3.179   0.867   0.602 -2.3204  0.7319 -1.1051
 5657TIP3    H238607   3.222   0.969   0.705 -2.3271 -0.7997  0.4825
 5658TIP3   OH238608   5.704   3.441   0.218 -0.2132 -0.2139  0.3970
 5658TIP3    H138609   5.741   3.529   0.230 -2.0485  0.9167 -1.6191
 5658TIP3    H238610   5.776   3.391   0.180  0.6441  0.5942  0.8937
 5659TIP3   OH238611   2.721   6.038   1.932 -0.4351 -0.0565 -0.3942
 5659TIP3    H138612   2.807   6.039   1.889 -0.3342  1.2461 -0.1811
 5659TIP3    H238613   2.726   5.965   1.994  0.2535 -0.4550 -0.9038
 5660TIP3   OH238614   5.349   0.047   2.122  0.0372 -0.2633  0.0700
 5660TIP3    H138615   5.360   0.109   2.194 -0.2868  1.5775 -1.3568
 5660TIP3    H238616   5.375  -0.038   2.158  0.1187  0.6187  2.2417
 5661TIP3   OH238617   3.429   0.876   8.080 -0.5800 -0.7874 -0.0034
 5661TIP3    H138618   3.508   0.921   8.108 -1.1599 -0.2933  0.8588
 5661TIP3    H238619   3.461   0.796   8.038  0.4101 -0.1148 -0.5705
 5662TIP3   OH238620   0.013   0.572   7.328 -0.3936 -0.0767  0.2926
 5662TIP3    H138621   0.035   0.538   7.414  1.0350 -0.8320 -0.3359
 5662TIP3    H238622   0.028   0.498   7.268  0.3068  0.8994 -0.7959
 5663TIP3   OH238623   6.239   1.916   2.228  0.1053 -0.1020 -0.1983
 5663TIP3    H138624   6.193   1.928   2.311 -2.9550 -0.0166 -1.7442
 5663TIP3    H238625   6.262   2.005   2.201  1.4186 -0.1559  0.6604
 5664TIP3   OH238626   2.798   3.727   0.575 -0.7184  0.8904  0.4099
 5664TIP3    H138627   2.838   3.800   0.527 -1.0240 -0.1451 -1.5195
 5664TIP3    H238628   2.727   3.766   0.624 -0.3096  2.0277  0.1297
 5665TIP3   OH238629   4.940   0.959   7.409  0.7782  0.4571  0.3856
 5665TIP3    H138630   4.918   1.015   7.335  0.6078  1.2014  0.9800
 5665TIP3    H238631   4.889   0.995   7.482  1.1742 -0.0700  0.9351
 5666TIP3   OH238632   5.970   4.074   2.246 -0.2063  0.2516 -0.2998
 5666TIP3    H138633   6.028   4.095   2.319  1.0589  1.3401 -1.5518
 5666TIP3    H238634   6.028   4.049   2.175 -1.4378 -1.3373 -0.7987
 5667TIP3   OH238635   2.130   1.537   7.269 -0.3571 -0.3104 -1.0459
 5667TIP3    H138636   2.037   1.562   7.264 -0.3638 -0.4497 -1.7312
 5667TIP3    H238637   2.150   1.503   7.182  0.9818  2.0232 -1.7539
 5668TIP3   OH238638   6.670   2.589   7.773  0.0775  0.3866 -0.2224
 5668TIP3    H138639   6.762   2.608   7.755 -0.0033 -0.9334 -2.4068
 5668TIP3    H238640   6.629   2.584   7.686 -1.6655 -0.8185  0.6134
 5669TIP3   OH238641   0.467   2.772   0.681  0.4702 -0.3417 -0.4640
 5669TIP3    H138642   0.385   2.806   0.717 -0.0485 -1.7974 -0.1916
 5669TIP3    H238643   0.535   2.804   0.740  0.0239  0.2949 -0.2830
 5670TIP3   OH238644   0.284   0.286   7.729  0.1956  0.9269 -0.3040
 5670TIP3    H138645   0.334   0.366   7.742  1.2810  0.3192 -0.6327
 5670TIP3    H238646   0.350   0.219   7.708 -0.5402 -0.3631  1.3212
 5671TIP3   OH238647   4.304   6.377   8.310 -0.5044 -0.3407  0.5000
 5671TIP3    H138648   4.352   6.358   8.390  0.0672 -0.9865  0.0188
 5671TIP3    H238649   4.339   6.462   8.281  0.1413 -0.6660  0.3095
 5672TIP3   OH238650   6.287   2.901   2.050  0.1438 -0.3480  0.0738
 5672TIP3    H138651   6.199   2.904   2.013 -0.2684 -1.4855  0.8947
 5672TIP3    H238652   6.323   2.817   2.021  0.6963 -0.1973  0.3093
 5673TIP3   OH238653   2.394   2.167   1.600 -0.1095  0.4002 -0.0322
 5673TIP3    H138654   2.302   2.186   1.584 -0.2562 -0.4639 -0.2213
 5673TIP3    H238655   2.394   2.089   1.654  0.4430  1.9068  2.3012
 5674TIP3   OH238656   5.048   1.319   0.640  0.3552  0.1958  0.4277
 5674TIP3    H138657   5.136   1.282   0.645 -0.3816 -1.5570  1.2993
 5674TIP3    H238658   5.004   1.286   0.718 -0.3903  3.0144  1.3448
 5675TIP3   OH238659   1.727   4.467   7.863 -0.0813 -0.0230  0.4229
 5675TIP3    H138660   1.663   4.405   7.900  0.8693 -0.0315  2.1799
 5675TIP3    H238661   1.780   4.415   7.803 -1.8818  0.0571 -1.3408
 5676TIP3   OH238662   5.696   6.272   7.687 -0.4462 -0.2496 -0.0028
 5676TIP3    H138663   5.662   6.189   7.653  0.4278 -0.5524 -0.1519
 5676TIP3    H238664   5.726   6.252   7.775 -0.8016  0.0547  0.1892
 5677TIP3   OH238665   4.163   4.883   8.150  0.1758 -0.9163 -0.1525
 5677TIP3    H138666   4.104   4.957   8.140  3.1665  1.3988 -2.4021
 5677TIP3    H238667   4.173   4.873   8.245 -1.7432  0.2753  0.2218
 5678TIP3   OH238668   2.758   2.955   2.009  0.0072 -0.4199 -0.3293
 5678TIP3    H138669   2.736   3.046   2.029  1.3144  0.1329 -1.2258
 5678TIP3    H238670   2.721   2.941   1.922 -2.1542 -1.5111  0.6940
 5679TIP3   OH238671   6.864   5.173   6.312 -0.2226  0.1117  0.5691
 5679TIP3    H138672   6.837   5.225   6.236  1.0812 -0.4408 -0.2978
 5679TIP3    H238673   6.835   5.084   6.292 -3.4136  0.5267  2.5119
 5680TIP3   OH238674   6.581   0.690   7.703 -0.1839 -0.0207 -0.6019
 5680TIP3    H138675   6.629   0.747   7.643 -0.4444  0.9685  0.0915
 5680TIP3    H238676   6.526   0.750   7.753  0.6648 -0.7171  1.2256
 5681TIP3   OH238677   6.313   3.385   1.554 -0.2261  0.4595 -0.1170
 5681TIP3    H138678   6.256   3.313   1.527 -2.0535  2.0172 -0.6257
 5681TIP3    H238679   6.330   3.434   1.474  0.0546  1.2221  0.3968
 5682TIP3   OH238680   4.796   3.279   6.396 -0.3885  0.3824 -0.3237
 5682TIP3    H138681   4.781   3.290   6.490  1.0101 -0.4269  0.0280
 5682TIP3    H238682   4.891   3.288   6.386 -0.3889 -0.6771 -1.4914
 5683TIP3   OH238683   6.157   0.792   8.629 -0.1956 -0.2042 -0.0751
 5683TIP3    H138684   6.163   0.839   8.712  2.5531 -1.5530  0.6095
 5683TIP3    H238685   6.135   0.860   8.565 -2.1915  0.8968  1.6524
 5684TIP3   OH238686   3.526   4.793   1.402 -0.4806  0.4873 -0.4989
 5684TIP3    H138687   3.579   4.716   1.422 -0.6818  0.6977  1.0153
 5684TIP3    H238688   3.510   4.788   1.308  0.8948 -0.4200 -0.7172
 5685TIP3   OH238689   3.534   6.593   1.689 -0.6217  0.2894  0.1079
 5685TIP3    H138690   3.453   6.598   1.741 -0.6092  0.2972  0.1265
 5685TIP3    H238691   3.583   6.522   1.730  0.0792  1.3041  1.0867
 5686TIP3   OH238692   3.547   3.878   1.467 -0.6122  0.3041  0.2182
 5686TIP3    H138693   3.455   3.899   1.452 -0.7295 -0.1792  0.2483
 5686TIP3    H238694   3.566   3.806   1.407 -1.0135 -1.4851  2.1411
 5687TIP3   OH238695   1.491   0.305   1.955 -0.0955  0.5043  0.3570
 5687TIP3    H138696   1.536   0.262   1.883 -1.2122 -1.5597  0.8174
 5687TIP3    H238697   1.553   0.304   2.027  0.8479  2.1447 -0.3667
 5688TIP3   OH238698   0.217   6.172   1.577  0.2362 -0.6571  0.1988
 5688TIP3    H138699   0.223   6.266   1.561  0.3431 -0.7976 -0.6637
 5688TIP3    H238700   0.139   6.145   1.528  1.4818 -1.3876 -1.4805
 5689TIP3   OH238701   2.040   3.128   1.939 -0.0581 -0.5182  0.5546
 5689TIP3    H138702   2.017   3.220   1.954 -0.1073 -0.5401  0.6112
 5689TIP3    H238703   2.104   3.108   2.008  0.3547 -0.3715  0.2243
 5690TIP3   OH238704   1.894   5.230   7.462 -0.2978 -0.3869  0.1319
 5690TIP3    H138705   1.989   5.226   7.458 -0.2123  0.7611  0.7569
 5690TIP3    H238706   1.865   5.166   7.396  0.8843 -0.9456  0.1251
 5691TIP3   OH238707   0.416   6.717   2.533 -0.6761 -0.4356  0.4964
 5691TIP3    H138708   0.423   6.672   2.449 -0.1571  1.4702 -0.5482
 5691TIP3    H238709   0.326   6.749   2.535 -0.5612 -0.1047  0.4499
 5692TIP3   OH238710   4.689   0.095   7.574 -0.4761 -0.1670  0.3026
 5692TIP3    H138711   4.598   0.126   7.573 -0.8840 -1.2610 -1.4619
 5692TIP3    H238712   4.731   0.147   7.642 -2.5821 -0.1175  1.6474
 5693TIP3   OH238713   6.568   0.751   1.466 -0.0304  0.5549 -0.2078
 5693TIP3    H138714   6.627   0.732   1.539  1.6414 -1.2674 -1.9056
 5693TIP3    H238715   6.569   0.846   1.458 -1.3240  0.9643  2.8771
 5694TIP3   OH238716   2.154   0.696   1.600 -0.0422  0.4920 -0.4257
 5694TIP3    H138717   2.202   0.619   1.568 -1.8392  0.0994 -2.3844
 5694TIP3    H238718   2.082   0.660   1.651 -0.5186  0.8762 -0.8150
 5695TIP3   OH238719   2.020   2.992   0.137  0.0652 -0.7830  0.1614
 5695TIP3    H138720   2.008   2.928   0.067  1.2686  1.5198 -2.3193
 5695TIP3    H238721   1.950   3.057   0.122  2.1702  1.3944 -1.0516
 5696TIP3   OH238722   6.498   0.301   7.086 -0.0522  0.1863 -0.0439
 5696TIP3    H138723   6.491   0.206   7.092  0.1669  0.1260 -0.6614
 5696TIP3    H238724   6.484   0.320   6.994 -1.7839  0.9132  0.3349
 5697TIP3   OH238725   4.785   2.346   7.346 -0.4941  0.2063  0.2448
 5697TIP3    H138726   4.861   2.299   7.381 -1.2557 -0.4475  1.0407
 5697TIP3    H238727   4.811   2.369   7.256  0.1978 -1.0204  0.1110
 5698TIP3   OH238728   5.055   2.343   6.822 -0.8817  0.6230 -0.8385
 5698TIP3    H138729   4.980   2.310   6.773 -0.9466 -0.7674  0.1084
 5698TIP3    H238730   5.120   2.273   6.815 -1.6191 -0.6249  2.6294
 5699TIP3   OH238731   6.455   6.584   7.327 -0.0461  0.0286  0.1490
 5699TIP3    H138732   6.403   6.578   7.408  1.9089 -0.4126  1.4269
 5699TIP3    H238733   6.459   6.677   7.308  1.2213  0.3548  1.8036
 5700TIP3   OH238734   6.343   1.234   8.333  0.2970  0.5284  0.5597
 5700TIP3    H138735   6.346   1.328   8.349  0.1945  0.3706  1.5868
 5700TIP3    H238736   6.307   1.225   8.245  0.6992  1.4564  0.2905
 5701TIP3   OH238737   2.261   4.244   1.125 -0.4862  0.1952  0.6040
 5701TIP3    H138738   2.254   4.218   1.033 -0.4411  0.6808  0.4565
 5701TIP3    H238739   2.187   4.203   1.168 -0.4653 -0.0977  0.3626
 5702TIP3   OH238740   4.097   4.959   2.538  0.1689 -0.8983 -0.2776
 5702TIP3    H138741   4.028   5.010   2.580 -0.1971 -1.8612  0.3201
 5702TIP3    H238742   4.076   4.868   2.558  2.0667 -1.1929  0.6570
 5703TIP3   OH238743   0.034   5.109   0.867 -0.0470 -0.3364 -0.2405
 5703TIP3    H138744   0.044   5.033   0.925  1.1423 -0.2796 -0.3480
 5703TIP3    H238745   0.069   5.079   0.783 -0.9709 -0.1426 -0.6997
 5704TIP3   OH238746   5.985   2.692   1.299 -0.2631 -0.0242  0.3855
 5704TIP3    H138747   6.013   2.661   1.213  2.2777  1.3708  0.6056
 5704TIP3    H238748   5.949   2.780   1.282 -0.8127 -0.1909  0.6415
 5705TIP3   OH238749   0.676   3.158   7.715  0.3346 -0.7381 -0.1959
 5705TIP3    H138750   0.712   3.096   7.779  0.2477 -1.5427 -0.9076
 5705TIP3    H238751   0.584   3.165   7.739  0.5395 -0.1393  0.4635
 5706TIP3   OH238752   5.986   2.287   8.265  0.3874 -0.1280  0.0158
 5706TIP3    H138753   5.987   2.333   8.349  1.5189  0.6691 -0.4021
 5706TIP3    H238754   5.944   2.349   8.204  2.3016  0.5953 -0.6452
 5707TIP3   OH238755   1.902   6.514   7.888  0.0173  0.4309 -0.0056
 5707TIP3    H138756   1.875   6.539   7.977 -0.8234 -0.0758 -0.1012
 5707TIP3    H238757   1.914   6.419   7.893 -2.4409  0.0070 -0.9985
 5708TIP3   OH238758   4.899   5.452   7.659  0.1224  0.4397  0.1153
 5708TIP3    H138759   4.994   5.459   7.668 -0.0413  1.4340  1.3229
 5708TIP3    H238760   4.880   5.491   7.573  0.8731 -0.6637 -0.5847
 5709TIP3   OH238761   4.367   3.790   0.420 -0.1922  0.1540 -0.0313
 5709TIP3    H138762   4.351   3.714   0.476 -0.5450  0.2493 -0.0069
 5709TIP3    H238763   4.289   3.799   0.367  1.4250 -2.0950 -3.1053
 5710TIP3   OH238764   0.639   3.706   0.012 -0.4529  0.0679 -0.1421
 5710TIP3    H138765   0.552   3.743   0.027 -0.5699 -0.1785 -0.2046
 5710TIP3    H238766   0.664   3.667   0.096 -0.2216  0.5129 -0.0057
 5711TIP3   OH238767   0.866   5.213   1.575 -0.6433 -0.1422 -0.1467
 5711TIP3    H138768   0.840   5.241   1.663  1.4326  3.1071 -0.4217
 5711TIP3    H238769   0.794   5.242   1.519 -1.2607 -0.8552  0.2477
 5712TIP3   OH238770   5.775   1.512   7.217 -0.6740  0.3085 -0.0864
 5712TIP3    H138771   5.741   1.493   7.130  2.3041 -2.0059 -0.9229
 5712TIP3    H238772   5.720   1.461   7.277 -0.5334 -0.9988 -1.0340
 5713TIP3   OH238773   1.877   6.543   0.344  0.3597  0.3388 -0.5434
 5713TIP3    H138774   1.802   6.581   0.389 -0.3065 -0.9003 -0.5409
 5713TIP3    H238775   1.946   6.608   0.351 -0.4522  1.1364  0.2268
 5714TIP3   OH238776   4.010   3.167   0.429  0.4045  0.0216 -0.3673
 5714TIP3    H138777   4.017   3.072   0.428  0.3914  0.0206 -0.3762
 5714TIP3    H238778   4.065   3.197   0.357 -0.4250 -0.0332 -1.0412
 5715TIP3   OH238779   5.396   4.345   7.418  0.2569 -0.0112 -0.4842
 5715TIP3    H138780   5.376   4.270   7.474  1.2618  0.3007  0.3076
 5715TIP3    H238781   5.379   4.421   7.473 -2.2439  0.4446 -1.7528
 5716TIP3   OH238782   1.279   4.769   8.233 -0.0813  0.4738 -0.3990
 5716TIP3    H138783   1.192   4.734   8.212  0.5870 -1.6000  0.0532
 5716TIP3    H238784   1.278   4.775   8.329  0.2920  0.3641 -0.3892
 5717TIP3   OH238785   6.813   5.945   7.245  0.6763 -0.2023 -0.3430
 5717TIP3    H138786   6.863   5.919   7.323  1.4921 -0.3382 -0.9013
 5717TIP3    H238787   6.727   5.968   7.279  0.9245 -0.5609  0.5663
 5718TIP3   OH238788   3.096   3.605   7.962 -0.4652  0.1514 -0.4274
 5718TIP3    H138789   3.036   3.588   7.889 -0.5831 -0.4406 -0.1938
 5718TIP3    H238790   3.082   3.532   8.022 -0.3795  0.6418  0.2012
 5719TIP3   OH238791   4.353   3.163   2.033 -0.4116 -0.2761 -0.4316
 5719TIP3    H138792   4.354   3.245   2.082  1.0293  0.1429 -1.1103
 5719TIP3    H238793   4.412   3.178   1.959 -1.1901 -1.4716 -1.3394
 5720TIP3   OH238794   5.012   3.954   0.800 -0.0941 -0.0333  0.3941
 5720TIP3    H138795   5.090   3.915   0.761  0.8278  2.6061 -0.6259
 5720TIP3    H238796   5.010   3.920   0.889  2.1773 -0.2207  0.4328
 5721TIP3   OH238797   0.731   6.497   7.486 -0.0368 -0.0756  0.2503
 5721TIP3    H138798   0.809   6.497   7.541  0.7344  0.9210 -0.8168
 5721TIP3    H238799   0.755   6.549   7.409 -0.8924 -1.8595 -1.3146
 5722TIP3   OH238800   3.022   6.679   2.283 -0.0980 -0.3378  0.3944
 5722TIP3    H138801   3.050   6.631   2.205  0.6235  0.7329 -0.0267
 5722TIP3    H238802   2.927   6.687   2.273 -0.0353 -0.3636 -0.2837
 5723TIP3   OH238803   0.736   2.578   7.697 -0.6254 -0.0169  0.1602
 5723TIP3    H138804   0.679   2.523   7.643 -0.6616 -0.5689  0.7406
 5723TIP3    H238805   0.814   2.590   7.644 -0.8241 -0.2123 -0.1833
 5724TIP3   OH238806   2.427   3.892   7.072 -0.4300 -0.1310 -0.3152
 5724TIP3    H138807   2.406   3.832   7.001 -0.4134  0.1700 -0.5765
 5724TIP3    H238808   2.358   3.959   7.069  0.3346  0.6423 -0.9271
 5725TIP3   OH238809   3.582   0.268   0.039 -0.0037  0.0659 -0.0215
 5725TIP3    H138810   3.558   0.350  -0.004  2.0199  1.2841  0.9594
 5725TIP3    H238811   3.622   0.215  -0.030  0.0522  0.5563 -0.3722
 5726TIP3   OH238812   6.165   3.840   1.654 -0.0426  0.3999  0.0656
 5726TIP3    H138813   6.249   3.885   1.652 -0.5710  1.6729  2.4338
 5726TIP3    H238814   6.154   3.814   1.745 -2.4605  0.8012 -0.0326
 5727TIP3   OH238815   1.953   0.096   1.428 -0.6278  0.0768 -0.3344
 5727TIP3    H138816   1.872   0.046   1.423 -0.1315 -0.7233 -0.6004
 5727TIP3    H238817   1.958   0.124   1.520 -1.6881  0.9911 -0.5387
 5728TIP3   OH238818   4.834   1.111   1.688 -0.3598 -0.2572 -0.0139
 5728TIP3    H138819   4.910   1.079   1.738 -0.6099 -0.9753 -0.0815
 5728TIP3    H238820   4.856   1.201   1.666 -0.8908  0.6021  2.6982
 5729TIP3   OH238821   4.341   3.767   1.441 -0.2340 -0.1135 -0.6359
 5729TIP3    H138822   4.260   3.721   1.415 -0.8356 -0.1232  1.1123
 5729TIP3    H238823   4.334   3.776   1.536  1.2418  1.0465 -0.5978
 5730TIP3   OH238824   0.729   2.651   0.588 -0.0929  0.6861  0.2860
 5730TIP3    H138825   0.800   2.644   0.652 -0.3021 -1.3212  0.3737
 5730TIP3    H238826   0.708   2.560   0.566 -0.6119  1.2905 -2.0085
 5731TIP3   OH238827   6.472   1.298   1.390  0.2876 -0.1821  0.1441
 5731TIP3    H138828   6.535   1.328   1.325  0.8435 -1.6892 -0.0501
 5731TIP3    H238829   6.391   1.285   1.341  0.2527  0.2586  0.0849
 5732TIP3   OH238830   2.397   5.093   0.505 -0.0472  0.3773  0.7250
 5732TIP3    H138831   2.390   5.121   0.413  0.7058 -0.2138  0.4749
 5732TIP3    H238832   2.470   5.143   0.540 -0.4142  0.6958  1.0475
 5733TIP3   OH238833   3.635   2.006   1.770  0.2413  0.5588  0.6129
 5733TIP3    H138834   3.579   1.947   1.720 -0.8305  1.7851  0.3097
 5733TIP3    H238835   3.724   1.985   1.742 -0.1612 -0.5272  0.1158
 5734TIP3   OH238836   2.818   4.725   0.546 -0.1246 -0.1824 -0.1418
 5734TIP3    H138837   2.790   4.803   0.593  1.7562 -0.2104  1.1354
 5734TIP3    H238838   2.835   4.755   0.457  1.5763  1.1729  0.5675
 5735TIP3   OH238839   5.234   1.102   0.638 -0.0230  0.2987  0.4605
 5735TIP3    H138840   5.322   1.093   0.602 -0.0711  2.8928 -0.4807
 5735TIP3    H238841   5.246   1.146   0.722 -0.3659  0.0280  0.6548
 5736TIP3   OH238842   6.368   2.201   8.426  0.3604 -0.2554 -0.0722
 5736TIP3    H138843   6.393   2.294   8.421  0.5404 -0.3167 -0.3075
 5736TIP3    H238844   6.411   2.170   8.506  1.5456 -0.5111 -0.7865
 5737TIP3   OH238845   0.629   4.696   1.649 -0.1304 -0.2802 -0.1788
 5737TIP3    H138846   0.715   4.667   1.617  0.0992 -1.6340  1.4779
 5737TIP3    H238847   0.569   4.678   1.576  0.7220 -1.0107 -0.7245
 5738TIP3   OH238848   4.266   1.172   0.127  0.1780 -0.0204  0.7367
 5738TIP3    H138849   4.312   1.244   0.085 -2.0556  2.0140  1.5723
 5738TIP3    H238850   4.311   1.161   0.211 -0.1877  1.2683  1.1264
 5739TIP3   OH238851   5.344   2.625   1.887 -0.1872 -0.8495  0.5489
 5739TIP3    H138852   5.297   2.553   1.846 -1.5685  0.0434  0.5174
 5739TIP3    H238853   5.408   2.583   1.944  2.1347 -2.1736 -2.7608
 5740TIP3   OH238854   3.792   0.075   7.676  0.2350 -0.2905 -0.5942
 5740TIP3    H138855   3.887   0.074   7.672  0.2844  1.8232 -1.0000
 5740TIP3    H238856   3.770   0.015   7.747  1.8127 -1.2110 -0.8278
 5741TIP3   OH238857   3.929   3.958   1.939  0.2604  0.6461  0.6082
 5741TIP3    H138858   3.960   4.013   1.866  1.6339  0.7000  1.1971
 5741TIP3    H238859   3.903   4.020   2.006 -0.1766  0.5866  0.4968
 5742TIP3   OH238860   0.871   0.966   8.055 -0.3272  0.0042 -0.2541
 5742TIP3    H138861   0.815   0.958   7.978 -0.4211  0.2680 -0.2126
 5742TIP3    H238862   0.926   1.042   8.038  0.7615 -0.8887 -0.7582
 5743TIP3   OH238863   2.621   0.159   0.870 -0.3136 -0.1078 -0.1588
 5743TIP3    H138864   2.642   0.172   0.778  0.0572  1.0347  0.0626
 5743TIP3    H238865   2.672   0.084   0.897  1.1446  0.7594 -0.4055
 5744TIP3   OH238866   6.145   4.723   8.322 -0.2468 -0.4501 -0.2952
 5744TIP3    H138867   6.103   4.783   8.383  1.9348  1.5030 -0.6028
 5744TIP3    H238868   6.111   4.747   8.236 -0.5522 -0.7400 -0.2595
 5745TIP3   OH238869   1.101   0.126   0.895 -0.0984 -0.6366  0.4613
 5745TIP3    H138870   1.006   0.127   0.885  0.0008 -1.7944 -1.1013
 5745TIP3    H238871   1.122   0.034   0.912  0.7966 -0.5557 -0.1058
 5746TIP3   OH238872   0.561   4.287   0.339 -0.1206  0.8752  0.6741
 5746TIP3    H138873   0.492   4.309   0.276  0.8713  1.6456 -0.1627
 5746TIP3    H238874   0.514   4.271   0.421 -1.5406 -0.9941 -0.4191
 5747TIP3   OH238875   5.152   1.236   7.239 -0.2494 -0.7817 -0.0921
 5747TIP3    H138876   5.059   1.217   7.253 -0.7213  0.5621 -1.2016
 5747TIP3    H238877   5.180   1.172   7.174 -1.1270  0.5031 -1.7964
 5748TIP3   OH238878   0.613   0.945   6.569  0.0403 -0.8555 -0.5121
 5748TIP3    H138879   0.536   0.890   6.581 -0.0377 -0.8129 -0.8195
 5748TIP3    H238880   0.687   0.884   6.570 -0.0767 -1.0210 -1.2793
 5749TIP3   OH238881   3.132   3.757   8.322  0.8244 -0.4238 -0.6015
 5749TIP3    H138882   3.040   3.767   8.344  0.1668 -1.1759 -2.7175
 5749TIP3    H238883   3.179   3.782   8.401 -1.1400  1.3106  0.1054
 5750TIP3   OH238884   2.532   6.504   1.094  0.7031  0.0494 -0.1831
 5750TIP3    H138885   2.613   6.472   1.055  2.4440  3.3418  0.4315
 5750TIP3    H238886   2.559   6.553   1.172 -1.7051  2.1459 -0.5123
 5751TIP3   OH238887   3.605   3.982   1.130  0.1409  0.1370  0.1032
 5751TIP3    H138888   3.691   4.003   1.167 -0.0190  0.4678  0.3003
 5751TIP3    H238889   3.576   3.905   1.179  0.6662 -0.4674 -0.5130
 5752TIP3   OH238890   1.672   3.074   0.373  0.1311 -0.0482  0.1559
 5752TIP3    H138891   1.641   3.163   0.391 -1.5597 -0.3136 -1.2147
 5752TIP3    H238892   1.706   3.078   0.284  0.6690 -0.6416  0.3279
 5753TIP3   OH238893   0.112   6.376   7.950 -0.6435  0.6088  0.0173
 5753TIP3    H138894   0.044   6.400   8.013 -0.5160  0.9411  0.0293
 5753TIP3    H238895   0.080   6.409   7.866 -0.3914  0.9662  0.0616
 5754TIP3   OH238896   6.903   3.113   6.651  0.4881 -0.3001  0.4688
 5754TIP3    H138897   6.954   3.074   6.581 -0.5091 -2.2190  0.7471
 5754TIP3    H238898   6.931   3.068   6.730  0.3705  0.6315  1.0638
 5755TIP3   OH238899   2.772   1.859   0.516 -0.0977 -0.2446  0.3484
 5755TIP3    H138900   2.700   1.860   0.579 -0.6781 -1.5855 -0.2393
 5755TIP3    H238901   2.808   1.771   0.523  0.3923 -0.1256 -0.5625
 5756TIP3   OH238902   0.671   3.194   0.703  0.0380 -0.1264  0.2637
 5756TIP3    H138903   0.647   3.267   0.761 -0.8763 -0.9929  1.0285
 5756TIP3    H238904   0.756   3.165   0.736  0.0527  0.1136  0.4436
 5757TIP3   OH238905   4.392   6.011   6.660 -0.2956  0.5527  0.9326
 5757TIP3    H138906   4.465   6.073   6.654  0.3423 -0.2463  0.2089
 5757TIP3    H238907   4.433   5.927   6.677 -0.5767 -0.7512 -3.6259
 5758TIP3   OH238908   6.743   1.801   7.943 -0.2143 -0.2383  0.1570
 5758TIP3    H138909   6.685   1.827   7.872 -0.8742 -3.1741 -0.5475
 5758TIP3    H238910   6.733   1.706   7.948  0.4651 -0.2552  3.6618
 5759TIP3   OH238911   3.434   1.134   2.634 -0.6422  0.2123 -0.1379
 5759TIP3    H138912   3.340   1.141   2.648 -0.7208  1.8770 -1.2500
 5759TIP3    H238913   3.473   1.184   2.706 -0.5625 -0.6440  0.4393
 5760TIP3   OH238914   6.190   6.685   1.931 -0.0186  0.2646 -0.3633
 5760TIP3    H138915   6.097   6.684   1.909  0.1376  1.0076 -1.1355
 5760TIP3    H238916   6.230   6.735   1.860  0.7606  1.2992  0.7703
 5761TIP3   OH238917   5.090   4.240   7.358  0.0175 -0.4444 -0.0754
 5761TIP3    H138918   5.135   4.302   7.417 -0.0329 -0.3724 -0.1128
 5761TIP3    H238919   5.016   4.208   7.409 -0.7891  0.6140 -0.5577
 5762TIP3   OH238920   6.904   4.504   8.287 -0.1147  0.2389 -1.1732
 5762TIP3    H138921   6.938   4.565   8.221  0.4433  0.1331 -0.9856
 5762TIP3    H238922   6.857   4.438   8.236  2.1542 -1.0929 -1.6930
 5763TIP3   OH238923   6.570   0.398   1.179 -0.7884  0.3582  0.1846
 5763TIP3    H138924   6.476   0.384   1.175 -0.7098 -0.0480 -0.2692
 5763TIP3    H238925   6.597   0.409   1.088 -0.4955  1.1564  0.3627
 5764TIP3   OH238926   5.874   4.000   1.645  0.2508 -0.2960  0.1083
 5764TIP3    H138927   5.929   4.061   1.597 -2.3704  2.8837  0.7720
 5764TIP3    H238928   5.804   3.977   1.584  1.0080 -2.5350 -0.0164
 5765TIP3   OH238929   5.374   5.366   7.014 -0.4429  0.5763  0.7935
 5765TIP3    H138930   5.417   5.451   7.000  1.8489 -0.6439 -0.2052
 5765TIP3    H238931   5.288   5.375   6.974  0.3784  1.9296 -0.8075
 5766TIP3   OH238932   1.191   6.496   7.237 -0.3213  0.2915  0.2369
 5766TIP3    H138933   1.098   6.478   7.229 -0.4732  1.2589 -0.2597
 5766TIP3    H238934   1.226   6.421   7.286 -0.8305 -1.6286 -2.1293
 5767TIP3   OH238935   1.267   5.307   6.823 -0.0246  0.0478 -0.0043
 5767TIP3    H138936   1.280   5.385   6.768 -0.6099  0.0191 -0.1921
 5767TIP3    H238937   1.200   5.257   6.778 -0.8423  0.2363  0.9531
 5768TIP3   OH238938   0.568   0.283   0.986 -0.1399 -0.0964  0.0952
 5768TIP3    H138939   0.545   0.361   0.936 -0.8957 -0.4749 -0.1516
 5768TIP3    H238940   0.486   0.255   1.026 -0.4090 -2.1227 -1.7022
 5769TIP3   OH238941   3.859   1.141   1.481  0.3068  0.0251 -0.1399
 5769TIP3    H138942   3.869   1.101   1.568  1.1536  0.1825 -0.1640
 5769TIP3    H238943   3.828   1.070   1.425 -0.0610 -0.1217  0.2443
 5770TIP3   OH238944   2.866   3.444   1.675  0.7351 -0.2643 -0.4290
 5770TIP3    H138945   2.771   3.433   1.683  0.9234 -1.7617  0.2523
 5770TIP3    H238946   2.883   3.439   1.581  0.0971  0.4551 -0.5881
 5771TIP3   OH238947   1.354   6.521   2.507 -0.9730  0.2626  0.2457
 5771TIP3    H138948   1.348   6.564   2.592 -1.2520 -0.0904  0.4091
 5771TIP3    H238949   1.433   6.467   2.513 -0.7908  0.5185  0.1494
 5772TIP3   OH238950   5.799   0.362   0.970 -0.1632  0.5504 -0.3556
 5772TIP3    H138951   5.854   0.336   1.044 -0.1927  0.5998 -0.3158
 5772TIP3    H238952   5.847   0.434   0.929 -0.2339  0.6448 -0.2753
 5773TIP3   OH238953   5.578   3.180   7.280 -0.3113  0.3755 -0.6083
 5773TIP3    H138954   5.638   3.213   7.212 -1.2505  1.6225 -0.8609
 5773TIP3    H238955   5.509   3.136   7.231 -0.1188 -0.2104 -0.3616
 5774TIP3   OH238956   6.472   2.942   1.162 -0.5877 -0.0426  0.0196
 5774TIP3    H138957   6.546   2.955   1.103 -1.4884  1.3766 -0.8646
 5774TIP3    H238958   6.399   2.986   1.118 -1.6411 -0.2516  1.4969
 5775TIP3   OH238959   5.217   4.208   6.520  0.8313 -0.1422  0.5056
 5775TIP3    H138960   5.188   4.272   6.584 -0.0076 -0.7518  0.7445
 5775TIP3    H238961   5.137   4.173   6.482  1.3010 -0.1955 -0.4888
 5776TIP3   OH238962   3.177   4.957   0.228 -0.3783  0.8232  0.6188
 5776TIP3    H138963   3.087   4.987   0.236 -0.4336  0.3895  1.7265
 5776TIP3    H238964   3.218   5.020   0.168 -1.3299  1.1859  0.3344
 5777TIP3   OH238965   0.697   1.610   2.307  0.0793 -0.8653 -0.2660
 5777TIP3    H138966   0.651   1.666   2.245 -0.1780 -0.7066  0.0699
 5777TIP3    H238967   0.784   1.598   2.268  0.0908 -0.3430 -0.4049
 5778TIP3   OH238968   4.035   2.718   0.616  0.7988 -0.0238  0.1941
 5778TIP3    H138969   3.994   2.799   0.586  0.1771 -0.1681  0.6285
 5778TIP3    H238970   3.965   2.652   0.608  1.5544 -0.7157 -1.0123
 5779TIP3   OH238971   1.366   3.604   8.346 -0.1070 -0.1260  0.0256
 5779TIP3    H138972   1.438   3.542   8.338  1.2370  1.4843 -0.9788
 5779TIP3    H238973   1.347   3.606   8.440  2.0699  0.3286  0.5266
 5780TIP3   OH238974   6.548   1.859   0.407 -0.3834 -0.1097 -0.5936
 5780TIP3    H138975   6.608   1.900   0.345 -0.0361 -0.3419 -0.4187
 5780TIP3    H238976   6.576   1.767   0.410 -0.4044 -0.1058 -0.1128
 5781TIP3   OH238977   0.531   5.180   8.354  0.2719  0.1910 -0.1877
 5781TIP3    H138978   0.589   5.104   8.356 -1.0736 -0.8888 -0.5243
 5781TIP3    H238979   0.519   5.199   8.260  2.2126  2.1620 -0.1298
 5782TIP3   OH238980   3.743   6.068   7.937 -0.1228  0.1147 -0.2111
 5782TIP3    H138981   3.771   6.017   7.860  0.4097  3.1735 -2.2388
 5782TIP3    H238982   3.814   6.131   7.951 -0.3443 -0.1512  2.7080
 5783TIP3   OH238983   3.151   5.844   8.173  0.2316  0.2795  0.2139
 5783TIP3    H138984   3.201   5.767   8.149 -0.3735  0.0947 -0.4825
 5783TIP3    H238985   3.101   5.866   8.094 -1.3020  0.0513  1.0797
 5784TIP3   OH238986   4.760   2.495   7.703  0.1938 -0.8357 -0.1296
 5784TIP3    H138987   4.773   2.452   7.788  0.9606 -2.2845 -0.9463
 5784TIP3    H238988   4.825   2.454   7.646  0.8265  1.2974 -1.0252
 5785TIP3   OH238989   5.076   6.834   7.729  0.2165 -0.1186  0.3772
 5785TIP3    H138990   5.142   6.898   7.754 -0.5708  0.8507  0.0616
 5785TIP3    H238991   5.123   6.768   7.678  0.9184  0.6160  0.0575
 5786TIP3   OH238992   6.891   0.427   1.060 -0.1161 -0.1837  0.1140
 5786TIP3    H138993   6.858   0.515   1.079  4.2448  1.8925 -0.6812
 5786TIP3    H238994   6.918   0.393   1.146  0.3552  0.2776  0.1533
 5787TIP3   OH238995   2.274   1.259   6.876 -0.7402  0.0657  0.0729
 5787TIP3    H138996   2.304   1.309   6.952 -0.3969 -0.1160  0.0582
 5787TIP3    H238997   2.204   1.202   6.911 -0.2676 -0.3514  0.3489
 5788TIP3   OH238998   2.051   3.835   2.133 -0.3731  0.3010  0.4195
 5788TIP3    H138999   1.986   3.826   2.202  0.6460 -1.1509  1.2481
 5788TIP3    H239000   2.026   3.770   2.067 -1.2302  1.5466 -0.5299
 5789TIP3   OH239001   0.086   5.752   7.376  0.2983 -0.1301  0.1705
 5789TIP3    H139002   0.172   5.728   7.340  0.6875  0.4267  0.7148
 5789TIP3    H239003   0.101   5.834   7.423 -0.9845  1.2182 -1.6268
 5790TIP3   OH239004   2.147   6.038   0.043 -0.1200  0.2057  0.1493
 5790TIP3    H139005   2.235   6.056   0.078  0.3037 -1.0663 -0.2271
 5790TIP3    H239006   2.120   5.958   0.087 -1.1517  0.6422  0.3337
 5791TIP3   OH239007   4.205   0.102   0.725 -0.0001  0.3486  0.0352
 5791TIP3    H139008   4.166   0.153   0.654 -1.1087  0.6110  0.8155
 5791TIP3    H239009   4.284   0.152   0.749  0.1425  0.4896 -0.6999
 5792TIP3   OH239010   5.874   2.087   7.372 -0.6341  0.1639 -0.3947
 5792TIP3    H139011   5.842   1.998   7.387 -1.2797  0.1072 -1.8631
 5792TIP3    H239012   5.867   2.099   7.277  1.3330  1.0778 -0.4906
 5793TIP3   OH239013   6.364   6.563   1.093  0.0058  0.3960 -0.3794
 5793TIP3    H139014   6.400   6.651   1.104 -1.0532  0.8057 -0.0784
 5793TIP3    H239015   6.290   6.559   1.153  1.7895 -1.7482  1.8948
 5794TIP3   OH239016   5.146   0.125   0.127 -0.5671 -0.6455  0.9021
 5794TIP3    H139017   5.118   0.098   0.040  1.5308 -0.1460  0.0183
 5794TIP3    H239018   5.122   0.052   0.184 -0.0794 -1.9068 -0.4646
 5795TIP3   OH239019   2.799   2.369   0.998 -0.0935 -0.1767 -0.2454
 5795TIP3    H139020   2.804   2.281   0.960  0.7443 -0.3608  0.2653
 5795TIP3    H239021   2.850   2.363   1.078  0.1397  0.8375 -0.3076
 5796TIP3   OH239022   5.637   4.683   1.084  0.1198  0.1561 -0.1486
 5796TIP3    H139023   5.570   4.682   1.153 -0.2424 -0.5496 -0.4994
 5796TIP3    H239024   5.708   4.629   1.119 -0.4015 -0.8596 -0.6541
 5797TIP3   OH239025   1.313   1.733   8.531  0.3479 -0.0884 -0.4788
 5797TIP3    H139026   1.339   1.666   8.594  0.4165 -0.9248 -1.3823
 5797TIP3    H239027   1.249   1.787   8.579  0.7396 -0.4260  0.4442
 5798TIP3   OH239028   4.987   5.195   6.750  0.0257 -0.5725 -0.0907
 5798TIP3    H139029   4.928   5.145   6.694 -1.6348  0.1079  0.9504
 5798TIP3    H239030   4.945   5.192   6.836  1.2393  0.4332  0.5644
 5799TIP3   OH239031   4.677   6.516   2.540 -0.2910  0.6460  0.1102
 5799TIP3    H139032   4.754   6.469   2.572 -0.3349 -1.0061 -1.9755
 5799TIP3    H239033   4.604   6.481   2.592  0.1602  1.1442  1.0908
 5800TIP3   OH239034   0.235   5.528   1.535  0.1912  0.3407 -0.2069
 5800TIP3    H139035   0.171   5.598   1.541 -0.5742 -0.2462 -1.2062
 5800TIP3    H239036   0.247   5.514   1.441 -0.4072 -1.4885 -0.0589
 5801TIP3   OH239037   5.909   5.031   7.192 -0.4204  0.2825 -0.0638
 5801TIP3    H139038   5.827   5.049   7.146  1.2510  0.2895 -3.4051
 5801TIP3    H239039   5.941   4.950   7.153  1.2510  0.4014  0.9655
 5802TIP3   OH239040   0.360   2.319   1.856  0.7453 -0.1850 -0.3067
 5802TIP3    H139041   0.362   2.261   1.931 -0.1601  1.2412  0.8826
 5802TIP3    H239042   0.322   2.401   1.889 -1.4711 -0.0832 -2.7208
 5803TIP3   OH239043   3.971   6.322   0.816  0.5236  0.3371 -0.4181
 5803TIP3    H139044   4.063   6.320   0.791  0.3460 -2.7578 -1.1980
 5803TIP3    H239045   3.970   6.369   0.900  2.8599  0.0419 -0.1623
 5804TIP3   OH239046   3.716   1.864   7.217  0.3932 -0.1448 -0.0905
 5804TIP3    H139047   3.664   1.943   7.197  0.9045  0.0195 -0.8020
 5804TIP3    H239048   3.790   1.869   7.157 -0.1410 -1.7443 -0.9152
 5805TIP3   OH239049   1.227   6.873   1.925 -0.6692 -0.3656  0.0960
 5805TIP3    H139050   1.310   6.895   1.883 -0.2493 -0.5584  0.8142
 5805TIP3    H239051   1.162   6.927   1.879 -0.3696 -1.2280 -1.3878
 5806TIP3   OH239052   5.550   3.431   7.090  0.7584  0.2646 -0.9922
 5806TIP3    H139053   5.457   3.438   7.110  0.9514  0.7269 -0.2085
 5806TIP3    H239054   5.554   3.426   6.994  0.1086  3.9023 -1.3664
 5807TIP3   OH239055   1.824   3.154   2.112  0.7329  0.0191 -0.2720
 5807TIP3    H139056   1.846   3.243   2.086  0.2770  0.3380  0.4230
 5807TIP3    H239057   1.763   3.164   2.184  0.8742 -0.8591 -0.0170
 5808TIP3   OH239058   4.305   5.319   0.099  0.1594 -0.1180 -0.0957
 5808TIP3    H139059   4.294   5.400   0.049 -2.8735  0.9609  1.9978
 5808TIP3    H239060   4.291   5.249   0.035 -0.9244  1.1073 -1.2695
 5809TIP3   OH239061   1.675   6.258   0.975  0.0204  0.1780  0.4265
 5809TIP3    H139062   1.647   6.346   0.998 -1.6229  0.0265 -0.8512
 5809TIP3    H239063   1.696   6.262   0.882  0.6200 -0.6248  0.5132
 5810TIP3   OH239064   1.453   1.465   1.732  0.0591 -0.1619 -0.4754
 5810TIP3    H139065   1.494   1.543   1.769 -1.1927  1.1789 -1.8149
 5810TIP3    H239066   1.397   1.498   1.662 -4.4203 -1.6480  1.9872
 5811TIP3   OH239067   5.087   0.474   0.801 -0.0940  0.0581  0.3969
 5811TIP3    H139068   5.051   0.516   0.880 -1.0364  1.2747 -0.6507
 5811TIP3    H239069   5.061   0.531   0.729  0.1131 -1.4256 -0.9029
 5812TIP3   OH239070   5.719   2.403   1.320  0.1692 -0.2218 -0.3347
 5812TIP3    H139071   5.747   2.414   1.229  2.0060 -0.0162  0.2220
 5812TIP3    H239072   5.785   2.449   1.371 -1.1217  0.1223  1.1022
 5813TIP3   OH239073   2.715   4.311   2.068 -0.2781  0.1684  0.4511
 5813TIP3    H139074   2.630   4.328   2.027 -0.2333  1.8795  0.9712
 5813TIP3    H239075   2.768   4.387   2.045  0.3463  0.2696  2.0684
 5814TIP3   OH239076   0.747   2.240   2.221  0.0191 -0.6032  0.8328
 5814TIP3    H139077   0.686   2.168   2.236 -0.6272 -0.3382 -0.4070
 5814TIP3    H239078   0.821   2.201   2.175  1.5712 -1.2313  3.6443
 5815TIP3   OH239079   5.064   5.354   1.820  0.2858  0.7217 -0.7663
 5815TIP3    H139080   5.093   5.266   1.799  0.3454  0.0327  1.8366
 5815TIP3    H239081   5.131   5.411   1.782  1.5615 -0.4973 -0.4331
 5816TIP3   OH239082   5.708   5.980   8.642 -0.0893  0.5683 -0.1275
 5816TIP3    H139083   5.777   5.950   8.702 -2.6350 -1.3256  2.1360
 5816TIP3    H239084   5.687   6.068   8.671  0.8879  0.8932 -0.3852
 5817TIP3   OH239085   5.893   3.094   7.723 -0.9810  0.0134 -0.0622
 5817TIP3    H139086   5.823   3.049   7.769 -1.3053 -0.9712 -1.4361
 5817TIP3    H239087   5.877   3.187   7.738 -1.9426 -0.2422  0.5328
 5818TIP3   OH239088   6.576   3.636   7.384 -0.1049 -0.1838 -0.3413
 5818TIP3    H139089   6.553   3.695   7.312 -0.3041  1.7985  1.2422
 5818TIP3    H239090   6.634   3.571   7.344 -1.0984  0.1513 -2.5064
 5819TIP3   OH239091   3.808   3.418   0.362 -0.1395 -0.0488  0.4523
 5819TIP3    H139092   3.802   3.508   0.394 -1.1197 -1.4534  4.7846
 5819TIP3    H239093   3.889   3.384   0.399  0.3990 -0.9732 -1.4094
 5820TIP3   OH239094   5.939   0.050   0.928  0.1068 -0.4071  0.4240
 5820TIP3    H139095   6.003  -0.021   0.935  0.6032 -0.3296 -2.3625
 5820TIP3    H239096   5.858   0.014   0.964  0.4082 -2.3240 -0.7182
 5821TIP3   OH239097   3.770   4.261   6.594 -0.4101  0.0646  0.4373
 5821TIP3    H139098   3.710   4.304   6.656  1.1453  0.6869  1.5657
 5821TIP3    H239099   3.795   4.331   6.533  0.2300  0.1728  0.8134
 5822TIP3   OH239100   2.464   6.046   0.011  0.2898  0.1771 -0.1054
 5822TIP3    H139101   2.435   6.003   0.091  0.7431 -0.5601 -0.3208
 5822TIP3    H239102   2.554   6.073   0.029  0.3182  0.2069 -0.2835
 5823TIP3   OH239103   0.709   2.712   7.281  0.4498  0.4339  0.1353
 5823TIP3    H139104   0.679   2.630   7.320 -1.3974 -0.0690 -2.1312
 5823TIP3    H239105   0.656   2.780   7.323 -1.0604 -0.0376 -0.8942
 5824TIP3   OH239106   0.388   1.527   1.173 -0.2584 -0.1048  0.4130
 5824TIP3    H139107   0.460   1.532   1.111 -2.8374 -1.6082 -3.0149
 5824TIP3    H239108   0.395   1.439   1.211  0.0974  0.0230  0.6500
 5825TIP3   OH239109   6.686   5.215   6.805  0.1696 -0.0816  0.5917
 5825TIP3    H139110   6.713   5.257   6.887  1.8625 -0.4765  0.2711
 5825TIP3    H239111   6.732   5.131   6.804 -1.2658 -0.8948  0.0736
 5826TIP3   OH239112   0.624   1.165   6.070  0.1828 -0.0936 -0.1105
 5826TIP3    H139113   0.704   1.145   6.021 -0.6917 -1.4110 -1.0534
 5826TIP3    H239114   0.564   1.200   6.004 -0.9023 -1.5810  0.0455
 5827TIP3   OH239115   2.237   6.426   0.112  0.1487 -0.4512  0.5455
 5827TIP3    H139116   2.295   6.382   0.173  0.5481  0.8318  1.1359
 5827TIP3    H239117   2.275   6.514   0.102 -0.9259 -0.0351 -0.1272
 5828TIP3   OH239118   6.132   0.315   1.467 -0.4957  0.0556 -0.2857
 5828TIP3    H139119   6.079   0.242   1.498  0.6303 -0.7000 -0.0925
 5828TIP3    H239120   6.215   0.307   1.515 -0.7194  2.1005  0.5619
 5829TIP3   OH239121   5.835   4.822   7.980  0.4651  0.1910 -0.0756
 5829TIP3    H139122   5.817   4.867   7.897  1.1121 -2.4297 -1.7321
 5829TIP3    H239123   5.761   4.763   7.991  1.0670 -0.4696  0.4784
 5830TIP3   OH239124   0.188   4.045   1.660  0.4615  0.2951 -0.5084
 5830TIP3    H139125   0.096   4.018   1.660  0.6852 -0.4684 -0.7049
 5830TIP3    H239126   0.230   3.990   1.594  1.1948  0.1805  0.0388
 5831TIP3   OH239127   1.717   5.669   7.402 -0.3193 -0.3365 -0.2211
 5831TIP3    H139128   1.729   5.682   7.496 -0.0240 -1.7843 -0.0255
 5831TIP3    H239129   1.630   5.704   7.384 -0.3934 -0.0732  0.5991
 5832TIP3   OH239130   0.709   5.403   8.383 -0.0899 -0.3907 -0.4296
 5832TIP3    H139131   0.653   5.471   8.420  0.9206  0.3126 -0.1539
 5832TIP3    H239132   0.649   5.332   8.360 -0.7899 -1.0408  2.8752
 5833TIP3   OH239133   6.284   6.235   8.638  0.0857  0.0650 -0.2457
 5833TIP3    H139134   6.230   6.305   8.674 -0.4344 -0.6702  0.4624
 5833TIP3    H239135   6.290   6.171   8.709  0.3906 -0.6899 -0.9341
 5834TIP3   OH239136   1.026   0.457   2.042 -0.5580  0.6203 -0.2435
 5834TIP3    H139137   1.098   0.404   2.006  1.6658  1.8872  2.0441
 5834TIP3    H239138   0.973   0.394   2.092 -0.8091 -0.2361 -1.5257
 5835TIP3   OH239139   0.316   6.587   7.412  0.0531  0.3814 -0.4218
 5835TIP3    H139140   0.306   6.616   7.322  0.1106 -2.5144 -1.4852
 5835TIP3    H239141   0.259   6.644   7.463 -1.2681  1.0439 -2.5302
 5836TIP3   OH239142   2.365   0.009   1.756 -0.1742  0.0620  0.3552
 5836TIP3    H139143   2.397   0.040   1.672 -0.1305  1.4094  0.8362
 5836TIP3    H239144   2.281  -0.032   1.736  0.4252 -0.8011 -0.4962
 5837TIP3   OH239145   2.048   0.495   1.291  0.3805  0.4116 -0.0641
 5837TIP3    H139146   2.045   0.583   1.253 -0.7801 -0.0629 -1.1384
 5837TIP3    H239147   1.960   0.482   1.327  0.1160 -0.8162 -1.1217
 5838TIP3   OH239148   1.184   1.220   0.851  0.2682  0.6951  0.6340
 5838TIP3    H139149   1.238   1.244   0.926  1.0223 -0.1454  0.3842
 5838TIP3    H239150   1.227   1.263   0.776 -0.9429  2.2128  0.7494
 5839TIP3   OH239151   0.351   1.671   8.512  0.1453  0.0026 -0.3346
 5839TIP3    H139152   0.389   1.758   8.515  1.6125 -0.6191  0.8311
 5839TIP3    H239153   0.299   1.669   8.432 -0.4124  2.1209 -0.0721
 5840TIP3   OH239154   2.149   0.057   6.738 -0.1313  0.1501 -0.2719
 5840TIP3    H139155   2.073  -0.001   6.745 -0.3801  0.5840  0.7804
 5840TIP3    H239156   2.200   0.039   6.817  1.4394 -0.8953 -1.4435
 5841TIP3   OH239157   3.670   6.487   7.970  0.0893  0.4956 -0.5135
 5841TIP3    H139158   3.722   6.427   7.917  3.9312  1.4869  1.7634
 5841TIP3    H239159   3.664   6.445   8.056 -3.0973  0.4426 -0.6340
 5842TIP3   OH239160   2.453   5.112   1.304 -0.1565 -0.2648 -0.2924
 5842TIP3    H139161   2.388   5.043   1.292 -2.2985  1.5506  0.2722
 5842TIP3    H239162   2.456   5.126   1.399 -0.8404  1.3487 -0.4749
 5843TIP3   OH239163   6.028   6.520   6.366  0.2969 -0.5469 -0.4976
 5843TIP3    H139164   5.946   6.528   6.415  0.5658  0.1915 -0.1464
 5843TIP3    H239165   6.093   6.494   6.431  1.0611  2.2772  0.0212
 5844TIP3   OH239166   2.364   4.787   1.969 -0.1797  0.3449  0.3147
 5844TIP3    H139167   2.282   4.831   1.947 -1.1267 -1.1430  0.7419
 5844TIP3    H239168   2.413   4.786   1.886  0.1328  2.6078  0.3965
 5845TIP3   OH239169   3.583   5.064   8.486  0.5386  0.1087 -0.1596
 5845TIP3    H139170   3.667   5.055   8.441  0.8886  0.6965  0.3653
 5845TIP3    H239171   3.524   5.100   8.420  0.6180 -0.5685 -0.6106
 5846TIP3   OH239172   5.785   0.755   8.211 -0.3388  0.2878 -0.4973
 5846TIP3    H139173   5.834   0.806   8.275 -0.2735  1.2738 -1.2921
 5846TIP3    H239174   5.696   0.791   8.214  0.1773  1.9502 -2.5017
 5847TIP3   OH239175   3.868   4.784   8.603  0.0286  0.0474  0.0102
 5847TIP3    H139176   3.845   4.874   8.579 -0.2942  0.0126  0.1767
 5847TIP3    H239177   3.954   4.769   8.564  0.4641  0.7162  0.6855
 5848TIP3   OH239178   3.953   1.344   7.221  0.2158 -0.6254 -0.0164
 5848TIP3    H139179   3.941   1.412   7.289 -2.0514  0.6710 -1.5601
 5848TIP3    H239180   4.032   1.371   7.175  0.1867  0.1121  0.3380
 5849TIP3   OH239181   2.543   0.988   0.587  0.3783 -0.3357  0.1340
 5849TIP3    H139182   2.607   1.031   0.531 -1.7035  3.0923  0.1312
 5849TIP3    H239183   2.488   0.938   0.526  0.5193  0.1337 -0.3797
 5850TIP3   OH239184   6.330   1.101   1.019 -0.3935 -0.0248  0.7643
 5850TIP3    H139185   6.342   1.037   1.089 -0.1468  0.6075  1.3040
 5850TIP3    H239186   6.283   1.053   0.951  0.9099 -1.1786  0.6189
 5851TIP3   OH239187   0.672   4.024   0.237  0.6151  0.2272  0.4089
 5851TIP3    H139188   0.699   4.049   0.149 -1.2460  0.8864 -0.0271
 5851TIP3    H239189   0.652   4.108   0.280 -1.9055 -0.2191  0.2450
 5852TIP3   OH239190   1.885   1.286   0.749  0.5144  0.0260  0.2316
 5852TIP3    H139191   1.951   1.262   0.683  0.0044  0.6037 -0.5083
 5852TIP3    H239192   1.832   1.353   0.706  0.3136  0.5895  1.3247
 5853TIP3   OH239193   5.412   2.084   0.898  0.2624  0.4398  0.0060
 5853TIP3    H139194   5.460   2.067   0.816 -0.2119  1.1044 -0.4238
 5853TIP3    H239195   5.365   2.003   0.916  0.3890  0.2809 -0.3684
 5854TIP3   OH239196   2.156   2.280   0.399 -0.0490  0.0293  0.3169
 5854TIP3    H139197   2.116   2.366   0.388  2.1946  1.4658  2.1627
 5854TIP3    H239198   2.105   2.239   0.468 -1.5530 -0.4544 -1.0424
 5855TIP3   OH239199   5.656   4.932   2.302  0.4926  0.0610 -0.2708
 5855TIP3    H139200   5.647   4.912   2.395 -0.2507  1.5871  0.0199
 5855TIP3    H239201   5.596   4.872   2.259  0.2350 -0.1038  0.3103
 5856TIP3   OH239202   3.168   0.561   6.787 -0.1017 -0.0802 -0.2964
 5856TIP3    H139203   3.254   0.524   6.767  0.2995  1.5216 -1.7516
 5856TIP3    H239204   3.185   0.629   6.851 -0.9837 -2.9387  3.3323
 5857TIP3   OH239205   0.928   5.854   6.621  0.2930  0.4429 -0.6549
 5857TIP3    H139206   0.851   5.799   6.607  1.9799 -1.8908 -1.2631
 5857TIP3    H239207   0.906   5.937   6.579 -2.7166  0.6831  1.1086
 5858TIP3   OH239208   5.321   5.445   2.453 -0.5495  0.2429  0.1307
 5858TIP3    H139209   5.417   5.444   2.453 -0.4793  2.0466 -0.9962
 5858TIP3    H239210   5.296   5.386   2.382 -0.1588  1.4632 -1.0666
 5859TIP3   OH239211   3.142   2.336   1.939 -0.3067 -0.3796 -0.2227
 5859TIP3    H139212   3.202   2.373   2.004 -1.2568  1.2929 -0.2327
 5859TIP3    H239213   3.061   2.386   1.951 -1.3618 -1.8361 -0.9383
 5860TIP3   OH239214   3.176   1.066   2.675 -0.0793 -0.2286 -0.1508
 5860TIP3    H139215   3.101   1.105   2.631 -1.4434  1.8559  3.5593
 5860TIP3    H239216   3.138   1.011   2.743  1.7639 -0.7111  0.5462
 5861TIP3   OH239217   3.786   5.042   0.087  0.1937  0.2442  0.5293
 5861TIP3    H139218   3.851   4.978   0.115  1.4894  0.7357 -1.1725
 5861TIP3    H239219   3.837   5.107   0.038 -1.2071  2.0689  1.3844
 5862TIP3   OH239220   6.473   4.010   7.256  0.2812 -0.2735 -0.1039
 5862TIP3    H139221   6.430   4.008   7.342  0.9788  1.2792  0.3157
 5862TIP3    H239222   6.464   4.100   7.227  0.2126 -0.7428 -1.6128
 5863TIP3   OH239223   3.905   6.743   0.699 -0.2426 -0.3342 -0.4956
 5863TIP3    H139224   3.835   6.808   0.697 -0.2735 -0.3696 -0.5448
 5863TIP3    H239225   3.867   6.664   0.660 -0.3799 -0.5532  0.0707
 5864TIP3   OH239226   4.599   1.223   7.989  0.6660 -0.4876  0.0367
 5864TIP3    H139227   4.673   1.264   7.944 -0.1475  0.2590 -0.6605
 5864TIP3    H239228   4.549   1.296   8.024 -0.9446 -0.8201 -1.4222
 5865TIP3   OH239229   6.102   3.231   6.427 -0.0951 -0.4718 -0.4159
 5865TIP3    H139230   6.025   3.273   6.465  0.6234  0.2538  0.2705
 5865TIP3    H239231   6.176   3.269   6.474  0.7103 -0.9162 -1.2911
 5866TIP3   OH239232   3.059   2.791   8.551  0.1642 -0.2711 -0.2334
 5866TIP3    H139233   2.977   2.806   8.597 -0.4476 -2.3595 -0.5448
 5866TIP3    H239234   3.069   2.866   8.493 -0.6374  0.8479  1.0295
 5867TIP3   OH239235   1.676   5.775   7.110  0.6682  0.2175  0.6477
 5867TIP3    H139236   1.634   5.814   7.034  0.8411  0.1008  0.4921
 5867TIP3    H239237   1.623   5.804   7.184 -1.0668 -1.7975  0.2638
 5868TIP3   OH239238   4.411   5.283   1.717 -0.0219  0.0922 -0.4035
 5868TIP3    H139239   4.344   5.219   1.693 -0.8171  1.8771 -3.6633
 5868TIP3    H239240   4.467   5.289   1.639  1.7321  1.3369  0.8621
 5869TIP3   OH239241   1.547   3.473   0.518  0.1242  0.1751  0.7625
 5869TIP3    H139242   1.621   3.411   0.524  1.3502  1.2444 -1.8335
 5869TIP3    H239243   1.473   3.418   0.492  0.4234 -0.6372  1.5426
 5870TIP3   OH239244   5.790   2.684   7.603  0.1727 -0.3334  0.5115
 5870TIP3    H139245   5.807   2.749   7.672  1.0203  0.2495 -0.2243
 5870TIP3    H239246   5.764   2.736   7.527  1.7121 -0.7634 -0.3410
 5871TIP3   OH239247   0.045   4.657   1.159 -0.1735 -0.2550 -0.5926
 5871TIP3    H139248  -0.009   4.597   1.107 -1.0182  0.9078 -1.0813
 5871TIP3    H239249  -0.017   4.719   1.197  0.8391  1.5650 -1.7521
 5872TIP3   OH239250   5.662   2.677   0.625 -0.2617  0.7971  0.2202
 5872TIP3    H139251   5.738   2.639   0.580 -1.0241  0.2235 -0.6454
 5872TIP3    H239252   5.588   2.626   0.592 -0.9336  0.7585  1.7050
 5873TIP3   OH239253   2.024   4.805   7.060  0.1348  0.2181 -0.2611
 5873TIP3    H139254   2.085   4.744   7.019 -0.7571 -0.4581 -0.6052
 5873TIP3    H239255   2.045   4.800   7.154 -0.1819 -0.9271 -0.2332
 5874TIP3   OH239256   3.462   2.649   7.862 -0.3188 -0.3905  0.5610
 5874TIP3    H139257   3.378   2.605   7.875 -0.5049 -0.5696 -1.1137
 5874TIP3    H239258   3.440   2.742   7.865 -0.4747 -0.4329  0.7613
 5875TIP3   OH239259   3.533   0.301   8.211 -0.0615  0.3968 -0.2936
 5875TIP3    H139260   3.487   0.228   8.170  0.8547 -0.1022 -0.4399
 5875TIP3    H239261   3.502   0.378   8.162  0.4484 -0.1031 -1.4433
 5876TIP3   OH239262   2.430   6.590   6.780 -0.4856  0.1022  0.3206
 5876TIP3    H139263   2.373   6.592   6.857 -1.9565 -3.0526 -0.4808
 5876TIP3    H239264   2.473   6.504   6.785  1.2046  0.8044 -1.1871
 5877TIP3   OH239265   6.281   3.907   7.444 -0.1439 -0.8816 -0.6844
 5877TIP3    H139266   6.251   3.979   7.388 -1.1680 -0.9844 -0.2912
 5877TIP3    H239267   6.203   3.853   7.457  0.1566 -1.0309  0.5915
 5878TIP3   OH239268   5.901   5.406   1.842 -0.1251 -0.3221  0.1213
 5878TIP3    H139269   5.871   5.490   1.877 -0.3612  0.1138 -1.0885
 5878TIP3    H239270   5.966   5.375   1.905  1.6547  1.8515 -0.5396
 5879TIP3   OH239271   5.599   6.568   1.654  0.6697  0.0144  0.2868
 5879TIP3    H139272   5.671   6.505   1.655 -0.4950 -1.3563  0.7380
 5879TIP3    H239273   5.602   6.605   1.566  1.1342 -0.9683 -0.1285
 5880TIP3   OH239274   3.696   6.390   0.344 -0.6876  0.4614  0.3451
 5880TIP3    H139275   3.609   6.420   0.372 -0.9863  2.0166 -1.9843
 5880TIP3    H239276   3.683   6.359   0.255  1.1694  0.8116 -0.0860
 5881TIP3   OH239277   3.230   2.349   6.273 -0.4722  0.5195 -0.4001
 5881TIP3    H139278   3.147   2.349   6.226  0.9637  0.1797 -3.1351
 5881TIP3    H239279   3.268   2.435   6.256 -0.1302  0.5867  0.6245
 5882TIP3   OH239280   6.865   3.725   7.591  0.2632  0.2645 -0.3583
 5882TIP3    H139281   6.858   3.748   7.498  0.0245 -1.7046 -0.8651
 5882TIP3    H239282   6.840   3.805   7.637 -1.5908  0.7240 -2.0124
 5883TIP3   OH239283   6.095   0.112   0.711 -0.5130  0.6147 -0.5261
 5883TIP3    H139284   6.093   0.202   0.680  0.3325  1.4872  1.7602
 5883TIP3    H239285   6.037   0.111   0.787  0.8299 -0.3043  0.5432
 5884TIP3   OH239286   0.920   0.833   0.921 -0.4683  0.3875  0.0001
 5884TIP3    H139287   1.011   0.809   0.903 -0.5005 -0.0863  0.4588
 5884TIP3    H239288   0.893   0.883   0.843  1.0254  2.8999  0.9646
 5885TIP3   OH239289   1.128   3.519   8.557  0.3041 -0.1285 -0.1130
 5885TIP3    H139290   1.089   3.580   8.620  1.4636 -1.0294  1.5503
 5885TIP3    H239291   1.054   3.489   8.505 -1.3472 -1.6807  2.8441
 5886TIP3   OH239292   6.151   5.647   7.946  0.4863  0.6507  0.1233
 5886TIP3    H139293   6.173   5.611   7.860  0.5690  1.3266 -0.1441
 5886TIP3    H239294   6.225   5.624   8.002  1.5927  2.3047 -0.5957
 5887TIP3   OH239295   3.017   5.478   2.509  0.1515 -0.3345  0.1359
 5887TIP3    H139296   3.034   5.572   2.515  2.0727 -0.6736  1.0484
 5887TIP3    H239297   3.013   5.460   2.415 -0.8860  0.7327 -0.0460
 5888TIP3   OH239298   0.885   5.741   1.387  0.2132  0.3362 -0.6708
 5888TIP3    H139299   0.813   5.678   1.383  0.0571  0.2847  1.6747
 5888TIP3    H239300   0.851   5.813   1.440  1.2740  1.1699 -1.0918
 5889TIP3   OH239301   0.416   0.682   8.110 -0.6441  0.3867  0.3991
 5889TIP3    H139302   0.503   0.695   8.072 -1.0395  0.9619 -0.3395
 5889TIP3    H239303   0.427   0.610   8.172  0.9745  2.2069  2.3618
 5890TIP3   OH239304   1.243   3.199   1.661  0.1323 -0.3243  0.6083
 5890TIP3    H139305   1.284   3.280   1.692  1.4566  0.0714 -1.9196
 5890TIP3    H239306   1.175   3.181   1.725  1.2737  1.5509  2.4803
 5891TIP3   OH239307   4.083   3.876   7.016  0.4357  0.6451  0.1729
 5891TIP3    H139308   4.092   3.971   7.009  0.5671  0.6200  0.0050
 5891TIP3    H239309   4.080   3.845   6.925 -0.5946  0.5842  0.2057
 5892TIP3   OH239310   0.662   2.835   7.661  0.2803  0.0065 -0.2455
 5892TIP3    H139311   0.739   2.874   7.618  0.4030  0.5882  0.4895
 5892TIP3    H239312   0.689   2.745   7.681  1.5522  0.7756  1.8388
 5893TIP3   OH239313   3.602   3.438   6.413  0.1712  0.0586 -0.0649
 5893TIP3    H139314   3.589   3.414   6.321  0.6304  0.2618 -0.1878
 5893TIP3    H239315   3.696   3.455   6.420 -0.1859  2.3182 -0.1130
 5894TIP3   OH239316   6.179   5.116   0.772  0.0178  0.0859 -0.1561
 5894TIP3    H139317   6.188   5.161   0.688 -1.7891  2.7067  0.9464
 5894TIP3    H239318   6.268   5.086   0.793  0.2091 -2.9740 -4.0657
 5895TIP3   OH239319   5.715   5.386   6.799  0.7291 -0.3390  0.0669
 5895TIP3    H139320   5.670   5.450   6.744  0.8008  0.5196  0.9619
 5895TIP3    H239321   5.779   5.438   6.849 -0.4250 -0.7694  2.1314
 5896TIP3   OH239322   4.493   0.548   8.452 -0.2634 -0.6027 -0.1047
 5896TIP3    H139323   4.522   0.546   8.361  0.9533  0.8779  0.1993
 5896TIP3    H239324   4.553   0.489   8.498 -0.2976 -0.6445 -0.1138
 5897TIP3   OH239325   4.044   0.659   8.091  0.0735  0.1582  0.1002
 5897TIP3    H139326   4.096   0.639   8.169  1.1970 -0.3397 -0.7603
 5897TIP3    H239327   4.079   0.603   8.023 -1.7159 -0.3115 -0.4916
 5898TIP3   OH239328   2.143   6.068   0.442  0.2349 -0.3021 -0.4604
 5898TIP3    H139329   2.125   6.161   0.433  1.3269 -0.2029 -1.8988
 5898TIP3    H239330   2.068   6.025   0.399  0.2126 -0.0648 -0.6592
 5899TIP3   OH239331   1.689   2.983   7.870 -0.2630 -0.3142 -0.7902
 5899TIP3    H139332   1.750   3.009   7.802  1.1356 -0.6638  0.2887
 5899TIP3    H239333   1.744   2.956   7.943 -1.7009  0.9343  0.8426
 5900TIP3   OH239334   3.309   3.431   7.367  0.4314  0.2988  0.2647
 5900TIP3    H139335   3.272   3.520   7.368  0.2223  0.2199 -0.1573
 5900TIP3    H239336   3.269   3.388   7.442 -0.3728  0.2069 -0.2008
 5901TIP3   OH239337   2.672   3.435   7.808  0.0222  0.0199 -0.1143
 5901TIP3    H139338   2.666   3.530   7.806  1.0079  0.0867 -0.2396
 5901TIP3    H239339   2.683   3.409   7.717  1.9231 -0.0400  0.0948
 5902TIP3   OH239340   3.108   6.012   1.253 -0.1956 -0.8280  0.2762
 5902TIP3    H139341   3.186   5.984   1.300  0.6425  0.8118 -0.0869
 5902TIP3    H239342   3.111   5.961   1.172  1.5521  0.5045 -0.5753
 5903TIP3   OH239343   3.617   6.862   8.087  0.5498 -0.0192 -0.8202
 5903TIP3    H139344   3.613   6.816   8.003  0.4561  0.5467 -1.1294
 5903TIP3    H239345   3.707   6.892   8.094  0.4639  0.2594 -0.8967
 5904TIP3   OH239346   3.072   0.082   0.397  0.3362  0.1648  0.5570
 5904TIP3    H139347   3.085  -0.010   0.371  0.8942  0.8303 -1.7975
 5904TIP3    H239348   3.158   0.122   0.385 -0.1849  1.2473  0.3637
 5905TIP3   OH239349   6.494   5.097   1.946  0.1905  0.1715 -0.0101
 5905TIP3    H139350   6.473   5.148   2.025 -1.4214  1.9256 -1.4738
 5905TIP3    H239351   6.563   5.147   1.903  1.1274 -0.8280  0.2919
 5906TIP3   OH239352   6.861   6.414   2.389  0.2881  0.2038 -0.0442
 5906TIP3    H139353   6.827   6.331   2.357  1.1014 -1.2290  2.5211
 5906TIP3    H239354   6.956   6.406   2.383  0.3712  1.1383 -0.1657
 5907TIP3   OH239355   0.310   4.301   7.815  0.1257 -0.3389  0.2390
 5907TIP3    H139356   0.224   4.268   7.791 -0.0914 -0.9365  1.7232
 5907TIP3    H239357   0.364   4.288   7.737 -1.1641  0.2390 -0.7748
 5908TIP3   OH239358   5.836   6.037   1.971 -0.2083  0.6878 -0.3661
 5908TIP3    H139359   5.820   5.943   1.965 -0.3877  0.6294  0.7741
 5908TIP3    H239360   5.792   6.064   2.052 -1.5764  2.0663 -1.5066
 5909TIP3   OH239361   4.918   5.283   2.092 -0.4020  0.1222  0.0010
 5909TIP3    H139362   4.957   5.300   2.006 -0.7324 -0.8277 -0.3611
 5909TIP3    H239363   4.942   5.192   2.111  0.1231  0.4936  1.1730
 5910TIP3   OH239364   6.201   6.115   6.813 -0.0872 -0.2841 -0.5620
 5910TIP3    H139365   6.129   6.095   6.753 -1.3016  2.1730 -0.0193
 5910TIP3    H239366   6.233   6.201   6.785  0.4452  0.1614  1.2689
 5911TIP3   OH239367   2.825   3.033   0.821  0.0220  0.4289  0.8275
 5911TIP3    H139368   2.774   3.075   0.752 -0.7638  0.1609  1.2308
 5911TIP3    H239369   2.792   2.943   0.824 -0.9573  0.7967  2.4651
 5912TIP3   OH239370   4.491   2.019   2.130  0.0284 -0.5317  0.3251
 5912TIP3    H139371   4.558   2.081   2.160  0.3001 -0.8443  0.3685
 5912TIP3    H239372   4.500   1.944   2.188  0.3144 -0.9920 -0.3000
 5913TIP3   OH239373   0.420   3.563   6.661  0.1636  0.6065  0.4025
 5913TIP3    H139374   0.444   3.477   6.697  0.2477  0.4243 -0.0772
 5913TIP3    H239375   0.337   3.584   6.704  0.2390  0.3678  0.6665
 5914TIP3   OH239376   1.679   1.006   8.159 -0.6542  0.5223 -0.3599
 5914TIP3    H139377   1.651   1.034   8.246  0.7027  0.7235  0.0349
 5914TIP3    H239378   1.742   0.936   8.176 -1.7491 -0.7343 -1.2539
 5915TIP3   OH239379   4.985   2.585   7.277  0.1956 -0.2145  0.2312
 5915TIP3    H139380   4.908   2.627   7.314  0.6785 -0.1060  1.1343
 5915TIP3    H239381   4.957   2.555   7.191 -0.7108  0.2510  0.3573
 5916TIP3   OH239382   5.985   6.627   8.589  0.4032 -0.2832  0.2615
 5916TIP3    H139383   6.003   6.566   8.661  0.2609 -0.1286  0.4274
 5916TIP3    H239384   5.890   6.626   8.579  0.4976 -1.3961 -0.8814
 5917TIP3   OH239385   2.507   0.449   7.731  0.4442 -0.4663 -0.4528
 5917TIP3    H139386   2.535   0.415   7.816  1.5467 -0.5555 -0.8301
 5917TIP3    H239387   2.538   0.539   7.730 -1.6386  0.3280  0.1575
 5918TIP3   OH239388   0.018   2.478   7.520 -0.3013 -0.0852 -0.0999
 5918TIP3    H139389  -0.014   2.419   7.588  0.3346  2.1613  2.2945
 5918TIP3    H239390  -0.006   2.566   7.551  1.7280  1.1644 -1.8215
 5919TIP3   OH239391   1.801   6.173   0.453  0.1317 -1.2010  0.2248
 5919TIP3    H139392   1.847   6.254   0.434  1.2480 -1.4850  1.5392
 5919TIP3    H239393   1.848   6.106   0.402 -0.5793 -1.0997 -0.5943
 5920TIP3   OH239394   1.506   1.057   0.690  0.2592 -1.0956  0.8514
 5920TIP3    H139395   1.533   1.015   0.771  0.5836 -1.6803  0.4525
 5920TIP3    H239396   1.571   1.029   0.626 -0.6323 -1.6066  0.1295
 5921TIP3   OH239397   1.435   5.972   7.939  0.2394 -0.4155 -0.2202
 5921TIP3    H139398   1.402   6.046   7.989 -1.9627 -1.4134 -0.0906
 5921TIP3    H239399   1.427   5.898   7.999 -0.6296 -1.2980 -1.3872
 5922TIP3   OH239400   2.111   6.647   8.455 -0.2405 -0.1408  0.0750
 5922TIP3    H139401   2.113   6.551   8.458 -2.5526 -0.2357  0.2153
 5922TIP3    H239402   2.073   6.672   8.539  1.9083  1.0505  0.7883
 5923TIP3   OH239403   1.971   5.749   0.600  0.2395 -0.2493  0.0413
 5923TIP3    H139404   2.021   5.746   0.518 -2.2577  1.2177 -1.6610
 5923TIP3    H239405   1.928   5.664   0.605  0.1198 -0.2161 -0.3738
 5924TIP3   OH239406   5.394   0.269   0.054 -0.1915  0.3099 -0.1519
 5924TIP3    H139407   5.307   0.231   0.067 -0.5247  1.1747  0.1693
 5924TIP3    H239408   5.380   0.341  -0.007  0.0398  1.3774  1.0076
 5925TIP3   OH239409   0.230   3.863   0.496 -0.2261 -0.0522  0.1446
 5925TIP3    H139410   0.309   3.893   0.451  0.4571 -0.9666  0.7010
 5925TIP3    H239411   0.158   3.884   0.436  0.2785  2.0260  0.2129
 5926TIP3   OH239412   2.582   3.477   8.202  0.3024  0.1063 -0.2600
 5926TIP3    H139413   2.658   3.433   8.241  0.9485  0.2780 -1.2803
 5926TIP3    H239414   2.613   3.565   8.184 -1.0073  1.0828  1.8372
 5927TIP3   OH239415   6.601   3.467   0.162  0.1230 -0.1773 -0.0536
 5927TIP3    H139416   6.565   3.556   0.167  0.7282  0.0885 -0.3419
 5927TIP3    H239417   6.610   3.440   0.253  0.5528  0.3161  0.0593
 5928TIP3   OH239418   3.476   0.960   2.101 -0.6320  0.2866  0.1481
 5928TIP3    H139419   3.533   0.896   2.058 -2.1217 -1.6003  0.8551
 5928TIP3    H239420   3.507   0.963   2.192 -1.1998 -0.2145  0.3632
 5929TIP3   OH239421   2.931   4.032   0.900  0.2711  0.0009  0.4566
 5929TIP3    H139422   2.962   3.954   0.854 -0.3225 -0.2403  0.4590
 5929TIP3    H239423   2.884   3.997   0.976  0.1732  0.3711  0.5643
 5930TIP3   OH239424   1.062   4.998   0.226  0.5623  1.0740  1.0337
 5930TIP3    H139425   1.043   4.964   0.314  0.6154 -0.4309  0.4892
 5930TIP3    H239426   1.156   4.983   0.214  0.0626 -1.5403 -0.3721
 5931TIP3   OH239427   5.556   1.939   7.723  0.4986 -0.2609 -0.1359
 5931TIP3    H139428   5.583   1.973   7.808 -0.6798  0.3141  0.0231
 5931TIP3    H239429   5.484   1.879   7.742  0.0682  0.0479 -0.7438
 5932TIP3   OH239430   3.676   2.345   1.465  0.8148  0.4194 -0.3047
 5932TIP3    H139431   3.726   2.265   1.447  0.4930  0.4901 -1.6001
 5932TIP3    H239432   3.593   2.314   1.501  0.4751  0.1111 -1.2966
 5933TIP3   OH239433   5.030   2.135   1.525  0.1263 -0.3663 -0.3663
 5933TIP3    H139434   5.089   2.059   1.526  0.3163 -0.2815 -2.1184
 5933TIP3    H239435   5.087   2.210   1.543  0.1346 -0.5132  0.2444
 5934TIP3   OH239436   3.413   3.476   0.131 -0.0266 -0.6724  0.5674
 5934TIP3    H139437   3.406   3.534   0.206  1.8118  0.1396  0.1650
 5934TIP3    H239438   3.325   3.440   0.120 -1.5739  2.8050  0.2143
 5935TIP3   OH239439   4.148   0.269   1.498 -0.4703 -0.0074  0.6840
 5935TIP3    H139440   4.206   0.346   1.499 -0.5408  0.0646 -0.2282
 5935TIP3    H239441   4.179   0.217   1.425 -1.7601  0.1919 -0.0320
 5936TIP3   OH239442   3.156   1.897   0.132 -1.0128  0.2412  0.4410
 5936TIP3    H139443   3.085   1.937   0.081 -0.9011  0.3758  0.3901
 5936TIP3    H239444   3.233   1.951   0.113 -0.1519 -1.5927 -1.8644
 5937TIP3   OH239445   5.509   0.765   1.726 -0.3762  0.1596 -0.1873
 5937TIP3    H139446   5.550   0.806   1.802 -1.8281 -0.1708  0.7996
 5937TIP3    H239447   5.583   0.734   1.673  0.6514  0.3339  1.1005
 5938TIP3   OH239448   2.125   3.070   1.494 -0.1477  0.6869  0.3152
 5938TIP3    H139449   2.145   3.158   1.524  0.5509  0.9886 -0.9508
 5938TIP3    H239450   2.208   3.036   1.460 -0.9201  0.5663 -1.6210
 5939TIP3   OH239451   0.023   1.250   0.140  0.5065  0.0350  0.2163
 5939TIP3    H139452   0.077   1.254   0.219  3.2617  0.8859 -1.5754
 5939TIP3    H239453   0.027   1.158   0.113  0.2320 -0.0921  0.5921
 5940TIP3   OH239454   4.635   3.721   0.964  0.3970  0.3163  0.3911
 5940TIP3    H139455   4.672   3.633   0.962  0.4832  0.3561  0.2472
 5940TIP3    H239456   4.550   3.710   1.007  0.6323  0.2448  0.8498
 5941TIP3   OH239457   3.180   3.659   0.576 -0.1127 -0.0589  0.3424
 5941TIP3    H139458   3.175   3.672   0.481 -2.1798  2.4525  0.6912
 5941TIP3    H239459   3.198   3.745   0.612  3.8030 -1.4115  2.2339
 5942TIP3   OH239460   0.736   6.034   0.043 -0.1659 -0.0003 -0.1628
 5942TIP3    H139461   0.769   5.962   0.096 -2.0743  0.9182  2.5293
 5942TIP3    H239462   0.813   6.071  -0.001  1.0012 -2.8932 -0.7369
 5943TIP3   OH239463   5.518   5.253   6.258  0.1019  0.2291 -0.2015
 5943TIP3    H139464   5.466   5.177   6.230 -0.1662  0.7512 -1.1700
 5943TIP3    H239465   5.594   5.215   6.302 -0.4327 -0.5762  0.0567
 5944TIP3   OH239466   6.559   1.540   6.932  0.4130  0.4017 -0.5722
 5944TIP3    H139467   6.581   1.451   6.903 -1.4529 -0.4860  0.5518
 5944TIP3    H239468   6.513   1.579   6.857 -2.0714 -0.9582  0.1290
 5945TIP3   OH239469   4.213   5.040   2.901  0.1698  0.4466 -0.2645
 5945TIP3    H139470   4.253   4.959   2.933  0.6067  0.3651 -0.9857
 5945TIP3    H239471   4.149   5.010   2.836 -0.8563  0.5914  0.6565
 5946TIP3   OH239472   1.169   1.927   0.012  0.3189 -0.0309  0.6253
 5946TIP3    H139473   1.106   1.967  -0.048  0.5123 -0.7349 -0.0694
 5946TIP3    H239474   1.165   1.981   0.091  0.9060  1.6309 -0.4328
 5947TIP3   OH239475   4.683   6.713   7.477 -0.7203 -0.0215 -0.0428
 5947TIP3    H139476   4.648   6.795   7.513 -0.8567 -0.5824  1.1707
 5947TIP3    H239477   4.777   6.729   7.468 -0.7478  0.2711  0.1775
 5948TIP3   OH239478   6.061   6.358   7.180 -1.3562  0.6116 -0.4862
 5948TIP3    H139479   5.977   6.339   7.140 -0.8520  0.0278 -1.3060
 5948TIP3    H239480   6.120   6.291   7.145 -0.5584  1.0046  0.0769
 5949TIP3   OH239481   2.556   4.852   8.645 -0.3875  0.1679  0.2869
 5949TIP3    H139482   2.586   4.942   8.646  1.7313 -0.4824 -0.3550
 5949TIP3    H239483   2.461   4.858   8.655 -0.2475  2.4213  0.6811
 5950TIP3   OH239484   5.705   4.307   6.746  0.1174  0.1319 -0.0416
 5950TIP3    H139485   5.626   4.262   6.717  0.1138  0.1519 -0.0629
 5950TIP3    H239486   5.675   4.396   6.767  0.3367  0.4642 -1.1151
 5951TIP3   OH239487   2.044   1.265   7.946 -0.2836  0.0944 -0.6481
 5951TIP3    H139488   1.949   1.263   7.949 -0.3406  0.1400 -2.0197
 5951TIP3    H239489   2.066   1.355   7.925  0.0364 -0.0860 -1.1025
 5952TIP3   OH239490   4.266   3.051   7.313  0.1053  0.1405 -0.4632
 5952TIP3    H139491   4.337   3.000   7.352 -0.3315  0.1186  0.3219
 5952TIP3    H239492   4.188   2.996   7.325 -0.4641  1.1740  0.8284
 5953TIP3   OH239493   3.653   1.121   0.666  0.3895  0.1833  0.1799
 5953TIP3    H139494   3.583   1.114   0.602 -0.4483  0.7039  1.0043
 5953TIP3    H239495   3.664   1.215   0.679  2.2945  0.1825 -1.0269
 5954TIP3   OH239496   0.650   6.808   1.309 -0.5335 -0.0128  0.1664
 5954TIP3    H139497   0.607   6.893   1.313  0.0970  0.3074  0.3081
 5954TIP3    H239498   0.693   6.798   1.394 -1.9983 -1.2394  0.8041
 5955TIP3   OH239499   2.400   6.756   8.537  0.0672  0.7713  0.3752
 5955TIP3    H139500   2.441   6.808   8.469 -0.0132 -1.8035 -1.8080
 5955TIP3    H239501   2.306   6.771   8.526  0.0665  0.5272  0.0297
 5956TIP3   OH239502   1.921   2.419   7.717 -0.3368 -0.3431 -0.3160
 5956TIP3    H139503   1.851   2.443   7.778  0.1586 -3.0797  1.5264
 5956TIP3    H239504   1.901   2.328   7.693  1.2824 -0.3876 -1.6718
 5957TIP3   OH239505   4.150   4.806   8.479  0.0137  0.2337 -0.9309
 5957TIP3    H139506   4.164   4.863   8.555 -0.2355 -0.8944 -0.0115
 5957TIP3    H239507   4.236   4.767   8.464  0.2335  0.9962 -1.6907
 5958TIP3   OH239508   3.376   0.641   8.641 -0.1430  0.2708 -0.8241
 5958TIP3    H139509   3.383   0.737   8.648 -1.1503  0.3807 -1.1516
 5958TIP3    H239510   3.461   0.613   8.608  0.5882  0.9259  0.4452
 5959TIP3   OH239511   4.455   4.556   7.846  0.5047 -0.4138  0.2161
 5959TIP3    H139512   4.393   4.576   7.917  0.6357  0.9068 -0.0223
 5959TIP3    H239513   4.541   4.576   7.882  0.4378  2.5428 -0.9823
 5960TIP3   OH239514   6.580   2.281   7.449  0.4293  0.0656 -0.4488
 5960TIP3    H139515   6.501   2.310   7.405 -0.9773 -0.1334  1.7984
 5960TIP3    H239516   6.596   2.193   7.415 -0.5998 -0.0772 -0.5723
 5961TIP3   OH239517   3.808   0.640   1.433 -1.0570 -0.1945  0.2266
 5961TIP3    H139518   3.848   0.606   1.513 -1.2229 -1.2644 -0.1183
 5961TIP3    H239519   3.775   0.562   1.388 -1.2110  0.4145 -0.7527
 5962TIP3   OH239520   4.238   2.952   1.231 -0.7609  0.1196 -0.8420
 5962TIP3    H139521   4.196   2.934   1.315  2.3485  0.3561  0.9345
 5962TIP3    H239522   4.247   2.866   1.190 -0.3396 -0.3354  0.1558
 5963TIP3   OH239523   4.339   4.675   7.545  0.3111  0.3227 -0.0010
 5963TIP3    H139524   4.401   4.683   7.472  1.6922 -1.9128  0.8373
 5963TIP3    H239525   4.354   4.753   7.598  2.8726 -0.3784  0.4429
 5964TIP3   OH239526   3.023   4.518   0.050  0.1740  0.4754  0.2796
 5964TIP3    H139527   3.054   4.499   0.138 -1.8176  1.3166  1.2233
 5964TIP3    H239528   3.097   4.562   0.008  0.7557  1.1876  1.9470
 5965TIP3   OH239529   0.745   5.205   0.954  0.0273 -0.3315 -0.6322
 5965TIP3    H139530   0.712   5.230   0.868 -0.4167 -1.7373 -0.8948
 5965TIP3    H239531   0.785   5.119   0.940 -2.8660 -2.0988  1.1359
 5966TIP3   OH239532   6.566   2.053   1.195  0.4685  0.0230  0.1264
 5966TIP3    H139533   6.631   2.044   1.265  2.0995 -0.3935 -1.3933
 5966TIP3    H239534   6.556   1.965   1.159 -0.8869  0.1003  0.2480
 5967TIP3   OH239535   3.489   1.667   8.113 -0.2333 -0.0580 -0.4569
 5967TIP3    H139536   3.544   1.714   8.176 -0.8035 -0.1969  0.1593
 5967TIP3    H239537   3.518   1.576   8.120 -0.1832 -0.0460 -0.5123
 5968TIP3   OH239538   2.273   6.142   7.653 -0.3447  0.2876  0.6875
 5968TIP3    H139539   2.365   6.168   7.640  0.6298 -2.8062  0.5650
 5968TIP3    H239540   2.251   6.175   7.740  1.2960  0.1151  1.2043
 5969TIP3   OH239541   3.043   1.334   0.491 -0.1091 -0.5345 -0.2117
 5969TIP3    H139542   3.021   1.276   0.563 -1.8682  1.2662  0.8105
 5969TIP3    H239543   2.980   1.311   0.422 -1.3980  0.6570  0.5164
 5970TIP3   OH239544   4.684   3.838   1.922 -0.2278  0.5440 -0.4949
 5970TIP3    H139545   4.719   3.821   1.835 -0.8132  3.3941 -1.3713
 5970TIP3    H239546   4.697   3.932   1.936 -0.5996  0.2637  2.2942
 5971TIP3   OH239547   5.054   5.035   2.260  1.1493 -0.6191  0.8128
 5971TIP3    H139548   5.017   4.969   2.319  0.3329  0.1047  1.1360
 5971TIP3    H239549   5.137   4.998   2.231  1.2397 -1.2930  1.8837
 5972TIP3   OH239550   2.802   0.108   0.394 -0.2418  0.1545 -0.2242
 5972TIP3    H139551   2.893   0.080   0.406 -0.4270 -0.2504  0.2683
 5972TIP3    H239552   2.774   0.137   0.481 -0.3801  0.9156 -0.5093
 5973TIP3   OH239553   5.947   0.223   1.179 -0.3424 -0.1369  0.3986
 5973TIP3    H139554   6.012   0.247   1.245  0.3930  0.1080 -0.3779
 5973TIP3    H239555   5.996   0.169   1.117 -0.7207  0.5478 -0.5231
 5974TIP3   OH239556   3.646   5.686   6.865 -0.0739 -0.0828 -0.1520
 5974TIP3    H139557   3.677   5.772   6.895 -0.9527 -0.2953  1.4951
 5974TIP3    H239558   3.726   5.635   6.851  0.4211  0.3667  0.9077
 5975TIP3   OH239559   1.557   4.271   7.969  0.3324  0.2417  0.4730
 5975TIP3    H139560   1.622   4.225   8.020 -0.9332 -0.8999  1.1163
 5975TIP3    H239561   1.497   4.309   8.033 -0.5806 -0.1601 -0.1099
 5976TIP3   OH239562   1.220   4.489   6.727  0.1364  0.3610  0.1490
 5976TIP3    H139563   1.170   4.408   6.725  1.8657 -0.8092  1.5312
 5976TIP3    H239564   1.185   4.537   6.803  0.4988 -0.0564  0.5862
 5977TIP3   OH239565   6.110   2.163   8.550 -0.4402  0.2734  0.1970
 5977TIP3    H139566   6.095   2.069   8.564  0.5212  0.2747  1.3755
 5977TIP3    H239567   6.159   2.167   8.468  0.0982 -0.3085  0.4825
 5978TIP3   OH239568   2.524   3.194   0.204  0.5173  0.1997 -0.3031
 5978TIP3    H139569   2.574   3.117   0.177 -1.2713 -1.5078  0.9704
 5978TIP3    H239570   2.453   3.159   0.258 -1.5877  2.5258 -1.3298
 5979TIP3   OH239571   5.391   3.810   7.508  0.0003  0.2375 -0.7111
 5979TIP3    H139572   5.331   3.851   7.446 -0.4187 -0.8571 -1.0555
 5979TIP3    H239573   5.335   3.784   7.581  0.6001  2.1203  0.4574
 5980TIP3   OH239574   2.242   4.112   7.102  0.4757 -0.0258 -0.2972
 5980TIP3    H139575   2.240   4.164   7.022 -0.2454  0.7207  0.1830
 5980TIP3    H239576   2.271   4.174   7.170 -1.3363  0.0603  0.4720
 5981TIP3   OH239577   6.821   3.825   7.314  0.3809 -0.0148 -0.2201
 5981TIP3    H139578   6.728   3.802   7.305  0.4256 -0.7923  1.0509
 5981TIP3    H239579   6.839   3.882   7.239 -1.0958  0.0738 -0.5406
 5982TIP3   OH239580   5.842   3.365   8.063 -0.7003  0.5890  0.1628
 5982TIP3    H139581   5.772   3.342   8.123 -1.2416  0.2349 -0.5772
 5982TIP3    H239582   5.899   3.424   8.112 -0.6609 -0.3619  1.2883
 5983TIP3   OH239583   2.618   2.182   0.210  0.6142 -0.0988 -0.0058
 5983TIP3    H139584   2.655   2.271   0.208  0.8222 -0.1643  0.8429
 5983TIP3    H239585   2.667   2.137   0.278  0.5571 -0.8991 -0.4856
 5984TIP3   OH239586   5.022   0.817   1.322 -0.0487 -0.1912  0.5820
 5984TIP3    H139587   4.980   0.872   1.256 -1.1489 -0.5643  0.9572
 5984TIP3    H239588   5.042   0.878   1.394 -2.1851 -0.4009  1.4257
 5985TIP3   OH239589   1.870   4.998   7.286 -0.0698  0.1432  0.1457
 5985TIP3    H139590   1.939   4.932   7.276  0.1745  0.5620 -1.2745
 5985TIP3    H239591   1.793   4.948   7.315  0.6156 -0.4453  1.0186
 5986TIP3   OH239592   4.131   5.243   2.286 -0.8683  0.0861 -0.2631
 5986TIP3    H139593   4.210   5.291   2.312 -0.5817  0.1599 -1.2337
 5986TIP3    H239594   4.095   5.294   2.213 -1.2703 -0.4765 -0.4614
 5987TIP3   OH239595   6.814   4.756   1.695 -0.2412 -0.1190  0.0348
 5987TIP3    H139596   6.744   4.821   1.699 -0.1262 -0.0150  0.4121
 5987TIP3    H239597   6.801   4.702   1.772  0.7123  0.5449  0.6896
 5988TIP3   OH239598   3.621   3.085   7.338 -0.2456  0.0606  0.3408
 5988TIP3    H139599   3.605   3.176   7.314  0.7213 -0.1923 -1.4113
 5988TIP3    H239600   3.599   3.081   7.431 -0.3926  2.0512  0.4408
 5989TIP3   OH239601   2.942   3.650   2.767  0.2613 -0.5902 -0.1937
 5989TIP3    H139602   2.960   3.734   2.809 -2.5300 -0.4381  0.9633
 5989TIP3    H239603   2.931   3.672   2.674  1.2480  0.0009 -0.1845
 5990TIP3   OH239604   3.903   5.433   2.432 -0.7372 -0.1256 -0.1258
 5990TIP3    H139605   3.952   5.387   2.365 -0.6086 -1.4352  0.8311
 5990TIP3    H239606   3.942   5.404   2.515 -1.0845  1.2107  0.5470
 5991TIP3   OH239607   3.357   3.656   1.161  0.8708  0.1853 -0.2388
 5991TIP3    H139608   3.315   3.654   1.075 -1.3996  0.0129  0.8027
 5991TIP3    H239609   3.286   3.677   1.222  2.2179 -0.6127  1.7101
 5992TIP3   OH239610   5.810   0.863   1.233 -0.0324 -0.0482 -0.5299
 5992TIP3    H139611   5.793   0.916   1.155 -0.5780 -0.7360 -0.8884
 5992TIP3    H239612   5.784   0.775   1.208  1.4002 -0.6136 -0.1254
 5993TIP3   OH239613   5.180   3.613   8.628  0.4348 -0.0235  0.7887
 5993TIP3    H139614   5.111   3.668   8.665  1.2382  1.8946 -0.3963
 5993TIP3    H239615   5.166   3.618   8.533  1.1735 -1.0281  0.6084
 5994TIP3   OH239616   6.382   4.694   0.431  0.2675  0.4139  0.3485
 5994TIP3    H139617   6.429   4.770   0.395 -0.0434 -0.0797 -1.1596
 5994TIP3    H239618   6.373   4.634   0.357 -0.1102 -0.8066  1.3468
 5995TIP3   OH239619   3.340   3.255   0.753  0.6631 -0.0960 -0.1250
 5995TIP3    H139620   3.250   3.277   0.732  0.8655  1.3269  0.3981
 5995TIP3    H239621   3.378   3.225   0.670  0.2161  1.1016 -0.7918
 5996TIP3   OH239622   5.923   6.718   0.757  0.7987  0.1872 -0.3492
 5996TIP3    H139623   5.828   6.712   0.771  0.6325 -0.9395 -1.7167
 5996TIP3    H239624   5.957   6.637   0.796  1.0435  0.0010 -0.9464
 5997TIP3   OH239625   1.878   1.009   7.801  0.1445  0.8252 -0.0544
 5997TIP3    H139626   1.876   1.065   7.724 -2.1173  1.0550  0.0944
 5997TIP3    H239627   1.841   1.063   7.871 -1.2361 -0.5108  0.2995
 5998TIP3   OH239628   4.539   4.791   0.966  0.4181 -0.1449 -0.2898
 5998TIP3    H139629   4.501   4.721   1.020  1.2081  0.0370  0.5231
 5998TIP3    H239630   4.613   4.750   0.921  2.7777  0.7823  2.4501
 5999TIP3   OH239631   6.496   0.937   8.645 -0.0240  0.5445 -0.0542
 5999TIP3    H139632   6.567   0.936   8.709  1.4830  2.2765 -1.5900
 5999TIP3    H239633   6.496   0.849   8.608 -0.0427 -0.0714  1.3329
 6000TIP3   OH239634   1.243   1.822   2.393  0.1860 -0.7170  0.0354
 6000TIP3    H139635   1.249   1.738   2.438 -0.1017 -1.3132 -0.9939
 6000TIP3    H239636   1.157   1.856   2.418  0.8883 -0.0201  1.6054
 6001TIP3   OH239637   0.194   3.266   7.050 -0.1851  0.0923 -0.0435
 6001TIP3    H139638   0.126   3.245   7.114 -1.1485 -1.9280 -1.6069
 6001TIP3    H239639   0.151   3.323   6.986 -0.7380 -1.7449 -1.4152
 6002TIP3   OH239640   5.959   2.118   7.927  0.3792  0.4454  0.8110
 6002TIP3    H139641   5.877   2.155   7.958  0.2876 -0.6175  1.8990
 6002TIP3    H239642   5.944   2.104   7.833 -0.5215  0.6560  0.9098
 6003TIP3   OH239643   4.241   6.208   0.175  0.2864  0.5946 -0.7588
 6003TIP3    H139644   4.295   6.281   0.142  2.8207 -0.6178  0.4021
 6003TIP3    H239645   4.160   6.249   0.203  1.3049  2.8629 -0.8788
 6004TIP3   OH239646   3.967   3.186   6.529 -0.1625 -0.5806  0.6223
 6004TIP3    H139647   4.058   3.198   6.557 -0.1207 -0.5905  0.4920
 6004TIP3    H239648   3.974   3.140   6.445 -0.3036 -1.2487  0.9656
 6005TIP3   OH239649   4.371   4.396   7.643  0.8267 -0.1484 -0.2019
 6005TIP3    H139650   4.403   4.464   7.703 -1.1891  0.8215 -0.1234
 6005TIP3    H239651   4.330   4.445   7.572 -0.6407 -1.2677 -0.1768
 6006TIP3   OH239652   1.316   3.624   7.897 -0.1242  0.4073  0.4177
 6006TIP3    H139653   1.259   3.686   7.852 -0.6392  0.2587  0.8582
 6006TIP3    H239654   1.299   3.540   7.854 -2.1451 -0.1672  2.1676
 6007TIP3   OH239655   0.839   0.036   7.571 -0.0811  0.4847 -0.6756
 6007TIP3    H139656   0.787   0.116   7.577  0.4814  0.7561  1.1833
 6007TIP3    H239657   0.930   0.066   7.571  0.1221 -0.1234 -0.6313
 6008TIP3   OH239658   0.919   0.347   1.340  0.1042 -0.1072  0.0080
 6008TIP3    H139659   0.942   0.440   1.337 -0.8242  0.2642  2.1774
 6008TIP3    H239660   0.995   0.305   1.380 -0.4557  0.1472  1.3876
 6009TIP3   OH239661   1.191   2.112   7.443 -0.1199  0.0676 -0.0231
 6009TIP3    H139662   1.196   2.131   7.536 -1.1463 -1.7078  0.4488
 6009TIP3    H239663   1.233   2.187   7.400 -1.3379  1.8468  1.7442
 6010TIP3   OH239664   3.244   5.386   7.963 -0.0960 -0.5556 -0.0144
 6010TIP3    H139665   3.203   5.316   8.015  0.7272 -0.3034  1.0239
 6010TIP3    H239666   3.338   5.367   7.967  0.2466  1.0815  1.0950
 6011TIP3   OH239667   5.016   3.344   0.068 -0.3654 -0.1490 -0.0993
 6011TIP3    H139668   4.994   3.430   0.032  1.2841  0.0224 -0.8059
 6011TIP3    H239669   5.108   3.352   0.094  0.3937 -2.1898 -1.8444
 6012TIP3   OH239670   6.840   0.113   0.741  0.1785  0.0305 -0.1998
 6012TIP3    H139671   6.870   0.029   0.776  0.7306 -0.3620 -1.5445
 6012TIP3    H239672   6.911   0.140   0.682  0.5940  2.0517  1.1091
 6013TIP3   OH239673   0.499   6.373   7.811 -0.2899 -0.5534 -0.6762
 6013TIP3    H139674   0.511   6.446   7.750 -1.6957 -0.0909 -0.4530
 6013TIP3    H239675   0.512   6.413   7.898  1.2544 -1.1082 -0.6274
 6014TIP3   OH239676   3.187   1.947   8.499 -0.1233 -0.1676  0.2503
 6014TIP3    H139677   3.101   1.969   8.536 -1.0659  0.1162 -1.9193
 6014TIP3    H239678   3.250   1.985   8.559 -1.5918  3.0841 -0.0689
 6015TIP3   OH239679   6.206   5.993   1.921 -0.0932  0.0401 -0.3040
 6015TIP3    H139680   6.193   6.081   1.957  1.6401 -0.1633  0.9498
 6015TIP3    H239681   6.240   6.007   1.833  0.2883  0.6189 -0.0676
 6016TIP3   OH239682   4.075   0.232   0.530 -0.0462  0.1011 -0.1446
 6016TIP3    H139683   4.011   0.196   0.469  2.8344 -2.0473 -2.1315
 6016TIP3    H239684   4.076   0.326   0.511 -1.7350  0.0147 -0.8285
 6017TIP3   OH239685   2.994   6.075   1.853  0.0164  0.7118  0.4367
 6017TIP3    H139686   2.997   6.130   1.774  2.0848  2.4336  1.6237
 6017TIP3    H239687   3.050   6.000   1.832 -0.4462  0.5190 -0.1498
 6018TIP3   OH239688   0.949   3.000   1.157  0.3235 -0.2201  0.4776
 6018TIP3    H139689   1.018   3.002   1.091 -0.3001 -1.3179 -0.2424
 6018TIP3    H239690   0.990   3.032   1.237  1.6206 -0.7363  0.0323
 6019TIP3   OH239691   4.961   4.270   6.786 -0.2114 -0.3330 -0.1955
 6019TIP3    H139692   4.983   4.181   6.812  1.1288  0.4778  1.7188
 6019TIP3    H239693   5.044   4.306   6.753 -0.6404  0.3351 -0.5656
 6020TIP3   OH239694   4.829   0.939   7.698  0.3910 -0.1064 -0.1404
 6020TIP3    H139695   4.890   0.947   7.772 -0.5239 -1.4441  0.8140
 6020TIP3    H239696   4.752   0.897   7.736 -0.3359 -0.2892 -1.7529
 6021TIP3   OH239697   2.693   4.217   2.316 -0.5001 -0.5836  0.1031
 6021TIP3    H139698   2.716   4.252   2.230  0.4876  0.5306  0.7912
 6021TIP3    H239699   2.605   4.250   2.334 -0.1088  0.4596  0.1604
 6022TIP3   OH239700   0.520   5.060   0.584 -0.0654 -0.0200 -0.1390
 6022TIP3    H139701   0.571   5.139   0.601 -0.0842 -0.2398  1.0421
 6022TIP3    H239702   0.585   4.989   0.584 -0.2425 -0.1880  0.4215
 6023TIP3   OH239703   6.598   1.569   1.201 -0.4840  0.4859  0.3321
 6023TIP3    H139704   6.600   1.479   1.170 -2.8696  0.5706 -0.3116
 6023TIP3    H239705   6.657   1.617   1.144  0.4604 -0.5809  0.4034
 6024TIP3   OH239706   5.407   4.549   7.601  0.5355 -0.0593 -0.0591
 6024TIP3    H139707   5.458   4.617   7.556 -0.4098  1.7473  1.4310
 6024TIP3    H239708   5.430   4.560   7.694 -1.4775 -0.1194  0.4883
 6025TIP3   OH239709   2.762   0.709   2.062  0.1687  0.0281  0.0741
 6025TIP3    H139710   2.681   0.713   2.113 -0.5167 -1.9192 -0.7718
 6025TIP3    H239711   2.734   0.689   1.973  1.4920  1.1638 -0.6439
 6026TIP3   OH239712   2.757   6.784   1.635  0.2316  0.5784 -0.1637
 6026TIP3    H139713   2.756   6.846   1.562  1.7205  3.1477  1.7952
 6026TIP3    H239714   2.833   6.729   1.619 -0.6152 -0.2431 -1.5094
 6027TIP3   OH239715   2.030   2.978   6.628  0.0551 -0.4522 -0.0504
 6027TIP3    H139716   2.047   2.979   6.534 -0.6576  1.3754 -0.1871
 6027TIP3    H239717   1.954   2.920   6.638 -1.3062  1.0951 -0.9130
 6028TIP3   OH239718   3.058   1.168   6.385 -0.4111  0.6082  0.2562
 6028TIP3    H139719   3.045   1.217   6.466 -1.1697  1.4973 -0.3873
 6028TIP3    H239720   3.080   1.079   6.414 -0.3134  0.9985  1.4285
 6029TIP3   OH239721   6.260   2.568   1.451  0.3191 -0.6651  0.3971
 6029TIP3    H139722   6.211   2.546   1.372  0.0765 -0.8214  0.5852
 6029TIP3    H239723   6.307   2.487   1.474  1.0771 -0.3640 -0.0695
 6030TIP3   OH239724   2.389   3.427   8.012 -0.7361  0.0967 -0.5231
 6030TIP3    H139725   2.352   3.514   7.997 -1.9811 -0.1820  0.7735
 6030TIP3    H239726   2.452   3.440   8.083 -1.5720 -0.2010  0.2858
 6031TIP3   OH239727   6.218   4.710   7.456 -0.1942 -0.2022  0.1079
 6031TIP3    H139728   6.214   4.722   7.551  2.2625 -0.3127  0.2772
 6031TIP3    H239729   6.258   4.791   7.423 -0.8952 -0.2227 -0.8509
 6032TIP3   OH239730   4.810   4.986   6.659  0.0983 -0.1397  0.2525
 6032TIP3    H139731   4.874   4.938   6.607 -1.1191 -1.3770 -0.1744
 6032TIP3    H239732   4.725   4.961   6.622 -0.6611  1.3256  0.8961
 6033TIP3   OH239733   0.817   0.631   6.965 -0.4652  0.0978 -0.4155
 6033TIP3    H139734   0.848   0.702   6.909 -3.4230  1.4450 -0.5398
 6033TIP3    H239735   0.846   0.656   7.053  0.3324  0.3190 -0.7299
 6034TIP3   OH239736   3.275   1.507   7.930  0.0682 -0.4613 -0.5154
 6034TIP3    H139737   3.208   1.458   7.882 -1.2575  1.1170 -0.3622
 6034TIP3    H239738   3.321   1.441   7.981 -1.9115 -1.5329 -0.0092
 6035TIP3   OH239739   3.622   2.542   6.850 -0.6244 -0.0016  0.2483
 6035TIP3    H139740   3.715   2.549   6.829 -0.9986 -0.0060 -1.5600
 6035TIP3    H239741   3.581   2.615   6.804 -1.5307 -0.0078  1.0064
 6036TIP3   OH239742   1.232   2.774   6.659  0.0061 -0.4846  0.3874
 6036TIP3    H139743   1.216   2.691   6.705  0.4731 -0.4179  0.6770
 6036TIP3    H239744   1.275   2.829   6.724  0.5096 -0.3259 -0.0823
 6037TIP3   OH239745   4.808   3.490   1.124  0.4164 -1.0527  0.0233
 6037TIP3    H139746   4.891   3.450   1.098  1.4056 -0.5449  2.1468
 6037TIP3    H239747   4.808   3.483   1.220 -1.4534  0.0190  0.1371
 6038TIP3   OH239748   0.246   2.235   8.287 -0.1413  0.3755  0.0889
 6038TIP3    H139749   0.166   2.250   8.337 -0.1030 -0.0788  0.2957
 6038TIP3    H239750   0.312   2.287   8.333  0.2331 -1.1908  1.4648
 6039TIP3   OH239751   0.821   2.468   8.568  0.0273  0.5215 -0.2529
 6039TIP3    H139752   0.901   2.521   8.570 -0.2143  0.8824  0.5360
 6039TIP3    H239753   0.768   2.508   8.499  0.9204 -0.3393 -1.4730
 6040TIP3   OH239754   2.298   6.015   2.239  0.1590 -0.1481  0.0823
 6040TIP3    H139755   2.273   5.931   2.277 -1.9172  0.2943 -0.1965
 6040TIP3    H239756   2.279   6.005   2.145  0.9591  0.2709 -0.1304
 6041TIP3   OH239757   2.170   2.089   0.220  0.0486 -0.6055 -0.8469
 6041TIP3    H139758   2.104   2.039   0.268  1.0757 -0.6920  0.5559
 6041TIP3    H239759   2.189   2.164   0.277  0.4495 -0.0621 -1.6790
 6042TIP3   OH239760   4.111   0.537   0.544  0.2291  0.0254 -0.0187
 6042TIP3    H139761   4.023   0.549   0.579  0.0481 -0.3361 -0.3388
 6042TIP3    H239762   4.153   0.622   0.554  0.5598 -0.3156  2.0878
 6043TIP3   OH239763   5.642   0.669   0.946 -0.4277 -0.1496  0.1376
 6043TIP3    H139764   5.553   0.637   0.932 -0.3401 -0.9633  1.2890
 6043TIP3    H239765   5.663   0.643   1.035  1.6268 -1.6335 -0.7055
 6044TIP3   OH239766   3.434   2.421   8.269 -0.3007 -0.2712  0.8018
 6044TIP3    H139767   3.454   2.350   8.330  0.5121  0.8425  1.8841
 6044TIP3    H239768   3.400   2.491   8.325  0.0105  0.6029 -0.0823
 6045TIP3   OH239769   1.160   1.253   2.281  0.3616  0.2967  0.5881
 6045TIP3    H139770   1.093   1.245   2.212 -0.3455 -0.6924  1.3620
 6045TIP3    H239771   1.158   1.168   2.325  0.6285  0.9947  1.9845
 6046TIP3   OH239772   0.840   0.917   8.597 -0.4540 -0.1319 -0.3181
 6046TIP3    H139773   0.907   0.923   8.528 -0.6059  0.6222 -0.4135
 6046TIP3    H239774   0.888   0.888   8.675  0.0245  0.5760 -0.3417
 6047TIP3   OH239775   6.547   5.027   7.164 -0.2446  0.1835  0.0619
 6047TIP3    H139776   6.516   5.045   7.075 -0.3745  0.6393  0.1944
 6047TIP3    H239777   6.598   4.946   7.156 -2.5918 -1.3963  0.0754
 6048TIP3   OH239778   3.874   1.843   7.956 -0.0284 -0.1394 -0.3278
 6048TIP3    H139779   3.898   1.832   7.865  2.7296 -0.0362  0.3096
 6048TIP3    H239780   3.945   1.895   7.994 -0.6603 -0.8887  2.0664
 6049TIP3   OH239781   4.281   0.335   8.433 -0.1355 -0.8959  0.0809
 6049TIP3    H139782   4.325   0.411   8.469  0.4093 -1.3573  0.4097
 6049TIP3    H239783   4.299   0.265   8.496 -1.5564 -1.0373  0.3624
 6050TIP3   OH239784   2.120   2.614   1.645 -0.2630  0.6880  0.2112
 6050TIP3    H139785   2.174   2.605   1.723  0.6614  1.7081 -0.2817
 6050TIP3    H239786   2.067   2.534   1.643 -0.8952  0.9939  2.2912
 6051TIP3   OH239787   6.040   3.454   7.538 -0.1393 -0.0397  0.5870
 6051TIP3    H139788   6.030   3.429   7.630 -0.5506 -1.0982  0.2754
 6051TIP3    H239789   6.120   3.410   7.509 -1.0011 -1.2675 -0.0370
 6052TIP3   OH239790   2.568   3.392   1.040 -0.0625 -0.5817 -0.3802
 6052TIP3    H139791   2.520   3.472   1.059 -0.8561 -1.0684 -0.2849
 6052TIP3    H239792   2.530   3.326   1.098  1.3494 -0.7786  0.3581
 6053TIP3   OH239793   0.388   1.044   6.444  0.6324  0.0372  0.1398
 6053TIP3    H139794   0.392   0.959   6.489  0.0313  0.0039  0.1447
 6053TIP3    H239795   0.396   1.022   6.351 -2.4215 -0.3753 -0.1408
 6054TIP3   OH239796   1.334   1.014   1.161  1.0081 -0.0134 -0.1963
 6054TIP3    H139797   1.310   1.104   1.137  1.0791  0.1810  0.4423
 6054TIP3    H239798   1.296   0.960   1.092 -0.5017  0.3678  0.2885
 6055TIP3   OH239799   5.703   0.850   1.942  0.2860  0.0991  0.6569
 6055TIP3    H139800   5.750   0.932   1.953 -0.3125  0.3119  1.7789
 6055TIP3    H239801   5.666   0.831   2.028 -0.0582 -1.0571  0.2812
 6056TIP3   OH239802   0.422   1.070   1.289 -0.0300  0.2802 -0.1264
 6056TIP3    H139803   0.452   1.106   1.205 -0.3394 -0.1941 -0.4437
 6056TIP3    H239804   0.327   1.064   1.280  0.0535 -1.0803 -0.2802
 6057TIP3   OH239805   1.487   2.944   2.356 -0.7938 -0.0967  1.0586
 6057TIP3    H139806   1.400   2.937   2.316 -0.2194 -1.8625  0.0396
 6057TIP3    H239807   1.485   2.881   2.428 -0.1455 -0.6392  0.6066
 6058TIP3   OH239808   2.804   1.686   8.626 -0.1524  0.0855 -0.4114
 6058TIP3    H139809   2.736   1.742   8.589  1.3409  1.4818 -1.1631
 6058TIP3    H239810   2.779   1.597   8.601 -0.8612  0.7166 -2.0540
 6059TIP3   OH239811   1.714   2.770   7.579  0.2712 -0.3887 -0.0516
 6059TIP3    H139812   1.678   2.842   7.528 -1.0750 -0.3832  0.8478
 6059TIP3    H239813   1.767   2.813   7.646  0.3314 -0.2897 -0.1617
 6060TIP3   OH239814   3.871   1.346   6.565 -0.2221  0.2396  0.1880
 6060TIP3    H139815   3.904   1.374   6.650 -0.7201  1.0925  0.1101
 6060TIP3    H239816   3.891   1.419   6.506  0.1930 -0.3756 -0.4560
 6061TIP3   OH239817   2.933   4.188   6.903  0.4483 -0.2665 -0.0601
 6061TIP3    H139818   2.991   4.138   6.845  0.3293 -0.6338  0.1344
 6061TIP3    H239819   2.861   4.215   6.847  1.1472  0.8079 -0.4780
 6062TIP3   OH239820   2.056   0.338   0.735 -0.0431 -0.2416  0.2135
 6062TIP3    H139821   2.092   0.252   0.757 -0.8397 -0.2922  1.4130
 6062TIP3    H239822   2.076   0.392   0.811  0.1235  0.5452 -0.3761
 6063TIP3   OH239823   0.949   2.630   1.726 -0.6550  0.0014 -0.6021
 6063TIP3    H139824   1.010   2.645   1.798 -0.7609 -1.0798 -0.2640
 6063TIP3    H239825   0.874   2.686   1.744 -0.4644  0.1030 -0.1313
 6064TIP3   OH239826   0.429   4.653   0.330 -0.1228 -0.4193  0.8429
 6064TIP3    H139827   0.401   4.640   0.240  1.9818 -0.7163  0.1767
 6064TIP3    H239828   0.413   4.746   0.347 -1.1297 -0.5039  0.4002
 6065TIP3   OH239829   6.296   2.621   8.313  0.0419 -0.0277 -0.0185
 6065TIP3    H139830   6.334   2.541   8.349 -2.6801 -1.0540  0.8011
 6065TIP3    H239831   6.250   2.661   8.387  2.1061  2.9390 -0.1232
 6066TIP3   OH239832   0.235   6.812   0.943 -0.5008 -0.3067  0.1552
 6066TIP3    H139833   0.289   6.831   1.020  0.6536  0.9073 -0.8913
 6066TIP3    H239834   0.164   6.877   0.947  0.6014  1.0051 -0.7417
 6067TIP3   OH239835   0.300   2.599   1.302  0.5844 -0.1928  0.0329
 6067TIP3    H139836   0.287   2.682   1.256  0.2750 -0.3151 -0.1065
 6067TIP3    H239837   0.373   2.557   1.256  0.7871  0.0327  0.1486
 6068TIP3   OH239838   1.777   1.910   1.293 -0.0493  0.6770  0.1086
 6068TIP3    H139839   1.740   1.975   1.352 -0.4918 -0.3607  1.0006
 6068TIP3    H239840   1.859   1.884   1.334 -0.8759 -0.8417  0.8685
 6069TIP3   OH239841   1.293   3.152   2.123 -0.0932  0.1755 -0.0774
 6069TIP3    H139842   1.326   3.184   2.207  0.0646  3.3154 -1.2138
 6069TIP3    H239843   1.368   3.109   2.083  0.8888  1.7598 -0.0244
 6070TIP3   OH239844   6.447   5.994   6.861  0.2223  0.1895 -0.1338
 6070TIP3    H139845   6.490   5.973   6.778 -1.4301 -0.5926 -0.8160
 6070TIP3    H239846   6.361   6.028   6.837  0.0997  0.9504  1.2375
 6071TIP3   OH239847   3.672   1.089   0.084  0.2771  0.7279  0.7814
 6071TIP3    H139848   3.738   1.066   0.149 -1.1771 -0.6225  1.8792
 6071TIP3    H239849   3.604   1.135   0.135  0.2452  1.8780 -0.2637
 6072TIP3   OH239850   1.357   1.855   7.959  0.0268  0.4515  0.4209
 6072TIP3    H139851   1.385   1.898   8.040  0.3915 -1.6380  1.4729
 6072TIP3    H239852   1.287   1.795   7.987  0.5646 -0.7367 -0.6869
 6073TIP3   OH239853   3.002   0.528   7.681  0.1900 -0.5126 -0.4356
 6073TIP3    H139854   2.925   0.478   7.654  1.1508 -1.4693 -1.5089
 6073TIP3    H239855   3.039   0.560   7.599 -0.1885  1.6938  0.2039
 6074TIP3   OH239856   0.769   0.584   8.615 -0.1937  0.1432 -0.0963
 6074TIP3    H139857   0.695   0.529   8.588  0.0826  0.2494 -1.1071
 6074TIP3    H239858   0.844   0.548   8.568 -0.1650  1.9131 -1.5253
 6075TIP3   OH239859   5.480   0.702   7.218  0.3461  0.2058 -0.3041
 6075TIP3    H139860   5.562   0.750   7.209  0.7150 -0.4535 -0.4891
 6075TIP3    H239861   5.505   0.610   7.216 -0.2823 -0.0085  0.7371
 6076TIP3   OH239862   2.971   3.249   1.842  0.4187 -0.1519 -0.0785
 6076TIP3    H139863   2.946   3.322   1.786  2.8050  1.2638  0.5524
 6076TIP3    H239864   2.927   3.266   1.925 -0.6169 -0.5676 -0.5183
 6077TIP3   OH239865   3.111   2.636   2.273 -0.1298 -0.1460  0.7688
 6077TIP3    H139866   3.116   2.590   2.356  0.3727 -2.9901 -0.7151
 6077TIP3    H239867   3.193   2.687   2.269 -0.1227 -0.0368  1.9486
 6078TIP3   OH239868   4.342   0.546   7.669 -0.0079 -0.4316 -0.1958
 6078TIP3    H139869   4.410   0.486   7.638  0.7033  0.4135 -0.3266
 6078TIP3    H239870   4.264   0.492   7.678  1.1552 -1.8972  1.9811
 6079TIP3   OH239871   4.766   2.274   0.399 -0.1949  0.3661 -0.2784
 6079TIP3    H139872   4.797   2.328   0.326 -0.7488  0.1338 -0.7004
 6079TIP3    H239873   4.812   2.307   0.476 -0.3033  1.2461 -0.5822
 6080TIP3   OH239874   2.102   4.417   1.476 -0.2404 -0.2738 -0.7904
 6080TIP3    H139875   2.072   4.409   1.386 -3.0916  1.3846 -0.1273
 6080TIP3    H239876   2.055   4.494   1.510  1.9363  0.1298  1.6612
 6081TIP3   OH239877   6.441   1.870   1.588 -0.2306 -0.4416 -0.2377
 6081TIP3    H139878   6.348   1.889   1.578 -0.3525 -0.7052  0.3542
 6081TIP3    H239879   6.457   1.798   1.527 -0.5270 -0.7170  0.0017
 6082TIP3   OH239880   1.717   0.928   0.962 -0.0615  0.6005 -0.5366
 6082TIP3    H139881   1.691   1.002   1.016  0.1788  0.7050 -0.5672
 6082TIP3    H239882   1.780   0.963   0.900 -0.7646  0.6033 -1.2643
 6083TIP3   OH239883   4.513   0.677   1.395  0.2995  0.1415  0.0552
 6083TIP3    H139884   4.585   0.710   1.341  1.8483 -0.0203  1.9004
 6083TIP3    H239885   4.548   0.597   1.435 -1.0983 -0.2235  0.6098
 6084TIP3   OH239886   3.487   3.658   7.568  0.3310 -1.1346 -0.1333
 6084TIP3    H139887   3.426   3.676   7.496 -0.4282 -1.4329  0.4138
 6084TIP3    H239888   3.555   3.724   7.559  0.2285 -1.1398 -1.0960
 6085TIP3   OH239889   1.263   4.741   8.554  0.2050  0.2571 -0.3608
 6085TIP3    H139890   1.195   4.686   8.592 -0.3931  0.4577 -1.1009
 6085TIP3    H239891   1.317   4.768   8.628 -1.2873  1.1500  0.4690
 6086TIP3   OH239892   3.860   3.889   7.328 -0.0520  0.1072  0.4474
 6086TIP3    H139893   3.874   3.967   7.381 -0.4831 -0.6359  1.6976
 6086TIP3    H239894   3.766   3.874   7.332 -0.0077 -0.3157 -0.0098
 6087TIP3   OH239895   0.456   0.247   8.559 -0.3432  0.0359 -0.2306
 6087TIP3    H139896   0.535   0.258   8.612 -0.5659 -1.9525  0.6062
 6087TIP3    H239897   0.384   0.252   8.622 -0.8577  1.1026 -0.8801
 6088TIP3   OH239898   1.908   1.000   0.782  0.4121  0.2658 -0.7264
 6088TIP3    H139899   1.957   0.936   0.730  1.8024  0.5115  0.2253
 6088TIP3    H239900   1.926   1.084   0.740  0.2981  0.2874 -0.7330
 6089TIP3   OH239901   4.136   1.930   7.917  0.2608 -0.1672  0.5623
 6089TIP3    H139902   4.169   1.969   7.999  0.6688  0.8865 -0.0751
 6089TIP3    H239903   4.209   1.877   7.885  0.4636  0.2128  0.3872
 6090TIP3   OH239904   1.360   6.463   0.541 -0.9096 -0.2293 -0.0778
 6090TIP3    H139905   1.270   6.442   0.564 -1.3492  0.3074 -1.2222
 6090TIP3    H239906   1.370   6.433   0.451  0.6872 -2.0739  0.6569
 6091TIP3   OH239907   0.039   2.819   0.478  0.3728 -0.0845 -0.4267
 6091TIP3    H139908   0.079   2.851   0.559 -0.2521 -0.3059 -0.0265
 6091TIP3    H239909   0.109   2.827   0.412  1.5030 -1.6733  0.5311
 6092TIP3   OH239910   1.059   0.564   7.497  0.0923 -0.0990  0.5977
 6092TIP3    H139911   1.108   0.645   7.487  0.0478 -0.3133 -2.1696
 6092TIP3    H239912   0.984   0.587   7.551  1.5746  0.9701  2.2986
 6093TIP3   OH239913   4.336   0.071   6.916 -0.4280  0.2977  0.3749
 6093TIP3    H139914   4.295   0.033   6.994  0.4704  0.2197  0.8263
 6093TIP3    H239915   4.264   0.112   6.869 -1.2400 -0.9669  0.4604
 6094TIP3   OH239916   0.631   0.864   1.257 -0.0023 -0.3523  0.0050
 6094TIP3    H139917   0.619   0.825   1.170  1.3154  0.6867 -0.6805
 6094TIP3    H239918   0.600   0.954   1.248 -0.2609 -0.3617  0.7393
 6095TIP3   OH239919   5.848   0.648   0.165 -0.0856 -0.2199  0.1860
 6095TIP3    H139920   5.753   0.642   0.162 -0.4797  3.4477  1.1822
 6095TIP3    H239921   5.871   0.635   0.257  0.4113 -0.9478 -0.0247
 6096TIP3   OH239922   0.851   3.799   0.280  0.6561  0.1402 -0.0895
 6096TIP3    H139923   0.809   3.883   0.263  0.7352  0.6977  2.0999
 6096TIP3    H239924   0.783   3.745   0.320  0.6624 -0.8084 -1.2824
 6097TIP3   OH239925   6.473   3.386   8.594 -0.2082  0.1934 -0.5593
 6097TIP3    H139926   6.504   3.296   8.604 -1.1531 -0.1930 -1.0625
 6097TIP3    H239927   6.530   3.437   8.652 -0.2110 -0.8368  0.3710
 6098TIP3   OH239928   0.750   1.389   7.198  0.2682 -0.0687 -0.1691
 6098TIP3    H139929   0.687   1.456   7.223  1.5315  0.2783  2.4184
 6098TIP3    H239930   0.791   1.422   7.119 -1.1834  0.7502 -0.6162
 6099TIP3   OH239931   4.730   5.143   0.890  0.3181  0.3755 -0.7734
 6099TIP3    H139932   4.658   5.124   0.950  1.0236 -0.0550 -0.0558
 6099TIP3    H239933   4.688   5.189   0.817 -0.8259 -0.6098 -0.7763
 6100TIP3   OH239934   6.284   4.428   0.296 -0.2915  0.5758  0.2377
 6100TIP3    H139935   6.375   4.413   0.270 -0.6263  1.6827 -1.7666
 6100TIP3    H239936   6.270   4.368   0.370  1.1922 -1.8101 -1.2748
 6101TIP3   OH239937   6.178   3.517   0.809 -0.1953  0.4170  0.0885
 6101TIP3    H139938   6.103   3.543   0.755  0.6244 -0.2160 -1.4057
 6101TIP3    H239939   6.254   3.552   0.763  0.5906 -0.7138  0.4797
 6102TIP3   OH239940   3.708   0.995   8.104  0.2741  0.1966 -0.6485
 6102TIP3    H139941   3.778   0.960   8.050  1.2768  0.5626  0.3878
 6102TIP3    H239942   3.733   1.086   8.120  0.4840 -0.1473  1.1753
 6103TIP3   OH239943   2.699   5.397   6.776  0.0828  0.6749 -0.2082
 6103TIP3    H139944   2.732   5.485   6.793  0.5730  0.2105  1.4046
 6103TIP3    H239945   2.607   5.400   6.803  0.1761  0.6178  0.1160
 6104TIP3   OH239946   1.159   3.474   7.432  0.0968 -0.4698  0.2215
 6104TIP3    H139947   1.249   3.452   7.408 -0.2522 -2.0103  0.2070
 6104TIP3    H239948   1.156   3.570   7.429  1.8424 -0.3639  0.6534
 6105TIP3   OH239949   2.629   6.151   0.982 -0.1035  0.5611  0.1282
 6105TIP3    H139950   2.690   6.080   0.961  1.3644  1.9452 -0.4455
 6105TIP3    H239951   2.684   6.229   0.989 -1.3048  1.2985  3.1679
 6106TIP3   OH239952   1.245   4.285   8.369 -0.2948 -0.0867 -0.1757
 6106TIP3    H139953   1.169   4.343   8.366 -0.2475 -0.0013  0.1931
 6106TIP3    H239954   1.320   4.342   8.350 -0.4096 -0.3529 -1.5162
 6107TIP3   OH239955   0.796   3.011   7.897  0.9003  0.3588 -0.6156
 6107TIP3    H139956   0.854   2.968   7.834  0.2424  0.2191 -1.1424
 6107TIP3    H239957   0.853   3.036   7.970  1.5105 -0.3175 -0.8494
 6108TIP3   OH239958   6.065   3.978   1.089 -0.4417  0.2469 -0.3108
 6108TIP3    H139959   5.998   3.997   1.024 -0.5961 -0.2872 -0.3166
 6108TIP3    H239960   6.148   3.986   1.042 -0.1636  4.7288  0.5536
 6109TIP3   OH239961   1.724   0.177   6.817  0.8794  0.3403  0.2739
 6109TIP3    H139962   1.712   0.182   6.722  1.6358  0.7007  0.1854
 6109TIP3    H239963   1.819   0.178   6.829  0.7965 -0.0555  1.0217
 6110TIP3   OH239964   3.175   0.764   1.762 -0.1834  0.2944 -0.0215
 6110TIP3    H139965   3.120   0.747   1.839  1.6522  0.0091  1.3033
 6110TIP3    H239966   3.263   0.737   1.790  0.8753  1.9342 -1.5946
 6111TIP3   OH239967   6.412   4.683   8.207  0.3048  0.2099 -0.0363
 6111TIP3    H139968   6.322   4.678   8.240  0.1389 -0.2486 -0.5404
 6111TIP3    H239969   6.434   4.776   8.210 -0.1323  0.3075  0.2288
 6112TIP3   OH239970   1.910   1.636   0.913 -0.1770  0.3157  0.1559
 6112TIP3    H139971   1.900   1.643   0.818  1.1897  0.8386  0.0354
 6112TIP3    H239972   1.981   1.573   0.925  0.0609  0.6957  0.8035
 6113TIP3   OH239973   3.207   1.128   7.199  0.1068 -0.3086  0.6430
 6113TIP3    H139974   3.232   1.041   7.170  1.2353 -0.2986  1.5089
 6113TIP3    H239975   3.132   1.113   7.258 -0.3990 -0.5775 -0.0587
 6114TIP3   OH239976   0.435   5.232   7.310  0.9186  0.3054  0.0455
 6114TIP3    H139977   0.417   5.138   7.309  1.5154  0.1668  1.1656
 6114TIP3    H239978   0.494   5.245   7.236  0.6771 -0.1561 -0.2412
 6115TIP3   OH239979   2.289   6.771   1.206 -0.0655 -0.7390 -0.0808
 6115TIP3    H139980   2.240   6.841   1.249  1.2734 -0.2425  0.7087
 6115TIP3    H239981   2.258   6.691   1.249 -1.0277 -0.5697 -0.4346
 6116TIP3   OH239982   5.603   5.917   7.169 -0.5061 -0.3786  0.2074
 6116TIP3    H139983   5.611   5.822   7.183 -0.9972 -0.6234 -1.0163
 6116TIP3    H239984   5.686   5.953   7.199 -0.7029 -1.0652  1.6560
 6117TIP3   OH239985   5.138   5.421   6.895  0.0283  0.3559 -0.1318
 6117TIP3    H139986   5.093   5.346   6.857  0.7342 -0.2868  0.2750
 6117TIP3    H239987   5.068   5.484   6.914 -0.3862  0.5323 -2.0674
 6118TIP3   OH239988   0.011   0.490   0.055  0.0948 -0.0454 -0.0803
 6118TIP3    H139989  -0.055   0.428   0.023  1.2327 -0.6355 -1.3690
 6118TIP3    H239990   0.007   0.563  -0.007  1.5469 -0.6866 -0.9739
 6119TIP3   OH239991   1.590   4.902   8.031 -0.0428  0.5194 -0.1024
 6119TIP3    H139992   1.576   4.985   8.077 -0.3813  0.2124  0.3497
 6119TIP3    H239993   1.682   4.905   8.005 -0.0950  1.1077 -0.2250
 6120TIP3   OH239994   0.031   6.468   0.515  0.1209 -0.2509 -0.1536
 6120TIP3    H139995   0.069   6.516   0.441 -1.0984 -1.3316 -1.5478
 6120TIP3    H239996  -0.030   6.529   0.556  1.4182  0.6390  0.5280
 6121TIP3   OH239997   5.806   3.578   7.479  0.1014  0.1171  0.0297
 6121TIP3    H139998   5.854   3.495   7.474  0.1954  0.2441 -1.3467
 6121TIP3    H239999   5.875   3.645   7.483  0.0279  0.2060 -0.2161
 6122TIP3   OH240000   2.617   0.562   0.040  0.7319  0.2160  0.6630
 6122TIP3    H140001   2.657   0.645   0.066  3.0528 -0.0314 -1.7018
 6122TIP3    H240002   2.657   0.541  -0.044  0.7783 -3.6489  1.4520
 6123TIP3   OH240003   3.759   2.719   7.023  0.4272 -0.3076  0.2331
 6123TIP3    H140004   3.686   2.658   7.011  1.7351 -2.3782  2.0953
 6123TIP3    H240005   3.736   2.767   7.103 -0.8321  2.1799 -1.4742
 6124TIP3   OH240006   5.631   5.436   0.219 -0.2944  0.3524  0.4876
 6124TIP3    H140007   5.563   5.445   0.286 -0.9428 -0.1834 -0.0895
 6124TIP3    H240008   5.710   5.474   0.260 -0.6893  0.0867  1.5303
 6125TIP3   OH240009   1.737   2.059   1.082  0.0952 -0.1625  0.2415
 6125TIP3    H140010   1.703   1.975   1.050 -1.9503  1.0474 -1.0111
 6125TIP3    H240011   1.748   2.046   1.176  0.6324 -2.0729 -0.0517
 6126TIP3   OH240012   4.278   1.314   0.996 -0.1280  0.1240 -0.2979
 6126TIP3    H140013   4.322   1.240   1.039  0.6802  0.1478 -1.0642
 6126TIP3    H240014   4.348   1.362   0.952 -1.1246 -1.4376 -3.9890
 6127TIP3   OH240015   4.014   2.402   1.576  0.2033 -0.7576  0.2496
 6127TIP3    H140016   4.034   2.432   1.665 -1.1521 -1.5005  0.8377
 6127TIP3    H240017   3.944   2.460   1.546  1.2630  0.0710 -0.7133
 6128TIP3   OH240018   1.204   6.042   6.779  0.2250  0.2926  0.4402
 6128TIP3    H140019   1.289   6.064   6.817  0.6112  0.2015 -0.3399
 6128TIP3    H240020   1.222   5.969   6.720 -0.1239  1.1333 -0.7761
 6129TIP3   OH240021   2.897   4.865   1.429  0.1066 -0.0570 -0.1859
 6129TIP3    H140022   2.880   4.890   1.338  0.8760  1.7765  0.1428
 6129TIP3    H240023   2.992   4.856   1.434  0.0063 -0.9724  0.2547
 6130TIP3   OH240024   6.556   0.602   6.572  0.1537  0.2765  0.5297
 6130TIP3    H140025   6.594   0.523   6.611  2.4458  0.1865 -1.6493
 6130TIP3    H240026   6.624   0.669   6.583 -1.6264  1.9396  2.0495
 6131TIP3   OH240027   6.793   1.178   6.382  0.1454 -0.3498 -0.9588
 6131TIP3    H140028   6.827   1.204   6.468 -2.1731  1.7036 -0.5241
 6131TIP3    H240029   6.698   1.174   6.395 -0.0940 -2.8857 -2.7595
 6132TIP3   OH240030   6.734   1.044   7.006  0.0676  0.3329 -0.2200
 6132TIP3    H140031   6.655   1.044   7.060  0.6690  0.1230  0.6809
 6132TIP3    H240032   6.714   1.105   6.935 -1.2069 -0.3451 -0.4650
 6133TIP3   OH240033   6.788   4.992   6.972  0.5957 -0.4979 -0.0299
 6133TIP3    H140034   6.772   4.904   6.937 -0.6722 -0.6758  0.9264
 6133TIP3    H240035   6.851   4.979   7.043  0.0833 -0.7059  0.3935
 6134TIP3   OH240036   2.186   6.250   7.887  0.3386  0.2358  0.2837
 6134TIP3    H140037   2.097   6.220   7.867  0.6794  0.1802 -1.3157
 6134TIP3    H240038   2.173   6.324   7.946 -0.6778 -0.7127  1.3205
 6135TIP3   OH240039   4.955   0.018   1.179  0.5829  0.4325 -0.4786
 6135TIP3    H140040   4.921  -0.048   1.118  3.1453 -0.7702 -0.7479
 6135TIP3    H240041   4.890   0.021   1.250  0.5387 -2.7597 -0.2338
 6136TIP3   OH240042   3.889   6.752   2.547 -0.1912  0.3462  0.2766
 6136TIP3    H140043   3.796   6.732   2.563 -0.2272  0.2539 -0.0409
 6136TIP3    H240044   3.936   6.680   2.588 -0.3308 -0.5557 -1.0929
 6137TIP3   OH240045   2.322   1.337   7.304  0.3862  0.0478  0.0936
 6137TIP3    H140046   2.300   1.281   7.379 -1.2763  0.0862 -0.3191
 6137TIP3    H240047   2.287   1.423   7.328  1.4730  0.5156  0.0314
 6138TIP3   OH240048   4.902   1.997   8.560 -0.0974 -0.4083  0.2211
 6138TIP3    H140049   4.811   1.981   8.581 -0.0971  0.1600  0.6976
 6138TIP3    H240050   4.951   1.964   8.635  0.0243  0.0717  0.3593
 6139TIP3   OH240051   3.732   2.816   2.895 -0.0958 -0.5603  0.4087
 6139TIP3    H140052   3.658   2.837   2.838 -0.7474 -1.3210  0.9421
 6139TIP3    H240053   3.808   2.856   2.852 -1.0574  1.9057  0.8410
 6140TIP3   OH240054   2.365   6.896   0.984 -0.3275  0.1031  0.1114
 6140TIP3    H140055   2.341   6.859   1.069  0.5323 -2.3389 -0.6281
 6140TIP3    H240056   2.460   6.906   0.988 -0.4385  1.3935 -0.0698
 6141TIP3   OH240057   5.753   4.062   7.837 -0.0319 -0.2499  0.3030
 6141TIP3    H140058   5.773   4.017   7.755  2.1657 -0.2368  0.7719
 6141TIP3    H240059   5.821   4.129   7.844 -0.4009 -0.0224  1.9744
 6142TIP3   OH240060   0.850   2.966   8.420  0.8373  0.1498 -0.2699
 6142TIP3    H140061   0.888   2.886   8.384  2.1965  1.2665 -1.4168
 6142TIP3    H240062   0.901   2.983   8.500 -0.0178 -0.5505  0.4530
 6143TIP3   OH240063   1.038   6.143   1.460 -0.2004 -0.1449  0.0197
 6143TIP3    H140064   1.076   6.200   1.393 -0.3165 -2.1118 -1.8269
 6143TIP3    H240065   1.110   6.085   1.486 -0.3248  0.1962  1.1844
 6144TIP3   OH240066   5.564   6.174   1.314  0.0848  0.3136  0.3454
 6144TIP3    H140067   5.538   6.192   1.224 -0.0755  0.2178  0.3726
 6144TIP3    H240068   5.484   6.185   1.365  0.0097 -0.3523  0.3806
 6145TIP3   OH240069   3.668   0.889   8.361 -0.1223  0.2115  0.3823
 6145TIP3    H140070   3.670   0.951   8.289 -0.4282  1.1891  1.1942
 6145TIP3    H240071   3.677   0.803   8.320  3.0009  0.8899 -0.5998
 6146TIP3   OH240072   2.357   2.365   7.140  0.1330 -0.2371  0.3076
 6146TIP3    H140073   2.431   2.394   7.193 -0.1635  0.3291  0.4168
 6146TIP3    H240074   2.347   2.433   7.073 -2.2255  1.3756  2.1243
 6147TIP3   OH240075   3.218   2.264   1.690 -0.1528  0.5447  0.1466
 6147TIP3    H140076   3.126   2.286   1.674 -0.4196 -0.3374  0.4106
 6147TIP3    H240077   3.235   2.295   1.779 -0.8628 -1.2799  0.9616
 6148TIP3   OH240078   2.765   4.294   1.667 -0.5151 -0.0462  0.7294
 6148TIP3    H140079   2.794   4.382   1.695  0.0469 -0.2607  0.8434
 6148TIP3    H240080   2.779   4.239   1.744  0.7344 -0.5811  0.1427
 6149TIP3   OH240081   2.181   5.971   6.981  0.3804 -0.3660 -0.0264
 6149TIP3    H140082   2.234   5.936   6.909  0.6260 -0.3620  0.1518
 6149TIP3    H240083   2.099   5.920   6.977 -1.2390  2.1588 -2.7161
 6150TIP3   OH240084   2.593   4.391   8.258 -0.2566 -0.6608 -0.5607
 6150TIP3    H140085   2.581   4.445   8.336  1.8963  1.5696 -1.6066
 6150TIP3    H240086   2.601   4.302   8.291 -0.9178  0.0146  1.5915
 6151TIP3   OH240087   5.274   5.524   1.746  0.4712  0.0540  0.0730
 6151TIP3    H140088   5.355   5.477   1.763 -0.3857 -1.4258  0.2407
 6151TIP3    H240089   5.297   5.617   1.756  1.7642 -0.3974  1.6807
 6152TIP3   OH240090   2.492   6.844   7.419 -0.3576 -0.0727 -0.1210
 6152TIP3    H140091   2.457   6.908   7.357  0.3867 -0.2883 -0.7776
 6152TIP3    H240092   2.429   6.844   7.491 -0.4090  1.3542 -0.1270
 6153TIP3   OH240093   2.404   3.532   1.712  0.2547  0.1986 -0.1215
 6153TIP3    H140094   2.353   3.498   1.786  0.5145 -1.9508 -0.8630
 6153TIP3    H240095   2.491   3.546   1.748 -0.3647  2.3643  0.7456
 6154TIP3   OH240096   6.870   3.412   8.641 -0.5509  0.3022  0.0135
 6154TIP3    H140097   6.826   3.404   8.725 -1.2637 -1.7138 -0.4939
 6154TIP3    H240098   6.962   3.399   8.660 -0.5204  1.3776  0.6632
 6155TIP3   OH240099   1.674   1.771   1.065 -0.6211  0.1738  0.2226
 6155TIP3    H140100   1.710   1.790   1.151 -3.1664 -2.1313  1.9651
 6155TIP3    H240101   1.730   1.702   1.030 -0.4887  0.0108  0.7408
 6156TIP3   OH240102   2.860   5.457   1.491  0.1706 -0.4740 -0.8118
 6156TIP3    H140103   2.831   5.480   1.579 -0.8466  0.2930 -1.3327
 6156TIP3    H240104   2.950   5.492   1.486 -0.5800  1.6172 -0.8536
 6157TIP3   OH240105   5.449   3.671   0.011 -0.1356 -0.5514 -0.2972
 6157TIP3    H140106   5.355   3.687   0.003 -0.0762  1.3401  1.8109
 6157TIP3    H240107   5.480   3.663  -0.080 -2.2986 -1.3170 -1.0249
 6158TIP3   OH240108   4.426   5.652   2.249 -0.2596  0.2083  0.1800
 6158TIP3    H140109   4.521   5.661   2.237 -0.2232  0.2844  0.5135
 6158TIP3    H240110   4.412   5.558   2.260 -0.3014  0.1312 -0.5164
 6159TIP3   OH240111   6.664   2.966   0.976  0.2621 -0.5269  0.1699
 6159TIP3    H140112   6.653   3.052   0.936  2.3065 -0.0281  0.5893
 6159TIP3    H240113   6.758   2.949   0.973  0.5124 -0.7364  4.0930
 6160TIP3   OH240114   4.142   4.145   6.971  0.4062 -0.4847  0.5832
 6160TIP3    H140115   4.067   4.194   6.937  0.6700 -0.4269  0.0795
 6160TIP3    H240116   4.218   4.193   6.939  0.6785  0.1968  2.1395
 6161TIP3   OH240117   5.755   6.275   8.656 -0.0062 -0.0092 -0.8537
 6161TIP3    H140118   5.829   6.316   8.701  0.1907 -0.3041 -0.9028
 6161TIP3    H240119   5.789   6.254   8.569 -0.2823  0.2507 -1.0254
 6162TIP3   OH240120   3.281   4.689   0.330  0.2295  0.8196  0.3697
 6162TIP3    H140121   3.249   4.778   0.316 -1.0987  0.2971 -0.0460
 6162TIP3    H240122   3.335   4.671   0.252 -4.1121 -0.7260 -2.6397
 6163TIP3   OH240123   2.523   0.667   2.204  0.3381  0.1028  0.0124
 6163TIP3    H140124   2.472   0.733   2.252  1.8416  1.1762  0.1730
 6163TIP3    H240125   2.513   0.587   2.257 -1.3489  0.2084 -0.0895
 6164TIP3   OH240126   1.012   3.672   7.588 -0.0981  0.1103  0.5476
 6164TIP3    H140127   1.020   3.577   7.598  0.9564  0.0358 -0.7389
 6164TIP3    H240128   0.998   3.704   7.677 -0.5984 -1.2499  0.9926
 6165TIP3   OH240129   5.118   2.415   8.276  0.1977  0.7310  0.2723
 6165TIP3    H140130   5.062   2.467   8.219  0.2206  1.8254  1.2044
 6165TIP3    H240131   5.105   2.324   8.247 -0.6746  1.1413 -0.6793
 6166TIP3   OH240132   5.883   5.487   0.641  0.1273  0.5362 -0.1406
 6166TIP3    H140133   5.858   5.577   0.661  1.0803  1.0521 -1.0883
 6166TIP3    H240134   5.976   5.483   0.663  0.6387  0.4575 -2.1109
 6167TIP3   OH240135   2.569   3.185   2.692 -0.0046  0.2388 -0.0104
 6167TIP3    H140136   2.602   3.254   2.750  0.7988  1.5380 -1.9314
 6167TIP3    H240137   2.488   3.220   2.656  1.2018  0.9573 -2.2226
 6168TIP3   OH240138   0.544   5.972   7.310 -0.2888  0.6511  0.2074
 6168TIP3    H140139   0.588   5.939   7.389  0.9015  0.7797 -0.3683
 6168TIP3    H240140   0.487   6.042   7.341  0.0669  0.6134  0.9706
 6169TIP3   OH240141   5.848   0.200   0.603 -0.2009  0.5217  0.5441
 6169TIP3    H140142   5.789   0.229   0.674  0.8851  0.1659  1.6297
 6169TIP3    H240143   5.912   0.144   0.647 -0.4407 -1.0455 -1.0144
 6170TIP3   OH240144   5.792   4.347   7.268 -0.1345  0.2273 -0.3428
 6170TIP3    H140145   5.863   4.401   7.303  0.0880  0.2285 -0.7873
 6170TIP3    H240146   5.801   4.354   7.173 -1.2158  0.8564 -0.4091
 6171TIP3   OH240147   1.258   2.604   8.382 -0.3358 -0.1545  0.6459
 6171TIP3    H140148   1.239   2.586   8.474  0.4729 -1.2548  0.6118
 6171TIP3    H240149   1.275   2.519   8.344  0.8294  0.4208 -0.1800
 6172TIP3   OH240150   1.025   5.168   6.648  0.1612 -0.2264 -0.1530
 6172TIP3    H140151   0.962   5.097   6.660 -0.6948  0.2988 -1.3784
 6172TIP3    H240152   0.977   5.247   6.671  0.5046  0.1385 -0.6517
 6173TIP3   OH240153   3.629   2.937   1.495 -0.1741  0.4184 -0.2865
 6173TIP3    H140154   3.643   2.974   1.582 -1.0466 -0.2274  0.1462
 6173TIP3    H240155   3.604   3.012   1.441 -1.1401  0.6161  0.3932
 6174TIP3   OH240156   0.187   4.584   0.514 -0.1955 -0.1411 -0.1337
 6174TIP3    H140157   0.207   4.640   0.589 -2.7800  0.8610 -0.1265
 6174TIP3    H240158   0.244   4.618   0.444  0.5630  0.4047  0.7144
 6175TIP3   OH240159   3.915   0.007   7.051  0.3775 -0.3230 -0.1393
 6175TIP3    H140160   3.825   0.036   7.066  0.6014  0.0003  0.6632
 6175TIP3    H240161   3.907  -0.074   7.002 -0.3735 -0.6023  0.4298
 6176TIP3   OH240162   3.885   0.185   0.307  0.0226  0.3860 -0.4141
 6176TIP3    H140163   3.884   0.109   0.248 -1.7743  0.7669 -0.9276
 6176TIP3    H240164   3.802   0.181   0.353  0.8238  0.8710  1.1363
 6177TIP3   OH240165   2.923   1.631   0.453  0.1387  0.1457 -0.0513
 6177TIP3    H140166   2.928   1.668   0.365 -2.2096 -2.3199 -1.3826
 6177TIP3    H240167   2.916   1.536   0.439 -0.4175 -0.3378  2.7979
 6178TIP3   OH240168   2.780   4.450   6.878 -0.3672 -0.9096 -0.1385
 6178TIP3    H140169   2.793   4.450   6.784 -0.6416 -1.2773 -0.1779
 6178TIP3    H240170   2.796   4.541   6.905 -1.4989 -0.5208 -0.7022
 6179TIP3   OH240171   4.382   1.614   7.430 -0.1564 -0.4513  0.6149
 6179TIP3    H140172   4.334   1.682   7.382  1.5031 -0.0747 -0.5763
 6179TIP3    H240173   4.357   1.627   7.521 -2.8340 -0.7215  0.0140
 6180TIP3   OH240174   3.136   0.907   1.107 -0.4982 -0.6630  0.0994
 6180TIP3    H140175   3.190   0.926   1.031 -2.7242  0.9594 -1.1783
 6180TIP3    H240176   3.149   0.813   1.123  1.0198 -0.7595 -1.4330
 6181TIP3   OH240177   2.408   0.295   1.312 -0.3658  0.2485 -0.5089
 6181TIP3    H140178   2.395   0.324   1.222 -0.3593  1.2903 -0.1898
 6181TIP3    H240179   2.489   0.338   1.340 -0.4133  0.0098  0.0108
 6182TIP3   OH240180   0.728   3.183   0.425 -0.2972  0.0636 -0.3910
 6182TIP3    H140181   0.707   3.198   0.517  0.7552 -0.8699  0.0365
 6182TIP3    H240182   0.766   3.095   0.424  0.6316  0.4569 -1.5517
 6183TIP3   OH240183   4.864   4.745   7.254 -0.0402  0.2468  0.2957
 6183TIP3    H140184   4.813   4.825   7.239 -0.5008  0.0471  0.7686
 6183TIP3    H240185   4.915   4.765   7.333 -0.2535  0.0311  0.4896
 6184TIP3   OH240186   3.551   4.237   1.198 -0.2842  0.2974 -0.3219
 6184TIP3    H140187   3.551   4.149   1.160  0.5518 -0.0614  0.4761
 6184TIP3    H240188   3.484   4.233   1.266 -0.5753  0.4227 -0.5999
 6185TIP3   OH240189   6.670   4.944   7.959  0.0516 -0.2685  0.1452
 6185TIP3    H140190   6.596   4.986   8.003  1.1440  0.6670  1.1788
 6185TIP3    H240191   6.709   5.013   7.905  1.1359 -0.2698  0.8912
 6186TIP3   OH240192   5.467   2.216   1.786 -0.3377  0.0190 -0.0504
 6186TIP3    H140193   5.468   2.248   1.696 -1.3495  1.6207  0.4670
 6186TIP3    H240194   5.375   2.203   1.807 -0.0305 -2.1642  0.1855
 6187TIP3   OH240195   3.823   3.703   1.756  1.0405  0.3826  0.1654
 6187TIP3    H140196   3.766   3.777   1.777  1.5896  0.6299  0.8161
 6187TIP3    H240197   3.775   3.626   1.787  0.0520  0.3433 -1.3322
 6188TIP3   OH240198   1.606   3.098   8.441 -0.2562  0.6326 -0.4230
 6188TIP3    H140199   1.660   3.099   8.520 -1.4527 -0.9115  0.4743
 6188TIP3    H240200   1.656   3.044   8.379  0.0132  0.6269 -0.2034
 6189TIP3   OH240201   2.987   1.214   8.520  0.0219  0.2207  1.0009
 6189TIP3    H140202   2.989   1.194   8.427 -3.7290  0.0149  0.8323
 6189TIP3    H240203   3.049   1.287   8.530  1.4361 -0.5411 -1.3598
 6190TIP3   OH240204   4.519   5.776   6.663  0.7592 -0.7263 -0.2003
 6190TIP3    H140205   4.502   5.687   6.695  1.3943 -0.7598  0.0680
 6190TIP3    H240206   4.606   5.797   6.697  0.5385  0.0723 -0.1095
 6191TIP3   OH240207   5.516   6.625   0.310  0.0968 -0.6447  0.1191
 6191TIP3    H140208   5.469   6.709   0.318  1.1614  0.0148 -0.3176
 6191TIP3    H240209   5.594   6.636   0.363 -0.2644 -1.7678  0.9148
 6192TIP3   OH240210   2.285   0.313   8.656  0.0533  0.0098  0.2978
 6192TIP3    H140211   2.314   0.399   8.687  0.5519 -0.5898  1.5868
 6192TIP3    H240212   2.359   0.255   8.674 -0.9519 -1.0419  1.2126
 6193TIP3   OH240213   4.251   3.698   0.770  0.2288 -0.4912 -0.2436
 6193TIP3    H140214   4.241   3.793   0.766  0.2654 -0.4096  1.1267
 6193TIP3    H240215   4.300   3.682   0.851 -2.2714 -1.8330  1.1537
 6194TIP3   OH240216   3.042   3.296   7.825  0.2188 -0.2583 -0.4525
 6194TIP3    H140217   3.077   3.346   7.752  1.2836  2.0148  1.4759
 6194TIP3    H240218   3.042   3.205   7.794  1.3799  0.5077 -2.9533
 6195TIP3   OH240219   5.634   6.840   7.666 -0.5026  0.0177  0.0621
 6195TIP3    H140220   5.605   6.875   7.582 -1.2276 -2.5591 -0.8706
 6195TIP3    H240221   5.578   6.883   7.731 -3.9646 -1.9063 -1.3456
 6196TIP3   OH240222   5.053   2.185   7.334  0.0926  0.5601  0.7254
 6196TIP3    H140223   5.004   2.141   7.265 -0.6439  3.4932 -0.7851
 6196TIP3    H240224   5.022   2.144   7.415 -0.9504 -1.2273 -0.5021
 6197TIP3   OH240225   3.052   6.120   1.586  0.2291  0.6616  0.6348
 6197TIP3    H140226   2.989   6.094   1.519 -0.9153  0.8850  1.6091
 6197TIP3    H240227   3.097   6.196   1.549 -1.2724  1.5674  0.6084
 6198TIP3   OH240228   3.283   2.940   1.334  0.0162 -0.0319 -0.3786
 6198TIP3    H140229   3.293   3.024   1.289  1.1561  1.2308  2.0659
 6198TIP3    H240230   3.195   2.942   1.370  0.4283  0.6460  0.6245
 6199TIP3   OH240231   2.034   4.836   0.234 -0.3469 -0.3377 -0.2621
 6199TIP3    H140232   2.006   4.773   0.168 -0.9614 -0.4638  0.1132
 6199TIP3    H240233   2.071   4.782   0.305  1.3198 -0.1578 -0.9467
 6200TIP3   OH240234   6.257   5.547   7.665  0.1300  0.1105 -0.0278
 6200TIP3    H140235   6.212   5.598   7.597  1.9275 -1.5975 -2.6602
 6200TIP3    H240236   6.324   5.607   7.699 -1.5052  1.3560  1.1462
 6201TIP3   OH240237   0.035   2.940   8.467  0.5726  0.0448  0.6513
 6201TIP3    H140238   0.081   2.890   8.535  0.0319 -0.6471  0.5235
 6201TIP3    H240239   0.102   2.997   8.430  1.8163 -2.1163 -0.6964
 6202TIP3   OH240240   5.421   3.407   1.946  0.1534 -0.8830 -0.2556
 6202TIP3    H140241   5.475   3.452   2.011 -0.8371  0.2687 -0.1970
 6202TIP3    H240242   5.454   3.317   1.945  2.5558 -0.0849 -0.7459
 6203TIP3   OH240243   3.021   1.368   8.103 -0.0966  0.1358 -0.4213
 6203TIP3    H140244   2.938   1.394   8.063 -0.4283  0.6571  0.5975
 6203TIP3    H240245   2.996   1.312   8.176  0.4676  0.0517 -0.2892
 6204TIP3   OH240246   4.610   4.884   2.612  0.1982  0.3354  0.2776
 6204TIP3    H140247   4.681   4.937   2.649  1.7982 -1.2216 -0.4328
 6204TIP3    H240248   4.639   4.794   2.622 -0.7369 -0.2650 -1.9256
 6205TIP3   OH240249   3.363   1.445   6.755  0.0728 -0.4844  0.0162
 6205TIP3    H140250   3.446   1.415   6.716  0.3344 -0.3168  0.4426
 6205TIP3    H240251   3.301   1.376   6.733  0.6827 -1.4021  1.0324
 6206TIP3   OH240252   4.122   6.796   0.537 -0.0241  0.4009 -0.2391
 6206TIP3    H140253   4.166   6.845   0.607 -2.1576  2.6935 -0.3587
 6206TIP3    H240254   4.038   6.769   0.576 -1.0331  1.2844 -1.7048
 6207TIP3   OH240255   1.376   1.299   2.489 -0.0166 -0.3459 -0.1024
 6207TIP3    H140256   1.369   1.208   2.516  0.9037 -0.7114 -1.0262
 6207TIP3    H240257   1.469   1.321   2.502 -0.5970  1.1534  2.1783
 6208TIP3   OH240258   0.868   0.588   1.833 -0.1083 -0.5500  0.1167
 6208TIP3    H140259   0.823   0.659   1.878  0.4084  0.1143 -0.3964
 6208TIP3    H240260   0.952   0.580   1.878  0.5443  0.3298 -0.8842
 6209TIP3   OH240261   0.751   2.152   8.240  0.0968 -0.0281 -0.0728
 6209TIP3    H140262   0.843   2.129   8.254 -0.0401 -0.9675 -0.5964
 6209TIP3    H240263   0.716   2.164   8.328  1.1872  2.3984  0.0865
 6210TIP3   OH240264   6.167   0.157   7.629  0.8132 -0.5327  0.1589
 6210TIP3    H140265   6.079   0.126   7.650 -0.2533  0.7982 -1.9888
 6210TIP3    H240266   6.216   0.078   7.608 -0.5595 -1.1440 -0.8778
 6211TIP3   OH240267   4.390   4.722   1.374  0.3094  0.0519 -0.0970
 6211TIP3    H140268   4.406   4.658   1.443  1.7559  0.4908  0.0051
 6211TIP3    H240269   4.469   4.777   1.373 -0.2877  0.9357 -1.1459
 6212TIP3   OH240270   6.529   5.100   1.186 -0.6918  0.0171 -0.3246
 6212TIP3    H140271   6.503   5.187   1.157 -0.2195  0.3610  0.2632
 6212TIP3    H240272   6.619   5.090   1.154 -0.6175 -0.1102 -0.0752
 6213TIP3   OH240273   0.577   0.367   6.427  0.0713 -0.3724 -0.3347
 6213TIP3    H140274   0.495   0.376   6.476  0.0373  0.4362 -0.5197
 6213TIP3    H240275   0.579   0.445   6.371  0.8406 -0.5257 -0.5234
 6214TIP3   OH240276   0.407   6.185   2.226  0.3859  0.2626 -0.0980
 6214TIP3    H140277   0.313   6.174   2.212  0.3382  0.3135  0.1858
 6214TIP3    H240278   0.420   6.280   2.223  0.4557  0.2484 -0.3014
 6215TIP3   OH240279   4.176   5.534   8.636  0.4356  0.0711 -0.5257
 6215TIP3    H140280   4.103   5.564   8.690  0.4278  1.3447 -1.2257
 6215TIP3    H240281   4.161   5.574   8.551  1.9833  0.3874 -0.6637
 6216TIP3   OH240282   2.901   2.241   6.771  0.3022  1.1753 -0.1788
 6216TIP3    H140283   2.980   2.203   6.733  0.9237 -1.2432  3.1250
 6216TIP3    H240284   2.835   2.172   6.763 -0.0287  1.2673  1.4893
 6217TIP3   OH240285   1.569   4.006   0.269  0.7356 -0.9203 -0.6214
 6217TIP3    H140286   1.543   3.999   0.178 -0.0902 -0.9980 -0.3891
 6217TIP3    H240287   1.528   4.087   0.300 -0.2879 -1.6739  0.0735
 6218TIP3   OH240288   2.551   3.447   0.401  0.5939  0.2085  0.0807
 6218TIP3    H140289   2.548   3.361   0.360  0.1822  0.4859 -0.4879
 6218TIP3    H240290   2.461   3.479   0.396  0.4557  0.0899  1.5520
 6219TIP3   OH240291   5.301   0.033   0.901 -0.6305  0.1196  0.3655
 6219TIP3    H140292   5.345   0.082   0.831 -0.0079 -2.0754 -0.8655
 6219TIP3    H240293   5.212   0.069   0.903 -0.4886  0.6270 -1.1666
 6220TIP3   OH240294   3.994   5.881   1.763  1.0397 -0.0206 -0.1348
 6220TIP3    H140295   3.975   5.975   1.770 -2.0045 -0.4095 -1.3899
 6220TIP3    H240296   4.040   5.872   1.680 -0.8925  0.2015 -1.3017
 6221TIP3   OH240297   4.676   4.626   2.087 -0.2547  0.1569  0.5121
 6221TIP3    H140298   4.698   4.719   2.094 -0.6150  0.3069 -0.2450
 6221TIP3    H240299   4.725   4.584   2.157  2.1195  0.5248 -0.8414
 6222TIP3   OH240300   5.692   6.746   8.178 -0.1006  0.2817  0.0147
 6222TIP3    H140301   5.690   6.800   8.256  1.9537  0.3519  0.0709
 6222TIP3    H240302   5.641   6.795   8.113 -1.7190  0.2795  1.2318
 6223TIP3   OH240303   5.053   4.030   7.581 -0.2722 -0.1757 -0.0601
 6223TIP3    H140304   4.976   4.086   7.591  0.2322  0.3256  1.2228
 6223TIP3    H240305   5.126   4.083   7.615  0.6664 -0.6230 -1.2637
 6224TIP3   OH240306   5.955   4.433   0.920  0.7738 -0.7350 -0.6993
 6224TIP3    H140307   5.938   4.347   0.881  0.4852 -1.0974  0.2189
 6224TIP3    H240308   6.025   4.470   0.865  1.2002 -1.7263 -0.8438
 6225TIP3   OH240309   0.112   0.077   7.906  0.0073  0.0978  0.3150
 6225TIP3    H140310   0.073   0.050   7.823  0.1317  1.4779 -0.2065
 6225TIP3    H240311   0.051   0.043   7.973  0.2609 -1.6250 -0.2693
 6226TIP3   OH240312   4.620   0.952   7.866  0.2985 -0.3518  0.0276
 6226TIP3    H140313   4.628   1.030   7.921  1.0141 -0.4301  0.0433
 6226TIP3    H240314   4.536   0.914   7.891 -1.0507  1.5156 -1.4350
 6227TIP3   OH240315   6.081   5.129   1.029 -0.5492  0.6395 -0.6251
 6227TIP3    H140316   6.104   5.128   0.936 -0.1299  0.4761 -0.5232
 6227TIP3    H240317   5.997   5.083   1.034  0.1458 -0.6891 -0.7393
 6228TIP3   OH240318   4.621   2.989   0.896 -0.3033  0.3348 -0.5244
 6228TIP3    H140319   4.551   2.981   0.831 -0.8475  0.5684  0.0231
 6228TIP3    H240320   4.577   3.016   0.976  0.5783  1.9129 -0.5201
 6229TIP3   OH240321   3.306   2.383   1.052  0.0366 -0.0379  0.2303
 6229TIP3    H140322   3.269   2.463   1.087 -1.5189 -0.4721 -0.3332
 6229TIP3    H240323   3.378   2.362   1.111 -0.2931  1.1158  1.0784
 6230TIP3   OH240324   0.664   1.214   6.334  0.6830 -0.7710 -0.3491
 6230TIP3    H140325   0.756   1.230   6.356  0.8430 -2.6408  0.4993
 6230TIP3    H240326   0.661   1.220   6.239  1.2768  1.1355 -0.2985
 6231TIP3   OH240327   2.754   0.555   7.959 -0.4791 -0.2938  0.0527
 6231TIP3    H140328   2.817   0.484   7.943 -0.1295  0.1282 -0.4609
 6231TIP3    H240329   2.796   0.610   8.025 -0.9446 -0.7930  0.7910
 6232TIP3   OH240330   0.665   5.646   8.621 -0.7817  0.1365 -0.3100
 6232TIP3    H140331   0.696   5.585   8.687 -1.7524 -0.3937 -0.3269
 6232TIP3    H240332   0.745   5.686   8.585 -0.2627  1.0536  1.7332
 6233TIP3   OH240333   2.514   1.694   7.975  0.5781  0.0081 -0.7671
 6233TIP3    H140334   2.483   1.648   7.897 -1.3981  0.6052 -0.3773
 6233TIP3    H240335   2.535   1.782   7.944 -1.8082  0.7719 -0.3928
 6234TIP3   OH240336   1.373   4.766   0.666  0.2255 -0.3016  0.3441
 6234TIP3    H140337   1.414   4.846   0.700 -0.9525 -0.0164  1.1751
 6234TIP3    H240338   1.388   4.701   0.735 -2.7259  0.4436  1.8276
 6235TIP3   OH240339   4.241   0.534   0.273 -0.4607  0.2178 -0.1207
 6235TIP3    H140340   4.145   0.527   0.267 -0.4736  0.4421 -0.1779
 6235TIP3    H240341   4.258   0.535   0.367 -0.5327  0.4315 -0.1105
 6236TIP3   OH240342   3.574   2.846   2.680  0.4634 -0.3006 -0.1167
 6236TIP3    H140343   3.498   2.857   2.623  0.6176  1.8134 -0.0136
 6236TIP3    H240344   3.649   2.861   2.622  0.7252 -0.6220  0.1390
 6237TIP3   OH240345   6.601   3.937   0.020 -0.0535  0.3337 -0.2108
 6237TIP3    H140346   6.686   3.897   0.034 -0.6321 -0.8325  0.1218
 6237TIP3    H240347   6.614   4.030   0.037  1.5498  0.4721 -1.8939
 6238TIP3   OH240348   0.840   2.326   0.885  0.1419 -0.3155  0.7603
 6238TIP3    H140349   0.803   2.365   0.806  1.5730  0.2845  0.3592
 6238TIP3    H240350   0.816   2.387   0.955  0.4750  0.1449  0.4811
 6239TIP3   OH240351   1.614   0.695   6.727 -0.2504 -0.2378 -0.5930
 6239TIP3    H140352   1.614   0.611   6.772 -3.2598 -0.6254 -1.0685
 6239TIP3    H240353   1.632   0.673   6.635 -1.9454 -0.5630 -0.8836
 6240TIP3   OH240354   2.385   2.159   0.911 -0.3164 -0.0314 -0.3301
 6240TIP3    H140355   2.452   2.156   0.979 -1.4031  0.0425  0.7896
 6240TIP3    H240356   2.419   2.220   0.845  1.0289 -0.5820 -0.1685
 6241TIP3   OH240357   5.216   5.100   8.648  0.0697 -0.0734  0.1362
 6241TIP3    H140358   5.195   5.045   8.724 -1.7497  0.8606  0.3593
 6241TIP3    H240359   5.241   5.184   8.685 -0.4762  0.2781 -0.2847
 6242TIP3   OH240360   1.077   4.505   7.511 -0.1845  0.1425  0.3766
 6242TIP3    H140361   1.149   4.560   7.480  1.5584 -1.5398  1.1987
 6242TIP3    H240362   1.081   4.510   7.606 -2.0194  1.0042  0.4501
 6243TIP3   OH240363   5.350   5.629   7.297  0.7941 -0.0435  0.0720
 6243TIP3    H140364   5.273   5.680   7.271  1.6727  0.2161 -2.3336
 6243TIP3    H240365   5.316   5.541   7.312 -0.1785  0.3819  0.4322
 6244TIP3   OH240366   6.229   6.178   1.325  0.1411 -0.2452  0.1651
 6244TIP3    H140367   6.187   6.129   1.254 -1.0065  2.9417 -1.5688
 6244TIP3    H240368   6.304   6.220   1.284  0.2319  0.6043  1.1680
 6245TIP3   OH240369   2.494   2.500   7.690  0.4521 -0.2505 -0.0766
 6245TIP3    H140370   2.492   2.561   7.764 -0.5553 -2.6334  1.9848
 6245TIP3    H240371   2.404   2.498   7.658  0.6523 -0.1008 -0.6815
 6246TIP3   OH240372   4.077   2.415   0.758  0.7731 -0.6417 -0.4944
 6246TIP3    H140373   4.134   2.491   0.754  0.2911 -0.2256  0.3070
 6246TIP3    H240374   4.081   2.377   0.670 -0.4722  1.4128 -1.5119
 6247TIP3   OH240375   0.226   6.736   7.181  0.4629 -0.0354  0.1122
 6247TIP3    H140376   0.222   6.726   7.086 -1.8531 -1.5796  0.2860
 6247TIP3    H240377   0.258   6.825   7.194  2.6022 -0.3751 -2.0354
 6248TIP3   OH240378   2.906   6.687   1.050 -0.2777  0.5001  0.0040
 6248TIP3    H140379   2.962   6.687   0.972 -3.2360 -2.0394 -2.3783
 6248TIP3    H240380   2.963   6.719   1.120  3.2450  0.8026 -2.6925
 6249TIP3   OH240381   3.206   3.199   1.726 -0.1915 -0.7018  0.6844
 6249TIP3    H140382   3.224   3.288   1.695 -1.1908 -1.0022 -0.8506
 6249TIP3    H240383   3.119   3.204   1.766 -1.4935 -1.4946 -1.8671
 6250TIP3   OH240384   0.328   4.548   1.196  0.0741 -0.5714 -0.0659
 6250TIP3    H140385   0.247   4.599   1.188  0.9193  0.7643 -0.5246
 6250TIP3    H240386   0.320   4.505   1.281 -0.3436  0.9834  0.7248
 6251TIP3   OH240387   1.920   3.395   0.037  0.0059  0.2970  0.4500
 6251TIP3    H140388   1.953   3.404  -0.052  3.2204 -0.3946  1.4282
 6251TIP3    H240389   1.875   3.311   0.037  0.7534 -0.1280 -0.3461
 6252TIP3   OH240390   2.216   4.108   2.430 -0.1645 -1.2485 -0.0020
 6252TIP3    H140391   2.266   4.149   2.360 -1.3532 -0.4985 -0.4383
 6252TIP3    H240392   2.230   4.164   2.506 -1.6539 -0.0650 -0.5551
 6253TIP3   OH240393   5.196   0.395   1.645 -0.5050  0.4450 -0.2938
 6253TIP3    H140394   5.194   0.476   1.594  3.7164  1.9392  1.4601
 6253TIP3    H240395   5.142   0.415   1.722  1.5527  2.2755  0.7871
 6254TIP3   OH240396   0.091   0.843   0.779 -0.0713 -0.3319 -0.1023
 6254TIP3    H140397   0.043   0.923   0.759 -0.6568 -0.6731 -0.0776
 6254TIP3    H240398   0.183   0.867   0.768 -0.2508  0.2870 -0.2914
 6255TIP3   OH240399   2.045   0.117   7.368 -0.5970 -0.1297  0.2312
 6255TIP3    H140400   2.060   0.062   7.445 -0.4136 -0.9864 -0.4017
 6255TIP3    H240401   1.957   0.151   7.380 -0.5259 -0.1608  0.8778
 6256TIP3   OH240402   6.432   4.580   7.100  0.3065 -0.7931 -0.5099
 6256TIP3    H140403   6.471   4.662   7.130  3.7872 -2.4942  0.1537
 6256TIP3    H240404   6.388   4.545   7.178 -0.3019 -0.0703 -0.5180
 6257TIP3   OH240405   6.865   3.477   7.960 -0.0584  0.1796  0.4847
 6257TIP3    H140406   6.920   3.556   7.962 -0.8773  0.7797  0.0152
 6257TIP3    H240407   6.841   3.467   7.868 -1.6946  0.6180  0.8432
 6258TIP3   OH240408   6.554   5.592   1.730  0.0876 -0.2340 -0.2572
 6258TIP3    H140409   6.576   5.671   1.780  1.2112  0.3889 -1.6469
 6258TIP3    H240410   6.462   5.602   1.707  0.5527  1.3955 -1.5853
 6259TIP3   OH240411   4.822   6.063   0.664 -0.3513 -0.0407  0.5972
 6259TIP3    H140412   4.840   6.153   0.638 -0.4668 -0.3755 -0.6880
 6259TIP3    H240413   4.727   6.059   0.675 -0.2672  0.2103  1.5819
 6260TIP3   OH240414   6.454   2.178   0.199  0.4514 -0.0681 -0.2152
 6260TIP3    H140415   6.518   2.166   0.270  0.1309  1.6420  0.4057
 6260TIP3    H240416   6.369   2.166   0.241  0.2924 -2.3198 -1.0402
 6261TIP3   OH240417   1.536   3.066   2.006 -0.3671  0.0927  0.2316
 6261TIP3    H140418   1.565   3.008   2.076  0.5954 -1.2190 -1.1989
 6261TIP3    H240419   1.592   3.044   1.932 -1.7839  0.9654 -1.1556
 6262TIP3   OH240420   0.344   1.835   0.830 -0.1266 -0.0068  0.2322
 6262TIP3    H140421   0.320   1.925   0.807 -0.5633  0.0120  0.7416
 6262TIP3    H240422   0.372   1.796   0.747  0.3016  0.6674  0.0471
 6263TIP3   OH240423   2.571   0.423   2.366  0.4588 -0.2281  0.5499
 6263TIP3    H140424   2.541   0.479   2.438 -2.1361 -1.8801  0.8621
 6263TIP3    H240425   2.593   0.340   2.407  1.2379 -0.4478 -0.2858
 6264TIP3   OH240426   5.870   6.307   7.464 -0.6204 -0.1664  0.3207
 6264TIP3    H140427   5.866   6.364   7.388  0.0488 -1.3586 -0.6540
 6264TIP3    H240428   5.792   6.328   7.515 -1.1199  0.6057 -0.7330
 6265TIP3   OH240429   1.843   1.134   1.575 -0.0418  0.1909  0.2485
 6265TIP3    H140430   1.846   1.229   1.569  0.6466  0.2035  0.6291
 6265TIP3    H240431   1.909   1.113   1.642  0.1780 -0.5810 -0.2057
 6266TIP3   OH240432   4.992   3.857   1.068  0.0628 -1.0847 -0.1594
 6266TIP3    H140433   5.070   3.804   1.055  0.0240 -0.9109 -1.2126
 6266TIP3    H240434   4.995   3.883   1.160  2.0404  0.1627 -0.5211
 6267TIP3   OH240435   4.647   3.279   7.346 -0.4166  0.4112 -0.4877
 6267TIP3    H140436   4.562   3.294   7.305 -0.4453  0.3722 -0.4433
 6267TIP3    H240437   4.710   3.322   7.288 -0.6535  2.2673  0.5299
 6268TIP3   OH240438   6.625   1.235   0.153  0.3656  0.4952 -0.2406
 6268TIP3    H140439   6.647   1.142   0.150 -1.2982  0.0753 -0.1664
 6268TIP3    H240440   6.693   1.277   0.101 -0.1161 -1.0291 -2.2255
 6269TIP3   OH240441   4.889   0.416   2.334  0.2689  0.2943  0.3996
 6269TIP3    H140442   4.798   0.398   2.356  0.8259 -2.3349  0.9270
 6269TIP3    H240443   4.889   0.427   2.239 -0.5310 -0.4953  0.2898
 6270TIP3   OH240444   2.130   6.811   1.666  0.9158 -0.7251  0.0923
 6270TIP3    H140445   2.057   6.783   1.721  1.6466 -1.1532  0.8780
 6270TIP3    H240446   2.095   6.882   1.612 -0.4402 -1.8005 -0.4953
 6271TIP3   OH240447   0.583   1.461   1.878  0.3870  0.3647 -0.4246
 6271TIP3    H140448   0.641   1.402   1.925 -0.4963 -0.3167 -0.1617
 6271TIP3    H240449   0.642   1.512   1.822  1.3368  0.4419  0.6091
 6272TIP3   OH240450   6.619   0.786   8.220 -0.2023 -0.5919 -0.2530
 6272TIP3    H140451   6.627   0.796   8.315  0.4166  5.6879 -0.5769
 6272TIP3    H240452   6.525   0.774   8.206 -0.4866 -0.2034  1.1051
 6273TIP3   OH240453   5.823   0.371   6.789  0.1091 -0.4732  0.0122
 6273TIP3    H140454   5.745   0.417   6.758  0.0541 -0.3879  0.2822
 6273TIP3    H240455   5.789   0.298   6.841  0.1861 -1.0513 -0.7301
 6274TIP3   OH240456   2.701   5.517   0.940 -0.2719 -0.5058 -0.0688
 6274TIP3    H140457   2.710   5.513   1.035  1.7268 -0.3637 -0.2051
 6274TIP3    H240458   2.647   5.594   0.924  0.8844  0.5564  0.9165
 6275TIP3   OH240459   4.974   4.270   1.393  0.4267 -0.4293  0.0817
 6275TIP3    H140460   5.033   4.196   1.407 -0.0538 -0.6142  1.2759
 6275TIP3    H240461   4.901   4.233   1.344  1.7152  0.0267 -2.3532
 6276TIP3   OH240462   3.452   1.111   8.299 -0.1891  0.0835  0.3388
 6276TIP3    H140463   3.534   1.114   8.348 -0.8831  1.7601  1.4565
 6276TIP3    H240464   3.408   1.033   8.332  0.7255 -0.5882  0.0397
 6277TIP3   OH240465   0.394   6.467   1.143  0.3203  0.2025 -0.1674
 6277TIP3    H140466   0.464   6.532   1.148  1.6461 -1.2203  0.5544
 6277TIP3    H240467   0.382   6.438   1.234  1.0191 -1.8018 -0.6589
 6278TIP3   OH240468   0.364   5.628   0.793 -0.1955 -0.1597 -0.6282
 6278TIP3    H140469   0.367   5.717   0.756 -1.0564  0.3871  0.5423
 6278TIP3    H240470   0.393   5.572   0.721  0.0002  1.0282 -1.5254
 6279TIP3   OH240471   2.860   5.439   7.020  0.1510 -0.3714 -0.0148
 6279TIP3    H140472   2.917   5.476   7.088  1.7303  0.5354 -1.7125
 6279TIP3    H240473   2.845   5.512   6.960 -1.8326 -0.9428 -0.2661
 6280TIP3   OH240474   6.680   3.857   6.878 -0.4076 -0.3318  0.3040
 6280TIP3    H140475   6.733   3.935   6.866 -0.0415 -0.7282 -0.7669
 6280TIP3    H240476   6.739   3.784   6.857  0.0925 -1.1294  3.9124
 6281TIP3   OH240477   1.470   2.202   2.671  0.2559 -0.4541 -1.0424
 6281TIP3    H140478   1.533   2.274   2.679 -0.9021  0.5063 -0.1925
 6281TIP3    H240479   1.397   2.240   2.622 -0.7076 -0.7991  0.0975
 6282TIP3   OH240480   3.516   4.506   1.133  0.2469  0.0441 -0.2637
 6282TIP3    H140481   3.455   4.500   1.207 -1.2815 -1.6232 -1.5745
 6282TIP3    H240482   3.551   4.418   1.123 -1.1282 -0.3445 -2.6890
 6283TIP3   OH240483   3.518   4.405   0.337  0.0208  0.1877 -0.2280
 6283TIP3    H140484   3.560   4.436   0.256 -2.0912 -0.6768 -1.7497
 6283TIP3    H240485   3.456   4.474   0.360 -2.6874 -1.4426 -2.0599
 6284TIP3   OH240486   5.746   5.265   1.662  0.2558  0.4568 -0.3515
 6284TIP3    H140487   5.779   5.311   1.739 -1.2177 -2.8972  2.6012
 6284TIP3    H240488   5.814   5.202   1.640 -0.7110 -0.9631  0.5485
 6285TIP3   OH240489   5.572   3.081   8.134  0.3480  0.1211  0.0049
 6285TIP3    H140490   5.516   3.011   8.167  0.8893 -0.2548  0.1331
 6285TIP3    H240491   5.511   3.143   8.093 -0.5800  1.3934  2.9926
 6286TIP3   OH240492   4.909   4.950   8.258  0.3866  0.3233  0.0271
 6286TIP3    H140493   4.995   4.991   8.268  1.3481 -1.6476  0.1605
 6286TIP3    H240494   4.927   4.859   8.238 -1.6893 -0.1099 -0.1333
 6287TIP3   OH240495   4.749   5.868   7.624  0.6915 -0.1151  0.0310
 6287TIP3    H140496   4.677   5.871   7.688 -0.9393  0.2573 -1.7049
 6287TIP3    H240497   4.710   5.827   7.547  2.0012  1.1594 -1.3824
 6288TIP3   OH240498   3.507   4.052   2.057 -0.1466 -0.6677  0.4022
 6288TIP3    H140499   3.461   4.087   2.133 -0.0974 -0.8115  0.5003
 6288TIP3    H240500   3.459   3.972   2.034 -0.7317 -0.1302 -0.3035
 6289TIP3   OH240501   0.810   3.130   7.226 -0.5204 -0.0349 -0.1435
 6289TIP3    H140502   0.760   3.138   7.308  0.8657 -1.0161  0.8473
 6289TIP3    H240503   0.891   3.178   7.243 -1.1435  1.7496 -1.8164
 6290TIP3   OH240504   5.538   1.522   1.349  0.3076 -0.6812 -0.5006
 6290TIP3    H140505   5.528   1.494   1.440  0.5631 -0.9262 -0.5454
 6290TIP3    H240506   5.578   1.608   1.355 -0.0516 -0.5191 -0.3726
 6291TIP3   OH240507   0.553   3.818   7.835  0.3899  0.6505  0.2685
 6291TIP3    H140508   0.578   3.760   7.763  1.2406  0.5339  0.6477
 6291TIP3    H240509   0.572   3.906   7.803  2.6202  0.5089  1.0139
 6292TIP3   OH240510   5.017   1.771   7.428  0.1841 -0.1663 -0.4680
 6292TIP3    H140511   4.960   1.693   7.429  0.7959 -0.6186  0.3548
 6292TIP3    H240512   4.973   1.832   7.368 -1.1448 -0.5223  0.1135
 6293TIP3   OH240513   4.474   1.405   2.594 -0.4612  0.0796  0.0296
 6293TIP3    H140514   4.484   1.354   2.514 -0.0159 -0.0865  0.1886
 6293TIP3    H240515   4.497   1.495   2.569  0.0532 -0.0413  0.0578
 6294TIP3   OH240516   0.247   3.147   2.208  0.4582  0.2817  0.0352
 6294TIP3    H140517   0.159   3.128   2.240  0.8603 -2.5867 -0.3396
 6294TIP3    H240518   0.298   3.165   2.287 -0.0721  0.2024  0.4027
 6295TIP3   OH240519   4.248   5.878   0.839  0.4962  0.0857  0.3955
 6295TIP3    H140520   4.270   5.959   0.884 -0.3365  1.5053 -1.6179
 6295TIP3    H240521   4.152   5.871   0.846  0.4540 -0.1648 -0.3342
 6296TIP3   OH240522   0.614   0.886   0.976 -0.1975  1.0621  0.1558
 6296TIP3    H140523   0.602   0.932   0.893  1.1586  1.0079 -0.0850
 6296TIP3    H240524   0.708   0.893   0.995 -0.0522 -1.0372  0.4398
 6297TIP3   OH240525   0.711   5.392   1.412 -0.0676  0.0847 -0.1257
 6297TIP3    H140526   0.668   5.448   1.348 -0.6644  0.3434  0.4866
 6297TIP3    H240527   0.728   5.449   1.487  1.0712 -0.0973 -0.2325
 6298TIP3   OH240528   2.826   1.491   1.051 -0.5028 -0.1047  0.3042
 6298TIP3    H140529   2.894   1.456   0.993 -0.4137 -0.2147  0.4753
 6298TIP3    H240530   2.842   1.449   1.135 -0.9343 -0.3086  0.2822
 6299TIP3   OH240531   4.444   5.702   0.904 -0.0307 -0.5001  0.2100
 6299TIP3    H140532   4.375   5.739   0.849 -1.6109 -3.6116 -0.1331
 6299TIP3    H240533   4.512   5.674   0.843  0.2264 -0.0378  0.2795
 6300TIP3   OH240534   2.262   0.488   1.483  0.1845 -0.3644 -0.2261
 6300TIP3    H140535   2.275   0.394   1.496  0.2790 -0.2881  0.2286
 6300TIP3    H240536   2.200   0.494   1.410 -1.1319 -0.8051  0.8173
 6301TIP3   OH240537   0.854   1.154   6.514 -0.4663  0.5279 -0.4312
 6301TIP3    H140538   0.878   1.069   6.549 -1.2789  0.4758  0.0477
 6301TIP3    H240539   0.936   1.203   6.509 -0.1348  0.0478  0.2228
 6302TIP3   OH240540   1.027   0.989   1.860  0.2458  0.4998  0.1240
 6302TIP3    H140541   0.931   0.988   1.852  0.2991  0.5568 -0.5254
 6302TIP3    H240542   1.046   1.072   1.905  0.1158  1.4873 -1.5495
 6303TIP3   OH240543   0.854   4.782   7.196 -0.3643  0.0548 -0.1767
 6303TIP3    H140544   0.949   4.788   7.204 -0.2348  0.4974 -1.7289
 6303TIP3    H240545   0.824   4.761   7.285  0.9336  2.5335  0.9533
 6304TIP3   OH240546   5.552   4.550   8.615 -0.2405 -0.2714  0.0508
 6304TIP3    H140547   5.504   4.479   8.572  0.2816  0.1351 -1.2472
 6304TIP3    H240548   5.490   4.623   8.619 -1.0007 -0.9589  1.9891
 6305TIP3   OH240549   1.354   1.857   6.878  0.0261  0.0077  0.1460
 6305TIP3    H140550   1.403   1.787   6.922 -2.7732 -1.0446  1.8529
 6305TIP3    H240551   1.415   1.891   6.813  3.0076 -1.1179  2.1299
 6306TIP3   OH240552   1.362   0.188   1.039 -0.4905  0.3273 -0.2558
 6306TIP3    H140553   1.283   0.147   1.003 -1.1726  0.6948  0.7525
 6306TIP3    H240554   1.329   0.259   1.094  0.5130  0.1398  0.6268
 6307TIP3   OH240555   4.602   4.898   1.390  0.4976  0.4090 -0.3536
 6307TIP3    H140556   4.648   4.973   1.352  0.7347  0.3466 -0.1953
 6307TIP3    H240557   4.672   4.834   1.405  0.0981 -0.4744 -2.0005
 6308TIP3   OH240558   6.339   5.808   8.464  0.2630 -0.0804 -0.7676
 6308TIP3    H140559   6.416   5.851   8.500 -0.0823 -0.4545  0.4620
 6308TIP3    H240560   6.273   5.814   8.533 -0.5041 -0.6126 -1.4288
 6309TIP3   OH240561   6.670   1.740   7.351  0.1456 -0.2525 -0.2551
 6309TIP3    H140562   6.735   1.760   7.283  0.3144 -1.5928 -0.4990
 6309TIP3    H240563   6.715   1.679   7.410 -0.1171  0.6213  0.8854
 6310TIP3   OH240564   3.821   4.714   7.496 -0.1226 -0.0541 -0.1566
 6310TIP3    H140565   3.813   4.629   7.453 -0.6651 -0.0002 -0.1684
 6310TIP3    H240566   3.820   4.694   7.590  1.4687 -0.2099 -0.1434
 6311TIP3   OH240567   6.207   2.011   8.316 -0.0227 -0.3515 -0.1488
 6311TIP3    H140568   6.279   2.074   8.316  1.6237 -2.0267  2.2709
 6311TIP3    H240569   6.137   2.053   8.266  1.9261  2.1864 -0.9342
 6312TIP3   OH240570   1.614   5.862   6.861 -0.2889 -0.2989 -0.3583
 6312TIP3    H140571   1.572   5.932   6.810 -0.6443 -1.3915 -1.6160
 6312TIP3    H240572   1.579   5.781   6.824  1.0989 -1.1871  0.1971
 6313TIP3   OH240573   3.187   4.605   8.192  0.0001  0.1727 -0.0641
 6313TIP3    H140574   3.107   4.559   8.167  0.0128  0.7233 -1.1552
 6313TIP3    H240575   3.191   4.594   8.287 -0.8631 -0.6687 -0.1017
 6314TIP3   OH240576   4.203   3.335   1.329  0.0326 -0.3117  0.0315
 6314TIP3    H140577   4.271   3.310   1.391  0.0568  0.6617  0.4097
 6314TIP3    H240578   4.236   3.308   1.243  1.8389  1.9441 -0.0723
 6315TIP3   OH240579   5.318   2.843   0.761 -0.7201  0.1274  0.2978
 6315TIP3    H140580   5.223   2.835   0.761 -0.6831 -0.3846 -0.2007
 6315TIP3    H240581   5.335   2.933   0.787 -1.3888  0.6778 -1.0781
 6316TIP3   OH240582   2.389   1.430   1.139 -0.9789  0.0667 -0.0379
 6316TIP3    H140583   2.472   1.391   1.168 -0.5770  0.4389 -0.6538
 6316TIP3    H240584   2.322   1.382   1.187 -0.3867  0.0015  0.7363
 6317TIP3   OH240585   5.056   3.085   8.355  0.1812 -0.0587 -0.4541
 6317TIP3    H140586   4.995   3.018   8.326  1.2952 -1.3057 -0.0190
 6317TIP3    H240587   5.035   3.097   8.448 -0.2940  0.5142 -0.6319
 6318TIP3   OH240588   5.951   2.871   8.293  0.1474 -0.4081  0.0027
 6318TIP3    H140589   6.004   2.813   8.238 -0.2846 -0.7730 -0.0260
 6318TIP3    H240590   5.912   2.933   8.230  1.4734  0.6241  0.1368
 6319TIP3   OH240591   0.677   1.877   7.312 -0.2084 -0.4467  0.3038
 6319TIP3    H140592   0.711   1.915   7.393  0.6066  1.3008 -0.7841
 6319TIP3    H240593   0.755   1.860   7.259 -0.8163  0.1947 -0.8317
 6320TIP3   OH240594   1.581   4.590   6.919  0.3081 -0.3054 -0.1474
 6320TIP3    H140595   1.653   4.562   6.976  0.3135 -1.3154 -0.6360
 6320TIP3    H240596   1.606   4.679   6.892  0.8924 -0.2776  0.4585
 6321TIP3   OH240597   5.642   2.005   2.056 -0.5453  0.1442 -0.4484
 6321TIP3    H140598   5.679   1.924   2.092  1.2940  0.1931 -2.1014
 6321TIP3    H240599   5.600   1.977   1.975 -2.4681  0.4445  0.3776
 6322TIP3   OH240600   2.872   3.298   0.090 -0.0140  0.3180  0.4663
 6322TIP3    H140601   2.940   3.350   0.133 -0.7237  0.9352  0.8596
 6322TIP3    H240602   2.909   3.278   0.004  0.9539  0.0404  0.9300
 6323TIP3   OH240603   1.049   2.838   0.531  0.0009  0.2253  0.4743
 6323TIP3    H140604   1.112   2.777   0.494 -1.2606 -2.0046  1.7622
 6323TIP3    H240605   1.101   2.897   0.586  1.4083  1.2161 -1.7922
 6324TIP3   OH240606   1.404   2.724   1.641 -0.1107 -0.1511  0.6183
 6324TIP3    H140607   1.436   2.813   1.630 -1.9057  0.3499 -1.0437
 6324TIP3    H240608   1.334   2.715   1.577 -2.1802 -1.6976  2.9169
 6325TIP3   OH240609   6.519   2.067   7.097 -0.3275 -0.1520  0.5744
 6325TIP3    H140610   6.581   2.008   7.138  0.3596 -0.0630 -0.3104
 6325TIP3    H240611   6.568   2.109   7.027 -1.0329  0.8621  0.6619
 6326TIP3   OH240612   3.695   3.838   8.552  0.5269 -1.1565  0.0597
 6326TIP3    H140613   3.725   3.813   8.639  0.5952 -0.1151  0.3415
 6326TIP3    H240614   3.611   3.792   8.542 -0.2826 -0.0399  1.3340
 6327TIP3   OH240615   4.785   1.439   2.085  0.4258  0.2120 -0.1295
 6327TIP3    H140616   4.725   1.481   2.024 -0.8747 -0.2301  0.8041
 6327TIP3    H240617   4.778   1.491   2.166 -1.2962 -1.7337  1.0794
 6328TIP3   OH240618   5.727   3.998   1.357 -0.2154 -0.4332  0.1492
 6328TIP3    H140619   5.820   4.017   1.349  0.2058 -1.4897  1.9104
 6328TIP3    H240620   5.713   3.921   1.302  0.6126 -1.9873  1.9826
 6329TIP3   OH240621   2.802   4.047   8.581  0.2909 -0.1995  0.2861
 6329TIP3    H140622   2.788   4.136   8.614  1.2242 -0.0942  0.4529
 6329TIP3    H240623   2.740   4.038   8.509  0.0026  0.4973  0.4328
 6330TIP3   OH240624   2.190   0.135   1.283  0.2652  0.9953 -0.4750
 6330TIP3    H140625   2.110   0.137   1.335  0.8789 -0.8071  0.6042
 6330TIP3    H240626   2.228   0.222   1.294 -0.3166  1.0931  0.9919
 6331TIP3   OH240627   6.231   3.265   7.077 -0.2320 -0.3487 -0.3487
 6331TIP3    H140628   6.277   3.281   6.995  2.0536 -0.8037  0.7407
 6331TIP3    H240629   6.293   3.214   7.129  0.1573  3.2669  3.2058
 6332TIP3   OH240630   1.688   0.768   7.672  0.0219  0.1216  0.3490
 6332TIP3    H140631   1.783   0.757   7.680 -0.0174 -0.7110 -0.2711
 6332TIP3    H240632   1.672   0.772   7.578 -0.7516 -1.6098  0.3776
 6333TIP3   OH240633   5.307   2.747   1.491 -0.2365 -0.2985  0.4368
 6333TIP3    H140634   5.228   2.760   1.542  0.0430 -0.1198  0.8290
 6333TIP3    H240635   5.363   2.692   1.545  0.9538  1.6521  1.3097
 6334TIP3   OH240636   4.810   2.024   0.279 -0.2547  0.8177  0.6186
 6334TIP3    H140637   4.888   2.044   0.228  0.4061  1.1615  1.7096
 6334TIP3    H240638   4.815   2.083   0.354 -1.6198  0.9030  0.6644
 6335TIP3   OH240639   1.292   5.052   8.503  0.0594 -0.1167 -0.1309
 6335TIP3    H140640   1.307   5.050   8.598 -1.1465 -0.5760  0.0741
 6335TIP3    H240641   1.230   4.980   8.488 -0.3665  0.4548 -1.1571
 6336TIP3   OH240642   6.052   1.148   0.334  0.2053 -0.2285 -0.4289
 6336TIP3    H140643   6.042   1.222   0.393  0.5652  0.2000 -0.9055
 6336TIP3    H240644   6.023   1.072   0.386  2.0526 -0.1058  0.8697
 6337TIP3   OH240645   2.314   4.929   1.473 -0.2689  0.5195 -0.2864
 6337TIP3    H140646   2.305   4.858   1.410 -1.7077  1.2615 -0.9619
 6337TIP3    H240647   2.407   4.928   1.497 -0.0857 -0.9966 -0.9549
 6338TIP3   OH240648   2.833   2.508   8.552 -0.0485  0.1454  0.0477
 6338TIP3    H140649   2.897   2.522   8.622 -0.6649 -0.3850  0.7213
 6338TIP3    H240650   2.750   2.493   8.597 -0.2270 -1.4037 -0.7425
 6339TIP3   OH240651   1.264   4.292   1.890 -0.3180 -0.6119  0.1220
 6339TIP3    H140652   1.294   4.346   1.963  0.8474 -1.2440  0.1247
 6339TIP3    H240653   1.169   4.285   1.903 -0.2704  0.1575  0.9699
 6340TIP3   OH240654   2.847   2.940   2.781  0.3741  0.1654  0.0922
 6340TIP3    H140655   2.889   2.867   2.825 -0.9363 -0.3250  0.5725
 6340TIP3    H240656   2.876   3.017   2.830 -0.7914 -0.3405  1.6525
 6341TIP3   OH240657   3.417   6.196   1.707  0.2838 -0.0188 -0.3992
 6341TIP3    H140658   3.378   6.125   1.758  1.6162  0.1301  0.9004
 6341TIP3    H240659   3.343   6.246   1.675 -0.6387 -1.0777  0.0233
 6342TIP3   OH240660   6.591   0.894   2.128 -0.4560  0.1025  0.2364
 6342TIP3    H140661   6.624   0.888   2.038 -0.4425 -1.6531  0.3197
 6342TIP3    H240662   6.591   0.803   2.159 -1.1122  0.6050  1.7792
 6343TIP3   OH240663   6.784   5.995   6.988 -0.0119 -0.0332  0.2414
 6343TIP3    H140664   6.689   5.988   6.991 -0.0752  0.6929  0.1281
 6343TIP3    H240665   6.811   5.994   7.080 -0.0974 -0.5827  0.2630
 6344TIP3   OH240666   5.908   2.756   0.060  0.3639 -0.5791  0.2631
 6344TIP3    H140667   5.837   2.729   0.002 -0.5028 -0.3879  1.2174
 6344TIP3    H240668   5.962   2.813   0.006  0.1162 -1.1844 -0.6468
 6345TIP3   OH240669   3.298   3.471   1.695  0.8521  0.1742  0.0255
 6345TIP3    H140670   3.376   3.427   1.662  0.6758  1.0301 -1.6652
 6345TIP3    H240671   3.278   3.537   1.628  0.2988  1.8622  1.7665
 6346TIP3   OH240672   5.063   1.551   7.246 -0.3297  0.2414  0.0366
 6346TIP3    H140673   5.062   1.636   7.201 -1.5023  0.4787  0.4905
 6346TIP3    H240674   5.119   1.496   7.191  0.6983  1.3787 -0.1117
 6347TIP3   OH240675   6.532   1.046   7.849 -0.2792 -0.0872  0.2472
 6347TIP3    H140676   6.443   1.061   7.816 -0.2387 -2.0126 -0.8516
 6347TIP3    H240677   6.582   1.020   7.773  0.3296 -2.6434  1.4227
 6348TIP3   OH240678   5.986   0.813   0.937 -0.1273 -0.0126  0.5132
 6348TIP3    H140679   5.985   0.893   0.990  2.2154  1.0013 -0.7734
 6348TIP3    H240680   6.069   0.770   0.960  0.4747 -0.0598 -1.4961
 6349TIP3   OH240681   6.762   6.251   7.322 -0.5121 -0.4651  0.0756
 6349TIP3    H140682   6.705   6.308   7.270  0.4668  0.6700  0.1985
 6349TIP3    H240683   6.811   6.311   7.378  0.6007 -1.4210  0.1608
 6350TIP3   OH240684   4.104   6.503   0.015  0.0740 -0.9742  0.3139
 6350TIP3    H140685   4.051   6.566  -0.033 -1.2138 -2.0517  0.2648
 6350TIP3    H240686   4.189   6.504  -0.028 -0.2431  0.0016 -0.2960
 6351TIP3   OH240687   3.569   3.855   7.304  0.0603 -0.3830  0.3516
 6351TIP3    H140688   3.517   3.817   7.234 -0.9755 -0.1888  0.9903
 6351TIP3    H240689   3.512   3.922   7.343  0.5942 -0.5047  1.3822
 6352TIP3   OH240690   3.131   2.381   7.063 -0.0501 -0.0275 -0.4761
 6352TIP3    H140691   3.061   2.411   7.004  1.3540 -0.0008 -2.2345
 6352TIP3    H240692   3.085   2.349   7.141 -1.9009  1.6034 -0.8210
 6353TIP3   OH240693   1.785   3.778   8.058 -0.5096 -0.5314 -0.5594
 6353TIP3    H140694   1.771   3.784   8.152  0.1507 -0.1307 -0.4852
 6353TIP3    H240695   1.698   3.761   8.022 -0.6466 -1.5222  0.1898
 6354TIP3   OH240696   0.806   0.176   1.937 -0.0659  0.1743 -0.2870
 6354TIP3    H140697   0.761   0.096   1.965 -0.3658  0.1739 -0.7493
 6354TIP3    H240698   0.833   0.218   2.018  2.0540 -1.4816 -0.0581
 6355TIP3   OH240699   1.589   2.419   7.378  0.1268  0.7914  0.1407
 6355TIP3    H140700   1.502   2.446   7.349 -0.2712  0.5537  1.0459
 6355TIP3    H240701   1.593   2.447   7.470  0.3935 -0.5641  0.5762
 6356TIP3   OH240702   0.436   5.874   0.680 -0.0302 -0.3903 -0.2182
 6356TIP3    H140703   0.531   5.880   0.690 -0.1298  1.3462  0.1218
 6356TIP3    H240704   0.420   5.889   0.587 -0.0102  0.3581 -0.1081
 6357TIP3   OH240705   3.937   4.641   1.915  0.1890 -0.8603 -0.1364
 6357TIP3    H140706   4.026   4.670   1.933  0.0017  0.1438 -0.7643
 6357TIP3    H240707   3.900   4.622   2.001  0.7188 -0.4123  0.1961
 6358TIP3   OH240708   2.572   6.752   1.848  0.1196 -0.5771 -0.1761
 6358TIP3    H140709   2.506   6.819   1.830 -0.6912 -1.0781  0.8358
 6358TIP3    H240710   2.638   6.765   1.780 -1.0417 -0.1005 -1.2569
 6359TIP3   OH240711   3.514   5.287   1.610  0.0642 -0.0714  0.1256
 6359TIP3    H140712   3.490   5.227   1.681  0.3575 -0.3723 -0.0258
 6359TIP3    H240713   3.558   5.232   1.546 -0.7942  0.0652 -0.6083
 6360TIP3   OH240714   1.504   1.490   1.351  0.0051 -0.4641  0.2228
 6360TIP3    H140715   1.570   1.421   1.360  0.5986 -0.1916 -1.6591
 6360TIP3    H240716   1.443   1.457   1.284 -0.9620 -0.0775  0.8803
 6361TIP3   OH240717   3.878   3.611   8.319  0.1929  0.1685  0.4909
 6361TIP3    H140718   3.901   3.581   8.407 -0.8029 -0.2465  0.6154
 6361TIP3    H240719   3.947   3.576   8.263  0.2021 -0.5516  0.9436
 6362TIP3   OH240720   6.013   1.379   0.466 -0.3625 -0.2447 -0.1964
 6362TIP3    H140721   6.004   1.474   0.464 -1.5338 -0.2802  1.6124
 6362TIP3    H240722   6.069   1.362   0.541 -0.1214 -0.9975 -0.5347
 6363TIP3   OH240723   2.276   4.061   6.781 -0.5864  0.3948  0.5461
 6363TIP3    H140724   2.281   3.969   6.809  1.1925  0.8422  1.8636
 6363TIP3    H240725   2.185   4.085   6.798 -0.5117 -0.4729  2.4558
 6364TIP3   OH240726   0.458   6.004   7.757  0.2895 -0.2180 -0.2925
 6364TIP3    H140727   0.420   6.078   7.710 -0.1159  0.5710  1.2439
 6364TIP3    H240728   0.462   6.032   7.848  0.5097 -1.9314  0.2629
 6365TIP3   OH240729   3.526   1.470   1.447  0.1216  0.2282  0.0117
 6365TIP3    H140730   3.577   1.463   1.528  0.8761  0.6735 -0.4192
 6365TIP3    H240731   3.479   1.386   1.441  1.1857 -0.3885  0.1596
 6366TIP3   OH240732   3.155   2.005   6.830 -0.0125  0.0234  0.6712
 6366TIP3    H140733   3.129   2.058   6.755 -1.3870 -1.2158  0.2295
 6366TIP3    H240734   3.184   1.922   6.792  2.8747  0.6325  1.2891
 6367TIP3   OH240735   3.820   3.742   0.688  0.0807 -0.0880  0.1307
 6367TIP3    H140736   3.763   3.708   0.758  2.6941 -3.0613  1.0309
 6367TIP3    H240737   3.896   3.777   0.734  0.6397  0.4754 -1.1784
 6368TIP3   OH240738   0.850   4.151   7.356  0.3333 -0.2100 -0.0502
 6368TIP3    H140739   0.844   4.178   7.448  1.7605 -0.9626  0.2946
 6368TIP3    H240740   0.887   4.227   7.311 -1.3173  0.5364 -0.2293
 6369TIP3   OH240741   4.530   3.551   8.633  0.5815  0.5439  0.5339
 6369TIP3    H140742   4.546   3.508   8.717 -0.0454  2.3302  1.6098
 6369TIP3    H240743   4.452   3.509   8.599  0.8796 -0.2468  0.7938
 6370TIP3   OH240744   5.540   3.595   1.589 -0.6298 -0.2803 -0.0893
 6370TIP3    H140745   5.629   3.586   1.555 -1.2725  1.7984 -2.6081
 6370TIP3    H240746   5.550   3.642   1.672  0.6016 -0.1952 -0.2793
 6371TIP3   OH240747   6.785   6.370   6.253 -0.4646  0.5359  0.4728
 6371TIP3    H140748   6.794   6.279   6.225 -0.6890  0.5481  0.3603
 6371TIP3    H240749   6.868   6.390   6.296 -0.8863 -0.1427  1.6787
 6372TIP3   OH240750   6.414   1.427   2.161 -0.0103  0.4882  0.4012
 6372TIP3    H140751   6.411   1.355   2.224 -1.8195 -0.4218 -0.6642
 6372TIP3    H240752   6.413   1.506   2.215  1.2603 -0.2535  1.5652
 6373TIP3   OH240753   5.625   5.763   7.635  0.3321 -0.1565 -0.3331
 6373TIP3    H140754   5.563   5.798   7.571 -1.3175 -0.6171  0.9464
 6373TIP3    H240755   5.587   5.680   7.663  2.0862 -0.9835 -0.2609
 6374TIP3   OH240756   4.827   0.895   2.009  0.1311 -0.2453  0.3008
 6374TIP3    H140757   4.826   0.991   2.013  0.8796 -0.1985 -0.4283
 6374TIP3    H240758   4.736   0.870   1.994 -0.1611  0.3167  1.0724
 6375TIP3   OH240759   4.134   6.768   1.211 -0.5188 -0.4158  0.0189
 6375TIP3    H140760   4.135   6.803   1.300  0.9862  0.9873 -0.4993
 6375TIP3    H240761   4.055   6.807   1.171  0.5354  1.6119 -0.2055
 6376TIP3   OH240762   5.398   0.558   1.318  0.6947  0.4914 -0.6614
 6376TIP3    H140763   5.339   0.620   1.361 -0.4734 -0.7545 -0.4250
 6376TIP3    H240764   5.377   0.567   1.225 -0.2629 -0.3245 -0.5349
 6377TIP3   OH240765   0.542   2.578   7.986 -0.3048 -0.1217 -0.4424
 6377TIP3    H140766   0.582   2.496   7.958  0.1156  0.3429 -1.2322
 6377TIP3    H240767   0.450   2.556   8.000 -0.4802 -0.4446 -1.9384
 6378TIP3   OH240768   3.180   3.520   6.547  0.1331  0.3158 -0.0218
 6378TIP3    H140769   3.192   3.612   6.522 -2.4712  1.3255  1.9000
 6378TIP3    H240770   3.176   3.473   6.464  2.7579  1.6664 -1.0294
 6379TIP3   OH240771   5.795   3.567   8.433  0.6508  0.9057 -0.4282
 6379TIP3    H140772   5.722   3.619   8.466 -0.3958  0.2553 -1.6406
 6379TIP3    H240773   5.794   3.580   8.339  0.4030 -1.2177 -0.7692
 6380TIP3   OH240774   4.094   0.862   0.539 -0.1763  0.0836  0.6596
 6380TIP3    H140775   4.116   0.952   0.518  0.9616 -0.5672 -1.1850
 6380TIP3    H240776   4.001   0.863   0.560 -0.4872  1.4746 -0.6660
 6381TIP3   OH240777   4.890   6.217   0.904  0.3562  0.0905 -0.3870
 6381TIP3    H140778   4.831   6.168   0.962 -1.4286  0.9552 -1.4008
 6381TIP3    H240779   4.863   6.193   0.816 -0.0097  2.2113 -0.8977
 6382TIP3   OH240780   1.773   0.471   1.330  0.2782  0.1364 -0.3430
 6382TIP3    H140781   1.752   0.515   1.248  1.0616 -0.4196 -0.8472
 6382TIP3    H240782   1.690   0.472   1.379 -0.4026 -0.2337 -1.4539
 6383TIP3   OH240783   4.235   4.554   6.846 -0.1501  0.1628 -0.1975
 6383TIP3    H140784   4.210   4.638   6.807  2.3366  0.4056 -1.4949
 6383TIP3    H240785   4.195   4.555   6.933 -1.5547  1.9338 -0.8094
 6384TIP3   OH240786   3.356   5.895   0.555  0.6453  0.2851 -0.3369
 6384TIP3    H140787   3.392   5.898   0.466  0.6928  0.4740 -0.3101
 6384TIP3    H240788   3.433   5.888   0.612  0.5772 -1.5025 -0.3875
 6385TIP3   OH240789   5.383   4.772   2.908  0.7168 -0.1895 -0.3294
 6385TIP3    H140790   5.472   4.799   2.885  0.2493  0.3986 -1.6019
 6385TIP3    H240791   5.329   4.809   2.838 -0.7113  0.7137  1.1684
 6386TIP3   OH240792   1.643   4.685   7.727  0.3864  0.0782  0.1008
 6386TIP3    H140793   1.706   4.739   7.680 -1.1493  2.0404  0.1647
 6386TIP3    H240794   1.697   4.623   7.777  2.0970 -1.2259 -3.1072
 6387TIP3   OH240795   0.601   3.425   8.010  0.2388  0.7691 -0.1462
 6387TIP3    H140796   0.547   3.371   8.068 -0.5980  2.3926  0.6614
 6387TIP3    H240797   0.539   3.487   7.971  1.1102  0.9286 -1.3255
 6388TIP3   OH240798   4.308   5.378   1.221 -0.3311  0.7245  0.3103
 6388TIP3    H140799   4.224   5.402   1.262 -1.4324  0.6827 -1.7844
 6388TIP3    H240800   4.283   5.325   1.145  1.7586 -1.8222  1.2509
 6389TIP3   OH240801   3.876   0.986   0.245 -0.2719  0.0639 -0.6109
 6389TIP3    H140802   3.962   0.959   0.213 -0.7462 -1.3203 -0.8109
 6389TIP3    H240803   3.892   1.022   0.332  0.5262 -0.0398 -0.7087
 6390TIP3   OH240804   0.207   1.766   1.036  0.1127  0.0785 -0.5994
 6390TIP3    H140805   0.249   1.805   0.959 -1.4258  0.3836 -1.3242
 6390TIP3    H240806   0.232   1.674   1.034  2.0302  0.5436 -0.0892
 6391TIP3   OH240807   0.105   5.016   0.613  0.4297  0.5467  0.7619
 6391TIP3    H140808   0.089   5.032   0.520  1.7691 -1.6537  0.0479
 6391TIP3    H240809   0.049   4.941   0.634  1.2056  0.1085  1.3165
 6392TIP3   OH240810   5.862   0.392   7.611 -0.3472 -0.2096 -0.0573
 6392TIP3    H140811   5.857   0.478   7.651 -1.4762 -0.5676  0.6259
 6392TIP3    H240812   5.944   0.355   7.643  1.3812  1.4746 -2.2378
 6393TIP3   OH240813   0.409   4.067   1.973  0.6172 -0.1021  0.3490
 6393TIP3    H140814   0.428   4.156   2.002  0.5352  0.1084 -0.2288
 6393TIP3    H240815   0.421   4.069   1.878 -2.2177  0.0388 -0.0760
 6394TIP3   OH240816   6.013   4.740   1.628  0.3793 -0.5067  0.0982
 6394TIP3    H140817   5.952   4.761   1.557 -0.4374 -0.9202  0.6642
 6394TIP3    H240818   5.967   4.764   1.708  0.1884 -2.5307  0.6594
 6395TIP3   OH240819   3.547   5.780   7.287 -0.2606 -0.0544  0.2632
 6395TIP3    H140820   3.503   5.774   7.202 -0.9874 -0.6912  0.6702
 6395TIP3    H240821   3.494   5.843   7.337  0.6058  0.9144  0.0017
 6396TIP3   OH240822   6.198   6.145   7.095 -0.0003  0.2165 -0.1052
 6396TIP3    H140823   6.287   6.123   7.123 -0.2130  0.6602  0.9814
 6396TIP3    H240824   6.194   6.116   7.004  1.4007  0.5882 -0.3233
 6397TIP3   OH240825   6.380   3.288   0.217 -0.3802 -0.1365  0.0653
 6397TIP3    H140826   6.412   3.266   0.129 -1.0387  0.2260 -0.2701
 6397TIP3    H240827   6.296   3.243   0.224 -0.5508  0.2166  0.3324
 6398TIP3   OH240828   1.421   5.860   1.052  0.2373  0.4476  0.0405
 6398TIP3    H140829   1.505   5.849   1.007 -0.5633  2.6061 -2.2091
 6398TIP3    H240830   1.419   5.953   1.077 -1.6850  0.5798 -0.4573
 6399TIP3   OH240831   4.925   6.242   1.539 -0.3057  0.0724 -0.2770
 6399TIP3    H140832   4.929   6.313   1.603 -2.9187 -3.0548  3.8553
 6399TIP3    H240833   4.838   6.251   1.499 -0.8341 -0.9087  0.5908
 6400TIP3   OH240834   3.788   5.829   8.101  0.1992  0.5501 -0.3426
 6400TIP3    H140835   3.781   5.880   8.021 -0.2430  0.3638 -0.4265
 6400TIP3    H240836   3.708   5.851   8.150 -1.5932 -2.2901 -1.6953
 6401TIP3   OH240837   4.704   4.695   7.960  0.4634 -0.6509 -0.1159
 6401TIP3    H140838   4.698   4.791   7.957  1.4450 -0.5984 -1.1884
 6401TIP3    H240839   4.766   4.673   7.890 -0.6116 -2.1539 -0.6535
 6402TIP3   OH240840   0.286   2.115   0.746 -0.0089 -0.1979  0.3134
 6402TIP3    H140841   0.237   2.153   0.673  1.9299  1.4894 -0.2060
 6402TIP3    H240842   0.220   2.100   0.814 -1.6022 -0.3055 -1.1828
 6403TIP3   OH240843   0.384   4.954   8.174  0.1451  0.3951 -0.0715
 6403TIP3    H140844   0.326   5.029   8.182  0.9453  1.1403 -0.9995
 6403TIP3    H240845   0.455   4.972   8.237 -0.1025 -0.0284  0.3408
 6404TIP3   OH240846   2.867   6.441   8.161  0.3186 -0.4352 -0.2259
 6404TIP3    H140847   2.777   6.414   8.178  1.4761 -3.2695  2.2401
 6404TIP3    H240848   2.890   6.398   8.079 -1.0253  1.9075 -1.9763
 6405TIP3   OH240849   2.292   2.938   7.293 -0.3669  0.5971  0.4468
 6405TIP3    H140850   2.350   2.867   7.322 -1.0440  0.4378  1.4715
 6405TIP3    H240851   2.290   2.929   7.198  1.2027  0.5553  0.3826
 6406TIP3   OH240852   3.209   5.383   0.765 -0.1587  0.1497  0.1779
 6406TIP3    H140853   3.230   5.433   0.686 -0.0933 -1.2799 -0.7457
 6406TIP3    H240854   3.293   5.373   0.810  0.4313 -1.6931 -1.2074
 6407TIP3   OH240855   6.746   5.905   8.318 -0.0776  0.4412 -0.1523
 6407TIP3    H140856   6.697   5.858   8.250  1.1050 -2.8667  1.0459
 6407TIP3    H240857   6.837   5.902   8.287  0.1574  1.0749  0.4682
 6408TIP3   OH240858   2.197   0.729   6.643 -0.1472  0.6551  0.4067
 6408TIP3    H140859   2.234   0.734   6.731 -1.8600 -0.4317  1.2358
 6408TIP3    H240860   2.269   0.697   6.588  0.2971 -0.9632  1.8701
 6409TIP3   OH240861   3.911   0.903   7.310  0.1922 -1.1173  0.1736
 6409TIP3    H140862   3.922   0.993   7.340 -0.2768 -1.2543  0.7922
 6409TIP3    H240863   3.983   0.855   7.350  0.2926 -1.0686  0.0529
 6410TIP3   OH240864   3.821   5.793   1.362  0.1780 -0.3154 -0.2213
 6410TIP3    H140865   3.747   5.795   1.301  1.8010 -1.2251 -2.3382
 6410TIP3    H240866   3.884   5.854   1.325  0.5096  0.5062  1.5924
 6411TIP3   OH240867   5.824   3.574   2.282  0.2524  0.2531 -0.3833
 6411TIP3    H140868   5.859   3.614   2.361  0.7596 -2.4382  0.8912
 6411TIP3    H240869   5.885   3.601   2.213  0.9828  1.0151  0.5265
 6412TIP3   OH240870   3.135   2.157   8.234  0.2591  0.8120 -0.0968
 6412TIP3    H140871   3.213   2.141   8.181  0.2095  2.0452 -0.5769
 6412TIP3    H240872   3.119   2.075   8.280  1.4915  0.3598 -0.4552
 6413TIP3   OH240873   5.829   2.257   1.632  0.1144  0.3570  0.9472
 6413TIP3    H140874   5.880   2.332   1.602  0.2823  0.5851  1.7847
 6413TIP3    H240875   5.800   2.281   1.720 -1.7460  0.3795  0.3626
 6414TIP3   OH240876   4.753   3.160   1.057  0.0009  0.1613  0.3918
 6414TIP3    H140877   4.722   3.126   0.974  2.5034 -1.4515 -0.0042
 6414TIP3    H240878   4.690   3.228   1.081 -1.1276  0.2440 -2.4834
 6415TIP3   OH240879   0.708   6.895   8.514  0.2384 -0.5189  0.0988
 6415TIP3    H140880   0.651   6.867   8.586 -0.3958 -0.4733 -0.3807
 6415TIP3    H240881   0.678   6.846   8.438  1.1490 -0.8401 -0.0626
 6416TIP3   OH240882   1.992   4.855   2.361  0.0922  0.3577  0.4079
 6416TIP3    H140883   2.059   4.924   2.361  0.9317 -0.4031 -1.0973
 6416TIP3    H240884   1.923   4.887   2.303  0.2438  0.1756  0.1203
 6417TIP3   OH240885   3.809   4.207   2.031 -0.3256 -0.0721 -0.1449
 6417TIP3    H140886   3.815   4.288   1.982 -1.2315 -0.8427 -1.5983
 6417TIP3    H240887   3.719   4.205   2.063  0.2502  0.4250  1.6334
 6418TIP3   OH240888   5.337   3.742   0.541 -0.2790 -0.0794  0.1436
 6418TIP3    H140889   5.395   3.666   0.546 -0.8149 -0.5083 -0.1566
 6418TIP3    H240890   5.286   3.738   0.622 -1.1199 -0.7103 -0.3934
 6419TIP3   OH240891   0.920   2.113   1.098 -0.3547 -0.0172  0.0270
 6419TIP3    H140892   0.865   2.073   1.165  0.3547 -1.7033 -0.3362
 6419TIP3    H240893   0.873   2.193   1.073 -0.7304  0.5799  2.3560
 6420TIP3   OH240894   1.358   6.730   6.480  0.2644  0.0785  0.9222
 6420TIP3    H140895   1.353   6.720   6.385  1.0707  0.2717  0.8482
 6420TIP3    H240896   1.267   6.735   6.509  0.0178  0.1937  0.1445
 6421TIP3   OH240897   1.758   1.272   0.999 -0.0003 -0.0011 -0.6059
 6421TIP3    H140898   1.806   1.280   0.917 -0.2297  1.3261 -0.6403
 6421TIP3    H240899   1.822   1.295   1.067  0.5386 -2.3058 -0.2737
 6422TIP3   OH240900   0.526   2.200   0.835  0.1996  0.6893 -0.4204
 6422TIP3    H140901   0.535   2.190   0.929  0.9298  0.0680 -0.5512
 6422TIP3    H240902   0.440   2.163   0.815 -0.0409  1.0027  0.0177
 6423TIP3   OH240903   3.549   6.648   0.064 -0.2322  0.2684  0.7927
 6423TIP3    H140904   3.628   6.700   0.052 -0.2088  0.2785  0.9832
 6423TIP3    H240905   3.492   6.704   0.117 -1.6622  1.6327 -1.9446
 6424TIP3   OH240906   1.457   0.795   1.239  0.3369 -0.1946 -1.0671
 6424TIP3    H140907   1.423   0.882   1.221 -0.8960 -0.1134  1.2991
 6424TIP3    H240908   1.400   0.736   1.190 -0.5407  0.2099 -0.5612
 6425TIP3   OH240909   0.711   3.760   7.175 -0.0986  0.2702  0.5109
 6425TIP3    H140910   0.658   3.736   7.099 -0.2752  1.2970  0.3012
 6425TIP3    H240911   0.750   3.677   7.204 -0.1050 -0.1502 -0.6392
 6426TIP3   OH240912   2.474   1.827   1.667 -0.4764  0.3638  0.1490
 6426TIP3    H140913   2.404   1.850   1.729 -0.0949 -0.4018  0.8796
 6426TIP3    H240914   2.553   1.824   1.721 -0.3406 -1.6233 -0.0743
 6427TIP3   OH240915   4.172   3.625   6.555  0.1031 -0.3132 -0.2285
 6427TIP3    H140916   4.263   3.596   6.549  0.1642 -0.3249  0.7219
 6427TIP3    H240917   4.175   3.717   6.530  0.1105 -0.7297 -1.8879
 6428TIP3   OH240918   4.032   6.883   2.353 -0.0745 -0.4981  0.1643
 6428TIP3    H140919   3.979   6.844   2.422  0.4243 -0.8363  0.3556
 6428TIP3    H240920   4.106   6.922   2.398 -1.1497  1.7541  0.1253
 6429TIP3   OH240921   0.262   5.427   1.803  0.1455 -0.2825  0.1183
 6429TIP3    H140922   0.244   5.468   1.718  0.9052 -0.8748 -0.3384
 6429TIP3    H240923   0.278   5.501   1.862 -2.3942  0.2373  0.2738
 6430TIP3   OH240924   2.915   0.084   0.942  0.5805  0.0286  0.4515
 6430TIP3    H140925   2.944   0.045   0.860  1.0675  0.3367  0.4707
 6430TIP3    H240926   2.911   0.011   1.004 -3.2927 -0.9065 -0.6921
 6431TIP3   OH240927   2.083   6.293   8.614  0.3481  0.0760  0.2084
 6431TIP3    H140928   2.083   6.202   8.645 -0.7387  0.1245  0.3926
 6431TIP3    H240929   2.153   6.335   8.663  0.4044 -0.4995  0.6357
 6432TIP3   OH240930   1.540   3.406   8.137 -0.5886 -0.7453 -0.0561
 6432TIP3    H140931   1.542   3.364   8.051 -0.7244 -1.1823  0.1515
 6432TIP3    H240932   1.513   3.337   8.197 -0.0117 -0.5707  0.4163
 6433TIP3   OH240933   5.051   5.740   1.042 -0.3249 -0.0129  0.2379
 6433TIP3    H140934   5.026   5.651   1.066 -1.3199  0.1921  0.0172
 6433TIP3    H240935   4.976   5.774   0.992  0.3394  0.6957 -0.3165
 6434TIP3   OH240936   1.325   5.046   1.049 -0.2926 -0.8789 -0.3133
 6434TIP3    H140937   1.285   4.970   1.091 -1.0995  0.4474  1.4639
 6434TIP3    H240938   1.287   5.121   1.095  1.0724  0.5826 -1.4634
 6435TIP3   OH240939   3.478   0.642   7.937 -0.5491 -0.2418 -0.5121
 6435TIP3    H140940   3.570   0.663   7.919 -0.6214  0.4220 -0.1219
 6435TIP3    H240941   3.443   0.618   7.851  0.0868 -0.9006 -0.6011
 6436TIP3   OH240942   4.605   0.084   6.790  0.3697  0.0701  0.7815
 6436TIP3    H140943   4.514   0.058   6.805  0.6642 -0.2949  2.0675
 6436TIP3    H240944   4.655   0.032   6.853  1.2493  1.7762  1.5718
 6437TIP3   OH240945   6.780   1.546   2.523  0.2723  0.2160 -0.0661
 6437TIP3    H140946   6.822   1.488   2.586  0.8731 -1.3258 -1.8241
 6437TIP3    H240947   6.689   1.517   2.521  0.0253  0.8900  0.7479
 6438TIP3   OH240948   2.146   0.610   8.435 -0.6049  0.8106  0.1335
 6438TIP3    H140949   2.200   0.675   8.391  3.8549 -2.1255  0.5584
 6438TIP3    H240950   2.146   0.637   8.527 -1.3183  1.7194 -0.1299
 6439TIP3   OH240951   5.644   0.652   2.345 -0.1872  0.2550 -0.2418
 6439TIP3    H140952   5.594   0.591   2.292  1.2282 -0.9669 -0.2265
 6439TIP3    H240953   5.656   0.728   2.288  0.2614 -0.5445 -1.2429
 6440TIP3   OH240954   0.248   3.399   7.548  0.1773  0.5148 -0.5183
 6440TIP3    H140955   0.244   3.312   7.586  1.5368  1.4635  2.0272
 6440TIP3    H240956   0.163   3.410   7.505 -2.5042 -0.0091  4.0047
 6441TIP3   OH240957   2.400   1.579   1.506 -0.1539  0.8004  0.2797
 6441TIP3    H140958   2.428   1.628   1.583 -0.6791  1.7547 -0.1189
 6441TIP3    H240959   2.352   1.642   1.453 -1.3209 -0.2634 -0.0051
 6442TIP3   OH240960   3.625   2.094   7.134  1.0306  0.0607 -0.3400
 6442TIP3    H140961   3.589   2.183   7.132  2.1919  0.5381 -1.2044
 6442TIP3    H240962   3.693   2.094   7.067  1.6966 -1.2188  0.2921
 6443TIP3   OH240963   5.216   2.441   7.255  0.4844  0.1162 -0.3531
 6443TIP3    H140964   5.156   2.515   7.246 -0.7089 -0.7226  0.3606
 6443TIP3    H240965   5.160   2.364   7.245  1.4919 -0.6997  0.1347
 6444TIP3   OH240966   0.445   5.628   0.286  0.2746  0.1638  0.0736
 6444TIP3    H140967   0.355   5.619   0.318  0.4183 -0.7834  0.2364
 6444TIP3    H240968   0.447   5.575   0.206  1.4532 -2.2882  1.6382
 6445TIP3   OH240969   3.968   6.412   2.566 -0.5541  0.4009 -0.3605
 6445TIP3    H140970   3.903   6.368   2.510 -1.2372  1.2142 -0.2399
 6445TIP3    H240971   4.039   6.349   2.575 -0.5694  0.1144 -1.8828
 6446TIP3   OH240972   2.796   4.941   2.191  0.4375 -0.4157  0.3720
 6446TIP3    H140973   2.773   4.941   2.099  0.9532 -3.4543  0.1501
 6446TIP3    H240974   2.798   4.849   2.216 -2.8887  0.2669  4.2728
 6447TIP3   OH240975   6.375   4.066   1.368 -0.6558  0.0740 -0.0890
 6447TIP3    H140976   6.320   4.143   1.355 -0.1857  0.5386  0.6280
 6447TIP3    H240977   6.314   3.992   1.363 -1.5369  0.6321  1.7483
 6448TIP3   OH240978   5.368   0.262   7.548 -0.0809 -0.0119  0.2431
 6448TIP3    H140979   5.342   0.327   7.613 -0.1614  1.8557 -1.5734
 6448TIP3    H240980   5.462   0.251   7.562  0.6012  2.8709 -1.3052
 6449TIP3   OH240981   3.819   3.255   7.610  0.6847 -0.0040 -0.3337
 6449TIP3    H140982   3.763   3.330   7.629  1.3731  0.3083  0.5165
 6449TIP3    H240983   3.835   3.261   7.516 -1.8433 -0.9131 -0.9232
 6450TIP3   OH240984   3.300   5.541   7.469  0.7507  0.2385  0.4442
 6450TIP3    H140985   3.360   5.525   7.397  0.3179 -1.7620  0.4673
 6450TIP3    H240986   3.326   5.626   7.504  2.6333  0.0608 -0.4225
 6451TIP3   OH240987   4.523   1.992   0.675 -0.0858  0.3566 -0.8661
 6451TIP3    H140988   4.499   2.061   0.738 -0.0909  1.2318 -1.8042
 6451TIP3    H240989   4.455   1.997   0.608  0.5702  0.2287 -1.5434
 6452TIP3   OH240990   3.954   0.973   2.078 -0.0259 -0.2326 -0.2442
 6452TIP3    H140991   4.044   0.941   2.078 -0.0751 -0.3740 -0.2014
 6452TIP3    H240992   3.908   0.916   2.140 -0.0752  0.0340 -0.0315
 6453TIP3   OH240993   2.854   0.856   0.446  0.3789  0.1160 -0.0016
 6453TIP3    H140994   2.868   0.847   0.541  0.8562 -0.2175 -0.1006
 6453TIP3    H240995   2.824   0.770   0.418  1.5699 -0.2033 -0.3703
 6454TIP3   OH240996   2.458   6.236   7.040  0.0383  0.6072  0.0568
 6454TIP3    H140997   2.372   6.212   7.075  0.5987 -3.2996 -0.7283
 6454TIP3    H240998   2.519   6.214   7.111  0.6684 -1.3705 -1.0176
 6455TIP3   OH240999   1.802   6.173   1.220  0.1882  0.3276  0.0689
 6455TIP3    H141000   1.897   6.173   1.212  0.4488 -3.0878  1.5654
 6455TIP3    H241001   1.771   6.180   1.130  1.8402  0.7970 -0.5071
 6456TIP3   OH241002   5.676   0.629   1.210  0.5252 -0.2632  0.1246
 6456TIP3    H141003   5.701   0.539   1.232  0.1289 -0.9194 -1.8231
 6456TIP3    H241004   5.596   0.645   1.260 -0.4225 -1.7096 -0.8456
 6457TIP3   OH241005   0.708   1.758   7.881 -0.2292 -0.0744  0.9032
 6457TIP3    H141006   0.792   1.711   7.877  0.2668  0.5440  2.6809
 6457TIP3    H241007   0.728   1.836   7.933 -1.8665  0.1878  1.1758
 6458TIP3   OH241008   4.159   4.713   2.367 -0.5012 -0.5164  0.6040
 6458TIP3    H141009   4.147   4.638   2.308 -1.8612  1.2073 -1.4793
 6458TIP3    H241010   4.251   4.737   2.357 -0.3508 -1.1680  0.3679
 6459TIP3   OH241011   6.106   0.464   0.217  0.0100  0.9061  0.0931
 6459TIP3    H141012   6.182   0.503   0.174 -0.8936  2.1347 -0.4333
 6459TIP3    H241013   6.044   0.535   0.226 -1.2568 -0.1633  0.1385
 6460TIP3   OH241014   2.467   4.336   1.928  0.4195 -0.0892 -0.6445
 6460TIP3    H141015   2.405   4.396   1.888  0.3143 -0.5953 -1.2478
 6460TIP3    H241016   2.418   4.293   1.998  0.3280  0.1010 -0.5915
 6461TIP3   OH241017   4.093   2.233   2.520 -0.7969 -0.3262 -0.3959
 6461TIP3    H141018   4.099   2.267   2.431  1.4153  1.7500  0.4156
 6461TIP3    H241019   4.054   2.305   2.570  1.0648 -0.0749  0.8197
 6462TIP3   OH241020   5.884   3.986   8.221  0.0945 -0.0417 -0.5756
 6462TIP3    H141021   5.918   4.015   8.136 -0.9385  3.1754 -0.0366
 6462TIP3    H241022   5.960   3.983   8.278  0.3385  1.4514 -0.7692
 6463TIP3   OH241023   3.989   0.711   7.641 -0.4268 -0.2395  0.2036
 6463TIP3    H141024   4.041   0.733   7.718 -0.3942  2.6659 -0.5349
 6463TIP3    H241025   4.041   0.743   7.567 -1.7352 -0.4023 -0.8188
 6464TIP3   OH241026   6.190   4.698   0.894 -0.2905  0.0239  0.7859
 6464TIP3    H141027   6.196   4.792   0.905 -1.2247  0.2289 -0.3078
 6464TIP3    H241028   6.271   4.673   0.849 -0.4812  0.4495  0.2030
 6465TIP3   OH241029   1.304   2.741   6.399  0.0022 -0.5393 -0.3088
 6465TIP3    H141030   1.272   2.771   6.484  0.5098 -1.4014  0.2016
 6465TIP3    H241031   1.371   2.676   6.420  0.2052 -0.6926 -1.3713
 6466TIP3   OH241032   0.540   0.387   7.017  0.3817  0.3204  0.0792
 6466TIP3    H141033   0.558   0.427   6.932 -0.1756  0.0093 -0.1888
 6466TIP3    H241034   0.497   0.456   7.068  0.5319  0.4402  0.0470
 6467TIP3   OH241035   5.780   1.654   7.909  0.3364 -0.0812  0.3945
 6467TIP3    H141036   5.769   1.573   7.859  0.3105  0.2251 -0.1078
 6467TIP3    H241037   5.830   1.628   7.986  0.9806 -0.4463 -0.1313
 6468TIP3   OH241038   1.957   4.668   7.687 -0.3320  0.3338  0.4325
 6468TIP3    H141039   1.922   4.757   7.687 -1.5642 -0.0864 -1.4983
 6468TIP3    H241040   2.048   4.679   7.660 -1.0297  0.9132 -1.9692
 6469TIP3   OH241041   5.573   4.737   7.478  0.1880 -0.1261 -0.0374
 6469TIP3    H141042   5.543   4.739   7.387 -0.7504  1.7730  0.2572
 6469TIP3    H241043   5.661   4.773   7.476 -0.1370  0.6864 -0.1223
 6470TIP3   OH241044   3.088   1.354   7.777  0.1926 -0.1653 -0.0373
 6470TIP3    H141045   3.075   1.281   7.717  0.9830  0.0421 -0.4884
 6470TIP3    H241046   3.015   1.349   7.839 -1.3746  0.3493 -1.7445
 6471TIP3   OH241047   5.824   5.817   1.147  0.4167 -0.4757 -0.5701
 6471TIP3    H141048   5.794   5.864   1.069 -0.3737  1.0159  0.5773
 6471TIP3    H241049   5.744   5.795   1.194  0.8571 -1.8450 -0.4211
 6472TIP3   OH241050   5.229   5.555   8.163  0.4658 -0.0289 -0.0655
 6472TIP3    H141051   5.200   5.619   8.097  0.6731 -0.4498 -0.5725
 6472TIP3    H241052   5.149   5.507   8.185 -0.1325  1.6708  1.7915
 6473TIP3   OH241053   1.309   3.836   7.003  0.5335  0.4668 -0.2581
 6473TIP3    H141054   1.347   3.795   7.081  1.3478  0.5917 -0.5788
 6473TIP3    H241055   1.370   3.816   6.933 -0.1668  0.3998 -0.8654
 6474TIP3   OH241056   6.456   3.854   1.702 -0.1270  0.4087  0.6440
 6474TIP3    H141057   6.438   3.761   1.684 -2.1218  0.4787  1.9216
 6474TIP3    H241058   6.481   3.857   1.794  1.5341  0.9984  0.2094
 6475TIP3   OH241059   4.739   5.594   0.887 -0.0211 -0.0893  0.0554
 6475TIP3    H141060   4.805   5.562   0.825 -1.6507 -2.2300 -0.6842
 6475TIP3    H241061   4.767   5.559   0.971 -0.4490 -1.4513 -0.3454
 6476TIP3   OH241062   4.030   2.296   0.534  0.4428 -0.6825 -0.1925
 6476TIP3    H141063   4.077   2.274   0.454  0.8186  0.7262 -0.3845
 6476TIP3    H241064   3.940   2.267   0.519  0.0288  1.2772 -1.9210
 6477TIP3   OH241065   0.542   1.638   0.224  0.0144 -0.5603  0.2418
 6477TIP3    H141066   0.526   1.724   0.262  0.3019 -1.0290  1.4618
 6477TIP3    H241067   0.618   1.650   0.168  1.4109 -0.4653  2.0826
 6478TIP3   OH241068   3.634   0.578   8.557 -0.2104  0.0418 -0.3353
 6478TIP3    H141069   3.674   0.665   8.557 -1.4472  0.6412 -0.7437
 6478TIP3    H241070   3.686   0.528   8.494  0.4670  0.5037 -0.1579
 6479TIP3   OH241071   4.815   1.682   8.555  0.0350  0.4201 -0.4042
 6479TIP3    H141072   4.867   1.754   8.592  0.6619  0.7995 -1.9319
 6479TIP3    H241073   4.762   1.724   8.487  0.5590 -0.5658 -1.4583
 6480TIP3   OH241074   2.383   5.914   1.789 -0.1400 -0.1199 -0.0828
 6480TIP3    H141075   2.456   5.927   1.729  0.5697 -0.4240  0.7030
 6480TIP3    H241076   2.414   5.849   1.852 -0.5880  0.7697  1.0857
 6481TIP3   OH241077   5.237   1.287   0.911  0.0137  0.8102  0.3218
 6481TIP3    H141078   5.276   1.243   0.987 -2.1275 -2.0573 -0.0749
 6481TIP3    H241079   5.152   1.316   0.942 -0.6433  0.1300 -0.7913
 6482TIP3   OH241080   3.532   4.906   7.170 -0.3839 -0.5614 -0.0841
 6482TIP3    H141081   3.528   4.983   7.226  0.3620 -0.2557 -0.4411
 6482TIP3    H241082   3.487   4.932   7.089  0.6534 -0.1987 -0.5487
 6483TIP3   OH241083   2.704   5.312   7.412 -0.3799  0.2597 -0.1937
 6483TIP3    H141084   2.640   5.365   7.459 -0.6894 -0.1246 -0.1776
 6483TIP3    H241085   2.714   5.234   7.465 -1.2545 -0.4938 -1.0972
 6484TIP3   OH241086   1.804   1.361   8.295  0.3639  0.2306  0.3526
 6484TIP3    H141087   1.824   1.394   8.207 -0.7654 -1.7822 -0.7235
 6484TIP3    H241088   1.720   1.400   8.317  0.4528  0.4165  0.3631
 6485TIP3   OH241089   0.102   4.449   7.430  0.2513 -0.4376 -0.1649
 6485TIP3    H141090   0.188   4.470   7.465  0.7343 -1.6599 -0.5896
 6485TIP3    H241091   0.104   4.482   7.340 -0.6884  1.9137  0.5733
 6486TIP3   OH241092   6.633   5.318   7.988 -0.0447  0.8002  0.8844
 6486TIP3    H141093   6.556   5.310   8.045 -0.0852  0.1119  0.7392
 6486TIP3    H241094   6.606   5.277   7.905  0.2706  1.1092  0.6259
 6487TIP3   OH241095   1.758   4.969   0.393 -0.5044 -0.0179  0.1513
 6487TIP3    H141096   1.802   4.885   0.382  1.0373  0.5933  1.2812
 6487TIP3    H241097   1.733   4.994   0.304  0.5453 -0.8776 -0.4206
 6488TIP3   OH241098   2.409   1.332   8.009  0.1340 -0.5608  0.1171
 6488TIP3    H141099   2.404   1.428   8.008  2.1883 -0.3724  1.1778
 6488TIP3    H241100   2.356   1.306   8.084 -0.9979 -0.3405 -0.5795
 6489TIP3   OH241101   6.280   2.589   0.148 -0.5802  0.0262 -0.3240
 6489TIP3    H141102   6.356   2.638   0.179 -1.6284  1.5520 -0.0574
 6489TIP3    H241103   6.239   2.556   0.228 -1.7137  1.5793 -0.2134
 6490TIP3   OH241104   6.550   2.072   2.461 -0.3602 -0.3651 -0.1491
 6490TIP3    H141105   6.580   2.148   2.510 -0.5989 -0.0996 -0.4121
 6490TIP3    H241106   6.485   2.107   2.399 -0.9953 -0.8799  0.2077
 6491TIP3   OH241107   2.894   0.067   8.056  0.0100  0.1965 -0.4303
 6491TIP3    H141108   2.907  -0.023   8.085 -1.4554 -0.8701 -2.8247
 6491TIP3    H241109   2.977   0.089   8.012  0.4914  0.1542  0.4353
 6492TIP3   OH241110   2.278   0.743   1.066  0.2472 -0.0344  0.0119
 6492TIP3    H141111   2.312   0.820   1.111 -0.7996  0.9617 -0.8152
 6492TIP3    H241112   2.183   0.756   1.066 -0.0443 -1.9103  0.8621
 6493TIP3   OH241113   4.873   6.300   1.987 -0.1550  0.3938 -0.6022
 6493TIP3    H141114   4.926   6.255   1.922 -0.1668  1.7871 -1.6351
 6493TIP3    H241115   4.786   6.260   1.981  0.2825 -0.6493 -0.1984
 6494TIP3   OH241116   6.778   1.933   0.952  0.0204 -0.5374  0.0185
 6494TIP3    H141117   6.698   1.973   0.988  0.1746 -0.0526 -0.1618
 6494TIP3    H241118   6.793   1.856   1.006 -0.0457 -0.1168  0.6468
 6495TIP3   OH241119   4.498   3.521   1.189  0.8501 -0.0776 -0.2578
 6495TIP3    H141120   4.538   3.495   1.272  2.1698 -0.5641 -1.0023
 6495TIP3    H241121   4.456   3.605   1.208  1.4992  0.0377  0.8038
 6496TIP3   OH241122   5.435   2.647   7.999  0.1260  0.7035 -0.1883
 6496TIP3    H141123   5.433   2.653   7.904 -2.2222  0.3790 -0.2230
 6496TIP3    H241124   5.495   2.575   8.017  2.5694  2.3502 -1.2453
 6497TIP3   OH241125   3.673   4.596   8.611 -0.3327 -0.2639  0.1460
 6497TIP3    H141126   3.626   4.627   8.533  0.8499  0.0693 -0.4461
 6497TIP3    H241127   3.756   4.643   8.610 -0.3949 -0.0664  1.7575
 6498TIP3   OH241128   5.519   1.810   8.449 -0.0006 -0.1962  0.9335
 6498TIP3    H141129   5.452   1.793   8.383  0.9805  0.8577 -0.3833
 6498TIP3    H241130   5.569   1.728   8.455  1.1366  0.2816 -1.1449
 6499TIP3   OH241131   0.321   4.959   6.845  0.1645 -0.4372 -0.2809
 6499TIP3    H141132   0.260   4.910   6.900 -0.2240  0.1431 -0.1902
 6499TIP3    H241133   0.266   5.020   6.797  0.7975  0.9059  0.6543
 6500TIP3   OH241134   4.982   2.467   8.506 -0.1520  0.2001 -0.0659
 6500TIP3    H141135   5.030   2.442   8.427  1.4003  1.1342  0.5464
 6500TIP3    H241136   5.003   2.559   8.519 -0.0157 -0.0542  1.6903
 6501TIP3   OH241137   3.818   1.883   0.292  0.5005 -0.7061  0.2270
 6501TIP3    H141138   3.910   1.858   0.283  0.6274 -1.0432  1.9567
 6501TIP3    H241139   3.773   1.840   0.220  1.6917 -0.5733 -0.6149
 6502TIP3   OH241140   2.494   1.821   8.427 -0.1360  0.4051 -0.2854
 6502TIP3    H141141   2.448   1.758   8.373  0.9588 -0.1664 -0.5875
 6502TIP3    H241142   2.505   1.777   8.511 -3.3581  1.9228  1.1007
 6503TIP3   OH241143   1.776   6.271   8.542 -0.2386 -0.1315  0.2696
 6503TIP3    H141144   1.801   6.184   8.511 -0.1851 -0.5237  1.3540
 6503TIP3    H241145   1.854   6.304   8.586  0.2739  1.1613 -1.5189
 6504TIP3   OH241146   3.444   5.520   2.232  0.5374  0.1763  1.1252
 6504TIP3    H141147   3.450   5.552   2.142 -1.0377  1.3041  1.3679
 6504TIP3    H241148   3.533   5.524   2.266  1.1550 -0.2630 -0.3631
 6505TIP3   OH241149   0.828   0.423   0.700 -0.0140  0.0289  0.6381
 6505TIP3    H141150   0.833   0.375   0.783 -1.7546  0.4810  1.0460
 6505TIP3    H241151   0.905   0.395   0.651 -0.7628 -3.0006  0.9824
 6506TIP3   OH241152   5.859   4.336   8.545  0.1299  0.5523 -0.0511
 6506TIP3    H141153   5.875   4.273   8.616  0.0035  1.5434  0.8678
 6506TIP3    H241154   5.930   4.319   8.483  0.4354 -0.1059  0.4611
 6507TIP3   OH241155   5.652   0.894   0.490 -0.5392  0.2879  0.6466
 6507TIP3    H141156   5.669   0.809   0.449  0.7811  0.6595  0.3675
 6507TIP3    H241157   5.682   0.884   0.580 -0.3071  0.4700  0.5919
 6508TIP3   OH241158   6.121   4.898   2.206  0.2610 -0.4140  0.1238
 6508TIP3    H141159   6.209   4.882   2.241  0.4327  0.6724  0.2441
 6508TIP3    H241160   6.071   4.819   2.227  1.1894 -1.0113  0.1174
 6509TIP3   OH241161   1.738   3.933   0.475  0.0822 -0.4057  0.1042
 6509TIP3    H141162   1.737   3.840   0.454  0.1486 -0.5635  0.7635
 6509TIP3    H241163   1.715   3.977   0.393 -2.1705 -1.0959  0.2924
 6510TIP3   OH241164   1.683   4.514   8.595  0.4998  0.6882 -0.0991
 6510TIP3    H141165   1.768   4.473   8.580  0.1564 -0.4780  0.9982
 6510TIP3    H241166   1.665   4.499   8.688 -1.4334 -0.1397 -0.5622
 6511TIP3   OH241167   6.811   3.360   1.954  0.1302 -1.2404 -0.0928
 6511TIP3    H141168   6.824   3.273   1.993 -0.9360 -1.2887  0.1796
 6511TIP3    H241169   6.757   3.407   2.018  3.3672  0.8007  1.3913
 6512TIP3   OH241170   6.055   2.900   8.548 -0.6309 -0.0630 -0.0259
 6512TIP3    H141171   6.074   2.886   8.455  0.8549 -0.6219  0.3402
 6512TIP3    H241172   6.074   2.992   8.562 -0.7047 -0.0134 -0.2408
 6513TIP3   OH241173   2.400   6.061   0.572  0.4500  0.0977 -0.2023
 6513TIP3    H141174   2.320   6.025   0.534  0.5708 -0.8392  0.3840
 6513TIP3    H241175   2.459   5.985   0.578  1.4333  0.7911 -0.7508
 6514TIP3   OH241176   1.481   4.184   7.701  0.2215  0.1513  0.3273
 6514TIP3    H141177   1.539   4.166   7.775  0.3090 -1.2839 -0.0636
 6514TIP3    H241178   1.496   4.277   7.680  0.9516  0.2960  1.4380
 6515TIP3   OH241179   4.406   5.413   7.172  0.2368  0.0770 -0.5481
 6515TIP3    H141180   4.390   5.389   7.081 -0.6732  1.9897 -0.9302
 6515TIP3    H241181   4.343   5.482   7.191  1.3275  0.6878  1.1146
 6516TIP3   OH241182   2.698   4.961   1.912  0.1746  0.1227  0.1096
 6516TIP3    H141183   2.637   4.900   1.872  0.2719 -0.4884  0.8546
 6516TIP3    H241184   2.657   5.047   1.903  0.0830 -0.0285 -1.0450
 6517TIP3   OH241185   2.648   4.084   7.015 -0.0016 -0.2076 -0.4513
 6517TIP3    H141186   2.589   4.025   6.969 -1.3732 -0.8154  1.9257
 6517TIP3    H241187   2.596   4.162   7.033 -0.0838 -0.6315  1.4179
 6518TIP3   OH241188   5.612   5.082   7.887 -0.1523  0.0956 -0.4048
 6518TIP3    H141189   5.550   5.141   7.845 -0.5884  0.1347  0.2775
 6518TIP3    H241190   5.587   4.995   7.856  0.1040  0.2078 -0.9316
 6519TIP3   OH241191   0.242   5.391   0.658 -0.0637  0.1849  0.3018
 6519TIP3    H141192   0.229   5.394   0.753  0.2986  1.1240  0.3327
 6519TIP3    H241193   0.190   5.464   0.624  0.2631  0.2142 -0.1525
 6520TIP3   OH241194   1.369   3.983   7.289 -0.4103  0.2054 -0.2803
 6520TIP3    H141195   1.278   4.011   7.279 -0.3202  0.8497  0.5986
 6520TIP3    H241196   1.364   3.893   7.320 -0.7352  0.0825 -0.6792
 6521TIP3   OH241197   3.293   1.791   0.370 -0.8156 -0.0779 -0.0245
 6521TIP3    H141198   3.242   1.827   0.297  0.4006  2.5843  0.3351
 6521TIP3    H241199   3.383   1.820   0.353 -0.3185 -0.3275  1.9691
 6522TIP3   OH241200   1.977   4.624   0.889  0.1153  0.5220  0.7273
 6522TIP3    H141201   1.898   4.639   0.837 -1.4336  0.3613  2.8927
 6522TIP3    H241202   1.984   4.700   0.947  0.4231 -0.3324  1.8698
 6523TIP3   OH241203   0.646   3.907   7.430 -0.0001  0.2884 -0.4510
 6523TIP3    H141204   0.710   3.860   7.377  1.3269  2.1965 -0.6071
 6523TIP3    H241205   0.612   3.975   7.373 -0.0262  1.1188  0.5281
 6524TIP3   OH241206   4.300   2.036   0.210  0.3666 -0.3222  0.1145
 6524TIP3    H141207   4.341   1.984   0.140 -0.1288 -1.7890  0.8903
 6524TIP3    H241208   4.349   2.012   0.289 -1.0004 -0.9559  0.7860
 6525TIP3   OH241209   0.852   2.389   0.382  0.0237  0.2681 -0.3343
 6525TIP3    H141210   0.762   2.369   0.355  0.3217 -1.5019 -0.1270
 6525TIP3    H241211   0.878   2.314   0.435  1.6795  0.6921 -0.4980
 6526TIP3   OH241212   6.392   0.444   8.104 -0.5232  0.3033  0.5360
 6526TIP3    H141213   6.473   0.476   8.144 -1.0378  3.1052 -0.4266
 6526TIP3    H241214   6.420   0.407   8.020 -0.1200  0.2683  0.6841
 6527TIP3   OH241215   1.637   1.871   8.502 -0.3978 -0.1115  0.6495
 6527TIP3    H141216   1.568   1.884   8.567  0.5451 -0.0641  1.6868
 6527TIP3    H241217   1.664   1.780   8.514 -1.2500 -0.5742 -0.7574
 6528TIP3   OH241218   5.384   2.056   8.108  0.2249  0.0762 -0.3683
 6528TIP3    H141219   5.337   2.059   8.025 -0.0256 -1.3608 -0.2927
 6528TIP3    H241220   5.329   2.003   8.165  1.5739 -1.0220 -0.0438
 6529TIP3   OH241221   0.899   5.878   8.050 -0.7427 -0.7394 -0.0037
 6529TIP3    H141222   0.852   5.876   7.966 -1.0718  0.2117  0.1447
 6529TIP3    H241223   0.957   5.801   8.047 -0.8862 -0.8243 -1.0191
 6530TIP3   OH241224   0.427   3.392   1.742  0.0721  0.0439  0.1249
 6530TIP3    H141225   0.495   3.326   1.750  1.1637  1.1377  0.2213
 6530TIP3    H241226   0.451   3.459   1.806 -0.1180  1.2686 -1.0443
 6531TIP3   OH241227   5.554   3.732   1.847 -0.7825 -0.4518  0.3290
 6531TIP3    H141228   5.600   3.815   1.857 -1.5766 -0.0051  0.4179
 6531TIP3    H241229   5.550   3.696   1.935  0.2606 -0.9813  0.1713
 6532TIP3   OH241230   5.621   0.420   7.021 -0.5095  0.2449  0.0270
 6532TIP3    H141231   5.645   0.327   7.019  1.0811  0.6080  0.6904
 6532TIP3    H241232   5.547   0.427   6.961 -0.8958 -1.5156  0.2519
 6533TIP3   OH241233   2.284   3.673   2.504  0.0241 -1.0685  0.3083
 6533TIP3    H141234   2.326   3.625   2.433  2.4374 -0.5365  1.2865
 6533TIP3    H241235   2.318   3.633   2.584  0.8052  1.1515  1.1486
 6534TIP3   OH241236   1.162   5.725   1.044 -0.4679  0.1606 -0.3703
 6534TIP3    H141237   1.242   5.777   1.047 -1.2116  1.3899 -1.1729
 6534TIP3    H241238   1.179   5.659   0.977  0.2172 -0.2217  0.1590
 6535TIP3   OH241239   1.792   6.537   8.156  0.0800 -0.3694 -0.0312
 6535TIP3    H141240   1.831   6.480   8.223 -0.2623  0.3394  0.7821
 6535TIP3    H241241   1.708   6.563   8.193 -1.5072 -2.2891 -1.9513
 6536TIP3   OH241242   5.517   3.427   7.451 -0.4254 -0.0094  0.2343
 6536TIP3    H141243   5.512   3.334   7.431  0.2940  0.4879 -2.7564
 6536TIP3    H241244   5.426   3.457   7.450 -0.5007 -0.1953 -1.8067
 6537TIP3   OH241245   3.026   6.035   2.569 -0.3785 -0.7023 -0.3550
 6537TIP3    H141246   3.109   6.030   2.615 -2.1378 -0.9943  3.0922
 6537TIP3    H241247   2.989   5.947   2.576 -1.7839 -0.1228 -0.1682
 6538TIP3   OH241248   1.012   1.451   0.785  0.5059 -0.3726  0.6998
 6538TIP3    H141249   1.048   1.540   0.782  0.2906 -0.2717  1.0367
 6538TIP3    H241250   0.991   1.430   0.694 -0.2904  0.2674  0.7307
 6539TIP3   OH241251   0.610   4.244   2.026 -0.0805 -0.1734  0.0638
 6539TIP3    H141252   0.557   4.321   2.004 -0.3092 -0.2284  0.4194
 6539TIP3    H241253   0.666   4.231   1.949 -0.7225 -0.2342 -0.4017
 6540TIP3   OH241254   0.561   2.662   0.334 -0.2729  0.2909 -0.0548
 6540TIP3    H141255   0.622   2.698   0.398 -0.8218  0.5467  0.3374
 6540TIP3    H241256   0.475   2.671   0.376 -0.3646 -2.3416  0.4598
 6541TIP3   OH241257   6.101   0.911   0.513  0.0856  0.4707 -0.1359
 6541TIP3    H141258   6.033   0.848   0.536  0.2161  1.2419  2.7074
 6541TIP3    H241259   6.183   0.862   0.519  0.2757  0.9746  2.9957
 6542TIP3   OH241260   3.409   3.284   7.028  0.1016 -0.5667  0.1716
 6542TIP3    H141261   3.440   3.279   7.119 -0.3548  0.1788  0.3750
 6542TIP3    H241262   3.332   3.227   7.026  0.1351 -0.6141  0.2421
 6543TIP3   OH241263   3.445   1.157   0.233  0.2037 -0.0234 -0.7505
 6543TIP3    H141264   3.395   1.235   0.260 -1.5583 -0.9130 -1.2614
 6543TIP3    H241265   3.471   1.116   0.315  0.9341  0.9579 -0.4712
 6544TIP3   OH241266   0.252   1.901   7.042 -0.0214  0.6049 -0.3938
 6544TIP3    H141267   0.316   1.972   7.044  0.4952  0.1248  0.9440
 6544TIP3    H241268   0.280   1.841   7.110 -2.4986  0.9298  1.0640
 6545TIP3   OH241269   2.123   1.384   0.205  0.8818 -0.3882  0.4339
 6545TIP3    H141270   2.172   1.465   0.223  0.3442  0.2650 -0.8897
 6545TIP3    H241271   2.158   1.353   0.122 -0.6198 -0.1239 -0.3371
 6546TIP3   OH241272   2.685   3.880   7.202  0.4798 -0.2320  0.4252
 6546TIP3    H141273   2.611   3.935   7.179 -0.7038 -2.2848 -1.0335
 6546TIP3    H241274   2.723   3.853   7.118 -0.0666 -2.9261  0.9361
 6547TIP3   OH241275   6.411   2.868   8.591 -0.1921  0.3416  0.1126
 6547TIP3    H141276   6.504   2.876   8.572 -0.3852 -0.3710 -1.2538
 6547TIP3    H241277   6.389   2.778   8.565 -1.2675  0.5243  0.3463
 6548TIP3   OH241278   1.601   0.357   8.535  0.8242  0.4025 -0.1091
 6548TIP3    H141279   1.615   0.428   8.471 -1.6498  0.0098 -1.2076
 6548TIP3    H241280   1.530   0.389   8.590 -1.0272 -1.5038 -1.2327
 6549TIP3   OH241281   1.909   1.682   0.067 -1.3319 -0.5077 -0.3431
 6549TIP3    H141282   1.920   1.768   0.109 -3.3901 -0.8802  1.0875
 6549TIP3    H241283   1.998   1.650   0.056 -0.5985  0.3337  2.3028
 6550TIP3   OH241284   1.446   6.685   7.421 -0.2672 -0.0505 -0.0231
 6550TIP3    H141285   1.535   6.705   7.391 -0.2825  0.0848  0.0207
 6550TIP3    H241286   1.396   6.764   7.402 -0.4601 -0.2546 -0.3663
 6551TIP3   OH241287   0.569   5.259   7.799 -0.1974 -0.3259 -0.2503
 6551TIP3    H141288   0.580   5.164   7.802 -0.6617 -0.3593  0.8266
 6551TIP3    H241289   0.541   5.277   7.709 -0.7320 -1.2769 -0.2904
 6552TIP3   OH241290   0.221   0.076   8.187 -0.2596 -0.4212  0.4809
 6552TIP3    H141291   0.208   0.046   8.096 -1.2592 -1.6868  0.9934
 6552TIP3    H241292   0.226  -0.005   8.237 -0.2280  0.2747  1.6235
 6553TIP3   OH241293   1.641   2.827   0.975 -0.1928 -0.0724 -0.0571
 6553TIP3    H141294   1.732   2.851   0.994 -0.9353  1.0929  2.3966
 6553TIP3    H241295   1.593   2.910   0.973 -1.4540 -0.7647  0.1472
 6554TIP3   OH241296   3.700   5.175   0.738  0.6323  0.2385  0.4618
 6554TIP3    H141297   3.743   5.093   0.717  0.0228 -0.5643  2.1800
 6554TIP3    H241298   3.682   5.170   0.832  0.8076  2.4421  0.6705
 6555TIP3   OH241299   3.234   4.238   1.116  0.1870 -0.5297 -0.2699
 6555TIP3    H141300   3.245   4.245   1.210  1.2848 -1.3580 -0.3100
 6555TIP3    H241301   3.225   4.329   1.086 -1.0277 -0.3053  0.6948
 6556TIP3   OH241302   4.635   0.100   0.327 -1.2092 -0.1038 -0.9694
 6556TIP3    H141303   4.694   0.133   0.260 -0.6601 -0.2446 -0.5683
 6556TIP3    H241304   4.553   0.083   0.281 -0.5645 -1.0897 -1.8009
 6557TIP3   OH241305   4.583   3.861   7.995  0.4073 -0.3004 -0.1236
 6557TIP3    H141306   4.606   3.768   7.988  0.0012 -0.3001 -1.9520
 6557TIP3    H241307   4.638   3.894   8.067 -0.4070 -2.2072  1.4851
 6558TIP3   OH241308   5.644   0.036   2.063 -0.0527 -0.2880  0.3775
 6558TIP3    H141309   5.593  -0.028   2.014 -0.3511  1.5762 -1.9282
 6558TIP3    H241310   5.703  -0.016   2.117  0.1072 -2.5047 -1.7963
 6559TIP3   OH241311   5.888   2.113   7.637 -0.5390  0.1474 -0.6258
 6559TIP3    H141312   5.809   2.165   7.622 -2.0156 -1.8560 -0.1127
 6559TIP3    H241313   5.927   2.103   7.550 -0.7107  1.3312 -0.8530
 6560TIP3   OH241314   3.893   6.511   1.061  0.1252  0.2037  0.3481
 6560TIP3    H141315   3.862   6.602   1.062 -0.6648  0.0241 -2.1685
 6560TIP3    H241316   3.813   6.459   1.064  0.5831 -0.4650  1.9844
 6561TIP3   OH241317   2.344   5.429   0.294 -0.1017 -0.3684 -0.4035
 6561TIP3    H141318   2.398   5.506   0.307 -1.8163  0.8070  0.1057
 6561TIP3    H241319   2.377   5.390   0.213  2.5396 -0.6780  0.7163
 6562TIP3   OH241320   4.732   2.471   1.844  0.0570 -0.0545  0.1755
 6562TIP3    H141321   4.716   2.548   1.791 -1.0832 -0.3325  0.0914
 6562TIP3    H241322   4.769   2.407   1.783 -0.3731 -0.0599 -0.0847
 6563TIP3   OH241323   3.301   1.478   0.378 -0.1628  0.2776  0.5936
 6563TIP3    H141324   3.304   1.429   0.460 -2.1521  0.5301  0.8590
 6563TIP3    H241325   3.303   1.570   0.403 -0.5079  0.3565  0.3409
 6564TIP3   OH241326   6.654   0.463   7.576  0.4240 -0.1839  0.4767
 6564TIP3    H141327   6.635   0.448   7.483 -0.0820 -2.2346  0.8701
 6564TIP3    H241328   6.603   0.541   7.598  0.7132  0.4655 -0.9844
 6565TIP3   OH241329   2.725   2.568   8.167  0.3549  0.0401 -0.3513
 6565TIP3    H141330   2.776   2.582   8.247  0.6221 -1.0443 -0.3076
 6565TIP3    H241331   2.788   2.578   8.096  0.6518 -1.2152 -0.3009
 6566TIP3   OH241332   0.729   6.284   0.310 -0.0619  0.2409  0.4393
 6566TIP3    H141333   0.658   6.337   0.272  0.1617 -0.2453 -0.6881
 6566TIP3    H241334   0.779   6.254   0.235  1.3915  0.6185  1.2268
 6567TIP3   OH241335   4.013   2.616   1.264  0.5491  0.8962 -0.1527
 6567TIP3    H141336   4.091   2.644   1.216  0.6507  0.7681 -0.0622
 6567TIP3    H241337   3.942   2.622   1.200  0.8888 -0.4571 -0.6712
 6568TIP3   OH241338   0.092   0.788   6.070  0.0318  0.0318 -0.0034
 6568TIP3    H141339   0.069   0.836   6.150 -0.4552 -2.4302  1.4197
 6568TIP3    H241340   0.027   0.718   6.064  1.1857 -0.9705 -1.5399
 6569TIP3   OH241341   4.810   1.646   1.278  0.2745  0.2045 -0.2394
 6569TIP3    H141342   4.876   1.607   1.220  0.3645  0.7337 -0.5027
 6569TIP3    H241343   4.848   1.640   1.365  0.0212 -0.8434 -0.1996
 6570TIP3   OH241344   4.496   4.855   0.396 -0.1917 -0.7041 -0.4927
 6570TIP3    H141345   4.454   4.891   0.475 -0.6139  1.9595 -1.8165
 6570TIP3    H241346   4.429   4.863   0.328  0.4128 -2.3014 -1.3120
 6571TIP3   OH241347   2.516   4.290   0.561  0.2220  0.0729 -0.0927
 6571TIP3    H141348   2.550   4.367   0.516 -0.6803 -0.5667 -1.9599
 6571TIP3    H241349   2.454   4.326   0.625  2.5435  1.0790  1.7520
 6572TIP3   OH241350   0.750   1.098   1.372 -0.5586  0.3338  0.6182
 6572TIP3    H141351   0.821   1.157   1.396 -0.2228  0.2885 -0.2268
 6572TIP3    H241352   0.691   1.098   1.448 -0.4462  1.5625  0.7138
 6573TIP3   OH241353   1.757   6.721   7.749 -0.2257  0.1984  0.6569
 6573TIP3    H141354   1.807   6.682   7.821  0.9093 -0.0224 -0.2132
 6573TIP3    H241355   1.666   6.713   7.776  0.1511 -0.2571  1.8781
 6574TIP3   OH241356   3.067   4.216   7.734  0.4608 -0.1080  0.0404
 6574TIP3    H141357   3.089   4.233   7.643  2.8711 -2.0888  0.1555
 6574TIP3    H241358   3.021   4.295   7.763  0.4593  0.9443 -2.5884
 6575TIP3   OH241359   1.619   1.981   7.400  0.7219  0.0471  0.0069
 6575TIP3    H141360   1.643   1.890   7.382  2.1572  0.5694 -0.9841
 6575TIP3    H241361   1.564   2.006   7.326 -1.9088 -0.7307  1.5813
 6576TIP3   OH241362   5.696   0.234   1.534 -0.1106  0.2546  0.4313
 6576TIP3    H141363   5.618   0.289   1.536 -1.0677 -0.9982 -0.8538
 6576TIP3    H241364   5.692   0.183   1.614 -0.2202  0.7121  0.7204
 6577TIP3   OH241365   3.989   1.242   7.963 -0.1358 -0.0194 -0.2995
 6577TIP3    H141366   4.048   1.172   7.934 -0.2954 -0.7028  0.9307
 6577TIP3    H241367   3.906   1.222   7.919 -0.5118 -1.3156  0.9225
 6578TIP3   OH241368   1.411   2.666   7.321  0.3615  0.1624  0.3377
 6578TIP3    H141369   1.333   2.621   7.289  0.3690  0.4279 -0.0576
 6578TIP3    H241370   1.472   2.661   7.248  0.8803 -0.4295  0.7954
 6579TIP3   OH241371   5.299   3.399   1.658  0.3255 -0.3989  0.2833
 6579TIP3    H141372   5.274   3.340   1.729  1.4880 -1.3402 -0.0505
 6579TIP3    H241373   5.375   3.447   1.691 -0.1517  0.3816  0.2738
 6580TIP3   OH241374   4.375   4.195   1.542 -0.2952  0.3878  0.0400
 6580TIP3    H141375   4.366   4.215   1.449  0.1607 -1.4586 -0.4520
 6580TIP3    H241376   4.458   4.147   1.549 -0.5337  0.1062  1.3192
 6581TIP3   OH241377   0.344   4.663   7.857  0.0643  0.1274  0.1469
 6581TIP3    H141378   0.331   4.756   7.876 -1.2516  0.0925 -0.5422
 6581TIP3    H241379   0.256   4.627   7.852  0.5660 -1.2667  0.8675
 6582TIP3   OH241380   4.253   1.717   7.754 -0.5314 -0.5810 -0.1316
 6582TIP3    H141381   4.170   1.740   7.713  0.1410  1.0184 -0.6378
 6582TIP3    H241382   4.241   1.626   7.783 -2.8039 -0.0796  0.7022
 6583TIP3   OH241383   4.504   2.758   1.077  0.1495 -0.0328 -0.1545
 6583TIP3    H141384   4.523   2.841   1.033  2.6767 -0.4110  0.1188
 6583TIP3    H241385   4.409   2.747   1.066  0.0267  1.9910 -1.7419
 6584TIP3   OH241386   5.339   2.430   8.604  0.6586  0.0379  0.6369
 6584TIP3    H141387   5.386   2.489   8.663  2.7815 -0.9363  0.0445
 6584TIP3    H241388   5.403   2.362   8.583 -0.6912 -0.7668 -1.1524
 6585TIP3   OH241389   6.281   0.252   0.274 -0.0743 -0.3648  0.0732
 6585TIP3    H141390   6.224   0.326   0.253  0.3518  0.5029  1.7897
 6585TIP3    H241391   6.222   0.176   0.276 -0.8636  0.2365  0.1294
 6586TIP3   OH241392   3.186   3.459   8.310  0.2469 -0.8781 -0.0158
 6586TIP3    H141393   3.168   3.427   8.222  1.5203  0.3893 -0.7761
 6586TIP3    H241394   3.173   3.554   8.305  3.0139 -0.3841  0.3664
 6587TIP3   OH241395   1.627   3.119   0.983 -0.4677 -0.6195 -0.1997
 6587TIP3    H141396   1.594   3.177   1.052 -1.0723 -1.6956  0.4445
 6587TIP3    H241397   1.718   3.103   1.005 -0.3662 -0.1090 -0.2470
 6588TIP3   OH241398   6.138   4.365   6.652 -0.3929 -0.2689  0.0474
 6588TIP3    H141399   6.068   4.302   6.670 -1.6143  1.3438  1.4314
 6588TIP3    H241400   6.211   4.313   6.620 -1.4190 -2.3316  0.8905
 6589TIP3   OH241401   6.754   2.525   0.525  0.4228 -0.6612 -0.7582
 6589TIP3    H141402   6.708   2.603   0.557  0.4205 -1.6397  1.9052
 6589TIP3    H241403   6.834   2.522   0.577  1.3723 -1.4110 -2.2059
 6590TIP3   OH241404   6.137   5.717   6.314  0.8300  0.0352  0.0221
 6590TIP3    H141405   6.096   5.634   6.340  1.3811 -0.1009  0.4878
 6590TIP3    H241406   6.231   5.697   6.311  0.8079  0.0694 -2.0462
 6591TIP3   OH241407   4.549   2.478   7.196 -0.2761 -0.2583 -0.1568
 6591TIP3    H141408   4.557   2.436   7.110 -1.0063 -1.8829  0.5302
 6591TIP3    H241409   4.472   2.437   7.235  1.9629 -2.2049  2.6539
 6592TIP3   OH241410   4.550   5.487   8.123 -0.9498  0.7905 -0.6047
 6592TIP3    H141411   4.500   5.416   8.083 -2.2336  0.8920  0.7504
 6592TIP3    H241412   4.639   5.452   8.132 -1.8565 -1.2580  1.3866
 6593TIP3   OH241413   4.266   2.562   0.590  0.0192  0.1512  0.1812
 6593TIP3    H141414   4.199   2.631   0.593  0.5116  0.6864 -0.6354
 6593TIP3    H241415   4.262   2.529   0.500  0.7611  0.0938  0.1657
 6594TIP3   OH241416   6.823   2.030   8.424  0.2021 -0.2399  0.0733
 6594TIP3    H141417   6.834   1.957   8.363  0.5774 -0.3414  0.2645
 6594TIP3    H241418   6.740   2.012   8.468  0.8796 -1.2076  1.0101
 6595TIP3   OH241419   5.187   5.138   1.967  0.1753 -0.0411  0.3903
 6595TIP3    H141420   5.224   5.227   1.961 -0.7585  0.3012 -0.6333
 6595TIP3    H241421   5.246   5.092   2.027  1.9413  0.6503 -0.7162
 6596TIP3   OH241422   4.946   4.047   8.315  0.0111  0.4312  0.5101
 6596TIP3    H141423   4.915   4.063   8.404  0.8700  0.6657  0.7730
 6596TIP3    H241424   5.037   4.019   8.325  0.5711  1.7908 -0.3559
 6597TIP3   OH241425   0.599   2.544   1.901  0.1773 -0.2236  0.1861
 6597TIP3    H141426   0.577   2.523   1.991 -2.1686 -1.3363 -0.5763
 6597TIP3    H241427   0.670   2.609   1.908 -0.8749  0.7735  2.8315
 6598TIP3   OH241428   0.553   0.849   0.451  0.3118  0.3050  0.0677
 6598TIP3    H141429   0.582   0.853   0.542  0.2817  0.9461  0.0547
 6598TIP3    H241430   0.503   0.930   0.438 -1.0690 -0.5221 -0.0509
 6599TIP3   OH241431   0.271   2.772   8.648  0.2257 -0.4047 -0.5166
 6599TIP3    H141432   0.264   2.862   8.680  0.5469 -0.5048 -0.1470
 6599TIP3    H241433   0.365   2.760   8.631 -0.0085 -0.1488 -2.1271
 6600TIP3   OH241434   2.925   3.623   7.714  0.1158  0.0669  0.0509
 6600TIP3    H141435   2.950   3.674   7.637 -1.8007  1.7425  0.4417
 6600TIP3    H241436   2.876   3.549   7.679  0.6633 -0.0882 -0.4057
 6601TIP3   OH241437   5.446   3.570   0.278  0.5741 -0.0236  0.0480
 6601TIP3    H141438   5.442   3.639   0.211  2.6001  0.2007  0.0923
 6601TIP3    H241439   5.505   3.504   0.241 -1.9482 -2.2227 -0.3528
 6602TIP3   OH241440   2.558   6.253   8.266  0.3901 -0.0219 -0.0327
 6602TIP3    H141441   2.634   6.210   8.228  0.2020 -1.0277  0.6840
 6602TIP3    H241442   2.495   6.259   8.194  1.3016  1.2720 -0.7613
 6603TIP3   OH241443   0.435   2.436   8.380 -0.1149  0.2056 -0.2054
 6603TIP3    H141444   0.362   2.460   8.437  0.8316  1.7329  0.4555
 6603TIP3    H241445   0.505   2.496   8.405  1.1349 -0.7187 -1.3211
 6604TIP3   OH241446   3.755   5.881   1.038 -0.1972  0.0816 -0.3163
 6604TIP3    H141447   3.686   5.869   1.102  1.6024  0.9608  1.9113
 6604TIP3    H241448   3.732   5.821   0.966 -3.4204  0.6689  0.0976
 6605TIP3   OH241449   4.574   0.226   0.728  1.0297 -0.3260  0.4087
 6605TIP3    H141450   4.523   0.269   0.660  0.1601  0.9799  1.8225
 6605TIP3    H241451   4.521   0.233   0.807  1.9749 -1.8498  1.2457
 6606TIP3   OH241452   4.569   4.748   6.917  0.1806  0.7656 -0.0415
 6606TIP3    H141453   4.560   4.652   6.921  3.1581  0.3464 -0.5209
 6606TIP3    H241454   4.600   4.764   6.828  1.1529  1.9898  0.4969
 6607TIP3   OH241455   3.385   1.788   2.410  0.1533  0.0450 -0.0655
 6607TIP3    H141456   3.396   1.869   2.360 -0.2076  0.0583 -0.1291
 6607TIP3    H241457   3.290   1.781   2.424  0.2382 -0.0209  0.5130
 6608TIP3   OH241458   2.280   1.331   8.636  0.0519  0.4756 -0.2016
 6608TIP3    H141459   2.231   1.282   8.570  0.6448  1.2333 -1.2319
 6608TIP3    H241460   2.333   1.393   8.586  1.9253 -0.1708  0.8673
 6609TIP3   OH241461   5.067   2.646   0.756  0.1200  0.3779 -0.1435
 6609TIP3    H141462   5.115   2.599   0.688 -0.0730 -2.0586  1.3194
 6609TIP3    H241463   5.043   2.579   0.820 -1.5315  2.2352  1.3004
 6610TIP3   OH241464   4.595   6.077   2.676 -0.3215  0.1951 -0.1285
 6610TIP3    H141465   4.537   6.124   2.616  1.1555  0.1241 -1.6942
 6610TIP3    H241466   4.681   6.115   2.660  0.3360 -0.7715  0.9922
 6611TIP3   OH241467   6.644   2.407   0.850 -0.3119  0.3903  0.0070
 6611TIP3    H141468   6.570   2.397   0.910  1.9214  1.1159  3.1202
 6611TIP3    H241469   6.653   2.501   0.838  1.3360  0.4916  1.5173
 6612TIP3   OH241470   4.674   3.627   7.856 -0.0431 -0.5445 -0.3260
 6612TIP3    H141471   4.754   3.590   7.817 -1.4029 -3.3457 -0.7199
 6612TIP3    H241472   4.633   3.676   7.785  1.4958  1.4129  0.0305
 6613TIP3   OH241473   1.410   1.518   6.965 -0.3682  0.1717  0.0579
 6613TIP3    H141474   1.407   1.552   6.876 -1.9403 -1.0999 -0.4264
 6613TIP3    H241475   1.400   1.423   6.955 -4.8009  0.2088  1.6357
 6614TIP3   OH241476   6.828   3.512   0.928 -0.5503  0.6300 -0.2074
 6614TIP3    H141477   6.777   3.472   0.998 -1.0639  1.0516 -0.3322
 6614TIP3    H241478   6.918   3.515   0.962 -0.3013 -1.4490 -0.5508
 6615TIP3   OH241479   0.735   4.363   1.041  0.4030 -0.3174  0.3304
 6615TIP3    H141480   0.764   4.447   1.006 -1.3017  0.2003  0.0538
 6615TIP3    H241481   0.816   4.317   1.064  1.3862  2.3469  2.8326
 6616TIP3   OH241482   0.798   5.542   1.614 -0.4160  0.5644 -0.3345
 6616TIP3    H141483   0.833   5.483   1.681 -0.8069 -0.6256 -1.1538
 6616TIP3    H241484   0.848   5.623   1.625  0.2993  0.0056  0.6598
 6617TIP3   OH241485   5.119   0.582   7.257 -0.0911 -0.2559 -0.0789
 6617TIP3    H141486   5.189   0.570   7.193  1.1807  0.3336  1.1487
 6617TIP3    H241487   5.157   0.553   7.340 -2.2418 -2.6621  0.1991
 6618TIP3   OH241488   1.735   3.666   1.625 -0.6501  0.0471 -0.1443
 6618TIP3    H141489   1.825   3.641   1.647 -0.6728  0.0764 -0.0201
 6618TIP3    H241490   1.744   3.755   1.590 -0.4438 -0.4846 -1.4934
 6619TIP3   OH241491   4.903   3.611   0.054 -0.4317  1.2048 -0.1846
 6619TIP3    H141492   4.848   3.619   0.132 -1.3364 -0.6137 -0.5759
 6619TIP3    H241493   4.853   3.656  -0.014  0.3614  2.7985  0.2270
 6620TIP3   OH241494   1.769   1.204   7.983  0.3898 -0.3034  0.3022
 6620TIP3    H141495   1.710   1.279   7.979  1.3914  0.4712 -0.2592
 6620TIP3    H241496   1.739   1.155   8.060 -0.3416  0.6073  0.6210
 6621TIP3   OH241497   5.207   1.205   1.184  0.4005 -0.0691 -0.1300
 6621TIP3    H141498   5.207   1.211   1.280  1.9386 -0.3225 -0.0865
 6621TIP3    H241499   5.290   1.163   1.163  0.2311  0.2879 -1.6051
 6622TIP3   OH241500   4.957   3.421   2.671 -0.0679 -0.2760 -0.1526
 6622TIP3    H141501   4.911   3.504   2.681 -0.8373 -0.8579  1.3350
 6622TIP3    H241502   5.046   3.446   2.647  0.0136  1.0189  1.3866
 6623TIP3   OH241503   1.512   0.884   7.882 -0.5325 -0.5233  0.2065
 6623TIP3    H141504   1.596   0.914   7.847 -0.7406  0.4110  0.4847
 6623TIP3    H241505   1.513   0.789   7.867 -0.2309 -0.2834 -1.4923
 6624TIP3   OH241506   4.692   4.997   7.728  0.5540 -0.8255  0.1891
 6624TIP3    H141507   4.729   4.961   7.647  0.0605 -1.4214  0.2230
 6624TIP3    H241508   4.598   4.996   7.714  0.5230  1.2393 -0.1298
 6625TIP3   OH241509   1.183   6.190   1.916 -0.2871  0.3726  0.1266
 6625TIP3    H141510   1.246   6.179   1.987 -0.2609  2.3511  0.4508
 6625TIP3    H241511   1.110   6.132   1.939  0.2791  0.0300  1.0854
 6626TIP3   OH241512   0.741   3.638   8.434 -0.3355 -0.1195 -0.4729
 6626TIP3    H141513   0.798   3.713   8.414 -0.3349 -0.2535 -1.0030
 6626TIP3    H241514   0.694   3.664   8.512  0.7143 -0.1502  0.1932
 6627TIP3   OH241515   1.905   3.091   6.988  0.6999  0.5836  0.5698
 6627TIP3    H141516   1.960   3.154   6.941  1.0922  0.6259  1.0674
 6627TIP3    H241517   1.845   3.145   7.039  0.5272  0.5418  0.4127
 6628TIP3   OH241518   0.259   6.736   6.898 -0.8099  0.2077 -0.0875
 6628TIP3    H141519   0.353   6.751   6.911 -0.8379  0.8076 -0.5660
 6628TIP3    H241520   0.255   6.670   6.829 -0.7254 -0.8980  0.9131
 6629TIP3   OH241521   5.734   6.625   8.634 -0.0831 -0.5303 -0.1605
 6629TIP3    H141522   5.656   6.577   8.605 -1.4024  1.5509 -0.2878
 6629TIP3    H241523   5.699   6.702   8.678  1.8543  1.7179 -2.2589
 6630TIP3   OH241524   2.265   6.300   1.712 -0.4845 -0.7026 -0.3681
 6630TIP3    H141525   2.347   6.261   1.742  0.5537  1.3657 -0.3134
 6630TIP3    H241526   2.241   6.249   1.634  0.9510 -1.2379 -0.4912
 6631TIP3   OH241527   6.789   6.898   8.297  0.6570  0.0914 -1.3339
 6631TIP3    H141528   6.780   6.970   8.234  0.2309  1.7132  0.4580
 6631TIP3    H241529   6.822   6.941   8.376  0.6831 -1.7750 -0.2925
 6632TIP3   OH241530   1.475   4.611   2.310 -0.1138 -0.5563 -0.2366
 6632TIP3    H141531   1.569   4.592   2.311  0.1787  0.8323  0.0966
 6632TIP3    H241532   1.434   4.531   2.344  1.0521 -0.6218  1.0707
 6633TIP3   OH241533   6.883   0.977   0.446 -0.2251 -0.6194  0.2389
 6633TIP3    H141534   6.797   0.962   0.483 -0.6096 -0.1098 -0.4181
 6633TIP3    H241535   6.915   0.891   0.421 -0.2078 -0.8986  1.1994
 6634TIP3   OH241536   5.260   1.601   1.361  0.2017 -0.0714  0.1685
 6634TIP3    H141537   5.340   1.554   1.335 -0.0667 -0.3448 -0.1736
 6634TIP3    H241538   5.289   1.691   1.377  0.4336  0.0235 -0.7368
 6635TIP3   OH241539   0.094   4.291   7.661  0.0135  0.2334  0.7275
 6635TIP3    H141540   0.081   4.328   7.573 -1.0333  2.5687  1.7856
 6635TIP3    H241541   0.026   4.224   7.669 -0.4986  0.6648  0.0878
 6636TIP3   OH241542   6.301   5.471   1.501 -0.1219 -0.4777 -0.4778
 6636TIP3    H141543   6.262   5.502   1.583 -0.3806  0.1910 -0.8361
 6636TIP3    H241544   6.229   5.428   1.455 -0.3572  0.4193 -0.9735
 6637TIP3   OH241545   1.095   6.740   6.547  0.7311 -0.3393  0.2287
 6637TIP3    H141546   1.094   6.810   6.612  0.3758 -2.0491  2.1792
 6637TIP3    H241547   1.042   6.773   6.475  2.5748  2.3234 -0.0406
 6638TIP3   OH241548   3.858   5.534   6.807 -0.0652 -0.0722  0.1058
 6638TIP3    H141549   3.865   5.456   6.863  1.3230  1.1973  1.8108
 6638TIP3    H241550   3.928   5.523   6.742 -0.4041 -0.6108 -0.1786
 6639TIP3   OH241551   3.472   4.144   7.082 -0.0674  0.3685 -0.6481
 6639TIP3    H141552   3.487   4.237   7.100 -0.3726  0.5473 -1.2940
 6639TIP3    H241553   3.382   4.140   7.048  0.1309 -0.0883 -1.1364
 6640TIP3   OH241554   5.826   1.932   7.057 -0.0746  0.1982  0.2500
 6640TIP3    H141555   5.832   2.027   7.065 -2.4983  0.3588  1.0076
 6640TIP3    H241556   5.800   1.916   6.967 -1.5814  0.4420  0.6074
 6641TIP3   OH241557   0.431   5.939   0.418 -0.0229  0.1110  0.3634
 6641TIP3    H141558   0.406   5.934   0.325 -1.1289  1.2985  0.5701
 6641TIP3    H241559   0.522   5.970   0.417  0.2054 -0.5645 -0.3352
 6642TIP3   OH241560   0.735   6.151   7.751 -0.7160 -0.0666  0.4647
 6642TIP3    H141561   0.710   6.068   7.711 -0.6040  0.2749 -0.3392
 6642TIP3    H241562   0.730   6.215   7.680  1.2495  0.2456  0.5272
 6643TIP3   OH241563   6.337   1.531   0.462 -0.1722  0.1571  0.1885
 6643TIP3    H141564   6.408   1.523   0.399  0.1569  0.2464  0.5442
 6643TIP3    H241565   6.276   1.462   0.439  0.1590 -0.0885  0.0447
 6644TIP3   OH241566   4.169   5.244   1.014  0.0800  0.0555 -0.0039
 6644TIP3    H141567   4.100   5.178   1.013  1.6798 -1.7194 -0.4019
 6644TIP3    H241568   4.242   5.203   0.967  1.5909  1.6059  0.8656
 6645TIP3   OH241569   0.410   1.147   8.290 -0.3077 -0.7121  0.2652
 6645TIP3    H141570   0.481   1.175   8.232 -1.8034  1.6312 -0.5744
 6645TIP3    H241571   0.354   1.093   8.234 -0.2883 -0.8145  0.3439
 6646TIP3   OH241572   2.364   2.989   1.344 -0.1109 -0.3362 -0.1217
 6646TIP3    H141573   2.321   2.909   1.315  0.4319 -1.9211  3.0068
 6646TIP3    H241574   2.443   2.996   1.290 -0.0730 -2.0382 -0.3245
 6647TIP3   OH241575   4.635   6.758   0.123  0.1519 -0.2306  0.0893
 6647TIP3    H141576   4.696   6.741   0.194 -0.0311 -0.0128  0.3004
 6647TIP3    H241577   4.683   6.816   0.063  0.1333 -0.0171  0.2812
 6648TIP3   OH241578   6.090   4.107   8.079  0.5115 -0.1246 -0.2295
 6648TIP3    H141579   6.161   4.157   8.119  0.8306 -1.3021  0.7606
 6648TIP3    H241580   6.134   4.048   8.017  0.1418  0.8059 -1.4013
 6649TIP3   OH241581   4.043   5.385   1.292  0.1099 -0.7883  0.4732
 6649TIP3    H141582   4.033   5.442   1.368  0.0766 -0.2830  0.0954
 6649TIP3    H241583   3.971   5.408   1.234 -0.6095 -2.0597  0.8350
 6650TIP3   OH241584   1.833   0.234   7.601  0.3737  0.2134  0.3266
 6650TIP3    H141585   1.808   0.153   7.555  1.5035 -0.9322  1.6276
 6650TIP3    H241586   1.819   0.214   7.693 -2.9231  2.8418  0.5809
 6651TIP3   OH241587   0.639   2.736   6.965  0.7903 -0.5057 -0.1323
 6651TIP3    H141588   0.560   2.779   6.998  1.0345 -0.5936  0.5988
 6651TIP3    H241589   0.630   2.737   6.870 -0.3509 -0.9955 -0.0446
 6652TIP3   OH241590   0.656   5.925   7.576 -0.6547  0.0436 -0.2241
 6652TIP3    H141591   0.579   5.960   7.620 -0.4868  1.7938 -1.2386
 6652TIP3    H241592   0.690   5.858   7.636 -1.4860  1.0205  1.4033
 6653TIP3   OH241593   5.522   0.203   8.355  0.2634  0.2689  0.2765
 6653TIP3    H141594   5.447   0.253   8.385  1.7605  2.8456  0.0170
 6653TIP3    H241595   5.588   0.214   8.424  2.1885  2.5507 -1.7412
 6654TIP3   OH241596   0.137   2.877   7.246  0.7977 -0.5760 -0.2583
 6654TIP3    H141597   0.171   2.837   7.326  0.1330  0.5623  0.6242
 6654TIP3    H241598   0.099   2.804   7.196  3.1344 -1.6564 -0.5996
 6655TIP3   OH241599   4.359   6.293   1.999 -0.0793 -0.0811 -0.1178
 6655TIP3    H141600   4.290   6.351   2.034 -0.0480  0.6260 -1.1793
 6655TIP3    H241601   4.422   6.286   2.071 -0.2432  0.9556  0.1475
 6656TIP3   OH241602   5.875   3.297   6.577  0.0947 -1.1936 -0.3114
 6656TIP3    H141603   5.860   3.300   6.671  2.6396  0.0089  0.1469
 6656TIP3    H241604   5.796   3.333   6.539 -0.9165 -1.5443  1.3572
 6657TIP3   OH241605   2.071   5.759   1.331  0.4265  0.1769  0.3359
 6657TIP3    H141606   2.122   5.802   1.399  0.0122  0.8579  0.2306
 6657TIP3    H241607   2.040   5.678   1.370 -0.5415  0.9671  1.2744
 6658TIP3   OH241608   4.214   0.094   1.733 -0.8189 -0.2447 -0.3649
 6658TIP3    H141609   4.298   0.086   1.779  0.1490  2.1755 -1.5200
 6658TIP3    H241610   4.233   0.063   1.644 -0.8789  1.0990 -0.8659
 6659TIP3   OH241611   6.407   5.681   0.642  0.3384  0.2563  0.0708
 6659TIP3    H141612   6.432   5.610   0.583 -0.6045 -0.4289  0.4669
 6659TIP3    H241613   6.467   5.753   0.621 -0.1975  0.1651 -1.9492
 6660TIP3   OH241614   5.174   1.532   1.608 -0.1492 -0.1356  0.4031
 6660TIP3    H141615   5.254   1.517   1.659  0.1471  2.2804  0.7512
 6660TIP3    H241616   5.206   1.558   1.522 -0.5746 -0.3082  0.1959
 6661TIP3   OH241617   2.877   1.302   1.676 -0.1467 -0.0842  0.1174
 6661TIP3    H141618   2.935   1.268   1.744 -0.1033 -0.1234  0.0603
 6661TIP3    H241619   2.925   1.290   1.595 -0.3908 -0.4841  0.0244
 6662TIP3   OH241620   5.855   6.331   6.905  0.0471  0.0599 -0.2423
 6662TIP3    H141621   5.769   6.341   6.864 -0.0954 -0.5181 -0.1001
 6662TIP3    H241622   5.855   6.240   6.937  0.6835  0.0792 -0.1846
 6663TIP3   OH241623   1.799   0.260   0.655 -0.0371 -0.5285  0.6521
 6663TIP3    H141624   1.880   0.297   0.690  0.5791  0.0460 -1.2803
 6663TIP3    H241625   1.767   0.203   0.724  1.0963  0.5607  2.1480
 6664TIP3   OH241626   4.992   6.207   8.271  0.2160 -0.1567 -0.2780
 6664TIP3    H141627   4.961   6.129   8.317 -1.9264  1.3534  1.0436
 6664TIP3    H241628   5.075   6.229   8.314 -0.8450  0.1806  1.7513
 6665TIP3   OH241629   0.376   4.393   2.057 -0.4234  0.4355  0.8282
 6665TIP3    H141630   0.400   4.453   2.128 -1.6481  0.6454  1.0764
 6665TIP3    H241631   0.301   4.435   2.015 -0.5524 -0.3548  0.2616
 6666TIP3   OH241632   0.191   2.678   1.012 -0.3743  0.1562  0.4434
 6666TIP3    H141633   0.243   2.748   1.051  0.3917  0.2657 -0.7394
 6666TIP3    H241634   0.255   2.611   0.988 -0.6846  0.5134 -1.4962
 6667TIP3   OH241635   5.359   1.580   2.057 -0.1884 -0.7392 -0.0249
 6667TIP3    H141636   5.283   1.555   2.004  0.6153 -2.1201 -0.5746
 6667TIP3    H241637   5.365   1.511   2.124  0.8695 -0.9270 -0.3006
 6668TIP3   OH241638   1.524   3.251   7.600 -0.5145  0.0283 -0.0469
 6668TIP3    H141639   1.542   3.269   7.692  1.1576  1.4617 -0.5923
 6668TIP3    H241640   1.433   3.221   7.598 -0.4623 -0.4360  2.0970
 6669TIP3   OH241641   1.397   0.354   7.382 -0.3158 -0.1971 -0.0793
 6669TIP3    H141642   1.399   0.424   7.447  0.9623 -2.9972  3.1994
 6669TIP3    H241643   1.304   0.345   7.360 -0.8167  0.8398  1.4158
 6670TIP3   OH241644   4.695   2.711   1.258 -0.4350 -0.2433  0.1836
 6670TIP3    H141645   4.627   2.709   1.191  0.6351 -2.9033 -0.9836
 6670TIP3    H241646   4.735   2.797   1.250 -1.2619  0.0155 -1.6427
 6671TIP3   OH241647   3.095   0.129   2.496  0.0645  0.4874  0.3021
 6671TIP3    H141648   3.145   0.207   2.475 -0.1346  0.4668 -0.2727
 6671TIP3    H241649   3.116   0.110   2.587 -0.9915  2.0451  0.9072
 6672TIP3   OH241650   5.655   4.217   1.678 -0.8672 -0.3638 -0.2620
 6672TIP3    H141651   5.713   4.293   1.670  0.1158 -1.1561 -0.9868
 6672TIP3    H241652   5.714   4.145   1.700 -1.4728 -1.3206 -1.6407
 6673TIP3   OH241653   6.165   5.893   8.650 -0.2516 -0.5311  0.4483
 6673TIP3    H141654   6.173   5.846   8.733  1.5007 -1.0629  0.0228
 6673TIP3    H241655   6.118   5.973   8.672  0.3361 -0.5872  2.0006
 6674TIP3   OH241656   3.201   5.865   1.047  0.3953 -0.2872  0.9716
 6674TIP3    H141657   3.129   5.911   1.005 -0.3473 -0.7810  1.6796
 6674TIP3    H241658   3.260   5.843   0.975  1.7169  3.2614  0.7612
 6675TIP3   OH241659   5.908   0.648   1.861  0.0193 -0.2117 -0.0508
 6675TIP3    H141660   5.929   0.580   1.925 -0.1215 -2.7097 -2.4667
 6675TIP3    H241661   5.827   0.688   1.894  0.7543 -0.2995  2.0527
 6676TIP3   OH241662   2.035   5.513   1.669  0.2058 -0.5545 -0.4240
 6676TIP3    H141663   2.012   5.514   1.576  0.0647 -0.3261 -0.3874
 6676TIP3    H241664   1.987   5.440   1.705 -2.1319  1.1190  0.0715
 6677TIP3   OH241665   2.760   1.508   7.203  0.4753 -0.3733  0.6971
 6677TIP3    H141666   2.766   1.467   7.117  0.5667 -1.4036  1.1903
 6677TIP3    H241667   2.843   1.488   7.246  0.2815 -0.1827  1.1684
 6678TIP3   OH241668   4.838   3.377   8.041 -0.3726 -0.2303 -0.2464
 6678TIP3    H141669   4.861   3.332   7.960 -1.5441  1.0376 -1.3193
 6678TIP3    H241670   4.865   3.468   8.027 -1.4289  0.2054  0.4047
 6679TIP3   OH241671   0.706   3.444   0.947 -0.2202 -0.0628  0.2349
 6679TIP3    H141672   0.784   3.493   0.973 -0.5308  0.1107  0.8396
 6679TIP3    H241673   0.684   3.479   0.860  0.7600 -0.5814 -0.2278
 6680TIP3   OH241674   6.659   3.710   0.796  0.2030 -0.1629  0.6874
 6680TIP3    H141675   6.607   3.652   0.740  2.5757 -0.0954 -1.8328
 6680TIP3    H241676   6.719   3.651   0.842 -0.4628 -0.0402  1.7540
 6681TIP3   OH241677   4.283   4.094   2.487  0.3337 -0.4045  0.1969
 6681TIP3    H141678   4.368   4.062   2.515  0.1156 -0.4020  0.8957
 6681TIP3    H241679   4.246   4.135   2.566 -1.0397 -1.9444  0.4112
 6682TIP3   OH241680   6.793   5.618   8.377  0.0466 -0.2657 -0.2837
 6682TIP3    H141681   6.826   5.687   8.434  1.0811 -1.1456  0.2165
 6682TIP3    H241682   6.854   5.616   8.303  0.4731 -1.1425  0.0812
 6683TIP3   OH241683   1.473   6.843   6.717  0.2719  0.6267  0.0571
 6683TIP3    H141684   1.433   6.813   6.635 -0.8796 -0.8904  1.1235
 6683TIP3    H241685   1.552   6.790   6.726  0.3224  0.6934  0.0132
 6684TIP3   OH241686   6.556   2.104   8.624 -0.0867  0.2205 -0.4234
 6684TIP3    H141687   6.547   2.016   8.588  0.1897 -0.3115  0.7649
 6684TIP3    H241688   6.526   2.096   8.715 -0.5272  1.4638 -0.4361
 6685TIP3   OH241689   4.422   6.474   8.025 -0.2398 -0.3528  0.0044
 6685TIP3    H141690   4.394   6.387   7.996  0.5506 -1.0340  1.1844
 6685TIP3    H241691   4.509   6.460   8.061 -0.0625  0.9623  0.1319
 6686TIP3   OH241692   4.430   6.552   1.337  0.1472 -0.0978 -1.0683
 6686TIP3    H141693   4.501   6.566   1.274  0.7833  0.2402 -0.2903
 6686TIP3    H241694   4.394   6.467   1.314  1.5843 -0.8264 -0.7370
 6687TIP3   OH241695   4.449   4.663   1.929  0.5333 -0.0921 -0.0782
 6687TIP3    H141696   4.419   4.687   1.841 -1.6243 -2.0792  0.0303
 6687TIP3    H241697   4.543   4.683   1.928  1.0332 -1.8418 -3.5235
 6688TIP3   OH241698   2.360   0.533   0.143 -0.4093 -0.1980 -0.4334
 6688TIP3    H141699   2.311   0.611   0.119 -0.9174 -0.9420 -1.9807
 6688TIP3    H241700   2.451   0.555   0.127 -0.3222  0.7901  1.2732
 6689TIP3   OH241701   3.102   2.452   6.739  0.0608 -0.1466  0.7192
 6689TIP3    H141702   3.025   2.408   6.777 -0.3105 -0.3201 -0.2187
 6689TIP3    H241703   3.075   2.543   6.730 -1.0835 -0.6692 -2.1494
 6690TIP3   OH241704   1.127   5.310   1.856 -0.3580  0.4333  0.4453
 6690TIP3    H141705   1.084   5.324   1.940 -0.7775  0.1549  0.2837
 6690TIP3    H241706   1.084   5.372   1.796 -0.6784  0.0085  0.2353
 6691TIP3   OH241707   1.189   3.591   8.128  0.3671 -0.1687  0.0451
 6691TIP3    H141708   1.250   3.607   8.056  0.5344 -1.3702 -0.1072
 6691TIP3    H241709   1.236   3.623   8.206  1.0030 -0.6484 -0.1338
 6692TIP3   OH241710   3.124   2.268   2.286  0.2649 -0.4400 -0.7311
 6692TIP3    H141711   3.181   2.215   2.342 -1.3284  0.5802  2.0201
 6692TIP3    H241712   3.159   2.357   2.294 -0.3822 -0.1767 -0.8126
 6693TIP3   OH241713   4.092   4.479   2.237 -0.0683  0.1559 -0.6475
 6693TIP3    H141714   4.112   4.517   2.151  0.7087 -0.8995 -0.9558
 6693TIP3    H241715   4.002   4.505   2.254 -1.3197 -2.0780 -3.1478
 6694TIP3   OH241716   5.421   6.445   0.512  0.0158 -1.0543 -0.1713
 6694TIP3    H141717   5.411   6.532   0.551 -0.5021 -0.7981 -0.8610
 6694TIP3    H241718   5.332   6.408   0.514  0.1857 -1.4649 -0.1214
 6695TIP3   OH241719   6.447   1.309   6.746  0.1225  0.0733 -0.8621
 6695TIP3    H141720   6.475   1.358   6.669  0.2462 -0.9531 -1.4746
 6695TIP3    H241721   6.401   1.233   6.711 -1.2097  0.4054  0.0987
 6696TIP3   OH241722   2.154   6.315   0.788 -0.1659  0.1843 -0.0005
 6696TIP3    H141723   2.084   6.261   0.827 -2.5414  2.0404 -1.3993
 6696TIP3    H241724   2.189   6.366   0.861 -0.8438 -0.2024  0.6052
 6697TIP3   OH241725   0.744   4.686   7.414 -0.1123 -0.5671 -0.6351
 6697TIP3    H141726   0.695   4.621   7.465 -0.0758 -0.4057 -0.3878
 6697TIP3    H241727   0.776   4.748   7.480  0.1634 -0.5014 -0.8297
 6698TIP3   OH241728   6.740   0.264   1.657 -0.1475  0.5571 -0.7891
 6698TIP3    H141729   6.666   0.210   1.682  0.0971  0.1643 -0.9096
 6698TIP3    H241730   6.706   0.322   1.589 -0.8953  1.8249  0.6130
 6699TIP3   OH241731   0.632   1.447   7.839  0.3313 -0.4005 -0.7562
 6699TIP3    H141732   0.541   1.470   7.821 -0.0023 -1.5601 -0.5991
 6699TIP3    H241733   0.663   1.516   7.898 -1.1197 -1.1566  0.9640
 6700TIP3   OH241734   5.184   3.368   8.015  0.0010 -0.0896 -0.1734
 6700TIP3    H141735   5.195   3.358   8.110  1.6349  0.2972 -0.2795
 6700TIP3    H241736   5.107   3.423   8.005  0.6747  1.1183  0.9988
 6701TIP3   OH241737   4.844   1.440   7.394  0.4087  0.4894 -0.0067
 6701TIP3    H141738   4.915   1.473   7.339  0.6580 -1.6935 -1.0814
 6701TIP3    H241739   4.772   1.502   7.380  1.4048  1.5674 -0.5346
 6702TIP3   OH241740   2.287   5.891   8.150 -0.1664 -0.3092  0.5499
 6702TIP3    H141741   2.305   5.984   8.138 -2.1037 -0.0718 -0.9604
 6702TIP3    H241742   2.298   5.876   8.244 -0.5729  1.6304  0.9411
 6703TIP3   OH241743   2.387   1.677   2.189 -0.1594 -0.5406  0.3110
 6703TIP3    H141744   2.452   1.742   2.215  0.7586 -0.8488 -1.1075
 6703TIP3    H241745   2.356   1.640   2.272  1.2101 -0.1358  1.0383
 6704TIP3   OH241746   1.734   1.985   6.711 -0.1395  0.2006  0.0548
 6704TIP3    H141747   1.666   1.919   6.695 -0.8012  0.7121  0.6622
 6704TIP3    H241748   1.791   1.945   6.777 -1.4803  0.8420  1.6650
 6705TIP3   OH241749   6.702   1.898   6.937 -0.2128  0.3401  0.3143
 6705TIP3    H141750   6.645   1.830   6.901  0.1890  0.0745  0.1860
 6705TIP3    H241751   6.709   1.964   6.867  0.1156  0.0905  0.1107
 6706TIP3   OH241752   2.516   4.404   6.416  0.3584 -0.1246 -0.4980
 6706TIP3    H141753   2.605   4.390   6.384  0.1203  0.1757 -1.3288
 6706TIP3    H241754   2.516   4.495   6.447  0.8701 -0.7140  1.3752
 6707TIP3   OH241755   5.258   5.135   7.426  0.8157  0.9659 -0.0673
 6707TIP3    H141756   5.198   5.104   7.494 -0.5723 -0.3420 -1.7832
 6707TIP3    H241757   5.345   5.113   7.458  0.1466 -0.3291  0.9497
 6708TIP3   OH241758   1.179   1.866   0.622 -0.4449 -0.0134  0.3259
 6708TIP3    H141759   1.134   1.863   0.707 -2.9767  1.9830 -0.8063
 6708TIP3    H241760   1.117   1.826   0.561  0.0984  1.1319 -1.0197
 6709TIP3   OH241761   2.524   1.516   7.534  0.3124 -0.0553  0.0474
 6709TIP3    H141762   2.518   1.556   7.448  1.2496  0.6005  0.2646
 6709TIP3    H241763   2.580   1.439   7.521  2.8634  1.6015  0.5320
 6710TIP3   OH241764   6.630   4.954   1.401  0.6290 -0.0540 -0.1559
 6710TIP3    H141765   6.573   5.009   1.347  1.1239  0.3516 -0.2740
 6710TIP3    H241766   6.662   5.013   1.469  1.2557 -0.1704 -0.3505
 6711TIP3   OH241767   2.629   6.318   7.835 -0.0854 -0.4271  0.1072
 6711TIP3    H141768   2.561   6.349   7.894 -2.0131 -0.3722 -2.0357
 6711TIP3    H241769   2.711   6.347   7.876 -1.3459  0.1017  2.4129
 6712TIP3   OH241770   5.784   1.337   1.557  0.5445  0.6011 -0.3708
 6712TIP3    H141771   5.769   1.259   1.503 -1.4744 -0.8378  2.0327
 6712TIP3    H241772   5.878   1.337   1.573  0.5093 -1.9319  0.2732
 6713TIP3   OH241773   1.254   0.580   1.735 -0.1155  0.6187  0.3942
 6713TIP3    H141774   1.243   0.488   1.761 -1.0274  0.3130 -0.9794
 6713TIP3    H241775   1.348   0.596   1.743  0.2461 -0.8357 -0.5359
 6714TIP3   OH241776   3.506   0.355   2.636  0.0747  0.0612  0.0313
 6714TIP3    H141777   3.566   0.404   2.579 -0.5326 -0.0534 -0.7307
 6714TIP3    H241778   3.470   0.287   2.579 -1.2398  0.5128  0.2968
 6715TIP3   OH241779   1.124   2.197   8.048  0.5876 -0.4989 -0.3211
 6715TIP3    H141780   1.217   2.209   8.028  0.2858 -0.0685 -1.5470
 6715TIP3    H241781   1.080   2.209   7.964 -0.4007 -2.9183 -0.2123
 6716TIP3   OH241782   4.099   2.230   0.286  0.2794  0.7303 -0.0351
 6716TIP3    H141783   4.033   2.205   0.221  0.0389 -0.4122  0.6126
 6716TIP3    H241784   4.176   2.178   0.265 -0.5838 -1.5851  1.9906
 6717TIP3   OH241785   3.135   0.625   1.161 -0.2194 -0.5317  0.1654
 6717TIP3    H141786   3.212   0.569   1.154 -1.3828 -2.2976  0.9026
 6717TIP3    H241787   3.097   0.604   1.246 -1.6899  0.0795 -0.3032
 6718TIP3   OH241788   5.277   1.445   8.408  0.1325 -0.1385 -0.3635
 6718TIP3    H141789   5.353   1.480   8.362  1.0296 -2.0888 -0.4634
 6718TIP3    H241790   5.216   1.519   8.413  0.8167  0.7017 -2.8882
 6719TIP3   OH241791   3.296   0.303   8.403 -0.2754  0.5120 -0.1745
 6719TIP3    H141792   3.377   0.291   8.354  0.5307 -0.0405  1.2556
 6719TIP3    H241793   3.284   0.398   8.408  1.2748  0.6751  1.1424
 6720TIP3   OH241794   4.320   1.322   0.385 -0.1693  0.2572  0.1830
 6720TIP3    H141795   4.389   1.381   0.354  0.0379  0.2877  0.6960
 6720TIP3    H241796   4.239   1.372   0.375 -0.4321 -0.5417 -2.5064
 6721TIP3   OH241797   5.797   3.582   1.474  0.3197 -0.3297 -0.1300
 6721TIP3    H141798   5.877   3.634   1.460 -1.4128  1.7940 -3.6916
 6721TIP3    H241799   5.800   3.515   1.406 -1.2185  0.2339 -0.7887
 6722TIP3   OH241800   5.707   2.299   1.903  0.1965 -0.0714 -0.2802
 6722TIP3    H141801   5.629   2.259   1.863  0.3030  0.6458 -1.2379
 6722TIP3    H241802   5.672   2.356   1.972 -0.0724 -0.3501 -0.1826
 6723TIP3   OH241803   2.052   0.560   0.542  0.1738 -0.0972  0.3250
 6723TIP3    H141804   2.125   0.537   0.485 -0.5247 -0.5227 -0.4165
 6723TIP3    H241805   2.034   0.479   0.591 -0.9064 -0.5519 -0.7555
 6724TIP3   OH241806   5.896   2.941   1.087 -0.0749  0.7268 -0.3177
 6724TIP3    H141807   5.917   3.033   1.071 -1.2636  1.0995  0.1651
 6724TIP3    H241808   5.923   2.896   1.006  1.3447  1.3434 -0.2095
 6725TIP3   OH241809   0.024   2.993   8.098 -0.3959 -0.2002  0.4532
 6725TIP3    H141810  -0.037   2.919   8.099 -0.0113 -0.6342 -2.2833
 6725TIP3    H241811  -0.032   3.070   8.086 -0.4951 -0.6379 -2.5106
 6726TIP3   OH241812   4.020   4.525   7.929 -0.3835 -1.1327 -0.2524
 6726TIP3    H141813   4.073   4.498   8.004  0.3355 -0.2196 -0.4265
 6726TIP3    H241814   3.958   4.452   7.916  0.2617 -1.8224  0.4790
 6727TIP3   OH241815   6.224   2.490   0.399 -0.2496 -0.9286  1.1470
 6727TIP3    H141816   6.192   2.525   0.482  0.6997  0.3816  0.9772
 6727TIP3    H241817   6.292   2.427   0.425  0.3125 -0.2427  1.3565
 6728TIP3   OH241818   4.220   3.034   7.603 -0.4567 -0.2809  0.0247
 6728TIP3    H141819   4.141   3.043   7.656 -0.8799 -0.9220 -0.4776
 6728TIP3    H241820   4.215   3.107   7.541  0.6676  1.2108  1.6112
 6729TIP3   OH241821   2.299   1.171   7.829  0.1269 -0.4655 -0.0789
 6729TIP3    H141822   2.360   1.229   7.875  1.4946 -1.0219 -1.1030
 6729TIP3    H241823   2.221   1.169   7.884 -0.1348  2.5966 -0.1612
 6730TIP3   OH241824   5.900   2.166   1.373 -0.1085 -0.3043 -0.3424
 6730TIP3    H141825   5.990   2.186   1.401 -0.3803  3.1312 -1.4386
 6730TIP3    H241826   5.845   2.203   1.442 -0.7231 -0.9900 -0.4521
 6731TIP3   OH241827   4.551   6.800   8.013 -0.3037 -0.1665  0.1556
 6731TIP3    H141828   4.610   6.869   8.043 -0.0012 -0.2679 -0.1977
 6731TIP3    H241829   4.608   6.735   7.973 -0.6510 -0.2812 -0.1628
 6732TIP3   OH241830   6.429   3.278   0.495  0.7192  0.0385  0.3396
 6732TIP3    H141831   6.343   3.305   0.529  1.1449  0.1773  1.3389
 6732TIP3    H241832   6.409   3.238   0.410 -0.1713  1.4515 -0.1568
 6733TIP3   OH241833   6.068   5.827   8.165 -0.5710  0.7309 -0.1730
 6733TIP3    H141834   6.082   5.778   8.084  0.6495  1.5598 -0.4982
 6733TIP3    H241835   6.073   5.761   8.234 -0.7875  0.1383 -0.7140
 6734TIP3   OH241836   3.638   5.421   2.431  0.4856 -0.2274  0.1780
 6734TIP3    H141837   3.731   5.432   2.451  0.6063 -1.2152  0.2488
 6734TIP3    H241838   3.597   5.407   2.517 -0.0410  2.0340  0.3475
 6735TIP3   OH241839   4.171   0.667   1.432 -0.2133 -0.3765  0.2758
 6735TIP3    H141840   4.217   0.583   1.426 -0.9056 -0.6620 -1.5940
 6735TIP3    H241841   4.083   0.644   1.461 -1.0720 -0.6210 -2.2846
 6736TIP3   OH241842   4.819   2.109   7.139 -0.1250  0.2819 -0.0720
 6736TIP3    H141843   4.850   2.065   7.060  0.4313  1.9940 -0.8558
 6736TIP3    H241844   4.732   2.142   7.115 -0.4829 -0.2688  0.4596
 6737TIP3   OH241845   0.234   1.134   6.117  0.3466 -0.0061 -0.3056
 6737TIP3    H141846   0.152   1.116   6.163  1.4789 -1.0302  1.4258
 6737TIP3    H241847   0.255   1.225   6.142  0.1679 -0.0377 -0.0291
 6738TIP3   OH241848   5.499   4.857   0.467 -0.2390  0.1729 -0.2104
 6738TIP3    H141849   5.560   4.861   0.541  3.0455  0.9368 -2.6852
 6738TIP3    H241850   5.464   4.946   0.461  1.0135  0.6695 -0.6422
 6739TIP3   OH241851   2.654   1.299   7.419  0.2701 -0.5084 -0.1169
 6739TIP3    H141852   2.745   1.270   7.414  0.2613 -0.3704 -1.6385
 6739TIP3    H241853   2.626   1.307   7.327 -0.5748  1.5939  0.2526
 6740TIP3   OH241854   5.823   1.919   2.454  0.1076  0.0198  0.1455
 6740TIP3    H141855   5.733   1.939   2.478  0.2552  0.2363  0.5202
 6740TIP3    H241856   5.816   1.848   2.390 -0.2843 -0.6758  0.9395
 6741TIP3   OH241857   6.042   2.988   1.314  0.1487  0.0095  0.6278
 6741TIP3    H141858   6.057   3.022   1.226  2.2526 -0.1764  0.8532
 6741TIP3    H241859   5.947   2.984   1.323 -0.1377 -1.1850 -2.0942
 6742TIP3   OH241860   4.993   2.407   0.938  0.4355  0.7029  0.4897
 6742TIP3    H141861   4.993   2.389   1.032 -0.7334  2.3923  0.8704
 6742TIP3    H241862   4.901   2.420   0.916  0.2808 -2.7530 -1.6260
 6743TIP3   OH241863   4.454   2.507   8.009  0.0148 -0.3888 -0.4536
 6743TIP3    H141864   4.544   2.509   7.978 -0.0638 -0.6695 -0.7042
 6743TIP3    H241865   4.455   2.559   8.089 -0.0121  1.4663 -1.5862
 6744TIP3   OH241866   2.633   0.427   7.147 -0.2972  0.4285 -0.2360
 6744TIP3    H141867   2.550   0.432   7.195 -0.4159 -1.3292 -0.2114
 6744TIP3    H241868   2.621   0.355   7.085  1.5141 -0.4610  0.3897
 6745TIP3   OH241869   3.438   4.423   7.639  0.4101 -0.5069 -0.9599
 6745TIP3    H141870   3.365   4.442   7.698  1.2143  1.8860 -0.6038
 6745TIP3    H241871   3.487   4.353   7.682  0.9906  1.1897  1.3149
 6746TIP3   OH241872   1.806   2.255   6.635 -0.0491 -0.2693  0.6498
 6746TIP3    H141873   1.741   2.261   6.566  1.9858  1.8106 -1.2536
 6746TIP3    H241874   1.789   2.170   6.677 -2.1655 -1.0364 -1.5417
 6747TIP3   OH241875   0.069   6.647   8.645 -0.4046  0.2986 -0.0224
 6747TIP3    H141876   0.061   6.635   8.551  0.8377  3.0189 -0.5568
 6747TIP3    H241877   0.082   6.741   8.657 -1.0568  0.1225  2.9232
 6748TIP3   OH241878   1.455   2.299   1.080 -0.2462 -0.1989 -0.5339
 6748TIP3    H141879   1.392   2.233   1.050  0.1489 -1.4943  1.3248
 6748TIP3    H241880   1.519   2.249   1.131 -0.5431  1.7665  1.8947
 6749TIP3   OH241881   3.011   6.585   0.059 -0.5767  0.2874  0.1031
 6749TIP3    H141882   2.922   6.615   0.078 -0.3407  1.6170 -0.7847
 6749TIP3    H241883   3.052   6.659   0.015  0.5950 -0.7474 -0.5947
 6750TIP3   OH241884   3.325   2.122   0.340 -0.5701  0.0120 -0.1748
 6750TIP3    H141885   3.383   2.049   0.360 -0.1529  0.7413  1.4461
 6750TIP3    H241886   3.315   2.121   0.245 -0.3361 -1.9561 -0.2043
 6751TIP3   OH241887   3.947   3.987   8.121 -0.4218  0.0230 -0.2259
 6751TIP3    H141888   3.907   3.965   8.205 -0.6354 -1.8633 -0.7672
 6751TIP3    H241889   4.007   3.914   8.104 -0.2237  0.4792 -1.6136
 6752TIP3   OH241890   5.352   4.797   1.764  0.2182  0.1579 -0.0086
 6752TIP3    H141891   5.329   4.887   1.786 -0.7207 -0.1452  0.2815
 6752TIP3    H241892   5.302   4.778   1.684 -0.2166 -0.3688  0.3854
 6753TIP3   OH241893   4.038   1.441   0.345  0.3243 -0.1555  0.2509
 6753TIP3    H141894   3.955   1.468   0.384 -0.2510  0.2210 -1.1467
 6753TIP3    H241895   4.013   1.381   0.275  1.2172  0.0474 -0.2570
 6754TIP3   OH241896   6.047   1.173   0.924  0.3044 -0.1681  0.0543
 6754TIP3    H141897   6.081   1.099   0.873  2.3692  0.7577 -0.0056
 6754TIP3    H241898   6.029   1.241   0.859 -0.9776 -0.3745  0.1757
 6755TIP3   OH241899   6.834   4.286   1.935 -0.4873 -0.3827 -0.1976
 6755TIP3    H141900   6.894   4.354   1.966  1.4314 -1.8272 -0.5984
 6755TIP3    H241901   6.827   4.224   2.008 -1.6354 -0.1704 -0.1064
 6756TIP3   OH241902   1.723   5.000   1.196  0.1168 -0.1416  0.0498
 6756TIP3    H141903   1.664   5.058   1.147  0.1083 -0.8999 -0.8611
 6756TIP3    H241904   1.702   5.017   1.287 -0.7845  0.3540 -0.2361
 6757TIP3   OH241905   4.310   6.313   1.270  0.3668 -0.5146 -0.2385
 6757TIP3    H141906   4.242   6.352   1.324  1.8821 -0.7387  1.9841
 6757TIP3    H241907   4.268   6.239   1.226 -1.0579  0.0376  0.1568
 6758TIP3   OH241908   2.735   5.098   7.579 -0.9521  0.0614  0.3249
 6758TIP3    H141909   2.659   5.073   7.632 -1.7209 -0.6448 -1.0690
 6758TIP3    H241910   2.767   5.016   7.542  2.8822 -0.3276  3.7824
 6759TIP3   OH241911   0.580   1.871   1.061  0.0723 -0.6192  1.1298
 6759TIP3    H141912   0.578   1.932   1.135  0.4537  2.2277 -1.0300
 6759TIP3    H241913   0.489   1.861   1.036  0.0854  0.2722  0.6527
 6760TIP3   OH241914   5.771   1.814   6.822  0.2714  0.3397 -0.5404
 6760TIP3    H141915   5.787   1.759   6.745  1.0498 -0.0894 -0.0809
 6760TIP3    H241916   5.719   1.887   6.789 -0.5672 -0.5309 -1.2171
 6761TIP3   OH241917   6.664   5.862   0.129  0.5485 -0.7676 -0.3238
 6761TIP3    H141918   6.676   5.832   0.219  0.2890  0.4047  0.1138
 6761TIP3    H241919   6.574   5.894   0.125  1.4092  1.9219 -0.1358
 6762TIP3   OH241920   5.295   1.830   1.788 -0.1270 -0.2045  0.0902
 6762TIP3    H141921   5.371   1.849   1.844  0.0770 -0.1560 -0.2020
 6762TIP3    H241922   5.267   1.743   1.815  1.9632 -1.6231 -1.9232
 6763TIP3   OH241923   0.464   5.223   0.872  0.2600 -0.2000  0.5580
 6763TIP3    H141924   0.446   5.265   0.788 -1.9704  0.4538  1.2803
 6763TIP3    H241925   0.504   5.291   0.925 -1.9117  0.6636  1.2166
 6764TIP3   OH241926   0.686   6.834   0.733  0.0428  0.6557  0.0338
 6764TIP3    H141927   0.679   6.749   0.778  0.2003  0.9471  0.6266
 6764TIP3    H241928   0.612   6.836   0.673 -2.1376  1.5490  2.5214
 6765TIP3   OH241929   4.435   6.562   2.280 -0.4878  0.0309 -0.4132
 6765TIP3    H141930   4.385   6.534   2.356  1.3884 -0.7914  0.6056
 6765TIP3    H241931   4.461   6.652   2.299 -1.0968  0.2662 -0.6855
 6766TIP3   OH241932   4.897   0.478   7.544 -0.0414  0.2552  0.1378
 6766TIP3    H141933   4.945   0.398   7.521  0.9078  0.8943 -0.1552
 6766TIP3    H241934   4.900   0.531   7.465 -1.3687  0.2631  0.0765
 6767TIP3   OH241935   1.638   1.676   0.034  0.0526 -0.3737  0.1023
 6767TIP3    H141936   1.596   1.689   0.119  0.3127  0.9020  0.0561
 6767TIP3    H241937   1.731   1.662   0.055  0.3755  1.4095 -0.0249
 6768TIP3   OH241938   2.657   3.798   8.460 -0.0207 -0.0400  0.5239
 6768TIP3    H141939   2.647   3.708   8.491 -0.3422  1.0587  4.0569
 6768TIP3    H241940   2.571   3.821   8.425 -0.1516 -0.8235  0.2996
 6769TIP3   OH241941   6.543   6.788   8.255 -0.0530 -0.0236 -0.4205
 6769TIP3    H141942   6.544   6.880   8.226  0.9110  0.5877  1.4016
 6769TIP3    H241943   6.634   6.769   8.277 -0.7268 -0.1726  2.7616
 6770TIP3   OH241944   0.631   5.340   0.659 -0.1338  0.4409 -0.0225
 6770TIP3    H141945   0.712   5.376   0.624 -0.7645  0.5498 -1.4321
 6770TIP3    H241946   0.564   5.406   0.638 -0.3980  1.0811  2.4507
 6771TIP3   OH241947   3.939   0.107   8.655  0.6393  0.4225 -0.0228
 6771TIP3    H141948   3.852   0.144   8.672  0.0172 -0.9110 -0.2381
 6771TIP3    H241949   3.923   0.032   8.599  1.7659 -0.8678  1.3110
 6772TIP3   OH241950   4.888   2.658   0.308 -0.4414  0.4941  0.0077
 6772TIP3    H141951   4.936   2.740   0.313 -1.9426  1.4595 -0.8099
 6772TIP3    H241952   4.857   2.643   0.398 -0.0890  0.7684  0.1753
 6773TIP3   OH241953   4.877   6.437   0.060  0.5933 -0.1437  0.0175
 6773TIP3    H141954   4.944   6.416  -0.004 -0.0574 -0.1170 -0.6860
 6773TIP3    H241955   4.876   6.362   0.119  3.5633  1.2574  2.1142
 6774TIP3   OH241956   3.139   1.793   7.743  0.2597 -0.0450 -0.2792
 6774TIP3    H141957   3.213   1.785   7.802  0.5388  1.2860 -0.4299
 6774TIP3    H241958   3.104   1.704   7.737  2.0082 -0.7680 -0.4381
 6775TIP3   OH241959   1.545   2.456   8.249  0.3566  0.1192  0.0969
 6775TIP3    H141960   1.631   2.443   8.209  0.2314  0.5381 -0.3145
 6775TIP3    H241961   1.564   2.492   8.336  0.5861  0.4431 -0.0881
 6776TIP3   OH241962   4.967   5.014   1.143  0.4983 -0.7169  0.4952
 6776TIP3    H141963   5.020   4.947   1.186  1.0106 -0.6517 -0.0233
 6776TIP3    H241964   4.971   4.991   1.050  0.0917 -0.3688  0.3883
 6777TIP3   OH241965   5.514   2.910   0.008  0.4743  0.1735 -0.4013
 6777TIP3    H141966   5.543   3.000   0.023  2.1263 -0.5500  1.0706
 6777TIP3    H241967   5.528   2.866   0.092 -3.0693 -0.8076 -0.1748
 6778TIP3   OH241968   2.841   2.910   8.651  0.4936 -0.3115  0.1174
 6778TIP3    H141969   2.768   2.930   8.593  0.6934 -0.8390 -0.3247
 6778TIP3    H241970   2.802   2.904   8.738  0.4847  2.4111  0.3776
 6779TIP3   OH241971   2.749   0.273   8.223  0.3867 -0.3377  0.9107
 6779TIP3    H141972   2.784   0.195   8.182 -0.1325 -0.2280  0.2331
 6779TIP3    H241973   2.825   0.329   8.237  0.3837  0.5715 -1.9896
 6780TIP3   OH241974   3.999   4.209   7.213  0.2985  0.1316  0.0232
 6780TIP3    H141975   4.077   4.185   7.163  1.6158  2.1624  1.0232
 6780TIP3    H241976   3.972   4.127   7.255  0.9788 -0.9264 -1.4803
 6781TIP3   OH241977   5.104   1.420   6.682  1.1161 -0.0722  0.2333
 6781TIP3    H141978   5.101   1.382   6.594  1.2441  0.0976  0.1544
 6781TIP3    H241979   5.116   1.345   6.740 -0.3400 -0.3399  0.2279
 6782TIP3   OH241980   6.333   4.947   0.946  0.0863  0.1578  0.2631
 6782TIP3    H141981   6.401   5.013   0.933 -0.2124  0.7721  1.6570
 6782TIP3    H241982   6.268   4.990   1.002 -1.4884 -0.3967 -1.0485
 6783TIP3   OH241983   1.472   4.219   7.422 -0.2162  0.2966  0.7422
 6783TIP3    H141984   1.430   4.145   7.378 -2.6099  0.5452  2.4130
 6783TIP3    H241985   1.455   4.204   7.515  0.2447  2.3671  1.2070
 6784TIP3   OH241986   2.403   3.594   1.129  0.0359 -0.5198  0.3512
 6784TIP3    H141987   2.312   3.604   1.101  0.2274  0.2458 -0.0243
 6784TIP3    H241988   2.402   3.617   1.222 -0.5775 -2.9442  1.0251
 6785TIP3   OH241989   4.860   3.171   1.358 -0.0005 -0.8494 -0.3001
 6785TIP3    H141990   4.767   3.166   1.336 -0.5460 -0.3777  1.7353
 6785TIP3    H241991   4.878   3.265   1.365  0.2335 -0.9698  0.8454
 6786TIP3   OH241992   6.732   5.932   1.624  1.1797 -0.7240  0.6525
 6786TIP3    H141993   6.685   5.941   1.707  0.1530 -3.9406  0.5697
 6786TIP3    H241994   6.664   5.935   1.557  1.5135 -1.7240  0.2404
 6787TIP3   OH241995   1.289   2.978   0.325  0.4334 -0.5553  0.1937
 6787TIP3    H141996   1.309   2.985   0.232 -0.2308  2.4066  0.1921
 6787TIP3    H241997   1.374   2.968   0.367  1.1619  2.1727 -0.4925
 6788TIP3   OH241998   6.218   4.573   1.333 -0.4723  0.0114 -0.4777
 6788TIP3    H141999   6.196   4.543   1.421 -2.7213  2.5668 -0.0290
 6788TIP3    H242000   6.281   4.643   1.346  0.0101 -0.3110 -1.0116
 6789TIP3   OH242001   2.004   0.188   1.054  0.0341  0.5203 -0.2013
 6789TIP3    H142002   2.037   0.124   1.118 -0.7989 -0.4665 -0.7420
 6789TIP3    H242003   1.909   0.178   1.057 -0.0547  1.0893 -0.9644
 6790TIP3   OH242004   2.910   6.767   7.280 -0.3091 -0.1876 -1.1308
 6790TIP3    H142005   2.914   6.757   7.375 -0.8125 -0.4416 -1.1308
 6790TIP3    H242006   3.000   6.759   7.250  0.0274  1.1849 -0.5470
 6791TIP3   OH242007   5.875   5.865   0.217 -0.4073  0.0117  0.6721
 6791TIP3    H142008   5.839   5.790   0.170  0.5488  0.0225 -0.1162
 6791TIP3    H242009   5.859   5.846   0.309 -0.1137 -1.1980  0.4892
 6792TIP3   OH242010   2.131   4.513   1.154  0.3512 -0.8417 -0.5942
 6792TIP3    H142011   2.128   4.418   1.167 -0.2537 -1.0184 -1.8609
 6792TIP3    H242012   2.092   4.527   1.068 -1.5621  0.7657  0.4583
 6793TIP3   OH242013   6.573   6.762   1.196  0.9586  0.0787  0.5761
 6793TIP3    H142014   6.587   6.841   1.248  2.7687 -0.5864  1.1939
 6793TIP3    H242015   6.605   6.691   1.251 -0.2366 -1.0598 -0.1350
 6794TIP3   OH242016   6.206   1.202   1.696 -0.0207  0.0898  0.4752
 6794TIP3    H142017   6.216   1.111   1.668  0.6487  0.1933  0.3590
 6794TIP3    H242018   6.285   1.220   1.746  0.3875  0.9453 -0.4390
 6795TIP3   OH242019   5.442   6.815   1.725 -0.0010  0.6713 -0.1752
 6795TIP3    H142020   5.395   6.824   1.642  1.5399  0.4577 -1.1196
 6795TIP3    H242021   5.480   6.727   1.721  1.3962  1.2373  0.0227
 6796TIP3   OH242022   0.941   2.454   6.296 -0.3958  0.3198  0.0113
 6796TIP3    H142023   0.873   2.489   6.238 -0.4320 -0.1218 -0.2145
 6796TIP3    H242024   0.899   2.381   6.341 -0.5329  0.9899  0.9981
 6797TIP3   OH242025   0.324   1.525   0.093 -0.3035  0.1957  0.1226
 6797TIP3    H142026   0.398   1.570   0.134  1.0691 -0.6183 -1.3544
 6797TIP3    H242027   0.320   1.562   0.004 -1.8173  0.3608  0.2317
 6798TIP3   OH242028   3.536   6.113   0.332 -0.3643  0.2193 -0.1764
 6798TIP3    H142029   3.588   6.179   0.377 -1.7038  1.0525  0.2039
 6798TIP3    H242030   3.583   6.031   0.348  0.1212  0.7459  1.2843
 6799TIP3   OH242031   1.646   3.332   7.244  0.5754 -0.3690 -0.2951
 6799TIP3    H142032   1.689   3.259   7.289 -0.0414 -1.0774 -0.8371
 6799TIP3    H242033   1.623   3.297   7.157  0.1321  0.4205 -0.5071
 6800TIP3   OH242034   1.232   2.507   6.870 -0.0007  0.4379  0.0678
 6800TIP3    H142035   1.262   2.423   6.834 -0.1406  1.2978 -2.2068
 6800TIP3    H242036   1.305   2.537   6.924  1.2066  0.1031 -1.3081
 6801TIP3   OH242037   4.703   4.133   1.988  0.5282 -0.2061 -0.1139
 6801TIP3    H142038   4.731   4.155   2.077 -0.3296  0.0776  0.0973
 6801TIP3    H242039   4.683   4.217   1.947 -1.5977 -0.4259  0.3047
 6802TIP3   OH242040   1.558   4.315   6.724  0.2090 -0.0630 -0.0583
 6802TIP3    H142041   1.649   4.296   6.748 -0.3083  0.3586  2.5581
 6802TIP3    H242042   1.512   4.233   6.740  0.1728 -0.4875 -2.0550
 6803TIP3   OH242043   6.446   6.365   8.427  0.7959 -0.3398 -0.0659
 6803TIP3    H142044   6.400   6.336   8.506 -1.1476  0.9637 -0.6403
 6803TIP3    H242045   6.439   6.291   8.367  0.9321 -0.7680  0.4355
 6804TIP3   OH242046   0.206   1.350   0.908  0.0411  0.0381  0.3306
 6804TIP3    H142047   0.294   1.347   0.870  0.4901 -0.0829  1.3665
 6804TIP3    H242048   0.155   1.401   0.845  0.5091 -1.0102 -0.9520
 6805TIP3   OH242049   0.406   0.040   7.934 -0.3877  0.4945  0.7840
 6805TIP3    H142050   0.420  -0.053   7.949  2.7503  0.6889 -0.2208
 6805TIP3    H242051   0.333   0.045   7.873 -0.3606 -1.3261  0.5685
 6806TIP3   OH242052   6.532   5.443   7.523 -0.5808 -0.0074 -0.0810
 6806TIP3    H142053   6.572   5.499   7.590  0.5794 -0.1072 -0.6555
 6806TIP3    H242054   6.453   5.490   7.496 -0.9981  0.0971  1.2490
 6807TIP3   OH242055   0.439   3.349   8.409  0.4650 -0.0104 -0.4636
 6807TIP3    H142056   0.503   3.408   8.367 -0.5307  1.9882  0.6783
 6807TIP3    H242057   0.480   3.326   8.493 -0.1490  1.0379  0.1419
 6808TIP3   OH242058   4.187   0.999   1.398  0.3584 -0.0780  0.0425
 6808TIP3    H142059   4.196   1.089   1.430 -1.9173 -0.5506  2.3596
 6808TIP3    H242060   4.106   0.999   1.347  0.7047 -0.7044 -0.5299
 6809TIP3   OH242061   6.885   6.901   7.674  0.9267 -0.2200  0.0295
 6809TIP3    H142062   6.803   6.860   7.647  0.2508  2.1713 -1.8041
 6809TIP3    H242063   6.946   6.883   7.603  0.8430  1.2376 -0.4336
 6810TIP3   OH242064   2.959   1.119   0.675  0.0761  0.0384 -0.2643
 6810TIP3    H142065   2.937   1.026   0.676  2.4067 -0.5877 -1.4941
 6810TIP3    H242066   3.036   1.126   0.732 -1.6207  1.7301  2.0044
 6811TIP3   OH242067   3.935   6.159   1.313  0.0758 -0.4044 -0.2713
 6811TIP3    H142068   3.990   6.199   1.381  0.0009  0.6938 -0.8472
 6811TIP3    H242069   3.978   6.075   1.295 -0.7529 -1.4882  2.2309
 6812TIP3   OH242070   1.556   4.668   1.457  0.0868  0.5180  0.1057
 6812TIP3    H142071   1.546   4.760   1.432 -2.3464  0.0316 -0.9075
 6812TIP3    H242072   1.483   4.650   1.516  1.7064 -0.2946  2.0267
 6813TIP3   OH242073   2.827   1.010   2.280 -0.1214 -0.0953  0.3666
 6813TIP3    H142074   2.864   1.096   2.296  0.7049 -0.3498 -0.1134
 6813TIP3    H242075   2.734   1.018   2.304 -0.1297  1.0162 -0.0106
 6814TIP3   OH242076   2.803   6.887   7.047 -0.2658  0.5586 -0.5242
 6814TIP3    H142077   2.710   6.868   7.038 -0.7458  1.7218  1.3017
 6814TIP3    H242078   2.833   6.826   7.115  0.2515  0.3426 -0.9450
 6815TIP3   OH242079   3.762   1.729   2.078  0.5538  0.1345 -0.3263
 6815TIP3    H142080   3.854   1.730   2.051  1.2831 -1.3156  1.7449
 6815TIP3    H242081   3.756   1.798   2.144  0.3783 -0.2283  0.0488
 6816TIP3   OH242082   5.435   2.354   6.976 -0.3558 -0.3470 -0.4217
 6816TIP3    H142083   5.525   2.338   7.004 -0.8011 -1.2032  0.6103
 6816TIP3    H242084   5.411   2.276   6.925 -0.4925 -0.1019 -0.7338
 6817TIP3   OH242085   2.633   3.930   1.679 -0.0571 -1.0341  0.7690
 6817TIP3    H142086   2.564   3.984   1.717  0.2283 -2.0104  2.8076
 6817TIP3    H242087   2.713   3.960   1.722  0.2926 -2.1418  0.9128
 6818TIP3   OH242088   2.250   3.014   8.419 -0.6499 -0.2362 -0.2511
 6818TIP3    H142089   2.312   2.970   8.476 -1.4218  0.5891  1.3110
 6818TIP3    H242090   2.252   3.106   8.448 -1.5795  0.0686 -1.0927
 6819TIP3   OH242091   2.259   5.561   7.135 -0.2084  0.5198  0.4335
 6819TIP3    H142092   2.169   5.591   7.147 -1.1467 -2.4819  1.9129
 6819TIP3    H242093   2.267   5.548   7.040 -0.8951  1.9545  0.1553
 6820TIP3   OH242094   2.351   1.867   7.389 -0.4849 -0.4058  0.2185
 6820TIP3    H142095   2.357   1.959   7.363 -1.6475 -0.3958 -0.0449
 6820TIP3    H242096   2.351   1.818   7.307 -0.9358 -0.5767  0.3208
 6821TIP3   OH242097   1.654   0.699   7.383 -0.0732 -0.0043  0.5041
 6821TIP3    H142098   1.667   0.634   7.451 -1.1271  0.3521  1.0688
 6821TIP3    H242099   1.589   0.660   7.324  0.5220 -0.1391 -0.0752
 6822TIP3   OH242100   4.363   4.722   6.223  0.4914  0.3428  0.7522
 6822TIP3    H142101   4.296   4.723   6.292 -1.9488 -1.6640 -1.3924
 6822TIP3    H242102   4.445   4.705   6.270 -0.8301  0.4595  3.2841
 6823TIP3   OH242103   1.287   0.564   1.422  0.0528 -0.0132 -0.5441
 6823TIP3    H142104   1.285   0.659   1.427 -1.1447  0.0526 -1.8632
 6823TIP3    H242105   1.251   0.535   1.506 -0.6793  0.7142 -0.5970
 6824TIP3   OH242106   1.506   0.304   7.765  0.2752  0.6105 -0.2111
 6824TIP3    H142107   1.571   0.281   7.832 -0.4747  0.0554  0.3288
 6824TIP3    H242108   1.456   0.224   7.751 -2.2267  1.7630  1.5385
 6825TIP3   OH242109   5.290   3.989   8.060 -0.4362  0.8399 -0.1179
 6825TIP3    H142110   5.283   4.031   8.146 -1.3702  0.7501 -0.1385
 6825TIP3    H242111   5.383   3.969   8.051 -0.3504  0.6766  0.9562
 6826TIP3   OH242112   5.115   3.736   8.378 -0.0888 -0.2069  0.3875
 6826TIP3    H142113   5.175   3.807   8.354 -0.5744 -0.2834 -1.1621
 6826TIP3    H242114   5.060   3.773   8.447  1.9899 -0.2819  2.1853
 6827TIP3   OH242115   3.280   0.337   2.444 -0.0470  0.0214 -0.5108
 6827TIP3    H142116   3.322   0.273   2.386  0.1706  0.3662 -0.7386
 6827TIP3    H242117   3.343   0.409   2.450  0.5724 -0.6305  1.3325
 6828TIP3   OH242118   5.775   1.498   1.093  0.2959 -0.3281  0.2132
 6828TIP3    H142119   5.804   1.441   1.021  1.6072  0.1430  0.3469
 6828TIP3    H242120   5.855   1.514   1.144 -0.0975  1.4197  0.3258
 6829TIP3   OH242121   6.768   3.429   7.221  0.6675  0.0971  0.6055
 6829TIP3    H142122   6.691   3.377   7.244 -0.5007  2.4020  2.3401
 6829TIP3    H242123   6.770   3.430   7.125 -0.4486 -1.3937  0.5504
 6830TIP3   OH242124   2.278   3.760   0.101  0.2155  0.3996  0.6844
 6830TIP3    H142125   2.220   3.783   0.175 -0.3486  0.3258  0.2730
 6830TIP3    H242126   2.359   3.732   0.143  0.4191  1.7515  1.2390
 6831TIP3   OH242127   1.033   1.167   7.973 -0.5880  0.1902 -0.2405
 6831TIP3    H142128   1.023   1.252   8.015 -0.9699  0.3868 -0.7226
 6831TIP3    H242129   1.031   1.186   7.879 -0.5390 -0.3326 -0.3511
 6832TIP3   OH242130   2.751   6.293   2.089 -0.3117  0.3063  0.3972
 6832TIP3    H142131   2.716   6.359   2.029 -2.3680 -0.3894  0.7567
 6832TIP3    H242132   2.720   6.210   2.054  1.6462 -0.4570  0.3455
 6833TIP3   OH242133   2.078   0.971   8.015 -0.1409 -0.3369  0.3994
 6833TIP3    H142134   2.087   0.942   8.106 -1.9345 -2.3280  0.0333
 6833TIP3    H242135   2.046   1.061   8.021  0.7497 -0.0966  1.7168
 6834TIP3   OH242136   1.349   3.941   7.689 -0.3340 -0.3819 -0.6538
 6834TIP3    H142137   1.305   3.940   7.774  0.2941  0.1197 -0.3112
 6834TIP3    H242138   1.424   3.999   7.702  1.5457 -2.6472 -0.6685
 6835TIP3   OH242139   1.189   1.951   6.394 -0.4596 -0.1021  0.1758
 6835TIP3    H142140   1.255   2.010   6.357 -2.3334  1.1038 -1.4276
 6835TIP3    H242141   1.209   1.949   6.488  1.7498  0.2859 -0.2195
 6836TIP3   OH242142   0.748   0.893   7.331 -0.0284 -0.2815  0.1280
 6836TIP3    H142143   0.784   0.965   7.279  1.1925 -0.0884  1.1827
 6836TIP3    H242144   0.666   0.927   7.366 -0.0698  0.1554 -0.3773
 6837TIP3   OH242145   0.498   0.630   1.060  0.5823  0.2053  0.3846
 6837TIP3    H142146   0.495   0.720   1.026 -0.0653  0.4523  1.0613
 6837TIP3    H242147   0.487   0.575   0.982 -0.6978  0.7560  0.1511
 6838TIP3   OH242148   6.690   5.665   1.479 -0.1996  0.5588  0.3256
 6838TIP3    H142149   6.674   5.735   1.543  0.0723  0.5090  0.4482
 6838TIP3    H242150   6.694   5.585   1.532 -2.0507  0.2279  0.0369
 6839TIP3   OH242151   5.399   6.176   8.071  0.0109  0.0896 -0.4132
 6839TIP3    H142152   5.312   6.202   8.042  0.0220 -0.2309 -0.7387
 6839TIP3    H242153   5.456   6.249   8.045 -0.3494  0.8735  0.9220
 6840TIP3   OH242154   2.560   4.634   1.371 -0.3905 -0.0917  0.5571
 6840TIP3    H142155   2.644   4.643   1.416 -0.1145  0.1387 -0.0018
 6840TIP3    H242156   2.578   4.575   1.298 -0.2823  1.3640 -0.6358
 6841TIP3   OH242157   4.361   0.713   8.607  0.1784  0.2557 -0.1649
 6841TIP3    H142158   4.299   0.647   8.638 -0.4303  0.6333 -0.5689
 6841TIP3    H242159   4.418   0.665   8.547  0.4671 -0.1576  0.4338
 6842TIP3   OH242160   2.714   6.743   0.831 -0.0566 -0.0900  0.2405
 6842TIP3    H142161   2.788   6.783   0.787 -0.9142 -0.6960 -1.8928
 6842TIP3    H242162   2.742   6.652   0.846 -0.1044 -0.1406  0.0365
 6843TIP3   OH242163   3.391   2.775   1.503 -0.6889  0.0709  0.3228
 6843TIP3    H142164   3.340   2.830   1.444 -0.2060  0.2100  0.0319
 6843TIP3    H242165   3.445   2.836   1.553  1.6178 -0.2121 -1.6427
 6844TIP3   OH242166   2.292   4.389   7.669 -0.2331 -0.5615  0.2414
 6844TIP3    H142167   2.270   4.335   7.593  1.0191 -0.4990 -0.1768
 6844TIP3    H242168   2.310   4.326   7.739  1.1533 -0.7009 -0.2256
 6845TIP3   OH242169   5.971   1.578   0.843 -0.6578  0.3539 -0.0181
 6845TIP3    H142170   5.930   1.491   0.839 -0.3514  0.2063  0.1045
 6845TIP3    H242171   5.910   1.630   0.896 -0.8008  0.1931 -0.0218
 6846TIP3   OH242172   3.954   0.986   1.702 -0.2820  0.4688 -0.2232
 6846TIP3    H142173   3.910   0.989   1.787  0.6811  0.2173  0.2863
 6846TIP3    H242174   4.031   0.931   1.716  0.3482  1.1171 -1.0395
 6847TIP3   OH242175   5.943   0.179   2.054 -0.1456  0.3078  0.2617
 6847TIP3    H142176   5.874   0.136   2.004  0.6982 -1.2877  0.4050
 6847TIP3    H242177   5.929   0.150   2.144  1.8147 -1.6452  0.0168
 6848TIP3   OH242178   1.021   6.868   7.922  0.5227  0.5074  0.0446
 6848TIP3    H142179   1.077   6.833   7.853  0.0389 -1.1571  0.4641
 6848TIP3    H242180   0.978   6.944   7.882  1.7023  0.7379 -0.8451
 6849TIP3   OH242181   6.390   6.340   2.340 -0.5399 -0.4871 -0.0257
 6849TIP3    H142182   6.458   6.275   2.358 -1.3263 -1.0464  0.9763
 6849TIP3    H242183   6.436   6.424   2.342 -0.1218 -0.6989  2.3400
 6850TIP3   OH242184   3.028   2.196   0.242 -0.7066  0.3408 -0.0065
 6850TIP3    H142185   3.053   2.180   0.151 -0.5771  0.0490  0.0782
 6850TIP3    H242186   3.108   2.179   0.292 -0.7737  0.5158  0.1596
 6851TIP3   OH242187   4.616   4.073   7.818  0.1871  0.3350  0.8420
 6851TIP3    H142188   4.643   4.037   7.734 -0.2950  1.7743  0.0288
 6851TIP3    H242189   4.616   3.998   7.877 -0.3453 -0.8946 -0.6395
 6852TIP3   OH242190   1.937   3.818   7.857 -1.0099 -0.2568  0.4959
 6852TIP3    H142191   1.957   3.911   7.851 -0.8435 -0.3514 -0.6361
 6852TIP3    H242192   1.917   3.803   7.949 -1.1863  0.9264  0.6561
 6853TIP3   OH242193   6.345   2.717   6.362  0.3981 -0.3626 -0.4396
 6853TIP3    H142194   6.383   2.803   6.341  0.3812 -0.1593  0.3250
 6853TIP3    H242195   6.391   2.690   6.442 -2.3519  0.7618  1.6780
 6854TIP3   OH242196   0.777   0.177   8.110  0.2878 -0.7667 -0.1515
 6854TIP3    H142197   0.684   0.201   8.113  0.0231 -1.5457 -1.4415
 6854TIP3    H242198   0.798   0.151   8.200 -0.0645  1.7090  0.7459
 6855TIP3   OH242199   4.482   2.406   2.193  0.2179  0.2143 -0.1453
 6855TIP3    H142200   4.539   2.346   2.241  0.5079 -0.1588 -0.9428
 6855TIP3    H242201   4.526   2.491   2.198  0.5544  0.0471 -0.2671
 6856TIP3   OH242202   4.129   2.814   0.856  0.2103 -0.3760  0.5220
 6856TIP3    H142203   4.120   2.786   0.765 -0.7633  0.1389  0.4511
 6856TIP3    H242204   4.046   2.791   0.898 -0.0048  0.9118  0.8534
 6857TIP3   OH242205   2.007   3.664   1.706 -0.2540  0.5664  0.2814
 6857TIP3    H142206   2.036   3.575   1.725 -0.0901  0.2170 -1.4851
 6857TIP3    H242207   1.991   3.703   1.792 -0.9469 -1.3655  1.0715
 6858TIP3   OH242208   1.984   5.302   7.850 -0.2225  0.0025  0.2331
 6858TIP3    H142209   2.051   5.313   7.783  0.2684  0.6483  0.8159
 6858TIP3    H242210   1.989   5.382   7.903 -0.4055 -0.6140  1.2090
 6859TIP3   OH242211   1.470   0.515   2.599 -0.0362 -0.5310  0.0776
 6859TIP3    H142212   1.390   0.499   2.649 -0.7386 -0.4707 -0.9929
 6859TIP3    H242213   1.497   0.603   2.626 -0.0019 -0.7797  0.8712
 6860TIP3   OH242214   0.440   1.086   0.325  0.0255  0.1056 -0.6251
 6860TIP3    H142215   0.377   1.111   0.393 -0.9647 -3.2441 -0.1294
 6860TIP3    H242216   0.446   1.163   0.269 -2.5841  1.4355  0.7239
 6861TIP3   OH242217   1.761   0.189   7.873  0.2303  0.3250 -0.2433
 6861TIP3    H142218   1.830   0.205   7.937  2.9790  0.6675 -3.0357
 6861TIP3    H242219   1.735   0.098   7.889  2.1234 -0.1736  0.2541
 6862TIP3   OH242220   3.492   6.796   0.872 -0.1417 -0.1835  0.0992
 6862TIP3    H142221   3.443   6.799   0.954 -0.5127 -1.4320 -0.0475
 6862TIP3    H242222   3.505   6.702   0.856 -0.0896  0.0424 -1.2705
 6863TIP3   OH242223   2.959   0.718   7.009 -0.1946  0.2808  0.0093
 6863TIP3    H142224   3.027   0.760   6.956  0.7672  1.0908  1.7905
 6863TIP3    H242225   3.000   0.637   7.039 -0.0683  0.6616  0.8977
 6864TIP3   OH242226   1.481   3.776   1.791  0.1952  0.2236  0.5952
 6864TIP3    H142227   1.519   3.813   1.712  1.4870  0.2429  1.1947
 6864TIP3    H242228   1.393   3.812   1.794  0.4552  0.9862 -0.3330
 6865TIP3   OH242229   2.005   0.591   7.885  0.0416  0.3723  0.5036
 6865TIP3    H142230   2.087   0.563   7.845 -0.5642  0.2337 -0.6900
 6865TIP3    H242231   1.939   0.532   7.848 -0.7131  1.0360  0.7655
 6866TIP3   OH242232   3.913   0.878   7.976  0.1349 -0.0837  0.6803
 6866TIP3    H142233   3.979   0.942   7.949  0.4891 -1.5779 -2.4353
 6866TIP3    H242234   3.963   0.804   8.010  0.1815 -1.1220 -1.4667
 6867TIP3   OH242235   6.028   1.510   1.191  0.1133 -0.4495 -0.7173
 6867TIP3    H142236   6.090   1.438   1.198 -1.0464 -1.6475 -2.0486
 6867TIP3    H242237   6.047   1.566   1.267  1.9819 -1.3810 -0.4335
 6868TIP3   OH242238   4.481   2.730   2.400 -0.2777  0.2189  0.4685
 6868TIP3    H142239   4.513   2.713   2.489 -1.0524  0.9576  0.9001
 6868TIP3    H242240   4.428   2.809   2.408  0.7205  1.0881 -0.8970
 6869TIP3   OH242241   1.882   0.844   7.261 -0.3112 -0.3805  0.6864
 6869TIP3    H142242   1.926   0.787   7.197 -0.3738  0.2985  0.0185
 6869TIP3    H242243   1.817   0.788   7.302  0.3422 -1.0717  0.8061
 6870TIP3   OH242244   1.626   5.275   7.384  0.2501  0.0002 -0.4902
 6870TIP3    H142245   1.612   5.315   7.298 -0.6684  2.0195  0.5105
 6870TIP3    H242246   1.694   5.330   7.424 -0.9033  0.4798  0.8706
 6871TIP3   OH242247   0.002   3.457   0.652 -0.4473  0.0398 -0.1872
 6871TIP3    H142248  -0.063   3.497   0.711  0.1969  0.6632  0.1151
 6871TIP3    H242249  -0.050   3.413   0.586 -1.1881  0.9465 -0.2305
 6872TIP3   OH242250   0.552   1.427   2.420  0.2266  0.2210 -0.2364
 6872TIP3    H142251   0.617   1.491   2.392 -0.0345  1.0879  1.0218
 6872TIP3    H242252   0.470   1.476   2.427 -0.6552 -0.9001 -2.0098
 6873TIP3   OH242253   3.051   2.850   0.247  0.1287  0.8527 -0.7777
 6873TIP3    H142254   3.093   2.812   0.325  0.1294  1.4048 -0.5031
 6873TIP3    H242255   3.009   2.776   0.204 -1.2801  0.7820  0.6332
 6874TIP3   OH242256   1.086   5.165   7.040 -0.2542  0.1610  0.2345
 6874TIP3    H142257   1.154   5.132   6.980 -2.0142  1.5717 -2.7915
 6874TIP3    H242258   1.027   5.091   7.052  0.4400 -0.3186  0.8209
 6875TIP3   OH242259   6.500   5.541   1.305 -0.2929  0.0361 -0.5089
 6875TIP3    H142260   6.433   5.502   1.361 -1.3129  0.3900 -1.4427
 6875TIP3    H242261   6.554   5.594   1.365 -1.3733  0.4358  0.1339
 6876TIP3   OH242262   0.010   2.321   0.867  0.5030 -0.1267 -0.1957
 6876TIP3    H142263  -0.070   2.369   0.888  1.2998  0.9104  0.5895
 6876TIP3    H242264   0.054   2.376   0.802 -0.7616 -2.1019 -2.9052
 6877TIP3   OH242265   5.906   2.481   8.081  0.1489 -0.2707  0.1695
 6877TIP3    H142266   5.977   2.544   8.082  1.7668 -1.9904  0.6603
 6877TIP3    H242267   5.826   2.534   8.084  1.3691  1.7329 -0.7692
 6878TIP3   OH242268   1.133   1.967   6.990  0.3579  0.0020  0.3258
 6878TIP3    H142269   1.212   1.922   6.961 -0.9971 -1.5806 -1.0955
 6878TIP3    H242270   1.093   2.001   6.910 -0.9007 -0.0696  0.8972
 6879TIP3   OH242271   4.176   6.486   0.292 -0.3412  0.1764 -0.1090
 6879TIP3    H142272   4.170   6.492   0.197  0.7958 -0.8563 -0.2808
 6879TIP3    H242273   4.251   6.542   0.315 -0.5995  0.4078  0.1713
 6880TIP3   OH242274   3.439   3.130   1.001  0.5847 -0.7411 -0.2893
 6880TIP3    H142275   3.370   3.165   1.058  1.6040  2.2212 -0.6984
 6880TIP3    H242276   3.417   3.164   0.914  2.9092  0.9738 -0.2910
 6881TIP3   OH242277   4.968   5.818   7.774 -0.0364 -0.0496 -0.3772
 6881TIP3    H142278   4.940   5.897   7.822 -1.4508 -1.6352  1.5835
 6881TIP3    H242279   4.897   5.802   7.711 -0.9801 -1.0356  0.8786
 6882TIP3   OH242280   6.647   1.828   2.371  0.4464 -0.9445  0.0055
 6882TIP3    H142281   6.617   1.919   2.372 -0.3315 -1.1711 -1.0472
 6882TIP3    H242282   6.688   1.816   2.456 -0.0307  0.1971  0.4239
 6883TIP3   OH242283   0.510   0.237   8.104 -0.2012 -0.4065  0.2308
 6883TIP3    H142284   0.475   0.169   8.046 -0.2035 -0.2416  0.0378
 6883TIP3    H242285   0.441   0.302   8.109  0.2621  0.1626 -0.5529
 6884TIP3   OH242286   6.742   5.792   0.378 -0.2564 -0.7064  0.5903
 6884TIP3    H142287   6.694   5.831   0.452 -2.2778  0.6385 -1.3271
 6884TIP3    H242288   6.830   5.829   0.385 -0.7279  0.2682  1.6898
 6885TIP3   OH242289   3.891   6.868   7.999 -0.5840 -0.2016 -0.2723
 6885TIP3    H142290   3.900   6.789   7.945 -2.0252  1.4168 -3.1417
 6885TIP3    H242291   3.971   6.919   7.981 -0.1939 -0.4594  0.6640
 6886TIP3   OH242292   0.138   1.917   7.736 -0.3171 -0.4803 -0.2534
 6886TIP3    H142293   0.219   1.967   7.744 -0.8868  0.4885 -0.2935
 6886TIP3    H242294   0.159   1.843   7.680  0.2738  0.3435 -1.1286
 6887TIP3   OH242295   2.365   6.134   8.052  0.1085 -0.2931  0.0023
 6887TIP3    H142296   2.303   6.170   7.988 -0.6755 -0.7728  0.4799
 6887TIP3    H242297   2.434   6.094   7.999 -0.1810 -0.0911 -0.5324
 6888TIP3   OH242298   0.772   0.531   0.309 -0.0071  0.2916  0.2935
 6888TIP3    H142299   0.765   0.620   0.278  0.9037 -0.1274 -1.2107
 6888TIP3    H242300   0.731   0.532   0.396 -0.8757  1.9264 -0.1073
 6889TIP3   OH242301   0.150   4.012   7.901 -0.1537 -0.0391  0.4772
 6889TIP3    H142302   0.149   3.924   7.864  0.9335  0.2783 -0.3561
 6889TIP3    H242303   0.077   4.057   7.858  0.4019 -0.0108 -0.4628
 6890TIP3   OH242304   6.324   0.613   0.060  0.2381  0.0666 -0.5452
 6890TIP3    H142305   6.393   0.649   0.115  0.6955  0.9843 -1.6689
 6890TIP3    H242306   6.261   0.684   0.052 -0.0854 -0.2412 -0.7698
 6891TIP3   OH242307   3.269   3.303   8.585 -0.4492 -1.0071  0.1133
 6891TIP3    H142308   3.198   3.250   8.622 -1.4092 -0.7008 -1.2140
 6891TIP3    H242309   3.224   3.366   8.528  0.8539 -0.3933 -0.2654
 6892TIP3   OH242310   4.601   2.406   1.155  0.1185 -0.3790 -0.1396
 6892TIP3    H142311   4.614   2.442   1.242  0.2876  0.0247 -0.3278
 6892TIP3    H242312   4.566   2.318   1.170 -1.1664  0.1894  0.3181
 6893TIP3   OH242313   2.837   0.678   8.206  0.2390  0.1929  0.4222
 6893TIP3    H142314   2.832   0.733   8.284  3.8801  0.0041  0.9537
 6893TIP3    H242315   2.833   0.588   8.240 -0.6568  0.1007  0.0928
 6894TIP3   OH242316   5.100   2.714   8.553 -0.3265  0.3482  0.3384
 6894TIP3    H142317   5.188   2.698   8.517  0.4450 -1.6315  2.8620
 6894TIP3    H242318   5.113   2.780   8.621 -0.3583 -1.3749  2.0926
 6895TIP3   OH242319   6.163   1.286   1.204 -0.2759 -0.3244 -0.3407
 6895TIP3    H142320   6.150   1.226   1.278 -2.2256  0.4371  0.0053
 6895TIP3    H242321   6.121   1.242   1.130 -0.4468 -0.0096 -0.4294
 6896TIP3   OH242322   3.238   1.567   2.186  0.1514 -0.2855 -0.8961
 6896TIP3    H142323   3.183   1.543   2.261  1.5301 -0.0401  0.2461
 6896TIP3    H242324   3.202   1.649   2.154  0.0299  0.0397  0.0436
 6897TIP3   OH242325   4.591   1.561   7.810  0.4622 -0.1179 -0.5570
 6897TIP3    H142326   4.536   1.520   7.877  1.1825 -1.5140 -0.8037
 6897TIP3    H242327   4.563   1.653   7.810  0.6395 -0.0036  1.8694
 6898TIP3   OH242328   0.802   5.988   6.865 -0.0043  0.0454 -0.2791
 6898TIP3    H142329   0.796   5.892   6.863 -0.2548 -0.0394  1.7330
 6898TIP3    H242330   0.719   6.016   6.904  0.3759  1.0238 -0.1450
 6899TIP3   OH242331   0.992   3.616   0.110  1.0892  0.0684  0.5349
 6899TIP3    H142332   0.992   3.534   0.159 -1.8643  0.3603  1.2286
 6899TIP3    H242333   0.930   3.672   0.156 -1.3412  0.6561 -3.0087
 6900TIP3   OH242334   1.785   5.883   0.070  0.5414 -0.0874  0.5182
 6900TIP3    H142335   1.798   5.976   0.051 -0.7242 -0.3748 -2.3389
 6900TIP3    H242336   1.717   5.881   0.137 -0.3629  1.0418 -0.3429
 6901TIP3   OH242337   0.390   4.050   0.972 -0.3793 -0.5437  0.3466
 6901TIP3    H142338   0.384   3.959   0.945 -1.6003 -0.3687 -0.0742
 6901TIP3    H242339   0.357   4.099   0.897  0.6548  0.2815  0.4093
 6902TIP3   OH242340   4.010   0.030   0.921  0.0948 -0.4283 -0.3600
 6902TIP3    H142341   4.060  -0.017   0.853  0.7408 -1.1400  0.5657
 6902TIP3    H242342   3.943  -0.032   0.948 -1.7238  0.7274 -1.9813
 6903TIP3   OH242343   4.336   2.826   7.943 -0.1716 -0.2810 -0.7652
 6903TIP3    H142344   4.271   2.760   7.919 -0.6172 -0.7127  1.4839
 6903TIP3    H242345   4.413   2.776   7.970 -0.5100  0.0571  0.9490
 6904TIP3   OH242346   1.796   5.146   8.532  0.3381  0.2829  0.2350
 6904TIP3    H142347   1.708   5.132   8.497  0.3539  0.0265  0.2951
 6904TIP3    H242348   1.854   5.113   8.464  0.3380 -3.0796  1.6584
 6905TIP3   OH242349   2.734   5.198   1.474 -0.4710  0.1856 -0.2482
 6905TIP3    H142350   2.765   5.207   1.384 -0.7019 -1.7980 -0.5829
 6905TIP3    H242351   2.803   5.238   1.527  0.6642 -0.4290 -1.2165
 6906TIP3   OH242352   3.693   0.101   0.492  0.0572 -0.1401 -0.3645
 6906TIP3    H142353   3.696   0.048   0.571  0.7386  0.2924 -0.0914
 6906TIP3    H242354   3.643   0.179   0.517  1.3352  0.5808  0.0183
 6907TIP3   OH242355   3.431   6.435   0.426  0.1052  0.0744  0.0630
 6907TIP3    H142356   3.391   6.508   0.473  1.1567  0.6676  0.0535
 6907TIP3    H242357   3.380   6.428   0.345  0.2004  1.0100 -0.0867
 6908TIP3   OH242358   3.362   4.458   1.347  0.0266  0.6042  0.0989
 6908TIP3    H142359   3.353   4.371   1.386  2.2070 -0.0738 -0.7519
 6908TIP3    H242360   3.274   4.495   1.349 -1.2493 -2.1785 -0.8527
 6909TIP3   OH242361   3.043   6.101   8.249  0.1284 -0.6295  0.7918
 6909TIP3    H142362   3.054   6.009   8.226 -0.7219 -0.4547 -0.4133
 6909TIP3    H242363   3.093   6.149   8.183 -1.8679 -0.1395 -0.4595
 6910TIP3   OH242364   0.377   0.181   0.518 -0.9861  0.1798 -0.0777
 6910TIP3    H142365   0.445   0.154   0.456 -1.6203  1.9310 -1.6298
 6910TIP3    H242366   0.424   0.192   0.601  0.4559  0.5100 -0.8963
 6911TIP3   OH242367   0.567   5.175   1.760  0.2107 -0.2209 -0.1769
 6911TIP3    H142368   0.583   5.268   1.749 -0.9786 -0.0516 -0.7042
 6911TIP3    H242369   0.492   5.170   1.820  2.7784 -0.9910  3.2617
 6912TIP3   OH242370   4.649   1.924   7.277  0.6552 -0.0085 -0.1282
 6912TIP3    H142371   4.607   2.009   7.287 -0.1584 -0.3070 -0.9219
 6912TIP3    H242372   4.739   1.944   7.251  0.4382  0.6110 -0.4063
 6913TIP3   OH242373   2.248   5.237   0.748  0.2523 -0.0195 -0.4824
 6913TIP3    H142374   2.262   5.185   0.669  1.1816 -1.6520  0.7037
 6913TIP3    H242375   2.328   5.288   0.758  0.9100 -1.1802  0.3643
 6914TIP3   OH242376   0.417   3.768   0.900 -0.0537 -0.1864  0.0565
 6914TIP3    H142377   0.395   3.712   0.826 -2.3835  0.9912 -0.2399
 6914TIP3    H242378   0.373   3.729   0.975  0.7856 -0.3593  0.4782
 6915TIP3   OH242379   4.498   2.772   8.180  0.8486  0.4392  0.6434
 6915TIP3    H142380   4.499   2.742   8.271  1.9064 -0.3497  0.3927
 6915TIP3    H242381   4.528   2.863   8.185  0.6090  0.5007  1.0999
 6916TIP3   OH242382   4.011   6.368   7.530 -0.9207  1.0466  0.6056
 6916TIP3    H142383   4.105   6.381   7.545 -0.4668  0.1911 -1.2584
 6916TIP3    H242384   3.985   6.444   7.479 -1.3610  1.4813  1.4516
 6917TIP3   OH242385   4.326   3.543   0.564 -0.5039 -0.0295  0.2305
 6917TIP3    H142386   4.284   3.591   0.636 -0.4505 -1.1886  1.0512
 6917TIP3    H242387   4.376   3.474   0.607  2.4398  1.3662 -0.6870
 6918TIP3   OH242388   0.993   1.281   1.066 -0.5059  0.7291 -0.0496
 6918TIP3    H142389   1.007   1.195   1.105 -1.1518  0.9454  0.6822
 6918TIP3    H242390   1.055   1.285   0.993 -1.0416 -0.6675 -0.6045
 6919TIP3   OH242391   2.375   3.630   1.400 -0.4149  0.2107 -0.1703
 6919TIP3    H142392   2.427   3.550   1.393 -1.4694 -0.3828 -2.0767
 6919TIP3    H242393   2.396   3.665   1.486  0.3466 -1.9474  0.5947
 6920TIP3   OH242394   3.623   6.001   1.631  0.7119 -0.0569  0.3196
 6920TIP3    H142395   3.686   5.958   1.689 -1.4882 -3.2857  0.5630
 6920TIP3    H242396   3.557   6.038   1.690  0.7072  0.5042 -0.0258
 6921TIP3   OH242397   4.889   6.715   7.158  0.4036 -0.5004 -0.1679
 6921TIP3    H142398   4.942   6.785   7.120  0.6556  0.2477  1.5084
 6921TIP3    H242399   4.910   6.715   7.251 -0.2776 -2.2149  0.0401
 6922TIP3   OH242400   5.508   0.448   1.527  0.2204  0.3255 -0.1495
 6922TIP3    H142401   5.477   0.452   1.436 -0.0884  1.1373 -0.0180
 6922TIP3    H242402   5.449   0.505   1.575  0.2638 -0.2503  0.6072
 6923TIP3   OH242403   6.388   3.557   0.380 -0.4392 -0.0007  0.5852
 6923TIP3    H142404   6.312   3.615   0.381  0.0949  0.7676 -0.6822
 6923TIP3    H242405   6.371   3.495   0.309 -0.0330 -0.0171  0.4955
 6924TIP3   OH242406   5.882   0.133   7.984  0.0651  0.1033 -0.2509
 6924TIP3    H142407   5.914   0.192   7.916 -1.6357  1.1632 -0.2094
 6924TIP3    H242408   5.839   0.191   8.047 -0.9089 -1.1073  0.2435
 6925TIP3   OH242409   1.680   5.908   1.284  0.6559 -0.4536  0.2604
 6925TIP3    H142410   1.608   5.947   1.334  1.3770  1.2330  0.0409
 6925TIP3    H242411   1.746   5.977   1.279  0.6411 -0.4947 -2.9758
 6926TIP3   OH242412   3.161   5.673   8.597  0.6990 -0.0553 -0.2431
 6926TIP3    H142413   3.185   5.591   8.553  0.4274 -0.0730 -0.3618
 6926TIP3    H242414   3.186   5.741   8.535 -1.7576 -0.1581 -1.4505
 6927TIP3   OH242415   3.522   3.305   1.592 -0.2238 -0.4663  0.1990
 6927TIP3    H142416   3.536   3.232   1.652  1.5701 -1.0932 -0.8951
 6927TIP3    H242417   3.527   3.267   1.505  0.6269  0.9178 -0.3987
 6928TIP3   OH242418   6.447   2.211   0.535  0.6990  0.0980  0.0865
 6928TIP3    H142419   6.362   2.244   0.563 -0.1575 -1.0830 -1.0276
 6928TIP3    H242420   6.430   2.123   0.502  2.2180  0.1085 -0.8556
 6929TIP3   OH242421   3.838   0.527   6.646  1.0620 -0.3104  0.6569
 6929TIP3    H142422   3.838   0.527   6.551  1.0012 -0.7895  0.6541
 6929TIP3    H242423   3.755   0.569   6.671  0.9607 -0.4169  0.4976
 6930TIP3   OH242424   4.842   1.654   7.712  0.1998 -0.6338 -0.3336
 6930TIP3    H142425   4.753   1.639   7.743  0.4271  1.1730  1.3673
 6930TIP3    H242426   4.831   1.704   7.631 -0.3681  0.8288  0.6014
 6931TIP3   OH242427   6.764   5.808   0.930 -0.2646  0.3728  0.8821
 6931TIP3    H142428   6.746   5.753   1.006 -1.9265 -0.8268 -0.2945
 6931TIP3    H242429   6.844   5.771   0.891 -0.6499 -0.4178  0.8250
 6932TIP3   OH242430   0.438   0.747   1.456  0.0960  0.5790  0.1972
 6932TIP3    H142431   0.486   0.724   1.377 -1.8686 -3.9354  0.0336
 6932TIP3    H242432   0.448   0.671   1.513 -1.8340  2.0247  2.6763
 6933TIP3   OH242433   1.881   4.298   0.334 -0.1834  0.3461 -0.1786
 6933TIP3    H142434   1.975   4.313   0.342 -0.2064  0.0109  0.8651
 6933TIP3    H242435   1.874   4.218   0.283  0.1143  0.1383  0.0998
 6934TIP3   OH242436   5.979   3.173   7.322  0.1264 -0.6380  0.2742
 6934TIP3    H142437   5.947   3.084   7.332  4.2599 -2.6145 -1.8411
 6934TIP3    H242438   6.073   3.168   7.340  1.1339  2.6074 -2.8267
 6935TIP3   OH242439   1.819   1.011   6.848 -0.5311  0.2989  0.0970
 6935TIP3    H142440   1.859   0.939   6.798 -0.5261  1.7332 -2.1045
 6935TIP3    H242441   1.726   0.987   6.854 -0.1571 -0.9617  1.4476
 6936TIP3   OH242442   2.363   4.861   0.854 -0.1838  0.2465  0.4030
 6936TIP3    H142443   2.336   4.794   0.916  1.2160 -0.8830 -0.1576
 6936TIP3    H242444   2.291   4.866   0.791 -1.4331  1.1089  1.8151
 6937TIP3   OH242445   4.377   1.365   1.576  0.3363  0.0939 -0.4018
 6937TIP3    H142446   4.317   1.346   1.503 -0.0546 -0.1764 -0.0216
 6937TIP3    H242447   4.461   1.384   1.535  0.0840  0.0772 -0.9283
 6938TIP3   OH242448   4.545   5.590   2.503  0.1679 -0.1544 -0.4232
 6938TIP3    H142449   4.608   5.657   2.531  1.0000 -0.7000 -0.9588
 6938TIP3    H242450   4.479   5.639   2.453 -0.5217  0.6066  1.1559
 6939TIP3   OH242451   0.201   1.929   0.495  0.2418  0.2422  0.0453
 6939TIP3    H142452   0.275   1.869   0.506  0.2325 -0.0294 -1.1619
 6939TIP3    H242453   0.123   1.875   0.509  0.2463  0.6592  1.9089
 6940TIP3   OH242454   6.583   4.309   1.027  0.3912 -0.2370 -0.5238
 6940TIP3    H142455   6.493   4.342   1.023  0.9761  1.4075 -0.8551
 6940TIP3    H242456   6.574   4.217   1.054 -1.3813 -0.1347 -0.6675
 6941TIP3   OH242457   2.259   5.522   1.846 -0.1314 -0.1540 -0.6247
 6941TIP3    H142458   2.197   5.490   1.780 -0.8985  0.6593 -0.3090
 6941TIP3    H242459   2.240   5.470   1.924 -0.3653  0.0339 -0.5546
 6942TIP3   OH242460   0.238   5.522   1.258 -0.0519 -0.1601 -0.3578
 6942TIP3    H142461   0.289   5.443   1.243 -0.4492 -0.1516 -1.9506
 6942TIP3    H242462   0.291   5.592   1.219 -1.0228 -0.0789 -1.5615
 6943TIP3   OH242463   0.957   0.382   1.068 -0.2121  0.0320  0.3933
 6943TIP3    H142464   0.934   0.474   1.063 -1.3890 -0.2105  1.0844
 6943TIP3    H242465   1.017   0.376   1.142 -0.0650  0.2523  0.2915
 6944TIP3   OH242466   5.496   1.017   2.064 -0.1851 -0.1950  0.3716
 6944TIP3    H142467   5.574   1.003   2.118 -0.2436 -1.6270  0.1058
 6944TIP3    H242468   5.423   1.004   2.124 -0.2682 -2.5149 -0.1441
 6945TIP3   OH242469   2.738   2.456   2.486 -0.0018  0.6864 -0.7390
 6945TIP3    H142470   2.691   2.382   2.524  1.4042 -0.5491 -1.2892
 6945TIP3    H242471   2.723   2.449   2.392  1.6866 -0.0834 -0.9870
 6946TIP3   OH242472   1.157   4.556   1.144  0.1877 -0.3446 -0.0029
 6946TIP3    H142473   1.246   4.531   1.167 -0.8569 -3.5060  1.1652
 6946TIP3    H242474   1.156   4.556   1.048  1.2090 -1.3855 -0.0288
 6947TIP3   OH242475   1.727   5.152   7.724 -0.3717 -0.3134 -0.1542
 6947TIP3    H142476   1.770   5.236   7.737  1.2573 -0.7052 -2.4292
 6947TIP3    H242477   1.635   5.174   7.709 -0.1429  0.9445  0.1926
 6948TIP3   OH242478   6.803   6.788   1.755  0.2566  0.1872 -0.0532
 6948TIP3    H142479   6.743   6.861   1.743  0.3826  0.4538  0.8857
 6948TIP3    H242480   6.882   6.827   1.794  1.2098 -0.0892 -1.6026
 6949TIP3   OH242481   3.590   1.292   8.554  0.5562 -0.2299 -0.1078
 6949TIP3    H142482   3.656   1.358   8.532 -1.1573  1.3700 -0.6943
 6949TIP3    H242483   3.626   1.247   8.631  1.3048  2.1649  1.0435
 6950TIP3   OH242484   6.355   6.118   1.003  0.5358  0.0619  0.0430
 6950TIP3    H142485   6.413   6.080   1.070  1.9658  0.8241 -0.7255
 6950TIP3    H242486   6.361   6.057   0.929 -1.3355 -0.9812  0.6613
 6951TIP3   OH242487   6.459   5.547   8.417  0.2998 -0.0203  1.0221
 6951TIP3    H142488   6.516   5.557   8.493  0.6527  0.0650  0.7481
 6951TIP3    H242489   6.396   5.618   8.424 -0.3225 -0.6308  1.7986
 6952TIP3   OH242490   4.867   6.556   0.632  0.1166  0.4804  0.0302
 6952TIP3    H142491   4.864   6.618   0.560 -0.8734 -0.6452 -0.9382
 6952TIP3    H242492   4.888   6.609   0.709 -0.5958  1.9761 -0.7726
 6953TIP3   OH242493   0.241   1.103   0.527  0.1115 -0.4250 -0.1409
 6953TIP3    H142494   0.214   1.194   0.512  0.6630 -0.4077 -1.0756
 6953TIP3    H242495   0.164   1.051   0.505 -0.3279 -0.1747  0.7547
 6954TIP3   OH242496   2.371   2.669   7.402 -0.3276  0.7493  0.2808
 6954TIP3    H142497   2.300   2.632   7.454 -1.1518  2.2270  0.2512
 6954TIP3    H242498   2.450   2.628   7.437 -1.0965 -0.1382  1.0180
 6955TIP3   OH242499   1.588   0.902   1.448 -0.0201  0.2326 -0.0104
 6955TIP3    H142500   1.558   0.855   1.370  0.4910 -0.9945  0.5111
 6955TIP3    H242501   1.554   0.850   1.521  2.6221 -0.7771  0.6135
 6956TIP3   OH242502   1.984   2.018   1.608  0.0268  0.5290 -0.2719
 6956TIP3    H142503   1.994   1.961   1.532 -0.6057  1.5864 -1.1829
 6956TIP3    H242504   1.937   1.964   1.672  0.1320 -0.2188 -0.8099
 6957TIP3   OH242505   0.429   0.475   1.808  0.4415 -0.1401  0.2125
 6957TIP3    H142506   0.464   0.520   1.885  1.4983  1.1547 -0.9576
 6957TIP3    H242507   0.507   0.448   1.760 -0.1320  1.3582 -1.6646
 6958TIP3   OH242508   6.520   6.587   2.390 -0.3142  0.4273 -0.1720
 6958TIP3    H142509   6.569   6.590   2.307  0.4293  1.6741  0.2824
 6958TIP3    H242510   6.587   6.591   2.458 -0.8494 -1.6366  0.5462
 6959TIP3   OH242511   3.629   1.446   1.700  0.1852  0.4490 -0.4972
 6959TIP3    H142512   3.608   1.358   1.733  0.8244 -0.2724 -1.9103
 6959TIP3    H242513   3.653   1.496   1.778 -0.5666 -0.5185  0.3812
 6960TIP3   OH242514   3.353   5.569   1.427 -0.4441  0.6372  0.0442
 6960TIP3    H142515   3.272   5.526   1.455 -0.7858  1.0710 -0.2562
 6960TIP3    H242516   3.423   5.508   1.451 -0.7955  0.5995  1.0128
 6961TIP3   OH242517   3.094   4.816   8.646  0.0569  0.6109  0.4577
 6961TIP3    H142518   3.160   4.858   8.702 -0.1850  0.6619  0.7065
 6961TIP3    H242519   3.067   4.885   8.585  2.6342 -0.2812 -1.8704
 6962TIP3   OH242520   3.938   2.834   1.686  0.2156 -0.2879 -0.1510
 6962TIP3    H142521   3.885   2.764   1.725 -0.8434 -0.5218 -1.8993
 6962TIP3    H242522   3.876   2.885   1.634  1.6208 -0.2485 -1.8598
 6963TIP3   OH242523   2.081   5.446   0.235 -0.3596 -0.7090  0.1534
 6963TIP3    H142524   2.171   5.443   0.270 -0.5314 -0.2897  0.6463
 6963TIP3    H242525   2.043   5.363   0.263 -0.3079 -0.6326  0.4566
 6964TIP3   OH242526   3.933   3.883   7.724 -0.1324  0.0324  0.0955
 6964TIP3    H142527   3.957   3.796   7.754  0.5897  0.5497  1.0623
 6964TIP3    H242528   3.867   3.912   7.787 -1.6753 -0.4739 -1.2203
 6965TIP3   OH242529   2.105   2.538   7.552  0.5480  0.7551 -0.1625
 6965TIP3    H142530   2.037   2.487   7.597 -2.0199  3.1346 -1.0633
 6965TIP3    H242531   2.102   2.624   7.594  0.5933  1.9413 -2.4319
 6966TIP3   OH242532   5.745   0.192   8.571  0.7372 -0.6528 -0.2276
 6966TIP3    H142533   5.789   0.276   8.577 -1.1152  0.3868 -0.3749
 6966TIP3    H242534   5.775   0.143   8.648  2.4075 -0.1835 -0.5448
 6967TIP3   OH242535   2.318   4.402   0.726  0.1270 -0.3909  0.1817
 6967TIP3    H142536   2.350   4.419   0.814 -0.2940 -1.5646  0.5818
 6967TIP3    H242537   2.273   4.483   0.701  0.3857  0.0090  0.9771
 6968TIP3   OH242538   2.434   1.978   7.635 -0.4575 -0.6361  0.0418
 6968TIP3    H142539   2.413   1.921   7.561 -0.8666 -0.1636 -0.2146
 6968TIP3    H242540   2.463   2.060   7.595  0.4122 -0.7625  0.4057
 6969TIP3   OH242541   1.101   2.342   2.037 -0.1586  0.1605  0.0576
 6969TIP3    H142542   1.032   2.380   2.092 -1.2083 -0.5807 -0.7033
 6969TIP3    H242543   1.067   2.349   1.948  0.7419 -0.2531 -0.3288
 6970TIP3   OH242544   2.404   0.918   8.139 -0.0097  0.5422  0.2977
 6970TIP3    H142545   2.465   0.895   8.209 -0.7162  0.6111  0.9574
 6970TIP3    H242546   2.441   0.879   8.060  0.5105 -0.0275  0.8168
 6971TIP3   OH242547   5.611   4.797   1.633  0.2298 -0.4472 -0.4754
 6971TIP3    H142548   5.662   4.821   1.556 -1.6987 -0.1393 -1.7486
 6971TIP3    H242549   5.523   4.832   1.615 -0.0989  0.3831  2.2636
 6972TIP3   OH242550   6.642   3.278   1.005  0.0882  0.3967 -0.7031
 6972TIP3    H142551   6.602   3.284   1.092 -1.1827 -0.4000 -1.2007
 6972TIP3    H242552   6.732   3.249   1.022  0.1817  1.2833  0.3976
 6973TIP3   OH242553   6.113   2.215   7.445  0.5421 -0.6658 -0.2615
 6973TIP3    H142554   6.052   2.151   7.407 -0.3511  1.5205 -2.8590
 6973TIP3    H242555   6.188   2.214   7.386 -1.4663  3.8379 -3.5595
 6974TIP3   OH242556   1.243   5.135   7.268  0.1605 -0.5135  0.3892
 6974TIP3    H142557   1.305   5.133   7.196 -0.0163 -1.4841  0.2414
 6974TIP3    H242558   1.157   5.143   7.226  0.1888  1.6075  0.6201
 6975TIP3   OH242559   1.390   0.624   7.269 -0.7534  0.3475  0.5936
 6975TIP3    H142560   1.310   0.576   7.249 -0.4292 -0.2137  0.6210
 6975TIP3    H242561   1.363   0.692   7.331 -0.9146 -0.8847  1.9152
 6976TIP3   OH242562   1.383   5.555   1.875 -0.0448 -0.4294 -0.1581
 6976TIP3    H142563   1.384   5.505   1.793  2.7561  0.8250 -1.0094
 6976TIP3    H242564   1.387   5.646   1.847 -1.8764  0.1898  1.3992
 6977TIP3   OH242565   0.401   1.252   0.102 -0.4264 -0.3589  0.2152
 6977TIP3    H142566   0.338   1.193   0.060  0.1349 -1.0628  0.3538
 6977TIP3    H242567   0.354   1.335   0.109 -2.0659 -1.3515  2.0833
 6978TIP3   OH242568   1.396   6.126   7.330  0.3183 -0.2807  0.7617
 6978TIP3    H142569   1.399   6.188   7.403  0.0826  0.0708  0.4740
 6978TIP3    H242570   1.390   6.181   7.252 -0.7505 -0.6751  0.5474
 6979TIP3   OH242571   6.627   6.611   8.518 -0.0876 -0.1683 -0.7866
 6979TIP3    H142572   6.575   6.620   8.598 -0.6666 -1.3529 -1.0086
 6979TIP3    H242573   6.605   6.524   8.485  1.0251 -0.1542 -1.6195
 6980TIP3   OH242574   6.477   0.655   7.190  0.5426 -0.2326 -1.1936
 6980TIP3    H142575   6.497   0.638   7.098  0.5866 -0.3449 -1.1627
 6980TIP3    H242576   6.509   0.578   7.237 -2.2200 -1.6529 -1.4072
 6981TIP3   OH242577   1.164   2.105   2.205  0.3261 -0.1996  0.4655
 6981TIP3    H142578   1.243   2.102   2.258 -0.4902  2.3638  2.0337
 6981TIP3    H242579   1.150   2.198   2.188 -1.2164 -0.7245 -1.5810
 6982TIP3   OH242580   2.394   6.011   1.020  0.5538 -0.2503  0.5624
 6982TIP3    H142581   2.419   5.941   1.080  1.3965 -1.3661 -1.0178
 6982TIP3    H242582   2.476   6.044   0.985  0.0874  0.4442  0.0790
 6983TIP3   OH242583   6.201   4.499   7.926  0.3178  0.1655  0.3373
 6983TIP3    H142584   6.161   4.580   7.959  0.9729 -0.6185  3.4031
 6983TIP3    H242585   6.228   4.520   7.837  0.2195  3.2212  0.9202
 6984TIP3   OH242586   2.141   4.498   7.989  0.3633 -0.2733  0.0584
 6984TIP3    H142587   2.126   4.419   8.042  3.2953 -0.0302  1.4823
 6984TIP3    H242588   2.168   4.565   8.053  1.6059  0.7585 -1.4652
 6985TIP3   OH242589   4.794   5.519   0.556 -0.9057 -0.4209 -0.5110
 6985TIP3    H142590   4.842   5.513   0.639 -3.8301 -1.0259  1.3041
 6985TIP3    H242591   4.730   5.589   0.571  0.5087  1.7591 -3.5339
 6986TIP3   OH242592   2.182   0.857   8.286  0.1660  0.7011 -0.2037
 6986TIP3    H142593   2.268   0.847   8.245 -0.5855 -0.5797 -1.5805
 6986TIP3    H242594   2.200   0.901   8.369  2.3309 -0.7072  0.1695
 6987TIP3   OH242595   5.865   1.842   7.719 -0.8448 -0.4033 -0.5765
 6987TIP3    H142596   5.789   1.795   7.753 -0.4751 -0.4432  0.2297
 6987TIP3    H242597   5.841   1.935   7.726 -0.3665 -0.3611  0.8551
 6988TIP3   OH242598   2.534   6.197   1.798 -0.4836 -0.7219 -0.0406
 6988TIP3    H142599   2.568   6.140   1.868 -1.4086 -1.5848 -0.2607
 6988TIP3    H242600   2.612   6.236   1.759  0.1288 -1.2071  0.6570
 6989TIP3   OH242601   5.513   6.453   1.876  0.0454 -0.3432 -0.2062
 6989TIP3    H142602   5.534   6.495   1.792  0.8919  1.5804  0.8732
 6989TIP3    H242603   5.598   6.444   1.920 -0.5228  0.1758  1.0717
 6990TIP3   OH242604   2.588   4.517   8.006 -0.2538 -0.1366  1.3428
 6990TIP3    H142605   2.594   4.604   8.045 -1.4224 -0.3381  1.9767
 6990TIP3    H242606   2.568   4.458   8.078 -4.3738 -0.2787  0.3313
 6991TIP3   OH242607   2.683   0.223   8.490  0.5502 -0.5953  0.3873
 6991TIP3    H142608   2.765   0.202   8.535  0.7279 -0.9857 -0.1097
 6991TIP3    H242609   2.707   0.224   8.398 -0.2764 -2.0170  0.1392
 6992TIP3   OH242610   2.265   4.672   1.345  0.5824 -0.2902 -0.3150
 6992TIP3    H142611   2.214   4.614   1.289  0.7262 -2.1211  1.3178
 6992TIP3    H242612   2.347   4.624   1.361 -0.1980 -0.7870  2.9059
 6993TIP3   OH242613   3.078   3.474   1.043 -0.5083  0.0821  0.2507
 6993TIP3    H142614   3.085   3.494   0.950  1.1832  0.2331  0.3906
 6993TIP3    H242615   2.986   3.448   1.055 -0.9309  0.7647 -1.3033
 6994TIP3   OH242616   5.217   6.861   1.158  0.0424 -0.0394  0.1626
 6994TIP3    H142617   5.125   6.881   1.175  0.0191 -1.6211  2.3998
 6994TIP3    H242618   5.237   6.906   1.076 -2.7417  0.2543 -0.4576
 6995TIP3   OH242619   1.286   5.708   0.691  0.3704 -0.2423 -0.1283
 6995TIP3    H142620   1.291   5.654   0.612 -0.8353  0.3360 -0.6315
 6995TIP3    H242621   1.235   5.784   0.665 -0.3036 -0.1668  1.2760
 6996TIP3   OH242622   3.021   1.859   8.275  0.6666  0.1111 -0.0482
 6996TIP3    H142623   3.077   1.870   8.351  0.4654 -0.8531  0.2488
 6996TIP3    H242624   2.933   1.848   8.311  0.6829 -1.1814 -0.3661
 6997TIP3   OH242625   3.981   5.086   7.079 -0.2135 -0.0869 -1.3791
 6997TIP3    H142626   4.012   5.046   6.998 -0.1365 -1.7615 -0.5487
 6997TIP3    H242627   3.912   5.027   7.110  1.2128 -0.6707  0.8750
 6998TIP3   OH242628   1.470   1.859   0.718 -0.0213 -0.4300  0.0054
 6998TIP3    H142629   1.515   1.779   0.744 -0.6291 -1.6421 -2.3692
 6998TIP3    H242630   1.383   1.830   0.690 -0.5890  1.1877 -0.0542
 6999TIP3   OH242631   6.557   0.444   8.384 -0.0085 -0.6398 -0.3077
 6999TIP3    H142632   6.484   0.409   8.435 -1.7216  1.6289 -1.0752
 6999TIP3    H242633   6.563   0.385   8.309 -0.4219 -1.3652  0.2046
 7000TIP3   OH242634   1.340   2.279   6.801  0.2277  0.1432 -0.5031
 7000TIP3    H142635   1.316   2.223   6.875 -1.7791  0.7267 -0.6434
 7000TIP3    H242636   1.376   2.218   6.736  0.4470 -0.6169  0.3141
 7001TIP3   OH242637   2.280   3.792   7.298 -0.7317 -0.2196  0.5149
 7001TIP3    H142638   2.333   3.734   7.352  0.0247  1.8318  2.0964
 7001TIP3    H242639   2.327   3.795   7.214 -0.0074 -0.7886  0.8820
 7002TIP3   OH242640   0.680   3.245   1.690 -0.5096  0.9329 -0.0376
 7002TIP3    H142641   0.671   3.200   1.774  1.0477  0.5985 -0.0170
 7002TIP3    H242642   0.774   3.238   1.669 -1.0153 -0.0479 -2.3700
 7003TIP3   OH242643   4.990   3.604   8.099  0.0215  0.6774  1.0201
 7003TIP3    H142644   5.035   3.685   8.076 -0.0595  0.2666 -0.7171
 7003TIP3    H242645   5.004   3.595   8.193  0.5504  2.3776  1.1345
 7004TIP3   OH242646   0.910   1.649   8.207 -0.3700  0.8057  0.1590
 7004TIP3    H142647   0.825   1.620   8.174  0.0654  0.3996 -0.6148
 7004TIP3    H242648   0.893   1.671   8.299 -0.7899 -1.7455  0.7852
 7005TIP3   OH242649   5.060   1.959   2.326 -0.1748  0.0317  0.5023
 7005TIP3    H142650   4.970   1.991   2.332  0.1862  0.9668  1.0507
 7005TIP3    H242651   5.051   1.870   2.291 -1.3696 -0.2176  1.3877
 7006TIP3   OH242652   3.980   5.866   0.868 -0.1028 -0.3507 -0.2856
 7006TIP3    H142653   3.912   5.799   0.877 -0.2732 -0.7148 -3.2258
 7006TIP3    H242654   3.932   5.948   0.857 -0.0406 -0.3588 -0.6486
 7007TIP3   OH242655   0.354   0.076   7.206 -0.0781  0.3144  0.0329
 7007TIP3    H142656   0.322   0.157   7.245  0.9625  2.3675 -2.9953
 7007TIP3    H242657   0.440   0.062   7.246 -0.5639  0.2231  1.0940
 7008TIP3   OH242658   6.023   4.246   8.357  0.7125 -0.2271  0.1320
 7008TIP3    H142659   6.074   4.289   8.288  1.4037  0.5432  1.0815
 7008TIP3    H242660   6.039   4.153   8.344  3.0218  0.0021  0.8308
 7009TIP3   OH242661   3.324   2.038   7.288 -0.7733  0.0939 -0.2838
 7009TIP3    H142662   3.401   2.033   7.231 -0.3247 -1.5515  0.3970
 7009TIP3    H242663   3.250   2.046   7.227 -0.2051 -0.2392 -1.0350
 7010TIP3   OH242664   5.577   2.390   8.503  0.2737 -0.0074  0.6491
 7010TIP3    H142665   5.603   2.481   8.513  1.7130 -0.3530  0.2386
 7010TIP3    H242666   5.541   2.385   8.414  0.5501  0.0759  0.5333
 7011TIP3   OH242667   3.214   0.194   1.139 -0.0696  0.0262 -0.3249
 7011TIP3    H142668   3.134   0.239   1.113  0.1757  0.0950 -0.9734
 7011TIP3    H242669   3.207   0.186   1.234  0.1460  1.9599 -0.1092
 7012TIP3   OH242670   2.155   0.711   0.051 -0.1092  0.3370  0.0014
 7012TIP3    H142671   2.107   0.793   0.043 -0.2662  0.1290 -1.3862
 7012TIP3    H242672   2.105   0.660   0.115  0.0996  1.3694  1.0257
 7013TIP3   OH242673   3.989   6.300   0.352 -0.1306  0.1641 -0.7634
 7013TIP3    H142674   4.044   6.378   0.354  1.2264 -0.7837  1.0056
 7013TIP3    H242675   3.899   6.334   0.360  0.0018  1.7679 -4.2247
 7014TIP3   OH242676   6.169   6.897   0.289 -0.3430 -0.3244  0.1740
 7014TIP3    H142677   6.176   6.842   0.367  3.1732  0.0375  0.2838
 7014TIP3    H242678   6.191   6.838   0.217 -2.0452 -0.2877 -0.4156
 7015TIP3   OH242679   3.207   1.938   1.611 -0.1283 -0.6985  0.1953
 7015TIP3    H142680   3.123   1.979   1.591  0.2190 -0.9797 -2.0450
 7015TIP3    H242681   3.271   1.989   1.562  0.4789 -2.9940 -1.5564
 7016TIP3   OH242682   3.904   1.872   6.962 -0.7506 -0.1721  0.1163
 7016TIP3    H142683   3.995   1.890   6.935  0.4208 -1.3175  2.9311
 7016TIP3    H242684   3.858   1.954   6.945  1.0733  0.8310 -0.3234
 7017TIP3   OH242685   4.749   1.446   0.594 -0.1788 -0.2033 -0.1165
 7017TIP3    H142686   4.751   1.521   0.653 -0.7904  0.4076 -0.8437
 7017TIP3    H242687   4.662   1.408   0.606 -0.2893 -0.1078 -0.5667
 7018TIP3   OH242688   3.761   1.933   7.618 -0.6355 -0.0151  0.0093
 7018TIP3    H142689   3.771   1.988   7.540 -0.9480  0.1925  0.1134
 7018TIP3    H242690   3.734   1.848   7.584 -0.4045 -0.0339 -0.1329
 7019TIP3   OH242691   3.370   1.708   7.086 -0.1877 -0.4672  0.2370
 7019TIP3    H142692   3.399   1.618   7.080  2.3428  0.3518 -1.4961
 7019TIP3    H242693   3.348   1.733   6.996 -0.7932  0.6534  0.6671
 7020TIP3   OH242694   6.281   4.847   7.031  0.1583  0.4049  0.1513
 7020TIP3    H142695   6.298   4.760   6.994 -0.2734  0.0580  0.7530
 7020TIP3    H242696   6.338   4.906   6.981  1.5958 -0.4385  0.7347
 7021TIP3   OH242697   4.078   1.868   0.329 -0.2787 -0.1696  0.0654
 7021TIP3    H142698   4.128   1.793   0.363 -1.6862 -1.4973 -0.6673
 7021TIP3    H242699   4.144   1.925   0.289  0.8613 -0.8450  0.9266
 7022TIP3   OH242700   5.289   6.468   0.991 -0.6148 -0.1123 -0.1684
 7022TIP3    H142701   5.228   6.486   0.919 -0.1463 -0.3316 -0.6307
 7022TIP3    H242702   5.233   6.456   1.068 -1.0719  0.9919 -0.3106
 7023TIP3   OH242703   4.172   5.997   8.650 -0.1820 -0.1021  0.0451
 7023TIP3    H142704   4.164   6.070   8.711  0.7502 -0.8938  1.1351
 7023TIP3    H242705   4.244   5.944   8.683 -0.6518 -1.3926 -0.8721
 7024TIP3   OH242706   0.878   0.283   2.187  0.0011 -0.3086  0.0090
 7024TIP3    H142707   0.830   0.222   2.242  1.0914 -1.0710  0.1535
 7024TIP3    H242708   0.969   0.276   2.217  0.2384  0.9990 -0.3257
 7025TIP3   OH242709   1.737   5.340   0.465 -0.4309  0.1112 -0.2352
 7025TIP3    H142710   1.664   5.306   0.517  0.2451  0.1855  0.8036
 7025TIP3    H242711   1.797   5.376   0.530  0.7174 -0.3104 -1.0330
 7026TIP3   OH242712   5.354   5.376   8.407 -0.1681  0.0116  0.1594
 7026TIP3    H142713   5.417   5.320   8.452 -1.0955 -0.0039  1.5258
 7026TIP3    H242714   5.275   5.322   8.400 -0.2327  0.2347 -0.9758
 7027TIP3   OH242715   4.431   0.898   7.249 -0.2889  0.6184  0.3036
 7027TIP3    H142716   4.420   0.968   7.185  0.6363  0.7482  0.2768
 7027TIP3    H242717   4.521   0.868   7.237 -0.6945 -0.6620  0.2310
 7028TIP3   OH242718   0.890   0.112   1.590 -0.1079  0.2397  0.4890
 7028TIP3    H142719   0.879   0.031   1.539 -3.1433 -0.5762  2.1841
 7028TIP3    H242720   0.868   0.182   1.528 -1.4185 -0.5555  0.0085
 7029TIP3   OH242721   0.051   4.995   7.551  0.1607  0.1754 -0.2022
 7029TIP3    H142722   0.085   4.909   7.576 -2.4316 -0.8675  0.0484
 7029TIP3    H242723   0.101   5.057   7.604  0.0875 -1.4220  1.8528
 7030TIP3   OH242724   3.923   5.125   1.030 -0.3361 -0.7901 -0.5121
 7030TIP3    H142725   3.908   5.030   1.024 -0.9511 -0.6644 -0.9958
 7030TIP3    H242726   3.900   5.147   1.121  1.4876 -1.3797  0.1488
 7031TIP3   OH242727   5.659   2.577   0.332 -0.0178  0.0687 -0.1746
 7031TIP3    H142728   5.630   2.669   0.337  0.0402  0.2082 -1.9490
 7031TIP3    H242729   5.755   2.583   0.329  0.0610 -0.1573  1.1551
 7032TIP3   OH242730   0.441   3.962   0.361 -0.1768 -0.2353 -0.2295
 7032TIP3    H142731   0.531   3.966   0.326  0.4377 -0.5711  1.2504
 7032TIP3    H242732   0.436   4.036   0.422 -1.0302 -0.0345 -0.5295
 7033TIP3   OH242733   3.980   0.509   1.599  0.2983  0.1199  0.2784
 7033TIP3    H142734   3.947   0.580   1.655  0.9654  0.9670 -0.3755
 7033TIP3    H242735   3.979   0.431   1.656 -0.1342  0.7156  1.1109
 7034TIP3   OH242736   2.354   5.975   0.249 -0.3961  0.0382  0.5736
 7034TIP3    H142737   2.293   5.996   0.320  1.7317  0.6845  2.3210
 7034TIP3    H242738   2.411   5.907   0.285  0.6129  0.2260 -0.5870
 7035TIP3   OH242739   6.601   3.284   7.732  0.5050  0.2896 -0.1308
 7035TIP3    H142740   6.695   3.297   7.722  0.6650  1.5086  2.4074
 7035TIP3    H242741   6.563   3.371   7.718  0.2002  0.7114  2.7851
 7036TIP3   OH242742   0.081   0.851   2.209  0.3396 -0.6684  0.1557
 7036TIP3    H142743   0.163   0.817   2.173  1.6397 -0.6195  2.8556
 7036TIP3    H242744   0.045   0.778   2.258 -0.0955 -0.0196  0.8171
 7037TIP3   OH242745   1.900   4.026   0.213 -0.0785  0.2659 -0.7515
 7037TIP3    H142746   1.847   3.946   0.216  0.5858 -0.3170 -2.6005
 7037TIP3    H242747   1.879   4.065   0.128  0.5181  1.4080 -0.3960
 7038TIP3   OH242748   2.381   0.707   7.902 -0.5092  0.4766  0.4959
 7038TIP3    H142749   2.323   0.747   7.838 -1.6847 -0.1529  1.1427
 7038TIP3    H242750   2.326   0.646   7.951  0.6491 -0.0053  1.2593
 7039TIP3   OH242751   2.803   4.361   7.960  0.1006  0.0022 -0.5573
 7039TIP3    H142752   2.797   4.316   7.876 -2.4090 -0.6767 -0.1030
 7039TIP3    H242753   2.724   4.415   7.964  0.4512  0.4489  1.1296
 7040TIP3   OH242754   5.032   3.497   1.590 -0.2846 -0.2759  0.5315
 7040TIP3    H142755   5.044   3.421   1.534 -1.5327 -0.1493  0.0671
 7040TIP3    H242756   5.112   3.500   1.644  0.9313 -0.4083 -1.1939
 7041TIP3   OH242757   2.659   6.366   8.515 -0.1728  0.2349 -0.1141
 7041TIP3    H142758   2.746   6.356   8.476  0.0740 -3.5330  1.0533
 7041TIP3    H242759   2.599   6.340   8.445 -0.4919  2.7632 -0.8938
 7042TIP3   OH242760   4.248   5.591   8.098 -0.1465  0.2612 -0.3074
 7042TIP3    H142761   4.234   5.597   8.004 -1.5157  2.1755 -0.0442
 7042TIP3    H242762   4.196   5.663   8.135  0.5963 -0.2376  1.8859
 7043TIP3   OH242763   0.042   2.195   0.590 -0.7720 -0.5211  0.4487
 7043TIP3    H142764  -0.018   2.236   0.653  0.5116  0.7716  0.8917
 7043TIP3    H242765   0.008   2.107   0.579 -3.4154  0.4907 -0.2166
 7044TIP3   OH242766   4.514   5.536   6.794 -0.3958  0.1251 -0.7592
 7044TIP3    H142767   4.461   5.457   6.804  0.3428 -0.3744 -0.7056
 7044TIP3    H242768   4.548   5.554   6.881 -1.2154  0.9890 -0.5975
 7045TIP3   OH242769   0.112   6.138   0.473 -0.3147  0.0798 -0.4588
 7045TIP3    H142770   0.120   6.194   0.396  0.6821  0.5478 -0.0307
 7045TIP3    H242771   0.166   6.181   0.540 -1.8620  0.1802  0.7954
 7046TIP3   OH242772   0.014   6.342   8.303 -0.0670  0.7304  0.7795
 7046TIP3    H142773  -0.047   6.278   8.338  1.5238 -0.5776  1.3266
 7046TIP3    H242774   0.065   6.293   8.238  0.5416  1.6980  0.5078
 7047TIP3   OH242775   3.671   6.528   8.447  0.1832  0.7585 -0.3113
 7047TIP3    H142776   3.752   6.577   8.435  1.5009 -1.2011  0.2108
 7047TIP3    H242777   3.617   6.586   8.501  0.9474  2.3558 -1.1713
 7048TIP3   OH242778   1.347   3.326   2.377  0.1047 -0.5994  0.2876
 7048TIP3    H142779   1.409   3.380   2.426 -0.3328 -1.0473  1.3649
 7048TIP3    H242780   1.283   3.388   2.343  1.0451 -0.1503 -0.7128
 7049TIP3   OH242781   2.205   1.127   8.453 -0.1144  0.7829  0.3663
 7049TIP3    H142782   2.145   1.065   8.493 -0.0836  0.4595 -0.0787
 7049TIP3    H242783   2.292   1.092   8.472 -0.1219 -0.1276 -1.1438
 7050TIP3   OH242784   1.549   5.225   1.121 -0.1197 -0.3909  0.1303
 7050TIP3    H142785   1.573   5.280   1.047  0.2104  0.3783  0.7919
 7050TIP3    H242786   1.453   5.230   1.125 -0.0807  0.2980  0.2942
 7051TIP3   OH242787   2.438   2.697   7.887  0.6808  1.0341 -0.4423
 7051TIP3    H142788   2.398   2.780   7.911  0.5616  1.1146 -0.9182
 7051TIP3    H242789   2.416   2.638   7.959 -3.4927  0.0133 -2.2398
 7052TIP3   OH242790   6.863   3.912   0.028 -0.0902  0.5825  0.3066
 7052TIP3    H142791   6.910   3.832   0.007 -2.4026 -0.6239 -0.6777
 7052TIP3    H242792   6.885   3.973  -0.042 -1.0583 -0.4815 -0.9798
 7053TIP3   OH242793   1.883   0.845   8.258  0.2974  0.4689  0.2132
 7053TIP3    H142794   1.846   0.760   8.234  1.4170  0.2422 -0.7541
 7053TIP3    H242795   1.974   0.825   8.283 -0.0165  1.0909  2.0515
 7054TIP3   OH242796   4.161   5.160   7.718 -0.0966 -0.4608  0.2805
 7054TIP3    H142797   4.245   5.127   7.687  0.4214  0.4265  0.7119
 7054TIP3    H242798   4.107   5.082   7.729  0.6305 -1.0256 -0.1034
 7055TIP3   OH242799   5.920   5.049   0.714 -0.1463 -0.8517 -0.1662
 7055TIP3    H142800   6.008   5.081   0.698  0.6255 -2.4074  0.7063
 7055TIP3    H242801   5.875   5.122   0.757  0.0927  0.6232 -2.2747
 7056TIP3   OH242802   3.677   5.130   7.390  0.0397 -0.5444 -0.4353
 7056TIP3    H142803   3.684   5.211   7.339 -1.4701  0.6045  1.0819
 7056TIP3    H242804   3.585   5.104   7.383  0.2597 -1.5125  0.0125
 7057TIP3   OH242805   4.947   4.017   1.939 -0.5681 -0.0419  0.2373
 7057TIP3    H142806   4.864   4.063   1.933 -0.1909  0.4568 -1.4984
 7057TIP3    H242807   5.012   4.078   1.904  0.3580 -0.8866  0.4095
 7058TIP3   OH242808   4.584   4.344   1.329  0.0371  0.4069 -0.1364
 7058TIP3    H142809   4.624   4.343   1.416  0.9721 -1.4404 -0.5297
 7058TIP3    H242810   4.634   4.279   1.280 -0.6665  1.2082 -1.9776
 7059TIP3   OH242811   1.520   6.725   6.140  0.0149 -0.0717  0.3236
 7059TIP3    H142812   1.443   6.684   6.100  0.3735 -0.1841 -0.2659
 7059TIP3    H242813   1.488   6.809   6.173 -0.7643 -0.8807  1.7017
 7060TIP3   OH242814   0.988   2.112   0.797 -0.2167 -0.4068 -0.6172
 7060TIP3    H142815   0.943   2.183   0.844  1.1313  0.2048 -0.2008
 7060TIP3    H242816   0.992   2.041   0.861  0.1530 -0.1543 -0.3513
 7061TIP3   OH242817   5.946   1.408   7.404  0.9348  0.2195  0.4293
 7061TIP3    H142818   6.008   1.466   7.449  3.1230 -1.3746 -0.3449
 7061TIP3    H242819   5.909   1.462   7.334  2.6065  0.8434 -0.0286
 7062TIP3   OH242820   5.621   0.117   0.432 -0.3200 -0.4497  0.0611
 7062TIP3    H142821   5.590   0.066   0.507 -2.2836 -0.3709 -0.6396
 7062TIP3    H242822   5.713   0.136   0.452 -0.7788 -0.4345  2.4333
 7063TIP3   OH242823   1.665   3.837   2.538  1.4145  0.4558 -0.3191
 7063TIP3    H142824   1.696   3.802   2.621 -0.1377  1.4989  0.7554
 7063TIP3    H242825   1.598   3.774   2.509 -0.8316  2.0024  1.2327
 7064TIP3   OH242826   5.113   0.499   2.152  0.2756 -0.3766 -0.5564
 7064TIP3    H142827   5.161   0.528   2.229  0.6277 -1.1240 -0.4919
 7064TIP3    H242828   5.038   0.559   2.147  0.4202 -0.1274  0.1772
 7065TIP3   OH242829   2.382   4.027   1.818 -0.0263  0.3412 -0.0545
 7065TIP3    H142830   2.407   4.106   1.771  1.9498  0.1482  0.5909
 7065TIP3    H242831   2.288   4.018   1.802 -0.1939  2.5114 -0.5740
 7066TIP3   OH242832   3.724   4.873   8.219  0.2929  0.0148 -0.0977
 7066TIP3    H142833   3.763   4.956   8.247  0.0467  0.5897 -1.3729
 7066TIP3    H242834   3.640   4.898   8.180  0.2505 -0.8252 -0.5638
 7067TIP3   OH242835   2.410   5.492   1.132 -0.4685 -0.3242 -0.0242
 7067TIP3    H142836   2.481   5.519   1.189 -1.6466 -1.3382  2.0516
 7067TIP3    H242837   2.414   5.552   1.058  2.3876 -0.2439  0.0967
 7068TIP3   OH242838   5.042   0.577   1.142  0.0617 -0.0486 -0.6995
 7068TIP3    H142839   4.990   0.501   1.168  0.4112 -0.2588 -0.6118
 7068TIP3    H242840   5.045   0.632   1.220  1.3971 -0.8394 -0.1553
 7069TIP3   OH242841   4.967   6.257   0.252  0.4474 -0.3855 -0.2413
 7069TIP3    H142842   5.050   6.218   0.224  0.0948 -2.1551  1.0134
 7069TIP3    H242843   4.902   6.188   0.239 -0.7932  0.8285 -0.7962
 7070TIP3   OH242844   1.069   0.453   6.778  0.5990 -0.2650 -0.0835
 7070TIP3    H142845   1.014   0.507   6.721  1.3232 -1.0738 -1.6226
 7070TIP3    H242846   1.154   0.498   6.778  0.2364  0.4969  1.5581
 7071TIP3   OH242847   2.747   2.649   7.554 -0.3999 -0.2117  0.1480
 7071TIP3    H142848   2.721   2.738   7.532  0.9635  0.2815  0.4045
 7071TIP3    H242849   2.688   2.623   7.625 -1.0779  0.3284 -0.2145
 7072TIP3   OH242850   5.735   1.533   6.701  0.4070 -0.1837  0.1595
 7072TIP3    H142851   5.652   1.522   6.656  0.1819  1.4716  0.1115
 7072TIP3    H242852   5.801   1.528   6.632  0.2142  0.1764 -0.0563
 7073TIP3   OH242853   2.730   6.762   8.345 -0.2754  0.6985  0.2121
 7073TIP3    H142854   2.689   6.704   8.408 -1.0597  2.1901  1.1163
 7073TIP3    H242855   2.685   6.846   8.355  1.2080  1.6555 -0.6221
 7074TIP3   OH242856   1.673   4.382   1.317  0.0544 -0.2285 -0.3243
 7074TIP3    H142857   1.688   4.374   1.411 -0.7792 -1.0743 -0.2559
 7074TIP3    H242858   1.714   4.466   1.294  0.7286 -0.2569  0.6846
 7075TIP3   OH242859   3.583   4.997   0.329 -0.0729  0.6857 -0.1192
 7075TIP3    H142860   3.496   5.025   0.300  0.2405  0.1517 -1.6687
 7075TIP3    H242861   3.627   5.079   0.352 -0.3807  1.1587 -1.1171
 7076TIP3   OH242862   6.191   5.823   7.310 -0.0777  0.4039 -0.0237
 7076TIP3    H142863   6.147   5.738   7.311  1.3560 -0.3625  0.4121
 7076TIP3    H242864   6.271   5.809   7.260 -0.0777  1.6537 -0.4236
 7077TIP3   OH242865   4.944   2.719   1.899 -0.5502  0.8586 -0.0574
 7077TIP3    H142866   4.986   2.783   1.957 -1.7391  0.6911  1.0391
 7077TIP3    H242867   4.875   2.769   1.855 -0.9685  0.5234  0.2116
 7078TIP3   OH242868   6.455   4.726   1.411  0.0550 -0.2954 -0.4607
 7078TIP3    H142869   6.515   4.665   1.453 -0.7497 -0.4062  0.5451
 7078TIP3    H242870   6.502   4.809   1.408  0.7249 -0.6844 -0.8228
 7079TIP3   OH242871   1.074   4.968   1.205 -0.0612 -0.2448  0.2980
 7079TIP3    H142872   1.016   4.928   1.140 -1.6837  0.3902  1.2899
 7079TIP3    H242873   1.029   4.954   1.289  2.0189 -1.1426  1.3354
 7080TIP3   OH242874   3.592   5.571   8.208 -0.1337  0.3549  0.1448
 7080TIP3    H142875   3.580   5.666   8.199 -0.6628  0.2398 -0.4228
 7080TIP3    H242876   3.573   5.536   8.121 -0.8635 -0.3588  0.5762
 7081TIP3   OH242877   4.614   1.530   8.348  0.1954  0.6740  0.0880
 7081TIP3    H142878   4.694   1.523   8.296  0.0340  1.8371 -0.3437
 7081TIP3    H242879   4.637   1.493   8.433  0.2525 -1.9778 -0.9968
 7082TIP3   OH242880   1.929   5.935   2.403  0.0997  0.1929 -0.7862
 7082TIP3    H142881   1.926   5.850   2.447  0.3396  0.1617 -0.8262
 7082TIP3    H242882   1.900   5.997   2.469  1.0547  0.2219 -0.3836
 7083TIP3   OH242883   3.636   1.385   2.035  0.5374 -0.2237 -0.2750
 7083TIP3    H142884   3.710   1.441   2.061 -0.4550 -0.0340  2.5195
 7083TIP3    H242885   3.630   1.320   2.105 -1.1475 -1.0138 -1.1112
 7084TIP3   OH242886   5.339   3.983   1.622  0.5179 -0.1507 -0.2488
 7084TIP3    H142887   5.294   3.904   1.650 -0.5364 -0.2012 -1.9450
 7084TIP3    H242888   5.357   4.031   1.703 -1.6945 -0.6291  0.5840
 7085TIP3   OH242889   0.982   1.116   0.615  0.0981  0.3636  0.0616
 7085TIP3    H142890   1.027   1.111   0.699  2.3732 -0.1445 -1.0961
 7085TIP3    H242891   0.894   1.083   0.632 -0.1040  1.9626  2.5930
 7086TIP3   OH242892   4.290   4.169   1.957  0.3407  0.2318 -0.4370
 7086TIP3    H142893   4.203   4.152   1.993 -0.3668 -0.6810 -2.4107
 7086TIP3    H242894   4.350   4.120   2.013 -0.3810  0.9925  1.0415
 7087TIP3   OH242895   1.654   2.620   0.258 -0.8604  0.1767  0.1955
 7087TIP3    H142896   1.641   2.675   0.181 -0.1124  0.4868  0.2851
 7087TIP3    H242897   1.586   2.648   0.319 -2.5592 -1.2047 -0.9406
 7088TIP3   OH242898   4.571   2.168   7.329 -1.0605  0.2347 -0.7962
 7088TIP3    H142899   4.498   2.183   7.269 -0.3963  1.0929 -1.4248
 7088TIP3    H242900   4.632   2.240   7.310  0.2608 -0.8489 -0.7675
 7089TIP3   OH242901   3.475   3.399   1.181 -0.9062 -0.3131  0.4838
 7089TIP3    H142902   3.527   3.399   1.101 -0.3375 -2.0212  0.7938
 7089TIP3    H242903   3.421   3.477   1.176 -0.6898 -0.2556 -1.4275
 7090TIP3   OH242904   0.814   6.828   2.089 -0.0644 -0.2266  0.1744
 7090TIP3    H142905   0.773   6.743   2.071  1.1123 -1.0630  1.1803
 7090TIP3    H242906   0.899   6.805   2.128 -1.2488  1.3046  4.1989
 7091TIP3   OH242907   4.359   4.156   8.555  0.1061 -0.1107 -0.0599
 7091TIP3    H142908   4.346   4.193   8.467 -1.4895  0.5456  0.4084
 7091TIP3    H242909   4.324   4.223   8.614  0.3966 -0.8981  1.0274
 7092TIP3   OH242910   5.060   1.481   2.027 -0.1070  0.6593  0.1850
 7092TIP3    H142911   4.971   1.496   2.057 -0.7390 -1.5756 -0.3976
 7092TIP3    H242912   5.085   1.397   2.066  1.0659  0.3554 -1.1365
 7093TIP3   OH242913   6.264   0.728   8.357  0.2434 -0.4691 -0.1132
 7093TIP3    H142914   6.218   0.810   8.338 -0.3779 -0.3804  1.5958
 7093TIP3    H242915   6.195   0.665   8.374  0.7373 -0.8617  0.4713
 7094TIP3   OH242916   0.914   2.449   2.221 -0.0916  0.0059  0.6165
 7094TIP3    H142917   0.867   2.532   2.212 -1.3905 -0.5628  1.7346
 7094TIP3    H242918   0.848   2.382   2.203  0.6739 -0.8092  0.7697
 7095TIP3   OH242919   6.268   2.312   1.964 -0.1954 -0.2111  0.1623
 7095TIP3    H142920   6.293   2.248   1.897 -0.0024  0.3909 -0.3469
 7095TIP3    H242921   6.349   2.357   1.986 -0.5703  0.8790 -0.5782
 7096TIP3   OH242922   4.172   5.309   1.514  0.0930 -0.4758  0.5515
 7096TIP3    H142923   4.128   5.318   1.429  1.4998 -1.5145 -0.3248
 7096TIP3    H242924   4.227   5.231   1.504  2.1653  0.7755  1.5693
 7097TIP3   OH242925   6.311   1.488   8.038  0.3584 -0.2885  0.3140
 7097TIP3    H142926   6.332   1.538   7.959  1.0629 -1.3297 -0.1784
 7097TIP3    H242927   6.217   1.470   8.031  0.5411 -0.9486 -0.6397
 7098TIP3   OH242928   3.729   5.350   8.281 -0.0118 -0.0741  0.0055
 7098TIP3    H142929   3.695   5.438   8.268  3.3439  1.1737 -1.4456
 7098TIP3    H242930   3.811   5.362   8.330 -0.8314 -2.7323  2.3361
 7099TIP3   OH242931   4.752   4.689   0.848 -0.7041  0.2861  0.7533
 7099TIP3    H142932   4.765   4.645   0.763 -1.1568  1.5606 -0.0053
 7099TIP3    H242933   4.803   4.637   0.910  1.0659  0.3233 -0.6111
 7100TIP3   OH242934   4.056   4.200   1.279 -0.0265  0.3422 -0.5846
 7100TIP3    H142935   4.151   4.193   1.284 -0.0281  0.9620  2.0183
 7100TIP3    H242936   4.024   4.111   1.299 -0.0725 -0.2546 -2.9727
 7101TIP3   OH242937   1.936   0.452   6.649 -0.0781 -0.0330  0.3529
 7101TIP3    H142938   1.976   0.529   6.689  0.7234  1.0183 -2.2701
 7101TIP3    H242939   1.861   0.486   6.600  1.8064 -0.3451 -3.0439
 7102TIP3   OH242940   2.084   1.676   8.027 -0.4488 -0.5620  0.2398
 7102TIP3    H142941   2.072   1.770   8.044 -0.6509 -0.3283 -1.0718
 7102TIP3    H242942   2.001   1.637   8.053 -0.2989 -0.4188  0.9717
 7103TIP3   OH242943   4.823   4.608   6.430  0.0727  0.1371 -0.3447
 7103TIP3    H142944   4.847   4.515   6.432 -1.0857 -0.1647  0.4714
 7103TIP3    H242945   4.900   4.651   6.393 -0.1855 -1.3792 -2.8903
 7104TIP3   OH242946   2.302   4.310   2.628  0.1809  0.5495 -0.3347
 7104TIP3    H142947   2.217   4.302   2.672  0.0173 -1.1848 -0.8690
 7104TIP3    H242948   2.365   4.314   2.700 -0.1594 -1.2183  0.1270
 7105TIP3   OH242949   6.006   4.034   1.352 -0.2716 -0.6907  0.9006
 7105TIP3    H142950   6.049   4.026   1.267 -1.2831 -0.8008  0.3791
 7105TIP3    H242951   6.001   4.128   1.367 -2.0611 -0.5473 -0.2416
 7106TIP3   OH242952   1.016   3.348   1.190 -0.4325 -0.2034  0.5104
 7106TIP3    H142953   1.078   3.283   1.222 -0.0189 -0.4491 -0.7315
 7106TIP3    H242954   1.019   3.340   1.095 -4.5100 -2.2280  0.3474
 7107TIP3   OH242955   3.827   0.968   7.640  0.2079  0.4393  0.3438
 7107TIP3    H142956   3.811   0.955   7.547 -1.3603 -0.3650  0.6896
 7107TIP3    H242957   3.922   0.971   7.648  0.4218 -1.1003 -1.0814
 7108TIP3   OH242958   2.846   2.145   2.484  0.2913 -0.7504  0.0778
 7108TIP3    H142959   2.939   2.158   2.503 -0.0806  1.5556  0.6491
 7108TIP3    H242960   2.805   2.140   2.571 -0.4932  2.0047 -0.0316
 7109TIP3   OH242961   2.721   0.161   1.185  0.4830  0.0638  0.0907
 7109TIP3    H142962   2.730   0.244   1.137 -1.0665  1.1169  1.5221
 7109TIP3    H242963   2.713   0.095   1.117  0.1647  1.2899 -1.1042
 7110TIP3   OH242964   0.975   6.538   1.340  0.3188  0.2068  0.1799
 7110TIP3    H142965   0.999   6.585   1.261  0.1619  0.1631  0.1048
 7110TIP3    H242966   0.993   6.446   1.321  0.1459  0.1801  0.1424
 7111TIP3   OH242967   3.600   2.283   2.123  0.1644  0.3912  0.0238
 7111TIP3    H142968   3.687   2.312   2.152  0.1723 -0.1688  0.5927
 7111TIP3    H242969   3.540   2.343   2.167  0.1614 -0.6137  1.4818
 7112TIP3   OH242970   0.324   0.268   1.065  0.0543  0.0649 -0.4530
 7112TIP3    H142971   0.302   0.179   1.093 -0.3181  0.5106  0.7654
 7112TIP3    H242972   0.252   0.294   1.008 -1.2844  0.5259  1.3390
 7113TIP3   OH242973   4.437   0.145   1.487 -0.1005 -0.2434  0.0522
 7113TIP3    H142974   4.375   0.131   1.415 -0.9500 -0.1105  0.7338
 7113TIP3    H242975   4.497   0.212   1.454 -0.6537  0.0303 -0.4250
 7114TIP3   OH242976   4.430   4.708   2.510 -0.0645  0.6437 -0.0565
 7114TIP3    H142977   4.478   4.786   2.539 -0.1209 -0.1349  2.4004
 7114TIP3    H242978   4.497   4.641   2.501 -0.2475  0.4895 -0.2746
 7115TIP3   OH242979   2.061   3.428   7.939 -0.2216 -0.1839 -0.0255
 7115TIP3    H142980   2.126   3.498   7.938  0.2846 -0.6455  0.2899
 7115TIP3    H242981   2.100   3.358   7.992  0.1431 -1.5257 -1.9674
 7116TIP3   OH242982   5.121   6.179   7.918 -0.1514  0.2764 -0.1862
 7116TIP3    H142983   5.158   6.113   7.860  0.8259  1.3565 -0.8378
 7116TIP3    H242984   5.112   6.257   7.863  1.7708  1.6505  1.2852
 7117TIP3   OH242985   3.203   0.203   8.642 -0.2965  0.6296 -0.8779
 7117TIP3    H142986   3.225   0.245   8.559  1.1849  0.4671 -0.6004
 7117TIP3    H242987   3.216   0.271   8.708 -0.9207  0.6042 -0.7301
 7118TIP3   OH242988   5.495   1.128   0.544  0.1477  0.8354 -0.2423
 7118TIP3    H142989   5.560   1.065   0.513  0.6307  2.4428 -2.7929
 7118TIP3    H242990   5.468   1.175   0.466 -3.0140  1.2762  0.9728
 7119TIP3   OH242991   2.165   3.224   0.197 -0.3297  0.1194  0.1963
 7119TIP3    H142992   2.093   3.286   0.182 -1.0524 -0.3687  1.4999
 7119TIP3    H242993   2.129   3.139   0.172  0.4568  0.1047 -0.9853
 7120TIP3   OH242994   3.407   5.086   0.707 -0.0328  0.1947  0.4746
 7120TIP3    H142995   3.490   5.120   0.674 -0.6901  0.4800 -0.9344
 7120TIP3    H242996   3.427   4.997   0.737  1.3551  1.1561  2.7227
 7121TIP3   OH242997   5.552   6.906   0.689  0.6431 -0.6661 -0.5740
 7121TIP3    H142998   5.584   6.992   0.716 -0.3664 -1.4465  3.8551
 7121TIP3    H242999   5.622   6.845   0.712  0.5664 -1.2776 -1.8475
 7122TIP3   OH243000   6.029   1.723   6.952 -0.4595 -0.2946 -0.0319
 7122TIP3    H143001   6.037   1.771   7.034 -0.9661 -1.4462  0.7298
 7122TIP3    H243002   5.935   1.727   6.932 -0.6238 -1.5209  0.4196
 7123TIP3   OH243003   2.511   2.910   6.754 -0.3730 -0.3979  0.3280
 7123TIP3    H143004   2.577   2.893   6.686 -0.6350  1.1674 -0.3522
 7123TIP3    H243005   2.442   2.959   6.710 -0.4144  0.9239  1.7741
 7124TIP3   OH243006   2.605   1.215   7.668 -0.4200 -0.7034  0.4346
 7124TIP3    H143007   2.629   1.283   7.731 -1.8847  0.2709 -0.0012
 7124TIP3    H243008   2.663   1.231   7.593 -1.7382  1.0743 -0.2731
 7125TIP3   OH243009   0.074   5.902   8.051  0.0577  0.2068  0.8686
 7125TIP3    H143010  -0.011   5.894   8.009  1.2068 -0.6081 -1.5127
 7125TIP3    H243011   0.108   5.987   8.022  0.4400  0.1071  1.0105
 7126TIP3   OH243012   0.980   6.057   2.081  0.3648  0.1282 -0.1592
 7126TIP3    H143013   0.941   6.113   2.147 -0.1583  2.2749 -2.1462
 7126TIP3    H243014   0.910   5.998   2.054  0.4857 -0.5284  0.8839
 7127TIP3   OH243015   2.674   3.730   7.769 -0.5724  0.1391  0.4474
 7127TIP3    H143016   2.763   3.693   7.771  0.6366  2.8102  0.4302
 7127TIP3    H243017   2.673   3.792   7.841 -1.8825  1.3079 -0.5440
 7128TIP3   OH243018   6.202   1.565   7.287  0.8341  0.6794 -0.3672
 7128TIP3    H143019   6.264   1.612   7.232  0.8371  1.8080  0.5772
 7128TIP3    H243020   6.119   1.612   7.276  0.5154  0.1191 -0.4144
 7129TIP3   OH243021   0.239   5.224   0.186 -0.2336  0.3155 -0.7313
 7129TIP3    H143022   0.297   5.232   0.262 -2.1601  2.7321  0.6648
 7129TIP3    H243023   0.167   5.170   0.217  0.0113 -0.5122 -1.5862
 7130TIP3   OH243024   3.453   3.554   0.580  0.1730 -0.2487  0.3662
 7130TIP3    H143025   3.483   3.581   0.492  1.0940 -1.6734  0.1974
 7130TIP3    H243026   3.359   3.539   0.570  0.2803 -0.4724 -0.4174
 7131TIP3   OH243027   6.397   2.789   1.397 -0.8404  0.1827 -0.0277
 7131TIP3    H143028   6.392   2.819   1.306 -1.4702  0.9655  0.2592
 7131TIP3    H243029   6.335   2.716   1.402 -0.5572 -0.0803 -0.3045
 7132TIP3   OH243030   0.333   4.837   1.653  0.1085 -0.3708 -0.1906
 7132TIP3    H143031   0.418   4.864   1.618 -0.3344 -0.2410 -1.2152
 7132TIP3    H243032   0.297   4.779   1.585 -1.6298  1.4339 -0.9087
 7133TIP3   OH243033   1.468   6.891   7.682  0.0358 -0.4533  0.4490
 7133TIP3    H143034   1.510   6.806   7.675  0.2051 -0.4052  0.8775
 7133TIP3    H243035   1.480   6.931   7.596 -0.6435 -1.1394  0.0261
 7134TIP3   OH243036   1.501   3.879   1.353 -0.1475  0.7531 -0.0073
 7134TIP3    H143037   1.548   3.912   1.430  1.8781  0.4783 -1.0718
 7134TIP3    H243038   1.502   3.784   1.363  1.9849  0.5856 -1.3515
 7135TIP3   OH243039   3.480   1.136   0.901 -0.3117  0.0781  0.0751
 7135TIP3    H143040   3.488   1.228   0.876 -0.2973  0.0616  0.0182
 7135TIP3    H243041   3.517   1.087   0.827  1.3744  0.0747  0.8617
 7136TIP3   OH243042   4.999   1.467   0.905 -0.4553 -0.0560 -0.1246
 7136TIP3    H143043   4.966   1.384   0.871 -2.8265  1.0405 -0.7029
 7136TIP3    H243044   5.011   1.522   0.828  0.3088  0.4307  0.3217
 7137TIP3   OH243045   5.471   3.690   8.399  0.0039  0.1910 -0.0597
 7137TIP3    H143046   5.398   3.744   8.372 -0.8716 -1.8266 -1.9646
 7137TIP3    H243047   5.442   3.600   8.385  2.7993 -0.6942 -0.7998
 7138TIP3   OH243048   2.693   2.411   0.493 -0.5722  0.2472  0.0061
 7138TIP3    H143049   2.644   2.486   0.459  0.0328  0.1967 -1.0185
 7138TIP3    H243050   2.652   2.335   0.452 -1.0503  0.0173  0.8820
 7139TIP3   OH243051   4.682   6.336   1.565  0.2878 -0.2444  0.0601
 7139TIP3    H143052   4.599   6.375   1.540 -0.1879 -0.5270  1.1619
 7139TIP3    H243053   4.698   6.366   1.654  0.7859 -1.1243  0.2895
 7140TIP3   OH243054   4.859   5.531   8.509  0.0419  0.3620 -0.2705
 7140TIP3    H143055   4.949   5.562   8.520 -0.2301  1.8634 -1.8265
 7140TIP3    H243056   4.849   5.463   8.576  1.5874  1.7512  1.5025
 7141TIP3   OH243057   0.100   1.653   0.235  0.3053 -0.1887  0.2786
 7141TIP3    H143058   0.060   1.628   0.318 -0.3278 -1.0396 -0.2704
 7141TIP3    H243059   0.136   1.571   0.201  0.9226  0.2322 -0.0966
 7142TIP3   OH243060   1.373   6.155   2.124 -0.0696  0.3365  0.1385
 7142TIP3    H143061   1.468   6.153   2.109 -0.1610  1.8233 -0.8757
 7142TIP3    H243062   1.350   6.064   2.141  1.4177 -0.1968 -0.4678
 7143TIP3   OH243063   1.241   5.989   0.607 -0.2364  0.4096  0.3327
 7143TIP3    H143064   1.216   6.040   0.683 -0.8761 -0.7734  0.9434
 7143TIP3    H243065   1.172   6.004   0.543 -1.0933 -0.6659  0.9835
 7144TIP3   OH243066   3.730   5.691   1.676 -0.5241  0.2042 -0.2468
 7144TIP3    H143067   3.813   5.645   1.686 -0.7903 -0.1999  0.1886
 7144TIP3    H243068   3.742   5.746   1.599  1.1517  2.3773  1.4338
 7145TIP3   OH243069   1.162   6.759   7.299 -0.3960  0.2245 -0.6471
 7145TIP3    H143070   1.129   6.779   7.212 -0.3427  0.0354 -0.7105
 7145TIP3    H243071   1.184   6.666   7.296 -3.9669 -0.8163  0.7039
 7146TIP3   OH243072   1.782   1.409   1.482  0.3020 -0.1989  0.9234
 7146TIP3    H143073   1.759   1.499   1.504 -1.5310  0.2843 -2.2778
 7146TIP3    H243074   1.698   1.362   1.483  0.6410 -0.9375 -1.0351
 7147TIP3   OH243075   6.148   5.736   0.565  0.4190  0.5796  0.3223
 7147TIP3    H143076   6.236   5.715   0.595  0.3365  0.1399  0.2698
 7147TIP3    H243077   6.139   5.689   0.482 -0.1685 -0.0876  0.7515
 7148TIP3   OH243078   3.178   4.233   7.478 -0.3377  0.1089 -0.6751
 7148TIP3    H143079   3.231   4.178   7.420 -0.1176 -0.4099 -0.0069
 7148TIP3    H243080   3.157   4.310   7.426  0.0917 -0.2115 -1.3429
 7149TIP3   OH243081   1.219   1.533   2.087 -0.2370 -0.1989  0.1426
 7149TIP3    H143082   1.258   1.612   2.048 -0.2110  0.5056  1.5234
 7149TIP3    H243083   1.191   1.481   2.012  2.2207 -0.1737 -0.9067
 7150TIP3   OH243084   4.212   5.634   0.686 -0.2176  0.0429 -0.1034
 7150TIP3    H143085   4.172   5.587   0.760 -0.3626 -0.1203 -0.2844
 7150TIP3    H243086   4.211   5.725   0.713  0.3402 -0.0935  0.3764
 7151TIP3   OH243087   5.481   2.256   8.266 -0.0027  0.6687  0.0946
 7151TIP3    H143088   5.517   2.189   8.324 -0.7857  0.8003  0.7384
 7151TIP3    H243089   5.421   2.207   8.209 -0.4483  0.7920  0.4559
 7152TIP3   OH243090   2.859   1.531   1.415 -0.0566 -0.1464 -0.0130
 7152TIP3    H143091   2.936   1.586   1.422  0.6742 -1.1179 -0.2686
 7152TIP3    H243092   2.891   1.442   1.426 -1.0443 -0.6161 -0.7316
 7153TIP3   OH243093   0.296   6.674   7.801 -0.0493 -0.7335  0.4342
 7153TIP3    H143094   0.299   6.736   7.728  0.0955 -1.8834 -0.5594
 7153TIP3    H243095   0.376   6.622   7.792 -0.9978 -2.1968  0.2189
 7154TIP3   OH243096   3.727   3.729   2.291  0.3418  0.0004 -0.0446
 7154TIP3    H143097   3.639   3.731   2.329 -0.2404 -0.4317 -1.3448
 7154TIP3    H243098   3.779   3.784   2.351 -0.9736  0.9303  0.3037
 7155TIP3   OH243099   1.197   4.931   8.021 -0.0725  0.2325 -0.3548
 7155TIP3    H143100   1.268   4.994   8.005 -0.7483  0.9445 -0.6320
 7155TIP3    H243101   1.226   4.880   8.096 -0.0222  1.6841  0.6552
 7156TIP3   OH243102   6.809   6.093   0.251 -0.4064 -0.3053 -0.3069
 7156TIP3    H143103   6.810   6.004   0.214  2.6481 -0.0846 -0.9837
 7156TIP3    H243104   6.763   6.145   0.185  1.7774 -0.6101 -2.2303
 7157TIP3   OH243105   3.374   2.594   6.243 -0.5694 -0.1959  0.1904
 7157TIP3    H143106   3.350   2.687   6.243 -0.8636 -0.2723  0.6971
 7157TIP3    H243107   3.467   2.594   6.219 -0.7381  0.1782 -0.5221
 7158TIP3   OH243108   2.345   2.804   0.270 -0.2236 -0.2361  0.4701
 7158TIP3    H143109   2.301   2.840   0.347  0.7267 -0.4929  1.1506
 7158TIP3    H243110   2.390   2.726   0.302 -1.5229 -1.5613 -0.8035
 7159TIP3   OH243111   4.705   5.400   2.258 -0.5413 -0.1097 -0.2356
 7159TIP3    H143112   4.707   5.338   2.331  0.8900  1.0263  0.7553
 7159TIP3    H243113   4.757   5.358   2.189 -0.2885 -0.3783  0.1175
 7160TIP3   OH243114   2.895   1.345   0.214  0.7021 -0.2329  0.2250
 7160TIP3    H143115   2.870   1.371   0.125  0.3257 -0.7848  0.1644
 7160TIP3    H243116   2.812   1.345   0.263  0.8221 -0.4981  0.4313
 7161TIP3   OH243117   4.880   5.998   8.382 -0.2439  0.3638  0.0699
 7161TIP3    H143118   4.814   5.936   8.352  1.3505 -0.6559 -1.5136
 7161TIP3    H243119   4.928   5.951   8.450 -0.8834  0.9729  0.9635
 7162TIP3   OH243120   3.972   0.918   6.616 -0.1255  0.4312  0.1611
 7162TIP3    H143121   4.018   0.994   6.581  0.4629 -0.1406 -0.3276
 7162TIP3    H243122   3.947   0.867   6.539 -1.8011  0.8200  0.3872
 7163TIP3   OH243123   0.350   1.394   6.185 -0.4947 -0.1594  0.3361
 7163TIP3    H143124   0.385   1.461   6.243 -0.5849 -0.1269  0.3540
 7163TIP3    H243125   0.418   1.380   6.120 -0.3926 -0.1968  0.4507
 7164TIP3   OH243126   4.519   1.813   7.716  0.4186 -0.0352 -0.5777
 7164TIP3    H143127   4.430   1.778   7.721  0.6585 -0.5208  0.9083
 7164TIP3    H243128   4.511   1.902   7.750  0.2141  0.5676 -2.1401
 7165TIP3   OH243129   0.572   4.993   1.568  0.1843  0.3011  0.5132
 7165TIP3    H143130   0.559   5.049   1.644  0.0369 -0.7622  1.2837
 7165TIP3    H243131   0.659   4.955   1.580 -0.3873 -0.9462  0.8832
 7166TIP3   OH243132   2.315   3.950   1.248 -0.1688  0.0628 -0.1412
 7166TIP3    H143133   2.283   3.873   1.200  1.0711 -0.2151 -0.5676
 7166TIP3    H243134   2.410   3.946   1.238 -0.0861  1.6716 -0.1615
 7167TIP3   OH243135   1.323   1.594   0.110  0.3666 -0.2604 -0.5348
 7167TIP3    H143136   1.368   1.649   0.174 -0.3175  0.3432 -0.5692
 7167TIP3    H243137   1.343   1.504   0.138  2.4502 -0.0430 -1.1415
 7168TIP3   OH243138   1.346   4.416   0.024 -0.1439  0.3189 -0.4188
 7168TIP3    H143139   1.344   4.431  -0.071 -1.2493 -1.2570 -0.6877
 7168TIP3    H243140   1.259   4.441   0.054 -0.7492 -1.7487 -0.3005
 7169TIP3   OH243141   2.909   3.789   8.466  0.0371 -0.1182  1.1783
 7169TIP3    H143142   2.815   3.775   8.456  0.1260 -0.3021  0.5432
 7169TIP3    H243143   2.921   3.807   8.559 -0.6980  0.4849  1.1627
 7170TIP3   OH243144   5.144   1.075   7.684  0.0312  0.5980  0.1500
 7170TIP3    H143145   5.060   1.106   7.650  0.6274 -0.2436 -2.2958
 7170TIP3    H243146   5.162   0.995   7.635  0.4952 -1.4570  3.3358
 7171TIP3   OH243147   4.829   3.466   1.412 -0.2923 -0.2210  0.0214
 7171TIP3    H143148   4.897   3.481   1.477  1.1842 -1.1808 -1.2528
 7171TIP3    H243149   4.748   3.496   1.455  1.1606  2.9535  0.8158
 7172TIP3   OH243150   3.296   5.429   7.167  0.3901 -0.1235 -0.3450
 7172TIP3    H143151   3.203   5.443   7.186  0.4636 -0.0639 -0.0277
 7172TIP3    H243152   3.296   5.361   7.100  0.0725  0.5863 -1.0947
 7173TIP3   OH243153   1.256   6.876   1.306  0.7629  0.2614  0.6066
 7173TIP3    H143154   1.264   6.844   1.216  1.0946 -0.2267  0.8054
 7173TIP3    H243155   1.223   6.801   1.355 -2.5214  1.3688  0.3441
 7174TIP3   OH243156   4.552   3.569   7.501 -0.1235 -0.0053  0.5292
 7174TIP3    H143157   4.523   3.549   7.590 -1.1594  2.1673  0.7533
 7174TIP3    H243158   4.486   3.630   7.468  2.0524  2.0092 -0.4193
 7175TIP3   OH243159   4.861   2.273   1.692  0.8005  0.2642  0.3025
 7175TIP3    H143160   4.925   2.248   1.759  0.6348  0.8638  0.6987
 7175TIP3    H243161   4.897   2.238   1.611  0.3433 -1.6415  0.8683
 7176TIP3   OH243162   0.776   4.835   0.258 -0.1197 -0.3193 -0.0296
 7176TIP3    H143163   0.715   4.866   0.325 -0.9021 -0.2531 -0.7441
 7176TIP3    H243164   0.853   4.805   0.306 -1.6860 -2.7402  1.1424
 7177LIG     O143165   3.317   4.769   2.013 -0.2084  0.5453 -0.4002
 7177LIG     O243166   3.129   5.191   2.077 -0.0317  0.5237 -0.5573
 7177LIG     N143167   3.341   5.180   1.978  0.1104 -0.5719 -0.3085
 7177LIG     N243168   3.550   4.914   1.889 -0.8466 -0.1534  0.1423
 7177LIG     N343169   3.225   4.979   2.040  0.4746  0.3405 -0.3935
 7177LIG     N443170   3.569   5.140   1.894  0.1814  0.3156 -0.1225
 7177LIG     C143171   3.434   4.959   1.949 -0.0794  0.8315  0.6191
 7177LIG     C243172   3.443   5.102   1.935 -0.7093 -0.0590 -0.3241
 7177LIG     C343173   3.326   4.890   2.003 -0.3497  0.3181  0.3545
 7177LIG     C443174   3.224   5.118   2.034  0.3541 -0.5097  0.3733
 7177LIG     C543175   3.629   5.026   1.860 -0.0875  0.5378 -0.3123
 7177LIG     C643176   3.340   5.327   1.977 -0.6028 -0.3381 -0.3076
 7177LIG     C743177   3.587   4.773   1.871  0.2181  0.0395  0.2462
 7177LIG     C843178   3.098   4.918   2.100  0.5950 -0.5756  0.2356
 7177LIG     H143179   3.729   5.020   1.817 -0.3056  2.9982 -1.2977
 7177LIG     H243180   3.320   5.354   1.871  0.5758  1.5945 -0.1017
 7177LIG     H343181   3.443   5.367   1.993  0.8346 -2.5488 -3.0619
 7177LIG     H443182   3.267   5.379   2.042 -2.7632 -1.3034 -1.8500
 7177LIG     H543183   3.657   4.754   1.955  0.8755  2.0661  0.2187
 7177LIG     H643184   3.636   4.760   1.772 -2.0739  1.8186 -1.2043
 7177LIG     H743185   3.506   4.697   1.874 -0.6351  0.8855 -0.5737
 7177LIG     H843186   3.129   4.843   2.176  2.7636 -0.8889 -0.8994
 7177LIG     H943187   3.049   4.852   2.026  3.9091 -2.0798 -0.7810
 7177LIG    H1043188   3.033   4.994   2.148 -0.9054 -0.8236 -1.3233
   6.90648   6.90648   8.66215
